FOO
138240
    1MOL0     O    1   6.770   5.886   4.781 -0.5839  0.1885 -0.4540
    1MOL0     C    2   6.784   5.961   4.681  0.2447  0.6050  0.2933
    1MOL0     O    3   6.728   6.084   4.667 -0.0953  0.5601 -0.4389
    1MOL0     C    4   6.704   6.159   4.779  0.4014 -0.7362 -1.4208
    1MOL0     C    5   6.760   6.282   4.803 -0.4682 -0.7582  0.0201
    1MOL0     C    6   6.758   6.338   4.930 -0.9217 -0.0773  0.7767
    1MOL0     C    7   6.701   6.265   5.034  0.7330 -0.4995 -0.0637
    1MOL0     O    8   6.698   6.299   5.168 -0.2886 -0.3953 -0.2708
    1MOL0     C    9   6.686   6.441   5.205  1.4697 -0.2839 -0.3327
    1MOL0     C   10   6.635   6.458   5.353 -0.4905 -0.4808 -0.0773
    1MOL0     C   11   6.715   6.391   5.454 -0.2374  0.1276  0.0220
    1MOL0     C   12   6.652   6.401   5.593  0.5991 -0.7775  0.8930
    1MOL0     C   13   6.700   6.514   5.677 -0.4902  0.0171 -0.9749
    1MOL0     C   14   6.677   6.506   5.831  0.3900 -0.1623  0.7454
    1MOL0     C   15   6.738   6.632   5.903 -0.2430 -0.2293  0.4569
    1MOL0     C   16   6.744   6.617   6.055 -0.7991  0.0878 -0.0757
    1MOL0     N   17   6.848   6.526   6.094  0.1596 -0.1414  0.6079
    1MOL0     C   18   6.823   6.406   6.145  1.0597  0.2578 -0.9315
    1MOL0     C   19   6.942   6.344   6.164  0.6517  0.2044 -0.9308
    1MOL0     C   20   6.968   6.210   6.207 -0.1911 -1.1725  0.3630
    1MOL0     C   21   6.960   6.110   6.091 -0.4228  0.1888  0.1253
    1MOL0     C   22   7.047   5.992   6.115 -0.1833 -0.0163 -0.1526
    1MOL0     C   23   7.201   6.009   6.084 -0.2323  0.2764 -0.3568
    1MOL0     O   24   7.265   6.101   6.170  0.2493 -0.1112 -0.1605
    1MOL0     C   25   7.395   6.145   6.153 -0.1213 -0.4053  0.3980
    1MOL0     C   26   7.432   6.268   6.203  0.2851  0.1297  0.0060
    1MOL0     C   27   7.566   6.305   6.170  0.0076 -1.0405  0.1136
    1MOL0     C   28   7.655   6.224   6.093  0.4717 -1.3121 -0.0272
    1MOL0     C   29   7.785   6.270   6.043 -0.2539 -0.2935  0.2496
    1MOL0     O   30   7.854   6.188   5.961  0.0215  0.3086  1.3283
    1MOL0     C   31   7.967   6.239   5.894 -0.2124 -0.1719 -0.5996
    1MOL0     C   32   7.939   6.300   5.776  0.7229  0.0958 -0.2002
    1MOL0     C   33   8.043   6.357   5.709  0.3365 -0.0745 -0.0351
    1MOL0     C   34   8.174   6.353   5.746  0.2161 -0.1518  0.2841
    1MOL0     O   35   8.277   6.400   5.672 -0.1247 -0.0809 -0.2760
    1MOL0     C   36   8.273   6.461   5.550  0.1367  0.0678  0.5809
    1MOL0     C   37   8.403   6.443   5.476 -0.2133 -0.4581 -0.2482
    1MOL0     C   38   8.435   6.300   5.428  0.2036 -0.5933  0.0661
    1MOL0     C   39   8.488   6.286   5.284  1.0927  0.9671  0.6098
    1MOL0     C   40   8.413   6.371   5.178 -0.0619  0.2948 -0.5158
    1MOL0     C   41   8.260   6.333   5.168 -0.0248 -0.6727 -0.0246
    1MOL0     C   42   8.195   6.408   5.052 -0.3220  0.7582  0.9579
    1MOL0     C   43   8.088   6.329   4.971  0.0411 -0.2952  0.0046
    1MOL0    Cl   44   7.991   6.238   5.097 -0.1117  0.7164 -0.1578
    1MOL0     C   45   8.199   6.296   5.869  0.4940 -0.1351  0.4736
    1MOL0     C   46   8.095   6.253   5.949  0.3941  0.5542  0.0555
    1MOL0     O   47   7.819   6.379   6.078 -0.2461  0.0476  0.0012
    1MOL0     C   48   7.610   6.098   6.061  0.2050  0.1317 -0.5585
    1MOL0     C   49   7.488   6.050   6.106  0.4512  0.3460  0.2307
    1MOL0     N   50   7.038   6.434   6.131 -0.0810  0.0572 -0.4135
    1MOL0     N   51   6.984   6.547   6.103  1.3874 -0.1219 -0.4285
    1MOL0     C   52   6.628   6.152   5.008 -0.3448  0.6608  0.3920
    1MOL0     C   53   6.625   6.101   4.886 -0.1427 -0.1071  1.0868
    1MOL0     C   54   6.851   5.897   4.557  0.2298 -0.3423 -0.8660
    1MOL0     C   55   6.870   5.758   4.552  0.2059  0.1573 -0.2556
    1MOL0     C   56   6.943   5.703   4.459 -0.7679 -0.2506 -1.3192
    1MOL0     C   57   7.000   5.768   4.357  0.5475 -0.8252 -0.1093
    1MOL0     O   58   7.081   5.691   4.276 -0.2758 -0.3198  0.0453
    1MOL0     C   59   7.150   5.754   4.168 -0.2071  0.7302 -0.5195
    1MOL0     C   60   7.259   5.668   4.118 -0.0298  0.8075 -0.2725
    1MOL0     C   61   7.228   5.540   4.047 -0.4410 -0.1795  0.2494
    1MOL0     C   62   7.201   5.414   4.132 -0.4632  1.0457  0.6548
    1MOL0     C   63   7.296   5.303   4.100  0.4059 -0.2924  0.7330
    1MOL0     C   64   7.358   5.198   4.081  0.1683 -0.1301  0.7592
    1MOL0     C   65   6.971   5.908   4.347 -0.3938 -0.5113 -0.2688
    1MOL0     C   66   6.898   5.978   4.447  0.5008  0.0300  0.5289
    1MOL0     C   67   6.874   6.127   4.425  0.1849  0.9244 -0.2112
    1MOL0     H   68   6.819   6.324   4.722 -0.9461 -0.7625 -0.3290
    1MOL0     H   69   6.820   6.426   4.943  0.0580 -0.2486 -2.0569
    1MOL0     H   70   6.789   6.474   5.191  1.6650  0.6300  2.5136
    1MOL0     H   71   6.611   6.484   5.137  0.7639  0.3607  0.8175
    1MOL0     H   72   6.534   6.418   5.351  0.5486 -3.4942  1.4372
    1MOL0     H   73   6.626   6.565   5.376  1.9373  0.2336 -1.9322
    1MOL0     H   74   6.801   6.458   5.447 -1.0106  1.3546  1.7059
    1MOL0     H   75   6.748   6.293   5.416  0.4435  0.7293 -0.9932
    1MOL0     H   76   6.543   6.392   5.587  0.5845 -1.5355  1.9295
    1MOL0     H   77   6.684   6.313   5.648  0.2576 -1.4440  0.0574
    1MOL0     H   78   6.806   6.527   5.657 -0.1620 -0.7314  0.2128
    1MOL0     H   79   6.650   6.609   5.655  0.0164  0.2789 -1.0078
    1MOL0     H   80   6.571   6.506   5.856  0.4877 -2.5949  1.4157
    1MOL0     H   81   6.721   6.414   5.870  1.7728 -0.5882 -1.6439
    1MOL0     H   82   6.678   6.721   5.886  0.3299  0.4104  1.6871
    1MOL0     H   83   6.836   6.657   5.862 -1.1908  0.8358 -1.2524
    1MOL0     H   84   6.772   6.711   6.104  2.1516 -0.9860  0.5291
    1MOL0     H   85   6.646   6.581   6.086 -1.8720 -0.0987 -3.3031
    1MOL0     H   86   6.725   6.364   6.168  0.6756  1.8803  0.5449
    1MOL0     H   87   7.067   6.208   6.254  0.1600  0.1022 -0.2863
    1MOL0     H   88   6.899   6.175   6.284 -0.2874  0.3579  0.9934
    1MOL0     H   89   6.861   6.062   6.087 -0.5153  0.4591 -1.3714
    1MOL0     H   90   6.975   6.150   5.990  1.0239  1.2935  0.7570
    1MOL0     H   91   7.009   5.901   6.067 -1.3658  1.5729 -2.3733
    1MOL0     H   92   7.054   5.976   6.223 -0.8251  0.8034  0.0164
    1MOL0     H   93   7.212   6.042   5.980 -1.6841  0.8240 -0.3710
    1MOL0     H   94   7.245   5.911   6.103 -1.1598 -0.9472 -3.7819
    1MOL0     H   95   7.354   6.331   6.246  2.1259  1.1281  2.0580
    1MOL0     H   96   7.587   6.407   6.200 -0.7468 -0.8540  0.0463
    1MOL0     H   97   7.841   6.293   5.730  0.5399 -0.2962  0.2393
    1MOL0     H   98   8.018   6.407   5.616 -2.3005  2.8559  2.0761
    1MOL0     H   99   8.199   6.426   5.477 -0.0682  1.5872  0.0070
    1MOL0     H  100   8.241   6.565   5.563  2.3083  1.1245 -1.7973
    1MOL0     H  101   8.410   6.524   5.402  0.2858  0.7596  1.0797
    1MOL0     H  102   8.485   6.474   5.541 -0.2676  2.4524 -1.3934
    1MOL0     H  103   8.516   6.261   5.490  4.1351  1.7811 -3.1088
    1MOL0     H  104   8.347   6.234   5.424  1.2461 -1.9692 -1.8878
    1MOL0     H  105   8.469   6.186   5.242  2.9770  0.4835  0.7975
    1MOL0     H  106   8.591   6.318   5.265  0.4184  1.4249 -3.2569
    1MOL0     H  107   8.468   6.358   5.084 -2.4919  1.5965 -2.2218
    1MOL0     H  108   8.427   6.479   5.182 -3.2313  0.7603  0.6628
    1MOL0     H  109   8.246   6.225   5.153  1.1478 -0.9200  0.5001
    1MOL0     H  110   8.202   6.356   5.257 -2.1924 -2.1237 -0.9765
    1MOL0     H  111   8.271   6.440   4.980  0.0834 -2.4046 -0.1862
    1MOL0     H  112   8.139   6.490   5.097 -1.2069  1.0724 -0.6379
    1MOL0     H  113   8.029   6.396   4.909  0.1086  1.6212  1.9157
    1MOL0     H  114   8.143   6.258   4.909  1.4802  1.8185 -1.2236
    1MOL0     H  115   8.299   6.292   5.910  0.3750 -2.2874  0.6382
    1MOL0     H  116   8.114   6.212   6.048 -0.3279  0.4565  0.1552
    1MOL0     H  117   7.681   6.028   6.020 -1.0614 -1.8516  0.4612
    1MOL0     H  118   7.449   5.950   6.094  0.6022  0.5319 -2.4155
    1MOL0     H  119   6.560   6.101   5.076 -2.8022 -0.5472 -2.7208
    1MOL0     H  120   6.578   6.005   4.870 -1.2395  0.0562  3.0456
    1MOL0     H  121   6.844   5.691   4.633 -0.1559  1.8709  1.0854
    1MOL0     H  122   6.966   5.597   4.470  2.7412  0.3344 -1.9390
    1MOL0     H  123   7.185   5.854   4.194 -1.1601  0.1716  3.6342
    1MOL0     H  124   7.093   5.769   4.076  0.1316  2.8628 -0.4244
    1MOL0     H  125   7.314   5.637   4.208  0.3194 -1.6592 -1.2405
    1MOL0     H  126   7.333   5.719   4.056  0.3263 -0.1760 -0.6799
    1MOL0     H  127   7.325   5.524   3.997 -0.4719  0.7720 -0.1371
    1MOL0     H  128   7.147   5.559   3.976 -1.1780 -1.0908  0.8324
    1MOL0     H  129   7.210   5.444   4.237 -1.7643  4.0394  0.0220
    1MOL0     H  130   7.100   5.387   4.100  0.1824  0.3255 -0.8587
    1MOL0     H  131   7.424   5.114   4.070 -2.1578 -2.3500  2.4686
    1MOL0     H  132   7.008   5.980   4.275 -1.0147  1.5188  1.3569
    1MOL0     H  133   6.768   6.136   4.402 -0.0884  0.0734  0.6046
    1MOL0     H  134   6.902   6.178   4.518  0.6284 -3.1461  2.1728
    1MOL0     H  135   6.935   6.170   4.346 -2.5473 -2.5710 -4.7346
    2MOL0     O  136   6.078  11.167   7.960 -0.3188 -0.4652  0.1687
    2MOL0     C  137   5.997  11.074   7.943  0.0376 -0.0567 -0.0982
    2MOL0     O  138   6.007  10.944   7.999  0.2209 -0.4858 -0.7660
    2MOL0     C  139   6.130  10.888   8.033 -0.5151 -0.7302 -0.2693
    2MOL0     C  140   6.253  10.927   7.975  0.1288  0.5761  1.1585
    2MOL0     C  141   6.364  10.850   7.996 -0.2741 -0.3155  0.1869
    2MOL0     C  142   6.362  10.733   8.066  0.5500 -0.9939 -0.8270
    2MOL0     O  143   6.481  10.678   8.089 -0.5103  0.2355 -0.5949
    2MOL0     C  144   6.484  10.577   8.188 -0.1513 -0.3666 -0.6206
    2MOL0     C  145   6.625  10.532   8.170 -1.1324 -0.1510  0.6160
    2MOL0     C  146   6.655  10.403   8.263  0.2626 -0.3805 -0.6008
    2MOL0     C  147   6.813  10.383   8.262  0.0574 -0.8998 -0.8129
    2MOL0     C  148   6.872  10.251   8.334  0.8291 -0.7528 -0.4533
    2MOL0     C  149   6.836  10.235   8.483  0.1842  0.2070 -0.0962
    2MOL0     C  150   6.850  10.083   8.532  0.3735  0.1926 -1.0785
    2MOL0     C  151   6.994  10.031   8.532 -0.4825 -0.2451  0.3808
    2MOL0     N  152   7.093  10.124   8.588  0.3668 -0.3212  0.1298
    2MOL0     C  153   7.096  10.162   8.723  0.4052 -0.4274  0.9506
    2MOL0     C  154   7.191  10.259   8.729  0.2311 -0.0939  1.3872
    2MOL0     C  155   7.202  10.328   8.852 -0.1176  0.9951 -0.4654
    2MOL0     C  156   7.274  10.255   8.965  0.5364  0.0665 -0.1381
    2MOL0     C  157   7.275  10.338   9.088 -0.6823  0.1067 -0.9809
    2MOL0     C  158   7.146  10.358   9.167  0.0512  0.1036  0.0942
    2MOL0     O  159   7.078  10.476   9.117 -0.1784 -0.5187  0.4153
    2MOL0     C  160   7.105  10.600   9.157  0.3341 -0.3042 -0.6268
    2MOL0     C  161   7.200  10.637   9.246 -0.6895  0.4601 -0.0064
    2MOL0     C  162   7.226  10.773   9.287  0.9537 -0.4237 -0.4390
    2MOL0     C  163   7.140  10.867   9.228  0.0619 -0.4230  0.0805
    2MOL0     C  164   7.167  11.011   9.250  0.2852 -0.0214 -0.0274
    2MOL0     O  165   7.092  11.101   9.179 -0.2417 -0.2615 -0.6748
    2MOL0     C  166   7.143  11.231   9.174 -0.1981  0.4578  0.2892
    2MOL0     C  167   7.242  11.268   9.088 -0.7069 -0.1785  0.5449
    2MOL0     C  168   7.291  11.398   9.085 -0.0325 -0.1984  1.0418
    2MOL0     C  169   7.249  11.494   9.181 -0.6877  0.5062 -0.5676
    2MOL0     O  170   7.294  11.622   9.160  0.6629  0.1313  0.7519
    2MOL0     C  171   7.276  11.723   9.260 -0.4319  0.3258  0.6216
    2MOL0     C  172   7.371  11.833   9.220  1.1769 -0.9560  0.1983
    2MOL0     C  173   7.516  11.792   9.266  0.2771  0.4250  0.1678
    2MOL0     C  174   7.625  11.877   9.193 -0.1795 -0.1412  0.2834
    2MOL0     C  175   7.768  11.852   9.237  0.0223  0.5893  0.7721
    2MOL0     C  176   7.868  11.914   9.146 -0.0062  0.2640  0.8263
    2MOL0     C  177   8.007  11.903   9.209  0.6813  0.0805 -0.1764
    2MOL0     C  178   8.100  11.979   9.123 -0.4085  0.2535 -0.9879
    2MOL0    Cl  179   8.250  11.941   9.210  0.1881  0.1721 -0.2952
    2MOL0     C  180   7.162  11.452   9.283 -0.3726  0.0222 -0.8281
    2MOL0     C  181   7.109  11.324   9.279 -0.4320  1.2313 -0.6353
    2MOL0     O  182   7.249  11.033   9.341 -0.4578 -0.0022  0.5467
    2MOL0     C  183   7.039  10.835   9.133  0.0002  0.7778 -0.2086
    2MOL0     C  184   7.025  10.702   9.098  0.2852  0.5911  0.6359
    2MOL0     N  185   7.239  10.275   8.604  0.9989 -0.8151  0.4573
    2MOL0     N  186   7.183  10.198   8.510 -0.9586  0.3935 -0.4621
    2MOL0     C  187   6.240  10.687   8.124  0.4360 -0.1561 -0.4359
    2MOL0     C  188   6.125  10.773   8.116 -0.0583  0.8540 -0.2381
    2MOL0     C  189   5.880  11.108   7.867  1.1458 -0.2839 -0.3899
    2MOL0     C  190   5.807  11.000   7.811  0.8275  0.4282  0.3532
    2MOL0     C  191   5.679  11.018   7.762 -0.2079  0.6894  1.2296
    2MOL0     C  192   5.615  11.138   7.750  0.8299 -0.3594  0.0699
    2MOL0     O  193   5.488  11.138   7.697 -0.8467  0.2078  0.1863
    2MOL0     C  194   5.416  11.260   7.677 -0.1016  0.6729  0.5626
    2MOL0     C  195   5.285  11.238   7.758 -0.8352  0.2466  0.5141
    2MOL0     C  196   5.193  11.363   7.769  0.3599 -0.2233 -0.4081
    2MOL0     C  197   5.234  11.464   7.889 -0.2892  0.1645 -0.6833
    2MOL0     C  198   5.377  11.500   7.909 -0.2624 -0.9599  0.3951
    2MOL0     C  199   5.492  11.537   7.914  0.0652 -0.0116 -0.4650
    2MOL0     C  200   5.689  11.254   7.794 -0.3633  0.5057  0.2151
    2MOL0     C  201   5.822  11.242   7.848 -0.6237  0.2687  0.6465
    2MOL0     C  202   5.877  11.372   7.907 -0.7320  0.7849  0.6055
    2MOL0     H  203   6.268  11.008   7.905  3.3587  0.9804  2.1321
    2MOL0     H  204   6.458  10.899   7.972  0.7553 -0.5709  3.2194
    2MOL0     H  205   6.464  10.615   8.288  0.6250  1.0762 -0.9823
    2MOL0     H  206   6.425  10.486   8.175  1.1475 -1.6240  1.6167
    2MOL0     H  207   6.686  10.618   8.198 -1.7024  0.7658 -0.8346
    2MOL0     H  208   6.648  10.504   8.066  0.9445  1.7173  0.5012
    2MOL0     H  209   6.610  10.311   8.223  1.2382 -0.2795 -2.0108
    2MOL0     H  210   6.607  10.421   8.359  3.4918  2.5413  0.6953
    2MOL0     H  211   6.842  10.375   8.157 -0.8281 -2.8739 -0.9382
    2MOL0     H  212   6.850  10.469   8.319 -1.1070 -1.7074  1.2689
    2MOL0     H  213   6.832  10.163   8.283 -0.6184  0.1094 -0.8698
    2MOL0     H  214   6.981  10.239   8.331  0.7165 -3.0837  1.6675
    2MOL0     H  215   6.896  10.290   8.556 -2.4089  0.4792  1.9752
    2MOL0     H  216   6.731  10.265   8.491  0.2402  0.3917 -0.0442
    2MOL0     H  217   6.784  10.023   8.468  1.5935 -1.0450 -1.2135
    2MOL0     H  218   6.816  10.081   8.636 -0.4590  0.3246 -1.3398
    2MOL0     H  219   7.004   9.936   8.585  0.5482  0.3929  1.3727
    2MOL0     H  220   7.018  10.003   8.429  1.0560  2.0318  0.0566
    2MOL0     H  221   7.021  10.139   8.798  0.3810 -0.9893  0.7662
    2MOL0     H  222   7.252  10.421   8.823 -4.1352  3.0449 -1.4258
    2MOL0     H  223   7.101  10.348   8.888  0.5984  0.4150  2.1465
    2MOL0     H  224   7.233  10.159   8.999 -0.4149  0.4460 -0.1967
    2MOL0     H  225   7.380  10.237   8.946  0.7601  1.2827 -0.1074
    2MOL0     H  226   7.314  10.437   9.061  0.3503 -0.2843 -0.9613
    2MOL0     H  227   7.349  10.299   9.159 -0.2543  3.7435  0.8277
    2MOL0     H  228   7.162  10.356   9.276  1.3486 -4.2687  0.0314
    2MOL0     H  229   7.082  10.272   9.145 -0.2672  0.1806  0.6783
    2MOL0     H  230   7.269  10.563   9.286 -0.4182  0.5879 -0.2300
    2MOL0     H  231   7.309  10.794   9.353  0.1783 -0.3372  0.5442
    2MOL0     H  232   7.285  11.203   9.013  1.3832  0.7378  0.8745
    2MOL0     H  233   7.350  11.424   8.997 -2.0816  0.7821 -0.1040
    2MOL0     H  234   7.175  11.765   9.258 -1.3139 -1.6469  0.5730
    2MOL0     H  235   7.295  11.675   9.357 -4.5117 -4.3625 -0.4848
    2MOL0     H  236   7.368  11.853   9.112  2.6225  1.4474  0.5268
    2MOL0     H  237   7.334  11.921   9.274 -0.2876 -0.6607 -1.2158
    2MOL0     H  238   7.523  11.819   9.371 -0.0770  2.8752 -0.3957
    2MOL0     H  239   7.535  11.684   9.263  1.6596  0.4951  3.0525
    2MOL0     H  240   7.612  11.986   9.186 -0.1939 -0.1196  0.6428
    2MOL0     H  241   7.630  11.843   9.089  1.4357  2.2071 -0.5171
    2MOL0     H  242   7.794  11.746   9.239  2.6820  1.1881  1.9460
    2MOL0     H  243   7.769  11.894   9.338  0.4018  3.4887 -0.3588
    2MOL0     H  244   7.860  11.881   9.042 -0.5499  0.4784  0.7968
    2MOL0     H  245   7.854  12.021   9.129  0.5167 -0.0114 -1.6980
    2MOL0     H  246   8.032  11.797   9.225 -0.8393 -0.1039  1.1949
    2MOL0     H  247   7.997  11.948   9.308 -2.5609 -0.3201 -0.2160
    2MOL0     H  248   8.108  11.946   9.019  1.1919 -0.5823 -0.6197
    2MOL0     H  249   8.084  12.087   9.135  3.2927  0.7003  1.8100
    2MOL0     H  250   7.115  11.519   9.356 -1.6043 -1.0666 -0.5726
    2MOL0     H  251   7.043  11.281   9.354 -0.1232 -0.3068 -1.1928
    2MOL0     H  252   6.976  10.906   9.081 -2.3051 -1.7606 -1.1443
    2MOL0     H  253   6.942  10.671   9.035  2.6256 -2.7632 -1.1060
    2MOL0     H  254   6.243  10.599   8.188  0.8062  2.5383  3.6232
    2MOL0     H  255   6.031  10.750   8.164  0.0799  0.3588 -0.2083
    2MOL0     H  256   5.865  10.908   7.811 -0.9813 -0.9845 -4.1940
    2MOL0     H  257   5.627  10.926   7.736  1.4885 -0.5542  2.0878
    2MOL0     H  258   5.387  11.261   7.571  0.3221 -0.9444  0.4028
    2MOL0     H  259   5.470  11.350   7.707  1.3398 -0.1722  0.5529
    2MOL0     H  260   5.317  11.204   7.857  0.4851  2.0633  0.7512
    2MOL0     H  261   5.236  11.167   7.690 -1.2757  0.2484  0.8276
    2MOL0     H  262   5.087  11.340   7.779  0.3179 -0.2922 -0.9692
    2MOL0     H  263   5.206  11.416   7.674 -0.6627 -1.4719 -1.2796
    2MOL0     H  264   5.164  11.548   7.899 -0.4057  0.0037 -0.0872
    2MOL0     H  265   5.209  11.418   7.985  0.1651  1.7522  0.2207
    2MOL0     H  266   5.594  11.568   7.925 -0.4831  1.3553  1.3561
    2MOL0     H  267   5.651  11.355   7.794  2.8276  1.8496  1.1241
    2MOL0     H  268   5.879  11.363   8.016  0.5004 -2.8220  0.4122
    2MOL0     H  269   5.976  11.381   7.859 -1.1197 -1.1802 -0.7018
    2MOL0     H  270   5.827  11.468   7.890 -0.9664  0.5078 -0.3456
    3MOL0     O  271   2.243   3.757   1.994 -0.2473 -0.5307  0.0030
    3MOL0     C  272   2.179   3.857   2.049 -0.9636  0.4793 -0.9411
    3MOL0     O  273   2.064   3.910   2.004  0.2350 -0.1010 -1.1753
    3MOL0     C  274   1.969   3.826   1.946 -0.6060 -0.1372 -0.4085
    3MOL0     C  275   1.930   3.699   1.994 -0.6330 -0.7444  0.4280
    3MOL0     C  276   1.831   3.635   1.929 -0.7274 -0.1555  0.5738
    3MOL0     C  277   1.781   3.684   1.807  0.6922 -0.1205 -0.0549
    3MOL0     O  278   1.692   3.598   1.734 -0.2654  0.5972  0.2678
    3MOL0     C  279   1.729   3.456   1.736 -0.3755 -0.2412 -0.1836
    3MOL0     C  280   1.643   3.414   1.618 -0.0525  0.8547  0.8081
    3MOL0     C  281   1.646   3.263   1.587  0.0020 -0.2443  0.1201
    3MOL0     C  282   1.566   3.181   1.686 -0.3552  0.0743  0.2519
    3MOL0     C  283   1.418   3.191   1.673 -0.7724 -0.2567  0.2576
    3MOL0     C  284   1.336   3.108   1.766  0.0662 -0.2327 -0.7507
    3MOL0     C  285   1.317   3.172   1.904  0.1204 -0.6996 -0.5465
    3MOL0     C  286   1.201   3.106   1.970  0.7359  0.7570 -0.4282
    3MOL0     N  287   1.180   3.156   2.105  0.8493 -0.2657  0.4745
    3MOL0     C  288   1.059   3.181   2.170 -0.5115 -0.1248  0.0538
    3MOL0     C  289   1.091   3.263   2.282  0.4688  0.5770  0.4445
    3MOL0     C  290   0.995   3.292   2.392  0.5255  0.0606 -0.2710
    3MOL0     C  291   0.905   3.424   2.361  0.4858  1.2116 -0.5172
    3MOL0     C  292   0.970   3.556   2.337 -0.0251 -0.3003 -0.1666
    3MOL0     C  293   1.039   3.615   2.468  0.3416  0.1624 -0.5099
    3MOL0     O  294   1.170   3.550   2.474 -0.1293 -0.1996  0.4765
    3MOL0     C  295   1.272   3.614   2.543 -0.4810  0.3872 -0.0118
    3MOL0     C  296   1.398   3.558   2.526 -0.8468 -0.2236 -0.1888
    3MOL0     C  297   1.512   3.606   2.583  0.0025 -0.0329 -0.2585
    3MOL0     C  298   1.505   3.728   2.657 -0.1681 -0.3271  0.6169
    3MOL0     C  299   1.624   3.767   2.734  0.5926 -0.2822  0.0566
    3MOL0     O  300   1.747   3.741   2.675 -0.6713  0.2252  0.3079
    3MOL0     C  301   1.862   3.762   2.755  0.6255  1.0634  0.0052
    3MOL0     C  302   1.967   3.826   2.689  0.8023  1.2210  0.4869
    3MOL0     C  303   2.094   3.832   2.754 -0.7256  0.8019 -0.1162
    3MOL0     C  304   2.111   3.785   2.879  1.0130 -0.2413  0.0441
    3MOL0     O  305   2.226   3.791   2.953  0.6571  0.6655 -0.3482
    3MOL0     C  306   2.351   3.838   2.914  0.1860  0.5575  0.8603
    3MOL0     C  307   2.450   3.801   3.022 -0.0304  0.6860 -0.1070
    3MOL0     C  308   2.592   3.803   2.983  0.0344 -0.3668  0.7940
    3MOL0     C  309   2.681   3.743   3.094  1.2272 -0.3886 -0.0007
    3MOL0     C  310   2.821   3.799   3.072 -0.1828 -0.0752 -0.8034
    3MOL0     C  311   2.880   3.729   2.960  0.1432  0.1122  0.3301
    3MOL0     C  312   3.022   3.790   2.922 -0.6947  0.4233  0.2719
    3MOL0     C  313   3.089   3.710   2.811 -0.1801 -0.4172  0.0056
    3MOL0    Cl  314   3.203   3.813   2.721 -0.2118  0.0424 -0.0952
    3MOL0     C  315   2.000   3.729   2.944 -0.2421 -0.2912 -0.6129
    3MOL0     C  316   1.876   3.718   2.885  0.5671  0.9772  0.4829
    3MOL0     O  317   1.600   3.827   2.838 -0.3169 -0.0457 -0.3615
    3MOL0     C  318   1.382   3.785   2.674 -0.4222 -0.6767  0.9460
    3MOL0     C  319   1.266   3.731   2.614  0.3030 -0.2595 -0.3647
    3MOL0     N  320   1.228   3.274   2.283 -0.9682  0.6938  0.2543
    3MOL0     N  321   1.276   3.213   2.179 -0.6315  0.2147  1.0334
    3MOL0     C  322   1.818   3.816   1.759  0.9589  0.3545  1.0003
    3MOL0     C  323   1.915   3.885   1.837  0.2798  0.5741  0.9158
    3MOL0     C  324   2.229   3.917   2.179  0.1366 -0.0653  0.8099
    3MOL0     C  325   2.130   3.986   2.246 -0.9110 -0.1776  0.0567
    3MOL0     C  326   2.162   4.061   2.357 -0.0395 -0.1744  0.5004
    3MOL0     C  327   2.293   4.075   2.401  0.2382  0.3322  0.4789
    3MOL0     O  328   2.320   4.134   2.517  0.2584 -0.8519 -0.2985
    3MOL0     C  329   2.436   4.213   2.532  1.0449 -0.7120 -0.4961
    3MOL0     C  330   2.432   4.284   2.666 -0.1842 -0.2182  0.0318
    3MOL0     C  331   2.529   4.399   2.661 -0.7407 -0.3255 -0.3905
    3MOL0     C  332   2.536   4.462   2.795  0.9202 -0.2226  0.1910
    3MOL0     C  333   2.650   4.543   2.809  0.4165 -0.3794 -0.1194
    3MOL0     C  334   2.741   4.613   2.840 -0.1647  0.4688  0.4301
    3MOL0     C  335   2.396   4.011   2.327  0.4829 -0.5765  0.3784
    3MOL0     C  336   2.362   3.916   2.220  0.9548 -0.8850 -0.9781
    3MOL0     C  337   2.469   3.835   2.158  0.5791 -0.3495  0.0349
    3MOL0     H  338   1.978   3.660   2.084 -1.0044  1.0227  1.4375
    3MOL0     H  339   1.803   3.540   1.975  0.4243 -0.5010  0.6079
    3MOL0     H  340   1.832   3.425   1.715 -0.4963 -1.5583  1.0674
    3MOL0     H  341   1.691   3.409   1.827  2.2539  0.2575  1.2836
    3MOL0     H  342   1.680   3.461   1.527 -2.1691 -0.6993 -0.9590
    3MOL0     H  343   1.540   3.445   1.636 -0.7920  0.4187 -2.1193
    3MOL0     H  344   1.748   3.226   1.590  0.5178  1.1172  0.2676
    3MOL0     H  345   1.599   3.251   1.489 -4.0353  1.4408  1.6016
    3MOL0     H  346   1.599   3.077   1.676  0.3460  0.4260 -1.4754
    3MOL0     H  347   1.589   3.212   1.789 -4.5154  2.0812  0.8003
    3MOL0     H  348   1.389   3.296   1.665  1.4914  0.4556  0.5942
    3MOL0     H  349   1.405   3.143   1.576  0.9353  1.4046 -0.8763
    3MOL0     H  350   1.238   3.098   1.719  1.1572 -3.3070 -2.6931
    3MOL0     H  351   1.380   3.008   1.763  3.1613  0.9275  1.2055
    3MOL0     H  352   1.302   3.278   1.884 -1.8151 -1.3760 -3.3340
    3MOL0     H  353   1.405   3.148   1.965 -1.3692  1.0221  2.4487
    3MOL0     H  354   1.110   3.109   1.909  1.8940  2.0824 -2.1964
    3MOL0     H  355   1.232   3.003   1.990 -1.1684  0.6727  2.8045
    3MOL0     H  356   0.963   3.132   2.153 -0.4028 -0.5498  0.6171
    3MOL0     H  357   0.937   3.201   2.410 -0.0062 -0.2240 -3.0835
    3MOL0     H  358   1.044   3.303   2.490  0.5699  0.8495 -0.3764
    3MOL0     H  359   0.839   3.398   2.278 -0.4831  2.9708 -0.3259
    3MOL0     H  360   0.841   3.424   2.450  1.2040 -2.6715  0.1887
    3MOL0     H  361   0.897   3.631   2.303  1.9201  1.5090 -0.5202
    3MOL0     H  362   1.040   3.540   2.255  0.0517 -0.0444 -0.1499
    3MOL0     H  363   0.981   3.587   2.556 -1.6989  0.7463 -1.6246
    3MOL0     H  364   1.039   3.725   2.469 -0.5305  0.2068 -2.2276
    3MOL0     H  365   1.406   3.466   2.469  2.7539 -1.8326  2.5150
    3MOL0     H  366   1.608   3.555   2.574 -0.4477 -1.4225  1.8702
    3MOL0     H  367   1.964   3.855   2.585 -2.4638 -0.2496  0.0589
    3MOL0     H  368   2.173   3.895   2.714  2.5874 -2.0938  1.3686
    3MOL0     H  369   2.380   3.792   2.818  0.1534 -1.3684  1.7212
    3MOL0     H  370   2.341   3.946   2.907 -2.9914  0.5589  3.1742
    3MOL0     H  371   2.427   3.861   3.110 -1.0623  0.2091 -0.0378
    3MOL0     H  372   2.445   3.695   3.050  2.3213  0.6475  0.3618
    3MOL0     H  373   2.605   3.741   2.893 -3.6133 -0.1835  0.0040
    3MOL0     H  374   2.619   3.909   2.975 -1.0304 -0.0783  0.9843
    3MOL0     H  375   2.685   3.634   3.096  3.7171 -0.4017 -1.1963
    3MOL0     H  376   2.641   3.791   3.184  0.4517 -1.3539  0.1741
    3MOL0     H  377   2.872   3.770   3.164  0.1246 -0.4279 -1.0789
    3MOL0     H  378   2.820   3.908   3.059  0.9795 -0.2079 -2.4495
    3MOL0     H  379   2.899   3.623   2.983  0.2379 -0.2684 -1.3821
    3MOL0     H  380   2.815   3.733   2.872 -1.5827 -2.8484  1.3291
    3MOL0     H  381   3.079   3.782   3.015  0.6425  1.0160 -0.4742
    3MOL0     H  382   3.001   3.894   2.896 -2.1463  0.6494  2.1240
    3MOL0     H  383   3.133   3.617   2.850 -0.1891  1.0614  4.0015
    3MOL0     H  384   3.010   3.673   2.746 -0.5455 -0.9665  0.7490
    3MOL0     H  385   2.020   3.706   3.049  0.1467  1.9081 -0.1540
    3MOL0     H  386   1.797   3.670   2.942  1.7040  1.0817  2.2278
    3MOL0     H  387   1.365   3.872   2.736  0.7289 -1.5336  2.5581
    3MOL0     H  388   1.170   3.779   2.634  0.6729  0.4002 -0.1363
    3MOL0     H  389   1.782   3.851   1.663 -0.1389 -3.8075 -0.3249
    3MOL0     H  390   1.955   3.972   1.786 -0.0868  1.9595  2.8650
    3MOL0     H  391   2.026   3.998   2.217 -0.6304  0.5304 -0.6820
    3MOL0     H  392   2.085   4.121   2.404 -2.2146 -3.9299  2.1487
    3MOL0     H  393   2.443   4.294   2.459  4.0171 -0.4205  0.0072
    3MOL0     H  394   2.526   4.151   2.525  0.0522 -2.1528 -1.1089
    3MOL0     H  395   2.448   4.211   2.746  0.2736 -3.7220 -2.9683
    3MOL0     H  396   2.330   4.322   2.672  0.5103  1.8331 -0.1928
    3MOL0     H  397   2.506   4.475   2.586  1.1446  0.0225 -0.6621
    3MOL0     H  398   2.627   4.355   2.639 -0.1043  0.9808 -0.2767
    3MOL0     H  399   2.450   4.526   2.813  0.2285 -0.8162 -0.8876
    3MOL0     H  400   2.532   4.386   2.874 -1.7493 -1.7817 -1.2840
    3MOL0     H  401   2.833   4.664   2.863  0.7092 -1.8103  2.4764
    3MOL0     H  402   2.496   4.025   2.366  0.9709  0.5498 -1.1730
    3MOL0     H  403   2.467   3.846   2.049 -0.2044  2.8195  0.2942
    3MOL0     H  404   2.570   3.854   2.195 -0.5528 -0.5421  3.6245
    3MOL0     H  405   2.463   3.726   2.172 -0.4744 -0.0825  1.9992
    4MOL0     O  406   4.124   7.168  11.079 -0.9653  0.1488  0.9551
    4MOL0     C  407   4.106   7.202  11.196  0.8975  0.4717 -0.9704
    4MOL0     O  408   4.057   7.320  11.244 -0.3522  0.5683  0.5110
    4MOL0     C  409   4.026   7.422  11.154  0.8194 -0.6199 -0.2487
    4MOL0     C  410   3.899   7.489  11.176  0.1441 -0.5719  0.5118
    4MOL0     C  411   3.866   7.595  11.098 -0.2418  0.1140 -0.5886
    4MOL0     C  412   3.948   7.642  11.001 -0.0225  0.1688  0.2905
    4MOL0     O  413   3.922   7.743  10.917  0.7662 -0.0355 -0.9415
    4MOL0     C  414   3.923   7.871  10.992  0.3977 -0.0520 -0.2984
    4MOL0     C  415   4.066   7.910  11.015  0.6410 -0.0204  0.0226
    4MOL0     C  416   4.068   8.056  11.032 -0.2768  0.2412 -0.3236
    4MOL0     C  417   4.006   8.121  11.153  0.5350  0.4991 -0.7432
    4MOL0     C  418   4.065   8.260  11.185 -0.5806 -0.2591 -0.0648
    4MOL0     C  419   4.003   8.327  11.306  0.4378  0.0531 -0.6441
    4MOL0     C  420   4.040   8.253  11.440 -0.2076 -0.5349 -0.6904
    4MOL0     C  421   3.957   8.313  11.557 -0.6701 -0.9145 -0.1601
    4MOL0     N  422   3.985   8.242  11.683  1.0149  0.4938  0.1710
    4MOL0     C  423   3.927   8.120  11.725 -0.4856 -0.3542 -0.7094
    4MOL0     C  424   4.008   8.093  11.841 -1.0063 -0.7116 -0.3255
    4MOL0     C  425   3.986   7.984  11.940  1.7639 -0.3266 -0.1001
    4MOL0     C  426   4.035   7.854  11.889  0.0108 -0.2576  0.3603
    4MOL0     C  427   4.184   7.854  11.848 -0.6631 -0.1846  0.9155
    4MOL0     C  428   4.234   7.710  11.830  0.8595 -0.5859 -0.0780
    4MOL0     O  429   4.356   7.737  11.761  0.2467  0.6389  0.3588
    4MOL0     C  430   4.439   7.635  11.721 -0.3109 -0.5910 -1.4473
    4MOL0     C  431   4.404   7.504  11.718 -0.3737 -0.4781  0.0959
    4MOL0     C  432   4.499   7.412  11.689  1.0595 -0.7307 -0.2833
    4MOL0     C  433   4.631   7.443  11.676 -0.3359 -0.1011  0.4609
    4MOL0     C  434   4.737   7.340  11.677  0.6874 -0.5311 -0.0517
    4MOL0     O  435   4.705   7.213  11.734 -0.7289 -0.1733  0.2753
    4MOL0     C  436   4.805   7.117  11.722 -0.2552 -0.4314  1.7651
    4MOL0     C  437   4.914   7.104  11.814 -0.0358 -0.5589  0.1100
    4MOL0     C  438   5.005   6.996  11.802  0.5050 -0.3297 -0.3417
    4MOL0     C  439   4.993   6.904  11.695  0.5671  0.7581 -0.1259
    4MOL0     O  440   5.081   6.799  11.675  0.0805  0.1075  0.5231
    4MOL0     C  441   5.025   6.675  11.721  0.3690  0.7901  0.1279
    4MOL0     C  442   5.114   6.620  11.832  0.3984  0.4347 -0.0014
    4MOL0     C  443   5.029   6.593  11.961 -0.4023  0.3129 -0.2421
    4MOL0     C  444   4.946   6.467  11.936 -0.0050  0.4153 -0.0042
    4MOL0     C  445   4.932   6.380  12.054 -0.6615  0.1881 -0.1800
    4MOL0     C  446   4.813   6.413  12.137 -0.6628 -0.4467  0.7073
    4MOL0     C  447   4.795   6.312  12.258 -0.6143  1.0376  0.0886
    4MOL0     C  448   4.687   6.203  12.241 -0.1807 -0.3210 -0.2521
    4MOL0    Cl  449   4.698   6.118  12.078  0.2867  0.0953  0.2602
    4MOL0     C  450   4.896   6.931  11.596 -0.0407  0.2058  0.4652
    4MOL0     C  451   4.796   7.026  11.616  0.5827  1.2553  0.3884
    4MOL0     O  452   4.845   7.375  11.633  0.0781 -0.2941  0.0534
    4MOL0     C  453   4.661   7.584  11.670 -0.1726  0.7870 -0.4120
    4MOL0     C  454   4.567   7.676  11.692  0.8511 -0.5975  0.1675
    4MOL0     N  455   4.105   8.194  11.855  0.3038  0.3593 -0.3123
    4MOL0     N  456   4.084   8.284  11.764 -0.8036  0.3475 -0.8572
    4MOL0     C  457   4.070   7.578  10.972 -0.4721 -0.8286 -0.4511
    4MOL0     C  458   4.105   7.465  11.049 -0.1466  0.0214  0.3677
    4MOL0     C  459   4.174   7.116  11.300 -1.7694  0.4236  1.0391
    4MOL0     C  460   4.274   7.169  11.389 -0.0346 -0.3919  0.4328
    4MOL0     C  461   4.352   7.093  11.476 -0.1179  0.6305 -0.7263
    4MOL0     C  462   4.325   6.952  11.488 -0.0980  0.7979  1.2992
    4MOL0     O  463   4.390   6.861  11.569  0.1157  0.2206  0.8605
    4MOL0     C  464   4.438   6.916  11.687 -0.4966  0.2594 -0.4799
    4MOL0     C  465   4.494   6.800  11.760 -0.2431  0.7198  1.1932
    4MOL0     C  466   4.570   6.850  11.881 -0.2927 -0.3709  0.0357
    4MOL0     C  467   4.629   6.740  11.963  0.1009  1.0229  1.0383
    4MOL0     C  468   4.680   6.792  12.096 -0.3706  0.0155  0.3689
    4MOL0     C  469   4.728   6.832  12.201 -0.8558 -0.6225 -0.2523
    4MOL0     C  470   4.228   6.894  11.399  0.3059  0.4362 -0.9995
    4MOL0     C  471   4.153   6.973  11.304 -0.7014  0.2864 -0.3005
    4MOL0     C  472   4.058   6.896  11.213 -0.4546 -0.0663  0.9160
    4MOL0     H  473   3.829   7.453  11.251 -1.2018 -1.8717 -1.2801
    4MOL0     H  474   3.779   7.658  11.118 -1.7219 -0.5356 -4.2766
    4MOL0     H  475   3.873   7.932  10.916  0.2732 -2.0793 -1.9171
    4MOL0     H  476   3.865   7.856  11.083 -1.7369  3.3073 -0.9053
    4MOL0     H  477   4.127   7.882  10.929  0.1777  1.1259 -0.7101
    4MOL0     H  478   4.097   7.853  11.103  1.4994 -4.8202 -2.9986
    4MOL0     H  479   4.024   8.101  10.943 -0.8556  0.3510  0.0167
    4MOL0     H  480   4.176   8.074  11.025 -0.4387  1.1754 -0.5070
    4MOL0     H  481   3.897   8.122  11.143  0.3630 -2.0098  0.1216
    4MOL0     H  482   4.036   8.051  11.231 -0.3356 -0.0051 -0.8503
    4MOL0     H  483   4.173   8.258  11.197 -0.3582 -1.7185 -1.9941
    4MOL0     H  484   4.048   8.324  11.098  1.9430  0.9710  0.2634
    4MOL0     H  485   4.039   8.430  11.307  0.5775  0.0284 -1.8946
    4MOL0     H  486   3.896   8.341  11.293  0.3791 -0.7121 -1.0175
    4MOL0     H  487   4.148   8.263  11.457 -0.2393 -0.1410 -0.7063
    4MOL0     H  488   4.024   8.145  11.439 -2.0059 -0.3723  1.3541
    4MOL0     H  489   3.985   8.418  11.574 -2.3244 -0.0020 -2.5186
    4MOL0     H  490   3.848   8.309  11.543 -1.1193  1.3188  1.9971
    4MOL0     H  491   3.843   8.061  11.690 -1.3388  0.2307  0.2963
    4MOL0     H  492   4.030   8.018  12.034  2.3334  2.7058 -1.3219
    4MOL0     H  493   3.877   7.976  11.949  1.2338  2.6329 -2.0891
    4MOL0     H  494   4.035   7.788  11.976 -0.1402  1.6049  1.8254
    4MOL0     H  495   3.983   7.810  11.803  0.2721 -1.9957  1.0484
    4MOL0     H  496   4.251   7.901  11.919  0.0638 -1.0930  0.8503
    4MOL0     H  497   4.183   7.906  11.752  0.3472  0.8438  1.4434
    4MOL0     H  498   4.167   7.655  11.764 -1.3119  0.3769  1.2169
    4MOL0     H  499   4.272   7.657  11.919  4.8681  2.4570  0.3249
    4MOL0     H  500   4.298   7.484  11.728 -0.8429  1.3713 -0.6384
    4MOL0     H  501   4.482   7.306  11.706 -1.3182  0.1299  4.2757
    4MOL0     H  502   4.918   7.177  11.895 -0.1871 -0.2172 -0.1855
    4MOL0     H  503   5.092   6.993  11.868 -0.2420 -1.0370  0.6330
    4MOL0     H  504   4.921   6.690  11.752  0.5354 -0.2596  1.2499
    4MOL0     H  505   5.028   6.605  11.637  0.0938 -3.0086  2.9976
    4MOL0     H  506   5.182   6.547  11.789 -0.6070  0.9908 -2.7741
    4MOL0     H  507   5.178   6.701  11.869 -0.3766  0.6271  0.9786
    4MOL0     H  508   5.091   6.593  12.051 -1.7458 -1.1186  0.7475
    4MOL0     H  509   4.960   6.675  11.983  0.9815  1.4314  0.0406
    4MOL0     H  510   5.002   6.408  11.862  1.0356  1.0452  0.2664
    4MOL0     H  511   4.844   6.491  11.906 -0.4703  2.1148  2.6258
    4MOL0     H  512   5.022   6.384  12.115 -0.7731  1.0181 -0.0513
    4MOL0     H  513   4.929   6.278  12.016 -0.3087  0.7460 -1.7735
    4MOL0     H  514   4.822   6.517  12.171  0.0182 -0.3612  0.2803
    4MOL0     H  515   4.723   6.406  12.076 -0.2377  1.7833 -0.2853
    4MOL0     H  516   4.759   6.362  12.348  1.1506 -1.2839  2.2238
    4MOL0     H  517   4.893   6.263  12.262 -0.3685  1.1513 -2.6011
    4MOL0     H  518   4.672   6.137  12.327  0.2524 -0.4613 -0.2776
    4MOL0     H  519   4.594   6.261  12.238  0.7715  1.2454 -1.3028
    4MOL0     H  520   4.890   6.866  11.509 -0.3006  1.2213 -0.2963
    4MOL0     H  521   4.715   7.035  11.544 -1.2043 -3.8123  1.3824
    4MOL0     H  522   4.764   7.617  11.667 -0.2034  0.9347 -3.5575
    4MOL0     H  523   4.590   7.782  11.699  1.2245 -0.7787  5.0700
    4MOL0     H  524   4.123   7.620  10.887  0.4601  2.0928  1.4166
    4MOL0     H  525   4.196   7.408  11.033 -0.3923 -0.2579 -0.0729
    4MOL0     H  526   4.301   7.274  11.395  1.0328 -0.4097 -2.5071
    4MOL0     H  527   4.444   7.133  11.517  0.3898  1.6049 -2.7084
    4MOL0     H  528   4.352   6.961  11.738 -0.6918  2.2408 -2.4478
    4MOL0     H  529   4.517   6.989  11.669  0.5349 -1.2654 -2.6414
    4MOL0     H  530   4.566   6.744  11.699 -1.1465  1.2235 -0.4039
    4MOL0     H  531   4.407   6.740  11.788  0.5721 -2.1211 -1.6526
    4MOL0     H  532   4.500   6.900  11.949  0.5491 -0.1694  0.7677
    4MOL0     H  533   4.650   6.920  11.854 -1.2526  0.3175 -1.0959
    4MOL0     H  534   4.550   6.665  11.973 -0.3724  1.0005 -1.8187
    4MOL0     H  535   4.714   6.690  11.916 -0.5346 -3.6520  4.2032
    4MOL0     H  536   4.782   6.870  12.286  0.9561 -1.4560 -0.9978
    4MOL0     H  537   4.224   6.786  11.411 -1.3435  0.5842  0.1284
    4MOL0     H  538   4.048   6.788  11.230 -0.9595  0.2333  2.6693
    4MOL0     H  539   3.954   6.932  11.215 -0.7592 -0.9474  1.3925
    4MOL0     H  540   4.104   6.894  11.114 -3.0986  1.3413 -0.4676
    5MOL0     O  541   7.880   0.143   3.138 -0.2866 -0.5761 -0.0635
    5MOL0     C  542   7.828   0.051   3.078  0.5095 -0.2258  0.0150
    5MOL0     O  543   7.694   0.025   3.076 -1.0368 -0.3862 -0.0399
    5MOL0     C  544   7.603   0.116   3.122  0.0516 -0.5334  0.7695
    5MOL0     C  545   7.481   0.077   3.166 -0.5115 -0.3998 -0.1562
    5MOL0     C  546   7.365   0.157   3.183 -0.1501  0.5902  0.3986
    5MOL0     C  547   7.368   0.290   3.147  0.8298 -0.6410  0.4380
    5MOL0     O  548   7.254   0.367   3.140 -0.4524 -0.5164 -0.4941
    5MOL0     C  549   7.174   0.366   3.022 -1.0466 -0.4471 -0.1256
    5MOL0     C  550   7.030   0.404   3.070 -0.3967 -0.0679  0.7248
    5MOL0     C  551   6.935   0.437   2.949 -0.8035 -0.7584 -0.2817
    5MOL0     C  552   6.881   0.325   2.852  0.6088 -0.2435  0.3364
    5MOL0     C  553   6.976   0.319   2.728 -0.8535  0.7039 -0.1223
    5MOL0     C  554   6.939   0.205   2.632  0.0491 -0.5785 -0.3864
    5MOL0     C  555   6.794   0.219   2.580  0.2202  0.7042  0.5904
    5MOL0     C  556   6.779   0.186   2.426 -0.0616 -0.0977  0.5532
    5MOL0     N  557   6.649   0.193   2.364  0.5471  0.6480 -0.2578
    5MOL0     C  558   6.529   0.163   2.431 -0.9673  0.0780  0.6070
    5MOL0     C  559   6.444   0.194   2.328  0.6102 -0.8003  0.2661
    5MOL0     C  560   6.303   0.192   2.345  0.3464 -1.0097 -0.6696
    5MOL0     C  561   6.248   0.057   2.292  1.2346  0.8485 -0.1983
    5MOL0     C  562   6.096   0.047   2.319  0.0506 -0.0925 -0.3990
    5MOL0     C  563   6.051  -0.096   2.272  0.5584  0.9937 -0.2629
    5MOL0     O  564   6.140  -0.209   2.292  0.7877  0.2755  0.3054
    5MOL0     C  565   6.105  -0.312   2.379 -0.5023 -1.1230 -0.8280
    5MOL0     C  566   5.976  -0.357   2.410 -0.6122  1.2138 -0.1295
    5MOL0     C  567   5.948  -0.484   2.474 -0.2430  0.5172  0.5405
    5MOL0     C  568   6.060  -0.561   2.524  0.5657 -0.2219 -0.1801
    5MOL0     C  569   6.032  -0.683   2.593  0.0279 -0.8032 -0.4589
    5MOL0     O  570   5.909  -0.691   2.651 -0.1584 -0.5693  0.0464
    5MOL0     C  571   5.854  -0.811   2.694 -0.6179 -0.6898 -0.4740
    5MOL0     C  572   5.899  -0.936   2.651  0.9736  0.6798 -0.3231
    5MOL0     C  573   5.825  -1.055   2.689  0.7658  0.9402  0.6804
    5MOL0     C  574   5.725  -1.050   2.784 -0.2739  0.2799 -1.3636
    5MOL0     O  575   5.657  -1.162   2.820  0.4843 -0.3348 -0.2920
    5MOL0     C  576   5.598  -1.220   2.701 -0.2718  0.2754  0.3568
    5MOL0     C  577   5.502  -1.332   2.752 -0.1298  0.0917  0.2559
    5MOL0     C  578   5.435  -1.411   2.628 -0.4639 -0.5286 -0.2163
    5MOL0     C  579   5.303  -1.345   2.591  0.2693  0.3702  0.7410
    5MOL0     C  580   5.187  -1.447   2.561  0.0428 -0.2420 -0.3985
    5MOL0     C  581   5.086  -1.396   2.457  0.5779 -0.2228 -0.0260
    5MOL0     C  582   4.989  -1.293   2.515 -0.2476  0.2012 -1.1730
    5MOL0     C  583   4.871  -1.273   2.431 -0.5397 -0.6788 -0.3182
    5MOL0    Cl  584   4.744  -1.184   2.514  0.0440 -0.1353 -0.1478
    5MOL0     C  585   5.692  -0.922   2.838 -0.4882  1.7521  0.3767
    5MOL0     C  586   5.755  -0.806   2.798 -0.4433  0.5204  0.2236
    5MOL0     O  587   6.116  -0.770   2.580  0.1443  0.5660 -0.6240
    5MOL0     C  588   6.190  -0.508   2.496  0.4814  0.8308 -0.4389
    5MOL0     C  589   6.211  -0.393   2.422  0.7197 -0.4168  0.1089
    5MOL0     N  590   6.512   0.255   2.216  0.6278 -0.1753 -0.8470
    5MOL0     N  591   6.636   0.236   2.235 -0.5490 -0.9841  0.0825
    5MOL0     C  592   7.484   0.342   3.096 -0.2556  0.2999 -0.2974
    5MOL0     C  593   7.604   0.259   3.082  0.5518  0.5835 -0.8208
    5MOL0     C  594   7.930  -0.046   3.024 -0.3277  0.0086  0.0265
    5MOL0     C  595   7.880  -0.168   3.006 -0.1162  0.1288 -0.1341
    5MOL0     C  596   7.953  -0.289   2.986 -0.4066 -0.3408 -0.4093
    5MOL0     C  597   8.092  -0.285   2.971  0.4290  0.0492  0.5996
    5MOL0     O  598   8.168  -0.395   2.942 -0.0978 -0.2537 -0.6736
    5MOL0     C  599   8.226  -0.389   2.812  0.9959 -0.3214 -0.0223
    5MOL0     C  600   8.282  -0.530   2.776  0.5430 -0.9061 -0.6383
    5MOL0     C  601   8.404  -0.553   2.876  0.0118 -0.2914  0.1129
    5MOL0     C  602   8.461  -0.703   2.860  0.5133 -0.3211  0.3113
    5MOL0     C  603   8.580  -0.696   2.778 -0.5975 -0.1690  0.2705
    5MOL0     C  604   8.672  -0.697   2.696  0.8933 -0.4077 -0.3004
    5MOL0     C  605   8.143  -0.150   2.980  0.3715 -0.3085 -0.3073
    5MOL0     C  606   8.074  -0.033   3.019 -0.2723  0.4406 -0.4624
    5MOL0     C  607   8.161   0.084   3.060 -0.2119  0.0773 -0.1689
    5MOL0     H  608   7.482  -0.027   3.199  1.4394 -0.0586  1.0189
    5MOL0     H  609   7.287   0.096   3.226  1.6666 -3.4062 -1.4686
    5MOL0     H  610   7.210   0.439   2.949  0.3570  0.0841  1.0465
    5MOL0     H  611   7.160   0.274   2.966  2.1484 -0.4751 -1.0736
    5MOL0     H  612   7.026   0.487   3.142  2.4443  1.9933 -1.2535
    5MOL0     H  613   6.996   0.312   3.118 -2.8212  0.8366  0.8596
    5MOL0     H  614   6.980   0.514   2.886  0.9225 -0.1339  1.5877
    5MOL0     H  615   6.850   0.489   2.994 -0.5756  1.1283 -1.8772
    5MOL0     H  616   6.871   0.228   2.902 -0.0557  0.3544  1.4045
    5MOL0     H  617   6.782   0.366   2.832  0.8158  1.4074  2.3466
    5MOL0     H  618   6.977   0.413   2.672  2.2056  2.5479  2.6420
    5MOL0     H  619   7.078   0.301   2.762 -1.5651  1.3582  2.6799
    5MOL0     H  620   7.011   0.198   2.550 -1.0623 -1.9034 -1.2954
    5MOL0     H  621   6.937   0.108   2.684  2.9405 -0.4402  0.1535
    5MOL0     H  622   6.750   0.318   2.589  3.4872  2.5295 -1.4367
    5MOL0     H  623   6.738   0.138   2.628  1.6538 -0.9874 -0.4274
    5MOL0     H  624   6.840   0.264   2.381 -0.0278 -0.0622  0.6617
    5MOL0     H  625   6.838   0.098   2.401  1.4358  1.0032  0.1091
    5MOL0     H  626   6.519   0.118   2.530 -1.3866 -2.6396 -0.5602
    5MOL0     H  627   6.269   0.201   2.448  0.5764 -2.5924 -0.4279
    5MOL0     H  628   6.261   0.271   2.282  1.0359  0.5539  0.7504
    5MOL0     H  629   6.260   0.052   2.183  1.2866 -0.6773 -0.1495
    5MOL0     H  630   6.304  -0.019   2.347  0.8433  0.3076 -0.5348
    5MOL0     H  631   6.027   0.117   2.271  0.0800  0.7941  0.7962
    5MOL0     H  632   6.077   0.069   2.425 -4.7229  1.9680 -1.4372
    5MOL0     H  633   6.041  -0.099   2.163  1.4745  0.4455 -0.3414
    5MOL0     H  634   5.959  -0.117   2.327  1.2473 -0.1168  0.5057
    5MOL0     H  635   5.890  -0.305   2.369  0.9662  3.4331 -0.8441
    5MOL0     H  636   5.844  -0.506   2.496 -1.4067  4.3637 -0.2541
    5MOL0     H  637   5.983  -0.965   2.589  1.6044 -2.3798  1.7448
    5MOL0     H  638   5.855  -1.150   2.646  1.2875  0.8707  1.1775
    5MOL0     H  639   5.555  -1.148   2.630  3.9915  1.3420 -1.4845
    5MOL0     H  640   5.675  -1.272   2.643 -0.8920 -2.5647  1.9458
    5MOL0     H  641   5.559  -1.402   2.813 -0.3808 -1.1159 -0.8653
    5MOL0     H  642   5.431  -1.282   2.819  1.9684  0.7607  2.1347
    5MOL0     H  643   5.505  -1.408   2.544 -2.3862  2.9985 -1.8806
    5MOL0     H  644   5.410  -1.513   2.660  3.0796 -1.0861  1.2956
    5MOL0     H  645   5.319  -1.285   2.502  1.5524 -0.4044  0.4318
    5MOL0     H  646   5.283  -1.273   2.671  1.3293  0.1023  1.2641
    5MOL0     H  647   5.132  -1.480   2.650 -2.6703 -0.3880 -2.0346
    5MOL0     H  648   5.237  -1.536   2.520  2.5331  0.3896  1.0074
    5MOL0     H  649   5.124  -1.365   2.359 -1.9257  0.7228 -0.7532
    5MOL0     H  650   5.022  -1.483   2.444  0.7856 -1.0843  3.6454
    5MOL0     H  651   5.036  -1.196   2.537  1.4106 -0.7245 -0.4864
    5MOL0     H  652   4.950  -1.328   2.611  1.1280 -1.3439 -1.1423
    5MOL0     H  653   4.901  -1.221   2.339 -3.1507  2.8028  0.5769
    5MOL0     H  654   4.823  -1.368   2.408 -2.1078 -0.0962  0.4161
    5MOL0     H  655   5.622  -0.916   2.920 -1.9468 -1.0988 -0.5139
    5MOL0     H  656   5.696  -0.720   2.830 -2.4325 -0.8014  0.2454
    5MOL0     H  657   6.274  -0.553   2.548 -1.1528  0.0714  1.6945
    5MOL0     H  658   6.306  -0.359   2.382  2.3212 -0.4776  3.5027
    5MOL0     H  659   7.486   0.447   3.069 -0.2685 -0.7429 -5.4243
    5MOL0     H  660   7.696   0.288   3.033  0.3401 -1.1691 -2.3520
    5MOL0     H  661   7.773  -0.187   3.008  0.4923 -4.2450  1.8633
    5MOL0     H  662   7.905  -0.385   3.003 -4.0661  0.9402 -2.3018
    5MOL0     H  663   8.295  -0.305   2.818 -1.1011  1.5874 -0.9791
    5MOL0     H  664   8.152  -0.358   2.738 -0.1988 -1.7516  0.5202
    5MOL0     H  665   8.313  -0.510   2.673 -1.4472 -0.6900 -1.2542
    5MOL0     H  666   8.202  -0.604   2.774 -1.5739  1.2410 -0.9443
    5MOL0     H  667   8.370  -0.543   2.979  1.3110  2.4240  0.3847
    5MOL0     H  668   8.475  -0.470   2.864 -1.6403  1.1605 -0.1179
    5MOL0     H  669   8.474  -0.744   2.961  1.5509  0.2016  0.3941
    5MOL0     H  670   8.389  -0.771   2.813  0.6247  0.1600 -0.5761
    5MOL0     H  671   8.750  -0.681   2.624  1.0244  2.0577  0.2976
    5MOL0     H  672   8.248  -0.126   2.980 -0.0720  1.9256 -0.8394
    5MOL0     H  673   8.122   0.131   3.151  1.0559 -0.7393  0.8347
    5MOL0     H  674   8.264   0.060   3.086  0.3835  0.0302 -2.3828
    5MOL0     H  675   8.166   0.153   2.976 -2.4854 -0.1192 -0.5419
    6MOL0     O  676  10.461  10.594   9.773 -0.3816 -0.3072 -0.1605
    6MOL0     C  677  10.435  10.714   9.753  0.3269  0.2395  0.0302
    6MOL0     O  678  10.439  10.769   9.633 -0.7159 -0.5450 -0.1913
    6MOL0     C  679  10.443  10.698   9.516  0.9670 -0.2289  0.6757
    6MOL0     C  680  10.348  10.729   9.420  0.9648  0.9539  1.2590
    6MOL0     C  681  10.361  10.667   9.290  0.3863  0.5459  0.1859
    6MOL0     C  682  10.467  10.580   9.262 -0.0529  0.0552 -0.0257
    6MOL0     O  683  10.470  10.526   9.138 -0.0732  0.2279 -0.5752
    6MOL0     C  684  10.504  10.393   9.115 -0.5748 -0.3555  0.7409
    6MOL0     C  685  10.639  10.410   9.045 -0.8839  0.0618 -0.6584
    6MOL0     C  686  10.700  10.274   9.022 -0.2884  0.5898 -0.1866
    6MOL0     C  687  10.831  10.292   8.950  0.1428 -0.0305  0.2385
    6MOL0     C  688  10.909  10.158   8.942 -0.5286 -0.8132 -0.6032
    6MOL0     C  689  10.866  10.074   8.819 -0.5186 -0.0818 -0.1179
    6MOL0     C  690  10.978   9.972   8.790  0.2280 -0.0943  0.2310
    6MOL0     C  691  11.038   9.906   8.912  0.1362 -0.7872 -1.0725
    6MOL0     N  692  11.142   9.804   8.883  0.3030 -0.3810  0.8150
    6MOL0     C  693  11.124   9.670   8.862  0.2743  0.5161 -0.2085
    6MOL0     C  694  11.256   9.618   8.842  0.4155 -0.7097  0.0667
    6MOL0     C  695  11.290   9.471   8.818  0.6481 -0.2553  0.3520
    6MOL0     C  696  11.318   9.430   8.674  0.3603 -0.7009 -0.0698
    6MOL0     C  697  11.466   9.425   8.639  0.0444  0.4691 -0.3062
    6MOL0     C  698  11.570   9.361   8.740 -0.0916  0.5518  0.3581
    6MOL0     O  699  11.550   9.215   8.741  0.3860 -0.2963 -0.0166
    6MOL0     C  700  11.606   9.138   8.840  0.5318  0.2808 -0.4352
    6MOL0     C  701  11.674   9.177   8.959 -0.4473 -0.2123  0.4060
    6MOL0     C  702  11.717   9.089   9.060  0.3220  0.9379  0.2165
    6MOL0     C  703  11.703   8.942   9.023  0.1971 -0.4531 -0.4551
    6MOL0     C  704  11.763   8.843   9.115 -0.6475 -0.3037  0.1109
    6MOL0     O  705  11.712   8.714   9.113 -0.0684 -0.5430  0.9227
    6MOL0     C  706  11.761   8.602   9.174  1.0313 -0.0765  1.5011
    6MOL0     C  707  11.750   8.473   9.112  0.0573 -0.1169  0.1359
    6MOL0     C  708  11.802   8.367   9.176  0.1757 -0.1258  0.4945
    6MOL0     C  709  11.869   8.378   9.296 -0.7390 -0.4035  0.6294
    6MOL0     O  710  11.917   8.262   9.345 -0.6224 -0.0961  0.0561
    6MOL0     C  711  11.922   8.251   9.486  1.0695 -0.0984  0.6710
    6MOL0     C  712  11.960   8.110   9.521  0.1221 -0.1642  0.5224
    6MOL0     C  713  11.835   8.028   9.481 -0.9940  0.2625 -0.2478
    6MOL0     C  714  11.855   7.879   9.498  0.0416  0.1909 -0.7810
    6MOL0     C  715  11.732   7.786   9.503 -0.4554  0.2307 -0.3704
    6MOL0     C  716  11.689   7.752   9.357 -0.4461  0.1974  0.7134
    6MOL0     C  717  11.627   7.608   9.367  0.1436  0.2421  0.7106
    6MOL0     C  718  11.643   7.525   9.245  0.2656  0.3897 -0.7515
    6MOL0    Cl  719  11.815   7.465   9.244  0.6478  0.4333  0.1673
    6MOL0     C  720  11.868   8.503   9.356 -0.0066 -0.3486  0.0127
    6MOL0     C  721  11.822   8.612   9.296 -0.2046 -0.9747  0.6877
    6MOL0     O  722  11.865   8.879   9.175  0.4490  0.4317 -0.2785
    6MOL0     C  723  11.632   8.903   8.907  0.0784  0.3826 -0.6272
    6MOL0     C  724  11.577   8.999   8.820 -0.5499  0.8455  1.3920
    6MOL0     N  725  11.339   9.728   8.839  0.2725 -0.7308 -0.4833
    6MOL0     N  726  11.270   9.843   8.850 -0.3308  0.4341 -0.6623
    6MOL0     C  727  10.555  10.548   9.369 -1.0214 -0.2880  0.4244
    6MOL0     C  728  10.545  10.617   9.492 -0.6350  0.1649  0.3357
    6MOL0     C  729  10.354  10.786   9.852 -0.9299 -0.3332 -0.1540
    6MOL0     C  730  10.321  10.917   9.820  0.4574 -0.1990 -0.4099
    6MOL0     C  731  10.241  10.992   9.905 -0.4129 -0.3364  0.8680
    6MOL0     C  732  10.220  10.953  10.035  0.3625 -0.2407  0.9046
    6MOL0     O  733  10.147  11.038  10.107  0.4839  0.7150 -0.7145
    6MOL0     C  734  10.013  10.989  10.130  0.0803 -1.1260 -0.3329
    6MOL0     C  735   9.995  10.969  10.285 -0.1282  0.0365  0.1709
    6MOL0     C  736   9.916  10.833  10.302  1.0797  0.1591 -0.0292
    6MOL0     C  737   9.768  10.835  10.275  0.5666 -0.5773  0.7727
    6MOL0     C  738   9.699  10.728  10.332  0.3794  0.3527  0.7602
    6MOL0     C  739   9.650  10.625  10.372  0.4569 -0.3119  0.2783
    6MOL0     C  740  10.265  10.827  10.077  0.7196 -0.0758 -0.2573
    6MOL0     C  741  10.332  10.742   9.985  0.1154  0.7629  0.0719
    6MOL0     C  742  10.408  10.629  10.047  0.8444  0.5681  0.6554
    6MOL0     H  743  10.260  10.790   9.434 -0.8520 -1.8357  3.0674
    6MOL0     H  744  10.308  10.709   9.206  1.8583 -1.3098 -1.7740
    6MOL0     H  745  10.505  10.328   9.202  3.4995 -0.9559  0.4176
    6MOL0     H  746  10.436  10.341   9.047  0.8651 -1.9499  0.4821
    6MOL0     H  747  10.706  10.468   9.109 -0.8070  1.4085 -1.9207
    6MOL0     H  748  10.634  10.468   8.952 -0.2759  2.9964  1.0195
    6MOL0     H  749  10.630  10.218   8.961  0.9344  1.5657 -2.6038
    6MOL0     H  750  10.717  10.213   9.111  1.5472  0.0515 -0.8500
    6MOL0     H  751  10.816  10.344   8.855  3.3467 -1.2917 -1.1193
    6MOL0     H  752  10.897  10.351   9.015 -0.4514  0.0584  0.7694
    6MOL0     H  753  11.013  10.190   8.936 -1.8483  3.8382 -3.0245
    6MOL0     H  754  10.908  10.099   9.034 -2.4765  0.5797  0.3606
    6MOL0     H  755  10.781  10.014   8.854 -0.8148  0.2306 -0.2978
    6MOL0     H  756  10.838  10.130   8.729  1.1232  2.7576  1.0111
    6MOL0     H  757  11.055  10.025   8.732  1.9557  0.4828  2.8663
    6MOL0     H  758  10.943   9.892   8.724  2.3590  0.3478 -1.5730
    6MOL0     H  759  11.097   9.975   8.974  0.5193 -1.3323 -0.8158
    6MOL0     H  760  10.955   9.864   8.969 -0.5232 -0.6085 -1.8810
    6MOL0     H  761  11.035   9.608   8.865  0.4011  0.2197 -1.6767
    6MOL0     H  762  11.373   9.436   8.879 -1.6413 -1.5763  2.9649
    6MOL0     H  763  11.216   9.399   8.856  2.4578 -1.9384  0.8194
    6MOL0     H  764  11.273   9.335   8.643 -1.4060 -0.7931  2.4436
    6MOL0     H  765  11.272   9.507   8.611 -0.6707 -1.7667 -0.6478
    6MOL0     H  766  11.500   9.528   8.624  2.9005 -0.6349 -2.2420
    6MOL0     H  767  11.467   9.374   8.542 -3.2446 -0.0099 -0.1992
    6MOL0     H  768  11.560   9.401   8.841 -1.0961  0.9367  0.1238
    6MOL0     H  769  11.674   9.369   8.708 -0.5044 -1.9873 -1.9624
    6MOL0     H  770  11.701   9.281   8.979 -4.0172  0.7703  0.7078
    6MOL0     H  771  11.782   9.134   9.134 -2.0474  2.9747  1.2068
    6MOL0     H  772  11.711   8.461   9.011  1.5281  0.1139 -0.4840
    6MOL0     H  773  11.800   8.271   9.124  2.6075 -0.5560  1.0681
    6MOL0     H  774  12.000   8.321   9.518  0.2073  0.9933  0.4346
    6MOL0     H  775  11.827   8.292   9.522  0.0212 -1.0418 -0.9226
    6MOL0     H  776  12.051   8.079   9.469  0.1949 -0.8361  1.0296
    6MOL0     H  777  11.992   8.090   9.624  1.1902 -0.0995  0.2140
    6MOL0     H  778  11.759   8.055   9.555  0.6058  1.3689  1.0497
    6MOL0     H  779  11.799   8.048   9.379 -1.1706 -1.9862 -0.6781
    6MOL0     H  780  11.909   7.862   9.592  0.2285  2.6782 -0.3763
    6MOL0     H  781  11.915   7.838   9.416  0.1781  2.4314 -1.8897
    6MOL0     H  782  11.652   7.824   9.567  2.6314  0.5809  3.6971
    6MOL0     H  783  11.769   7.698   9.556 -1.4902 -0.8631 -1.3893
    6MOL0     H  784  11.620   7.828   9.319 -0.0123 -0.2449 -1.0723
    6MOL0     H  785  11.770   7.732   9.286 -1.6578 -1.7022 -0.2271
    6MOL0     H  786  11.520   7.622   9.386 -0.6369  1.2793 -3.4027
    6MOL0     H  787  11.669   7.552   9.451 -0.8565 -0.3584  0.8178
    6MOL0     H  788  11.575   7.440   9.251  1.5988 -1.0701 -4.1896
    6MOL0     H  789  11.612   7.574   9.152 -0.0377 -2.3845 -2.2020
    6MOL0     H  790  11.925   8.519   9.447 -1.7614  1.6393  0.8337
    6MOL0     H  791  11.861   8.702   9.343  3.0933 -2.0703  0.2934
    6MOL0     H  792  11.607   8.800   8.883  0.0972  0.9925 -3.7233
    6MOL0     H  793  11.530   8.959   8.731 -0.8587  0.4612  1.7218
    6MOL0     H  794  10.628  10.468   9.361  0.7080  1.0148  2.2703
    6MOL0     H  795  10.626  10.591   9.559 -1.6035 -1.3337  0.9694
    6MOL0     H  796  10.331  10.957   9.720 -1.4327  1.3237 -0.0479
    6MOL0     H  797  10.207  11.087   9.867  0.7894 -0.9472 -2.0262
    6MOL0     H  798   9.999  10.896  10.074  1.2932 -1.5150 -0.0117
    6MOL0     H  799   9.942  11.061  10.086  0.7281 -0.6433 -0.6080
    6MOL0     H  800   9.957  11.061  10.330 -0.1895 -0.9212  2.1971
    6MOL0     H  801  10.096  10.949  10.323  0.2979  1.0776 -0.3813
    6MOL0     H  802   9.942  10.801  10.403  4.8036  0.6484 -0.7102
    6MOL0     H  803   9.959  10.751  10.244  0.5720 -0.9890  1.1652
    6MOL0     H  804   9.731  10.922  10.329 -0.8535  0.1344 -1.1966
    6MOL0     H  805   9.743  10.850  10.169 -0.9780  0.4429  1.2462
    6MOL0     H  806   9.614  10.531  10.409  1.1840  0.0787  2.0807
    6MOL0     H  807  10.268  10.806  10.183  0.2454 -1.7046 -0.5307
    6MOL0     H  808  10.355  10.542  10.008  1.0393  0.8111 -0.1797
    6MOL0     H  809  10.515  10.621  10.026  0.5351 -2.7721 -0.2001
    6MOL0     H  810  10.391  10.624  10.155  0.2422 -1.8487  0.5042
    7MOL0     O  811   9.819   4.921   3.378  0.7754  0.0701  0.6588
    7MOL0     C  812   9.832   4.817   3.434 -0.0210 -0.1122 -0.1019
    7MOL0     O  813   9.941   4.737   3.427 -0.2251 -0.4973  0.4354
    7MOL0     C  814  10.027   4.756   3.313 -0.5366  0.5396 -1.1554
    7MOL0     C  815   9.971   4.770   3.189 -0.0510 -1.2757  0.6938
    7MOL0     C  816  10.053   4.791   3.073  0.3996  0.0106 -0.3170
    7MOL0     C  817  10.196   4.795   3.086  0.2928 -0.3454  0.4883
    7MOL0     O  818  10.279   4.807   2.975  0.7890  0.2228  0.0728
    7MOL0     C  819  10.318   4.937   2.921 -0.4899 -0.4407 -0.4521
    7MOL0     C  820  10.457   4.999   2.967 -0.1673 -0.1366  0.1415
    7MOL0     C  821  10.499   5.124   2.889 -0.0828 -0.2241  0.4203
    7MOL0     C  822  10.633   5.182   2.933  0.1931 -0.5009 -0.1037
    7MOL0     C  823  10.674   5.302   2.850  0.5332  0.5715  0.1546
    7MOL0     C  824  10.591   5.429   2.873 -0.4991  0.2080  0.3785
    7MOL0     C  825  10.656   5.557   2.827 -0.0256  0.1904  0.6004
    7MOL0     C  826  10.636   5.662   2.940  0.2410 -0.5582  0.1007
    7MOL0     N  827  10.705   5.784   2.910  0.0069 -0.2877  0.6375
    7MOL0     C  828  10.659   5.873   2.820 -0.0537  0.2642 -1.1717
    7MOL0     C  829  10.763   5.960   2.810 -0.0082  0.0777 -0.3497
    7MOL0     C  830  10.745   6.100   2.751  0.3182 -0.4321  0.5081
    7MOL0     C  831  10.596   6.157   2.749 -0.0398 -0.7650 -0.4470
    7MOL0     C  832  10.576   6.288   2.670  0.5243 -0.4556 -0.0617
    7MOL0     C  833  10.506   6.402   2.750 -0.2989  0.8285  0.2434
    7MOL0     O  834  10.378   6.378   2.787  0.4938 -0.1192 -0.9635
    7MOL0     C  835  10.297   6.454   2.868 -0.5662 -0.4669 -0.5442
    7MOL0     C  836  10.339   6.569   2.934 -0.9781  0.2665  0.1140
    7MOL0     C  837  10.251   6.637   3.013  0.2123 -0.2043  0.3119
    7MOL0     C  838  10.115   6.597   3.028 -0.5401  0.2399 -0.0592
    7MOL0     C  839  10.031   6.682   3.110 -0.1210  0.1797 -0.0318
    7MOL0     O  840   9.898   6.686   3.080  0.2618  0.0444 -0.1183
    7MOL0     C  841   9.813   6.734   3.175 -0.3979 -0.2299  0.4041
    7MOL0     C  842   9.823   6.704   3.311  0.3272  0.8288  0.2671
    7MOL0     C  843   9.734   6.757   3.400  0.7609 -0.6149  0.7440
    7MOL0     C  844   9.624   6.845   3.359  0.0620  0.3153 -0.3248
    7MOL0     O  845   9.518   6.879   3.443 -0.6329 -0.1022 -0.7630
    7MOL0     C  846   9.542   6.882   3.591 -0.5054  0.2702  0.5098
    7MOL0     C  847   9.461   6.988   3.662  0.9329 -0.1959 -0.3357
    7MOL0     C  848   9.316   6.939   3.673 -0.2928  0.3130  0.2665
    7MOL0     C  849   9.211   7.054   3.706 -0.3947  0.3821 -0.6240
    7MOL0     C  850   9.086   6.999   3.765  0.5209 -0.0643 -0.4892
    7MOL0     C  851   9.000   6.916   3.673 -0.2870 -0.1781  0.3534
    7MOL0     C  852   8.880   6.866   3.755 -0.8522  0.6115 -0.3640
    7MOL0     C  853   8.916   6.780   3.872 -0.4528 -0.3960 -1.0483
    7MOL0    Cl  854   8.766   6.710   3.938 -0.3068 -0.0164  0.2104
    7MOL0     C  855   9.613   6.867   3.224  0.2326 -0.2673 -0.1899
    7MOL0     C  856   9.704   6.812   3.135 -0.7725  0.4425  0.1578
    7MOL0     O  857  10.074   6.769   3.186 -0.2835  0.5217 -0.1907
    7MOL0     C  858  10.067   6.483   2.963 -0.4088 -0.9245  0.2077
    7MOL0     C  859  10.164   6.417   2.881  0.4314  1.3341 -1.0163
    7MOL0     N  860  10.869   5.920   2.889 -0.8818 -1.1521  0.4011
    7MOL0     N  861  10.830   5.815   2.957  0.3107 -0.9288  0.2940
    7MOL0     C  862  10.253   4.769   3.206  0.7815 -0.6221  0.1527
    7MOL0     C  863  10.169   4.762   3.319  0.9117 -0.2224 -0.5234
    7MOL0     C  864   9.721   4.765   3.527  0.3940 -0.3037  0.2833
    7MOL0     C  865   9.725   4.631   3.568 -0.4058 -0.5872 -0.0007
    7MOL0     C  866   9.632   4.584   3.658  0.8209 -0.5372  0.3112
    7MOL0     C  867   9.521   4.654   3.704 -0.6077 -1.3344 -0.4576
    7MOL0     O  868   9.424   4.625   3.791 -0.4356  0.2565 -0.7666
    7MOL0     C  869   9.449   4.527   3.894  0.4243 -0.0413 -0.3312
    7MOL0     C  870   9.417   4.381   3.854 -0.0760  0.5330 -0.7577
    7MOL0     C  871   9.292   4.373   3.787  0.6909 -0.6194 -0.7150
    7MOL0     C  872   9.165   4.386   3.868 -0.3655  0.8427 -0.7637
    7MOL0     C  873   9.156   4.273   3.969  0.3209  0.5099  0.0020
    7MOL0     C  874   9.158   4.196   4.061  0.0683 -0.0145 -0.0205
    7MOL0     C  875   9.513   4.789   3.656  0.4824  0.1777  1.4242
    7MOL0     C  876   9.612   4.844   3.571  0.7379  0.1208 -0.2415
    7MOL0     C  877   9.602   4.989   3.545  0.6151  0.5209 -0.8014
    7MOL0     H  878   9.864   4.760   3.169 -0.6031  2.7639  0.8639
    7MOL0     H  879  10.004   4.811   2.978 -3.0582  0.5527  1.4124
    7MOL0     H  880  10.321   4.936   2.812 -0.6847 -1.4042 -0.4582
    7MOL0     H  881  10.248   5.018   2.944  0.6716  0.1517  1.1879
    7MOL0     H  882  10.525   4.917   2.946 -0.5764 -0.1462 -1.2452
    7MOL0     H  883  10.453   5.015   3.076  3.4764 -3.3679  0.9866
    7MOL0     H  884  10.420   5.198   2.903  1.2832  1.0036  2.0373
    7MOL0     H  885  10.514   5.088   2.787 -1.1485 -2.4235  0.9765
    7MOL0     H  886  10.618   5.216   3.036 -0.1256  2.7893 -1.1326
    7MOL0     H  887  10.713   5.107   2.928 -0.4223 -1.2395  0.8914
    7MOL0     H  888  10.782   5.313   2.859  0.3885  1.4222  1.1348
    7MOL0     H  889  10.649   5.262   2.751 -1.3344  0.9125  0.4438
    7MOL0     H  890  10.490   5.424   2.831  0.4510  3.3360 -2.7919
    7MOL0     H  891  10.573   5.434   2.981  0.3832 -3.3996  0.8349
    7MOL0     H  892  10.608   5.602   2.740  1.4291  2.6730  0.9740
    7MOL0     H  893  10.765   5.548   2.815 -0.1622 -0.6921 -0.1304
    7MOL0     H  894  10.529   5.687   2.943  0.6021  1.3904 -1.3172
    7MOL0     H  895  10.662   5.631   3.041 -0.6045  1.4552  0.9680
    7MOL0     H  896  10.567   5.884   2.763 -0.1050  1.3453 -0.9126
    7MOL0     H  897  10.810   6.167   2.808  1.1432 -0.6504 -0.1467
    7MOL0     H  898  10.785   6.095   2.649 -1.0804 -0.5516 -0.0623
    7MOL0     H  899  10.522   6.086   2.710 -0.9014 -0.2929  0.2909
    7MOL0     H  900  10.563   6.165   2.853  0.7572  0.8773 -0.2849
    7MOL0     H  901  10.522   6.261   2.578  3.1500  0.5903 -2.0297
    7MOL0     H  902  10.673   6.321   2.633  1.7024 -5.2307 -1.8986
    7MOL0     H  903  10.500   6.487   2.682 -2.8601  0.2204 -0.4160
    7MOL0     H  904  10.575   6.427   2.831  0.5815 -0.3991 -0.0971
    7MOL0     H  905  10.440   6.599   2.910 -1.3744 -0.3133 -2.6115
    7MOL0     H  906  10.296   6.709   3.080 -0.6975 -0.1667  0.8943
    7MOL0     H  907   9.901   6.639   3.350 -0.3923  0.8881  1.8627
    7MOL0     H  908   9.738   6.742   3.507 -2.0986  0.2613  1.0676
    7MOL0     H  909   9.509   6.789   3.638 -0.5617  1.7909  3.7105
    7MOL0     H  910   9.649   6.896   3.608 -0.9773  2.2125  2.2784
    7MOL0     H  911   9.504   6.997   3.763  0.4483  0.8382 -0.2063
    7MOL0     H  912   9.468   7.088   3.619  0.7139  0.2717  0.6739
    7MOL0     H  913   9.274   6.901   3.580 -1.5662 -0.2967  1.0548
    7MOL0     H  914   9.302   6.854   3.742 -2.2251 -1.0331 -1.6630
    7MOL0     H  915   9.187   7.113   3.618 -4.2821  0.3170  0.2264
    7MOL0     H  916   9.264   7.120   3.775  1.8204 -1.2815 -0.6120
    7MOL0     H  917   9.027   7.090   3.781  0.8312 -0.0609  0.7931
    7MOL0     H  918   9.110   6.947   3.858  1.8331  1.0407 -0.1698
    7MOL0     H  919   8.962   6.985   3.597  0.5186  1.3740  1.2896
    7MOL0     H  920   9.062   6.835   3.635  0.1985  0.8912 -1.2200
    7MOL0     H  921   8.815   6.810   3.687 -1.7066 -0.9216  1.6193
    7MOL0     H  922   8.816   6.949   3.783 -3.0047  1.1945 -5.7231
    7MOL0     H  923   8.985   6.701   3.840 -0.1054  0.1540 -1.6700
    7MOL0     H  924   8.962   6.845   3.947 -0.5325  1.6489 -2.6970
    7MOL0     H  925   9.525   6.918   3.186 -1.5469 -1.5308  2.0100
    7MOL0     H  926   9.691   6.830   3.029  0.1981 -2.9631 -0.6734
    7MOL0     H  927   9.961   6.461   2.964 -0.8240  0.1009 -3.7327
    7MOL0     H  928  10.134   6.323   2.837  2.2779  0.3605 -0.2735
    7MOL0     H  929  10.360   4.751   3.204  0.7487 -0.8425 -2.3833
    7MOL0     H  930  10.205   4.739   3.419 -1.8425 -0.9758  0.4050
    7MOL0     H  931   9.808   4.564   3.552  1.3516  1.7148 -1.0662
    7MOL0     H  932   9.651   4.482   3.693  2.4117 -0.7410 -1.0019
    7MOL0     H  933   9.388   4.556   3.979 -1.7396 -3.6577 -0.4534
    7MOL0     H  934   9.554   4.531   3.925 -0.4893  1.8436  2.9288
    7MOL0     H  935   9.413   4.322   3.946  0.7991 -0.7749 -1.5395
    7MOL0     H  936   9.488   4.334   3.786  0.2851  1.4453 -1.0252
    7MOL0     H  937   9.278   4.275   3.741  1.4051 -1.6810  1.2396
    7MOL0     H  938   9.279   4.450   3.710 -2.0498  1.7315  1.8493
    7MOL0     H  939   9.164   4.481   3.922  1.8932 -0.6801  2.3031
    7MOL0     H  940   9.076   4.370   3.807  0.3339  1.0593 -1.8893
    7MOL0     H  941   9.160   4.136   4.149  2.3781  2.4695  1.8046
    7MOL0     H  942   9.431   4.856   3.680 -0.1205  2.5476 -5.1420
    7MOL0     H  943   9.588   5.003   3.437 -0.6383  2.4152 -0.4481
    7MOL0     H  944   9.518   5.037   3.595  0.5888 -0.4621  0.1276
    7MOL0     H  945   9.694   5.038   3.577  1.1618 -2.4086  2.7041
    8MOL0     O  946   2.014   4.202   5.639 -0.3278  0.1961  0.1912
    8MOL0     C  947   1.960   4.088   5.635  0.0857  0.4290 -0.4773
    8MOL0     O  948   2.017   3.978   5.653  0.4778  0.0394  0.1884
    8MOL0     C  949   2.150   3.946   5.660  0.0153  0.0651  0.0436
    8MOL0     C  950   2.192   3.820   5.631 -0.9253 -1.1673  0.7676
    8MOL0     C  951   2.325   3.782   5.627 -0.0275 -0.2973  0.5733
    8MOL0     C  952   2.430   3.877   5.639 -0.7494 -0.7319 -0.6464
    8MOL0     O  953   2.565   3.857   5.606  0.2629 -0.8927 -0.4135
    8MOL0     C  954   2.666   3.958   5.623  1.1535 -0.5683  0.1871
    8MOL0     C  955   2.642   4.063   5.512  0.2668 -0.0370  0.2791
    8MOL0     C  956   2.771   4.146   5.478  0.3008 -1.0632  0.1482
    8MOL0     C  957   2.736   4.236   5.362  0.3443 -0.2925 -0.2154
    8MOL0     C  958   2.865   4.270   5.287 -0.5732  0.3430 -0.6795
    8MOL0     C  959   2.831   4.368   5.181  0.3135 -0.9515  1.0934
    8MOL0     C  960   2.960   4.415   5.112 -0.4125  0.3110  0.2594
    8MOL0     C  961   2.938   4.466   4.973 -0.0834 -0.1508 -0.1122
    8MOL0     N  962   3.064   4.510   4.918 -0.0125  0.0012 -0.1196
    8MOL0     C  963   3.064   4.627   4.834 -0.0127 -0.6290 -0.3205
    8MOL0     C  964   3.174   4.608   4.755  0.0710  0.4839 -0.8923
    8MOL0     C  965   3.218   4.711   4.660 -0.4261 -0.3725 -0.2325
    8MOL0     C  966   3.334   4.802   4.707  0.4203 -0.2986 -0.3897
    8MOL0     C  967   3.371   4.909   4.609 -0.2376 -0.0999  0.2831
    8MOL0     C  968   3.496   4.990   4.617 -0.3408  0.3264 -1.1127
    8MOL0     O  969   3.534   5.042   4.495  0.3026  0.2449  0.3944
    8MOL0     C  970   3.662   5.099   4.486 -0.3300  1.0021  0.0434
    8MOL0     C  971   3.714   5.132   4.360  0.2451  0.2076 -0.2217
    8MOL0     C  972   3.846   5.180   4.341 -0.2484 -0.4529  0.7867
    8MOL0     C  973   3.920   5.230   4.457 -0.0744  0.1117  0.6770
    8MOL0     C  974   4.053   5.276   4.432  0.8038  0.1717 -0.2021
    8MOL0     O  975   4.107   5.253   4.308  0.5941 -0.4765 -0.7596
    8MOL0     C  976   4.232   5.297   4.280 -0.6539 -0.9315 -0.9390
    8MOL0     C  977   4.321   5.203   4.224 -0.2593 -0.0366  0.2331
    8MOL0     C  978   4.462   5.236   4.217 -0.2854  0.0877 -0.3817
    8MOL0     C  979   4.509   5.360   4.247  0.2791  0.5585  0.9105
    8MOL0     O  980   4.640   5.384   4.227  0.4096  0.0807 -0.3670
    8MOL0     C  981   4.677   5.361   4.093  0.2025  1.0525 -0.1604
    8MOL0     C  982   4.799   5.451   4.062 -0.4631  1.0675 -0.0314
    8MOL0     C  983   4.932   5.385   4.081  0.0795 -0.7953 -0.7781
    8MOL0     C  984   5.039   5.456   4.001  0.0287 -0.5163 -0.5396
    8MOL0     C  985   5.178   5.394   4.036  0.4948 -0.0598  0.2869
    8MOL0     C  986   5.276   5.463   3.942 -0.1232  0.3012 -0.2277
    8MOL0     C  987   5.248   5.441   3.796 -0.5641  0.6187  0.1287
    8MOL0     C  988   5.205   5.568   3.713 -0.5439 -0.4312 -1.0218
    8MOL0    Cl  989   5.201   5.548   3.536  0.1739  0.0898 -0.0080
    8MOL0     C  990   4.417   5.452   4.289  0.2466  0.2821  0.0360
    8MOL0     C  991   4.280   5.423   4.305  0.4048 -0.0996  0.1579
    8MOL0     O  992   4.106   5.316   4.532 -0.2781 -0.1728  0.5823
    8MOL0     C  993   3.854   5.224   4.586  0.0014  0.1579 -0.0977
    8MOL0     C  994   3.735   5.142   4.599 -0.0847  0.0720 -0.0595
    8MOL0     N  995   3.229   4.485   4.779 -0.4495  0.2772  0.5006
    8MOL0     N  996   3.158   4.427   4.867  0.9819  0.6426 -0.3255
    8MOL0     C  997   2.383   3.996   5.698  0.9126 -0.0809 -0.8187
    8MOL0     C  998   2.246   4.036   5.703 -0.1742  0.6803  0.4906
    8MOL0     C  999   1.809   4.085   5.634 -0.4222 -0.1910 -0.1662
    8MOL0     C 1000   1.736   3.965   5.671 -0.8160 -0.4486 -0.4270
    8MOL0     C 1001   1.600   3.965   5.685 -0.3401 -0.3660 -0.3818
    8MOL0     C 1002   1.527   4.081   5.665  0.8585 -0.1112  0.5133
    8MOL0     O 1003   1.392   4.084   5.688 -0.1222 -0.0614  0.3120
    8MOL0     C 1004   1.324   3.964   5.743 -0.4123 -0.0060 -0.3968
    8MOL0     C 1005   1.177   3.997   5.785  0.2052 -0.1629  0.1194
    8MOL0     C 1006   1.163   4.099   5.899  0.1271  0.5089 -0.1136
    8MOL0     C 1007   1.012   4.104   5.938  0.7597  0.0723  0.2993
    8MOL0     C 1008   0.991   4.198   6.052  0.0320 -0.1950 -0.0169
    8MOL0     C 1009   0.976   4.265   6.154 -0.0446 -0.5458 -0.6435
    8MOL0     C 1010   1.596   4.200   5.643 -0.1770  0.0638 -0.5444
    8MOL0     C 1011   1.735   4.202   5.617 -0.3640  1.1732 -0.7523
    8MOL0     C 1012   1.776   4.344   5.577  0.4594 -0.1210  0.4593
    8MOL0     H 1013   2.113   3.747   5.616  1.5845 -3.4974 -2.5774
    8MOL0     H 1014   2.354   3.686   5.584  1.2623 -1.0878  3.0531
    8MOL0     H 1015   2.659   4.016   5.715 -1.6349  1.0894 -0.9328
    8MOL0     H 1016   2.763   3.912   5.606  1.2138 -0.4043  0.0812
    8MOL0     H 1017   2.567   4.141   5.523  0.9096  1.2338 -3.1902
    8MOL0     H 1018   2.634   4.014   5.414 -0.0263 -0.3860  0.4745
    8MOL0     H 1019   2.848   4.075   5.444  2.4171  0.5059  1.3954
    8MOL0     H 1020   2.811   4.210   5.557 -0.8639 -0.6249  0.3924
    8MOL0     H 1021   2.661   4.189   5.297 -0.0052  1.2183 -0.9636
    8MOL0     H 1022   2.691   4.322   5.411 -0.8766 -2.2127  2.2585
    8MOL0     H 1023   2.938   4.312   5.357  1.3044 -0.8305 -1.8434
    8MOL0     H 1024   2.913   4.174   5.264 -0.6979  0.2779 -0.6699
    8MOL0     H 1025   2.766   4.317   5.108  1.9299  3.0165 -3.7139
    8MOL0     H 1026   2.780   4.457   5.218  1.3046 -1.0713  2.8312
    8MOL0     H 1027   3.018   4.322   5.111 -3.3929 -1.7995  2.9005
    8MOL0     H 1028   3.015   4.485   5.175  0.3657  0.0444 -0.1165
    8MOL0     H 1029   2.906   4.378   4.915  1.9708 -1.7447  1.0143
    8MOL0     H 1030   2.872   4.553   4.970  0.9637  0.6730  0.3394
    8MOL0     H 1031   2.995   4.710   4.828  4.0829  3.4225  1.7726
    8MOL0     H 1032   3.242   4.668   4.562  0.0686 -1.3380  0.3037
    8MOL0     H 1033   3.127   4.769   4.640 -0.5649 -1.6416 -4.2373
    8MOL0     H 1034   3.304   4.854   4.798 -0.1172 -0.5560 -0.4172
    8MOL0     H 1035   3.419   4.740   4.735  0.4027 -1.3582 -2.4758
    8MOL0     H 1036   3.292   4.985   4.609 -0.4318 -0.2449 -1.9290
    8MOL0     H 1037   3.366   4.866   4.509  1.3299 -2.0040  0.9557
    8MOL0     H 1038   3.579   4.927   4.650  1.7234  3.3496 -0.1215
    8MOL0     H 1039   3.486   5.060   4.701 -1.0224 -3.6107  2.4511
    8MOL0     H 1040   3.644   5.106   4.281  1.2471 -2.1541 -0.4155
    8MOL0     H 1041   3.881   5.203   4.241  1.8512 -0.6152  1.4564
    8MOL0     H 1042   4.294   5.099   4.209 -0.0317  0.0354 -0.7694
    8MOL0     H 1043   4.523   5.150   4.192 -0.6523 -0.5813  0.9501
    8MOL0     H 1044   4.708   5.258   4.073  1.6974  1.5282 -0.3789
    8MOL0     H 1045   4.590   5.395   4.036 -0.1569  2.3157  1.0687
    8MOL0     H 1046   4.784   5.475   3.956  1.4205 -1.9787 -1.0919
    8MOL0     H 1047   4.799   5.541   4.125 -2.2966  1.6403 -0.7867
    8MOL0     H 1048   4.958   5.390   4.187  0.3279  0.3621 -0.8767
    8MOL0     H 1049   4.927   5.279   4.056 -1.5312 -0.1450 -3.7405
    8MOL0     H 1050   5.047   5.564   4.017 -0.7204 -0.6680  1.0976
    8MOL0     H 1051   5.017   5.445   3.894  0.0115  2.6866 -0.9411
    8MOL0     H 1052   5.183   5.286   4.023 -2.0201 -0.2206  0.1731
    8MOL0     H 1053   5.200   5.421   4.140 -1.0687  0.0906  0.5966
    8MOL0     H 1054   5.257   5.570   3.957 -0.0796  0.1585  0.8957
    8MOL0     H 1055   5.380   5.435   3.962  0.3150  1.1716 -1.1306
    8MOL0     H 1056   5.172   5.364   3.784 -1.2387  1.1268  1.0183
    8MOL0     H 1057   5.336   5.405   3.741 -0.2027  0.5504  0.7335
    8MOL0     H 1058   5.101   5.582   3.742 -0.6191  1.5948 -2.0580
    8MOL0     H 1059   5.259   5.658   3.744 -0.6785  1.0421 -4.5091
    8MOL0     H 1060   4.457   5.546   4.323  1.7690  0.3680 -1.7993
    8MOL0     H 1061   4.219   5.502   4.349 -1.7840 -0.5125 -1.9370
    8MOL0     H 1062   3.895   5.266   4.677 -1.0982  1.5516 -0.2011
    8MOL0     H 1063   3.698   5.125   4.700  1.0805  0.6144  0.4723
    8MOL0     H 1064   2.460   4.065   5.731  0.5633  1.8143 -3.6375
    8MOL0     H 1065   2.224   4.138   5.732 -1.7366 -0.0126  1.8671
    8MOL0     H 1066   1.773   3.864   5.684 -1.2423 -0.3591  1.7524
    8MOL0     H 1067   1.559   3.865   5.692  3.2758 -1.8895  2.1679
    8MOL0     H 1068   1.367   3.927   5.837  1.2731  0.6568 -0.8569
    8MOL0     H 1069   1.327   3.887   5.666  2.0676 -0.1749 -0.2175
    8MOL0     H 1070   1.132   3.899   5.800  0.2753 -0.7867 -3.1626
    8MOL0     H 1071   1.128   4.047   5.701 -0.0891 -0.2544  0.2391
    8MOL0     H 1072   1.195   4.199   5.868  0.2045  1.6685  3.2568
    8MOL0     H 1073   1.215   4.069   5.990  1.2664 -0.5905 -1.0814
    8MOL0     H 1074   0.957   4.150   5.855 -0.0029  0.7994  1.1800
    8MOL0     H 1075   0.957   4.013   5.961 -1.1668  1.1943  0.3867
    8MOL0     H 1076   0.988   4.323   6.242 -1.3421 -4.4263  2.4054
    8MOL0     H 1077   1.543   4.294   5.628  0.0401 -0.1402 -2.9510
    8MOL0     H 1078   1.857   4.386   5.638  0.2571  2.0916 -0.6788
    8MOL0     H 1079   1.832   4.333   5.484  1.6370  1.0331  0.9851
    8MOL0     H 1080   1.693   4.414   5.564  0.4307  0.4665  3.2154
    9MOL0     O 1081   9.729   4.900  10.448 -0.7670 -0.8847  0.4897
    9MOL0     C 1082   9.717   4.829  10.548  0.0213 -0.1084 -0.3503
    9MOL0     O 1083   9.795   4.721  10.576  0.4507 -0.0910 -0.7956
    9MOL0     C 1084   9.870   4.672  10.478  0.2548 -0.4338  0.4546
    9MOL0     C 1085   9.829   4.651  10.343  0.6175  0.1133  0.4699
    9MOL0     C 1086   9.918   4.604  10.250  0.9427  0.4285  0.7467
    9MOL0     C 1087  10.051   4.570  10.288 -0.5485  0.1841  0.6157
    9MOL0     O 1088  10.130   4.502  10.198  0.2789  0.6184 -0.1875
    9MOL0     C 1089  10.273   4.482  10.216 -0.7238 -0.8778 -1.0809
    9MOL0     C 1090  10.344   4.419  10.096  0.8465  0.3757  0.0315
    9MOL0     C 1091  10.493   4.378  10.118  0.9730  0.5981  0.4321
    9MOL0     C 1092  10.553   4.329   9.986  0.5573  0.0584  0.3643
    9MOL0     C 1093  10.692   4.277  10.006  0.0802  0.9874  0.3631
    9MOL0     C 1094  10.763   4.213   9.888 -0.7694  0.6164 -0.1052
    9MOL0     C 1095  10.882   4.136   9.946 -0.5646  0.0119  0.2462
    9MOL0     C 1096  10.848   3.991   9.989  0.9930 -0.1539 -0.7270
    9MOL0     N 1097  10.966   3.916  10.001 -0.2425  1.1069 -0.2226
    9MOL0     C 1098  11.043   3.905  10.115 -0.2347  0.8710  0.1542
    9MOL0     C 1099  11.133   3.811  10.083 -1.0961 -0.2018 -0.2685
    9MOL0     C 1100  11.230   3.760  10.184 -0.4087 -0.0589 -0.1569
    9MOL0     C 1101  11.208   3.607  10.192  0.6392  0.2759  0.3541
    9MOL0     C 1102  11.326   3.547  10.258  0.1338  0.4620 -0.3024
    9MOL0     C 1103  11.295   3.425  10.341  0.4639 -0.1220  1.1059
    9MOL0     O 1104  11.246   3.312  10.263  0.1943 -0.5764 -0.1489
    9MOL0     C 1105  11.161   3.223  10.332 -0.0631  0.3332  0.3800
    9MOL0     C 1106  11.064   3.262  10.421 -0.0724  0.0771 -0.5897
    9MOL0     C 1107  10.977   3.166  10.480  0.1684 -0.0873 -0.2458
    9MOL0     C 1108  10.989   3.023  10.448 -1.0148  0.1760  0.2332
    9MOL0     C 1109  10.899   2.921  10.519 -0.5138 -0.4613  0.0727
    9MOL0     O 1110  10.908   2.788  10.468 -0.4603  0.0303 -0.5377
    9MOL0     C 1111  10.808   2.700  10.496  0.0955  0.9040 -0.1916
    9MOL0     C 1112  10.675   2.733  10.482 -0.5554  0.2258  0.5640
    9MOL0     C 1113  10.568   2.648  10.493 -1.1200 -0.8974  0.7467
    9MOL0     C 1114  10.600   2.520  10.541  0.1290  0.6658 -0.7139
    9MOL0     O 1115  10.512   2.423  10.571  1.0398 -0.5769  0.3430
    9MOL0     C 1116  10.373   2.462  10.589 -0.0178 -0.2697  0.5276
    9MOL0     C 1117  10.293   2.359  10.672  0.1202  0.0280  0.6019
    9MOL0     C 1118  10.349   2.344  10.813 -0.3941 -0.5483  0.9280
    9MOL0     C 1119  10.266   2.264  10.909  0.7200 -1.1450 -0.1958
    9MOL0     C 1120  10.339   2.245  11.044 -0.5257 -0.2494  0.1410
    9MOL0     C 1121  10.267   2.142  11.133  0.7457 -0.2473 -0.6743
    9MOL0     C 1122  10.325   2.132  11.277 -0.4352  0.0036  0.1006
    9MOL0     C 1123  10.236   2.037  11.360  0.4954 -0.1742 -0.1396
    9MOL0    Cl 1124  10.303   2.019  11.538 -0.2535 -0.3372  0.4097
    9MOL0     C 1125  10.735   2.475  10.571 -0.4798 -0.7785  0.7794
    9MOL0     C 1126  10.834   2.572  10.538 -0.8906  0.1467  0.5238
    9MOL0     O 1127  10.819   2.964  10.607 -0.3651  0.8011  0.0334
    9MOL0     C 1128  11.074   2.988  10.345 -0.2475  0.3948  0.3898
    9MOL0     C 1129  11.166   3.087  10.292  0.2348  0.5119 -0.7692
    9MOL0     N 1130  11.133   3.782   9.949  0.3895  0.6649 -0.2305
    9MOL0     N 1131  11.024   3.834   9.906 -0.4532 -0.0447  0.1044
    9MOL0     C 1132  10.090   4.580  10.423 -1.0225  0.2306  0.2817
    9MOL0     C 1133  10.000   4.633  10.514 -0.3848  0.3813  0.0319
    9MOL0     C 1134   9.598   4.867  10.627 -0.5986 -0.2895  0.2448
    9MOL0     C 1135   9.542   4.765  10.698 -0.1563  0.3191  0.5355
    9MOL0     C 1136   9.444   4.790  10.794  0.5259 -0.5414  0.2689
    9MOL0     C 1137   9.380   4.910  10.813 -0.3032 -0.5943 -0.2877
    9MOL0     O 1138   9.269   4.908  10.892  0.7831 -0.7169 -0.2416
    9MOL0     C 1139   9.147   4.985  10.855  0.7505 -1.3267 -0.6665
    9MOL0     C 1140   9.084   4.959  10.719 -0.0686 -0.5628 -0.4699
    9MOL0     C 1141   9.028   4.818  10.700 -0.5257  0.1383 -0.6732
    9MOL0     C 1142   9.048   4.771  10.550  0.8065 -0.5416 -0.2031
    9MOL0     C 1143   8.971   4.854  10.454  0.6763  0.2355 -0.7229
    9MOL0     C 1144   8.927   4.924  10.364 -0.1408 -0.0831  0.0076
    9MOL0     C 1145   9.439   5.020  10.745  0.1734  0.3119  0.4783
    9MOL0     C 1146   9.535   5.000  10.650 -1.1574 -0.3147  0.9721
    9MOL0     C 1147   9.586   5.126  10.574  0.3462  0.1223 -1.3863
    9MOL0     H 1148   9.729   4.684  10.318  1.1204  0.5765 -1.0151
    9MOL0     H 1149   9.879   4.583  10.150 -0.4595  0.5551  1.2527
    9MOL0     H 1150  10.329   4.571  10.248 -0.0030 -2.1816  1.6301
    9MOL0     H 1151  10.299   4.400  10.284  1.9371 -0.0941 -1.0280
    9MOL0     H 1152  10.327   4.477  10.005 -2.7651 -0.7683 -0.1834
    9MOL0     H 1153  10.294   4.327  10.066  0.6596  0.9749 -1.5760
    9MOL0     H 1154  10.491   4.309  10.203 -0.4150 -0.4624 -0.4095
    9MOL0     H 1155  10.555   4.463  10.149  2.2367 -0.5307  1.0969
    9MOL0     H 1156  10.495   4.241   9.959  1.2487  0.0090 -1.0582
    9MOL0     H 1157  10.547   4.395   9.899  2.7424 -1.9967 -1.4904
    9MOL0     H 1158  10.749   4.364  10.041  4.2341 -1.9372  1.5983
    9MOL0     H 1159  10.681   4.208  10.089 -0.8761  1.2965  0.5069
    9MOL0     H 1160  10.696   4.149   9.830 -1.7474  0.9066  0.6847
    9MOL0     H 1161  10.802   4.297   9.828 -1.1390  0.9839  0.1631
    9MOL0     H 1162  10.939   4.188  10.024 -1.9148  0.6191  0.8648
    9MOL0     H 1163  10.953   4.147   9.864  1.5701  2.8695  2.2318
    9MOL0     H 1164  10.793   3.992  10.084  1.1945 -0.0485 -0.6113
    9MOL0     H 1165  10.772   3.951   9.921  0.5999  1.4651 -1.2945
    9MOL0     H 1166  11.031   3.952  10.212  3.6443 -0.1886  1.3009
    9MOL0     H 1167  11.335   3.785  10.165  1.9607 -6.1032  2.5386
    9MOL0     H 1168  11.202   3.797  10.283  1.4332 -0.8245  0.6926
    9MOL0     H 1169  11.124   3.598  10.261 -0.6004  0.9243 -1.0227
    9MOL0     H 1170  11.191   3.559  10.095  2.0457 -1.7323  1.0513
    9MOL0     H 1171  11.363   3.625  10.326 -2.0024  0.2425  1.2066
    9MOL0     H 1172  11.393   3.517  10.177 -1.7556 -2.0683 -1.0452
    9MOL0     H 1173  11.231   3.462  10.422 -1.3981  0.8315 -0.7005
    9MOL0     H 1174  11.390   3.391  10.383  0.6362 -0.3325  0.5493
    9MOL0     H 1175  11.050   3.364  10.455 -1.4080  0.1682 -1.3559
    9MOL0     H 1176  10.904   3.197  10.555 -2.1759 -2.3883 -1.4049
    9MOL0     H 1177  10.663   2.834  10.444 -1.9604  0.4698  1.5633
    9MOL0     H 1178  10.475   2.690  10.456 -0.9580 -0.1027  1.2106
    9MOL0     H 1179  10.366   2.557  10.643  1.9152 -0.2827  0.8882
    9MOL0     H 1180  10.334   2.477  10.488  2.4458  1.3623 -0.2841
    9MOL0     H 1181  10.189   2.389  10.681  0.1625  0.5909 -0.5957
    9MOL0     H 1182  10.296   2.268  10.611 -0.4071  0.5628 -0.2365
    9MOL0     H 1183  10.450   2.302  10.811 -0.7745 -1.4745 -0.5434
    9MOL0     H 1184  10.356   2.449  10.844 -0.9865  0.0432 -0.8045
    9MOL0     H 1185  10.248   2.168  10.859  0.7351 -0.4423 -1.5995
    9MOL0     H 1186  10.167   2.306  10.930  2.5116  3.5125  0.0594
    9MOL0     H 1187  10.349   2.343  11.092  0.1859 -0.6348  0.7989
    9MOL0     H 1188  10.443   2.211  11.043 -0.3518 -0.2269  3.8635
    9MOL0     H 1189  10.161   2.170  11.134  0.2414 -1.7839 -3.0749
    9MOL0     H 1190  10.276   2.043  11.086  1.9058  0.9075 -3.0649
    9MOL0     H 1191  10.333   2.231  11.321  0.1000 -0.7717  1.8420
    9MOL0     H 1192  10.428   2.095  11.270 -0.4250  0.1749 -0.7603
    9MOL0     H 1193  10.136   2.082  11.356  0.0466 -1.1150  0.2828
    9MOL0     H 1194  10.225   1.939  11.313 -2.0117  1.0670 -2.4219
    9MOL0     H 1195  10.753   2.376  10.612  1.4171 -1.1185 -0.7722
    9MOL0     H 1196  10.940   2.547  10.543 -0.4035  1.4199 -1.8352
    9MOL0     H 1197  11.072   2.884  10.314  0.7797  1.0472 -2.1119
    9MOL0     H 1198  11.245   3.057  10.224 -0.4479 -3.7802  0.0201
    9MOL0     H 1199  10.182   4.539  10.464 -0.9194 -1.1423 -1.2439
    9MOL0     H 1200  10.021   4.614  10.619 -1.7818 -1.0920  0.0889
    9MOL0     H 1201   9.582   4.666  10.676  1.7267  1.3833 -1.1207
    9MOL0     H 1202   9.403   4.704  10.847 -1.1745 -0.0663 -0.1920
    9MOL0     H 1203   9.159   5.094  10.861 -1.2755 -0.9126 -2.9564
    9MOL0     H 1204   9.065   4.963  10.924  0.8680  0.2035  0.0110
    9MOL0     H 1205   9.153   4.978  10.637 -0.6439  0.1024 -0.8089
    9MOL0     H 1206   9.010   5.040  10.716  2.8527  2.5370  2.4139
    9MOL0     H 1207   8.922   4.814  10.727  0.2493 -0.3036  2.7080
    9MOL0     H 1208   9.082   4.760  10.774  0.7919  3.2765  1.0196
    9MOL0     H 1209   9.155   4.769  10.527  0.8678 -1.0830  0.1140
    9MOL0     H 1210   9.029   4.666  10.530 -0.0144 -0.0093 -2.5100
    9MOL0     H 1211   8.887   4.987  10.287 -1.0490 -1.9465 -1.1121
    9MOL0     H 1212   9.400   5.120  10.762  2.6112  2.3207 -3.9270
    9MOL0     H 1213   9.532   5.213  10.614 -1.0301 -1.8794  1.3795
    9MOL0     H 1214   9.693   5.146  10.585  0.9622 -2.6102 -1.7727
    9MOL0     H 1215   9.578   5.122  10.465 -0.4667 -0.4811 -1.3105
   10MOL0     O 1216   0.006  10.547   2.920  0.3218  0.1418  0.5159
   10MOL0     C 1217   0.007  10.648   2.843  0.1012  0.5913 -0.0818
   10MOL0     O 1218  -0.017  10.780   2.880 -0.0415 -0.2556 -0.2441
   10MOL0     C 1219  -0.084  10.814   2.997 -0.3912  0.4865 -0.4181
   10MOL0     C 1220  -0.042  10.924   3.072  0.3270  0.3090  0.1080
   10MOL0     C 1221  -0.123  10.969   3.176  0.1297 -0.9377 -0.2322
   10MOL0     C 1222  -0.236  10.899   3.223  0.7230 -1.3224  0.1783
   10MOL0     O 1223  -0.298  10.951   3.335  0.1059  0.2578 -0.4282
   10MOL0     C 1224  -0.368  10.870   3.429  0.0942 -0.3880 -0.5508
   10MOL0     C 1225  -0.514  10.846   3.404  0.8540  0.7066  0.7709
   10MOL0     C 1226  -0.578  10.794   3.530  0.9005 -0.6204 -0.2688
   10MOL0     C 1227  -0.717  10.753   3.493  1.8581  0.9062 -0.2084
   10MOL0     C 1228  -0.797  10.703   3.616 -1.2056 -0.1016 -0.4491
   10MOL0     C 1229  -0.930  10.644   3.573 -1.2836  0.1518  0.2917
   10MOL0     C 1230  -0.925  10.516   3.484 -0.8685  0.1744  0.6360
   10MOL0     C 1231  -1.070  10.472   3.461 -0.2442 -0.5463  1.0323
   10MOL0     N 1232  -1.087  10.394   3.332  0.0526  0.0742  0.8481
   10MOL0     C 1233  -1.063  10.253   3.315 -0.3280 -0.4321 -0.2126
   10MOL0     C 1234  -1.124  10.236   3.196  0.8901 -0.7833  0.1836
   10MOL0     C 1235  -1.119  10.110   3.125  0.4526  0.5322 -0.6508
   10MOL0     C 1236  -1.100   9.992   3.211 -0.3590 -0.2753 -0.6251
   10MOL0     C 1237  -1.085   9.860   3.137 -0.1929 -0.5098  0.6136
   10MOL0     C 1238  -1.048   9.749   3.238  0.2920  0.9949 -0.8272
   10MOL0     O 1239  -1.146   9.753   3.348  0.9795 -0.0344 -0.1408
   10MOL0     C 1240  -1.253   9.664   3.333  0.5382  0.1517 -0.3716
   10MOL0     C 1241  -1.228   9.527   3.335 -0.0898 -0.0163 -0.0521
   10MOL0     C 1242  -1.329   9.438   3.316 -0.3872 -0.2788 -0.3674
   10MOL0     C 1243  -1.463   9.475   3.293  0.5991 -0.1945  0.8788
   10MOL0     C 1244  -1.564   9.386   3.248 -1.3741  0.0501  0.3723
   10MOL0     O 1245  -1.528   9.252   3.251 -0.1113 -0.3141 -0.6453
   10MOL0     C 1246  -1.618   9.160   3.238  0.1815  0.0542  0.3635
   10MOL0     C 1247  -1.668   9.110   3.358  0.1973 -0.3441 -0.1606
   10MOL0     C 1248  -1.763   9.004   3.347  0.4666 -0.9650  0.2191
   10MOL0     C 1249  -1.801   8.946   3.225 -0.6963  0.1949  0.0818
   10MOL0     O 1250  -1.892   8.843   3.216  0.0059 -0.2552 -0.0522
   10MOL0     C 1251  -1.861   8.732   3.134  0.0617  0.6139 -0.4451
   10MOL0     C 1252  -1.985   8.634   3.124 -0.1677  0.1997  0.4153
   10MOL0     C 1253  -2.028   8.599   3.273 -0.5130 -0.1480 -0.0178
   10MOL0     C 1254  -2.147   8.492   3.268  0.6092 -0.3627 -0.4187
   10MOL0     C 1255  -2.163   8.438   3.410 -0.9070  0.8192  0.3003
   10MOL0     C 1256  -2.287   8.348   3.434  0.1630  0.0146 -0.1375
   10MOL0     C 1257  -2.283   8.316   3.585 -0.5133 -0.4094 -0.0203
   10MOL0     C 1258  -2.415   8.280   3.636  0.5720 -0.4488  0.1477
   10MOL0    Cl 1259  -2.455   8.130   3.537  0.0039 -0.2898  0.1401
   10MOL0     C 1260  -1.757   9.010   3.106  0.5623  0.5430  0.5254
   10MOL0     C 1261  -1.661   9.107   3.108 -0.3832  0.2969 -0.5820
   10MOL0     O 1262  -1.677   9.426   3.224 -0.2074 -0.6530 -1.1088
   10MOL0     C 1263  -1.494   9.611   3.304 -0.5852  0.1741  0.4859
   10MOL0     C 1264  -1.387   9.700   3.333  0.6595 -0.2579  0.0248
   10MOL0     N 1265  -1.191  10.353   3.150  0.6030  0.4056  0.0201
   10MOL0     N 1266  -1.165  10.446   3.227  0.2205 -0.5408  0.8514
   10MOL0     C 1267  -0.284  10.794   3.145 -0.2399 -0.4661  0.1006
   10MOL0     C 1268  -0.202  10.746   3.041 -0.0691 -0.4665  0.3634
   10MOL0     C 1269   0.040  10.626   2.706 -0.4973  0.0935  0.7379
   10MOL0     C 1270   0.167  10.664   2.660  0.9635 -0.5362  0.4635
   10MOL0     C 1271   0.207  10.618   2.532 -0.9242  0.0552 -0.2753
   10MOL0     C 1272   0.125  10.543   2.450  0.2577  0.5377  0.4702
   10MOL0     O 1273   0.153  10.499   2.324 -0.9679 -0.0755  0.4554
   10MOL0     C 1274   0.224  10.592   2.234  0.6137  0.0628  0.1956
   10MOL0     C 1275   0.136  10.689   2.170  0.0142 -0.6463  0.2664
   10MOL0     C 1276   0.018  10.628   2.078 -0.1636 -0.6169  0.9509
   10MOL0     C 1277  -0.082  10.744   2.048  0.6676  0.6677 -0.6332
   10MOL0     C 1278  -0.025  10.866   1.989 -1.0883  0.3666  0.1727
   10MOL0     C 1279   0.030  10.959   1.942  0.1771 -0.3208 -0.9603
   10MOL0     C 1280  -0.005  10.516   2.499  0.1200  0.5806  0.0538
   10MOL0     C 1281  -0.040  10.547   2.625  0.1222  0.2442 -0.2887
   10MOL0     C 1282  -0.187  10.509   2.672 -0.7456 -0.0588  0.2640
   10MOL0     H 1283   0.048  10.981   3.051  2.0318 -0.8443  3.5556
   10MOL0     H 1284  -0.094  11.052   3.240  2.9660 -2.5168  0.6912
   10MOL0     H 1285  -0.314  10.775   3.441  2.1804  0.7192 -0.6851
   10MOL0     H 1286  -0.345  10.923   3.522  2.6635  0.8008 -1.7796
   10MOL0     H 1287  -0.514  10.764   3.331 -1.1053  2.5543 -1.4632
   10MOL0     H 1288  -0.552  10.935   3.353 -2.3926 -0.7800  0.3471
   10MOL0     H 1289  -0.571  10.879   3.600 -0.1966  1.1050 -2.1541
   10MOL0     H 1290  -0.511  10.721   3.576  1.7039  0.2790  0.0343
   10MOL0     H 1291  -0.768  10.845   3.463 -1.4290  0.4141  3.1960
   10MOL0     H 1292  -0.707  10.676   3.415 -0.3714 -0.1019  0.4225
   10MOL0     H 1293  -0.743  10.628   3.675 -1.8121  0.5203  0.9205
   10MOL0     H 1294  -0.809  10.794   3.674  2.3150 -0.5517  1.2530
   10MOL0     H 1295  -0.983  10.618   3.665 -1.0694 -3.1743 -0.4192
   10MOL0     H 1296  -0.986  10.723   3.520 -2.6894 -1.0631 -0.1082
   10MOL0     H 1297  -0.860  10.437   3.522  0.0435 -0.7566 -2.5063
   10MOL0     H 1298  -0.881  10.552   3.391  1.0696  1.9287  2.1336
   10MOL0     H 1299  -1.098  10.400   3.539  0.2260 -2.8636 -0.8295
   10MOL0     H 1300  -1.142  10.555   3.461 -0.0457 -0.2794 -1.8446
   10MOL0     H 1301  -1.014  10.191   3.389 -2.3286 -1.2483  0.4721
   10MOL0     H 1302  -1.212  10.098   3.068  1.7305 -1.0859 -2.5428
   10MOL0     H 1303  -1.032  10.114   3.059  2.4642  2.5677  1.9203
   10MOL0     H 1304  -1.011  10.000   3.273 -2.1088  1.0091  1.8683
   10MOL0     H 1305  -1.179   9.986   3.287  1.5192  1.6325  1.6115
   10MOL0     H 1306  -1.013   9.868   3.054 -0.7057  0.0307  0.2072
   10MOL0     H 1307  -1.184   9.827   3.104 -0.4931 -2.5575  3.2505
   10MOL0     H 1308  -0.948   9.758   3.282 -0.0594 -0.4705  0.3682
   10MOL0     H 1309  -1.061   9.656   3.182  1.1069  0.8897 -0.8536
   10MOL0     H 1310  -1.130   9.482   3.351 -0.0663 -0.5825 -1.6058
   10MOL0     H 1311  -1.304   9.333   3.306  0.6597  0.0824 -1.8604
   10MOL0     H 1312  -1.644   9.159   3.452 -1.1314  1.0864 -0.5287
   10MOL0     H 1313  -1.804   8.961   3.438  0.9766 -0.0101  0.9219
   10MOL0     H 1314  -1.825   8.771   3.038 -2.2145 -0.3183 -1.7398
   10MOL0     H 1315  -1.789   8.669   3.188 -0.0395  1.5465  0.8322
   10MOL0     H 1316  -2.061   8.689   3.068  1.5555  0.2933 -1.9630
   10MOL0     H 1317  -1.951   8.548   3.067 -0.2486  1.8313 -2.2290
   10MOL0     H 1318  -1.939   8.555   3.320 -0.3490  0.4673  0.2653
   10MOL0     H 1319  -2.060   8.680   3.340 -1.1128 -0.9986  0.7351
   10MOL0     H 1320  -2.128   8.403   3.208 -0.4450 -2.0809  1.6849
   10MOL0     H 1321  -2.241   8.543   3.243  1.4024  2.1947  1.3492
   10MOL0     H 1322  -2.158   8.521   3.481 -2.7806  0.8510  0.4521
   10MOL0     H 1323  -2.072   8.384   3.439  1.8553  5.6600  1.7730
   10MOL0     H 1324  -2.383   8.400   3.423  1.0158  1.9121  1.0398
   10MOL0     H 1325  -2.276   8.262   3.367  2.2971  0.4885 -0.4565
   10MOL0     H 1326  -2.246   8.396   3.650 -1.4193 -0.5997  0.7609
   10MOL0     H 1327  -2.212   8.233   3.593 -0.1587 -0.2819 -1.5425
   10MOL0     H 1328  -2.391   8.247   3.738  3.5236  2.3726  0.5370
   10MOL0     H 1329  -2.489   8.361   3.631  1.7260  0.8218  2.2682
   10MOL0     H 1330  -1.796   8.971   3.012  0.9844  0.1364  0.5176
   10MOL0     H 1331  -1.613   9.146   3.019 -1.5554  0.7966 -1.0096
   10MOL0     H 1332  -1.591   9.653   3.282  0.1362  0.7870 -1.8208
   10MOL0     H 1333  -1.416   9.805   3.335 -0.5662 -0.2242  7.6673
   10MOL0     H 1334  -0.369  10.729   3.163  1.1865 -1.9076  2.1941
   10MOL0     H 1335  -0.242  10.672   2.973 -1.0313  0.3162  0.0540
   10MOL0     H 1336   0.231  10.710   2.735 -0.5213  2.6849 -0.0634
   10MOL0     H 1337   0.302  10.648   2.488 -0.7682 -1.1487 -0.7987
   10MOL0     H 1338   0.258  10.527   2.154 -0.8231  1.2217 -1.4297
   10MOL0     H 1339   0.317  10.635   2.271  0.4086 -0.9872  2.0652
   10MOL0     H 1340   0.195  10.758   2.109  1.6617  0.4404  2.9128
   10MOL0     H 1341   0.094  10.750   2.250  0.1565  0.7733 -0.6964
   10MOL0     H 1342  -0.039  10.544   2.117 -1.6874 -1.0250 -1.9234
   10MOL0     H 1343   0.071  10.589   1.990 -1.2395  3.2872 -1.7308
   10MOL0     H 1344  -0.158  10.708   1.978  1.7919  1.5317 -2.3644
   10MOL0     H 1345  -0.135  10.759   2.142 -0.8630 -3.0970 -0.7279
   10MOL0     H 1346   0.077  11.050   1.909 -1.4781  0.4823 -1.2015
   10MOL0     H 1347  -0.055  10.449   2.430  2.7390 -0.1899 -1.2176
   10MOL0     H 1348  -0.210  10.506   2.779 -1.1898  1.8338  0.2578
   10MOL0     H 1349  -0.243  10.592   2.629 -2.7879 -2.5402 -2.2148
   10MOL0     H 1350  -0.220  10.420   2.617 -0.6274 -0.0365  0.1607
   11MOL0     O 1351   5.509   9.801  10.443 -0.3757  1.2467 -0.1834
   11MOL0     C 1352   5.576   9.870  10.370 -0.7942 -0.2001  1.3422
   11MOL0     O 1353   5.716   9.901  10.377  1.0263  0.6241  0.2624
   11MOL0     C 1354   5.793   9.835  10.468  0.4614  0.1554 -0.5652
   11MOL0     C 1355   5.872   9.724  10.437 -0.1663 -0.4698  0.3652
   11MOL0     C 1356   5.958   9.675  10.537  0.1740 -0.9532  0.7072
   11MOL0     C 1357   5.981   9.740  10.656 -0.0600 -0.5406 -0.6549
   11MOL0     O 1358   6.082   9.711  10.740 -0.7130 -0.1952  0.5191
   11MOL0     C 1359   6.099   9.574  10.771 -0.4182  0.2437  0.3206
   11MOL0     C 1360   6.161   9.566  10.913 -0.1327 -0.5494 -0.5861
   11MOL0     C 1361   6.110   9.667  11.012 -0.3007 -0.3616 -1.1111
   11MOL0     C 1362   6.177   9.663  11.152  0.6554  0.1698 -0.8003
   11MOL0     C 1363   6.334   9.667  11.147 -0.3630  0.8232 -1.1025
   11MOL0     C 1364   6.396   9.724  11.281  0.1287  0.9960  0.2943
   11MOL0     C 1365   6.387   9.632  11.398 -0.0848 -0.3654  0.0299
   11MOL0     C 1366   6.473   9.510  11.374 -0.4118  0.1190 -0.3586
   11MOL0     N 1367   6.459   9.422  11.486 -0.6707  0.2887  0.6897
   11MOL0     C 1368   6.460   9.453  11.616  0.2482 -0.3761  0.3147
   11MOL0     C 1369   6.464   9.343  11.692 -0.7399  0.6610  0.6949
   11MOL0     C 1370   6.472   9.351  11.843  0.2258  0.8896  0.7475
   11MOL0     C 1371   6.555   9.236  11.900  0.0229  0.0235 -0.5021
   11MOL0     C 1372   6.703   9.297  11.919 -0.9257 -0.0560 -0.9710
   11MOL0     C 1373   6.817   9.191  11.926  0.3922 -0.4028 -0.4174
   11MOL0     O 1374   6.948   9.258  11.923 -0.6390 -0.1690 -0.4385
   11MOL0     C 1375   6.996   9.329  12.032 -0.1639 -0.0084  0.9192
   11MOL0     C 1376   7.092   9.434  12.006  0.2020  0.2488  0.0437
   11MOL0     C 1377   7.147   9.508  12.107  0.5961 -0.2719  0.1797
   11MOL0     C 1378   7.103   9.493  12.236 -1.0900 -0.2641  0.4590
   11MOL0     C 1379   7.148   9.577  12.346  0.0138 -0.4016 -0.3095
   11MOL0     O 1380   7.230   9.680  12.312 -0.0657  0.0617 -0.4352
   11MOL0     C 1381   7.281   9.773  12.401  0.1567 -0.9096 -0.6322
   11MOL0     C 1382   7.290   9.905  12.355  0.2261  0.6436 -0.5993
   11MOL0     C 1383   7.358  10.000  12.433 -0.6378  0.0871  0.0151
   11MOL0     C 1384   7.416   9.960  12.559 -0.1594 -0.2749  0.7297
   11MOL0     O 1385   7.485  10.045  12.637 -0.3279  0.3546  0.5822
   11MOL0     C 1386   7.416  10.157  12.698  0.0665  0.2473  0.3974
   11MOL0     C 1387   7.473  10.163  12.842  0.9461  0.6498  0.2440
   11MOL0     C 1388   7.429  10.035  12.920 -0.9635  0.5929  0.9156
   11MOL0     C 1389   7.465  10.055  13.067  0.0861  0.5164  0.3147
   11MOL0     C 1390   7.463   9.909  13.127 -0.6539 -0.3513  0.0410
   11MOL0     C 1391   7.473   9.922  13.277  1.0314  0.4080 -0.0583
   11MOL0     C 1392   7.342   9.939  13.359 -1.0023 -0.2595 -0.8834
   11MOL0     C 1393   7.364   9.900  13.512  0.0524  0.3126 -0.2448
   11MOL0    Cl 1394   7.218   9.870  13.599 -0.0541  0.5485 -0.0318
   11MOL0     C 1395   7.405   9.827  12.595 -0.4721  0.3039  0.1423
   11MOL0     C 1396   7.348   9.725  12.511 -0.4275  0.5622 -0.1303
   11MOL0     O 1397   7.104   9.564  12.457  0.0270  0.3808 -0.1923
   11MOL0     C 1398   7.011   9.399  12.267  0.1892  0.1770 -0.8772
   11MOL0     C 1399   6.961   9.315  12.163 -0.3316  0.2665 -0.2580
   11MOL0     N 1400   6.452   9.243  11.601 -0.9360 -0.0025  0.0165
   11MOL0     N 1401   6.462   9.283  11.482  0.4438 -0.6161  0.0942
   11MOL0     C 1402   5.895   9.847  10.683  0.6298  1.0335  0.3166
   11MOL0     C 1403   5.802   9.892  10.593  0.6617 -0.4356 -0.2099
   11MOL0     C 1404   5.503   9.935  10.259  0.0818  0.3684  0.1940
   11MOL0     C 1405   5.575   9.951  10.137  0.2713  1.4056  0.2894
   11MOL0     C 1406   5.521  10.010  10.022 -0.7549  0.3364 -0.3326
   11MOL0     C 1407   5.390  10.052  10.018 -0.9871 -0.2660  0.3926
   11MOL0     O 1408   5.342  10.108   9.906 -0.2071 -1.3592  0.1568
   11MOL0     C 1409   5.312  10.250   9.922  1.0303 -0.0529  0.2972
   11MOL0     C 1410   5.162  10.285   9.905 -1.1750 -0.4954  0.2134
   11MOL0     C 1411   5.110  10.238   9.765  0.1244  0.4017 -0.1808
   11MOL0     C 1412   4.965  10.285   9.745  0.1072  0.2757  1.1524
   11MOL0     C 1413   4.919  10.230   9.617  0.1450  1.1010  0.5261
   11MOL0     C 1414   4.870  10.184   9.511 -0.2374  0.2137 -0.5074
   11MOL0     C 1415   5.319  10.025  10.139 -0.1474 -0.8433 -0.2599
   11MOL0     C 1416   5.365   9.971  10.260 -0.1114 -0.0274 -0.5017
   11MOL0     C 1417   5.268   9.943  10.377 -0.5176 -0.3137 -0.1155
   11MOL0     H 1418   5.854   9.677  10.341  0.2952  1.1137 -0.5379
   11MOL0     H 1419   6.021   9.594  10.500 -2.0174 -2.6610  0.5074
   11MOL0     H 1420   6.008   9.514  10.762  1.1236 -1.9432 -1.8437
   11MOL0     H 1421   6.175   9.541  10.700 -0.2753  1.2241 -0.0052
   11MOL0     H 1422   6.270   9.573  10.907  0.0347 -0.3273  1.7637
   11MOL0     H 1423   6.134   9.471  10.959 -0.1535 -0.5246 -0.5469
   11MOL0     H 1424   6.001   9.660  11.020 -0.0864 -1.7651  1.8414
   11MOL0     H 1425   6.130   9.771  10.982  0.1525  1.1103  3.4545
   11MOL0     H 1426   6.129   9.748  11.202 -4.2742 -1.5506 -1.9756
   11MOL0     H 1427   6.140   9.569  11.195 -0.7949  1.9971  2.3431
   11MOL0     H 1428   6.372   9.570  11.115  0.3217  0.6661  0.1218
   11MOL0     H 1429   6.356   9.734  11.063 -0.6295  1.7279 -0.4627
   11MOL0     H 1430   6.501   9.747  11.259  0.5345 -1.8222 -1.1103
   11MOL0     H 1431   6.353   9.824  11.288  0.0346  1.0756 -1.1355
   11MOL0     H 1432   6.291   9.598  11.438  0.1001 -0.1036  0.7068
   11MOL0     H 1433   6.431   9.702  11.469  2.4202 -1.1420 -0.6293
   11MOL0     H 1434   6.451   9.443  11.290  1.9980 -2.2576  0.7502
   11MOL0     H 1435   6.575   9.549  11.368 -0.8935  2.7303  4.1131
   11MOL0     H 1436   6.471   9.554  11.653 -2.1612  1.9880 -4.5934
   11MOL0     H 1437   6.510   9.451  11.864 -0.1665  1.0797  0.5561
   11MOL0     H 1438   6.366   9.344  11.869 -0.4697 -0.9735 -2.0665
   11MOL0     H 1439   6.510   9.202  11.993 -1.4296  0.9296 -0.8489
   11MOL0     H 1440   6.557   9.151  11.832  1.7547 -0.5234  0.1709
   11MOL0     H 1441   6.703   9.361  12.008  3.6390  1.2657 -1.6399
   11MOL0     H 1442   6.720   9.365  11.835  1.7487  2.6488  1.4930
   11MOL0     H 1443   6.819   9.124  11.839  2.9151 -0.8335 -0.1048
   11MOL0     H 1444   6.807   9.125  12.012 -1.6980  1.9718  1.2879
   11MOL0     H 1445   7.138   9.436  11.908  1.5356  0.1607  0.6339
   11MOL0     H 1446   7.223   9.580  12.078 -0.4775  1.0409  0.5007
   11MOL0     H 1447   7.244   9.923  12.259 -3.3722 -0.3002  0.7859
   11MOL0     H 1448   7.383  10.097  12.389 -0.8377 -0.7197 -1.9953
   11MOL0     H 1449   7.438  10.252  12.649  0.4809  0.4621  0.9985
   11MOL0     H 1450   7.308  10.146  12.691 -0.1284  0.0260  2.9519
   11MOL0     H 1451   7.581  10.158  12.829  0.7147 -1.0604 -1.4732
   11MOL0     H 1452   7.432  10.251  12.894 -0.5738 -0.7258  1.4826
   11MOL0     H 1453   7.326  10.006  12.897 -0.1801 -2.1288  0.5668
   11MOL0     H 1454   7.485   9.951  12.879 -0.5337  0.6339  1.3988
   11MOL0     H 1455   7.393  10.123  13.113 -1.6089 -0.4286 -0.8059
   11MOL0     H 1456   7.566  10.092  13.083 -1.2073  4.7397 -0.1574
   11MOL0     H 1457   7.549   9.848  13.097  0.5522 -2.2178  5.9758
   11MOL0     H 1458   7.376   9.850  13.096  0.7277 -2.1385 -0.6020
   11MOL0     H 1459   7.526   9.832  13.309 -1.1235 -0.3275  1.6875
   11MOL0     H 1460   7.541   9.999  13.313  0.2417  0.4834  1.3299
   11MOL0     H 1461   7.266   9.873  13.316 -0.7613 -2.0599  1.2754
   11MOL0     H 1462   7.296  10.037  13.346 -1.8934 -0.8374 -2.2932
   11MOL0     H 1463   7.417   9.804  13.516 -0.3536  0.1233  1.4233
   11MOL0     H 1464   7.425   9.982  13.550  1.4153  0.9635 -3.4569
   11MOL0     H 1465   7.440   9.790  12.691 -0.1243 -1.6318 -0.6835
   11MOL0     H 1466   7.334   9.623  12.545 -1.8997  0.9569  0.5200
   11MOL0     H 1467   6.987   9.383  12.371 -0.9878 -0.1301 -1.1724
   11MOL0     H 1468   6.886   9.241  12.189  1.5139 -1.5933  0.1019
   11MOL0     H 1469   5.905   9.906  10.774  3.2008  1.7511 -0.3547
   11MOL0     H 1470   5.738   9.974  10.624 -1.0010 -1.1611 -1.5787
   11MOL0     H 1471   5.672   9.908  10.113  0.0993  1.0503  0.2068
   11MOL0     H 1472   5.586  10.019   9.936  0.9552 -0.3341  0.8438
   11MOL0     H 1473   5.361  10.295   9.835  0.4090  1.4824  0.7243
   11MOL0     H 1474   5.356  10.303  10.006 -0.6845 -0.0390  1.2284
   11MOL0     H 1475   5.152  10.392   9.923  2.8378 -0.4503  3.9571
   11MOL0     H 1476   5.107  10.229   9.981  3.3313 -1.8640  2.8058
   11MOL0     H 1477   5.113  10.129   9.771 -0.9380  0.3526 -0.2994
   11MOL0     H 1478   5.177  10.276   9.687  1.8524 -1.6790  0.1940
   11MOL0     H 1479   4.902  10.249   9.827 -0.1343 -2.6147 -0.1514
   11MOL0     H 1480   4.957  10.394   9.741  1.1564  0.3406 -0.5885
   11MOL0     H 1481   4.819  10.159   9.421  0.9694 -0.1365 -1.1054
   11MOL0     H 1482   5.218  10.064  10.131  0.5743  1.2782  0.2247
   11MOL0     H 1483   5.174   9.995  10.355  0.8597  1.5880 -1.9495
   11MOL0     H 1484   5.266   9.836  10.400 -0.5520  0.5724  5.1482
   11MOL0     H 1485   5.312   9.991  10.465  0.1460  1.4825 -1.3558
   12MOL0     O 1486   1.448   8.303   3.961 -0.0637 -0.1785 -1.0961
   12MOL0     C 1487   1.520   8.231   4.025  0.8094 -0.4069 -1.6306
   12MOL0     O 1488   1.582   8.259   4.144 -0.3499  0.8147  0.4406
   12MOL0     C 1489   1.554   8.384   4.200  0.2613  0.3158 -0.0537
   12MOL0     C 1490   1.432   8.401   4.266  0.1357  0.5799  0.6952
   12MOL0     C 1491   1.384   8.525   4.315  0.9632 -0.0569  0.2811
   12MOL0     C 1492   1.467   8.631   4.316  0.3504 -0.7712  0.4610
   12MOL0     O 1493   1.429   8.743   4.381  0.2201 -0.6062 -0.6608
   12MOL0     C 1494   1.494   8.868   4.363  0.1222  0.0200  0.1888
   12MOL0     C 1495   1.598   8.900   4.462 -0.8802  0.3743 -0.5960
   12MOL0     C 1496   1.539   8.907   4.611 -0.8336 -0.2791 -0.7310
   12MOL0     C 1497   1.656   8.961   4.691 -0.2691  0.0493 -0.3871
   12MOL0     C 1498   1.616   8.969   4.848  0.4071 -0.0677  0.8650
   12MOL0     C 1499   1.741   9.007   4.926 -0.8311 -0.6619 -0.3667
   12MOL0     C 1500   1.708   9.031   5.069  0.4490  0.1457  0.6528
   12MOL0     C 1501   1.832   9.019   5.155 -1.1260  0.4101 -0.6237
   12MOL0     N 1502   1.908   9.141   5.136 -0.3963 -0.4629 -0.2966
   12MOL0     C 1503   1.998   9.166   5.035 -0.8404 -0.4050 -0.1032
   12MOL0     C 1504   2.052   9.291   5.065 -0.3430  0.3026 -0.6249
   12MOL0     C 1505   2.164   9.352   4.989  0.9377  0.2811 -0.3422
   12MOL0     C 1506   2.305   9.299   5.022  0.4968  0.2454 -0.0928
   12MOL0     C 1507   2.350   9.356   5.160  0.0956  0.3552 -0.0182
   12MOL0     C 1508   2.418   9.500   5.157  0.1862 -0.3907  1.1418
   12MOL0     O 1509   2.543   9.502   5.085  0.0840  0.1691  0.5564
   12MOL0     C 1510   2.588   9.632   5.054 -0.2721 -0.3251  0.2985
   12MOL0     C 1511   2.641   9.661   4.923  0.2866 -1.0421 -0.0034
   12MOL0     C 1512   2.671   9.797   4.895  0.3952  0.3077 -1.2067
   12MOL0     C 1513   2.670   9.894   5.000  0.0538  0.1213 -0.1512
   12MOL0     C 1514   2.702  10.038   4.984 -0.5939 -0.3663  0.5827
   12MOL0     O 1515   2.691  10.114   5.096 -0.1090 -0.2227  0.1340
   12MOL0     C 1516   2.782  10.220   5.112  0.7164 -0.2458 -1.0979
   12MOL0     C 1517   2.900  10.255   5.047  0.9547 -0.0801 -0.2444
   12MOL0     C 1518   2.968  10.381   5.082 -1.0341 -0.0701 -0.6498
   12MOL0     C 1519   2.921  10.477   5.170  0.0011  0.0689  0.1324
   12MOL0     O 1520   2.993  10.580   5.216 -0.0951 -0.3449 -0.4743
   12MOL0     C 1521   3.083  10.654   5.130 -0.2568  0.4519  0.2387
   12MOL0     C 1522   3.231  10.633   5.146 -0.2755 -0.4853 -0.7401
   12MOL0     C 1523   3.282  10.688   5.279 -0.8467  0.5336  0.3175
   12MOL0     C 1524   3.315  10.838   5.282  0.1867  0.6380  0.4073
   12MOL0     C 1525   3.281  10.897   5.415 -0.7266 -1.0298  0.3066
   12MOL0     C 1526   3.320  11.046   5.427  0.0215 -0.3126 -0.2460
   12MOL0     C 1527   3.290  11.077   5.580 -0.5879 -0.2435 -0.5576
   12MOL0     C 1528   3.276  11.222   5.604  0.0645  0.2906 -0.3799
   12MOL0    Cl 1529   3.147  11.292   5.502 -0.2357 -0.1213 -0.0477
   12MOL0     C 1530   2.804  10.435   5.230  0.6667  0.2804  0.5446
   12MOL0     C 1531   2.735  10.319   5.197 -0.1799  0.2291  0.2016
   12MOL0     O 1532   2.734  10.082   4.876  0.0820 -0.1270 -0.6520
   12MOL0     C 1533   2.637   9.850   5.122 -0.0603  0.0373 -0.8255
   12MOL0     C 1534   2.589   9.724   5.153 -0.8359 -0.0053  0.1088
   12MOL0     N 1535   1.989   9.330   5.181  0.2649  0.5133  0.0771
   12MOL0     N 1536   1.908   9.241   5.233 -0.1446  0.0354 -0.0304
   12MOL0     C 1537   1.594   8.613   4.259  0.0354 -0.8835 -0.3576
   12MOL0     C 1538   1.638   8.499   4.198 -0.0266 -0.1453  1.4971
   12MOL0     C 1539   1.537   8.096   3.971  0.5223 -0.4963  0.4290
   12MOL0     C 1540   1.671   8.049   3.954  0.7998  0.6401 -0.7144
   12MOL0     C 1541   1.689   7.923   3.890 -0.0340 -0.4684  0.3625
   12MOL0     C 1542   1.585   7.852   3.833 -0.0453 -0.2104  0.0242
   12MOL0     O 1543   1.622   7.736   3.769  0.6423  0.2626 -0.1995
   12MOL0     C 1544   1.515   7.645   3.735  0.6484  0.4326 -0.9279
   12MOL0     C 1545   1.492   7.533   3.834  0.8717  0.4587  0.0194
   12MOL0     C 1546   1.622   7.445   3.864  0.5270 -0.5498 -0.4051
   12MOL0     C 1547   1.661   7.351   3.751  0.7559  0.1821 -0.1489
   12MOL0     C 1548   1.557   7.247   3.731  0.5197  0.2033  0.7932
   12MOL0     C 1549   1.471   7.161   3.732 -0.1851  0.6158 -0.0844
   12MOL0     C 1550   1.455   7.901   3.855 -0.4889  0.1594 -0.7733
   12MOL0     C 1551   1.427   8.013   3.926  0.6025 -0.0149 -1.2257
   12MOL0     C 1552   1.280   8.040   3.960 -0.2650  0.5393  0.0691
   12MOL0     H 1553   1.390   8.302   4.279  1.6945  0.0601  2.2251
   12MOL0     H 1554   1.284   8.534   4.356  0.0650 -4.3226 -0.4355
   12MOL0     H 1555   1.537   8.876   4.262 -1.0183  0.9175 -0.2546
   12MOL0     H 1556   1.422   8.950   4.359 -0.7387 -0.5766  2.1748
   12MOL0     H 1557   1.650   8.990   4.427 -0.6091  0.3118 -0.3581
   12MOL0     H 1558   1.674   8.821   4.466  0.2680  1.3916 -1.5263
   12MOL0     H 1559   1.500   8.815   4.655 -1.6413  0.6636  0.6046
   12MOL0     H 1560   1.454   8.975   4.617 -1.3090 -0.9393  0.4129
   12MOL0     H 1561   1.741   8.893   4.688 -0.6888 -0.4398 -1.6598
   12MOL0     H 1562   1.691   9.057   4.651  2.4555 -1.6899 -2.5403
   12MOL0     H 1563   1.537   9.043   4.861 -0.2317 -0.1025 -2.1121
   12MOL0     H 1564   1.586   8.869   4.881 -1.7789  0.4680  0.6073
   12MOL0     H 1565   1.811   8.923   4.920  0.9773  0.8941 -3.5283
   12MOL0     H 1566   1.787   9.088   4.869 -3.9317 -0.1807 -2.3928
   12MOL0     H 1567   1.630   8.965   5.108 -1.0533 -0.1839 -2.5874
   12MOL0     H 1568   1.664   9.130   5.085 -0.2888 -0.2805  1.3254
   12MOL0     H 1569   1.810   9.017   5.262  1.4735 -1.3131 -0.0164
   12MOL0     H 1570   1.891   8.929   5.136 -1.1034  0.5082 -1.0202
   12MOL0     H 1571   2.035   9.111   4.948 -3.4161  1.4074 -2.5508
   12MOL0     H 1572   2.146   9.329   4.884 -1.0043  2.4217 -0.5473
   12MOL0     H 1573   2.162   9.461   4.994  2.8669  0.4618 -1.8903
   12MOL0     H 1574   2.300   9.190   5.014  0.6173  0.2873 -0.8263
   12MOL0     H 1575   2.379   9.335   4.950 -0.8555 -0.6581 -2.0604
   12MOL0     H 1576   2.417   9.292   5.218  1.7651  2.0835  0.0422
   12MOL0     H 1577   2.259   9.358   5.221 -0.3672  1.7930 -0.7025
   12MOL0     H 1578   2.426   9.540   5.259 -1.0147 -0.3195  1.2154
   12MOL0     H 1579   2.350   9.568   5.106 -0.2713 -0.1961  1.9832
   12MOL0     H 1580   2.647   9.594   4.838  0.8291  1.6192 -2.2156
   12MOL0     H 1581   2.692   9.830   4.793 -0.3187 -1.1029 -1.8493
   12MOL0     H 1582   2.946  10.179   4.985 -0.6261 -2.7593  1.6121
   12MOL0     H 1583   3.059  10.404   5.027 -0.4150  0.0493  0.3817
   12MOL0     H 1584   3.047  10.647   5.027 -0.4114 -1.6615  0.3950
   12MOL0     H 1585   3.060  10.759   5.153 -2.3349  0.2729 -0.8661
   12MOL0     H 1586   3.243  10.524   5.149  0.1407 -0.5130  4.0172
   12MOL0     H 1587   3.279  10.677   5.058  0.5662 -0.3855 -0.2358
   12MOL0     H 1588   3.207  10.673   5.357 -0.4492  2.7442  1.2062
   12MOL0     H 1589   3.376  10.639   5.308  2.6069  3.1040 -5.0309
   12MOL0     H 1590   3.261  10.890   5.202 -1.9878  0.0150  1.3918
   12MOL0     H 1591   3.414  10.876   5.258  0.1516  0.8298  0.5628
   12MOL0     H 1592   3.335  10.840   5.491  1.1704 -0.3653 -0.4983
   12MOL0     H 1593   3.174  10.890   5.440 -1.1140  2.0409 -0.1512
   12MOL0     H 1594   3.427  11.064   5.414 -0.4554  1.3378 -2.3844
   12MOL0     H 1595   3.263  11.098   5.349  0.3809 -0.5279 -0.6556
   12MOL0     H 1596   3.368  11.037   5.645 -1.4721  1.7408  1.8672
   12MOL0     H 1597   3.200  11.028   5.620 -0.9903  0.7508 -0.2080
   12MOL0     H 1598   3.244  11.234   5.707 -1.1776  0.3373 -0.7547
   12MOL0     H 1599   3.378  11.260   5.595 -1.0674  3.4084 -1.6338
   12MOL0     H 1600   2.757  10.488   5.312  3.2234 -0.6799  2.7932
   12MOL0     H 1601   2.640  10.301   5.245 -2.0215  2.1365 -2.4348
   12MOL0     H 1602   2.624   9.909   5.213 -0.9348 -0.4491 -0.6198
   12MOL0     H 1603   2.557   9.694   5.253  0.9362 -1.7864  0.1950
   12MOL0     H 1604   1.661   8.698   4.264 -0.2924 -0.4120 -2.7403
   12MOL0     H 1605   1.738   8.486   4.158  0.5073  4.9024  0.5828
   12MOL0     H 1606   1.752   8.103   4.002  0.8718 -0.4571  0.4604
   12MOL0     H 1607   1.792   7.893   3.871 -0.3327 -1.6290  0.4713
   12MOL0     H 1608   1.553   7.593   3.647  2.2014 -2.4093  1.2195
   12MOL0     H 1609   1.424   7.698   3.708 -1.7090 -2.2156  1.1918
   12MOL0     H 1610   1.417   7.464   3.794  0.3184  0.2317  1.3949
   12MOL0     H 1611   1.458   7.579   3.927  2.0389  2.2239 -0.3936
   12MOL0     H 1612   1.614   7.390   3.958 -0.3036 -0.7643 -0.5934
   12MOL0     H 1613   1.715   7.500   3.882  0.9032 -0.9205 -1.1585
   12MOL0     H 1614   1.675   7.395   3.652 -1.2375  0.1198 -0.4993
   12MOL0     H 1615   1.754   7.312   3.793  1.3449  1.4141 -0.2386
   12MOL0     H 1616   1.412   7.074   3.711 -0.0459  0.1494  1.3406
   12MOL0     H 1617   1.365   7.855   3.816 -2.5594  0.2806  3.3463
   12MOL0     H 1618   1.241   7.957   4.020 -2.2902  1.7683  0.5786
   12MOL0     H 1619   1.255   8.123   4.028  0.9417 -2.4618  4.6886
   12MOL0     H 1620   1.232   8.057   3.863  1.4013  0.8932 -0.7180
   13MOL0     O 1621   6.325   0.120   4.167 -0.0511  0.4397 -0.2646
   13MOL0     C 1622   6.254   0.150   4.075  0.0383 -0.6555 -1.1403
   13MOL0     O 1623   6.118   0.146   4.089  0.8622  0.5844  0.3808
   13MOL0     C 1624   6.061   0.074   4.189  0.6792 -0.3580 -0.8162
   13MOL0     C 1625   5.999  -0.049   4.165  0.3351 -0.9714 -0.2230
   13MOL0     C 1626   5.936  -0.112   4.277 -0.4708 -0.4097  1.2138
   13MOL0     C 1627   5.957  -0.071   4.407 -0.4737 -0.5194  0.3933
   13MOL0     O 1628   5.925  -0.140   4.517  0.3933  0.1456 -0.2312
   13MOL0     C 1629   5.843  -0.262   4.504  1.0895 -0.3670  0.1859
   13MOL0     C 1630   5.802  -0.326   4.637 -0.2519 -0.8078  0.0330
   13MOL0     C 1631   5.703  -0.447   4.631 -0.0641 -0.2053 -0.7772
   13MOL0     C 1632   5.608  -0.440   4.509  0.2469 -0.2383  0.8913
   13MOL0     C 1633   5.523  -0.563   4.506 -0.0778  0.4020  0.0368
   13MOL0     C 1634   5.469  -0.590   4.359 -0.0671  0.7025 -0.0004
   13MOL0     C 1635   5.352  -0.504   4.329 -0.9049  0.1591  0.7795
   13MOL0     C 1636   5.312  -0.530   4.183 -0.2091  0.0912 -0.2731
   13MOL0     N 1637   5.381  -0.454   4.078 -0.6494 -0.0571 -0.0305
   13MOL0     C 1638   5.512  -0.467   4.035 -0.6613 -0.5964 -0.0831
   13MOL0     C 1639   5.528  -0.370   3.940  0.0946 -0.5218  0.5143
   13MOL0     C 1640   5.647  -0.357   3.850 -0.6427 -0.2371 -0.3336
   13MOL0     C 1641   5.778  -0.327   3.919 -0.7019  0.2124 -0.8976
   13MOL0     C 1642   5.859  -0.444   3.978  0.0052 -0.8406  0.1490
   13MOL0     C 1643   6.004  -0.410   4.033 -0.1787 -0.6300  0.2861
   13MOL0     O 1644   6.083  -0.342   3.931 -0.1681 -0.0423 -0.3281
   13MOL0     C 1645   6.212  -0.349   3.946 -0.7614 -0.1482  0.6259
   13MOL0     C 1646   6.289  -0.254   4.020 -0.2589 -0.4537  0.5154
   13MOL0     C 1647   6.432  -0.258   4.035 -0.1039 -0.2780  1.0850
   13MOL0     C 1648   6.505  -0.365   3.974 -0.2564 -0.3217  0.7765
   13MOL0     C 1649   6.653  -0.389   3.999 -0.9109 -0.5957 -0.6711
   13MOL0     O 1650   6.732  -0.292   4.062  0.7073  0.3713 -0.3106
   13MOL0     C 1651   6.867  -0.315   4.082  0.8606  0.5156 -0.4689
   13MOL0     C 1652   6.965  -0.327   3.982  0.2840  0.4027  0.8422
   13MOL0     C 1653   7.100  -0.377   4.011 -0.2121  0.4192  0.3908
   13MOL0     C 1654   7.130  -0.415   4.145 -0.1025 -0.1579  0.3078
   13MOL0     O 1655   7.252  -0.455   4.182  0.1358  0.0295 -0.1232
   13MOL0     C 1656   7.346  -0.489   4.075  0.1511  0.0076 -0.0696
   13MOL0     C 1657   7.458  -0.559   4.156 -0.6769 -0.3803  0.6125
   13MOL0     C 1658   7.578  -0.607   4.060 -1.0258 -0.1064 -1.0026
   13MOL0     C 1659   7.535  -0.667   3.924 -0.5145  0.2725  0.7206
   13MOL0     C 1660   7.655  -0.707   3.838  0.7430  0.1827 -0.0513
   13MOL0     C 1661   7.637  -0.730   3.691 -0.0129 -0.3651 -0.6335
   13MOL0     C 1662   7.537  -0.839   3.659 -0.7926 -0.5667  0.0756
   13MOL0     C 1663   7.498  -0.845   3.508  0.7552  0.3837  0.1272
   13MOL0    Cl 1664   7.419  -0.998   3.463 -0.1954  0.3543 -0.1992
   13MOL0     C 1665   7.039  -0.392   4.245  0.4067  0.0529  1.2331
   13MOL0     C 1666   6.912  -0.345   4.208  0.6125 -0.4194 -0.0128
   13MOL0     O 1667   6.694  -0.501   3.962 -0.0512 -0.4096 -0.0973
   13MOL0     C 1668   6.425  -0.464   3.916 -0.0555 -0.1857 -0.2114
   13MOL0     C 1669   6.286  -0.463   3.898  0.3214 -0.0374 -0.1164
   13MOL0     N 1670   5.412  -0.296   3.928  0.2957  0.3846  0.4149
   13MOL0     N 1671   5.327  -0.350   4.009  0.1427  0.6157 -0.2155
   13MOL0     C 1672   6.020   0.049   4.427  0.3213 -0.5606 -0.1001
   13MOL0     C 1673   6.055   0.122   4.320 -0.5534 -0.1106  1.2044
   13MOL0     C 1674   6.308   0.230   3.966 -0.1918 -0.4394 -0.4252
   13MOL0     C 1675   6.457   0.233   3.961  0.7079 -0.1370 -0.2492
   13MOL0     C 1676   6.520   0.291   3.850  0.2444  0.5082 -0.3798
   13MOL0     C 1677   6.439   0.357   3.757 -0.8727  0.0842  1.0198
   13MOL0     O 1678   6.495   0.422   3.646  0.7425  0.4807 -0.1269
   13MOL0     C 1679   6.573   0.324   3.573  0.8216  0.1897 -0.2467
   13MOL0     C 1680   6.723   0.337   3.579 -0.6284  1.2665 -0.3975
   13MOL0     C 1681   6.770   0.470   3.520 -0.5919 -0.0350 -0.2258
   13MOL0     C 1682   6.928   0.485   3.553  0.3130 -0.4247  0.7819
   13MOL0     C 1683   7.022   0.388   3.494 -0.1617 -0.0071 -0.0128
   13MOL0     C 1684   7.103   0.311   3.444  0.6248 -1.2862  0.1892
   13MOL0     C 1685   6.303   0.354   3.766 -0.5038 -0.7963  1.1586
   13MOL0     C 1686   6.234   0.295   3.867 -0.3285 -0.2773 -1.4839
   13MOL0     C 1687   6.083   0.303   3.854 -0.3741  0.1797  0.2133
   13MOL0     H 1688   6.006  -0.090   4.065  2.7596  1.1113 -1.0156
   13MOL0     H 1689   5.890  -0.208   4.257  0.5757 -0.3619 -2.0597
   13MOL0     H 1690   5.748  -0.235   4.457  0.4793 -2.2350  0.2689
   13MOL0     H 1691   5.900  -0.340   4.452  0.0233 -2.0601  1.4409
   13MOL0     H 1692   5.781  -0.257   4.718  5.5577 -0.9357  2.1234
   13MOL0     H 1693   5.898  -0.364   4.673 -0.5502  1.9342  4.3415
   13MOL0     H 1694   5.645  -0.457   4.723 -0.4724  0.5447 -0.9449
   13MOL0     H 1695   5.769  -0.532   4.612  0.8416 -0.2406  2.0963
   13MOL0     H 1696   5.538  -0.356   4.509  0.3791 -0.0758 -0.8571
   13MOL0     H 1697   5.668  -0.433   4.417 -1.1430 -2.5558 -0.3005
   13MOL0     H 1698   5.582  -0.648   4.540  0.0115  1.4218  2.7198
   13MOL0     H 1699   5.444  -0.561   4.581 -2.2083 -2.5250 -1.9475
   13MOL0     H 1700   5.552  -0.580   4.289  0.3862 -0.8792  0.2709
   13MOL0     H 1701   5.432  -0.693   4.355 -0.9211  1.0333 -1.2802
   13MOL0     H 1702   5.383  -0.400   4.339 -1.3477  0.0867  3.9768
   13MOL0     H 1703   5.263  -0.505   4.393 -0.1835  2.1890  1.9009
   13MOL0     H 1704   5.322  -0.634   4.153  2.6125 -0.7082  2.7888
   13MOL0     H 1705   5.210  -0.491   4.176 -0.2618  0.5785  2.0769
   13MOL0     H 1706   5.577  -0.547   4.070  0.8330  0.9640  0.8375
   13MOL0     H 1707   5.656  -0.454   3.799  2.9074 -0.2671  0.0851
   13MOL0     H 1708   5.624  -0.277   3.778 -1.6653 -0.8705 -0.7250
   13MOL0     H 1709   5.845  -0.274   3.851  3.5499  2.1681  4.1323
   13MOL0     H 1710   5.761  -0.261   4.004 -2.0719  3.1298 -3.2417
   13MOL0     H 1711   5.867  -0.520   3.900  1.8239 -0.1457 -0.3826
   13MOL0     H 1712   5.805  -0.484   4.065 -2.0904 -3.3170 -2.0869
   13MOL0     H 1713   6.045  -0.501   4.079 -1.6887 -0.8246  1.3132
   13MOL0     H 1714   5.983  -0.346   4.119 -3.6491  0.0445 -0.9111
   13MOL0     H 1715   6.228  -0.173   4.059  2.0127  1.4908  0.2974
   13MOL0     H 1716   6.495  -0.192   4.093  2.7141 -1.8138 -0.0501
   13MOL0     H 1717   6.936  -0.308   3.880  0.9909  3.7471  1.1551
   13MOL0     H 1718   7.161  -0.379   3.921 -1.6831  4.4353 -0.8767
   13MOL0     H 1719   7.303  -0.557   4.001  2.6248 -1.9604  0.1764
   13MOL0     H 1720   7.396  -0.400   4.034  2.3459 -0.7159  0.8595
   13MOL0     H 1721   7.495  -0.486   4.229 -1.2300  0.7311 -0.1945
   13MOL0     H 1722   7.410  -0.642   4.209 -4.0878  2.6904  2.8491
   13MOL0     H 1723   7.655  -0.529   4.059  0.2520 -1.2000  1.5111
   13MOL0     H 1724   7.624  -0.691   4.114  0.6621  0.9756 -0.6864
   13MOL0     H 1725   7.490  -0.586   3.865  1.9222 -0.2438 -2.0856
   13MOL0     H 1726   7.464  -0.749   3.939 -1.9356  1.4519  0.7572
   13MOL0     H 1727   7.685  -0.809   3.864 -2.0126 -0.5088  0.7411
   13MOL0     H 1728   7.727  -0.625   3.840 -0.8720  1.8119 -2.8047
   13MOL0     H 1729   7.600  -0.635   3.651 -4.2985 -1.2999  0.5730
   13MOL0     H 1730   7.733  -0.752   3.642 -0.3910 -0.9446 -1.1262
   13MOL0     H 1731   7.444  -0.825   3.715 -0.5244 -0.7898  0.5873
   13MOL0     H 1732   7.574  -0.941   3.675 -4.8963 -1.8808  3.1155
   13MOL0     H 1733   7.438  -0.766   3.462 -1.1098 -0.8645  0.3285
   13MOL0     H 1734   7.596  -0.841   3.458  2.0890  0.1875  2.5667
   13MOL0     H 1735   7.076  -0.419   4.344  1.7864  0.3912  0.8282
   13MOL0     H 1736   6.850  -0.328   4.296  1.1287  1.8085 -0.0136
   13MOL0     H 1737   6.477  -0.542   3.861 -0.1891  0.2239 -0.9282
   13MOL0     H 1738   6.241  -0.536   3.832 -1.3242  1.9696 -1.3611
   13MOL0     H 1739   6.041   0.088   4.526  2.1049 -1.9366  0.1100
   13MOL0     H 1740   6.078   0.227   4.333 -2.0620  0.2829  0.9288
   13MOL0     H 1741   6.518   0.187   4.038 -0.8104 -2.6787 -0.4509
   13MOL0     H 1742   6.628   0.294   3.846  0.2113  1.9370 -0.6230
   13MOL0     H 1743   6.543   0.328   3.468 -1.3848  2.9908  0.3433
   13MOL0     H 1744   6.547   0.223   3.605  1.0633  1.0450  3.0146
   13MOL0     H 1745   6.772   0.251   3.532 -1.8686  0.0454  0.4618
   13MOL0     H 1746   6.755   0.327   3.683  0.9554  1.0986 -0.8779
   13MOL0     H 1747   6.720   0.543   3.583 -2.9111 -3.7155  2.6036
   13MOL0     H 1748   6.747   0.476   3.413  1.9970 -1.2055 -0.9521
   13MOL0     H 1749   6.970   0.583   3.528  1.6058 -0.6082  2.1461
   13MOL0     H 1750   6.947   0.480   3.660 -0.3577  0.4453  0.9611
   13MOL0     H 1751   7.187   0.261   3.399  3.1051  3.4910 -1.2699
   13MOL0     H 1752   6.250   0.407   3.688 -1.2798  1.3105  3.0208
   13MOL0     H 1753   6.044   0.201   3.855 -1.3984  0.5607  0.9805
   13MOL0     H 1754   6.038   0.373   3.925 -0.2473  2.6312 -1.9987
   13MOL0     H 1755   6.056   0.346   3.758 -0.9914 -0.0845  0.2627
   14MOL0     O 1756   2.541   4.736   3.059  0.6478  0.2290  0.1447
   14MOL0     C 1757   2.455   4.816   3.015 -0.2169  0.5180  0.1774
   14MOL0     O 1758   2.486   4.935   2.950  0.1303 -0.4134 -0.1745
   14MOL0     C 1759   2.615   4.952   2.899  0.4311  0.0064  0.3934
   14MOL0     C 1760   2.648   4.918   2.770 -0.6214  0.1635  0.0045
   14MOL0     C 1761   2.781   4.934   2.724 -0.8497  0.1679 -0.2938
   14MOL0     C 1762   2.880   5.003   2.791  1.2086 -0.3004 -1.1110
   14MOL0     O 1763   2.996   5.040   2.729  0.3062  0.6507  0.2661
   14MOL0     C 1764   3.076   5.146   2.784 -0.0988 -0.6013 -0.2125
   14MOL0     C 1765   3.207   5.159   2.712 -1.1005 -0.0965  0.4156
   14MOL0     C 1766   3.298   5.046   2.753 -0.3671  0.3224  0.5692
   14MOL0     C 1767   3.426   5.054   2.671  1.2820  0.5985 -0.0268
   14MOL0     C 1768   3.528   4.945   2.711 -0.4282  0.4577  0.5968
   14MOL0     C 1769   3.636   4.925   2.603 -1.0117 -0.0441  0.0337
   14MOL0     C 1770   3.755   4.838   2.654  0.6396  0.7258 -0.0460
   14MOL0     C 1771   3.861   4.807   2.545 -1.3784 -0.1609  0.3340
   14MOL0     N 1772   3.931   4.928   2.497  0.3965  0.2737 -0.0695
   14MOL0     C 1773   4.008   5.023   2.570 -0.6501 -0.1842 -0.1315
   14MOL0     C 1774   4.054   5.115   2.486  0.9913  0.3909  0.2735
   14MOL0     C 1775   4.127   5.239   2.519 -0.3919 -0.3439  0.3397
   14MOL0     C 1776   4.273   5.231   2.477 -0.0586  0.3781 -0.2635
   14MOL0     C 1777   4.332   5.372   2.503 -0.0645  0.0683 -0.2555
   14MOL0     C 1778   4.479   5.388   2.496 -0.5969 -0.4366  0.6822
   14MOL0     O 1779   4.530   5.314   2.379  0.2751  0.0629  0.3836
   14MOL0     C 1780   4.647   5.350   2.321  0.0655  0.1710 -0.0683
   14MOL0     C 1781   4.664   5.359   2.186  0.5199 -0.3885  0.4182
   14MOL0     C 1782   4.786   5.398   2.134  0.6253  0.1572 -0.8228
   14MOL0     C 1783   4.901   5.427   2.210  0.4368 -0.1360 -0.0228
   14MOL0     C 1784   5.020   5.461   2.143 -0.0112 -0.0311 -0.4817
   14MOL0     O 1785   5.120   5.513   2.219 -0.2639  0.3603  0.1643
   14MOL0     C 1786   5.239   5.563   2.166  0.1817 -0.3384 -0.1497
   14MOL0     C 1787   5.343   5.584   2.258 -0.1389 -0.6968 -0.8078
   14MOL0     C 1788   5.469   5.638   2.224 -0.9046  0.0223 -0.0899
   14MOL0     C 1789   5.492   5.673   2.092  0.3794 -0.4840  1.4796
   14MOL0     O 1790   5.620   5.697   2.050  0.1394  0.4832 -0.1997
   14MOL0     C 1791   5.696   5.793   2.125  0.3192 -0.5179 -0.7858
   14MOL0     C 1792   5.704   5.932   2.060  0.0592  0.3872 -0.0847
   14MOL0     C 1793   5.777   6.037   2.144 -0.4058 -0.1786 -0.4795
   14MOL0     C 1794   5.750   6.171   2.084  0.5240  0.6892 -0.0091
   14MOL0     C 1795   5.781   6.275   2.187 -0.4285 -0.6777  0.6712
   14MOL0     C 1796   5.824   6.406   2.114 -0.4465  0.1839  0.3473
   14MOL0     C 1797   5.723   6.483   2.040  0.2204 -0.1358 -0.4616
   14MOL0     C 1798   5.774   6.618   1.991 -0.1823  0.1832 -0.1771
   14MOL0    Cl 1799   5.885   6.588   1.862  0.1870  0.0409 -0.2608
   14MOL0     C 1800   5.396   5.655   1.996 -0.1494 -0.5953 -0.7536
   14MOL0     C 1801   5.271   5.594   2.030 -0.6419  0.2439 -0.5219
   14MOL0     O 1802   5.037   5.410   2.032  0.6571 -1.2054  1.0017
   14MOL0     C 1803   4.884   5.419   2.349  0.4065 -0.3058 -0.3202
   14MOL0     C 1804   4.765   5.374   2.397 -0.0123 -0.4356 -0.2211
   14MOL0     N 1805   3.991   5.080   2.361 -0.5571  0.2347  0.0035
   14MOL0     N 1806   3.924   4.962   2.369 -0.5173 -0.2231  0.2458
   14MOL0     C 1807   2.838   5.052   2.917  0.2911 -0.5961 -0.3780
   14MOL0     C 1808   2.714   5.019   2.973 -0.2588  0.6247  0.0613
   14MOL0     C 1809   2.313   4.780   3.038  0.3229 -1.1938 -0.2982
   14MOL0     C 1810   2.216   4.872   3.004  0.6614 -1.2283  0.6367
   14MOL0     C 1811   2.086   4.853   3.027 -0.7347 -0.6446  0.7555
   14MOL0     C 1812   2.043   4.739   3.076 -0.0309 -0.5570 -0.0259
   14MOL0     O 1813   1.913   4.735   3.111 -0.2318  0.5732  0.6908
   14MOL0     C 1814   1.844   4.617   3.157 -0.1269 -0.1890 -0.3742
   14MOL0     C 1815   1.692   4.619   3.122 -0.2025  0.0330  0.3090
   14MOL0     C 1816   1.604   4.692   3.232 -0.7829  0.9952  0.3528
   14MOL0     C 1817   1.460   4.650   3.206  0.2106 -0.3082  0.0317
   14MOL0     C 1818   1.395   4.725   3.318  0.2414  0.7380  0.1107
   14MOL0     C 1819   1.333   4.805   3.385  0.0239 -0.2064  0.3999
   14MOL0     C 1820   2.129   4.635   3.089  0.1750  0.9710 -0.0111
   14MOL0     C 1821   2.271   4.657   3.085 -0.0101  0.6266  1.0558
   14MOL0     C 1822   2.350   4.546   3.142  1.2234 -0.3538 -0.2700
   14MOL0     H 1823   2.572   4.880   2.703  0.7992  0.9014 -2.1239
   14MOL0     H 1824   2.811   4.892   2.628 -0.4687 -0.1431 -0.0438
   14MOL0     H 1825   3.017   5.237   2.769  1.6183  0.7255  0.8066
   14MOL0     H 1826   3.089   5.131   2.891  1.0308  1.9572  0.0855
   14MOL0     H 1827   3.259   5.251   2.742 -0.0452 -0.8080  0.7958
   14MOL0     H 1828   3.198   5.161   2.603  0.1451  2.9573  0.2649
   14MOL0     H 1829   3.239   4.955   2.738  3.0214 -1.9209 -0.3330
   14MOL0     H 1830   3.318   5.063   2.859  0.1186 -1.0887  0.7271
   14MOL0     H 1831   3.387   5.035   2.570  0.9905 -3.3187  0.6611
   14MOL0     H 1832   3.469   5.154   2.685  0.2958  1.0574 -0.1992
   14MOL0     H 1833   3.571   4.975   2.806  3.0291 -0.9181 -0.3872
   14MOL0     H 1834   3.467   4.855   2.717 -1.5862  1.2239  0.7842
   14MOL0     H 1835   3.597   4.889   2.508  0.5500  0.7019 -0.9225
   14MOL0     H 1836   3.675   5.024   2.579 -3.1762  1.0219  0.7049
   14MOL0     H 1837   3.718   4.740   2.684 -0.6007  0.9021 -0.9545
   14MOL0     H 1838   3.804   4.885   2.741  0.5291  0.8675 -0.0596
   14MOL0     H 1839   3.942   4.744   2.581 -0.0972  0.7643 -0.8193
   14MOL0     H 1840   3.818   4.760   2.456  0.5507  1.9637 -1.8876
   14MOL0     H 1841   4.034   5.031   2.675  1.6795  0.6209 -0.7048
   14MOL0     H 1842   4.090   5.327   2.465  2.6169  0.8738  0.0429
   14MOL0     H 1843   4.126   5.276   2.622  2.6157 -0.0038  0.3629
   14MOL0     H 1844   4.314   5.146   2.533 -0.9959 -0.8285 -1.3502
   14MOL0     H 1845   4.290   5.212   2.371 -1.8910  1.4813 -0.8081
   14MOL0     H 1846   4.303   5.421   2.596  3.6970  4.3687 -0.9858
   14MOL0     H 1847   4.285   5.437   2.429  1.1726  2.1324  0.6862
   14MOL0     H 1848   4.524   5.359   2.591  1.0615  0.2008  0.1355
   14MOL0     H 1849   4.517   5.491   2.489  0.3528 -0.8824 -2.3129
   14MOL0     H 1850   4.581   5.344   2.117  2.4417 -1.3886 -1.8296
   14MOL0     H 1851   4.789   5.400   2.025 -0.9170  2.5926 -0.8754
   14MOL0     H 1852   5.332   5.567   2.365 -0.8703  2.3978 -0.3019
   14MOL0     H 1853   5.546   5.648   2.299 -0.8219  1.3790 -0.3350
   14MOL0     H 1854   5.657   5.807   2.226  2.1756 -0.2618 -0.0460
   14MOL0     H 1855   5.794   5.755   2.158 -0.1539 -3.6540 -2.5871
   14MOL0     H 1856   5.756   5.923   1.965  1.3775 -0.2831  0.6751
   14MOL0     H 1857   5.600   5.959   2.041  0.0687 -0.5033 -1.5409
   14MOL0     H 1858   5.729   6.032   2.242 -0.1898  1.0283 -0.2957
   14MOL0     H 1859   5.886   6.031   2.151 -0.4774 -1.0963 -0.0024
   14MOL0     H 1860   5.643   6.172   2.062 -0.8313 -2.6443  4.8760
   14MOL0     H 1861   5.818   6.187   1.999  2.8296 -1.7775  1.2242
   14MOL0     H 1862   5.872   6.249   2.241 -0.0811 -2.3168 -0.6276
   14MOL0     H 1863   5.700   6.301   2.257 -1.2892 -3.3377  0.7523
   14MOL0     H 1864   5.878   6.472   2.183  0.6096 -0.3281  0.0290
   14MOL0     H 1865   5.908   6.386   2.046 -1.2710 -2.3774 -0.0108
   14MOL0     H 1866   5.646   6.511   2.112  0.1593 -1.0731 -0.1413
   14MOL0     H 1867   5.681   6.425   1.957  0.4990  0.4467 -1.0216
   14MOL0     H 1868   5.687   6.677   1.961 -1.2885 -2.0822 -1.7111
   14MOL0     H 1869   5.827   6.674   2.069 -3.7470  0.8355  2.0233
   14MOL0     H 1870   5.407   5.671   1.889 -1.2691 -1.6563 -1.0503
   14MOL0     H 1871   5.189   5.583   1.960 -2.0781 -0.4738  1.2014
   14MOL0     H 1872   4.972   5.440   2.410 -0.3992  3.2683 -0.1566
   14MOL0     H 1873   4.761   5.351   2.503  0.1272 -0.5689 -0.2448
   14MOL0     H 1874   2.896   5.111   2.988 -0.0707 -0.3643 -0.2727
   14MOL0     H 1875   2.703   5.065   3.070  1.7745  2.9674 -0.7110
   14MOL0     H 1876   2.245   4.965   2.955 -4.1071  0.3382  0.3324
   14MOL0     H 1877   2.010   4.923   2.995 -2.2035 -2.6626 -0.3984
   14MOL0     H 1878   1.842   4.626   3.266 -0.7449  0.1243 -0.4075
   14MOL0     H 1879   1.884   4.519   3.130  0.3796 -0.8599  2.5230
   14MOL0     H 1880   1.664   4.514   3.105  1.6502 -0.4683  0.1076
   14MOL0     H 1881   1.677   4.675   3.030  0.0882 -1.0961 -0.4529
   14MOL0     H 1882   1.609   4.798   3.209 -3.8755  0.7501 -2.1148
   14MOL0     H 1883   1.637   4.678   3.336  2.2568  1.5345 -0.4403
   14MOL0     H 1884   1.413   4.664   3.109  0.1560  0.2277  0.1286
   14MOL0     H 1885   1.448   4.545   3.234 -0.4518 -1.0154 -2.6538
   14MOL0     H 1886   1.299   4.870   3.463  1.6011  0.5480  0.5001
   14MOL0     H 1887   2.095   4.548   3.145  1.3150  3.3834  5.0322
   14MOL0     H 1888   2.433   4.525   3.074  0.5897 -3.0980 -0.3142
   14MOL0     H 1889   2.400   4.590   3.229  0.6370 -0.7071  0.2502
   14MOL0     H 1890   2.290   4.459   3.169  1.8993 -1.2498 -1.5222
   15MOL0     O 1891   4.920   4.144   8.603  0.0606 -0.4074  0.0399
   15MOL0     C 1892   4.842   4.104   8.521 -0.4120 -0.3599  0.4546
   15MOL0     O 1893   4.828   4.158   8.398 -0.4309 -0.6568 -0.2051
   15MOL0     C 1894   4.922   4.242   8.328  0.1692 -1.2713 -0.3070
   15MOL0     C 1895   5.060   4.268   8.372 -0.0146  0.3675  0.1526
   15MOL0     C 1896   5.131   4.348   8.294 -0.2278  0.5473  0.2045
   15MOL0     C 1897   5.082   4.415   8.179 -0.3751  0.5029  0.5465
   15MOL0     O 1898   5.178   4.485   8.107 -0.1547 -0.1492 -0.2072
   15MOL0     C 1899   5.146   4.562   7.995  0.5278 -0.6888  0.0215
   15MOL0     C 1900   5.145   4.482   7.869 -0.5933  0.3046 -0.2024
   15MOL0     C 1901   5.119   4.571   7.742  0.5970  0.9939 -0.1304
   15MOL0     C 1902   5.241   4.659   7.696 -0.2085 -0.3795 -0.0672
   15MOL0     C 1903   5.182   4.756   7.595 -0.0410  0.0184 -0.5229
   15MOL0     C 1904   5.287   4.864   7.552  0.5661  0.4472 -0.3680
   15MOL0     C 1905   5.235   4.966   7.448  0.0874 -0.2386 -0.3102
   15MOL0     C 1906   5.199   5.112   7.502 -0.0257 -0.1910 -0.4240
   15MOL0     N 1907   5.165   5.199   7.390  0.4455 -0.3716  0.2993
   15MOL0     C 1908   5.094   5.314   7.400  0.5631 -0.1141  0.5223
   15MOL0     C 1909   5.117   5.377   7.278 -0.0939  1.1703  0.5176
   15MOL0     C 1910   5.058   5.506   7.221 -0.2099  0.6818  0.2410
   15MOL0     C 1911   5.124   5.629   7.287  0.0322 -0.1304  0.1456
   15MOL0     C 1912   5.048   5.744   7.231  0.7674 -0.0259  0.8797
   15MOL0     C 1913   5.078   5.873   7.303  0.0226 -0.2135  0.0751
   15MOL0     O 1914   5.019   5.893   7.435  0.2794 -0.4253 -0.2413
   15MOL0     C 1915   5.054   6.004   7.512  0.2682 -0.4100  0.8267
   15MOL0     C 1916   4.998   6.019   7.633 -0.0003  0.4702 -0.0008
   15MOL0     C 1917   5.031   6.128   7.714  0.1741  0.0149 -0.3990
   15MOL0     C 1918   5.122   6.226   7.663  0.0933  0.1327 -0.6247
   15MOL0     C 1919   5.146   6.345   7.747  0.4068 -0.9161 -0.1484
   15MOL0     O 1920   5.212   6.449   7.680 -0.5931  0.1365  0.1866
   15MOL0     C 1921   5.271   6.542   7.757 -1.1371 -0.3535 -0.7500
   15MOL0     C 1922   5.243   6.677   7.736 -0.4490  0.1694 -0.2996
   15MOL0     C 1923   5.310   6.772   7.813  0.2036 -0.7820 -0.6172
   15MOL0     C 1924   5.401   6.734   7.917  0.0443 -0.9713 -0.2986
   15MOL0     O 1925   5.460   6.839   7.982  0.5406  0.3158  0.1778
   15MOL0     C 1926   5.480   6.804   8.119 -0.0883 -0.4129  1.2740
   15MOL0     C 1927   5.439   6.925   8.214 -0.2338  0.6368  0.6090
   15MOL0     C 1928   5.285   6.937   8.216 -0.8201 -0.5932 -0.3450
   15MOL0     C 1929   5.250   7.037   8.328  0.3733  0.6641  0.1622
   15MOL0     C 1930   5.294   6.999   8.469 -0.2589 -0.2098  0.8081
   15MOL0     C 1931   5.223   7.087   8.570  0.2031 -0.1497  0.3506
   15MOL0     C 1932   5.249   7.238   8.556 -0.6660  0.1070  0.1384
   15MOL0     C 1933   5.156   7.321   8.634  0.6378 -0.0835 -0.1630
   15MOL0    Cl 1934   4.986   7.308   8.589  0.1711  0.2872 -0.0059
   15MOL0     C 1935   5.434   6.600   7.924  0.4713  0.1709  0.4729
   15MOL0     C 1936   5.370   6.503   7.853 -0.1495  0.3208  0.4957
   15MOL0     O 1937   5.115   6.342   7.873  0.0716 -0.4041  0.4613
   15MOL0     C 1938   5.165   6.216   7.533 -1.0945  0.6103 -0.0449
   15MOL0     C 1939   5.125   6.105   7.455 -0.9633 -0.1390  0.1599
   15MOL0     N 1940   5.196   5.296   7.199  0.7232 -0.2999 -0.5442
   15MOL0     N 1941   5.213   5.198   7.265 -0.8131  0.5562  0.1196
   15MOL0     C 1942   4.949   4.396   8.141  0.8079  0.5313 -0.8183
   15MOL0     C 1943   4.872   4.310   8.213 -0.0171 -0.3851 -0.2027
   15MOL0     C 1944   4.753   3.995   8.549 -0.1629  0.6409  0.2135
   15MOL0     C 1945   4.626   3.988   8.492  0.5750 -0.3461  0.3047
   15MOL0     C 1946   4.532   3.889   8.539  1.0379  0.0519  0.4523
   15MOL0     C 1947   4.570   3.783   8.625  0.1992  0.3932 -0.4288
   15MOL0     O 1948   4.485   3.680   8.669  0.2043 -0.4041 -0.0715
   15MOL0     C 1949   4.346   3.686   8.637  0.2852  1.0204  0.3661
   15MOL0     C 1950   4.287   3.573   8.724 -0.8143 -0.1021 -0.1437
   15MOL0     C 1951   4.329   3.434   8.661 -0.0107 -0.4899 -0.1147
   15MOL0     C 1952   4.280   3.324   8.758  0.1492 -0.2260  0.2570
   15MOL0     C 1953   4.135   3.292   8.751 -1.0173  0.2484  0.1980
   15MOL0     C 1954   4.018   3.257   8.749  0.1848  0.3830 -0.1157
   15MOL0     C 1955   4.699   3.790   8.675  0.0626  0.9973 -0.6297
   15MOL0     C 1956   4.791   3.885   8.630 -0.3492 -0.0185  0.4767
   15MOL0     C 1957   4.930   3.849   8.680  0.0738 -0.7722  0.9266
   15MOL0     H 1958   5.108   4.213   8.453  0.4158 -1.9942 -1.6019
   15MOL0     H 1959   5.232   4.369   8.325 -0.9567  3.8922  0.7232
   15MOL0     H 1960   5.058   4.624   8.014  0.6194 -0.7645  0.7547
   15MOL0     H 1961   5.229   4.633   7.988 -1.6423  2.1616  1.1564
   15MOL0     H 1962   5.081   4.394   7.884  0.3883 -0.4456 -0.3256
   15MOL0     H 1963   5.245   4.441   7.855 -1.7255 -3.0187  0.3869
   15MOL0     H 1964   5.024   4.623   7.754  1.2668  1.7115  3.0297
   15MOL0     H 1965   5.114   4.498   7.661  0.9041 -1.0624  1.6004
   15MOL0     H 1966   5.272   4.697   7.794 -1.2751 -2.1191  1.0132
   15MOL0     H 1967   5.327   4.606   7.654 -1.2569 -0.0345 -2.8614
   15MOL0     H 1968   5.151   4.703   7.504  2.7370 -0.8078 -1.0831
   15MOL0     H 1969   5.105   4.818   7.641  0.6961  1.0188 -0.6066
   15MOL0     H 1970   5.314   4.921   7.641  2.8719 -1.2000  0.0714
   15MOL0     H 1971   5.374   4.810   7.515 -1.0511 -1.3637 -1.7176
   15MOL0     H 1972   5.150   4.921   7.396 -1.7448  0.0234  2.2931
   15MOL0     H 1973   5.317   4.988   7.379  1.4267 -1.0439  0.9739
   15MOL0     H 1974   5.112   5.100   7.567  0.7178 -0.0392  0.6348
   15MOL0     H 1975   5.282   5.155   7.560  0.2127  1.4264 -1.8855
   15MOL0     H 1976   5.048   5.371   7.481  0.9230 -2.8751  2.8507
   15MOL0     H 1977   5.064   5.501   7.112  0.3651  2.1570  0.1918
   15MOL0     H 1978   4.949   5.511   7.232 -0.4494  2.7593 -2.2255
   15MOL0     H 1979   5.113   5.641   7.395  2.0832 -0.9404  0.4938
   15MOL0     H 1980   5.229   5.636   7.256 -0.5368  2.8810 -1.4927
   15MOL0     H 1981   4.939   5.732   7.237  0.3731  2.0149 -0.9015
   15MOL0     H 1982   5.072   5.764   7.126  1.4938 -3.0122  0.3764
   15MOL0     H 1983   5.048   5.962   7.247  1.2995  1.6356  2.1592
   15MOL0     H 1984   5.187   5.876   7.310  0.1548  0.8782 -1.8942
   15MOL0     H 1985   4.940   5.934   7.669 -1.9199  1.4799 -0.5661
   15MOL0     H 1986   5.001   6.137   7.818  0.3826  0.8144 -0.4006
   15MOL0     H 1987   5.169   6.703   7.661 -1.4359  1.0132  0.9238
   15MOL0     H 1988   5.296   6.879   7.795  1.0374 -0.3246  1.2858
   15MOL0     H 1989   5.432   6.710   8.146  0.0983 -0.7008  0.6135
   15MOL0     H 1990   5.589   6.804   8.125 -0.0092  0.0893 -0.0216
   15MOL0     H 1991   5.481   6.897   8.311 -2.4797 -0.9408  1.2075
   15MOL0     H 1992   5.489   7.020   8.192 -2.0690  0.8583 -3.5490
   15MOL0     H 1993   5.249   6.975   8.119 -0.5621 -0.7632 -0.5091
   15MOL0     H 1994   5.231   6.843   8.226 -3.1521  0.7961  1.0955
   15MOL0     H 1995   5.141   7.043   8.336  0.4180  0.0420  1.5831
   15MOL0     H 1996   5.286   7.136   8.299 -0.7550  0.3804 -2.4781
   15MOL0     H 1997   5.403   7.008   8.469 -0.2480  0.3484  3.2895
   15MOL0     H 1998   5.272   6.897   8.503  0.2838 -0.2238  1.1330
   15MOL0     H 1999   5.115   7.070   8.575  0.3627 -0.8815  3.0104
   15MOL0     H 2000   5.251   7.061   8.673 -2.3008  4.5997  2.5707
   15MOL0     H 2001   5.238   7.267   8.451 -0.0513 -2.2369 -0.6271
   15MOL0     H 2002   5.351   7.267   8.583 -0.0591 -2.7550  1.2715
   15MOL0     H 2003   5.171   7.290   8.737 -0.7435  3.0710  1.1024
   15MOL0     H 2004   5.176   7.428   8.622  2.0459 -0.6284 -4.2997
   15MOL0     H 2005   5.510   6.576   7.997 -1.7687 -1.1255  2.5156
   15MOL0     H 2006   5.386   6.400   7.881 -3.3041  0.0199  1.5947
   15MOL0     H 2007   5.221   6.299   7.489  1.3188 -0.7286  0.3022
   15MOL0     H 2008   5.159   6.124   7.354 -0.9714 -0.0044  0.1830
   15MOL0     H 2009   4.920   4.440   8.046  3.6259  0.1631 -1.9467
   15MOL0     H 2010   4.774   4.281   8.177  0.0987  1.0691 -1.8509
   15MOL0     H 2011   4.587   4.059   8.419 -1.1401 -3.6409 -2.2681
   15MOL0     H 2012   4.429   3.894   8.508  0.4908 -3.8260  1.1282
   15MOL0     H 2013   4.317   3.661   8.534  0.3636 -2.7036  1.0948
   15MOL0     H 2014   4.308   3.780   8.677  0.5214  1.7818 -1.1286
   15MOL0     H 2015   4.178   3.585   8.716 -0.8634 -0.0521  0.5399
   15MOL0     H 2016   4.312   3.579   8.830 -0.1703 -0.5154 -0.2700
   15MOL0     H 2017   4.438   3.430   8.664 -0.0244 -1.1755 -0.5150
   15MOL0     H 2018   4.289   3.424   8.560  0.5683  1.8785 -0.6363
   15MOL0     H 2019   4.325   3.225   8.745 -2.5788 -1.4945 -0.2849
   15MOL0     H 2020   4.302   3.356   8.860 -2.6342 -0.5954  1.0507
   15MOL0     H 2021   3.912   3.243   8.745  0.3393 -0.6438 -3.1136
   15MOL0     H 2022   4.736   3.701   8.725  0.6260  2.5128  1.8117
   15MOL0     H 2023   4.936   3.885   8.783 -0.6886  3.6473 -0.3326
   15MOL0     H 2024   4.949   3.743   8.663  1.1467 -0.3185 -1.0061
   15MOL0     H 2025   5.002   3.908   8.622  0.5056 -1.9729  0.2276
   16MOL0     O 2026  10.636   2.692   4.662 -0.9068  0.3055  0.2736
   16MOL0     C 2027  10.643   2.809   4.622 -0.2665 -0.5903 -0.3786
   16MOL0     O 2028  10.673   2.919   4.707  0.0538 -0.3781 -0.1973
   16MOL0     C 2029  10.699   2.901   4.834  0.6964 -0.5344 -0.8459
   16MOL0     C 2030  10.634   2.972   4.937 -0.2623  0.5352 -0.0353
   16MOL0     C 2031  10.667   2.960   5.072 -0.6951  0.3779  0.2645
   16MOL0     C 2032  10.772   2.875   5.123  0.1650 -0.7047  0.6318
   16MOL0     O 2033  10.792   2.855   5.253  0.5166 -0.0475  0.8341
   16MOL0     C 2034  10.873   2.747   5.288 -0.0284 -0.0538  0.6355
   16MOL0     C 2035  11.020   2.802   5.306  1.4780 -0.4285 -0.6499
   16MOL0     C 2036  11.113   2.693   5.352 -0.3881 -0.4843 -0.3241
   16MOL0     C 2037  11.246   2.752   5.400 -0.2028 -1.2064 -0.4750
   16MOL0     C 2038  11.309   2.690   5.528  0.0156 -0.8122  0.1503
   16MOL0     C 2039  11.241   2.734   5.656 -0.6323 -0.3265  0.5107
   16MOL0     C 2040  11.307   2.661   5.773  0.3491 -0.0287  0.3840
   16MOL0     C 2041  11.295   2.509   5.761 -0.5621  0.4138  0.6745
   16MOL0     N 2042  11.159   2.436   5.739  0.1637  0.6110 -0.8135
   16MOL0     C 2043  11.112   2.394   5.615 -0.3253 -0.3916 -0.1423
   16MOL0     C 2044  10.982   2.359   5.634  0.4871  0.1782 -0.1501
   16MOL0     C 2045  10.881   2.296   5.540 -0.1098  0.2164 -0.2818
   16MOL0     C 2046  10.798   2.403   5.483 -0.4062  0.6541 -0.3201
   16MOL0     C 2047  10.664   2.337   5.424 -0.9057  1.1772 -0.6869
   16MOL0     C 2048  10.556   2.439   5.397 -0.5804  0.8725  0.2017
   16MOL0     O 2049  10.603   2.524   5.290  0.0392 -0.3482 -0.3270
   16MOL0     C 2050  10.512   2.542   5.198  0.9064 -0.5615 -0.5449
   16MOL0     C 2051  10.374   2.547   5.223  0.4075 -0.6752  0.0747
   16MOL0     C 2052  10.285   2.553   5.110  0.4903 -0.3527  0.1018
   16MOL0     C 2053  10.327   2.548   4.976 -0.4455 -0.5601 -0.6633
   16MOL0     C 2054  10.240   2.548   4.858  1.2946  0.0033 -0.9019
   16MOL0     O 2055  10.303   2.586   4.743  0.4911  0.4190 -0.2688
   16MOL0     C 2056  10.241   2.578   4.616  0.1052 -0.4737  0.5028
   16MOL0     C 2057  10.294   2.659   4.510  0.4073 -0.3577  0.3018
   16MOL0     C 2058  10.233   2.666   4.380 -0.2054  0.9090  0.4157
   16MOL0     C 2059  10.130   2.579   4.349  0.3656  0.2256  0.2374
   16MOL0     O 2060  10.090   2.552   4.213  0.5405  1.0456 -0.2008
   16MOL0     C 2061  10.137   2.612   4.098 -0.2561 -0.5513 -0.6629
   16MOL0     C 2062  10.057   2.576   3.964  0.2073 -1.0971 -0.3231
   16MOL0     C 2063  10.029   2.434   3.949 -0.5352  0.7053 -0.7515
   16MOL0     C 2064  10.162   2.367   3.915  0.4147  0.2043 -0.0658
   16MOL0     C 2065  10.140   2.218   3.887  0.1470 -0.1581  0.7893
   16MOL0     C 2066  10.267   2.177   3.802  0.3874  0.2364  0.3878
   16MOL0     C 2067  10.253   2.035   3.760 -0.2293 -0.4031  0.3148
   16MOL0     C 2068  10.389   1.978   3.706 -0.1464  1.0234 -0.2691
   16MOL0    Cl 2069  10.367   1.820   3.616  0.2070  0.4379 -0.1406
   16MOL0     C 2070  10.086   2.489   4.446  0.0088  0.7721 -0.1211
   16MOL0     C 2071  10.135   2.496   4.574  0.1650 -0.4613  0.1050
   16MOL0     O 2072  10.123   2.507   4.874 -0.6909 -0.6059 -0.6421
   16MOL0     C 2073  10.469   2.530   4.956  0.0219 -2.0868  0.0202
   16MOL0     C 2074  10.557   2.540   5.070 -0.8309 -0.8820  0.6181
   16MOL0     N 2075  10.957   2.388   5.764  0.0707 -0.0092 -0.3739
   16MOL0     N 2076  11.059   2.430   5.831  0.8105 -0.5684  0.6325
   16MOL0     C 2077  10.841   2.806   5.018 -0.3846 -0.6717 -0.2050
   16MOL0     C 2078  10.804   2.824   4.879 -1.3027 -0.3127 -0.6803
   16MOL0     C 2079  10.610   2.849   4.477  0.2359  0.0946 -0.2723
   16MOL0     C 2080  10.580   2.985   4.458 -0.3410  0.5384  0.1849
   16MOL0     C 2081  10.557   3.038   4.330  0.6631  0.5507  0.2606
   16MOL0     C 2082  10.561   2.960   4.215 -0.3634 -0.7428 -0.0626
   16MOL0     O 2083  10.528   2.989   4.084 -0.3329 -0.1353 -0.7481
   16MOL0     C 2084  10.482   3.121   4.050 -0.0073 -0.3057 -0.5500
   16MOL0     C 2085  10.327   3.118   4.059  0.4781 -0.0084  0.2198
   16MOL0     C 2086  10.267   2.999   3.971 -0.4986 -0.0133 -0.1741
   16MOL0     C 2087  10.110   3.012   3.964 -0.5307 -0.5961  0.1008
   16MOL0     C 2088  10.064   3.030   4.098  0.3491  0.2696 -0.8965
   16MOL0     C 2089  10.016   3.054   4.212 -0.6184  0.2889 -0.7322
   16MOL0     C 2090  10.578   2.817   4.237 -0.2396 -0.3844  0.0618
   16MOL0     C 2091  10.615   2.772   4.364  0.5417  0.6107 -0.2278
   16MOL0     C 2092  10.647   2.617   4.376  0.6439  0.7666 -0.5248
   16MOL0     H 2093  10.554   3.037   4.903  1.4206  2.9893  0.4380
   16MOL0     H 2094  10.599   3.015   5.136  0.8969  3.7045 -0.6708
   16MOL0     H 2095  10.850   2.705   5.386  0.8503  1.1969  1.4029
   16MOL0     H 2096  10.858   2.657   5.228  0.4923 -1.1937  2.1644
   16MOL0     H 2097  11.024   2.882   5.381 -0.0593 -2.3831  1.6786
   16MOL0     H 2098  11.060   2.846   5.215 -0.8996  2.7303 -0.3421
   16MOL0     H 2099  11.144   2.632   5.267  5.2207  1.4837 -0.0928
   16MOL0     H 2100  11.063   2.634   5.429 -1.7919  2.3458  1.1092
   16MOL0     H 2101  11.322   2.735   5.323  0.5261  2.0267 -0.5803
   16MOL0     H 2102  11.231   2.860   5.401 -2.2251 -1.4325 -1.1952
   16MOL0     H 2103  11.313   2.582   5.512 -1.7001 -1.0032  0.7879
   16MOL0     H 2104  11.415   2.713   5.544 -0.6611  2.2837  0.8673
   16MOL0     H 2105  11.245   2.844   5.663  1.0781 -0.2080 -1.4531
   16MOL0     H 2106  11.137   2.713   5.632 -0.8284  1.9122 -0.8931
   16MOL0     H 2107  11.267   2.695   5.869 -3.1897  1.1919 -1.3278
   16MOL0     H 2108  11.413   2.684   5.785  0.6285 -1.2180  0.4074
   16MOL0     H 2109  11.376   2.475   5.695 -1.3854  0.6894 -0.5166
   16MOL0     H 2110  11.326   2.479   5.861 -0.3162  0.4326  0.6063
   16MOL0     H 2111  11.160   2.405   5.518 -0.3759  2.7478  0.1048
   16MOL0     H 2112  10.932   2.240   5.461 -1.4520 -0.3065 -0.8155
   16MOL0     H 2113  10.818   2.228   5.598 -1.7743  1.7429 -0.2359
   16MOL0     H 2114  10.770   2.476   5.559 -0.0020  1.9365 -1.3583
   16MOL0     H 2115  10.852   2.446   5.398  1.1919 -1.0539 -0.2436
   16MOL0     H 2116  10.622   2.255   5.483 -1.0586  0.7676 -1.3527
   16MOL0     H 2117  10.698   2.288   5.332  0.3794 -0.8115  0.7718
   16MOL0     H 2118  10.538   2.491   5.491  2.4978  2.3245  0.1093
   16MOL0     H 2119  10.468   2.379   5.372  0.1532  0.6792 -2.1343
   16MOL0     H 2120  10.328   2.535   5.321 -0.7336  3.6386  0.2825
   16MOL0     H 2121  10.177   2.558   5.122  0.4714 -0.0561 -0.1973
   16MOL0     H 2122  10.378   2.727   4.517 -0.4045  0.9957 -1.9129
   16MOL0     H 2123  10.256   2.744   4.307 -3.0010  1.8457  0.4285
   16MOL0     H 2124  10.127   2.721   4.094  0.7749 -0.4584 -0.9897
   16MOL0     H 2125  10.241   2.582   4.086  0.0090 -0.1301  0.4860
   16MOL0     H 2126   9.965   2.636   3.968  1.1734  0.4615 -0.7243
   16MOL0     H 2127  10.127   2.601   3.884  0.7123 -2.4856 -0.3332
   16MOL0     H 2128   9.980   2.384   4.033 -1.9887 -0.5584 -2.2710
   16MOL0     H 2129   9.960   2.415   3.866 -0.0515  0.4419 -1.0939
   16MOL0     H 2130  10.231   2.383   3.998 -0.8836 -2.6814  1.7077
   16MOL0     H 2131  10.208   2.416   3.828  1.5737 -0.9881 -0.1614
   16MOL0     H 2132  10.041   2.199   3.846  1.4342 -1.8691 -1.7663
   16MOL0     H 2133  10.149   2.160   3.980  0.5353  0.1774  0.9693
   16MOL0     H 2134  10.263   2.226   3.704  3.6653 -1.6300 -0.8358
   16MOL0     H 2135  10.363   2.204   3.846  2.1634  0.1493 -3.0872
   16MOL0     H 2136  10.174   2.046   3.686  0.0087  3.3418  0.3978
   16MOL0     H 2137  10.226   1.977   3.848  0.0308 -0.0222  0.6491
   16MOL0     H 2138  10.426   2.055   3.638 -0.7633  0.2132 -1.5814
   16MOL0     H 2139  10.466   1.976   3.784  1.9663 -1.3843 -2.2430
   16MOL0     H 2140  10.017   2.418   4.401  0.9510  0.7816 -1.6727
   16MOL0     H 2141  10.092   2.420   4.638  0.4978 -1.1392 -0.4693
   16MOL0     H 2142  10.517   2.529   4.859  2.2974 -1.3439  1.0630
   16MOL0     H 2143  10.663   2.537   5.049 -0.3363  4.3540  0.9438
   16MOL0     H 2144  10.912   2.728   5.043 -1.3808 -1.6608 -0.4002
   16MOL0     H 2145  10.862   2.788   4.795 -3.1928  1.9384 -3.1466
   16MOL0     H 2146  10.567   3.068   4.528 -2.7436  0.8010 -0.5089
   16MOL0     H 2147  10.529   3.143   4.325 -2.1985 -0.1406 -0.0484
   16MOL0     H 2148  10.509   3.168   3.955  0.1344  3.5437  1.2131
   16MOL0     H 2149  10.507   3.190   4.131  1.6435 -1.6198  0.1164
   16MOL0     H 2150  10.290   3.217   4.029  1.6114  0.1984 -0.5813
   16MOL0     H 2151  10.306   3.100   4.165  0.2026 -2.1598 -0.1527
   16MOL0     H 2152  10.299   2.907   4.020 -2.6860 -0.5678  0.3337
   16MOL0     H 2153  10.302   2.992   3.868  1.2886  1.6169  0.2716
   16MOL0     H 2154  10.077   3.095   3.901 -1.5994 -1.0855  0.0057
   16MOL0     H 2155  10.070   2.915   3.933  0.4849 -1.0926  0.2903
   16MOL0     H 2156   9.989   3.081   4.312 -0.2563 -0.0460 -0.5437
   16MOL0     H 2157  10.579   2.760   4.144  1.0905  0.9768 -0.8238
   16MOL0     H 2158  10.738   2.609   4.436  0.5013  1.1535 -0.2547
   16MOL0     H 2159  10.577   2.567   4.443  1.7964 -0.0748  0.0956
   16MOL0     H 2160  10.657   2.560   4.283  1.6370 -1.8332  1.0941
   17MOL0     O 2161   4.459   5.944   7.549 -0.9050 -0.3868  0.3562
   17MOL0     C 2162   4.394   5.953   7.450  0.1722 -0.5110  0.1555
   17MOL0     O 2163   4.279   5.877   7.424  1.0048  0.3716  0.4115
   17MOL0     C 2164   4.225   5.795   7.525  0.1391 -1.0522  0.0386
   17MOL0     C 2165   4.270   5.669   7.535  1.0506  0.6772 -0.9415
   17MOL0     C 2166   4.230   5.587   7.643 -0.2678 -0.1634  0.1274
   17MOL0     C 2167   4.153   5.634   7.747  0.6369 -0.4230  0.3752
   17MOL0     O 2168   4.108   5.556   7.853 -0.3849  0.0995  0.7182
   17MOL0     C 2169   4.057   5.618   7.970 -0.3367 -0.5913  0.5573
   17MOL0     C 2170   4.057   5.503   8.071 -0.0740 -0.8555  0.2023
   17MOL0     C 2171   4.010   5.532   8.205  0.7173  0.8051 -0.4661
   17MOL0     C 2172   3.967   5.407   8.292  0.2542  0.6175 -0.1195
   17MOL0     C 2173   3.904   5.442   8.432 -0.1741 -0.1738  0.4693
   17MOL0     C 2174   3.859   5.335   8.529  0.0833 -0.7055 -0.1038
   17MOL0     C 2175   3.788   5.394   8.649  0.0705 -0.4450  0.0367
   17MOL0     C 2176   3.727   5.286   8.734  1.0570 -0.6907  0.3906
   17MOL0     N 2177   3.671   5.321   8.868  0.4889 -0.1388 -0.6053
   17MOL0     C 2178   3.564   5.258   8.917  0.6372 -0.0978  0.4209
   17MOL0     C 2179   3.547   5.299   9.044 -0.8250  0.3625  0.8162
   17MOL0     C 2180   3.443   5.261   9.148 -0.0941  0.8826  0.9810
   17MOL0     C 2181   3.496   5.155   9.249  0.4980  0.0141  0.5498
   17MOL0     C 2182   3.598   5.205   9.348  0.2200 -0.2386  0.2244
   17MOL0     C 2183   3.621   5.101   9.459 -0.2734  0.3211  0.1444
   17MOL0     O 2184   3.724   5.152   9.542  0.0407 -0.0436  1.0052
   17MOL0     C 2185   3.799   5.067   9.623  0.5159  0.3788  0.6168
   17MOL0     C 2186   3.812   4.926   9.611 -0.0114 -0.5986  0.0597
   17MOL0     C 2187   3.901   4.857   9.699  0.3242 -0.2679  0.6933
   17MOL0     C 2188   3.980   4.922   9.786  0.8096 -0.5401 -0.4218
   17MOL0     C 2189   4.086   4.859   9.878  0.2042 -0.3407 -0.7990
   17MOL0     O 2190   4.112   4.722   9.858  0.1045  0.3402  0.4576
   17MOL0     C 2191   4.210   4.664   9.931 -0.0315 -0.5443 -0.9725
   17MOL0     C 2192   4.306   4.591   9.858  0.5785 -0.0045 -0.3689
   17MOL0     C 2193   4.412   4.512   9.916  1.1695  1.3195  0.0058
   17MOL0     C 2194   4.419   4.513  10.057 -0.0530  0.1820  0.6315
   17MOL0     O 2195   4.500   4.422  10.109 -0.0011  0.4573  0.0159
   17MOL0     C 2196   4.580   4.461  10.223 -0.7111  0.1009  0.9421
   17MOL0     C 2197   4.663   4.343  10.273 -1.0447  0.0938 -0.5062
   17MOL0     C 2198   4.597   4.202  10.265 -0.3874  0.8268 -0.4959
   17MOL0     C 2199   4.693   4.093  10.324  0.7672  0.6495  0.7202
   17MOL0     C 2200   4.624   3.954  10.319 -0.5598 -0.4060 -0.0193
   17MOL0     C 2201   4.641   3.867  10.447 -0.0151 -0.6332 -0.4485
   17MOL0     C 2202   4.555   3.920  10.564 -1.2529  0.9424 -0.2672
   17MOL0     C 2203   4.561   3.835  10.687 -0.2610 -0.1799  0.1329
   17MOL0    Cl 2204   4.729   3.820  10.749 -0.1555  0.0448  0.0809
   17MOL0     C 2205   4.337   4.598  10.133  0.6234  0.7433 -0.4024
   17MOL0     C 2206   4.223   4.662  10.073 -0.1618 -0.5458  0.4143
   17MOL0     O 2207   4.138   4.936   9.960 -0.1669  0.3835  0.9222
   17MOL0     C 2208   3.961   5.064   9.800  0.8714  0.7401 -0.4159
   17MOL0     C 2209   3.871   5.131   9.718 -0.3851  0.3633  0.1514
   17MOL0     N 2210   3.648   5.398   9.066 -0.0768 -0.5126  0.3444
   17MOL0     N 2211   3.726   5.409   8.958 -0.5712  0.3391 -0.2596
   17MOL0     C 2212   4.099   5.763   7.725 -0.5061  0.0076 -0.2042
   17MOL0     C 2213   4.137   5.835   7.619 -0.6109  0.0976 -0.2363
   17MOL0     C 2214   4.445   6.044   7.339 -0.8743  0.4599 -0.1410
   17MOL0     C 2215   4.350   6.099   7.251 -1.0688 -1.0828 -0.1939
   17MOL0     C 2216   4.392   6.190   7.158 -0.0361 -0.1099  0.5539
   17MOL0     C 2217   4.526   6.229   7.140 -0.1865 -0.3903  0.4010
   17MOL0     O 2218   4.582   6.333   7.067 -0.5366  0.3458 -0.1702
   17MOL0     C 2219   4.491   6.430   7.023 -1.2627  0.1627 -0.0069
   17MOL0     C 2220   4.413   6.523   7.120 -0.4508 -0.0357  0.4097
   17MOL0     C 2221   4.507   6.635   7.171  0.0568  0.5186 -0.5448
   17MOL0     C 2222   4.429   6.726   7.269 -0.5301  0.5203 -0.3045
   17MOL0     C 2223   4.504   6.849   7.302  0.2537  1.2011 -0.6589
   17MOL0     C 2224   4.532   6.965   7.331 -0.9305  0.4278 -0.6595
   17MOL0     C 2225   4.620   6.152   7.205  0.2471 -0.1730  0.7132
   17MOL0     C 2226   4.580   6.063   7.305 -0.1309 -0.3686 -0.2563
   17MOL0     C 2227   4.695   5.993   7.378 -0.8084 -0.4303 -0.5438
   17MOL0     H 2228   4.347   5.631   7.470  1.9177  0.6810  0.0524
   17MOL0     H 2229   4.283   5.492   7.639  4.5949  2.2220  1.1800
   17MOL0     H 2230   4.115   5.701   8.010  1.0885 -0.4508 -1.6980
   17MOL0     H 2231   3.956   5.658   7.957  0.6712  2.4473  1.2831
   17MOL0     H 2232   4.160   5.466   8.080  0.2995 -0.4424 -1.8633
   17MOL0     H 2233   3.995   5.421   8.035  2.0508 -1.4431 -2.4621
   17MOL0     H 2234   3.920   5.591   8.184 -1.2938 -1.6181  0.8436
   17MOL0     H 2235   4.086   5.593   8.255  0.9282 -0.0797  0.3019
   17MOL0     H 2236   3.898   5.336   8.247 -1.1175  0.6553  1.7812
   17MOL0     H 2237   4.058   5.349   8.314  1.6208  1.8991 -2.0648
   17MOL0     H 2238   3.980   5.503   8.482 -0.4943  0.2801  0.4083
   17MOL0     H 2239   3.816   5.504   8.416 -0.0423 -0.4061 -1.3243
   17MOL0     H 2240   3.791   5.278   8.466  0.6384 -1.7624  0.2157
   17MOL0     H 2241   3.945   5.275   8.560  0.4143 -0.3528 -0.3338
   17MOL0     H 2242   3.700   5.455   8.626 -4.3777 -4.6195  3.6823
   17MOL0     H 2243   3.839   5.462   8.718  0.0407 -0.4224  0.0389
   17MOL0     H 2244   3.655   5.230   8.673  0.7025  0.5988 -0.4084
   17MOL0     H 2245   3.811   5.217   8.747  1.4465 -0.1302  0.8837
   17MOL0     H 2246   3.511   5.180   8.863  0.7989  0.2152 -0.1976
   17MOL0     H 2247   3.423   5.355   9.202  0.2482  0.2293  2.2899
   17MOL0     H 2248   3.354   5.236   9.090  1.3452 -0.5217 -0.7131
   17MOL0     H 2249   3.419   5.110   9.312  2.2235  0.6738  3.3159
   17MOL0     H 2250   3.542   5.081   9.182  2.9886  1.8433  0.0946
   17MOL0     H 2251   3.558   5.293   9.400  0.0647 -1.1708  1.7286
   17MOL0     H 2252   3.696   5.214   9.301  1.1153 -2.5953  1.5294
   17MOL0     H 2253   3.641   5.001   9.420 -1.5837  1.0640 -2.6717
   17MOL0     H 2254   3.532   5.091   9.521  0.4372 -2.1306  0.8955
   17MOL0     H 2255   3.756   4.867   9.539  0.1894  1.5764 -2.0155
   17MOL0     H 2256   3.918   4.751   9.684  1.3811  0.1790 -1.9711
   17MOL0     H 2257   4.287   4.588   9.751 -4.1311 -1.4363  0.2479
   17MOL0     H 2258   4.484   4.454   9.859 -0.3030 -0.6607  0.0644
   17MOL0     H 2259   4.640   4.547  10.190 -1.7046  0.4429 -0.0393
   17MOL0     H 2260   4.518   4.485  10.310 -0.2801  1.7753  0.8268
   17MOL0     H 2261   4.754   4.349  10.212 -0.7946  1.1986 -0.0516
   17MOL0     H 2262   4.699   4.367  10.373 -0.2839 -1.2683 -0.4342
   17MOL0     H 2263   4.504   4.213  10.322  0.0249 -1.4992  0.7183
   17MOL0     H 2264   4.573   4.176  10.161  0.4206  0.7734 -0.6730
   17MOL0     H 2265   4.719   4.125  10.425  2.2138  0.3854  0.4494
   17MOL0     H 2266   4.786   4.086  10.268 -0.3592 -2.9961 -0.9772
   17MOL0     H 2267   4.668   3.899  10.235  1.4437 -1.3467  1.5776
   17MOL0     H 2268   4.519   3.953  10.289 -0.3549  0.7574 -0.8613
   17MOL0     H 2269   4.611   3.765  10.422 -0.4577 -0.2074 -1.7822
   17MOL0     H 2270   4.748   3.862  10.471 -0.0068 -2.7819 -0.7548
   17MOL0     H 2271   4.449   3.928  10.539 -0.3911  2.3828 -4.1810
   17MOL0     H 2272   4.587   4.019  10.597 -0.5444  1.7744 -3.1533
   17MOL0     H 2273   4.498   3.884  10.763 -1.1082  1.2509 -1.4261
   17MOL0     H 2274   4.523   3.734  10.670  0.7973 -0.3894 -1.0483
   17MOL0     H 2275   4.350   4.604  10.240  2.9748 -1.6051 -0.4368
   17MOL0     H 2276   4.157   4.726  10.131 -1.1636 -1.7482  0.6523
   17MOL0     H 2277   4.029   5.124   9.860 -1.0342  2.3216  0.2605
   17MOL0     H 2278   3.861   5.238   9.728 -2.1176  0.1771  0.7509
   17MOL0     H 2279   4.032   5.810   7.797  0.8852  1.0727  0.4283
   17MOL0     H 2280   4.102   5.937   7.607 -0.5933  0.1331  0.0126
   17MOL0     H 2281   4.242   6.087   7.260 -1.2456 -1.0323 -2.0341
   17MOL0     H 2282   4.309   6.242   7.110  0.4336 -0.2204 -0.4146
   17MOL0     H 2283   4.418   6.377   6.961  0.4012 -1.2796 -0.8410
   17MOL0     H 2284   4.537   6.498   6.950 -1.9216  0.5925 -0.0241
   17MOL0     H 2285   4.379   6.457   7.201  1.9205 -2.7286 -0.6412
   17MOL0     H 2286   4.330   6.582   7.079  1.4043  2.8358  0.4847
   17MOL0     H 2287   4.565   6.689   7.095  1.5732 -0.0168  0.1821
   17MOL0     H 2288   4.587   6.581   7.223  0.9233  1.9366 -0.3514
   17MOL0     H 2289   4.350   6.772   7.209 -0.5841  2.5165  1.2117
   17MOL0     H 2290   4.378   6.673   7.350 -3.9734  2.8507 -0.7240
   17MOL0     H 2291   4.540   7.061   7.377 -1.0390 -0.2731  0.8575
   17MOL0     H 2292   4.720   6.160   7.162 -0.7642 -3.0062 -2.6241
   17MOL0     H 2293   4.667   5.939   7.469 -0.5115  1.0943  0.4976
   17MOL0     H 2294   4.745   5.916   7.318 -0.5619 -0.7353  0.0397
   17MOL0     H 2295   4.772   6.070   7.388 -1.1520  0.0179 -1.2795
   18MOL0     O 2296   0.780   4.331   7.467  0.6061  1.0474 -1.1196
   18MOL0     C 2297   0.766   4.211   7.484  0.6525 -0.4558 -0.3933
   18MOL0     O 2298   0.655   4.155   7.546 -0.1966 -0.0733  0.1511
   18MOL0     C 2299   0.546   4.227   7.592 -0.9681  0.6827  0.2152
   18MOL0     C 2300   0.427   4.160   7.577  1.4589  0.3743  0.2734
   18MOL0     C 2301   0.313   4.217   7.627  0.2282 -0.3109  0.8504
   18MOL0     C 2302   0.303   4.342   7.685  0.5536 -0.7394  0.8451
   18MOL0     O 2303   0.185   4.396   7.725 -0.0024 -0.2061 -0.0465
   18MOL0     C 2304   0.183   4.504   7.818 -0.0062 -0.6977  0.8933
   18MOL0     C 2305   0.053   4.543   7.881  0.2017 -0.3101  0.4928
   18MOL0     C 2306  -0.059   4.586   7.784  0.2332  0.0440 -0.3403
   18MOL0     C 2307  -0.172   4.655   7.845 -0.2119 -0.4579 -0.4160
   18MOL0     C 2308  -0.277   4.718   7.751 -1.3767  0.2081  0.3772
   18MOL0     C 2309  -0.223   4.789   7.620  0.3574 -0.5344  0.7019
   18MOL0     C 2310  -0.322   4.870   7.534  0.5421  1.0425  0.7418
   18MOL0     C 2311  -0.242   4.965   7.455  0.4156 -0.2470  0.3451
   18MOL0     N 2312  -0.166   4.899   7.351  0.2362  0.1110 -0.0356
   18MOL0     C 2313  -0.037   4.926   7.313 -0.6223 -0.7422 -0.1557
   18MOL0     C 2314  -0.007   4.853   7.205 -0.0434  0.7634 -0.2402
   18MOL0     C 2315   0.126   4.835   7.147  1.0971  0.8911  0.3902
   18MOL0     C 2316   0.151   4.689   7.103  0.0516  0.3913  0.0386
   18MOL0     C 2317   0.178   4.585   7.214 -1.0396  0.1515 -0.6171
   18MOL0     C 2318   0.191   4.434   7.166  0.7250  0.1756  0.9189
   18MOL0     O 2319   0.232   4.354   7.276  0.1492  0.0443  0.1181
   18MOL0     C 2320   0.301   4.244   7.235 -0.0268 -0.5608 -0.2772
   18MOL0     C 2321   0.231   4.130   7.199  0.2053  0.5941  0.6768
   18MOL0     C 2322   0.280   4.003   7.172  0.4554  0.3209 -0.5715
   18MOL0     C 2323   0.419   3.994   7.182  0.6272 -0.8741 -0.1257
   18MOL0     C 2324   0.487   3.868   7.180 -0.2491  0.8720 -0.1039
   18MOL0     O 2325   0.613   3.857   7.162  0.1389 -0.9541 -0.0834
   18MOL0     C 2326   0.675   3.734   7.189  0.7079 -0.0298 -0.3354
   18MOL0     C 2327   0.692   3.698   7.317  0.1401  0.1311 -0.2319
   18MOL0     C 2328   0.754   3.573   7.340 -0.9845  0.5972 -0.2586
   18MOL0     C 2329   0.806   3.492   7.235  0.0448  0.3222 -0.3486
   18MOL0     O 2330   0.877   3.372   7.263 -0.0188 -0.4472  0.0629
   18MOL0     C 2331   0.901   3.341   7.398  0.0088 -0.3936  0.1838
   18MOL0     C 2332   0.981   3.200   7.404 -0.3798 -0.3683  0.0754
   18MOL0     C 2333   1.055   3.167   7.542 -0.3542 -0.3122  0.1363
   18MOL0     C 2334   1.121   3.029   7.534 -0.4100 -0.0629 -0.4129
   18MOL0     C 2335   1.188   2.992   7.663 -0.8861  0.1370 -0.2344
   18MOL0     C 2336   1.296   3.089   7.708  0.3203  0.7583  0.6420
   18MOL0     C 2337   1.328   3.044   7.853  0.4623 -0.6641  0.2571
   18MOL0     C 2338   1.428   3.125   7.931  0.1755 -0.3934 -0.9274
   18MOL0    Cl 2339   1.591   3.084   7.880 -0.4210  0.5177 -0.0022
   18MOL0     C 2340   0.788   3.535   7.101 -0.0075  0.1050 -0.8400
   18MOL0     C 2341   0.707   3.649   7.081 -0.8021  0.9106 -0.4127
   18MOL0     O 2342   0.409   3.774   7.191 -0.5736 -0.6094 -0.5521
   18MOL0     C 2343   0.494   4.109   7.225  0.0586  0.4550 -0.1610
   18MOL0     C 2344   0.434   4.235   7.244 -0.5844 -0.5144 -0.3006
   18MOL0     N 2345  -0.125   4.784   7.176  0.2322 -0.0900  0.7532
   18MOL0     N 2346  -0.224   4.819   7.256 -0.1609  0.2939 -0.4617
   18MOL0     C 2347   0.433   4.409   7.696  0.4217 -0.1562  0.0652
   18MOL0     C 2348   0.547   4.350   7.652 -0.3370 -0.0226  0.9257
   18MOL0     C 2349   0.882   4.119   7.437  0.6746  0.1766  0.2755
   18MOL0     C 2350   0.863   3.982   7.481 -0.3574 -0.3538 -0.7563
   18MOL0     C 2351   0.961   3.884   7.448  0.1721 -0.5345  0.2526
   18MOL0     C 2352   1.077   3.911   7.378  0.3865 -0.1293  0.5006
   18MOL0     O 2353   1.170   3.823   7.344 -0.6043  0.0519 -0.4121
   18MOL0     C 2354   1.147   3.687   7.370 -0.7959  0.5020  0.0893
   18MOL0     C 2355   1.276   3.606   7.340  0.4062  0.1394 -0.5038
   18MOL0     C 2356   1.249   3.457   7.352  0.3546  0.2730 -0.6255
   18MOL0     C 2357   1.372   3.370   7.374  1.5692  0.9660 -0.7867
   18MOL0     C 2358   1.432   3.399   7.502  0.7121 -0.2954  0.3961
   18MOL0     C 2359   1.481   3.430   7.613  0.0819 -0.0392  0.6874
   18MOL0     C 2360   1.098   4.046   7.345  0.4505  0.0143  0.7137
   18MOL0     C 2361   0.998   4.146   7.365 -0.9372 -0.2575 -1.1091
   18MOL0     C 2362   1.052   4.288   7.353  0.6508 -0.3696 -0.0541
   18MOL0     H 2363   0.418   4.064   7.526 -1.2864 -0.6645  2.4526
   18MOL0     H 2364   0.218   4.168   7.606  0.5392 -0.7217  0.3865
   18MOL0     H 2365   0.250   4.473   7.899  1.2143 -1.6730 -0.4403
   18MOL0     H 2366   0.217   4.589   7.758  0.2039 -1.2677  0.1918
   18MOL0     H 2367   0.067   4.628   7.948 -0.7773 -1.1937  1.8748
   18MOL0     H 2368   0.013   4.458   7.938 -3.6796  0.9383 -0.0868
   18MOL0     H 2369  -0.115   4.504   7.737 -0.4602  0.5282 -0.3767
   18MOL0     H 2370  -0.019   4.647   7.702 -3.2811  0.0260 -2.2914
   18MOL0     H 2371  -0.218   4.589   7.920  0.5448  0.4310  0.8890
   18MOL0     H 2372  -0.135   4.746   7.894 -0.2320  1.1451 -3.1888
   18MOL0     H 2373  -0.347   4.636   7.732 -2.8702  1.2424  1.2181
   18MOL0     H 2374  -0.333   4.795   7.804  1.2541  1.2383  1.8675
   18MOL0     H 2375  -0.140   4.857   7.645  2.7461 -2.6975 -0.8106
   18MOL0     H 2376  -0.172   4.718   7.554 -0.9151 -1.4593  0.6688
   18MOL0     H 2377  -0.399   4.912   7.599  0.4935 -0.2269  1.5416
   18MOL0     H 2378  -0.386   4.807   7.471 -0.7235  2.4727  0.5389
   18MOL0     H 2379  -0.308   5.036   7.403 -2.4190  1.4197  5.5313
   18MOL0     H 2380  -0.177   5.018   7.525  1.2360 -2.0761  1.0124
   18MOL0     H 2381   0.032   4.975   7.381  0.0403 -1.1657 -0.5105
   18MOL0     H 2382   0.124   4.900   7.060  1.2556  0.7643  0.2911
   18MOL0     H 2383   0.198   4.878   7.217 -1.6363  0.2158  3.9545
   18MOL0     H 2384   0.062   4.649   7.055 -0.9727  0.2492  1.9447
   18MOL0     H 2385   0.229   4.689   7.027 -1.3758 -3.0774 -1.6568
   18MOL0     H 2386   0.084   4.594   7.268 -0.9810  2.6707 -0.8257
   18MOL0     H 2387   0.264   4.602   7.281 -0.0855 -0.0921 -1.7491
   18MOL0     H 2388   0.258   4.423   7.080 -1.0072  2.7941 -0.9452
   18MOL0     H 2389   0.095   4.399   7.126  1.2536 -0.2270 -0.0475
   18MOL0     H 2390   0.124   4.142   7.186 -0.7578 -1.6644  4.7585
   18MOL0     H 2391   0.214   3.922   7.144 -1.1887  1.5832 -0.5505
   18MOL0     H 2392   0.638   3.763   7.385  0.9019  0.9330 -0.3707
   18MOL0     H 2393   0.752   3.540   7.444  1.8273  0.4950 -0.1648
   18MOL0     H 2394   0.967   3.414   7.445 -1.7734  1.8889 -0.6542
   18MOL0     H 2395   0.807   3.328   7.452 -0.1406  1.2590  0.3486
   18MOL0     H 2396   0.910   3.120   7.384  1.3181 -1.4840 -1.9120
   18MOL0     H 2397   1.051   3.186   7.321  0.2679  1.8616  0.1656
   18MOL0     H 2398   1.121   3.250   7.569 -0.6945  0.2617 -0.7710
   18MOL0     H 2399   0.980   3.165   7.622  1.9896  0.1733  2.4772
   18MOL0     H 2400   1.208   3.032   7.468 -0.3099 -1.0664 -0.3519
   18MOL0     H 2401   1.052   2.952   7.497 -0.7462  0.2500 -0.4437
   18MOL0     H 2402   1.253   2.905   7.655 -0.6742 -0.1586  3.3858
   18MOL0     H 2403   1.111   2.959   7.733  0.3902 -0.9554  0.7013
   18MOL0     H 2404   1.387   3.079   7.649 -1.2792  1.3639 -2.0817
   18MOL0     H 2405   1.275   3.197   7.715  2.7241  1.4363 -1.2731
   18MOL0     H 2406   1.337   2.936   7.872 -1.1516 -0.9646 -0.4708
   18MOL0     H 2407   1.236   3.065   7.908 -0.7791 -0.4477 -1.7807
   18MOL0     H 2408   1.411   3.233   7.926  2.2770  0.2360  2.3909
   18MOL0     H 2409   1.406   3.098   8.035 -1.2760 -0.6347 -1.2682
   18MOL0     H 2410   0.821   3.475   7.017 -0.9416  0.4121 -1.4483
   18MOL0     H 2411   0.678   3.672   6.979 -0.2521 -0.4400 -0.8851
   18MOL0     H 2412   0.600   4.103   7.249 -0.2669 -0.6426  1.1847
   18MOL0     H 2413   0.492   4.325   7.260  0.1847 -0.7282 -1.7480
   18MOL0     H 2414   0.431   4.506   7.743  1.0188  0.7072 -1.6159
   18MOL0     H 2415   0.643   4.400   7.643 -0.4976  0.0103 -6.2846
   18MOL0     H 2416   0.774   3.937   7.524 -2.3663 -0.4131 -4.5260
   18MOL0     H 2417   0.943   3.781   7.478  0.3810 -0.0181  2.2498
   18MOL0     H 2418   1.061   3.644   7.318  0.1086 -3.2708  1.3709
   18MOL0     H 2419   1.133   3.670   7.477 -1.1489 -1.6423 -0.2504
   18MOL0     H 2420   1.349   3.637   7.415  0.7585 -1.9321  0.0806
   18MOL0     H 2421   1.317   3.626   7.241  3.1369  1.0613  0.7030
   18MOL0     H 2422   1.199   3.428   7.259 -0.9449  2.5807 -0.7156
   18MOL0     H 2423   1.176   3.447   7.432 -0.2658  2.8561 -0.7879
   18MOL0     H 2424   1.342   3.265   7.373  3.7317  0.2857 -0.4429
   18MOL0     H 2425   1.452   3.388   7.302  2.3187 -2.0802 -0.8553
   18MOL0     H 2426   1.527   3.464   7.703  4.8000  2.3352 -2.2010
   18MOL0     H 2427   1.196   4.066   7.304  0.1907  1.2424  0.6587
   18MOL0     H 2428   0.986   4.344   7.287  1.2269  0.7908  0.3348
   18MOL0     H 2429   1.049   4.335   7.451 -1.5347  0.2082 -0.3556
   18MOL0     H 2430   1.158   4.288   7.323  0.4324  0.8139 -0.8995
   19MOL0     O 2431   8.748   5.649   4.068 -0.2180 -0.2291  0.6734
   19MOL0     C 2432   8.634   5.694   4.041 -0.3814 -0.6156  0.0587
   19MOL0     O 2433   8.525   5.619   4.022 -0.4694 -0.0212 -0.4781
   19MOL0     C 2434   8.514   5.482   4.010 -0.9638 -0.4889  0.6476
   19MOL0     C 2435   8.397   5.420   4.051 -0.7346 -0.2532  0.6218
   19MOL0     C 2436   8.373   5.288   4.036  0.9369  0.1581  0.8175
   19MOL0     C 2437   8.464   5.206   3.968  0.3467 -0.3687  0.2509
   19MOL0     O 2438   8.449   5.072   3.958 -0.6019 -0.2186  0.2644
   19MOL0     C 2439   8.384   4.996   4.063  1.1463  0.7601  0.5022
   19MOL0     C 2440   8.461   4.971   4.194  0.3347  0.0421 -1.0342
   19MOL0     C 2441   8.413   4.866   4.305  0.4117 -0.1986  0.9256
   19MOL0     C 2442   8.289   4.925   4.380 -0.2732  0.0947 -0.5090
   19MOL0     C 2443   8.222   4.821   4.477 -0.2609  0.6604  0.0346
   19MOL0     C 2444   8.299   4.785   4.601  1.0760 -0.4963  0.0483
   19MOL0     C 2445   8.226   4.680   4.696 -0.6275  0.4593  0.4524
   19MOL0     C 2446   8.333   4.653   4.800  0.0703 -0.5543 -0.1835
   19MOL0     N 2447   8.301   4.548   4.901 -0.3682 -0.0847 -0.2626
   19MOL0     C 2448   8.289   4.419   4.868 -0.0196  0.6145 -1.2982
   19MOL0     C 2449   8.292   4.361   4.988 -0.7857  0.8554 -0.5400
   19MOL0     C 2450   8.299   4.208   5.000 -0.5321  0.5200 -0.6139
   19MOL0     C 2451   8.160   4.142   5.034 -0.8608 -0.9455  0.2893
   19MOL0     C 2452   8.097   4.173   5.177 -0.0192 -0.6889  0.9596
   19MOL0     C 2453   8.198   4.178   5.288  0.3603 -0.4155  0.3474
   19MOL0     O 2454   8.273   4.060   5.282  0.6371  0.1348 -0.8478
   19MOL0     C 2455   8.230   3.943   5.339  0.3830 -0.8729 -0.1149
   19MOL0     C 2456   8.134   3.924   5.443 -0.6464 -0.3340  0.1476
   19MOL0     C 2457   8.114   3.798   5.485  1.0696 -0.3993  0.1325
   19MOL0     C 2458   8.187   3.686   5.453 -0.5476 -0.0392  0.7865
   19MOL0     C 2459   8.167   3.539   5.496  0.8709 -0.6035  0.3333
   19MOL0     O 2460   8.253   3.445   5.441 -0.8809  0.2900 -0.4019
   19MOL0     C 2461   8.252   3.311   5.479 -0.1972 -0.3740 -0.4990
   19MOL0     C 2462   8.203   3.213   5.391 -0.6064  0.1433 -0.0760
   19MOL0     C 2463   8.217   3.080   5.434 -0.8189 -0.1686 -0.5823
   19MOL0     C 2464   8.257   3.039   5.556  0.1436 -0.1817  0.0901
   19MOL0     O 2465   8.265   2.906   5.571 -0.3160  0.1022 -0.1041
   19MOL0     C 2466   8.213   2.869   5.695 -1.1257  0.4632  0.3882
   19MOL0     C 2467   8.064   2.833   5.684  0.2266 -0.2790 -0.5928
   19MOL0     C 2468   8.006   2.767   5.802  0.6210  0.9359 -0.0741
   19MOL0     C 2469   7.855   2.794   5.794  0.6424 -0.5154 -0.0925
   19MOL0     C 2470   7.772   2.770   5.927 -0.3022  0.0634  0.0577
   19MOL0     C 2471   7.781   2.625   5.957  0.4363  0.8450  0.0721
   19MOL0     C 2472   7.691   2.594   6.077  0.3295 -0.5314 -0.2308
   19MOL0     C 2473   7.665   2.444   6.104 -0.7636 -0.5540  0.2499
   19MOL0    Cl 2474   7.823   2.356   6.126  0.0346 -0.5922 -0.6633
   19MOL0     C 2475   8.311   3.140   5.637  0.3071  0.0310 -0.6683
   19MOL0     C 2476   8.302   3.272   5.600 -0.8666  0.3260 -0.1678
   19MOL0     O 2477   8.070   3.517   5.571  0.3092 -0.1664  0.0697
   19MOL0     C 2478   8.293   3.708   5.370  0.2584 -0.0036  0.7904
   19MOL0     C 2479   8.305   3.834   5.305 -0.6949  0.0641 -0.3477
   19MOL0     N 2480   8.293   4.464   5.090  0.4871 -0.9172  0.3250
   19MOL0     N 2481   8.299   4.578   5.036  0.0627  0.3918  1.6937
   19MOL0     C 2482   8.576   5.270   3.924 -0.6836 -0.4037 -0.6877
   19MOL0     C 2483   8.604   5.411   3.935 -0.2444  0.8079  0.7480
   19MOL0     C 2484   8.612   5.836   4.036  0.6080 -0.0687  0.6083
   19MOL0     C 2485   8.502   5.896   4.104 -0.0753  0.6356  1.1789
   19MOL0     C 2486   8.483   6.041   4.114  0.7970  0.2476 -0.7189
   19MOL0     C 2487   8.571   6.121   4.046  0.7215 -0.4138  0.1008
   19MOL0     O 2488   8.570   6.256   4.048  0.7889 -0.2008 -0.1260
   19MOL0     C 2489   8.444   6.317   4.082  0.0847  0.3292  0.2436
   19MOL0     C 2490   8.455   6.468   4.043 -0.1404  1.0571 -0.4252
   19MOL0     C 2491   8.480   6.488   3.895  0.0929  1.0997 -0.0684
   19MOL0     C 2492   8.363   6.444   3.802  0.4123  0.3309  0.1360
   19MOL0     C 2493   8.248   6.524   3.815 -1.0379 -0.1857  0.3250
   19MOL0     C 2494   8.153   6.596   3.831  0.2893  1.1488  0.7451
   19MOL0     C 2495   8.671   6.067   3.976 -0.1951  0.3465  0.0336
   19MOL0     C 2496   8.697   5.928   3.973  0.2848 -1.1102 -0.3504
   19MOL0     C 2497   8.823   5.904   3.902  0.4826  0.0273  0.1694
   19MOL0     H 2498   8.328   5.483   4.108 -0.7372  1.7429 -1.4611
   19MOL0     H 2499   8.286   5.246   4.084  0.5162 -0.6836 -0.6128
   19MOL0     H 2500   8.286   5.037   4.089  1.4375  2.7765 -1.3362
   19MOL0     H 2501   8.375   4.897   4.018 -1.0325  1.1045  0.1037
   19MOL0     H 2502   8.465   5.067   4.246 -1.3192 -0.0676 -0.6368
   19MOL0     H 2503   8.561   4.940   4.163  0.1119  1.0843 -2.9162
   19MOL0     H 2504   8.485   4.847   4.385  0.1815  1.7808  1.6683
   19MOL0     H 2505   8.397   4.771   4.253 -0.1293  1.0909 -1.4325
   19MOL0     H 2506   8.318   5.019   4.428 -0.0114  0.8031 -1.9735
   19MOL0     H 2507   8.212   4.953   4.306  2.0901  4.0822 -1.7845
   19MOL0     H 2508   8.124   4.863   4.502 -1.3737 -1.7476 -0.0039
   19MOL0     H 2509   8.205   4.731   4.417 -2.6215  1.3125 -0.3862
   19MOL0     H 2510   8.397   4.749   4.571  0.9505  0.2850 -1.4003
   19MOL0     H 2511   8.311   4.882   4.652  0.0152 -0.5445  0.4315
   19MOL0     H 2512   8.186   4.599   4.635 -1.5158  0.4718  0.9969
   19MOL0     H 2513   8.135   4.718   4.744 -0.1373  0.9242  1.0439
   19MOL0     H 2514   8.410   4.609   4.736 -0.0136  0.2601 -0.8570
   19MOL0     H 2515   8.362   4.749   4.843 -0.6853  0.9258 -2.7545
   19MOL0     H 2516   8.285   4.383   4.766  1.2723 -2.3673 -0.3970
   19MOL0     H 2517   8.329   4.174   4.901  0.6377  1.7319 -0.7099
   19MOL0     H 2518   8.378   4.181   5.071 -0.0945 -0.3221 -1.4010
   19MOL0     H 2519   8.089   4.163   4.954  1.6629  0.8091 -1.6561
   19MOL0     H 2520   8.183   4.035   5.029  4.8394 -0.0202 -0.0193
   19MOL0     H 2521   8.027   4.090   5.192  0.6864 -1.5025 -0.0934
   19MOL0     H 2522   8.034   4.262   5.176 -0.6365 -1.1185 -0.3316
   19MOL0     H 2523   8.159   4.190   5.389  3.6052 -0.4090  1.7072
   19MOL0     H 2524   8.255   4.263   5.250 -1.8786 -0.3915 -3.5234
   19MOL0     H 2525   8.069   4.005   5.472 -1.4073 -0.2896 -1.5952
   19MOL0     H 2526   8.034   3.764   5.550  1.6280 -1.2042  0.4272
   19MOL0     H 2527   8.178   3.248   5.291  1.9857  3.6757  0.3032
   19MOL0     H 2528   8.191   2.998   5.368  0.8060 -2.4239  1.4070
   19MOL0     H 2529   8.254   2.770   5.716 -1.7246  0.8579  4.0896
   19MOL0     H 2530   8.246   2.914   5.789 -1.1038  1.0979  0.0788
   19MOL0     H 2531   8.024   2.933   5.668  2.1907  0.2529 -2.7816
   19MOL0     H 2532   8.038   2.779   5.592 -5.4150 -2.6599  1.9225
   19MOL0     H 2533   8.030   2.661   5.796 -0.2014  0.6366  1.3875
   19MOL0     H 2534   8.032   2.805   5.901  0.1645  0.1673  0.3511
   19MOL0     H 2535   7.803   2.728   5.723 -0.2328  1.2400 -1.1701
   19MOL0     H 2536   7.837   2.897   5.762  0.1907 -0.7832 -0.7173
   19MOL0     H 2537   7.667   2.798   5.918 -0.3084  0.0501  0.0896
   19MOL0     H 2538   7.812   2.824   6.014 -1.2681 -0.9316  1.1606
   19MOL0     H 2539   7.736   2.565   5.877  0.4644 -0.2536  0.8560
   19MOL0     H 2540   7.885   2.595   5.970  0.4380  0.7572 -0.1391
   19MOL0     H 2541   7.604   2.659   6.064  1.2163  1.2868  2.1684
   19MOL0     H 2542   7.734   2.641   6.166 -2.8992 -2.2116  2.4294
   19MOL0     H 2543   7.605   2.427   6.194 -0.1552  1.9213  1.1955
   19MOL0     H 2544   7.616   2.401   6.016  0.8884 -0.0380 -0.9712
   19MOL0     H 2545   8.355   3.125   5.735  2.4014 -0.9796 -1.6935
   19MOL0     H 2546   8.354   3.345   5.662  0.2236 -2.1864  2.0582
   19MOL0     H 2547   8.358   3.629   5.334 -1.4845 -0.7319 -0.8661
   19MOL0     H 2548   8.393   3.849   5.243 -1.6079  0.5653 -1.5515
   19MOL0     H 2549   8.652   5.209   3.876  2.2309  0.3732  2.5093
   19MOL0     H 2550   8.696   5.452   3.893  0.0558 -0.3113  0.2563
   19MOL0     H 2551   8.422   5.834   4.143 -1.6607  0.7136 -1.6607
   19MOL0     H 2552   8.401   6.087   4.168  1.0153  0.4311 -0.5428
   19MOL0     H 2553   8.420   6.312   4.188  1.2736  0.6780  0.5454
   19MOL0     H 2554   8.369   6.269   4.018  2.5792 -0.5020 -2.2833
   19MOL0     H 2555   8.535   6.516   4.100 -1.9134  1.8028  1.5874
   19MOL0     H 2556   8.359   6.508   4.076  0.0960 -1.9031  5.0304
   19MOL0     H 2557   8.573   6.436   3.867  0.4897 -0.5241  3.6631
   19MOL0     H 2558   8.504   6.594   3.882  0.1251  1.1846  0.6835
   19MOL0     H 2559   8.393   6.441   3.697  0.1889  1.1022  0.0473
   19MOL0     H 2560   8.335   6.344   3.838 -2.1682  1.3917  1.3225
   19MOL0     H 2561   8.072   6.661   3.853  0.7658  1.6215  1.1309
   19MOL0     H 2562   8.733   6.137   3.922  0.7962  0.3443  1.1318
   19MOL0     H 2563   8.833   5.797   3.880 -3.3325 -0.9043  2.1429
   19MOL0     H 2564   8.816   5.956   3.805  0.8929  0.4150  0.3465
   19MOL0     H 2565   8.908   5.943   3.957  1.1976  1.9065 -2.0911
   20MOL0     O 2566   9.901   4.957   4.190 -0.7066  0.0252 -0.3175
   20MOL0     C 2567   9.805   4.910   4.117 -0.6425 -0.9688  0.1170
   20MOL0     O 2568   9.817   4.876   3.984  0.1243  0.6542  0.8972
   20MOL0     C 2569   9.917   4.784   3.947 -0.1279  0.5594  0.2824
   20MOL0     C 2570   9.951   4.773   3.811 -0.0673  0.9867 -0.4123
   20MOL0     C 2571  10.034   4.677   3.763  0.8227  0.4994  0.1817
   20MOL0     C 2572  10.099   4.583   3.854  0.1389 -1.6246  0.7218
   20MOL0     O 2573  10.168   4.481   3.804 -0.4020  0.2053 -0.4038
   20MOL0     C 2574  10.290   4.520   3.730 -0.2778  0.5409  0.0611
   20MOL0     C 2575  10.389   4.408   3.754 -0.6840 -0.2234  0.4003
   20MOL0     C 2576  10.515   4.414   3.670  0.2805 -0.0517 -0.1957
   20MOL0     C 2577  10.588   4.540   3.686 -0.4008 -0.0705  1.2081
   20MOL0     C 2578  10.704   4.554   3.591  0.6310 -0.1848 -0.5471
   20MOL0     C 2579  10.835   4.485   3.634  0.4769  0.8341  0.6183
   20MOL0     C 2580  10.954   4.535   3.553  0.7705 -0.7278 -0.1042
   20MOL0     C 2581  11.089   4.509   3.606  0.4023  0.1060  0.0927
   20MOL0     N 2582  11.182   4.563   3.505 -0.7342 -0.3498 -0.3382
   20MOL0     C 2583  11.254   4.684   3.530 -0.4646  1.0843 -0.3015
   20MOL0     C 2584  11.312   4.712   3.411 -0.0840  0.2477 -0.2153
   20MOL0     C 2585  11.392   4.835   3.382 -0.2241 -0.3601  1.1625
   20MOL0     C 2586  11.510   4.872   3.471 -0.5001  0.6055  0.5075
   20MOL0     C 2587  11.472   4.912   3.615 -0.4550  0.1055 -0.9453
   20MOL0     C 2588  11.593   4.923   3.711 -0.4394  0.6737 -0.4168
   20MOL0     O 2589  11.688   5.013   3.656 -0.9451  0.1304 -0.2575
   20MOL0     C 2590  11.811   5.032   3.707 -0.1700 -0.1888  0.2812
   20MOL0     C 2591  11.905   5.123   3.650  0.0157  0.1078  0.1455
   20MOL0     C 2592  12.032   5.149   3.702  0.8272 -0.0611 -0.4408
   20MOL0     C 2593  12.062   5.102   3.826 -0.1714  0.1822  0.8634
   20MOL0     C 2594  12.187   5.128   3.900  0.7972  0.2110  0.5175
   20MOL0     O 2595  12.226   5.045   3.998  0.8520  0.3305 -0.0787
   20MOL0     C 2596  12.332   5.064   4.073 -0.2965 -0.6981 -0.0454
   20MOL0     C 2597  12.367   4.954   4.147  0.2113 -0.8678 -0.7727
   20MOL0     C 2598  12.455   4.974   4.259  0.5608  0.2286  0.2037
   20MOL0     C 2599  12.521   5.094   4.289 -0.3053  1.3327  0.0737
   20MOL0     O 2600  12.608   5.095   4.396 -0.1269  0.5548 -0.6051
   20MOL0     C 2601  12.663   5.219   4.450 -0.4058  0.9723  0.1220
   20MOL0     C 2602  12.762   5.192   4.561  0.9634  0.5910 -0.0700
   20MOL0     C 2603  12.796   5.316   4.643  0.1881 -0.0683 -0.5843
   20MOL0     C 2604  12.927   5.303   4.713  0.3148 -0.5909  0.4101
   20MOL0     C 2605  12.983   5.441   4.759  0.1358 -0.2075  0.1284
   20MOL0     C 2606  12.885   5.539   4.817 -0.7004  0.3560  0.2306
   20MOL0     C 2607  12.961   5.641   4.899 -0.7254 -0.1983 -1.1504
   20MOL0     C 2608  12.878   5.757   4.963  0.6770 -0.0633 -0.8649
   20MOL0    Cl 2609  12.999   5.836   5.083  0.2568 -0.1079 -0.2792
   20MOL0     C 2610  12.493   5.205   4.210  0.3618 -0.0956 -0.3509
   20MOL0     C 2611  12.394   5.188   4.105  0.0413  0.1550 -0.1186
   20MOL0     O 2612  12.243   5.220   3.853  0.7163 -0.6171 -0.5855
   20MOL0     C 2613  11.979   5.004   3.879  0.3806 -0.9205 -0.2185
   20MOL0     C 2614  11.856   4.978   3.826 -0.7649  0.4317  0.3229
   20MOL0     N 2615  11.273   4.608   3.322  0.2560  0.5635 -0.3140
   20MOL0     N 2616  11.199   4.526   3.381  0.5891  0.4739 -0.1915
   20MOL0     C 2617  10.066   4.590   3.987 -0.2642 -0.1936 -0.3601
   20MOL0     C 2618   9.987   4.694   4.037  1.2333 -0.6184  0.0001
   20MOL0     C 2619   9.667   4.929   4.167 -0.0548  0.1724 -1.4718
   20MOL0     C 2620   9.561   4.896   4.084  1.0572 -0.0664 -0.0250
   20MOL0     C 2621   9.425   4.931   4.125  0.1817  0.4432  0.0266
   20MOL0     C 2622   9.398   4.968   4.255  0.1655  0.8131  1.2617
   20MOL0     O 2623   9.281   4.962   4.319  1.5919 -0.3435  0.4442
   20MOL0     C 2624   9.166   4.955   4.237  0.1054 -0.0963 -0.8180
   20MOL0     C 2625   9.126   4.813   4.192  0.0509  0.1327  0.5390
   20MOL0     C 2626   9.000   4.763   4.269  0.4502 -0.1594 -0.1045
   20MOL0     C 2627   8.964   4.615   4.220 -0.2730 -0.1065  0.3422
   20MOL0     C 2628   8.830   4.584   4.241  0.0916  0.0511 -0.1138
   20MOL0     C 2629   8.714   4.557   4.269  0.1445  0.6826 -0.0763
   20MOL0     C 2630   9.506   4.984   4.336  0.9683  0.1867  0.4079
   20MOL0     C 2631   9.634   4.977   4.296 -0.1999 -0.1566 -0.0039
   20MOL0     C 2632   9.732   5.029   4.402 -0.2380 -0.1210  0.0685
   20MOL0     H 2633   9.903   4.847   3.748  2.8496  1.4948 -2.2432
   20MOL0     H 2634  10.061   4.676   3.658 -0.5817  0.1360 -0.2018
   20MOL0     H 2635  10.272   4.538   3.623 -0.5324  2.3293  0.3700
   20MOL0     H 2636  10.338   4.612   3.767  0.9117 -0.5684  1.3800
   20MOL0     H 2637  10.336   4.314   3.736 -0.0716 -1.1094  2.7871
   20MOL0     H 2638  10.420   4.403   3.859  1.6994  2.7726 -0.0453
   20MOL0     H 2639  10.497   4.398   3.563  0.7140 -1.5392 -0.0673
   20MOL0     H 2640  10.576   4.331   3.707  4.1672  2.0283 -1.4435
   20MOL0     H 2641  10.532   4.631   3.665  2.0458  1.2603  0.1322
   20MOL0     H 2642  10.629   4.545   3.787 -1.5033  2.1776  1.6061
   20MOL0     H 2643  10.674   4.510   3.496  0.3919  2.0027 -1.5645
   20MOL0     H 2644  10.718   4.661   3.573 -0.9797  0.1502  0.0401
   20MOL0     H 2645  10.855   4.505   3.740 -1.7343 -0.6754  1.3971
   20MOL0     H 2646  10.836   4.376   3.622 -0.9857  0.7164  1.3088
   20MOL0     H 2647  10.947   4.643   3.534  1.7523 -0.9060 -1.7030
   20MOL0     H 2648  10.945   4.488   3.454  1.0993  0.0089 -0.4933
   20MOL0     H 2649  11.101   4.559   3.702 -3.0263 -0.0683  0.7246
   20MOL0     H 2650  11.092   4.400   3.610 -0.2654  0.1246  3.1149
   20MOL0     H 2651  11.261   4.737   3.624 -2.0251  2.2116 -0.8037
   20MOL0     H 2652  11.411   4.838   3.275  0.3915  0.4139  1.2885
   20MOL0     H 2653  11.330   4.923   3.400  2.3398  1.7616  0.2649
   20MOL0     H 2654  11.569   4.780   3.466 -2.2237 -0.4927 -1.9414
   20MOL0     H 2655  11.563   4.960   3.433  2.2562 -2.0184 -2.3207
   20MOL0     H 2656  11.412   4.838   3.667  1.6860 -0.3334  1.0752
   20MOL0     H 2657  11.422   5.010   3.615 -1.4067 -0.3609  0.0178
   20MOL0     H 2658  11.631   4.824   3.737 -1.4908  0.4934  0.5002
   20MOL0     H 2659  11.555   4.973   3.801 -0.5237  4.9385 -2.5707
   20MOL0     H 2660  11.895   5.157   3.547  0.6790  2.2695  0.7488
   20MOL0     H 2661  12.101   5.215   3.650  1.9189 -0.1837  0.8197
   20MOL0     H 2662  12.318   4.860   4.126 -2.9104  0.2385  0.9562
   20MOL0     H 2663  12.468   4.885   4.320 -2.1134  1.1071  2.2511
   20MOL0     H 2664  12.719   5.278   4.378 -0.6883  1.9104  0.6506
   20MOL0     H 2665  12.576   5.275   4.485  0.2175  3.3793 -1.8744
   20MOL0     H 2666  12.719   5.107   4.614 -0.5486  0.7367 -1.0021
   20MOL0     H 2667  12.855   5.152   4.521 -0.0521 -4.0146  1.5825
   20MOL0     H 2668  12.782   5.404   4.580  0.3269 -0.9541 -1.9054
   20MOL0     H 2669  12.723   5.337   4.722  2.4192  1.9269  1.0830
   20MOL0     H 2670  13.008   5.264   4.651  1.6031 -0.1921  1.8082
   20MOL0     H 2671  12.915   5.237   4.799 -2.1050 -1.4983 -0.5277
   20MOL0     H 2672  13.022   5.485   4.666  2.3151  0.1320  1.1513
   20MOL0     H 2673  13.053   5.415   4.838 -2.3287  0.7028  2.7876
   20MOL0     H 2674  12.816   5.590   4.749 -1.5478 -0.3168  0.5652
   20MOL0     H 2675  12.817   5.476   4.876 -0.0999 -1.2328 -0.7055
   20MOL0     H 2676  13.032   5.690   4.832 -1.9831  1.1140 -1.5744
   20MOL0     H 2677  13.014   5.600   4.986 -2.2691  3.3747  1.7411
   20MOL0     H 2678  12.853   5.829   4.885  0.7841 -0.1765 -1.0052
   20MOL0     H 2679  12.785   5.726   5.012  0.4095  0.1902 -1.2074
   20MOL0     H 2680  12.552   5.297   4.214 -0.0140  0.1428 -0.2650
   20MOL0     H 2681  12.373   5.272   4.040 -0.4337  0.4986  0.4671
   20MOL0     H 2682  12.004   4.972   3.980 -1.6107  2.7681  1.6303
   20MOL0     H 2683  11.800   4.902   3.880 -2.1125  0.1541 -1.3725
   20MOL0     H 2684  10.122   4.510   4.034  3.7007 -0.6758 -5.1695
   20MOL0     H 2685   9.976   4.707   4.144 -0.0556  1.3864 -0.3158
   20MOL0     H 2686   9.589   4.853   3.988  1.0269  3.2638 -1.6882
   20MOL0     H 2687   9.349   4.919   4.049  2.3846 -2.6725 -1.8947
   20MOL0     H 2688   9.170   5.022   4.150 -1.8828 -1.0558 -1.7065
   20MOL0     H 2689   9.082   4.994   4.296  1.9535  1.2215  1.1096
   20MOL0     H 2690   9.202   4.734   4.206 -0.4840 -0.4092  0.4236
   20MOL0     H 2691   9.088   4.818   4.090  0.8872  1.7931  0.2915
   20MOL0     H 2692   8.918   4.829   4.241 -1.3082 -1.0710  2.5304
   20MOL0     H 2693   9.021   4.768   4.377 -0.4797 -0.5680  0.1036
   20MOL0     H 2694   8.976   4.606   4.112 -1.3229 -1.4189  0.3088
   20MOL0     H 2695   9.019   4.533   4.267 -1.3925 -0.6522  0.7588
   20MOL0     H 2696   8.615   4.531   4.301  0.7765 -0.4602  1.0596
   20MOL0     H 2697   9.471   5.016   4.433  0.6881  3.3449 -0.6240
   20MOL0     H 2698   9.790   4.948   4.447  2.3475  0.8405 -1.3182
   20MOL0     H 2699   9.816   5.094   4.379  0.2065 -0.3058  1.1265
   20MOL0     H 2700   9.686   5.072   4.491 -1.1698  0.4291 -0.6459
   21MOL0     O 2701  11.398   6.564  11.053  0.9589  0.0693 -0.0543
   21MOL0     C 2702  11.463   6.650  11.106 -0.4171 -0.2507 -0.6689
   21MOL0     O 2703  11.547   6.623  11.203 -0.9488 -1.0798 -0.0740
   21MOL0     C 2704  11.545   6.507  11.274  0.1122  0.0058 -0.1931
   21MOL0     C 2705  11.435   6.420  11.284 -0.8692 -0.9319 -0.2864
   21MOL0     C 2706  11.440   6.310  11.364  0.3730 -0.7624 -0.5600
   21MOL0     C 2707  11.557   6.273  11.439  0.5797  0.8572  0.5686
   21MOL0     O 2708  11.552   6.145  11.491 -0.4097 -0.7948 -0.9071
   21MOL0     C 2709  11.648   6.109  11.588 -0.0227 -0.9739 -0.0598
   21MOL0     C 2710  11.665   5.960  11.606 -0.0673  0.2640 -0.3593
   21MOL0     C 2711  11.796   5.938  11.678  0.3320 -0.1071  0.0264
   21MOL0     C 2712  11.804   5.800  11.760 -0.1671  0.8333 -1.0407
   21MOL0     C 2713  11.948   5.764  11.784  0.0213  0.6649  0.4046
   21MOL0     C 2714  11.967   5.631  11.856  0.5703  0.6598 -0.7855
   21MOL0     C 2715  12.009   5.521  11.752  0.1103  0.2990 -0.2095
   21MOL0     C 2716  12.040   5.388  11.803 -0.0293 -0.7682  0.1280
   21MOL0     N 2717  11.965   5.288  11.730 -0.4769  0.2795  0.1357
   21MOL0     C 2718  12.029   5.214  11.627  0.4179 -0.4480 -0.8696
   21MOL0     C 2719  11.933   5.121  11.597  0.5409  0.0033 -0.3545
   21MOL0     C 2720  11.934   4.999  11.513 -0.5984  0.4247 -0.5020
   21MOL0     C 2721  11.874   5.031  11.378  0.3215 -0.2797  0.5094
   21MOL0     C 2722  11.862   4.908  11.285 -0.4360 -0.0698  0.3652
   21MOL0     C 2723  11.999   4.850  11.255 -1.1431 -0.5481  0.4097
   21MOL0     O 2724  11.987   4.776  11.128 -0.2686 -0.2828 -0.4282
   21MOL0     C 2725  11.992   4.641  11.127  0.7960  0.2801  0.0541
   21MOL0     C 2726  11.930   4.555  11.221 -0.6443  0.4831 -0.2989
   21MOL0     C 2727  11.942   4.413  11.202 -0.8431  0.7683  0.5248
   21MOL0     C 2728  12.023   4.352  11.098  0.9454 -0.2617 -0.5781
   21MOL0     C 2729  12.078   4.217  11.098  0.7954  0.3097 -0.6766
   21MOL0     O 2730  12.140   4.174  10.986  0.3579 -0.3671 -0.1364
   21MOL0     C 2731  12.199   4.057  10.969 -0.1864  1.1588  0.2676
   21MOL0     C 2732  12.229   4.031  10.839 -0.9513 -0.1723  0.4309
   21MOL0     C 2733  12.293   3.906  10.803  0.6303 -0.6586 -0.7805
   21MOL0     C 2734  12.313   3.806  10.897 -1.1689  0.3034 -0.0336
   21MOL0     O 2735  12.366   3.682  10.860  0.6230  0.3395  0.2104
   21MOL0     C 2736  12.441   3.667  10.733 -0.0054 -0.7035  0.2032
   21MOL0     C 2737  12.522   3.545  10.747  0.2736 -0.9445  0.6267
   21MOL0     C 2738  12.623   3.540  10.859 -0.7515  0.1879  0.0147
   21MOL0     C 2739  12.714   3.414  10.836  0.3531 -0.3587  0.7292
   21MOL0     C 2740  12.820   3.414  10.949  0.5022  0.2828  0.4451
   21MOL0     C 2741  12.772   3.305  11.047  1.0595  0.3167 -0.5026
   21MOL0     C 2742  12.768   3.155  10.997 -0.5416 -0.1273 -0.6252
   21MOL0     C 2743  12.631   3.094  11.033  0.5662 -0.1106  1.0920
   21MOL0    Cl 2744  12.606   3.083  11.206  0.1151  0.0481 -0.0391
   21MOL0     C 2745  12.277   3.833  11.031 -0.5658  0.6827  0.2374
   21MOL0     C 2746  12.231   3.959  11.070  0.0268 -0.9261  0.8557
   21MOL0     O 2747  12.066   4.153  11.202  0.3968  0.0558  1.0796
   21MOL0     C 2748  12.076   4.448  11.010 -0.5258  0.1090 -0.3771
   21MOL0     C 2749  12.045   4.582  11.012 -0.4983 -0.2483  0.5393
   21MOL0     N 2750  11.818   5.156  11.650  0.4422  0.0670 -0.0799
   21MOL0     N 2751  11.831   5.257  11.737 -0.5476  0.8866 -0.6370
   21MOL0     C 2752  11.657   6.355  11.413  0.9733 -0.2803 -0.6674
   21MOL0     C 2753  11.653   6.467  11.340 -0.0624  0.0815 -0.7374
   21MOL0     C 2754  11.452   6.788  11.052 -0.0804  0.4814 -0.0887
   21MOL0     C 2755  11.382   6.799  10.930  0.0727  0.0927 -0.2177
   21MOL0     C 2756  11.368   6.920  10.857 -0.8150  0.3274  0.0159
   21MOL0     C 2757  11.414   7.035  10.919 -0.6748 -1.2521 -0.5127
   21MOL0     O 2758  11.408   7.158  10.846 -0.2113 -0.1229  0.1911
   21MOL0     C 2759  11.396   7.283  10.913  0.0441  0.7498 -0.2178
   21MOL0     C 2760  11.253   7.286  10.974 -0.4543 -0.2649 -0.0105
   21MOL0     C 2761  11.148   7.300  10.858  0.4112  0.2692  0.0263
   21MOL0     C 2762  11.003   7.331  10.903  0.2450 -1.0142 -0.0636
   21MOL0     C 2763  10.905   7.352  10.796  0.1226 -0.9520 -0.7385
   21MOL0     C 2764  10.813   7.376  10.717  0.4447 -0.1081 -0.3749
   21MOL0     C 2765  11.470   7.019  11.045 -0.8443  0.0032  0.6295
   21MOL0     C 2766  11.502   6.903  11.112  0.5376 -0.8282 -0.2173
   21MOL0     C 2767  11.588   6.908  11.245  0.6610  0.0120 -0.2846
   21MOL0     H 2768  11.337   6.448  11.247 -0.7193 -3.2464 -2.7545
   21MOL0     H 2769  11.347   6.255  11.379 -0.8325  1.0464 -1.1173
   21MOL0     H 2770  11.746   6.141  11.552  0.5669 -0.7773  1.6092
   21MOL0     H 2771  11.627   6.151  11.687 -0.9965 -1.2185 -0.1577
   21MOL0     H 2772  11.647   5.912  11.509  0.7222  3.3571 -2.1796
   21MOL0     H 2773  11.583   5.927  11.671 -0.3287  1.3009 -0.1596
   21MOL0     H 2774  11.818   6.019  11.748  0.4793  0.6387 -0.8649
   21MOL0     H 2775  11.877   5.946  11.606  0.0994 -0.6933 -0.3065
   21MOL0     H 2776  11.754   5.816  11.856 -0.8748  2.7034 -1.6732
   21MOL0     H 2777  11.760   5.719  11.701  1.5176 -1.0317  0.1298
   21MOL0     H 2778  12.000   5.761  11.687  0.7456  1.9804  0.7273
   21MOL0     H 2779  11.991   5.846  11.844 -3.3037  2.1298  0.9814
   21MOL0     H 2780  12.039   5.643  11.937  0.0788 -0.7388 -0.1121
   21MOL0     H 2781  11.874   5.598  11.903  0.9325 -1.4201 -1.4248
   21MOL0     H 2782  12.099   5.557  11.702 -1.4926  2.1989 -1.9124
   21MOL0     H 2783  11.934   5.516  11.673 -0.7920 -0.5353  0.6527
   21MOL0     H 2784  12.148   5.375  11.796  0.1538  0.3239  0.6590
   21MOL0     H 2785  12.009   5.397  11.908  1.5145  3.2906  0.4206
   21MOL0     H 2786  12.134   5.216  11.601  0.5278 -0.4331 -0.4349
   21MOL0     H 2787  12.033   4.953  11.511 -2.1222 -3.2150  0.4445
   21MOL0     H 2788  11.870   4.920  11.552  0.9201 -0.5658  0.0584
   21MOL0     H 2789  11.776   5.080  11.390 -1.2820 -2.8480 -1.2165
   21MOL0     H 2790  11.947   5.098  11.333 -0.2851  1.2316  1.6517
   21MOL0     H 2791  11.820   4.946  11.191  0.7954 -1.3266 -0.7425
   21MOL0     H 2792  11.785   4.844  11.330 -0.2821 -0.0095  0.7134
   21MOL0     H 2793  12.029   4.789  11.341 -0.6056 -0.0430  0.5865
   21MOL0     H 2794  12.072   4.929  11.238 -1.8056 -0.4772 -2.6575
   21MOL0     H 2795  11.891   4.591  11.316  0.3244  0.2179  0.2174
   21MOL0     H 2796  11.900   4.352  11.281 -2.8332  0.1175 -0.9695
   21MOL0     H 2797  12.198   4.107  10.767  0.0109 -0.3921 -0.2443
   21MOL0     H 2798  12.332   3.889  10.703  0.3567  0.4312 -1.0869
   21MOL0     H 2799  12.364   3.647  10.658  0.9756 -4.0561 -0.0765
   21MOL0     H 2800  12.507   3.752  10.714 -0.4480 -0.9694 -2.9669
   21MOL0     H 2801  12.459   3.455  10.747 -4.0117  1.5381 -4.3772
   21MOL0     H 2802  12.575   3.535  10.652 -0.6279 -1.8538  0.1999
   21MOL0     H 2803  12.690   3.627  10.848 -1.2259  0.3406 -2.1721
   21MOL0     H 2804  12.576   3.551  10.957 -2.8473  2.6685 -1.1244
   21MOL0     H 2805  12.776   3.428  10.747  0.3748  2.4840  1.0981
   21MOL0     H 2806  12.658   3.321  10.821 -2.6056  1.0504  2.2459
   21MOL0     H 2807  12.827   3.513  10.995 -1.2339 -0.2162  1.9147
   21MOL0     H 2808  12.919   3.392  10.909  0.5100  2.3221 -0.7889
   21MOL0     H 2809  12.834   3.309  11.137  1.1280  0.2038 -0.5437
   21MOL0     H 2810  12.678   3.343  11.087  2.3264  1.2335  1.7569
   21MOL0     H 2811  12.840   3.083  11.036 -1.4782 -0.7625 -0.0249
   21MOL0     H 2812  12.783   3.142  10.890  1.6509 -0.5752 -0.3079
   21MOL0     H 2813  12.559   3.167  10.996  2.7147  0.7734 -1.7021
   21MOL0     H 2814  12.606   2.998  10.986  0.3935  1.0409 -1.3501
   21MOL0     H 2815  12.300   3.761  11.109 -1.6964  1.7306  1.5875
   21MOL0     H 2816  12.225   3.980  11.176  2.2442 -1.3516  1.1095
   21MOL0     H 2817  12.149   4.418  10.935  0.4120  0.1065  0.5072
   21MOL0     H 2818  12.083   4.656  10.942  0.3701 -0.6643  0.5677
   21MOL0     H 2819  11.758   6.342  11.451  1.6876  0.2416 -2.2741
   21MOL0     H 2820  11.748   6.519  11.332  0.5036 -0.9491 -0.8491
   21MOL0     H 2821  11.331   6.714  10.886 -0.2560  0.3732 -0.3942
   21MOL0     H 2822  11.319   6.924  10.760  1.8277  4.3950 -1.4297
   21MOL0     H 2823  11.414   7.364  10.842  2.4159  0.7655  0.3073
   21MOL0     H 2824  11.474   7.289  10.990  0.6429 -0.1011 -0.7420
   21MOL0     H 2825  11.248   7.371  11.042 -3.0672 -1.0024  0.8320
   21MOL0     H 2826  11.235   7.202  11.042  0.3549  0.4480  1.1294
   21MOL0     H 2827  11.139   7.210  10.797 -2.4224 -0.3230  1.1584
   21MOL0     H 2828  11.177   7.381  10.791  0.4473 -1.2748 -1.9292
   21MOL0     H 2829  10.976   7.243  10.961  0.8622 -1.4736 -0.4651
   21MOL0     H 2830  11.006   7.416  10.972  3.1160  0.5183 -1.8557
   21MOL0     H 2831  10.737   7.389  10.643  0.8136 -1.3231 -0.9952
   21MOL0     H 2832  11.507   7.109  11.094  2.3558 -0.6866 -0.2613
   21MOL0     H 2833  11.640   7.004  11.248 -1.6860  1.3469  0.2667
   21MOL0     H 2834  11.517   6.895  11.327  0.5793 -0.6795 -0.4566
   21MOL0     H 2835  11.663   6.829  11.251  0.5199  0.0084  2.0798
   22MOL0     O 2836   4.955   6.253   1.208 -0.3858 -0.2833  0.5927
   22MOL0     C 2837   5.017   6.199   1.302 -1.7443  0.4579 -0.2299
   22MOL0     O 2838   4.963   6.156   1.420  0.1543  0.5106 -0.6816
   22MOL0     C 2839   4.846   6.231   1.442  0.4917 -0.2348 -0.2290
   22MOL0     C 2840   4.718   6.185   1.402  0.3178  0.6027 -1.0094
   22MOL0     C 2841   4.600   6.263   1.436  0.2094 -0.3407  0.8611
   22MOL0     C 2842   4.616   6.386   1.502 -0.9225  1.3019  0.6814
   22MOL0     O 2843   4.513   6.465   1.535  0.3146  0.0434 -0.2131
   22MOL0     C 2844   4.533   6.608   1.555 -0.7472 -0.4357 -0.4453
   22MOL0     C 2845   4.417   6.693   1.522  0.5029  0.9954  0.4606
   22MOL0     C 2846   4.294   6.676   1.621  0.3474 -0.3919  0.7038
   22MOL0     C 2847   4.325   6.655   1.770  0.0590 -0.3862  0.8078
   22MOL0     C 2848   4.202   6.670   1.854  0.0538 -0.3698  0.1117
   22MOL0     C 2849   4.127   6.543   1.862 -0.5682 -0.3277  0.2547
   22MOL0     C 2850   3.990   6.558   1.931 -0.8850 -0.0726  0.7140
   22MOL0     C 2851   3.917   6.436   1.951 -0.6988  0.0126  0.1237
   22MOL0     N 2852   3.791   6.453   2.027  0.0531  0.5943  0.7468
   22MOL0     C 2853   3.668   6.489   1.963 -0.2292 -1.0611 -0.0722
   22MOL0     C 2854   3.587   6.500   2.080 -1.1250 -0.1918 -0.3293
   22MOL0     C 2855   3.436   6.515   2.071  0.7386 -0.1563  0.0734
   22MOL0     C 2856   3.365   6.429   2.177 -0.1780  0.5269 -0.4889
   22MOL0     C 2857   3.344   6.496   2.318  0.1481  0.2380 -0.6138
   22MOL0     C 2858   3.233   6.598   2.306 -0.8749  1.0167 -0.6046
   22MOL0     O 2859   3.102   6.541   2.269  0.3727 -0.0333 -0.6937
   22MOL0     C 2860   3.046   6.456   2.363  0.3259 -0.5039  0.2730
   22MOL0     C 2861   3.065   6.463   2.499 -0.1777  0.2325  0.0181
   22MOL0     C 2862   3.013   6.379   2.595 -0.8784  0.3082 -0.2760
   22MOL0     C 2863   2.924   6.280   2.551 -0.8501 -0.2717  1.1503
   22MOL0     C 2864   2.858   6.184   2.637 -0.4925  0.8270  0.2394
   22MOL0     O 2865   2.877   6.210   2.775  0.3158  0.3239  0.6239
   22MOL0     C 2866   2.830   6.105   2.847  0.5368 -0.4832  0.1699
   22MOL0     C 2867   2.925   6.005   2.881  0.9309  0.8456  0.9051
   22MOL0     C 2868   2.877   5.901   2.964  0.3587 -0.2884 -0.2269
   22MOL0     C 2869   2.746   5.899   3.019  0.4411 -0.4980 -0.1233
   22MOL0     O 2870   2.696   5.795   3.087 -0.0716 -0.5900 -0.4223
   22MOL0     C 2871   2.757   5.667   3.072 -0.3218  0.5344  0.5272
   22MOL0     C 2872   2.662   5.561   3.141 -0.3527  0.3894  0.1042
   22MOL0     C 2873   2.525   5.541   3.083 -1.1516 -0.6019 -0.7017
   22MOL0     C 2874   2.530   5.452   2.964 -0.3143  0.2691  0.5693
   22MOL0     C 2875   2.390   5.451   2.895 -0.1271  0.5047  1.3239
   22MOL0     C 2876   2.305   5.329   2.929  1.0023  0.1684  0.0646
   22MOL0     C 2877   2.244   5.333   3.075 -0.5497 -0.6047  1.3277
   22MOL0     C 2878   2.106   5.273   3.083 -0.2134 -0.6536  0.4295
   22MOL0    Cl 2879   1.983   5.369   2.991 -0.1128 -0.3240  0.1220
   22MOL0     C 2880   2.659   6.003   2.986 -0.0189  0.1434  0.1135
   22MOL0     C 2881   2.702   6.112   2.901 -0.0798  0.2421 -0.1658
   22MOL0     O 2882   2.808   6.085   2.584 -0.1472 -0.5038  0.3092
   22MOL0     C 2883   2.893   6.275   2.415 -0.4187  0.2144  0.6038
   22MOL0     C 2884   2.950   6.357   2.313  0.4355  0.1715 -0.7749
   22MOL0     N 2885   3.661   6.464   2.197 -0.4085 -0.1841 -0.7731
   22MOL0     N 2886   3.781   6.445   2.157  0.3368  0.0406 -1.0445
   22MOL0     C 2887   4.746   6.426   1.539 -0.3550  0.7103  0.2173
   22MOL0     C 2888   4.860   6.347   1.514 -0.0024  0.0708 -0.1772
   22MOL0     C 2889   5.162   6.158   1.280  1.0128 -0.0115 -0.0560
   22MOL0     C 2890   5.227   6.085   1.385  0.4864  0.6797  0.7044
   22MOL0     C 2891   5.361   6.056   1.382 -0.2144 -0.0458 -0.5637
   22MOL0     C 2892   5.434   6.086   1.266 -1.2905  0.4183  0.3685
   22MOL0     O 2893   5.573   6.076   1.279 -0.1240 -0.0689 -0.1531
   22MOL0     C 2894   5.624   6.028   1.156 -0.9931  0.0731 -0.2691
   22MOL0     C 2895   5.751   5.965   1.186  0.5186  0.1562 -0.5408
   22MOL0     C 2896   5.810   5.896   1.058  1.1327  0.3836 -0.4400
   22MOL0     C 2897   5.912   5.787   1.087 -0.9555 -0.7559  0.2634
   22MOL0     C 2898   5.980   5.738   0.964 -0.1050 -0.6047  1.4108
   22MOL0     C 2899   6.052   5.691   0.869 -0.2207  0.3266 -0.1486
   22MOL0     C 2900   5.365   6.140   1.152  0.4717 -0.1551 -1.4719
   22MOL0     C 2901   5.231   6.184   1.163 -0.0619  0.3366 -0.2475
   22MOL0     C 2902   5.182   6.263   1.049  1.5790 -0.6230 -0.5950
   22MOL0     H 2903   4.712   6.089   1.353  3.5835 -0.3898  0.2755
   22MOL0     H 2904   4.502   6.223   1.416 -0.3066  1.7607 -1.2576
   22MOL0     H 2905   4.573   6.626   1.655 -0.5159 -3.6138  0.1386
   22MOL0     H 2906   4.610   6.636   1.481 -0.9678 -1.4285 -1.0671
   22MOL0     H 2907   4.386   6.666   1.420  1.3905 -1.8772  0.8750
   22MOL0     H 2908   4.435   6.800   1.535 -0.0566  1.1746 -0.1654
   22MOL0     H 2909   4.235   6.591   1.585  0.1232  0.6482 -1.5394
   22MOL0     H 2910   4.228   6.762   1.609  1.7439  0.7076  0.5723
   22MOL0     H 2911   4.374   6.558   1.785 -2.6451 -2.0644 -0.4240
   22MOL0     H 2912   4.385   6.741   1.800 -1.3218  1.2743 -0.9395
   22MOL0     H 2913   4.231   6.713   1.950 -2.3649 -4.3149  2.8981
   22MOL0     H 2914   4.144   6.750   1.805  1.4093  1.4075  1.2654
   22MOL0     H 2915   4.112   6.512   1.758  1.3826 -1.8090  0.3485
   22MOL0     H 2916   4.169   6.459   1.918  1.6248  0.5274 -0.0250
   22MOL0     H 2917   3.926   6.620   1.868 -3.0693 -2.0832  0.7987
   22MOL0     H 2918   3.998   6.609   2.028 -2.1868  1.2844  0.1374
   22MOL0     H 2919   3.917   6.391   1.851  2.7845 -2.1531  0.9267
   22MOL0     H 2920   3.981   6.368   2.008 -0.9455 -0.2347  0.1109
   22MOL0     H 2921   3.630   6.485   1.861  0.7679  0.8567 -0.5627
   22MOL0     H 2922   3.402   6.618   2.060 -0.4241 -0.1319  2.9796
   22MOL0     H 2923   3.419   6.464   1.976 -1.3927  0.6441 -0.0251
   22MOL0     H 2924   3.265   6.405   2.140  0.1002 -1.3985 -0.0726
   22MOL0     H 2925   3.419   6.334   2.179  0.6167  0.8222 -3.4010
   22MOL0     H 2926   3.435   6.546   2.350 -1.4374  2.1288  1.2242
   22MOL0     H 2927   3.328   6.422   2.398 -0.8610  1.7582  0.6495
   22MOL0     H 2928   3.255   6.665   2.222 -2.6004  0.8093 -1.2544
   22MOL0     H 2929   3.233   6.651   2.402 -1.8324  2.0970 -1.1806
   22MOL0     H 2930   3.129   6.535   2.550  0.6608  0.2613 -1.0394
   22MOL0     H 2931   3.051   6.380   2.697  1.1961  0.5094 -1.0015
   22MOL0     H 2932   3.030   6.003   2.854  0.9261  2.5081  0.6657
   22MOL0     H 2933   2.951   5.828   2.994  1.2951  1.2701  1.5130
   22MOL0     H 2934   2.773   5.638   2.967  0.6616 -0.1400  0.8511
   22MOL0     H 2935   2.854   5.666   3.122  0.1345 -0.1827 -0.3368
   22MOL0     H 2936   2.719   5.468   3.138  0.1787  0.6806  0.9522
   22MOL0     H 2937   2.644   5.581   3.247 -1.6957 -2.9812  0.6430
   22MOL0     H 2938   2.455   5.502   3.158 -2.2097  2.5386  0.0950
   22MOL0     H 2939   2.495   5.640   3.047 -0.2489  0.2895  0.8650
   22MOL0     H 2940   2.554   5.349   2.990 -0.2588 -0.1944 -1.1947
   22MOL0     H 2941   2.609   5.477   2.892 -1.4358 -2.3741 -1.7546
   22MOL0     H 2942   2.390   5.448   2.786 -2.3922  0.2901  1.2935
   22MOL0     H 2943   2.330   5.541   2.912 -1.0629 -0.1187  1.3491
   22MOL0     H 2944   2.218   5.318   2.863  2.3528 -6.6350 -1.3621
   22MOL0     H 2945   2.364   5.239   2.909 -0.0213 -0.6382  0.5890
   22MOL0     H 2946   2.241   5.438   3.107  4.0837  1.1177 -2.7075
   22MOL0     H 2947   2.304   5.273   3.145 -0.5522 -1.5937  0.5008
   22MOL0     H 2948   2.104   5.171   3.042  2.6756 -0.3512 -0.7240
   22MOL0     H 2949   2.071   5.266   3.186  0.7972 -2.5921  0.7023
   22MOL0     H 2950   2.560   6.012   3.028  0.7964  0.6021  2.0789
   22MOL0     H 2951   2.640   6.194   2.865 -0.8965  0.0372  0.7218
   22MOL0     H 2952   2.814   6.207   2.383  1.2769 -0.3500 -2.7930
   22MOL0     H 2953   2.908   6.368   2.214  0.0025  1.1066 -0.4934
   22MOL0     H 2954   4.744   6.519   1.595 -0.7065  1.3211 -0.7947
   22MOL0     H 2955   4.954   6.384   1.552 -0.7931  0.2456  1.7276
   22MOL0     H 2956   5.170   6.036   1.463  1.7001 -1.1605  0.5123
   22MOL0     H 2957   5.407   6.009   1.469  0.7050  1.3309 -0.2756
   22MOL0     H 2958   5.642   6.112   1.089 -0.6721  1.5086  1.5581
   22MOL0     H 2959   5.559   5.961   1.099 -0.2114  1.2129 -2.6162
   22MOL0     H 2960   5.731   5.893   1.266 -1.4429  1.7213  0.4707
   22MOL0     H 2961   5.807   6.048   1.229 -1.2143  1.6938 -1.0700
   22MOL0     H 2962   5.858   5.971   0.995  1.6552 -1.9134 -2.9968
   22MOL0     H 2963   5.726   5.851   1.004  0.1599 -0.0594  1.3947
   22MOL0     H 2964   5.987   5.820   1.159 -0.1393  0.9991 -1.2863
   22MOL0     H 2965   5.856   5.706   1.134 -2.3428 -0.7383 -1.2628
   22MOL0     H 2966   6.116   5.644   0.798  0.0020 -1.9093  1.4188
   22MOL0     H 2967   5.423   6.161   1.063  0.4574 -1.6407 -1.8550
   22MOL0     H 2968   5.127   6.352   1.081  1.3694 -0.8867 -0.1943
   22MOL0     H 2969   5.263   6.300   0.986  0.8164 -0.0912 -1.2724
   22MOL0     H 2970   5.107   6.208   0.991  2.1950 -2.3522  0.1816
   23MOL0     O 2971   9.229   8.702   3.759 -1.0316  0.2045 -0.6967
   23MOL0     C 2972   9.244   8.683   3.881  0.8534  0.4709 -0.3529
   23MOL0     O 2973   9.164   8.728   3.990 -0.1210 -0.0770 -0.2359
   23MOL0     C 2974   9.062   8.812   3.953 -0.1431 -0.6711  0.8414
   23MOL0     C 2975   8.954   8.760   3.867  0.4237 -0.3494  0.3820
   23MOL0     C 2976   8.867   8.859   3.817 -0.6838  0.0961 -0.2045
   23MOL0     C 2977   8.872   8.998   3.857  0.6657 -0.1407  0.0070
   23MOL0     O 2978   8.777   9.085   3.808 -0.0927 -0.2103  0.0465
   23MOL0     C 2979   8.781   9.215   3.866  0.5017  0.1621 -0.4649
   23MOL0     C 2980   8.689   9.303   3.789  0.7152 -0.2258 -0.9526
   23MOL0     C 2981   8.767   9.352   3.673 -0.1487 -0.9690 -0.4393
   23MOL0     C 2982   8.689   9.435   3.567  0.6169 -0.5509 -0.4032
   23MOL0     C 2983   8.784   9.449   3.442  0.4298  0.1565 -0.2254
   23MOL0     C 2984   8.694   9.508   3.333 -0.5185  0.1339  0.3941
   23MOL0     C 2985   8.768   9.540   3.210 -0.3372  0.4019  0.6377
   23MOL0     C 2986   8.678   9.571   3.088  0.2405 -0.0578 -0.4045
   23MOL0     N 2987   8.759   9.609   2.967 -0.0780  0.2775 -0.9594
   23MOL0     C 2988   8.851   9.706   2.964 -0.3873  0.4005  0.2494
   23MOL0     C 2989   8.862   9.732   2.835  1.0288  0.3076 -0.0336
   23MOL0     C 2990   8.945   9.836   2.762  0.0252 -0.6074 -0.2664
   23MOL0     C 2991   8.867   9.971   2.738 -0.1917 -0.3340  1.4874
   23MOL0     C 2992   8.963  10.091   2.719  0.8244 -0.3250  0.0643
   23MOL0     C 2993   8.886  10.216   2.665  0.2881 -0.4768  0.7183
   23MOL0     O 2994   8.971  10.328   2.662 -0.8159  0.4529  0.7607
   23MOL0     C 2995   9.029  10.343   2.538  1.5060  0.2835  0.6469
   23MOL0     C 2996   8.965  10.434   2.456  0.1129 -0.4681 -0.2960
   23MOL0     C 2997   9.008  10.456   2.333 -0.0693 -0.4678 -0.2935
   23MOL0     C 2998   9.133  10.399   2.293 -0.2927 -0.6861  1.1005
   23MOL0     C 2999   9.185  10.431   2.159  0.0917  0.3773  0.5639
   23MOL0     O 3000   9.267  10.339   2.099 -0.4990  0.5323  0.4845
   23MOL0     C 3001   9.305  10.365   1.969 -0.7469  0.2948  0.1167
   23MOL0     C 3002   9.274  10.274   1.870 -0.7281  0.1815 -0.2934
   23MOL0     C 3003   9.303  10.291   1.730  0.1295  0.2539 -0.4865
   23MOL0     C 3004   9.369  10.402   1.691 -0.3396 -0.2475 -1.4603
   23MOL0     O 3005   9.396  10.435   1.557  0.0287  0.2038  0.3474
   23MOL0     C 3006   9.502  10.355   1.485  0.0590  0.0836  0.1688
   23MOL0     C 3007   9.551  10.430   1.359  0.6927 -0.4058 -0.8222
   23MOL0     C 3008   9.644  10.341   1.286  0.4635  0.2412 -0.5181
   23MOL0     C 3009   9.586  10.227   1.209 -0.1704 -0.1777  0.8421
   23MOL0     C 3010   9.678  10.109   1.181 -1.0206 -0.1470  0.3048
   23MOL0     C 3011   9.821  10.146   1.123 -0.1305 -0.0088  0.3490
   23MOL0     C 3012   9.787  10.227   0.997  0.3471  0.0320 -1.3413
   23MOL0     C 3013   9.914  10.266   0.906 -0.1027 -0.8251 -0.1112
   23MOL0    Cl 3014  10.017  10.126   0.845  0.1075  0.0757  0.4379
   23MOL0     C 3015   9.419  10.489   1.792 -0.1166  0.3444  0.0738
   23MOL0     C 3016   9.385  10.478   1.931 -1.0948 -0.1928  0.2381
   23MOL0     O 3017   9.128  10.522   2.098 -0.0649 -0.8206 -0.5858
   23MOL0     C 3018   9.211  10.313   2.381 -0.1621 -0.7135 -0.3276
   23MOL0     C 3019   9.145  10.287   2.503 -0.0170  0.4358 -0.6460
   23MOL0     N 3020   8.782   9.639   2.764  0.0456 -0.6442  0.6947
   23MOL0     N 3021   8.719   9.568   2.839 -0.8299  0.8093 -0.4316
   23MOL0     C 3022   8.961   9.033   3.964  0.6591  0.5483  0.3302
   23MOL0     C 3023   9.059   8.944   3.993 -0.2443  0.1071 -0.7902
   23MOL0     C 3024   9.360   8.585   3.914  0.0236  0.7231 -0.7838
   23MOL0     C 3025   9.445   8.526   3.811 -0.3240 -0.7424  0.1844
   23MOL0     C 3026   9.566   8.467   3.836  0.1031 -0.3253  0.5908
   23MOL0     C 3027   9.608   8.442   3.968 -1.0880 -0.2030  0.1656
   23MOL0     O 3028   9.731   8.379   3.983 -0.2033  1.0612  0.1494
   23MOL0     C 3029   9.797   8.353   4.098 -0.2175 -0.2654 -0.0600
   23MOL0     C 3030   9.739   8.249   4.187 -0.5869 -0.0722 -0.6172
   23MOL0     C 3031   9.786   8.249   4.339 -0.6471 -0.8383 -0.0886
   23MOL0     C 3032   9.704   8.176   4.444  0.3574  0.0044 -0.4346
   23MOL0     C 3033   9.571   8.240   4.438  0.4409  0.5480 -1.1427
   23MOL0     C 3034   9.463   8.298   4.428 -0.3427  0.2573 -0.8796
   23MOL0     C 3035   9.526   8.486   4.075 -0.0580 -0.6638  0.0570
   23MOL0     C 3036   9.401   8.549   4.055 -0.4779  0.4748  0.4142
   23MOL0     C 3037   9.311   8.557   4.171  0.1508  1.1204 -0.6322
   23MOL0     H 3038   8.956   8.656   3.837 -0.8135  0.1205 -1.5114
   23MOL0     H 3039   8.800   8.824   3.739  3.6470 -2.3441 -3.2576
   23MOL0     H 3040   8.752   9.210   3.971  1.9968 -1.6428 -0.0891
   23MOL0     H 3041   8.884   9.250   3.873  1.2478 -1.4967 -2.1509
   23MOL0     H 3042   8.658   9.377   3.864  3.7969  0.5877 -0.3608
   23MOL0     H 3043   8.599   9.250   3.756  1.4841 -0.4216 -2.8401
   23MOL0     H 3044   8.787   9.255   3.626 -2.1934 -1.6761  0.0308
   23MOL0     H 3045   8.857   9.398   3.714 -1.3824 -0.8119  2.3301
   23MOL0     H 3046   8.596   9.380   3.552  1.5281 -1.6479 -2.3887
   23MOL0     H 3047   8.652   9.530   3.605 -1.5560 -2.4368  2.6952
   23MOL0     H 3048   8.870   9.510   3.472 -0.5917  0.6341  1.8636
   23MOL0     H 3049   8.826   9.354   3.406  0.3828  0.1451 -0.2480
   23MOL0     H 3050   8.633   9.423   3.300  0.3491 -0.6445  0.7417
   23MOL0     H 3051   8.626   9.586   3.369 -0.0274  1.4080 -1.3348
   23MOL0     H 3052   8.835   9.457   3.189 -0.0694  1.3484 -2.8064
   23MOL0     H 3053   8.834   9.626   3.229  2.1533 -1.3504  0.4375
   23MOL0     H 3054   8.610   9.488   3.065 -0.8123  0.8774 -0.7491
   23MOL0     H 3055   8.609   9.654   3.108  0.2441 -0.6174  2.2094
   23MOL0     H 3056   8.905   9.759   3.041 -2.4536 -0.3188  2.3024
   23MOL0     H 3057   9.042   9.857   2.808 -0.7680  1.1523  0.7041
   23MOL0     H 3058   8.975   9.799   2.664 -3.1147  0.4611 -1.7821
   23MOL0     H 3059   8.829   9.951   2.637  1.1673  0.0414  0.8746
   23MOL0     H 3060   8.785   9.988   2.808 -0.7655  0.7428  0.6026
   23MOL0     H 3061   9.043  10.072   2.646 -2.1249  0.4957 -3.7553
   23MOL0     H 3062   9.006  10.120   2.815 -2.1901  1.0336  1.1198
   23MOL0     H 3063   8.798  10.243   2.725 -0.5722  3.5881 -1.9795
   23MOL0     H 3064   8.848  10.187   2.567  0.2427 -0.6750  0.7945
   23MOL0     H 3065   8.866  10.468   2.487  1.3493  3.2880  0.0726
   23MOL0     H 3066   8.950  10.519   2.267 -0.2439 -0.2974  0.0220
   23MOL0     H 3067   9.215  10.193   1.910 -1.2301  1.7025  2.3116
   23MOL0     H 3068   9.272  10.214   1.659 -1.2404  1.0312 -0.7584
   23MOL0     H 3069   9.587  10.322   1.546  0.0076  0.8332  0.6541
   23MOL0     H 3070   9.454  10.267   1.441  2.6707 -1.0507 -0.6028
   23MOL0     H 3071   9.462  10.456   1.301  1.2653 -1.1004 -2.0482
   23MOL0     H 3072   9.601  10.523   1.389 -0.3119 -0.1026 -0.0387
   23MOL0     H 3073   9.705  10.403   1.220  0.7472  0.4361 -0.0750
   23MOL0     H 3074   9.714  10.306   1.361  0.2073  1.9746  0.5775
   23MOL0     H 3075   9.558  10.268   1.112 -1.3833 -1.2676  0.7153
   23MOL0     H 3076   9.497  10.188   1.259 -1.3001  1.5917  0.3025
   23MOL0     H 3077   9.628  10.052   1.102  0.1747  1.5853 -1.8359
   23MOL0     H 3078   9.680  10.039   1.264 -1.0742 -1.8603 -1.0770
   23MOL0     H 3079   9.870  10.207   1.198 -0.2140  0.6085 -0.0906
   23MOL0     H 3080   9.889  10.065   1.095 -1.2062 -1.1351  0.8883
   23MOL0     H 3081   9.736  10.321   1.021 -2.1075 -1.6012  0.3322
   23MOL0     H 3082   9.717  10.169   0.935  1.1504 -0.5341 -1.7291
   23MOL0     H 3083   9.864  10.316   0.823 -2.4688 -2.4355  0.2659
   23MOL0     H 3084   9.986  10.327   0.962  1.0028 -0.8826 -1.4170
   23MOL0     H 3085   9.480  10.572   1.758 -0.7731  1.4182  1.4595
   23MOL0     H 3086   9.439  10.537   2.004  0.5599  0.4955 -1.4632
   23MOL0     H 3087   9.303  10.259   2.361  0.3232  0.2531 -0.7727
   23MOL0     H 3088   9.191  10.220   2.575 -0.5013 -1.1024 -1.6991
   23MOL0     H 3089   8.965   9.126   4.020  0.1143 -0.8610  2.8634
   23MOL0     H 3090   9.136   8.974   4.063 -1.0556 -0.6230  0.4437
   23MOL0     H 3091   9.413   8.549   3.710 -2.0133  2.9812  1.3830
   23MOL0     H 3092   9.635   8.452   3.753  1.2656 -2.2621  1.8349
   23MOL0     H 3093   9.799   8.447   4.155 -2.5302  1.1758 -2.1335
   23MOL0     H 3094   9.901   8.334   4.071 -0.3731  0.0428 -0.9023
   23MOL0     H 3095   9.752   8.148   4.147 -1.0308  0.1625 -1.3725
   23MOL0     H 3096   9.630   8.260   4.184 -0.6732  2.6436  3.7737
   23MOL0     H 3097   9.792   8.355   4.364 -4.4484 -0.8051  1.2673
   23MOL0     H 3098   9.887   8.207   4.348  0.1600  0.9544 -0.2974
   23MOL0     H 3099   9.691   8.071   4.414 -0.8085  0.2935 -1.0234
   23MOL0     H 3100   9.753   8.186   4.541 -1.2534  0.3953  0.3799
   23MOL0     H 3101   9.374   8.357   4.445  0.6698  1.4044  0.7699
   23MOL0     H 3102   9.567   8.473   4.175 -0.8367 -5.3300  0.0066
   23MOL0     H 3103   9.207   8.541   4.141  0.6828 -2.4702 -0.9027
   23MOL0     H 3104   9.336   8.474   4.237 -2.4774  1.0929  0.4418
   23MOL0     H 3105   9.333   8.644   4.234 -1.2459 -1.0495  3.2176
   24MOL0     O 3106   6.423  10.576  11.013  0.2170  0.8764  0.2478
   24MOL0     C 3107   6.323  10.624  11.059  0.0748 -0.4437 -0.3007
   24MOL0     O 3108   6.310  10.693  11.181  0.5753  0.0421  0.2801
   24MOL0     C 3109   6.414  10.718  11.274  0.2643  0.6935  0.2190
   24MOL0     C 3110   6.395  10.701  11.414 -0.2397  0.6620  0.8176
   24MOL0     C 3111   6.488  10.744  11.502  1.3133 -0.0802  0.3778
   24MOL0     C 3112   6.607  10.795  11.455 -0.4814  0.3508 -0.4978
   24MOL0     O 3113   6.709  10.816  11.543 -0.1103  0.3307  0.7201
   24MOL0     C 3114   6.671  10.894  11.658 -0.1630 -1.0951 -0.4876
   24MOL0     C 3115   6.677  10.796  11.787  0.0445  0.0921 -0.5099
   24MOL0     C 3116   6.667  10.870  11.921  0.8259  0.3537  0.4022
   24MOL0     C 3117   6.523  10.927  11.922  0.6136  0.1933 -0.5145
   24MOL0     C 3118   6.505  11.050  12.006 -0.1754  1.2540  0.5885
   24MOL0     C 3119   6.542  11.024  12.150 -0.9364 -0.1461 -0.8626
   24MOL0     C 3120   6.521  11.149  12.230 -0.1755  0.0500  0.1080
   24MOL0     C 3121   6.526  11.101  12.372  0.4181  0.1654 -0.3603
   24MOL0     N 3122   6.491  11.213  12.463  0.2345 -0.0640  1.2653
   24MOL0     C 3123   6.527  11.344  12.438  0.0840  0.4455  0.4836
   24MOL0     C 3124   6.467  11.415  12.531 -0.0140  0.1052 -0.5642
   24MOL0     C 3125   6.495  11.556  12.579 -0.1628  0.0942  0.8505
   24MOL0     C 3126   6.391  11.643  12.515 -0.9079 -0.4616 -0.7991
   24MOL0     C 3127   6.420  11.799  12.516  0.3632 -0.3469  0.0986
   24MOL0     C 3128   6.552  11.840  12.450  1.6002  0.1955 -1.1718
   24MOL0     O 3129   6.569  11.756  12.332  0.2329 -0.0396  0.0700
   24MOL0     C 3130   6.696  11.713  12.305 -0.5449  0.2352 -0.1014
   24MOL0     C 3131   6.690  11.609  12.209 -0.6675  0.5096 -1.3742
   24MOL0     C 3132   6.815  11.560  12.160  0.7305 -1.0664 -0.1304
   24MOL0     C 3133   6.935  11.614  12.212 -0.1727  0.7302 -0.2274
   24MOL0     C 3134   7.065  11.565  12.155 -0.3502 -0.5585  0.8964
   24MOL0     O 3135   7.055  11.478  12.056  0.6237  0.2200 -0.3949
   24MOL0     C 3136   7.167  11.406  12.027  0.6508  0.2272 -0.1525
   24MOL0     C 3137   7.257  11.358  12.135 -0.0648  0.3092  0.1702
   24MOL0     C 3138   7.366  11.276  12.113  0.4933  0.2224 -0.1541
   24MOL0     C 3139   7.392  11.231  11.979  0.7706  0.2507 -0.8258
   24MOL0     O 3140   7.501  11.154  11.941  0.8094  0.0253  0.0364
   24MOL0     C 3141   7.610  11.141  12.028 -0.4740 -0.3067  0.2185
   24MOL0     C 3142   7.725  11.086  11.948 -0.3567  0.2553 -0.2957
   24MOL0     C 3143   7.868  11.112  12.018  0.7120  0.0771 -0.0653
   24MOL0     C 3144   7.975  11.061  11.909  0.1752 -0.2854 -0.7798
   24MOL0     C 3145   8.114  11.058  11.975  0.1349  0.0691  0.1959
   24MOL0     C 3146   8.226  11.022  11.875  0.0515 -0.2505 -0.1442
   24MOL0     C 3147   8.365  11.023  11.934 -0.5106 -0.0492  0.2260
   24MOL0     C 3148   8.461  10.945  11.846 -0.3678 -0.9754  0.3467
   24MOL0    Cl 3149   8.624  10.944  11.921  0.4034  0.1684  0.1734
   24MOL0     C 3150   7.306  11.285  11.879  0.3697  1.6873 -0.2649
   24MOL0     C 3151   7.199  11.369  11.899 -0.2305 -0.0630 -1.1690
   24MOL0     O 3152   7.169  11.616  12.197 -0.1382 -0.2971 -0.3013
   24MOL0     C 3153   6.933  11.709  12.316  0.5738  0.0106  0.5993
   24MOL0     C 3154   6.811  11.763  12.356  0.1572 -1.0418  0.6311
   24MOL0     N 3155   6.399  11.337  12.612 -0.3236  0.7227 -0.6125
   24MOL0     N 3156   6.423  11.213  12.583  0.0097 -0.2664 -0.2478
   24MOL0     C 3157   6.629  10.809  11.320 -0.2651 -0.1897  0.5481
   24MOL0     C 3158   6.534  10.770  11.235 -0.9014 -0.1002 -0.2775
   24MOL0     C 3159   6.197  10.592  10.987 -0.6748 -0.0247  0.6641
   24MOL0     C 3160   6.096  10.530  11.056 -0.0219  0.7025  0.2128
   24MOL0     C 3161   5.969  10.502  10.999 -0.6894 -0.0552  0.2563
   24MOL0     C 3162   5.936  10.543  10.867 -0.8641 -0.6207  0.2486
   24MOL0     O 3163   5.815  10.507  10.809  0.6043  0.1377 -0.4853
   24MOL0     C 3164   5.759  10.601  10.718 -0.1164 -0.0934  0.5809
   24MOL0     C 3165   5.621  10.634  10.774  0.6039 -0.0049 -0.4489
   24MOL0     C 3166   5.539  10.716  10.680 -0.3131  0.4399 -0.2318
   24MOL0     C 3167   5.394  10.724  10.723  0.8518  0.2606 -1.6130
   24MOL0     C 3168   5.310  10.755  10.601  0.5283  0.2956  0.7183
   24MOL0     C 3169   5.235  10.761  10.506 -0.5671 -0.9314  0.2655
   24MOL0     C 3170   6.051  10.591  10.798  0.6335 -0.0495 -0.5733
   24MOL0     C 3171   6.180  10.627  10.847 -1.0740 -1.0358 -0.4680
   24MOL0     C 3172   6.288  10.689  10.751 -0.6423 -0.0555 -0.3114
   24MOL0     H 3173   6.300  10.658  11.442  1.0188 -2.5221  0.6725
   24MOL0     H 3174   6.472  10.734  11.609  1.7195  2.6359  0.7757
   24MOL0     H 3175   6.752  10.966  11.670  3.2821 -4.5943 -0.9082
   24MOL0     H 3176   6.576  10.948  11.648  0.0363 -0.1264  2.1062
   24MOL0     H 3177   6.776  10.748  11.788  0.6523  1.3153  1.3538
   24MOL0     H 3178   6.612  10.708  11.792  3.5013 -2.6467  3.7356
   24MOL0     H 3179   6.740  10.951  11.911  1.2999 -0.3722 -3.9815
   24MOL0     H 3180   6.683  10.805  12.007  3.0750  0.1116 -0.1402
   24MOL0     H 3181   6.485  10.963  11.826 -0.5139  1.5674  0.4048
   24MOL0     H 3182   6.444  10.853  11.941  0.1386  0.2482 -2.1114
   24MOL0     H 3183   6.566  11.126  11.957 -2.6724  1.0417 -3.3509
   24MOL0     H 3184   6.403  11.088  11.992  0.4479  2.5709 -0.6651
   24MOL0     H 3185   6.471  10.948  12.185  0.9923 -1.6572 -0.0826
   24MOL0     H 3186   6.647  10.999  12.165 -0.4237  2.3023  0.1082
   24MOL0     H 3187   6.421  11.188  12.210 -1.4948 -2.6896  0.8105
   24MOL0     H 3188   6.594  11.228  12.210 -1.1831  0.8426 -0.4925
   24MOL0     H 3189   6.448  11.027  12.394 -0.0066  1.4704  3.1304
   24MOL0     H 3190   6.626  11.069  12.401  1.1191  2.2916 -0.2290
   24MOL0     H 3191   6.607  11.371  12.370  1.9242 -2.9982  1.1006
   24MOL0     H 3192   6.491  11.546  12.688  0.5670 -2.3464  0.7150
   24MOL0     H 3193   6.593  11.587  12.545 -1.4739  1.2822 -2.1491
   24MOL0     H 3194   6.372  11.628  12.408 -4.3850 -0.2753 -0.3405
   24MOL0     H 3195   6.293  11.623  12.560 -0.4380  2.4592  1.9228
   24MOL0     H 3196   6.402  11.839  12.616  0.3025  0.5470 -0.2607
   24MOL0     H 3197   6.341  11.840  12.452 -0.4005 -2.2468 -0.2473
   24MOL0     H 3198   6.630  11.830  12.526 -1.0633 -1.7193  1.5282
   24MOL0     H 3199   6.537  11.942  12.414 -1.0991  0.5388  0.6025
   24MOL0     H 3200   6.600  11.559  12.176  0.5057 -2.2349 -0.7158
   24MOL0     H 3201   6.812  11.485  12.081 -0.4820 -3.0108  1.6414
   24MOL0     H 3202   7.255  11.383  12.241  0.3582 -1.9276  0.7569
   24MOL0     H 3203   7.419  11.241  12.201 -0.5347 -1.2370 -0.0814
   24MOL0     H 3204   7.634  11.244  12.058  2.4264 -0.4778 -1.1788
   24MOL0     H 3205   7.606  11.089  12.124  0.2412  0.7833  0.8662
   24MOL0     H 3206   7.716  10.982  11.914  1.8042 -0.2538  0.5114
   24MOL0     H 3207   7.737  11.141  11.855 -1.1825 -3.5442 -2.9035
   24MOL0     H 3208   7.883  11.217  12.046  1.4563  0.2774 -1.1451
   24MOL0     H 3209   7.874  11.054  12.111 -1.7091  2.5109  1.7397
   24MOL0     H 3210   7.981  11.118  11.816 -1.3962  1.8871  0.3633
   24MOL0     H 3211   7.945  10.957  11.893 -0.5237 -0.0717 -0.8961
   24MOL0     H 3212   8.106  10.988  12.058  0.2604  0.2246  0.3401
   24MOL0     H 3213   8.132  11.159  12.012  1.1742 -0.2573  0.6091
   24MOL0     H 3214   8.194  10.926  11.833  1.0791 -0.1465 -1.2270
   24MOL0     H 3215   8.229  11.092  11.791  1.5580  0.0563  0.1336
   24MOL0     H 3216   8.365  10.988  12.037  1.7177 -0.6488  0.0788
   24MOL0     H 3217   8.394  11.128  11.941  0.8449 -0.5174  2.3173
   24MOL0     H 3218   8.422  10.843  11.834 -1.7762 -0.2069 -2.4809
   24MOL0     H 3219   8.469  10.984  11.745  0.7760 -0.7541  0.5041
   24MOL0     H 3220   7.339  11.256  11.779 -0.6185 -1.9467  0.3405
   24MOL0     H 3221   7.143  11.404  11.813  0.3434 -0.2562 -1.6305
   24MOL0     H 3222   7.027  11.755  12.343  0.3261  1.3248 -0.6173
   24MOL0     H 3223   6.808  11.818  12.450  0.6055 -2.1068  1.2755
   24MOL0     H 3224   6.720  10.848  11.274 -0.4182 -0.1087  0.3112
   24MOL0     H 3225   6.550  10.789  11.129  2.5666 -1.4278 -0.1131
   24MOL0     H 3226   6.138  10.499  11.151  2.7109  1.3804 -0.6595
   24MOL0     H 3227   5.897  10.443  11.053  0.2631 -0.2547  1.3500
   24MOL0     H 3228   5.755  10.550  10.622  0.8070 -2.3902  1.6684
   24MOL0     H 3229   5.819  10.691  10.708  0.2067 -0.5951 -3.0518
   24MOL0     H 3230   5.618  10.695  10.864 -0.3034  2.5093 -2.0710
   24MOL0     H 3231   5.579  10.535  10.791  1.7155 -0.3080  0.6858
   24MOL0     H 3232   5.539  10.667  10.582 -1.3190 -2.3454  1.0541
   24MOL0     H 3233   5.604  10.804  10.684  0.6055 -0.2824  1.4886
   24MOL0     H 3234   5.349  10.636  10.770 -2.4620  2.4756 -0.2336
   24MOL0     H 3235   5.386  10.813  10.786 -0.6955 -0.2593 -1.0025
   24MOL0     H 3236   5.172  10.779  10.421  2.7119  0.0372 -2.1981
   24MOL0     H 3237   6.044  10.608  10.691 -1.3650 -0.0864 -0.4971
   24MOL0     H 3238   6.340  10.614  10.690  0.1800  1.0577 -1.0208
   24MOL0     H 3239   6.241  10.746  10.670  1.6121  1.0332 -0.9367
   24MOL0     H 3240   6.351  10.759  10.807 -3.1285 -0.2640  3.0944
   25MOL0     O 3241   3.477  10.778   4.373  0.6836  0.2470  0.9721
   25MOL0     C 3242   3.452  10.662   4.372  0.1398 -0.2515  0.7146
   25MOL0     O 3243   3.460  10.582   4.262 -0.0939 -0.5392 -0.5415
   25MOL0     C 3244   3.488  10.646   4.140  0.0764 -0.0759  0.7745
   25MOL0     C 3245   3.386  10.684   4.062  0.6051  0.4941 -0.1870
   25MOL0     C 3246   3.405  10.737   3.936 -0.3313  0.0142 -0.4465
   25MOL0     C 3247   3.535  10.755   3.887 -0.5762  0.1537 -0.4746
   25MOL0     O 3248   3.550  10.810   3.760  0.5654  0.2970 -0.4957
   25MOL0     C 3249   3.677  10.811   3.690 -0.1298  0.0607  0.8097
   25MOL0     C 3250   3.666  10.846   3.548 -0.2839 -0.3338  0.3680
   25MOL0     C 3251   3.609  10.992   3.517 -1.0971  0.2694  0.0724
   25MOL0     C 3252   3.668  11.039   3.388  0.3087  0.8112  0.0252
   25MOL0     C 3253   3.629  11.182   3.342 -0.0685  0.8860 -0.3438
   25MOL0     C 3254   3.689  11.216   3.205  0.7243 -1.0829 -0.7917
   25MOL0     C 3255   3.629  11.347   3.149 -0.3844  1.3470  0.5983
   25MOL0     C 3256   3.674  11.385   3.003 -0.5396 -0.5046  0.6125
   25MOL0     N 3257   3.701  11.276   2.904  0.3404  0.0072 -0.3347
   25MOL0     C 3258   3.825  11.213   2.887 -0.8792 -0.2789  0.2953
   25MOL0     C 3259   3.802  11.117   2.795 -0.3540 -0.5941 -0.6890
   25MOL0     C 3260   3.890  11.004   2.751 -0.9742  0.1569 -0.1157
   25MOL0     C 3261   4.034  11.035   2.727  1.2278 -0.2859  0.5028
   25MOL0     C 3262   4.116  10.910   2.717 -0.4830  0.7417  0.4975
   25MOL0     C 3263   4.172  10.840   2.838 -0.2127  0.6826  0.5939
   25MOL0     O 3264   4.238  10.921   2.939 -0.3749  0.1376 -0.6012
   25MOL0     C 3265   4.384  10.911   2.951  0.9390 -0.1543  0.2697
   25MOL0     C 3266   4.436  11.005   3.038  0.6345  0.0464  0.0158
   25MOL0     C 3267   4.573  11.029   3.049 -0.1003 -0.5309  0.6180
   25MOL0     C 3268   4.668  10.957   2.970  0.2073 -0.3837 -0.8442
   25MOL0     C 3269   4.815  10.999   2.964  0.6364 -0.9645  0.7047
   25MOL0     O 3270   4.897  10.935   2.873  0.1765 -0.0749 -0.8422
   25MOL0     C 3271   5.030  10.945   2.894  0.3686 -1.3680 -0.2827
   25MOL0     C 3272   5.104  11.066   2.872  0.0832  0.4208  0.3285
   25MOL0     C 3273   5.241  11.068   2.879  0.0794 -0.8935 -0.0942
   25MOL0     C 3274   5.319  10.960   2.906  0.9091  0.6699 -0.5002
   25MOL0     O 3275   5.458  10.947   2.909  0.1286 -0.4877  0.1434
   25MOL0     C 3276   5.529  11.073   2.912  0.5653  0.3551  0.0757
   25MOL0     C 3277   5.670  11.053   2.865  0.4178  0.2232 -0.1537
   25MOL0     C 3278   5.750  11.176   2.857  0.1443 -0.0630  1.3390
   25MOL0     C 3279   5.763  11.218   2.705 -0.3224 -0.7171 -0.3510
   25MOL0     C 3280   5.879  11.312   2.684  0.6712  0.1959  0.3978
   25MOL0     C 3281   6.017  11.248   2.721  0.9583 -0.4058  0.0927
   25MOL0     C 3282   6.124  11.340   2.678 -0.8740  0.3046  0.2217
   25MOL0     C 3283   6.138  11.465   2.764  0.4512 -0.0637 -0.4503
   25MOL0    Cl 3284   6.289  11.546   2.736 -0.1770 -0.2027  0.0217
   25MOL0     C 3285   5.247  10.843   2.941 -0.1087  0.4550  0.9200
   25MOL0     C 3286   5.112  10.838   2.928  1.5580 -0.2565  0.3829
   25MOL0     O 3287   4.848  11.079   3.049 -0.2309 -0.1160  0.7313
   25MOL0     C 3288   4.614  10.860   2.887 -0.0434  0.0581  0.0382
   25MOL0     C 3289   4.473  10.839   2.875 -0.0580  0.1766 -0.9349
   25MOL0     N 3290   3.669  11.130   2.761  0.6960  0.5861  0.4467
   25MOL0     N 3291   3.614  11.226   2.825  0.1723 -0.7394 -0.5443
   25MOL0     C 3292   3.645  10.701   3.958 -0.4277  1.7289 -0.1138
   25MOL0     C 3293   3.620  10.649   4.088  0.2283  0.6290 -0.3400
   25MOL0     C 3294   3.411  10.596   4.496 -0.2791 -0.0166 -0.0636
   25MOL0     C 3295   3.306  10.651   4.567 -0.0568 -0.0012 -0.6201
   25MOL0     C 3296   3.239  10.585   4.681  0.1319  0.6690 -0.2113
   25MOL0     C 3297   3.292  10.466   4.723 -0.3937 -0.5885  0.2582
   25MOL0     O 3298   3.245  10.430   4.844 -0.4950 -0.2059 -0.1904
   25MOL0     C 3299   3.220  10.289   4.860  0.0296 -0.4828 -0.2328
   25MOL0     C 3300   3.107  10.231   4.772 -0.4204  0.5791 -0.9352
   25MOL0     C 3301   3.138  10.208   4.623  0.5775 -0.3400  0.4381
   25MOL0     C 3302   3.073  10.078   4.570  0.1213 -0.6665  0.3457
   25MOL0     C 3303   2.928  10.066   4.575 -0.2245  0.9506 -0.7679
   25MOL0     C 3304   2.807  10.059   4.587 -0.5741 -0.3073  1.0721
   25MOL0     C 3305   3.403  10.411   4.647  0.4893  0.3347  0.7102
   25MOL0     C 3306   3.466  10.478   4.541  0.2071 -0.0045  0.2904
   25MOL0     C 3307   3.574  10.403   4.483 -0.2205 -0.5149 -0.1434
   25MOL0     H 3308   3.293  10.684   4.118  1.3406  4.1066  1.3006
   25MOL0     H 3309   3.318  10.772   3.882 -0.1297  1.4930  0.1193
   25MOL0     H 3310   3.741  10.874   3.752  0.1670  0.9650 -0.3651
   25MOL0     H 3311   3.724  10.712   3.695  1.2860  0.2858 -3.5708
   25MOL0     H 3312   3.617  10.768   3.488  0.3032 -0.8263  0.5246
   25MOL0     H 3313   3.768  10.834   3.509 -0.7952  0.1007 -1.1921
   25MOL0     H 3314   3.654  11.045   3.602  2.2962 -1.6416 -0.3564
   25MOL0     H 3315   3.500  10.995   3.512 -1.0316  1.6965 -1.3117
   25MOL0     H 3316   3.777  11.031   3.392  0.2018 -0.4514  0.8233
   25MOL0     H 3317   3.646  10.967   3.309 -0.0507 -0.2935  1.0986
   25MOL0     H 3318   3.521  11.190   3.331 -0.0943  0.3622 -0.4959
   25MOL0     H 3319   3.645  11.261   3.417  0.2707 -0.7265  1.3544
   25MOL0     H 3320   3.798  11.228   3.208  0.5302  1.0852 -1.0417
   25MOL0     H 3321   3.659  11.126   3.151 -0.8226 -1.4503  0.5964
   25MOL0     H 3322   3.660  11.427   3.217  1.5025  1.1076  0.0918
   25MOL0     H 3323   3.520  11.340   3.145 -0.4554  1.8362  1.4777
   25MOL0     H 3324   3.585  11.438   2.967 -0.7425  0.0007  1.7814
   25MOL0     H 3325   3.759  11.453   3.014 -0.7748 -0.2577  0.9852
   25MOL0     H 3326   3.917  11.235   2.939 -1.7541  0.0402  1.7610
   25MOL0     H 3327   3.886  10.924   2.826 -0.2527  0.7013  0.5266
   25MOL0     H 3328   3.854  10.960   2.658 -2.3901 -0.2717  0.6168
   25MOL0     H 3329   4.052  11.099   2.640 -0.5010  0.4482  0.6430
   25MOL0     H 3330   4.072  11.098   2.808  1.2851  0.0481  0.2171
   25MOL0     H 3331   4.204  10.919   2.654 -0.5409 -0.3959  0.2202
   25MOL0     H 3332   4.060  10.837   2.658 -2.4465  1.3721  1.4935
   25MOL0     H 3333   4.237  10.766   2.790  0.4551  2.5019 -1.4950
   25MOL0     H 3334   4.090  10.786   2.887  2.2171 -3.4177  0.5783
   25MOL0     H 3335   4.364  11.059   3.098  0.0856 -0.1085 -0.5004
   25MOL0     H 3336   4.598  11.113   3.113 -1.0958 -1.1765  1.8717
   25MOL0     H 3337   5.059  11.160   2.842  0.4003  2.0698  4.4025
   25MOL0     H 3338   5.285  11.166   2.860  3.0448 -1.7076  1.9419
   25MOL0     H 3339   5.496  11.146   2.838  2.3287 -0.9375 -2.1314
   25MOL0     H 3340   5.525  11.117   3.013 -1.8881 -3.2734  1.7844
   25MOL0     H 3341   5.720  10.992   2.941 -0.6921  0.7147  1.0170
   25MOL0     H 3342   5.663  11.005   2.767 -1.4667  0.4419 -0.1683
   25MOL0     H 3343   5.708  11.257   2.918  1.0994  1.2378  0.3317
   25MOL0     H 3344   5.850  11.157   2.897  1.0754  1.3665 -0.1552
   25MOL0     H 3345   5.673  11.274   2.677  0.6206  1.2575  0.3866
   25MOL0     H 3346   5.787  11.134   2.639  1.3007 -0.2961 -0.3440
   25MOL0     H 3347   5.853  11.393   2.753 -0.9338 -0.7530  0.9561
   25MOL0     H 3348   5.894  11.363   2.589  0.1634 -0.3617  0.0106
   25MOL0     H 3349   6.025  11.214   2.824  0.2087 -2.3032 -0.4402
   25MOL0     H 3350   6.020  11.163   2.653  1.7018 -0.3863  0.0998
   25MOL0     H 3351   6.120  11.372   2.574  3.8698  1.1202  0.0712
   25MOL0     H 3352   6.217  11.283   2.682 -0.1823  1.2153 -1.7829
   25MOL0     H 3353   6.055  11.535   2.747 -0.4469 -1.1030 -0.4553
   25MOL0     H 3354   6.140  11.427   2.866 -1.1686 -1.2825 -0.8240
   25MOL0     H 3355   5.305  10.758   2.975 -1.7090 -1.3103 -0.5328
   25MOL0     H 3356   5.053  10.747   2.937  1.1653 -0.1763 -1.1162
   25MOL0     H 3357   4.681  10.807   2.819  0.0585 -0.0145  0.1959
   25MOL0     H 3358   4.439  10.772   2.796  2.8429 -2.6809  0.0508
   25MOL0     H 3359   3.747  10.705   3.923  0.0262  0.7992  1.0263
   25MOL0     H 3360   3.690  10.605   4.158 -0.7172 -1.4006 -0.5834
   25MOL0     H 3361   3.258  10.739   4.528 -2.0622 -1.2769 -1.1823
   25MOL0     H 3362   3.170  10.642   4.742  1.1453  1.5951  0.0992
   25MOL0     H 3363   3.189  10.279   4.964 -1.9353 -2.5609 -0.9377
   25MOL0     H 3364   3.317  10.237   4.856  0.7750  0.9153 -1.1870
   25MOL0     H 3365   3.014  10.288   4.772 -2.0368 -1.9141 -0.1496
   25MOL0     H 3366   3.087  10.137   4.825  4.5426  1.1562  2.7898
   25MOL0     H 3367   3.247  10.197   4.610  0.8485  2.0407  0.2354
   25MOL0     H 3368   3.100  10.292   4.564 -0.9538 -1.5682 -0.3941
   25MOL0     H 3369   3.095  10.075   4.463  2.8204 -0.5977  0.8325
   25MOL0     H 3370   3.128   9.996   4.617  1.4395  0.3561  0.6578
   25MOL0     H 3371   2.701  10.043   4.596 -0.6612 -1.2740 -1.0980
   25MOL0     H 3372   3.462  10.323   4.672  4.0908  2.7378  1.5273
   25MOL0     H 3373   3.615  10.453   4.394 -1.2564  0.6593  0.0199
   25MOL0     H 3374   3.647  10.375   4.559 -0.9044 -0.5781  0.4968
   25MOL0     H 3375   3.537  10.309   4.440  3.3630 -1.7767 -0.9026
   26MOL0     O 3376  10.320  11.321   9.087  0.5020  0.2715  0.7178
   26MOL0     C 3377  10.209  11.364   9.082  0.3048 -1.5149  0.7580
   26MOL0     O 3378  10.095  11.308   9.120 -0.3287 -0.2247 -0.1446
   26MOL0     C 3379  10.094  11.182   9.169 -0.7646  0.3328 -0.3493
   26MOL0     C 3380  10.129  11.064   9.089  0.5220 -0.8446  0.0839
   26MOL0     C 3381  10.105  10.943   9.147  0.3617  0.1575 -0.4185
   26MOL0     C 3382  10.036  10.926   9.264  0.2325 -0.1621 -0.6509
   26MOL0     O 3383  10.017  10.799   9.298 -0.0493  0.2617 -0.0903
   26MOL0     C 3384   9.928  10.774   9.407 -0.2088 -0.6530 -0.0367
   26MOL0     C 3385   9.900  10.618   9.411 -1.2072 -0.5164  0.4943
   26MOL0     C 3386   9.757  10.599   9.463 -0.4525 -0.2702 -0.3463
   26MOL0     C 3387   9.729  10.461   9.498  0.7638  1.0535 -0.3908
   26MOL0     C 3388   9.588  10.446   9.553  0.2168 -0.6048  0.0016
   26MOL0     C 3389   9.562  10.293   9.593  0.8503 -0.4949 -0.1494
   26MOL0     C 3390   9.414  10.277   9.642 -0.0319 -0.2378  0.9574
   26MOL0     C 3391   9.370  10.127   9.658  0.2002  0.8612 -0.4464
   26MOL0     N 3392   9.232  10.120   9.706 -0.0026 -0.8707 -0.7162
   26MOL0     C 3393   9.185  10.021   9.777  0.5126  0.4988 -0.0716
   26MOL0     C 3394   9.059  10.051   9.818  0.1892  0.4677  1.2668
   26MOL0     C 3395   8.952   9.976   9.895 -0.4012  0.4167 -0.0626
   26MOL0     C 3396   8.940   9.838   9.840 -0.7099 -0.1277 -1.0086
   26MOL0     C 3397   8.865   9.737   9.929  0.1641  0.6357  0.0157
   26MOL0     C 3398   8.715   9.747   9.937 -0.6450  0.4695 -0.7934
   26MOL0     O 3399   8.659   9.690  10.053  1.0258 -0.6209 -0.4259
   26MOL0     C 3400   8.622   9.565  10.044  0.1616 -0.3298  1.0645
   26MOL0     C 3401   8.582   9.519  10.170  0.2038 -0.0676 -0.2632
   26MOL0     C 3402   8.560   9.386  10.195 -0.3277 -0.6331  0.0204
   26MOL0     C 3403   8.571   9.288  10.088 -0.3369 -0.2787  0.1718
   26MOL0     C 3404   8.547   9.145  10.117 -0.3310  0.0413 -0.3415
   26MOL0     O 3405   8.603   9.052  10.029 -0.6634  0.1290  0.0652
   26MOL0     C 3406   8.523   8.934  10.029  0.5328 -0.1498 -0.6868
   26MOL0     C 3407   8.561   8.812  10.092 -0.2492 -0.6864  0.2487
   26MOL0     C 3408   8.473   8.702  10.091  0.0774  0.2004  0.2810
   26MOL0     C 3409   8.350   8.706  10.022 -0.8700  0.5166  0.1909
   26MOL0     O 3410   8.260   8.597  10.020  0.1904 -0.1578 -0.6462
   26MOL0     C 3411   8.233   8.521  10.138  0.0395 -0.9010 -0.5854
   26MOL0     C 3412   8.117   8.615  10.203  0.0323  0.0564  0.3745
   26MOL0     C 3413   8.093   8.570  10.352 -0.5003 -0.2969 -0.3662
   26MOL0     C 3414   8.061   8.420  10.358  0.2816  0.1066  0.0804
   26MOL0     C 3415   8.019   8.372  10.498  0.9520  0.4340 -0.2601
   26MOL0     C 3416   7.984   8.219  10.488 -0.2769 -0.3484  0.7192
   26MOL0     C 3417   7.947   8.164  10.629 -0.6224 -0.6751 -0.5214
   26MOL0     C 3418   7.905   8.019  10.625  0.6237 -0.0855 -0.1861
   26MOL0    Cl 3419   7.787   7.971  10.499 -0.4168  0.5689  0.4154
   26MOL0     C 3420   8.327   8.817   9.952 -0.0154  0.8616 -0.0404
   26MOL0     C 3421   8.412   8.928   9.944 -0.2222 -0.0598 -0.5480
   26MOL0     O 3422   8.469   9.115  10.214 -0.4895 -0.5276  0.0600
   26MOL0     C 3423   8.613   9.335   9.964  0.0899  0.0574  1.3153
   26MOL0     C 3424   8.629   9.471   9.934  0.3260  0.6966 -0.4553
   26MOL0     N 3425   9.039  10.167   9.753 -0.9055  0.5436 -0.0885
   26MOL0     N 3426   9.139  10.215   9.689 -0.3598  1.2949 -0.3091
   26MOL0     C 3427   9.992  11.041   9.338  0.8849  0.5481 -0.4316
   26MOL0     C 3428  10.032  11.167   9.296  0.4415  0.1465  0.2409
   26MOL0     C 3429  10.195  11.502   9.035 -0.0384  0.3965  0.3085
   26MOL0     C 3430  10.280  11.541   8.928  0.5277  0.3259  0.0286
   26MOL0     C 3431  10.273  11.669   8.879 -0.6971  0.0941 -0.2983
   26MOL0     C 3432  10.194  11.768   8.938  0.3153  0.0681 -0.9908
   26MOL0     O 3433  10.190  11.889   8.880 -0.2158  0.0790  0.7006
   26MOL0     C 3434  10.305  11.936   8.806 -0.4984  0.3915 -0.7207
   26MOL0     C 3435  10.312  12.089   8.836  0.5330  0.3345  0.9021
   26MOL0     C 3436  10.348  12.174   8.711  0.1656  0.0900 -0.1760
   26MOL0     C 3437  10.342  12.320   8.758  0.3277  0.4365  0.6577
   26MOL0     C 3438  10.475  12.354   8.816 -0.2032  0.0637 -0.0904
   26MOL0     C 3439  10.584  12.376   8.865 -0.8192  0.1356  0.0649
   26MOL0     C 3440  10.095  11.720   9.033  0.2050  0.4521  0.8776
   26MOL0     C 3441  10.104  11.595   9.088  1.0337  0.1200  0.1763
   26MOL0     C 3442  10.024  11.573   9.214  0.1315 -0.1676 -1.2251
   26MOL0     H 3443  10.155  11.071   8.984 -0.1523 -4.5566 -0.4866
   26MOL0     H 3444  10.136  10.863   9.080  2.4526  0.1933  0.4224
   26MOL0     H 3445   9.983  10.803   9.497 -1.1807 -1.5851  0.8763
   26MOL0     H 3446   9.832  10.827   9.400  1.3530  2.1759 -2.0486
   26MOL0     H 3447   9.976  10.561   9.465 -0.9480 -0.5667  0.0763
   26MOL0     H 3448   9.905  10.572   9.312  2.0680  1.2359 -0.2947
   26MOL0     H 3449   9.687  10.622   9.383  0.7988 -1.5961 -1.8880
   26MOL0     H 3450   9.742  10.671   9.544 -2.8471 -1.5847  0.5031
   26MOL0     H 3451   9.747  10.402   9.407 -0.1791  2.9840 -1.9023
   26MOL0     H 3452   9.808  10.426   9.565  0.0117  0.2928  0.1159
   26MOL0     H 3453   9.589  10.493   9.652  1.9766 -1.6589  0.5305
   26MOL0     H 3454   9.503  10.486   9.498 -1.4374 -3.7079  0.0847
   26MOL0     H 3455   9.582  10.234   9.502 -1.5795  1.1590 -1.8969
   26MOL0     H 3456   9.628  10.258   9.673  0.1767 -0.3543  0.4685
   26MOL0     H 3457   9.349  10.316   9.563  2.7880 -0.9365 -1.8651
   26MOL0     H 3458   9.397  10.331   9.736  0.8308  1.5685  0.1313
   26MOL0     H 3459   9.392  10.062   9.573 -0.1437 -1.7010  1.3301
   26MOL0     H 3460   9.436  10.082   9.732 -1.6365  0.0223  0.7664
   26MOL0     H 3461   9.222   9.921   9.800  2.7628  1.5533  1.2128
   26MOL0     H 3462   8.980   9.964  10.000  1.4012 -2.6337 -0.7505
   26MOL0     H 3463   8.857  10.029   9.889 -2.9143 -3.7750 -1.1948
   26MOL0     H 3464   8.894   9.844   9.742 -0.2840 -0.1954 -1.2168
   26MOL0     H 3465   9.033   9.789   9.811  0.5642  0.5330  1.6203
   26MOL0     H 3466   8.898   9.737  10.033  0.8296  1.3996 -0.1825
   26MOL0     H 3467   8.893   9.637   9.893 -1.3737  0.1657  0.0671
   26MOL0     H 3468   8.679   9.704   9.843  2.2704 -3.1143 -0.5066
   26MOL0     H 3469   8.696   9.854   9.946 -1.0856  0.3196  0.1422
   26MOL0     H 3470   8.562   9.593  10.247  1.2587 -0.4263  0.3656
   26MOL0     H 3471   8.536   9.357  10.296 -0.8060 -0.2323  0.0247
   26MOL0     H 3472   8.640   8.804  10.167 -1.6634 -0.9216  1.7667
   26MOL0     H 3473   8.502   8.616  10.150 -2.3875 -0.0990  1.1768
   26MOL0     H 3474   8.205   8.417  10.117 -1.4527 -1.9791  5.1132
   26MOL0     H 3475   8.321   8.508  10.203  1.2815 -0.9690 -2.2113
   26MOL0     H 3476   8.147   8.720  10.216 -2.6270  0.9068  0.1644
   26MOL0     H 3477   8.028   8.606  10.141 -0.7041 -5.3041  1.7211
   26MOL0     H 3478   8.184   8.597  10.407 -1.1957  4.3842 -1.0810
   26MOL0     H 3479   8.004   8.623  10.385 -1.0274 -1.0089 -0.6254
   26MOL0     H 3480   8.146   8.362  10.320 -1.1556 -0.3651 -2.6579
   26MOL0     H 3481   7.980   8.399  10.288  1.5370 -3.9992 -0.4425
   26MOL0     H 3482   7.931   8.428  10.532  0.9186  0.4091 -0.3085
   26MOL0     H 3483   8.104   8.390  10.565  1.9880  0.4164 -1.5388
   26MOL0     H 3484   7.897   8.215  10.423 -1.8348  3.6458  2.2408
   26MOL0     H 3485   8.065   8.164  10.438  1.3504  0.1292  2.6876
   26MOL0     H 3486   7.863   8.225  10.664 -0.6522 -0.4477 -0.9796
   26MOL0     H 3487   8.036   8.166  10.692  1.8618 -2.7505 -3.6503
   26MOL0     H 3488   7.993   7.954  10.619 -0.3712 -1.4931 -0.1402
   26MOL0     H 3489   7.863   8.004  10.725 -0.1262 -2.2786 -0.7633
   26MOL0     H 3490   8.233   8.805   9.900 -1.0277 -2.4915  2.2443
   26MOL0     H 3491   8.386   9.008   9.876  2.4250  1.1570 -0.2297
   26MOL0     H 3492   8.626   9.257   9.889 -0.3357  0.4887  0.7795
   26MOL0     H 3493   8.652   9.499   9.832 -1.0600  5.1386  0.2686
   26MOL0     H 3494   9.944  11.032   9.435 -4.0369 -2.7218 -2.7649
   26MOL0     H 3495   9.994  11.255   9.345  0.7602  0.7646 -0.5959
   26MOL0     H 3496  10.350  11.478   8.874  0.1113 -0.0212 -0.1174
   26MOL0     H 3497  10.338  11.689   8.794  2.4488 -0.5309  1.7674
   26MOL0     H 3498  10.293  11.905   8.701 -1.0107 -0.5004 -0.4079
   26MOL0     H 3499  10.400  11.894   8.839  0.0882  0.1820 -2.5687
   26MOL0     H 3500  10.394  12.102   8.907 -0.8135  0.0753  2.5816
   26MOL0     H 3501  10.221  12.126   8.885  0.1013  0.6869 -0.1327
   26MOL0     H 3502  10.290  12.160   8.619  1.3292 -0.8288 -0.7899
   26MOL0     H 3503  10.444  12.148   8.668  0.1624 -0.3376  0.0729
   26MOL0     H 3504  10.313  12.398   8.686 -3.0941 -0.6397  0.6912
   26MOL0     H 3505  10.263  12.334   8.832 -3.6429 -1.7266 -2.7174
   26MOL0     H 3506  10.686  12.388   8.897 -1.1582 -1.7421  1.9935
   26MOL0     H 3507  10.019  11.792   9.060 -0.5619 -0.9786  2.6941
   26MOL0     H 3508   9.975  11.662   9.253 -1.4936 -1.8004  0.6668
   26MOL0     H 3509   9.939  11.505   9.201  0.4940 -1.5989  2.5862
   26MOL0     H 3510  10.088  11.544   9.297 -2.9865  1.0061  1.8090
   27MOL0     O 3511   8.094   5.838   4.556  0.8350  0.0849  0.4606
   27MOL0     C 3512   7.993   5.784   4.606  0.5074 -0.7802  0.1869
   27MOL0     O 3513   7.907   5.702   4.531  0.5232  0.0971 -0.5504
   27MOL0     C 3514   7.939   5.691   4.401  0.2639 -0.4228  0.3601
   27MOL0     C 3515   8.038   5.593   4.369 -0.2876  0.2180  0.3316
   27MOL0     C 3516   8.059   5.540   4.241  0.2012 -0.9618  0.2690
   27MOL0     C 3517   7.980   5.585   4.130  0.4535  0.7839 -0.0918
   27MOL0     O 3518   7.995   5.537   4.004 -0.5394  0.5506 -0.4345
   27MOL0     C 3519   8.037   5.629   3.899  0.4588  0.8053 -0.6213
   27MOL0     C 3520   8.020   5.552   3.772 -0.6630 -0.0849 -0.4116
   27MOL0     C 3521   8.097   5.615   3.657 -0.2213 -0.1648  0.4203
   27MOL0     C 3522   8.072   5.550   3.522  0.3495  0.1129  1.0677
   27MOL0     C 3523   8.181   5.579   3.417 -0.0184 -0.0007  0.2305
   27MOL0     C 3524   8.172   5.720   3.356  0.9979  0.5434  0.4918
   27MOL0     C 3525   8.239   5.741   3.216  0.1380 -0.8383 -0.1555
   27MOL0     C 3526   8.394   5.755   3.237 -0.1026  0.6566 -0.0264
   27MOL0     N 3527   8.462   5.808   3.115 -0.1710  0.3814 -0.3434
   27MOL0     C 3528   8.478   5.751   2.991  0.5073  0.1315 -1.1271
   27MOL0     C 3529   8.557   5.842   2.919 -0.2907  0.5117  0.0295
   27MOL0     C 3530   8.594   5.829   2.767 -0.5640  0.1717 -0.3103
   27MOL0     C 3531   8.701   5.924   2.706 -0.6892  0.1219 -0.2775
   27MOL0     C 3532   8.649   6.071   2.700 -0.2320 -0.7607 -0.1022
   27MOL0     C 3533   8.762   6.159   2.654 -0.8449 -0.6048  0.6681
   27MOL0     O 3534   8.835   6.203   2.772  0.1663  0.0160  0.0670
   27MOL0     C 3535   8.915   6.310   2.760  0.3175  0.6217 -0.1823
   27MOL0     C 3536   8.997   6.337   2.873 -0.0079  0.0544 -0.5511
   27MOL0     C 3537   9.072   6.454   2.881  0.5546 -0.8046  0.4742
   27MOL0     C 3538   9.102   6.531   2.762  0.2163  0.2473  0.6009
   27MOL0     C 3539   9.190   6.653   2.764 -0.7473 -0.4945 -0.1713
   27MOL0     O 3540   9.243   6.687   2.886 -0.4501 -0.6826 -0.1448
   27MOL0     C 3541   9.335   6.790   2.885 -0.4753 -0.7585  0.9564
   27MOL0     C 3542   9.463   6.790   2.815  0.3258 -0.6658 -0.1537
   27MOL0     C 3543   9.551   6.901   2.810 -0.1305 -0.6141 -0.3607
   27MOL0     C 3544   9.514   7.013   2.879  0.2827 -0.0421 -0.8572
   27MOL0     O 3545   9.590   7.120   2.892 -0.6261 -0.6800  0.2388
   27MOL0     C 3546   9.719   7.114   2.819  0.4052  0.7027  0.1408
   27MOL0     C 3547   9.816   7.230   2.861 -0.1704 -0.5297  0.2990
   27MOL0     C 3548   9.753   7.361   2.814  0.2960 -0.1824 -0.4914
   27MOL0     C 3549   9.830   7.490   2.855  0.2649 -0.6460  0.3641
   27MOL0     C 3550   9.775   7.608   2.777  0.4929  0.1798 -0.2592
   27MOL0     C 3551   9.854   7.730   2.802  0.3934  0.5957  0.7708
   27MOL0     C 3552   9.807   7.843   2.713  0.6129 -1.3467 -0.8179
   27MOL0     C 3553   9.870   7.981   2.725 -0.3172  0.3507  0.2819
   27MOL0    Cl 3554   9.814   8.069   2.880 -0.4297 -0.0819 -0.2528
   27MOL0     C 3555   9.389   7.021   2.946 -0.0934  1.5049 -0.2866
   27MOL0     C 3556   9.301   6.907   2.953  0.3227 -0.4192  0.0768
   27MOL0     O 3557   9.204   6.717   2.663 -0.7668 -0.6886  0.1679
   27MOL0     C 3558   9.031   6.496   2.651  0.0214 -0.1592  0.1473
   27MOL0     C 3559   8.941   6.389   2.646 -0.8408  0.5009 -0.5714
   27MOL0     N 3560   8.580   5.951   2.996 -0.3128  0.3585  0.5814
   27MOL0     N 3561   8.529   5.932   3.108 -0.1960 -0.1386  0.2264
   27MOL0     C 3562   7.890   5.685   4.164  0.1755  0.2996  0.2253
   27MOL0     C 3563   7.863   5.733   4.295  1.2363  0.2603  0.4562
   27MOL0     C 3564   7.961   5.795   4.755  0.2233  0.7189 -0.1704
   27MOL0     C 3565   7.848   5.721   4.806  0.4859  0.4951  0.6315
   27MOL0     C 3566   7.820   5.716   4.948 -0.7384  1.1070  0.2406
   27MOL0     C 3567   7.904   5.785   5.035 -0.3145 -0.7594  0.4358
   27MOL0     O 3568   7.874   5.791   5.170 -0.5079  0.7887  0.8052
   27MOL0     C 3569   7.775   5.890   5.187  0.4439 -0.8130 -0.4110
   27MOL0     C 3570   7.750   5.923   5.337  0.3131 -0.7705 -0.9008
   27MOL0     C 3571   7.615   5.996   5.356 -0.8184  0.1288 -0.2447
   27MOL0     C 3572   7.605   6.062   5.499  0.3651  0.0136 -0.4651
   27MOL0     C 3573   7.588   5.964   5.605 -0.0731 -0.0288  0.3411
   27MOL0     C 3574   7.563   5.886   5.692  0.0396 -0.2611 -0.3023
   27MOL0     C 3575   8.016   5.843   4.983 -1.3920  0.4535  0.0873
   27MOL0     C 3576   8.052   5.850   4.848  1.0257 -0.5421 -0.5206
   27MOL0     C 3577   8.147   5.960   4.810  0.5500  0.4557  1.3267
   27MOL0     H 3578   8.081   5.557   4.462  0.0672  1.0469  0.4915
   27MOL0     H 3579   8.130   5.459   4.226 -0.3920 -1.2401 -1.1395
   27MOL0     H 3580   7.964   5.709   3.887  0.3395  0.3555 -4.0406
   27MOL0     H 3581   8.137   5.670   3.917  1.6724 -2.1281 -0.0617
   27MOL0     H 3582   7.914   5.543   3.748 -1.4328  1.5780  1.9518
   27MOL0     H 3583   8.059   5.450   3.787 -0.6282  0.1082  0.9600
   27MOL0     H 3584   8.200   5.606   3.694 -1.0098 -2.8933  2.3057
   27MOL0     H 3585   8.084   5.722   3.641  1.7439 -0.4470 -4.7144
   27MOL0     H 3586   8.047   5.445   3.536  1.4861 -0.3568 -0.2683
   27MOL0     H 3587   7.979   5.587   3.477 -0.9518 -4.4410 -0.4287
   27MOL0     H 3588   8.281   5.561   3.456 -0.6862  0.8892  2.5673
   27MOL0     H 3589   8.169   5.508   3.335 -0.9709  1.3781 -0.8852
   27MOL0     H 3590   8.066   5.732   3.332  0.5426 -1.9241  0.9307
   27MOL0     H 3591   8.205   5.788   3.435 -1.0141  2.1351  0.0506
   27MOL0     H 3592   8.197   5.828   3.165 -0.4009 -0.9006  0.1687
   27MOL0     H 3593   8.219   5.657   3.148  2.1850  0.4469 -2.5182
   27MOL0     H 3594   8.411   5.820   3.323  1.1492  2.3580 -1.5050
   27MOL0     H 3595   8.435   5.656   3.258  1.5213  1.0463 -1.1852
   27MOL0     H 3596   8.435   5.661   2.949 -4.4499 -0.7716  4.4152
   27MOL0     H 3597   8.633   5.728   2.755  3.1484  1.6358 -2.6158
   27MOL0     H 3598   8.505   5.844   2.706 -1.1756  0.5655  0.6559
   27MOL0     H 3599   8.791   5.918   2.767 -2.0537  0.4747  1.8764
   27MOL0     H 3600   8.719   5.898   2.601 -0.4711 -2.3810  0.3228
   27MOL0     H 3601   8.621   6.112   2.798  3.4663 -2.7136  2.0447
   27MOL0     H 3602   8.563   6.068   2.633 -0.3140  0.9633 -0.1124
   27MOL0     H 3603   8.724   6.239   2.589  1.6934  1.7491  1.8579
   27MOL0     H 3604   8.826   6.101   2.588 -2.3452  0.3333 -1.7772
   27MOL0     H 3605   9.014   6.267   2.954  0.3163  3.2024  2.3392
   27MOL0     H 3606   9.133   6.477   2.968  1.9916  3.8183 -1.4521
   27MOL0     H 3607   9.500   6.701   2.765  0.3254 -0.6174 -0.2412
   27MOL0     H 3608   9.635   6.881   2.745  0.2284  2.0931 -0.8648
   27MOL0     H 3609   9.767   7.023   2.856 -0.0777  1.0321  1.6434
   27MOL0     H 3610   9.702   7.109   2.711  0.7303  0.7212  0.0873
   27MOL0     H 3611   9.827   7.220   2.969  4.8032  1.2322  0.2067
   27MOL0     H 3612   9.912   7.211   2.811 -1.3053  1.3339 -2.8720
   27MOL0     H 3613   9.745   7.365   2.705 -0.1848  0.0299 -0.4490
   27MOL0     H 3614   9.658   7.372   2.867  1.0051 -1.3871  1.1165
   27MOL0     H 3615   9.930   7.471   2.815  0.5014  1.8466 -0.4247
   27MOL0     H 3616   9.825   7.506   2.963 -4.7377  0.4106  0.2199
   27MOL0     H 3617   9.670   7.627   2.801  0.0987  1.9753 -3.0366
   27MOL0     H 3618   9.767   7.581   2.671 -0.2422 -4.1920  0.6970
   27MOL0     H 3619   9.854   7.762   2.907  0.6752  1.8517  0.4074
   27MOL0     H 3620   9.960   7.719   2.778  0.4441 -0.5396  1.4597
   27MOL0     H 3621   9.704   7.868   2.738  1.4799  2.3086 -0.2155
   27MOL0     H 3622   9.814   7.806   2.610  0.4114 -3.3380 -0.1624
   27MOL0     H 3623   9.976   7.957   2.722 -0.3746  0.1918 -2.6928
   27MOL0     H 3624   9.841   8.043   2.640  0.2037 -1.1951 -1.0584
   27MOL0     H 3625   9.354   7.102   3.009  2.4683  0.4046  2.8433
   27MOL0     H 3626   9.207   6.910   3.008  0.5470  0.3066  0.4380
   27MOL0     H 3627   9.055   6.545   2.558  3.3091 -1.5753  0.1175
   27MOL0     H 3628   8.882   6.382   2.555 -1.5618  1.9344 -0.2457
   27MOL0     H 3629   7.824   5.724   4.087 -0.3360  0.0568  0.5350
   27MOL0     H 3630   7.780   5.802   4.305  1.9507  0.9143  2.5420
   27MOL0     H 3631   7.768   5.675   4.750  1.7902  0.8114 -1.5920
   27MOL0     H 3632   7.738   5.669   5.001 -1.2326  3.9303  2.2550
   27MOL0     H 3633   7.685   5.855   5.136 -0.0339  0.2379 -0.3241
   27MOL0     H 3634   7.793   5.990   5.146 -1.2472 -0.4030 -0.2135
   27MOL0     H 3635   7.828   5.995   5.362  0.9632 -2.0766  1.0702
   27MOL0     H 3636   7.770   5.840   5.405  0.8252 -0.6070 -0.8496
   27MOL0     H 3637   7.543   5.914   5.350 -0.2678 -0.3095 -1.1057
   27MOL0     H 3638   7.592   6.078   5.287  0.0915  0.3189 -0.3302
   27MOL0     H 3639   7.690   6.128   5.517 -2.0678  3.4061 -0.4877
   27MOL0     H 3640   7.511   6.118   5.496 -0.3084 -0.9242  1.2234
   27MOL0     H 3641   7.538   5.807   5.759 -1.2873  0.3822 -0.0032
   27MOL0     H 3642   8.085   5.889   5.053 -2.1218 -0.3445  1.3694
   27MOL0     H 3643   8.208   5.926   4.726 -3.3551 -1.6668 -0.9091
   27MOL0     H 3644   8.079   6.039   4.776  1.1425  1.1575  1.7290
   27MOL0     H 3645   8.211   5.991   4.894 -0.2467 -0.0433  2.1380
   28MOL0     O 3646   5.684  10.975  10.864  0.8326  0.4349 -0.0762
   28MOL0     C 3647   5.776  11.017  10.792 -0.7682 -0.0902  0.6068
   28MOL0     O 3648   5.904  11.022  10.833  0.1709 -0.4359 -1.0195
   28MOL0     C 3649   5.929  11.009  10.962 -0.2483 -0.2994 -0.0709
   28MOL0     C 3650   5.906  11.117  11.045 -0.1892 -0.0182  0.1880
   28MOL0     C 3651   5.936  11.113  11.177  0.1472 -0.3452  0.0788
   28MOL0     C 3652   5.997  10.999  11.223 -0.2211  0.2774 -0.4539
   28MOL0     O 3653   6.067  11.003  11.340  0.1535  0.0518 -0.2359
   28MOL0     C 3654   6.084  10.885  11.415 -0.8046 -0.1587  0.6004
   28MOL0     C 3655   6.148  10.919  11.547 -0.1086  0.0575  0.1397
   28MOL0     C 3656   6.115  10.817  11.659  0.0516  0.0250  0.0914
   28MOL0     C 3657   6.204  10.854  11.782 -0.6494 -0.4971 -0.2338
   28MOL0     C 3658   6.158  10.774  11.897  0.0517  0.3001  0.3962
   28MOL0     C 3659   6.022  10.824  11.952 -0.5989 -0.3895  0.0659
   28MOL0     C 3660   5.968  10.739  12.065 -0.0172  0.2091 -0.3941
   28MOL0     C 3661   6.050  10.750  12.198  0.4301  0.3834 -1.1646
   28MOL0     N 3662   6.084  10.885  12.250  0.1032 -0.2790  0.1436
   28MOL0     C 3663   5.998  10.987  12.281 -0.1773 -0.5426 -0.8562
   28MOL0     C 3664   6.082  11.095  12.280  0.1669 -0.1924 -0.1430
   28MOL0     C 3665   6.032  11.237  12.262 -0.3710 -0.6114  0.1859
   28MOL0     C 3666   6.058  11.307  12.407  0.8665  0.1453 -0.8514
   28MOL0     C 3667   5.980  11.441  12.416 -0.2910  0.3676  0.8182
   28MOL0     C 3668   5.831  11.431  12.422  0.5429  0.2355  0.5264
   28MOL0     O 3669   5.764  11.555  12.416 -0.0752  0.8788 -0.3700
   28MOL0     C 3670   5.625  11.551  12.392  0.3086  0.7560 -0.0882
   28MOL0     C 3671   5.549  11.439  12.374  0.1678  0.4806  0.7401
   28MOL0     C 3672   5.416  11.442  12.336  0.2770 -0.5891  1.3901
   28MOL0     C 3673   5.341  11.558  12.318 -0.0851 -0.2001 -0.2798
   28MOL0     C 3674   5.191  11.564  12.315 -0.1020  0.1300  0.3387
   28MOL0     O 3675   5.136  11.671  12.261 -0.3527 -0.6024 -0.1548
   28MOL0     C 3676   5.000  11.666  12.250  0.0101 -0.2352  0.4402
   28MOL0     C 3677   4.920  11.772  12.294  0.1239  0.5765 -0.4568
   28MOL0     C 3678   4.778  11.765  12.293 -1.5032  0.0791  0.0185
   28MOL0     C 3679   4.717  11.657  12.237  0.3780 -0.3327 -0.1083
   28MOL0     O 3680   4.580  11.669  12.256  0.2136 -0.5162  0.0730
   28MOL0     C 3681   4.497  11.554  12.271  0.1838  1.1502 -0.4961
   28MOL0     C 3682   4.343  11.587  12.245 -0.4516 -0.1980 -1.3565
   28MOL0     C 3683   4.256  11.474  12.268 -0.9151  0.4874  0.0492
   28MOL0     C 3684   4.238  11.432  12.417 -1.0115 -0.2850  0.3558
   28MOL0     C 3685   4.129  11.328  12.423  0.2155  1.0229 -0.4103
   28MOL0     C 3686   4.164  11.178  12.390  0.3128 -0.3170  0.9518
   28MOL0     C 3687   4.043  11.083  12.388  0.2275 -0.4276  0.2885
   28MOL0     C 3688   4.077  10.940  12.363 -0.8853  0.4543 -0.5691
   28MOL0    Cl 3689   4.169  10.904  12.205 -0.3380 -0.2200 -0.3168
   28MOL0     C 3690   4.789  11.545  12.184  0.1846 -0.0844 -0.3039
   28MOL0     C 3691   4.930  11.553  12.194 -0.0648 -0.6789  0.8614
   28MOL0     O 3692   5.133  11.474  12.377  0.1925  0.7855  0.0319
   28MOL0     C 3693   5.423  11.674  12.345  0.7463  0.2195 -0.1099
   28MOL0     C 3694   5.564  11.680  12.375 -0.3343  0.3954  0.4325
   28MOL0     N 3695   6.214  11.051  12.278 -0.8280 -1.3787 -0.2287
   28MOL0     N 3696   6.209  10.924  12.261 -0.4175  0.1088  0.0776
   28MOL0     C 3697   6.019  10.880  11.145  0.3501  0.5651  0.7292
   28MOL0     C 3698   5.995  10.897  11.005  0.1707  0.6198 -0.0745
   28MOL0     C 3699   5.735  11.072  10.662 -0.8224 -0.1828 -0.7343
   28MOL0     C 3700   5.601  11.105  10.645  0.7290 -0.4821 -0.0022
   28MOL0     C 3701   5.563  11.167  10.521  0.1363 -0.4002  0.1713
   28MOL0     C 3702   5.659  11.197  10.422  0.5445  0.1733  0.0964
   28MOL0     O 3703   5.608  11.259  10.310  0.4027  0.1632 -0.4230
   28MOL0     C 3704   5.700  11.284  10.203  0.8141  1.7100 -0.3720
   28MOL0     C 3705   5.636  11.349  10.091  0.1993 -1.0751 -0.0088
   28MOL0     C 3706   5.744  11.396   9.988 -0.2140  0.5794  0.1867
   28MOL0     C 3707   5.667  11.487   9.889 -0.2519 -0.3844  0.2980
   28MOL0     C 3708   5.632  11.619   9.946  0.3238 -0.5288  0.8219
   28MOL0     C 3709   5.609  11.718  10.008 -0.1173  0.5437  0.0970
   28MOL0     C 3710   5.789  11.178  10.447  0.8581  0.2578  0.4812
   28MOL0     C 3711   5.834  11.101  10.556  0.0593  0.4571 -0.3551
   28MOL0     C 3712   5.977  11.084  10.555  0.6953  0.4230  0.2607
   28MOL0     H 3713   5.864  11.211  11.013  0.2675  0.6758  1.5258
   28MOL0     H 3714   5.928  11.200  11.242  1.0163 -0.4132  0.2924
   28MOL0     H 3715   5.980  10.853  11.423 -0.5246 -1.8181 -1.6291
   28MOL0     H 3716   6.150  10.818  11.359  0.0646  0.1206  1.2495
   28MOL0     H 3717   6.096  11.007  11.587  0.3204  0.3505  0.0632
   28MOL0     H 3718   6.255  10.938  11.539  0.2191 -1.4102  0.7462
   28MOL0     H 3719   6.152  10.720  11.623 -1.2588  0.1826 -1.8915
   28MOL0     H 3720   6.012  10.787  11.680  0.9432 -1.7400  2.3058
   28MOL0     H 3721   6.305  10.825  11.754 -0.2613  3.2368 -3.6778
   28MOL0     H 3722   6.189  10.959  11.811 -1.6325 -1.5610  3.6706
   28MOL0     H 3723   6.141  10.672  11.860 -2.2920  1.7796 -3.1134
   28MOL0     H 3724   6.245  10.777  11.963  1.1092  1.4946 -0.9958
   28MOL0     H 3725   6.028  10.925  11.992  1.3008 -0.0850 -0.8879
   28MOL0     H 3726   5.945  10.825  11.874  0.6761  1.8726 -1.2576
   28MOL0     H 3727   5.960  10.633  12.039  1.9691 -0.4892  1.4964
   28MOL0     H 3728   5.866  10.777  12.078  0.0291 -0.1451  1.2217
   28MOL0     H 3729   5.991  10.693  12.270  0.3685 -0.0478 -1.5572
   28MOL0     H 3730   6.150  10.707  12.186  2.5932  2.9664  4.1117
   28MOL0     H 3731   5.891  10.989  12.263 -1.1291  1.1426  3.5619
   28MOL0     H 3732   6.091  11.286  12.184 -0.0621  2.4198  2.1509
   28MOL0     H 3733   5.930  11.220  12.229  1.0005 -1.9860 -3.8607
   28MOL0     H 3734   6.008  11.243  12.480 -2.5148  2.1653 -1.1671
   28MOL0     H 3735   6.166  11.309  12.425  1.1272 -1.7302 -1.9968
   28MOL0     H 3736   5.991  11.488  12.318 -0.2738  1.8190  1.4852
   28MOL0     H 3737   6.004  11.518  12.491 -1.9306  1.4107  0.3221
   28MOL0     H 3738   5.782  11.378  12.504  2.1419 -1.0711  0.6653
   28MOL0     H 3739   5.800  11.362  12.343 -0.7403 -2.1799  2.9704
   28MOL0     H 3740   5.586  11.337  12.381  0.3055  0.3320 -1.5160
   28MOL0     H 3741   5.366  11.350  12.310 -1.7958  1.1839 -1.5465
   28MOL0     H 3742   4.965  11.858  12.342 -0.3837  0.7440 -0.2719
   28MOL0     H 3743   4.718  11.846  12.332 -0.4249  1.0683 -0.3099
   28MOL0     H 3744   4.527  11.471  12.207 -3.9517 -2.2605  1.4812
   28MOL0     H 3745   4.512  11.512  12.371 -0.9432 -3.7404 -2.1151
   28MOL0     H 3746   4.308  11.670  12.308 -0.0270 -1.7394  1.0457
   28MOL0     H 3747   4.325  11.608  12.139  2.1660  0.9092 -1.6515
   28MOL0     H 3748   4.167  11.485  12.205  1.9698 -2.1529 -5.2591
   28MOL0     H 3749   4.286  11.380  12.220 -0.9573  0.7726 -0.5577
   28MOL0     H 3750   4.219  11.527  12.468 -1.9096  2.0000 -3.8074
   28MOL0     H 3751   4.337  11.393  12.442 -0.6641  0.8984  0.9077
   28MOL0     H 3752   4.052  11.364  12.354 -0.9204 -0.4807  0.0381
   28MOL0     H 3753   4.095  11.346  12.526  1.6422 -0.1011  0.2983
   28MOL0     H 3754   4.212  11.176  12.292 -2.6787 -2.3909 -0.6066
   28MOL0     H 3755   4.245  11.134  12.448 -0.0604  0.9975  2.5662
   28MOL0     H 3756   3.975  11.108  12.306  0.1406  0.5232  0.6392
   28MOL0     H 3757   3.997  11.090  12.487  0.7523 -1.7655  0.6538
   28MOL0     H 3758   4.142  10.906  12.444 -0.2320  2.2575 -0.2928
   28MOL0     H 3759   3.990  10.874  12.370 -1.1961  1.0654  3.6998
   28MOL0     H 3760   4.729  11.474  12.128 -0.5782  2.5710 -3.1992
   28MOL0     H 3761   4.993  11.484  12.138  0.2406 -0.5040  0.9860
   28MOL0     H 3762   5.360  11.761  12.336  0.2254 -0.3294 -2.1743
   28MOL0     H 3763   5.606  11.776  12.403  0.2287  0.1973  0.2800
   28MOL0     H 3764   6.065  10.785  11.169  1.2789  0.4949 -1.1056
   28MOL0     H 3765   6.006  10.818  10.932  0.6698 -0.2928  0.9622
   28MOL0     H 3766   5.520  11.082  10.713 -3.0511 -0.7531 -4.0982
   28MOL0     H 3767   5.463  11.202  10.493  1.5476  4.0239 -0.1988
   28MOL0     H 3768   5.764  11.197  10.183 -1.1121  0.4433 -1.2897
   28MOL0     H 3769   5.752  11.370  10.247 -0.3878  0.5672  3.7772
   28MOL0     H 3770   5.567  11.426  10.127 -2.0439 -2.5869 -0.8771
   28MOL0     H 3771   5.575  11.265  10.059 -2.2931 -0.7757  3.3782
   28MOL0     H 3772   5.805  11.315   9.948 -0.0180 -0.2493  2.0390
   28MOL0     H 3773   5.813  11.452  10.053 -0.0565 -0.7188  1.1814
   28MOL0     H 3774   5.732  11.511   9.805 -0.8702 -0.9905 -0.3805
   28MOL0     H 3775   5.583  11.438   9.838 -0.7309  3.1573 -2.7784
   28MOL0     H 3776   5.605  11.810  10.063  1.3480  1.5800 -1.4228
   28MOL0     H 3777   5.855  11.232  10.380  0.4508  0.4339  0.2184
   28MOL0     H 3778   6.016  11.182  10.587 -1.0887  0.4525  2.5806
   28MOL0     H 3779   6.023  11.017  10.628  2.0257  1.7810  0.7462
   28MOL0     H 3780   6.017  11.053  10.458 -0.3966 -5.7293  1.4036
   29MOL0     O 3781   4.865   2.797   5.169  0.8360  0.0561 -1.2165
   29MOL0     C 3782   4.941   2.863   5.091  1.1228 -0.3699 -0.5723
   29MOL0     O 3783   5.044   2.942   5.139  0.1780  0.4701 -0.2564
   29MOL0     C 3784   5.029   2.975   5.272  0.0085 -1.2523  0.7867
   29MOL0     C 3785   4.939   3.073   5.310  0.5631 -0.2150 -0.4012
   29MOL0     C 3786   4.934   3.121   5.443  0.5361  0.7162 -0.3972
   29MOL0     C 3787   5.007   3.048   5.536 -0.4797 -0.3082  0.1149
   29MOL0     O 3788   4.994   3.071   5.679  0.0125  0.1719 -0.3053
   29MOL0     C 3789   4.895   3.167   5.714  0.2070  0.0006 -0.3656
   29MOL0     C 3790   4.878   3.198   5.865 -0.8998  0.5708  0.4449
   29MOL0     C 3791   4.811   3.081   5.945 -0.2242  0.6551  1.7346
   29MOL0     C 3792   4.907   2.967   5.987 -0.0632 -0.0933 -0.2498
   29MOL0     C 3793   5.019   3.004   6.084  0.8091 -0.3600  0.9148
   29MOL0     C 3794   5.070   2.874   6.140  1.3377  0.5216  0.0925
   29MOL0     C 3795   5.210   2.872   6.208 -0.8176 -0.5455 -0.6494
   29MOL0     C 3796   5.325   2.912   6.126 -0.1227 -0.1325  0.0154
   29MOL0     N 3797   5.423   2.986   6.201 -0.1577 -0.2516 -0.0761
   29MOL0     C 3798   5.546   2.930   6.247  0.4061 -0.0604 -0.1873
   29MOL0     C 3799   5.614   3.031   6.317 -0.3224 -0.2770  0.6555
   29MOL0     C 3800   5.726   3.023   6.398  0.4051 -0.5257 -0.2150
   29MOL0     C 3801   5.861   3.047   6.325  0.6314 -0.0935 -0.5893
   29MOL0     C 3802   5.973   2.984   6.399 -0.2746 -0.2264 -0.3656
   29MOL0     C 3803   6.099   3.053   6.350 -0.9263 -1.0047  0.5163
   29MOL0     O 3804   6.125   3.175   6.416 -0.8155 -0.2517  0.6154
   29MOL0     C 3805   6.245   3.226   6.415  0.0285 -1.0961 -0.5774
   29MOL0     C 3806   6.345   3.203   6.326 -0.0602 -0.1176 -0.3357
   29MOL0     C 3807   6.468   3.257   6.335 -0.8543  0.9905  0.4914
   29MOL0     C 3808   6.500   3.354   6.434  0.3389  1.1712  0.1478
   29MOL0     C 3809   6.629   3.423   6.440  0.5471  0.2148  0.0686
   29MOL0     O 3810   6.713   3.392   6.344 -0.9989 -0.1763 -0.2698
   29MOL0     C 3811   6.839   3.445   6.340  0.7444  0.3104  0.7302
   29MOL0     C 3812   6.944   3.356   6.360  0.0959  0.3165  0.1300
   29MOL0     C 3813   7.071   3.391   6.331  0.1143 -0.0025  0.0082
   29MOL0     C 3814   7.104   3.523   6.271  0.3437  0.4949  0.3705
   29MOL0     O 3815   7.230   3.570   6.230  0.0555 -0.5661  0.3688
   29MOL0     C 3816   7.317   3.466   6.176  0.9339 -0.0619 -0.6340
   29MOL0     C 3817   7.438   3.557   6.140 -1.1610  0.5795 -0.1109
   29MOL0     C 3818   7.541   3.476   6.057 -0.4737  0.0665  0.0168
   29MOL0     C 3819   7.673   3.556   6.038  0.2346 -0.0956 -0.0694
   29MOL0     C 3820   7.762   3.506   5.923  0.0583 -0.0932  1.0404
   29MOL0     C 3821   7.817   3.359   5.954 -0.5172  0.0010 -0.3679
   29MOL0     C 3822   7.870   3.304   5.822  0.5758 -0.0044 -0.5452
   29MOL0     C 3823   8.005   3.248   5.839 -0.6641 -0.7436 -0.4458
   29MOL0    Cl 3824   7.990   3.103   5.938 -0.1960 -0.5179 -0.2874
   29MOL0     C 3825   6.997   3.617   6.269 -0.9015  0.2897 -0.1515
   29MOL0     C 3826   6.864   3.574   6.299 -0.6350 -0.1494 -0.6579
   29MOL0     O 3827   6.650   3.493   6.530  0.2079  0.4300 -0.0865
   29MOL0     C 3828   6.403   3.378   6.526  0.3648 -1.0437 -0.2817
   29MOL0     C 3829   6.280   3.319   6.517  0.0951  1.1340  1.0509
   29MOL0     N 3830   5.543   3.150   6.294  0.1088  0.8565 -0.7227
   29MOL0     N 3831   5.428   3.118   6.232  0.7544 -0.6542  0.3125
   29MOL0     C 3832   5.102   2.951   5.488  0.5151 -0.4883 -1.0301
   29MOL0     C 3833   5.110   2.916   5.361 -0.8083 -0.1086  0.7873
   29MOL0     C 3834   4.933   2.856   4.946  0.4006 -0.0568 -0.5874
   29MOL0     C 3835   5.030   2.930   4.869 -0.6929  0.0564 -0.6142
   29MOL0     C 3836   5.060   2.911   4.734 -0.0941  0.1453 -0.2800
   29MOL0     C 3837   4.988   2.823   4.663  0.8812  0.5277 -0.0944
   29MOL0     O 3838   5.021   2.787   4.538 -0.1547 -0.0693 -0.1773
   29MOL0     C 3839   5.076   2.652   4.536 -0.3724 -0.0467 -0.0300
   29MOL0     C 3840   5.233   2.654   4.507 -0.1418  0.4374  0.2128
   29MOL0     C 3841   5.323   2.525   4.536 -1.2637 -0.2292  0.5042
   29MOL0     C 3842   5.432   2.507   4.423  0.5055  0.2212 -0.1214
   29MOL0     C 3843   5.360   2.451   4.307 -0.4529  0.4191 -0.0865
   29MOL0     C 3844   5.295   2.412   4.217  0.0776 -0.5652  0.8188
   29MOL0     C 3845   4.879   2.756   4.721  0.0144  0.4479 -1.4941
   29MOL0     C 3846   4.854   2.764   4.859  0.1868 -0.5777  0.0140
   29MOL0     C 3847   4.753   2.674   4.927 -0.3271 -1.2706  0.8332
   29MOL0     H 3848   4.871   3.122   5.240 -0.8924  2.0783  2.3763
   29MOL0     H 3849   4.870   3.208   5.456  2.4045  1.9884  0.8887
   29MOL0     H 3850   4.922   3.266   5.675 -0.0891  0.1330 -0.2372
   29MOL0     H 3851   4.798   3.136   5.674  0.0823 -2.1306  1.4186
   29MOL0     H 3852   4.819   3.290   5.876 -2.4618 -0.2054 -0.9598
   29MOL0     H 3853   4.980   3.216   5.900 -1.5260  1.1152  2.0834
   29MOL0     H 3854   4.727   3.034   5.893 -0.3979  2.2216  0.5293
   29MOL0     H 3855   4.768   3.135   6.030 -2.0112 -0.5984  1.6835
   29MOL0     H 3856   4.844   2.888   6.029 -1.5831  2.3103  2.3949
   29MOL0     H 3857   4.960   2.931   5.899 -0.1370 -3.7019  1.0230
   29MOL0     H 3858   5.086   3.067   6.025 -1.3161 -0.4454 -1.7593
   29MOL0     H 3859   4.991   3.063   6.172 -1.0618 -1.1154  0.8800
   29MOL0     H 3860   5.001   2.816   6.201 -0.7472  0.8190 -1.8762
   29MOL0     H 3861   5.075   2.812   6.050 -2.1613  0.3335 -0.0992
   29MOL0     H 3862   5.234   2.771   6.243 -2.3401 -0.9548 -0.7086
   29MOL0     H 3863   5.205   2.935   6.298  1.6635 -0.5569 -0.4370
   29MOL0     H 3864   5.374   2.820   6.093  3.0956  1.5949 -0.4539
   29MOL0     H 3865   5.280   2.965   6.042 -0.1637  1.0226  0.7408
   29MOL0     H 3866   5.575   2.826   6.240  1.7232  0.3108 -0.6656
   29MOL0     H 3867   5.711   3.088   6.484 -0.6226 -2.6883  1.3455
   29MOL0     H 3868   5.730   2.923   6.442  1.0816  0.1561  1.3441
   29MOL0     H 3869   5.844   2.996   6.229 -0.7319 -1.0340  0.1224
   29MOL0     H 3870   5.870   3.155   6.312  1.4277 -0.0250  0.4443
   29MOL0     H 3871   5.986   2.878   6.372 -0.3942 -2.3942  6.3542
   29MOL0     H 3872   5.966   2.995   6.507  0.8889  0.3997 -0.3393
   29MOL0     H 3873   6.099   3.079   6.243 -0.0810 -1.1802  0.4662
   29MOL0     H 3874   6.181   2.982   6.362  1.4186  0.6842 -3.4297
   29MOL0     H 3875   6.329   3.135   6.243  2.0630 -1.4210  0.2605
   29MOL0     H 3876   6.537   3.205   6.268 -1.5028 -0.2033  0.7196
   29MOL0     H 3877   6.928   3.254   6.395 -2.3669  0.5538 -0.1590
   29MOL0     H 3878   7.144   3.311   6.338 -0.0878 -0.2693 -0.8642
   29MOL0     H 3879   7.348   3.392   6.250 -1.7863  2.0382  2.9699
   29MOL0     H 3880   7.272   3.420   6.087  1.3715  2.3453 -2.2030
   29MOL0     H 3881   7.404   3.639   6.077 -1.1267  2.1116  1.7596
   29MOL0     H 3882   7.480   3.593   6.235 -4.0164  0.5725  1.2688
   29MOL0     H 3883   7.563   3.383   6.111 -1.9520 -0.8439 -0.8620
   29MOL0     H 3884   7.496   3.438   5.965 -1.8599 -0.3703  0.8567
   29MOL0     H 3885   7.733   3.550   6.130  0.3472 -1.2768 -0.2057
   29MOL0     H 3886   7.658   3.662   6.014  2.8956  0.1200 -1.2130
   29MOL0     H 3887   7.837   3.582   5.902 -2.9194  2.6053 -0.7287
   29MOL0     H 3888   7.702   3.489   5.833 -0.1962 -1.1910  1.4034
   29MOL0     H 3889   7.892   3.361   6.034 -1.4287  0.3769  0.5023
   29MOL0     H 3890   7.741   3.304   6.009 -0.0899  2.1214  2.6430
   29MOL0     H 3891   7.873   3.378   5.741  1.0303  0.1127 -0.4229
   29MOL0     H 3892   7.796   3.227   5.799 -0.5802  0.6902  0.7006
   29MOL0     H 3893   8.050   3.215   5.745  2.2619 -2.2090  1.3306
   29MOL0     H 3894   8.081   3.313   5.883 -1.7056 -0.1862  0.5918
   29MOL0     H 3895   7.018   3.720   6.242 -3.5674  0.8234 -0.4898
   29MOL0     H 3896   6.794   3.657   6.304  1.4968  1.6748  2.1231
   29MOL0     H 3897   6.426   3.448   6.606 -1.6990  0.2682 -0.7689
   29MOL0     H 3898   6.200   3.344   6.586  0.2764  0.1213  1.6500
   29MOL0     H 3899   5.153   2.892   5.564 -0.6819 -2.9832 -2.0749
   29MOL0     H 3900   5.183   2.841   5.332  0.5919  0.4173  2.7472
   29MOL0     H 3901   5.095   3.002   4.918 -0.1014  0.8824 -2.5394
   29MOL0     H 3902   5.149   2.964   4.704  0.5718 -0.9469 -0.2785
   29MOL0     H 3903   5.021   2.591   4.463 -0.2804 -0.1037 -0.0531
   29MOL0     H 3904   5.065   2.593   4.628 -2.7457 -3.3177 -2.1469
   29MOL0     H 3905   5.279   2.730   4.570  1.1565 -1.7065  1.9734
   29MOL0     H 3906   5.254   2.684   4.404  0.9871  0.6780  0.5026
   29MOL0     H 3907   5.253   2.441   4.541 -0.0785 -1.2738 -0.0799
   29MOL0     H 3908   5.377   2.548   4.629 -0.4801 -0.3425  0.0832
   29MOL0     H 3909   5.475   2.603   4.396  0.0241 -0.1113 -2.2085
   29MOL0     H 3910   5.506   2.433   4.455  0.6615  0.4025 -0.0646
   29MOL0     H 3911   5.216   2.376   4.154  0.0935  0.1779  0.3664
   29MOL0     H 3912   4.821   2.686   4.661  2.1032 -1.9838 -0.8206
   29MOL0     H 3913   4.699   2.741   4.994 -0.6420  0.5590 -1.1374
   29MOL0     H 3914   4.672   2.642   4.861 -1.0373  0.3003  0.8899
   29MOL0     H 3915   4.785   2.586   4.983 -0.2577 -2.0694 -0.4371
   30MOL0     O 3916  11.120   5.137   1.234  1.1265  0.4071  0.0643
   30MOL0     C 3917  11.022   5.188   1.184  0.6470 -0.4524  0.6554
   30MOL0     O 3918  10.901   5.133   1.179  0.1713 -0.7400  0.6052
   30MOL0     C 3919  10.879   4.994   1.184  0.0523 -0.0363 -0.3028
   30MOL0     C 3920  10.980   4.893   1.167  0.1281  0.2029  0.7822
   30MOL0     C 3921  10.958   4.752   1.162  0.5571 -0.8579 -0.3712
   30MOL0     C 3922  10.826   4.715   1.195  0.7756  0.1024  0.1234
   30MOL0     O 3923  10.782   4.582   1.223 -0.1135  0.1852 -0.3047
   30MOL0     C 3924  10.835   4.477   1.141  0.5820  0.3568 -0.7927
   30MOL0     C 3925  10.871   4.354   1.228  0.0932 -0.0118  0.4728
   30MOL0     C 3926  10.755   4.262   1.259  0.4614  1.1269 -0.1222
   30MOL0     C 3927  10.820   4.156   1.347  0.5466  0.3825 -0.1856
   30MOL0     C 3928  10.711   4.062   1.406  0.0883  0.7899  1.2099
   30MOL0     C 3929  10.622   4.116   1.515  0.4886 -0.1990 -0.6577
   30MOL0     C 3930  10.543   4.007   1.591  0.2324 -0.1737  0.2391
   30MOL0     C 3931  10.413   4.057   1.631 -0.1406 -0.0122 -0.0858
   30MOL0     N 3932  10.332   4.109   1.516 -0.2526  0.6892  0.1973
   30MOL0     C 3933  10.259   4.036   1.423  0.5044 -0.3209  0.4642
   30MOL0     C 3934  10.207   4.127   1.343 -0.4786  0.1764 -0.7101
   30MOL0     C 3935  10.135   4.101   1.222 -0.0575  0.2130  0.1272
   30MOL0     C 3936   9.982   4.076   1.242 -1.2979 -0.1853 -0.8369
   30MOL0     C 3937   9.908   4.194   1.314 -0.5506 -0.3491  0.1495
   30MOL0     C 3938   9.766   4.144   1.364  0.1138 -0.2246 -1.0568
   30MOL0     O 3939   9.673   4.164   1.255  0.0153  0.0311  0.8384
   30MOL0     C 3940   9.548   4.111   1.266  0.4191  0.3798  0.6560
   30MOL0     C 3941   9.478   4.087   1.148 -0.2256  0.3777  0.4597
   30MOL0     C 3942   9.349   4.025   1.161  0.6079 -1.4979 -0.1547
   30MOL0     C 3943   9.289   4.007   1.286 -0.2191 -0.5235 -0.9853
   30MOL0     C 3944   9.155   3.948   1.304  0.6025  0.0979  0.3207
   30MOL0     O 3945   9.097   3.976   1.427  0.4755 -0.2124  0.6593
   30MOL0     C 3946   8.999   3.893   1.468 -0.1910 -0.0901  0.4387
   30MOL0     C 3947   9.016   3.837   1.596  0.8657  0.7308  0.0695
   30MOL0     C 3948   8.912   3.748   1.639 -1.5833  0.2675  0.7416
   30MOL0     C 3949   8.793   3.729   1.578 -0.3991  0.5646  0.2803
   30MOL0     O 3950   8.708   3.648   1.644 -0.0719  0.3693 -0.5585
   30MOL0     C 3951   8.564   3.651   1.632 -1.0754 -0.6169 -0.2890
   30MOL0     C 3952   8.509   3.626   1.773 -0.4940 -0.2255  0.0871
   30MOL0     C 3953   8.529   3.750   1.863 -0.1291 -0.1308  0.2764
   30MOL0     C 3954   8.504   3.711   2.015 -0.7478 -0.5641  0.2980
   30MOL0     C 3955   8.459   3.836   2.105  0.2349  0.2131 -0.5986
   30MOL0     C 3956   8.396   3.783   2.239 -0.3248  1.0613  0.3592
   30MOL0     C 3957   8.394   3.895   2.341 -0.4780 -0.1629 -0.5869
   30MOL0     C 3958   8.361   3.828   2.475 -0.4072 -0.3587  0.5823
   30MOL0    Cl 3959   8.193   3.763   2.481  0.2023  0.0268 -0.0292
   30MOL0     C 3960   8.774   3.794   1.450  0.7564 -0.3243  1.0088
   30MOL0     C 3961   8.871   3.882   1.398 -0.4369 -0.1188  0.1528
   30MOL0     O 3962   9.110   3.865   1.222  0.2229 -0.1895 -0.2360
   30MOL0     C 3963   9.355   4.042   1.403  0.1655  0.3162  0.1646
   30MOL0     C 3964   9.487   4.087   1.390 -0.2864 -0.0011  0.5665
   30MOL0     N 3965  10.225   4.259   1.402  0.1346  0.3000  0.3652
   30MOL0     N 3966  10.302   4.241   1.506 -0.1592 -0.2110  1.0062
   30MOL0     C 3967  10.729   4.811   1.211 -0.2951  0.2584  0.0701
   30MOL0     C 3968  10.752   4.946   1.201  0.5267 -0.2103  0.0255
   30MOL0     C 3969  11.037   5.332   1.141  0.4176  0.1837  0.3008
   30MOL0     C 3970  10.960   5.385   1.039  0.4460  0.2566  0.2132
   30MOL0     C 3971  10.963   5.523   1.015 -0.2161 -0.1681 -0.2431
   30MOL0     C 3972  11.053   5.603   1.074  0.6082 -0.1847  0.7758
   30MOL0     O 3973  11.047   5.743   1.045 -0.1916  0.2047 -0.8814
   30MOL0     C 3974  11.174   5.822   1.039 -0.2315 -0.0689 -0.2039
   30MOL0     C 3975  11.127   5.964   1.014 -0.1492  0.0574 -0.5872
   30MOL0     C 3976  11.059   5.966   0.867 -0.1458 -0.0326  0.2021
   30MOL0     C 3977  10.984   6.099   0.832  0.2493 -0.3163  0.3956
   30MOL0     C 3978  10.952   6.109   0.691 -0.2162 -0.3586 -0.5011
   30MOL0     C 3979  10.938   6.119   0.572 -1.0419 -0.3085 -0.5791
   30MOL0     C 3980  11.130   5.557   1.177  0.5202  1.2975 -0.4992
   30MOL0     C 3981  11.127   5.419   1.207 -0.0459  0.6548 -0.0824
   30MOL0     C 3982  11.194   5.385   1.338  0.7369  0.1063 -0.2375
   30MOL0     H 3983  11.077   4.937   1.149 -0.2186  0.5732 -0.2875
   30MOL0     H 3984  11.030   4.682   1.121 -0.3749 -1.2379 -1.4044
   30MOL0     H 3985  10.762   4.461   1.062 -0.0831 -2.1168  0.2207
   30MOL0     H 3986  10.925   4.506   1.087  0.7777  3.2175  0.8659
   30MOL0     H 3987  10.916   4.395   1.318 -0.8274  2.1663  0.0084
   30MOL0     H 3988  10.958   4.300   1.190  1.7753  0.2575  3.6660
   30MOL0     H 3989  10.716   4.208   1.172 -1.5052  0.2090  1.2854
   30MOL0     H 3990  10.677   4.318   1.310  0.1772 -0.3655  1.1660
   30MOL0     H 3991  10.898   4.091   1.305 -0.1038 -0.0131 -0.7892
   30MOL0     H 3992  10.858   4.219   1.428 -1.6354  1.2635  0.2046
   30MOL0     H 3993  10.640   4.033   1.328  0.7360 -0.8101  1.1713
   30MOL0     H 3994  10.760   3.969   1.439  1.1663  1.0726  0.4519
   30MOL0     H 3995  10.686   4.173   1.582 -0.7051  1.3613 -0.7852
   30MOL0     H 3996  10.555   4.196   1.483 -4.1826 -3.9192 -1.2091
   30MOL0     H 3997  10.603   3.979   1.679  0.2516  1.3260  0.7197
   30MOL0     H 3998  10.518   3.916   1.536  1.7902  0.1951 -1.1486
   30MOL0     H 3999  10.363   3.971   1.676 -1.7735  1.8052  1.8739
   30MOL0     H 4000  10.423   4.130   1.712 -1.7203  0.3018 -0.1247
   30MOL0     H 4001  10.252   3.928   1.418  0.9410 -0.3968  1.3085
   30MOL0     H 4002  10.161   4.179   1.150  0.8061 -1.4999 -1.5187
   30MOL0     H 4003  10.184   4.017   1.171  0.3636  0.2761  0.4208
   30MOL0     H 4004   9.938   4.056   1.144  0.3436  1.6091 -2.0165
   30MOL0     H 4005   9.967   3.995   1.314 -0.8533  0.3612 -0.1110
   30MOL0     H 4006   9.892   4.276   1.243  0.5052  2.2464  2.7042
   30MOL0     H 4007   9.961   4.255   1.388  2.0225  3.9093 -4.5755
   30MOL0     H 4008   9.739   4.209   1.448  1.8310  0.9141 -1.3186
   30MOL0     H 4009   9.763   4.045   1.408 -0.8925  1.1362  2.1997
   30MOL0     H 4010   9.533   4.108   1.056  2.3279 -0.1150  1.7799
   30MOL0     H 4011   9.297   3.996   1.070 -0.5438 -1.3587  0.4345
   30MOL0     H 4012   9.105   3.850   1.658  1.2797  0.1498 -0.3958
   30MOL0     H 4013   8.921   3.701   1.736 -1.3867 -0.2012  0.4997
   30MOL0     H 4014   8.531   3.748   1.594  0.1588 -0.3738 -0.7798
   30MOL0     H 4015   8.533   3.576   1.560 -0.3734 -1.1593 -0.0380
   30MOL0     H 4016   8.403   3.602   1.765 -1.2681  2.5112  1.3357
   30MOL0     H 4017   8.564   3.545   1.822  0.3911 -1.0838 -2.1626
   30MOL0     H 4018   8.635   3.773   1.859  0.2353 -1.8020 -1.1140
   30MOL0     H 4019   8.471   3.837   1.832  0.2630 -0.5644 -1.8355
   30MOL0     H 4020   8.596   3.661   2.046 -0.9551 -2.1884 -1.5466
   30MOL0     H 4021   8.434   3.627   2.023 -1.7317  0.2757  0.8173
   30MOL0     H 4022   8.381   3.892   2.053  0.0302  0.8918  0.4071
   30MOL0     H 4023   8.546   3.900   2.124  1.0471 -1.0256 -0.0083
   30MOL0     H 4024   8.295   3.746   2.217  0.7782 -1.0776 -1.5847
   30MOL0     H 4025   8.452   3.696   2.275 -1.1683  0.1190 -0.5487
   30MOL0     H 4026   8.315   3.965   2.313 -2.7381 -2.2731  0.1486
   30MOL0     H 4027   8.498   3.930   2.336  0.0380 -1.7084 -1.5249
   30MOL0     H 4028   8.429   3.743   2.484 -0.5581 -0.3647  1.7010
   30MOL0     H 4029   8.390   3.892   2.559 -1.0664 -2.5228  2.5388
   30MOL0     H 4030   8.676   3.781   1.405  2.5801 -0.1377 -3.4655
   30MOL0     H 4031   8.852   3.932   1.303 -2.2530  0.4830  0.7852
   30MOL0     H 4032   9.318   4.026   1.504 -0.4032 -0.1153 -0.1086
   30MOL0     H 4033   9.525   4.113   1.488 -0.5885 -0.3079  0.7662
   30MOL0     H 4034  10.628   4.773   1.207  0.1856 -1.0453 -0.4065
   30MOL0     H 4035  10.676   5.022   1.210  1.0953  0.1258  3.8180
   30MOL0     H 4036  10.893   5.321   0.982  0.0039 -1.5218  2.5964
   30MOL0     H 4037  10.910   5.563   0.929 -0.9851  1.8107  1.0828
   30MOL0     H 4038  11.234   5.783   0.956 -1.1129  1.4522 -1.6120
   30MOL0     H 4039  11.238   5.820   1.128  1.0037  0.1059 -1.0591
   30MOL0     H 4040  11.217   6.026   1.011 -1.7483  2.6395  1.3484
   30MOL0     H 4041  11.054   5.992   1.090  1.0083  2.5647 -0.3190
   30MOL0     H 4042  10.986   5.885   0.861 -0.0619 -0.0234 -1.3228
   30MOL0     H 4043  11.141   5.953   0.795 -1.0333  0.0497 -0.8582
   30MOL0     H 4044  10.908   6.112   0.909  1.9116  0.7723  1.9306
   30MOL0     H 4045  11.038   6.190   0.860  0.1341  0.2359 -1.0891
   30MOL0     H 4046  10.939   6.125   0.465  0.1200  0.4537 -0.5348
   30MOL0     H 4047  11.189   5.632   1.230  2.4176 -0.3953 -0.1043
   30MOL0     H 4048  11.282   5.321   1.326 -1.2820 -2.8004 -0.5436
   30MOL0     H 4049  11.227   5.481   1.379  0.1062  1.6896 -3.1041
   30MOL0     H 4050  11.113   5.338   1.394 -0.0633 -1.5849 -2.6333
   31MOL0     O 4051   0.647   5.639   4.871 -0.1288  0.3464 -0.7491
   31MOL0     C 4052   0.577   5.544   4.892  0.6730 -0.2464  0.0917
   31MOL0     O 4053   0.607   5.418   4.944  0.8799 -0.3466 -0.5054
   31MOL0     C 4054   0.745   5.407   4.988  1.1017  0.1338  1.4193
   31MOL0     C 4055   0.794   5.465   5.105  0.3473 -0.6137  0.2113
   31MOL0     C 4056   0.931   5.456   5.133  0.1266 -0.4836 -0.2254
   31MOL0     C 4057   1.014   5.370   5.063  0.5003 -0.4008 -0.3245
   31MOL0     O 4058   1.140   5.340   5.108 -0.0255 -0.8317  0.0914
   31MOL0     C 4059   1.201   5.426   5.201  0.6089 -0.5036 -0.2883
   31MOL0     C 4060   1.346   5.411   5.184 -0.6966 -0.7411  0.2890
   31MOL0     C 4061   1.448   5.521   5.238  0.2496  0.1891 -0.0136
   31MOL0     C 4062   1.439   5.532   5.389 -0.0727  0.7521  0.0374
   31MOL0     C 4063   1.544   5.627   5.435 -0.2760 -0.3478  0.4671
   31MOL0     C 4064   1.545   5.637   5.586 -0.1475  0.2834  0.0771
   31MOL0     C 4065   1.665   5.687   5.661  0.0480  0.1289  0.2443
   31MOL0     C 4066   1.684   5.839   5.638 -0.5568  0.3165 -0.8484
   31MOL0     N 4067   1.800   5.888   5.728 -0.0178 -0.7882 -0.2949
   31MOL0     C 4068   1.931   5.877   5.680 -0.5783 -0.0506  0.3030
   31MOL0     C 4069   2.005   5.977   5.739 -0.3211 -0.7882 -0.8231
   31MOL0     C 4070   2.157   5.988   5.719  1.3587  0.6112  0.3378
   31MOL0     C 4071   2.214   6.127   5.741 -1.4835 -0.6701 -0.2614
   31MOL0     C 4072   2.205   6.175   5.883  0.4475  0.3410  0.7579
   31MOL0     C 4073   2.250   6.325   5.901 -0.0212  1.1495 -0.6415
   31MOL0     O 4074   2.393   6.340   5.889  0.5302 -0.3705 -0.5418
   31MOL0     C 4075   2.443   6.469   5.901  0.3910  0.5108  0.1917
   31MOL0     C 4076   2.372   6.583   5.905  0.5528 -0.9228  0.0209
   31MOL0     C 4077   2.434   6.713   5.931  0.3439 -0.2332  0.0681
   31MOL0     C 4078   2.576   6.717   5.952  0.5916  0.2791  0.3664
   31MOL0     C 4079   2.659   6.845   5.971 -0.1476 -0.0323 -0.1439
   31MOL0     O 4080   2.786   6.829   6.019 -0.2055 -0.1512 -0.1811
   31MOL0     C 4081   2.851   6.923   6.100 -0.0963  0.6798 -0.2901
   31MOL0     C 4082   2.995   6.908   6.097 -0.2837  1.0630 -0.0921
   31MOL0     C 4083   3.075   7.002   6.174 -0.0667  1.0331  0.5245
   31MOL0     C 4084   3.014   7.103   6.252 -0.6918  0.3313 -0.9461
   31MOL0     O 4085   3.088   7.188   6.338  0.1952 -0.4198 -0.2393
   31MOL0     C 4086   3.105   7.327   6.281 -0.3825 -0.8328  0.5494
   31MOL0     C 4087   3.232   7.320   6.187 -0.4793  0.4873  0.6423
   31MOL0     C 4088   3.263   7.445   6.105 -0.0038  0.7350  0.2642
   31MOL0     C 4089   3.391   7.448   6.021 -0.5204  0.2212  0.6054
   31MOL0     C 4090   3.393   7.582   5.939 -0.4687  0.1198 -0.2066
   31MOL0     C 4091   3.501   7.599   5.835 -0.6631  0.5448 -0.0083
   31MOL0     C 4092   3.630   7.649   5.905 -0.2957  0.7076  0.3168
   31MOL0     C 4093   3.749   7.614   5.817  0.3160 -0.8105 -0.0169
   31MOL0    Cl 4094   3.747   7.712   5.660  0.0051  0.2569  0.1953
   31MOL0     C 4095   2.875   7.108   6.259  0.4301  0.1588 -0.2064
   31MOL0     C 4096   2.792   7.024   6.187 -0.6933  0.1665 -0.5496
   31MOL0     O 4097   2.607   6.954   5.953 -0.5150 -0.1572 -0.7325
   31MOL0     C 4098   2.649   6.593   5.947 -0.6713 -0.0962 -0.4576
   31MOL0     C 4099   2.581   6.473   5.923 -0.1354  0.2198 -0.1815
   31MOL0     N 4100   1.911   6.044   5.820 -0.3921  0.3277  0.8029
   31MOL0     N 4101   1.794   6.004   5.811 -0.6018  0.0644  0.4980
   31MOL0     C 4102   0.961   5.318   4.944 -0.6579  0.3061 -1.0279
   31MOL0     C 4103   0.836   5.341   4.898 -0.4586 -0.1710  0.1919
   31MOL0     C 4104   0.433   5.566   4.861  0.0457  1.0423  0.2687
   31MOL0     C 4105   0.357   5.649   4.945 -0.1974 -0.4308 -0.3844
   31MOL0     C 4106   0.230   5.694   4.917 -0.2066 -0.4429 -0.4729
   31MOL0     C 4107   0.159   5.639   4.805 -0.2426  0.4340 -0.6741
   31MOL0     O 4108   0.038   5.693   4.766 -0.3409  0.2429  0.2970
   31MOL0     C 4109   0.015   5.825   4.786 -0.1443 -0.6411 -0.2453
   31MOL0     C 4110  -0.122   5.878   4.756  0.3477  0.2516  0.4382
   31MOL0     C 4111  -0.238   5.802   4.818 -1.7110 -0.1077  1.1913
   31MOL0     C 4112  -0.300   5.874   4.934 -0.8491 -0.5786  0.3128
   31MOL0     C 4113  -0.395   5.977   4.889  0.9060  0.2015  0.2485
   31MOL0     C 4114  -0.479   6.075   4.876 -1.1938  0.6473  0.3848
   31MOL0     C 4115   0.231   5.538   4.740  0.9187 -0.4473  0.6774
   31MOL0     C 4116   0.365   5.509   4.755  0.0246 -0.7275 -0.4444
   31MOL0     C 4117   0.430   5.427   4.650  0.0463  0.1293 -0.2583
   31MOL0     H 4118   0.726   5.513   5.175 -0.2957 -1.8212  0.4537
   31MOL0     H 4119   0.966   5.493   5.229 -0.2702  1.0272 -0.6223
   31MOL0     H 4120   1.182   5.533   5.187 -1.1859 -0.4468  1.9720
   31MOL0     H 4121   1.172   5.403   5.304 -3.6963 -1.5620 -1.5320
   31MOL0     H 4122   1.371   5.402   5.078 -1.7820 -1.8579  0.1016
   31MOL0     H 4123   1.388   5.320   5.227  5.1960  2.0829  1.4636
   31MOL0     H 4124   1.414   5.617   5.200  0.4521 -0.3783 -1.6925
   31MOL0     H 4125   1.549   5.488   5.212  0.2225 -0.9465  1.1990
   31MOL0     H 4126   1.344   5.572   5.427 -0.6627 -0.8027  0.2944
   31MOL0     H 4127   1.462   5.436   5.435  2.9754  1.7180  0.7322
   31MOL0     H 4128   1.643   5.604   5.396 -0.5209  0.9531 -1.0540
   31MOL0     H 4129   1.518   5.727   5.399 -1.1764 -0.2890  1.2053
   31MOL0     H 4130   1.456   5.696   5.608 -1.8118 -1.6434 -1.1564
   31MOL0     H 4131   1.515   5.540   5.627 -1.3962  1.1415  1.2784
   31MOL0     H 4132   1.757   5.631   5.638  0.2225 -0.3862  2.0733
   31MOL0     H 4133   1.637   5.671   5.765  1.6649 -2.6068  0.3806
   31MOL0     H 4134   1.702   5.867   5.534 -0.1817  0.5990 -0.7100
   31MOL0     H 4135   1.590   5.891   5.657 -0.6364  1.5580 -3.9276
   31MOL0     H 4136   1.961   5.801   5.609  1.0706  0.7645  0.0856
   31MOL0     H 4137   2.204   5.907   5.775 -2.0959 -1.0496  1.1013
   31MOL0     H 4138   2.174   5.981   5.611 -1.6550  1.8496 -0.3137
   31MOL0     H 4139   2.321   6.119   5.723 -1.2207 -1.2710  1.4270
   31MOL0     H 4140   2.161   6.202   5.681  0.7980  0.5341 -0.8751
   31MOL0     H 4141   2.266   6.118   5.953 -1.3047  1.3364  3.2539
   31MOL0     H 4142   2.101   6.171   5.917  0.6016  2.7492  1.7140
   31MOL0     H 4143   2.221   6.357   6.002 -0.0577  1.6132 -0.7972
   31MOL0     H 4144   2.198   6.382   5.824 -1.1467 -0.0677 -0.8079
   31MOL0     H 4145   2.263   6.589   5.901  0.4020 -1.9270  1.5018
   31MOL0     H 4146   2.374   6.803   5.942  1.2913  0.1380  3.0020
   31MOL0     H 4147   3.030   6.822   6.043 -0.5816 -0.3290  1.8180
   31MOL0     H 4148   3.182   6.985   6.182 -0.1383  0.8076  1.0106
   31MOL0     H 4149   3.016   7.352   6.223 -0.2979 -2.5536 -0.3892
   31MOL0     H 4150   3.123   7.398   6.362  0.0974  0.1535 -0.4016
   31MOL0     H 4151   3.326   7.301   6.240  1.1155  3.3141 -0.9156
   31MOL0     H 4152   3.233   7.236   6.117 -1.9789 -0.3821  1.6205
   31MOL0     H 4153   3.175   7.469   6.045 -1.6062 -1.5672  1.5324
   31MOL0     H 4154   3.278   7.524   6.179 -0.4624  0.6137  0.4893
   31MOL0     H 4155   3.391   7.360   5.956 -2.2914  0.6338 -0.0313
   31MOL0     H 4156   3.478   7.451   6.087  0.8458 -0.0580 -1.1021
   31MOL0     H 4157   3.390   7.669   6.005 -1.2474 -0.1186  0.0841
   31MOL0     H 4158   3.299   7.588   5.883 -2.1308  3.6259  2.5636
   31MOL0     H 4159   3.527   7.509   5.778 -2.4100 -0.2716  0.3872
   31MOL0     H 4160   3.469   7.665   5.754  1.2929  2.9071  1.0166
   31MOL0     H 4161   3.642   7.583   5.991 -0.7458  0.3375  0.1032
   31MOL0     H 4162   3.619   7.755   5.931  0.6735  0.6054  1.2151
   31MOL0     H 4163   3.835   7.652   5.872 -0.9957 -1.8301  2.8973
   31MOL0     H 4164   3.758   7.508   5.792  0.4882 -0.8239  0.1072
   31MOL0     H 4165   2.831   7.190   6.315 -2.2957  0.3908 -2.5003
   31MOL0     H 4166   2.684   7.030   6.200 -1.1052  0.5860 -3.5253
   31MOL0     H 4167   2.756   6.596   5.966  0.1030 -1.4699 -3.8151
   31MOL0     H 4168   2.619   6.372   5.936 -1.6055 -0.5822 -1.7554
   31MOL0     H 4169   1.028   5.250   4.892  0.6628  0.8307 -0.0972
   31MOL0     H 4170   0.807   5.307   4.799  1.2818  1.8936 -1.1251
   31MOL0     H 4171   0.404   5.701   5.029  0.7270 -0.9424 -0.5691
   31MOL0     H 4172   0.191   5.767   4.986  2.0039 -1.6068  2.2125
   31MOL0     H 4173   0.088   5.893   4.742 -2.3247  2.6742  0.9210
   31MOL0     H 4174   0.017   5.827   4.895 -2.6443 -2.5758 -0.0513
   31MOL0     H 4175  -0.126   5.874   4.647 -0.7860 -1.0642  0.4982
   31MOL0     H 4176  -0.128   5.980   4.797 -2.1354 -0.3022  1.6793
   31MOL0     H 4177  -0.211   5.702   4.852 -1.3818  0.0898  1.5266
   31MOL0     H 4178  -0.318   5.783   4.746 -0.3681  0.3747 -0.5139
   31MOL0     H 4179  -0.356   5.801   4.994  0.6146 -0.1719  2.2613
   31MOL0     H 4180  -0.220   5.916   4.995 -0.7797 -3.2278  2.2331
   31MOL0     H 4181  -0.547   6.155   4.859  0.1740  2.1772  1.7016
   31MOL0     H 4182   0.168   5.479   4.674 -1.5729  3.0162 -0.3044
   31MOL0     H 4183   0.487   5.484   4.577 -1.3111 -0.7658 -2.1016
   31MOL0     H 4184   0.491   5.364   4.715 -0.9846 -1.5995 -0.8944
   31MOL0     H 4185   0.364   5.360   4.593 -0.8461  2.8595 -2.7121
   32MOL0     O 4186   2.432   4.611   5.460 -0.0003 -0.4153 -0.1661
   32MOL0     C 4187   2.385   4.516   5.526 -0.8102  0.3645 -0.7493
   32MOL0     O 4188   2.375   4.394   5.478 -0.6415  0.5725  0.1741
   32MOL0     C 4189   2.400   4.359   5.346  0.3882 -0.3123 -0.5624
   32MOL0     C 4190   2.318   4.265   5.289  0.6908  0.5108 -1.6396
   32MOL0     C 4191   2.343   4.208   5.168 -0.2064  0.1775 -0.0740
   32MOL0     C 4192   2.433   4.266   5.081 -0.4837  0.0484  0.6196
   32MOL0     O 4193   2.442   4.215   4.952  0.1955  0.9763  0.8137
   32MOL0     C 4194   2.546   4.257   4.869 -0.0831  0.5694  0.3958
   32MOL0     C 4195   2.545   4.155   4.749  0.6040 -0.4652  0.1777
   32MOL0     C 4196   2.619   4.215   4.620  0.4973 -1.0040 -0.1039
   32MOL0     C 4197   2.753   4.271   4.648 -0.0872 -0.2135  0.0399
   32MOL0     C 4198   2.833   4.267   4.517 -0.1019  0.1119  0.3785
   32MOL0     C 4199   2.792   4.355   4.401  0.0432  0.6193  0.4675
   32MOL0     C 4200   2.785   4.509   4.445  1.2241  0.4125  0.5359
   32MOL0     C 4201   2.913   4.565   4.496  0.4478  0.5799 -0.2902
   32MOL0     N 4202   2.952   4.682   4.420 -0.2810 -0.3676 -0.5225
   32MOL0     C 4203   2.906   4.808   4.428 -0.0824  0.1137 -0.0379
   32MOL0     C 4204   3.009   4.880   4.364  0.2868 -0.2791  0.0352
   32MOL0     C 4205   3.015   5.028   4.338 -0.0860  0.1846  0.0007
   32MOL0     C 4206   2.954   5.080   4.203  0.6178  0.0883 -0.4004
   32MOL0     C 4207   3.046   5.040   4.085  0.1527  0.2208 -0.1133
   32MOL0     C 4208   3.175   5.130   4.079  0.8579 -0.4614  0.6043
   32MOL0     O 4209   3.129   5.268   4.041 -0.8701  0.7006 -0.0030
   32MOL0     C 4210   3.139   5.319   3.918 -0.5224 -0.9950  0.5584
   32MOL0     C 4211   3.224   5.269   3.818  0.5081 -0.8902 -0.5014
   32MOL0     C 4212   3.215   5.317   3.692 -0.2040  0.2643 -0.0112
   32MOL0     C 4213   3.124   5.418   3.662 -0.2030 -0.5023  0.6208
   32MOL0     C 4214   3.114   5.477   3.517  0.1178  0.7650 -0.5587
   32MOL0     O 4215   3.204   5.440   3.431 -0.5244 -0.1929  0.1579
   32MOL0     C 4216   3.183   5.432   3.296 -0.2836 -0.1538  0.0404
   32MOL0     C 4217   3.061   5.391   3.245 -0.2274  0.6323  0.0342
   32MOL0     C 4218   3.035   5.374   3.109 -0.1947  0.1592 -0.5502
   32MOL0     C 4219   3.127   5.420   3.018 -0.5057 -0.5294  0.6028
   32MOL0     O 4220   3.102   5.429   2.887  0.4637 -0.1687 -0.2335
   32MOL0     C 4221   3.126   5.556   2.827 -0.3273 -0.5963 -0.1689
   32MOL0     C 4222   3.018   5.574   2.707 -0.5617 -0.4573 -0.1007
   32MOL0     C 4223   3.049   5.714   2.651  0.5712 -0.0804 -0.3690
   32MOL0     C 4224   3.141   5.696   2.531 -0.2542  0.3943  0.1596
   32MOL0     C 4225   3.209   5.834   2.498 -0.7352  0.0745 -0.0415
   32MOL0     C 4226   3.292   5.916   2.606  0.5759 -0.9818  0.0672
   32MOL0     C 4227   3.403   5.828   2.660  0.0405 -0.4321 -0.2889
   32MOL0     C 4228   3.494   5.912   2.747  1.1331  0.7525  0.8912
   32MOL0    Cl 4229   3.422   5.945   2.901 -0.0599 -0.5791  0.3207
   32MOL0     C 4230   3.264   5.462   3.064  0.2498 -0.1823  0.1891
   32MOL0     C 4231   3.288   5.469   3.202  0.0755  0.3222 -0.3071
   32MOL0     O 4232   3.006   5.535   3.500  0.5675 -0.3482  0.0045
   32MOL0     C 4233   3.049   5.478   3.765 -0.2194  0.0042 -0.1146
   32MOL0     C 4234   3.059   5.431   3.889  0.3906  0.5465  0.8411
   32MOL0     N 4235   3.100   4.792   4.317  0.0384 -0.9162 -0.1983
   32MOL0     N 4236   3.066   4.678   4.354  0.2899  0.1036 -0.1594
   32MOL0     C 4237   2.511   4.377   5.125 -0.0998  0.2110 -0.1755
   32MOL0     C 4238   2.497   4.414   5.258  0.2129 -0.6550 -0.0835
   32MOL0     C 4239   2.321   4.539   5.657  0.3408 -1.1254 -0.5757
   32MOL0     C 4240   2.215   4.455   5.688  0.2916 -0.2638  0.8537
   32MOL0     C 4241   2.130   4.477   5.802  0.3615 -0.5710 -0.6657
   32MOL0     C 4242   2.138   4.585   5.882 -0.7496  0.7495  1.0837
   32MOL0     O 4243   2.043   4.605   5.975  0.1092  0.3734 -0.7928
   32MOL0     C 4244   1.909   4.635   5.928  0.1364  0.0102 -0.2342
   32MOL0     C 4245   1.818   4.522   5.954  0.4176 -0.6315  0.2625
   32MOL0     C 4246   1.682   4.546   5.879  0.3038  0.0315 -0.3811
   32MOL0     C 4247   1.579   4.449   5.927  0.2508  0.0260 -0.0674
   32MOL0     C 4248   1.453   4.459   5.852 -0.2817 -0.8511 -0.7716
   32MOL0     C 4249   1.342   4.465   5.797  0.4341 -0.2425  0.0891
   32MOL0     C 4250   2.242   4.670   5.851  0.3603 -0.3247 -0.7403
   32MOL0     C 4251   2.346   4.655   5.748  0.0808 -0.0216 -0.4564
   32MOL0     C 4252   2.450   4.763   5.731  0.2798 -0.3700 -0.0446
   32MOL0     H 4253   2.249   4.225   5.363  3.5969  2.1772  2.3802
   32MOL0     H 4254   2.271   4.137   5.126 -1.7809  0.7745  1.5151
   32MOL0     H 4255   2.531   4.359   4.834  2.7299  0.5870 -1.0151
   32MOL0     H 4256   2.645   4.254   4.913  0.5132 -1.9397 -0.9112
   32MOL0     H 4257   2.441   4.132   4.723  0.1810 -0.7888  2.0027
   32MOL0     H 4258   2.592   4.059   4.775 -1.5876 -1.3433  1.1460
   32MOL0     H 4259   2.552   4.294   4.586  3.7788  1.2804 -1.7047
   32MOL0     H 4260   2.631   4.127   4.556 -1.2018 -1.8617  0.6567
   32MOL0     H 4261   2.764   4.368   4.698 -0.3632 -2.3462  4.7769
   32MOL0     H 4262   2.810   4.210   4.719  0.0848  1.4703  1.4257
   32MOL0     H 4263   2.931   4.295   4.557 -0.9462  1.9477  1.2781
   32MOL0     H 4264   2.838   4.170   4.466  0.1841  0.6685 -0.6820
   32MOL0     H 4265   2.862   4.338   4.319 -0.6399  2.1196 -0.4853
   32MOL0     H 4266   2.691   4.331   4.365 -1.5200  3.5366  2.3792
   32MOL0     H 4267   2.703   4.516   4.517 -1.6024 -1.5591 -2.2000
   32MOL0     H 4268   2.765   4.567   4.355  2.8148  0.9851  0.5203
   32MOL0     H 4269   2.892   4.591   4.600 -0.1769 -2.1710  0.3473
   32MOL0     H 4270   2.991   4.489   4.489 -1.9782 -1.9937 -0.9913
   32MOL0     H 4271   2.811   4.841   4.470 -0.8353  0.7663 -2.1476
   32MOL0     H 4272   2.956   5.066   4.422 -0.1693  1.9378 -0.7933
   32MOL0     H 4273   3.117   5.065   4.356 -0.0480 -0.4815  1.2114
   32MOL0     H 4274   2.852   5.043   4.205  0.4244  0.5941  1.6974
   32MOL0     H 4275   2.937   5.188   4.212 -3.7876 -0.3323 -1.6990
   32MOL0     H 4276   2.991   5.070   3.995  0.3248 -1.3957 -0.7775
   32MOL0     H 4277   3.067   4.934   4.069  2.6953  0.7366 -0.6185
   32MOL0     H 4278   3.229   5.067   4.008 -0.0246  1.8317 -2.2775
   32MOL0     H 4279   3.231   5.136   4.173 -1.9709  2.2769  2.2977
   32MOL0     H 4280   3.299   5.191   3.830  0.6603 -0.9188 -1.5063
   32MOL0     H 4281   3.280   5.271   3.618 -0.6621 -2.8497  1.3628
   32MOL0     H 4282   2.990   5.354   3.319 -1.7639  1.3226 -1.0438
   32MOL0     H 4283   2.937   5.336   3.082 -0.5409  0.5535  0.1430
   32MOL0     H 4284   3.110   5.639   2.896 -4.5790  0.4239 -2.0018
   32MOL0     H 4285   3.227   5.577   2.790  0.1511 -0.6377  1.0875
   32MOL0     H 4286   3.012   5.489   2.638 -3.3240 -0.4418  0.0441
   32MOL0     H 4287   2.921   5.581   2.756 -1.2355 -0.0260 -1.4505
   32MOL0     H 4288   2.964   5.774   2.617  0.4332 -0.1631 -0.1730
   32MOL0     H 4289   3.106   5.771   2.725  1.6563  1.9516 -2.6371
   32MOL0     H 4290   3.084   5.682   2.439 -1.8756  0.1180  1.1541
   32MOL0     H 4291   3.217   5.618   2.541 -0.5762 -0.0809 -0.9804
   32MOL0     H 4292   3.129   5.896   2.458 -0.1813  1.9369  1.5616
   32MOL0     H 4293   3.278   5.823   2.414 -1.2652  2.7416 -0.8957
   32MOL0     H 4294   3.333   6.006   2.558  0.4192 -0.8770  0.1294
   32MOL0     H 4295   3.219   5.948   2.681  0.6197  2.2998 -1.1317
   32MOL0     H 4296   3.474   5.784   2.588 -0.5281 -3.2737  0.7422
   32MOL0     H 4297   3.371   5.755   2.735  0.2228  3.8771  4.5102
   32MOL0     H 4298   3.589   5.860   2.765  2.0953  1.8953 -0.6530
   32MOL0     H 4299   3.517   6.009   2.701  1.0748  0.7847  0.9306
   32MOL0     H 4300   3.342   5.486   2.992  1.7458 -1.8128  1.1946
   32MOL0     H 4301   3.387   5.499   3.237  1.4514 -0.9249 -2.8385
   32MOL0     H 4302   2.975   5.558   3.756 -2.9501 -2.3383  0.1421
   32MOL0     H 4303   2.989   5.455   3.969  1.2857  1.9417  1.2386
   32MOL0     H 4304   2.583   4.421   5.056 -1.3304  3.9007  0.6775
   32MOL0     H 4305   2.561   4.491   5.301  0.3362 -1.2987  0.9069
   32MOL0     H 4306   2.206   4.365   5.628 -0.3778  0.2293  0.2000
   32MOL0     H 4307   2.056   4.399   5.815  2.0978 -2.2411 -0.3430
   32MOL0     H 4308   1.911   4.652   5.820  1.4609 -0.9576 -0.3932
   32MOL0     H 4309   1.876   4.726   5.978  2.1644  1.6396 -1.6623
   32MOL0     H 4310   1.809   4.492   6.059 -2.9952  0.0795  0.2682
   32MOL0     H 4311   1.859   4.438   5.897  1.3174 -1.2659  1.7629
   32MOL0     H 4312   1.688   4.542   5.770 -0.4044 -1.6894 -0.3962
   32MOL0     H 4313   1.653   4.649   5.901 -3.3055 -0.2761 -2.7397
   32MOL0     H 4314   1.604   4.343   5.921  0.5339  0.0600  0.3855
   32MOL0     H 4315   1.563   4.478   6.032  2.6735  0.4764  0.2455
   32MOL0     H 4316   1.252   4.472   5.740 -1.1259 -1.4266  2.2683
   32MOL0     H 4317   2.252   4.748   5.926  1.6907  0.7706 -1.9901
   32MOL0     H 4318   2.396   4.825   5.659 -0.5340 -1.8535 -0.7674
   32MOL0     H 4319   2.474   4.800   5.831 -1.7767 -0.1596  0.4216
   32MOL0     H 4320   2.541   4.731   5.680  1.8238  0.4271  2.0952
   33MOL0     O 4321   7.019   0.475   1.861  0.4562  0.4661 -0.7360
   33MOL0     C 4322   6.994   0.536   1.969 -0.6179  0.3195 -0.0922
   33MOL0     O 4323   6.940   0.481   2.079 -0.2358 -0.6938  0.0200
   33MOL0     C 4324   6.925   0.343   2.084  0.5698 -0.9676 -0.0235
   33MOL0     C 4325   7.007   0.288   2.173 -0.4438  0.3069 -0.0863
   33MOL0     C 4326   7.020   0.154   2.195  0.6143  1.4157  0.2814
   33MOL0     C 4327   6.935   0.075   2.116  0.3119 -0.3601 -0.4042
   33MOL0     O 4328   6.944  -0.054   2.112 -0.4872 -0.1349 -0.8338
   33MOL0     C 4329   6.938  -0.131   2.235  0.2185  0.0156 -0.2972
   33MOL0     C 4330   7.010  -0.261   2.220  0.0782 -0.7931  0.0552
   33MOL0     C 4331   7.153  -0.251   2.268 -0.3362  0.6714 -0.5034
   33MOL0     C 4332   7.230  -0.385   2.247 -0.1017 -0.1087 -0.4641
   33MOL0     C 4333   7.377  -0.376   2.311  0.8706  1.0917 -0.2478
   33MOL0     C 4334   7.468  -0.264   2.268 -0.2458 -0.6838  0.1785
   33MOL0     C 4335   7.592  -0.287   2.344  0.3691 -0.2800  0.0026
   33MOL0     C 4336   7.701  -0.179   2.305 -0.4749 -0.2921 -0.0448
   33MOL0     N 4337   7.724  -0.185   2.156  0.5619  0.5050  0.2309
   33MOL0     C 4338   7.793  -0.291   2.085  1.7891 -0.9438 -1.6234
   33MOL0     C 4339   7.765  -0.256   1.961 -0.4446 -1.5899  0.0666
   33MOL0     C 4340   7.809  -0.333   1.844 -0.3056  1.0576 -0.7150
   33MOL0     C 4341   7.748  -0.483   1.857  0.1435 -0.3951 -0.9731
   33MOL0     C 4342   7.803  -0.577   1.749 -0.5299 -0.1686 -0.3806
   33MOL0     C 4343   7.953  -0.590   1.760  0.1250  0.0300  0.3224
   33MOL0     O 4344   8.004  -0.495   1.661 -0.3082  0.2332  0.8391
   33MOL0     C 4345   8.133  -0.477   1.656 -0.3147 -0.1011 -0.3768
   33MOL0     C 4346   8.230  -0.539   1.736 -0.6584 -1.1005  0.2124
   33MOL0     C 4347   8.361  -0.489   1.743 -0.9910 -0.6199  0.6383
   33MOL0     C 4348   8.400  -0.373   1.671  0.5029  0.0163 -0.8628
   33MOL0     C 4349   8.537  -0.317   1.691  0.2311  0.5475  0.0032
   33MOL0     O 4350   8.615  -0.361   1.791  0.1137  0.1900 -0.1464
   33MOL0     C 4351   8.732  -0.290   1.815 -0.5992  0.9088  0.5497
   33MOL0     C 4352   8.757  -0.242   1.941  0.4842 -0.4616 -0.2753
   33MOL0     C 4353   8.883  -0.186   1.976  0.4733  0.8708  1.5683
   33MOL0     C 4354   8.983  -0.181   1.881 -0.7667 -0.6018 -0.4462
   33MOL0     O 4355   9.102  -0.127   1.931 -0.8233 -0.5751  0.4426
   33MOL0     C 4356   9.224  -0.126   1.853  0.2856  0.7359  0.0504
   33MOL0     C 4357   9.346  -0.115   1.943 -0.8986  0.1848 -0.3703
   33MOL0     C 4358   9.458  -0.175   1.865  0.7347  0.2202  0.2397
   33MOL0     C 4359   9.582  -0.150   1.949 -0.9765  0.2114  0.4222
   33MOL0     C 4360   9.711  -0.169   1.869  0.0456 -0.1395 -0.0773
   33MOL0     C 4361   9.725  -0.312   1.821  0.3598 -0.3917  0.8371
   33MOL0     C 4362   9.729  -0.413   1.933 -0.3292  0.1597  1.3186
   33MOL0     C 4363   9.781  -0.550   1.881 -0.9351 -0.8355 -0.0929
   33MOL0    Cl 4364   9.961  -0.540   1.849 -0.3197 -0.1860 -0.0638
   33MOL0     C 4365   8.960  -0.229   1.762  0.6526 -0.4336 -0.0890
   33MOL0     C 4366   8.834  -0.276   1.727 -0.0490 -0.1140  0.4404
   33MOL0     O 4367   8.560  -0.227   1.618  0.1255 -0.0198 -0.8676
   33MOL0     C 4368   8.297  -0.314   1.586 -0.3843  0.0281  0.1396
   33MOL0     C 4369   8.168  -0.366   1.575  0.0905  0.6071 -0.2880
   33MOL0     N 4370   7.701  -0.128   1.952 -0.2301 -0.1913  0.9940
   33MOL0     N 4371   7.667  -0.098   2.066 -0.6430  0.0850  0.1746
   33MOL0     C 4372   6.850   0.126   2.022 -0.0072  0.3980  0.7549
   33MOL0     C 4373   6.842   0.261   2.009 -0.0892  0.0423  0.4191
   33MOL0     C 4374   7.042   0.669   1.992  0.4588 -0.0643 -0.4840
   33MOL0     C 4375   7.076   0.693   2.127  0.1635 -0.7896 -0.6307
   33MOL0     C 4376   7.095   0.826   2.173  0.5852 -0.2225 -0.6854
   33MOL0     C 4377   7.115   0.929   2.080  0.0205  0.1687 -0.3297
   33MOL0     O 4378   7.130   1.056   2.123  0.3685 -0.4817 -0.2719
   33MOL0     C 4379   7.112   1.169   2.031 -0.8587  0.5502 -0.6312
   33MOL0     C 4380   6.966   1.195   2.009 -0.6746 -0.0991  0.2823
   33MOL0     C 4381   6.915   1.233   2.144  0.5587 -0.5283 -0.0288
   33MOL0     C 4382   6.769   1.197   2.126  0.1625  0.6262  0.7439
   33MOL0     C 4383   6.683   1.244   2.236 -0.6651  0.6789  0.0957
   33MOL0     C 4384   6.613   1.281   2.326  0.1691 -0.4585  0.0562
   33MOL0     C 4385   7.107   0.890   1.941 -0.2868 -0.3985 -0.7158
   33MOL0     C 4386   7.072   0.761   1.902 -0.5285 -1.0827 -0.3237
   33MOL0     C 4387   7.076   0.747   1.750 -0.5502 -0.7553 -0.4057
   33MOL0     H 4388   7.084   0.341   2.227  0.5558 -2.0063  0.8742
   33MOL0     H 4389   7.079   0.111   2.276 -3.9999 -1.3553  2.6153
   33MOL0     H 4390   6.976  -0.093   2.330  0.0955  0.8084 -0.5591
   33MOL0     H 4391   6.833  -0.159   2.249  0.0842  0.2653 -0.8212
   33MOL0     H 4392   7.016  -0.307   2.121  0.7230  0.0518 -0.3110
   33MOL0     H 4393   6.955  -0.331   2.283  0.7344 -1.0971  0.2913
   33MOL0     H 4394   7.144  -0.254   2.377 -0.1356 -1.1752 -0.4938
   33MOL0     H 4395   7.210  -0.163   2.237  3.8816 -1.5940  0.0714
   33MOL0     H 4396   7.182  -0.467   2.301  1.6787 -0.9878 -0.1575
   33MOL0     H 4397   7.245  -0.406   2.141  2.0729 -0.5347 -0.1054
   33MOL0     H 4398   7.372  -0.385   2.420 -0.5540 -1.5915 -0.4270
   33MOL0     H 4399   7.411  -0.478   2.288 -1.9114 -0.3130  1.2653
   33MOL0     H 4400   7.488  -0.280   2.161  0.2062 -4.1010  0.6477
   33MOL0     H 4401   7.420  -0.168   2.289 -1.4313 -1.7523  2.8026
   33MOL0     H 4402   7.626  -0.391   2.333 -0.2400 -0.7512  2.1896
   33MOL0     H 4403   7.572  -0.283   2.451 -1.0512  0.2004 -0.2532
   33MOL0     H 4404   7.674  -0.079   2.340  0.8643  1.1008 -2.6760
   33MOL0     H 4405   7.796  -0.208   2.350 -1.3428 -1.7855  0.9105
   33MOL0     H 4406   7.852  -0.368   2.134  2.3075  0.6052  0.3392
   33MOL0     H 4407   7.771  -0.293   1.750 -0.2800  0.9490 -0.7715
   33MOL0     H 4408   7.918  -0.335   1.853 -0.4949 -0.0964  3.0418
   33MOL0     H 4409   7.768  -0.539   1.949 -2.7544 -0.7298 -0.4503
   33MOL0     H 4410   7.639  -0.488   1.845  0.1334 -4.4584 -0.6171
   33MOL0     H 4411   7.764  -0.543   1.652 -1.2414  2.8562  0.8434
   33MOL0     H 4412   7.757  -0.676   1.761 -1.5630  0.2210 -0.9815
   33MOL0     H 4413   8.002  -0.687   1.747 -1.7094 -1.0124  0.7651
   33MOL0     H 4414   8.000  -0.552   1.851  0.2545 -1.2254  0.7955
   33MOL0     H 4415   8.209  -0.625   1.798 -1.6625 -0.2435  1.1002
   33MOL0     H 4416   8.424  -0.555   1.802  0.4273  0.0969 -0.0489
   33MOL0     H 4417   8.680  -0.256   2.017 -1.0790  0.0253 -1.7059
   33MOL0     H 4418   8.891  -0.163   2.082 -0.6352 -1.4975  2.2489
   33MOL0     H 4419   9.235  -0.221   1.799  2.0242  0.8001  0.2213
   33MOL0     H 4420   9.223  -0.053   1.770  2.0208  1.6617  0.7901
   33MOL0     H 4421   9.364  -0.013   1.977 -2.7266  0.2279  0.5976
   33MOL0     H 4422   9.336  -0.176   2.033  0.7240  0.9058  0.3547
   33MOL0     H 4423   9.458  -0.284   1.862  1.5823  0.2155 -2.0466
   33MOL0     H 4424   9.463  -0.133   1.764 -2.6001 -0.3012 -0.2405
   33MOL0     H 4425   9.581  -0.221   2.032 -2.6220 -4.0375 -2.8492
   33MOL0     H 4426   9.579  -0.046   1.982  0.8813  0.6303 -0.5535
   33MOL0     H 4427   9.799  -0.138   1.925  0.2984  0.6409 -0.8964
   33MOL0     H 4428   9.711  -0.108   1.779 -0.2829  0.7375  0.5083
   33MOL0     H 4429   9.648  -0.341   1.750 -2.1125  0.5336  2.9669
   33MOL0     H 4430   9.820  -0.313   1.768  0.3823  1.4072  0.7735
   33MOL0     H 4431   9.625  -0.424   1.963 -0.1233 -1.8132  1.4573
   33MOL0     H 4432   9.799  -0.374   2.008  1.3200  1.1929 -0.6611
   33MOL0     H 4433   9.773  -0.638   1.945 -1.8566 -0.8227 -0.1873
   33MOL0     H 4434   9.724  -0.568   1.790  0.6734 -1.0895 -1.0893
   33MOL0     H 4435   9.031  -0.210   1.682  1.8911  2.7010  1.5888
   33MOL0     H 4436   8.805  -0.311   1.629  0.5879 -0.6558  0.4348
   33MOL0     H 4437   8.313  -0.226   1.525 -2.6009 -0.9620 -2.0084
   33MOL0     H 4438   8.082  -0.326   1.522  0.6305 -0.1305 -1.7843
   33MOL0     H 4439   6.781   0.061   1.970 -2.2676 -0.1379  4.1255
   33MOL0     H 4440   6.778   0.312   1.937 -0.7295  0.5976  1.3624
   33MOL0     H 4441   7.050   0.639   2.218 -0.8261  1.0736  0.2651
   33MOL0     H 4442   7.091   0.860   2.276  2.0917  0.3055 -0.7788
   33MOL0     H 4443   7.169   1.152   1.939  0.7619 -1.7827  0.7121
   33MOL0     H 4444   7.156   1.248   2.093  2.2475 -0.2163 -1.6620
   33MOL0     H 4445   6.919   1.109   1.960  1.2401 -1.3030  0.4250
   33MOL0     H 4446   6.955   1.280   1.942  1.9913  0.5528  0.5305
   33MOL0     H 4447   6.918   1.342   2.160  2.8275 -0.3400 -1.3243
   33MOL0     H 4448   6.970   1.179   2.222 -1.2680  0.6083  2.1893
   33MOL0     H 4449   6.738   1.238   2.029  2.2280  0.1834 -0.1624
   33MOL0     H 4450   6.746   1.090   2.116 -0.2444  0.6723  1.1363
   33MOL0     H 4451   6.547   1.312   2.404  1.2594 -0.7823  1.1530
   33MOL0     H 4452   7.135   0.955   1.859 -3.8964 -1.5405 -3.1090
   33MOL0     H 4453   7.075   0.849   1.709  4.0174 -0.4226 -0.2165
   33MOL0     H 4454   7.177   0.713   1.728  0.4363  1.3633  0.5846
   33MOL0     H 4455   7.002   0.680   1.705 -2.2987  1.9410 -1.8187
   34MOL0     O 4456   0.718   0.098  10.298  0.5798  0.6299 -0.3035
   34MOL0     C 4457   0.731   0.020  10.202 -0.4805  0.9257  0.1533
   34MOL0     O 4458   0.652   0.014  10.093 -0.2386 -0.6116 -0.7507
   34MOL0     C 4459   0.583   0.123  10.046  1.2939  0.5486  0.2967
   34MOL0     C 4460   0.504   0.099   9.932  1.0188 -0.0402 -0.3590
   34MOL0     C 4461   0.441   0.203   9.856  0.3070 -0.2500  0.2001
   34MOL0     C 4462   0.474   0.337   9.879  0.9256  0.8507  0.2722
   34MOL0     O 4463   0.408   0.430   9.795  0.6030  0.2214  1.1526
   34MOL0     C 4464   0.375   0.555   9.843 -0.2188 -0.2707  0.4080
   34MOL0     C 4465   0.436   0.664   9.752 -0.1395 -0.3601 -0.8393
   34MOL0     C 4466   0.587   0.646   9.734  0.2160  1.0892 -0.0387
   34MOL0     C 4467   0.653   0.757   9.662  0.3621 -0.6748 -0.3333
   34MOL0     C 4468   0.699   0.865   9.764 -0.0386  1.0488 -0.6154
   34MOL0     C 4469   0.799   0.971   9.710  0.5685 -0.5095  0.3578
   34MOL0     C 4470   0.920   0.914   9.631  0.0783  0.4179  0.2301
   34MOL0     C 4471   1.030   1.017   9.597 -0.4137  0.2471 -0.0655
   34MOL0     N 4472   1.096   1.067   9.718 -1.0930  0.8074  0.1982
   34MOL0     C 4473   1.186   0.995   9.796 -0.9076 -0.3807 -0.4218
   34MOL0     C 4474   1.229   1.081   9.889  0.4637 -0.4472 -0.2386
   34MOL0     C 4475   1.325   1.058   9.999  0.1378 -0.1888 -0.6153
   34MOL0     C 4476   1.477   1.052   9.951  0.5241  0.2074 -1.2374
   34MOL0     C 4477   1.499   0.970   9.814  1.0793 -0.0068 -0.3029
   34MOL0     C 4478   1.640   0.958   9.766  1.1409 -0.7667 -0.7719
   34MOL0     O 4479   1.646   0.871   9.658 -0.1490  0.6297  0.2026
   34MOL0     C 4480   1.717   0.925   9.555  0.3856 -0.9664 -0.0660
   34MOL0     C 4481   1.693   1.060   9.505 -0.3624  0.6394 -0.3908
   34MOL0     C 4482   1.779   1.108   9.407  0.6440  0.4566  0.7252
   34MOL0     C 4483   1.887   1.029   9.358  0.0966 -0.3726 -0.1003
   34MOL0     C 4484   1.972   1.080   9.246 -1.1101 -0.2143 -0.4175
   34MOL0     O 4485   2.036   0.986   9.171  0.0073  0.0910 -0.4938
   34MOL0     C 4486   2.120   1.018   9.067  0.5498 -0.3623 -0.2367
   34MOL0     C 4487   2.181   0.907   9.007 -0.4472  0.1512 -0.1480
   34MOL0     C 4488   2.298   0.916   8.922  0.2555  0.3868 -0.9202
   34MOL0     C 4489   2.332   1.034   8.862  0.2120 -0.4186  0.7723
   34MOL0     O 4490   2.428   1.033   8.760 -0.3004 -0.1653  0.5700
   34MOL0     C 4491   2.558   1.097   8.795  0.1398 -0.0343  0.1052
   34MOL0     C 4492   2.644   1.097   8.667  0.1941  0.2976  0.0946
   34MOL0     C 4493   2.788   1.150   8.697  0.4198 -0.8078 -0.6817
   34MOL0     C 4494   2.882   1.161   8.577  1.1143  0.6837  0.6464
   34MOL0     C 4495   2.888   1.051   8.467  0.1824 -0.3404 -0.2783
   34MOL0     C 4496   3.011   1.046   8.382 -0.1669 -0.0750  0.6626
   34MOL0     C 4497   3.062   1.176   8.309  0.4314 -0.0547  0.0228
   34MOL0     C 4498   3.127   1.162   8.177 -0.3966 -0.6843  0.7029
   34MOL0    Cl 4499   3.299   1.100   8.206 -0.3960  0.0668 -0.2718
   34MOL0     C 4500   2.256   1.150   8.894 -0.1010  0.2093 -0.4284
   34MOL0     C 4501   2.151   1.140   8.993 -0.4095  1.1964  0.1147
   34MOL0     O 4502   1.962   1.198   9.228  0.5358  0.3736 -0.2258
   34MOL0     C 4503   1.909   0.896   9.408 -0.4544 -0.6714  0.7440
   34MOL0     C 4504   1.824   0.845   9.505  0.1765 -0.5409  0.2383
   34MOL0     N 4505   1.158   1.198   9.885 -0.3035  0.1543  0.2383
   34MOL0     N 4506   1.081   1.180   9.786 -0.4264 -0.2781  0.6832
   34MOL0     C 4507   0.561   0.365   9.978 -0.5903  0.1423 -0.4951
   34MOL0     C 4508   0.628   0.263  10.053  0.0380  0.3638 -0.1620
   34MOL0     C 4509   0.849  -0.069  10.209 -0.6186 -0.3862  0.1531
   34MOL0     C 4510   0.861  -0.161  10.108  0.5548  0.3235 -0.9153
   34MOL0     C 4511   0.962  -0.262  10.106  0.8274 -0.0374 -0.0465
   34MOL0     C 4512   1.055  -0.262  10.211 -1.3660 -0.1368 -0.1596
   34MOL0     O 4513   1.155  -0.349  10.228 -0.2370  0.3005  0.1146
   34MOL0     C 4514   1.212  -0.434  10.125  0.8321 -0.7753 -0.6497
   34MOL0     C 4515   1.319  -0.366  10.036 -0.1750 -0.6678  0.7560
   34MOL0     C 4516   1.398  -0.469   9.943  0.4050 -0.4645 -0.0487
   34MOL0     C 4517   1.319  -0.502   9.809  0.3249  0.2750  0.1378
   34MOL0     C 4518   1.212  -0.598   9.826  0.7487  0.9118 -0.7656
   34MOL0     C 4519   1.131  -0.685   9.824  0.1586  0.2281 -0.4937
   34MOL0     C 4520   1.042  -0.165  10.314  0.6027 -0.5698 -0.2241
   34MOL0     C 4521   0.942  -0.068  10.310 -0.8959  0.1044 -0.1290
   34MOL0     C 4522   0.935   0.027  10.434  0.0637 -0.1755  0.4024
   34MOL0     H 4523   0.480  -0.004   9.907  1.0149 -0.0779 -0.2007
   34MOL0     H 4524   0.373   0.182   9.774  1.6989  0.3387 -1.1678
   34MOL0     H 4525   0.266   0.555   9.846 -0.2890 -2.9711  0.5628
   34MOL0     H 4526   0.409   0.560   9.947  1.6019  0.9478 -0.1997
   34MOL0     H 4527   0.409   0.752   9.811 -3.2909 -2.6376  1.4859
   34MOL0     H 4528   0.382   0.677   9.658 -1.3320 -0.8894 -0.2513
   34MOL0     H 4529   0.600   0.552   9.679 -0.7428  1.0597 -0.2206
   34MOL0     H 4530   0.635   0.617   9.828  0.9116 -3.9386 -1.6419
   34MOL0     H 4531   0.726   0.722   9.588 -1.3000 -3.3293 -0.8595
   34MOL0     H 4532   0.585   0.809   9.594 -1.8071 -2.3329  0.4651
   34MOL0     H 4533   0.611   0.922   9.794  0.7658  1.2947  1.4473
   34MOL0     H 4534   0.748   0.821   9.851 -1.3230 -1.6427 -1.1473
   34MOL0     H 4535   0.746   1.044   9.648 -0.6070 -3.2566 -2.1581
   34MOL0     H 4536   0.832   1.014   9.804 -1.3520 -0.3993  1.0262
   34MOL0     H 4537   0.887   0.886   9.530  1.9315  4.2132 -1.6316
   34MOL0     H 4538   0.964   0.824   9.675 -1.2372 -1.0869 -1.3240
   34MOL0     H 4539   1.108   0.976   9.533 -1.9573  1.0448 -2.6245
   34MOL0     H 4540   0.978   1.100   9.548  0.6408  0.9372 -0.0418
   34MOL0     H 4541   1.217   0.893   9.775  2.9252  1.0836 -2.8235
   34MOL0     H 4542   1.315   1.127  10.083  0.1860 -2.1390  1.0904
   34MOL0     H 4543   1.299   0.963  10.047 -0.7221  1.6343  2.8196
   34MOL0     H 4544   1.507   1.155   9.930  1.6976  0.1198 -0.1160
   34MOL0     H 4545   1.537   0.999  10.025 -2.1968 -1.2510  0.0634
   34MOL0     H 4546   1.436   1.013   9.735  0.7157  1.7218  0.8932
   34MOL0     H 4547   1.477   0.863   9.823  2.6048 -0.4854 -1.8029
   34MOL0     H 4548   1.680   0.907   9.854 -2.2483 -2.7946 -0.2098
   34MOL0     H 4549   1.676   1.060   9.753  0.3663 -0.1208  1.7147
   34MOL0     H 4550   1.597   1.104   9.531 -1.5050 -1.5160 -0.7004
   34MOL0     H 4551   1.758   1.212   9.385  1.4782  1.4444  4.0820
   34MOL0     H 4552   2.153   0.812   9.052  0.1266  0.5381  1.0600
   34MOL0     H 4553   2.343   0.818   8.908 -2.2885 -1.0692  0.4537
   34MOL0     H 4554   2.530   1.200   8.816 -4.5598 -0.4893 -2.5195
   34MOL0     H 4555   2.612   1.039   8.871  2.3534 -0.3932 -1.6317
   34MOL0     H 4556   2.649   0.999   8.618  0.1952  1.9067 -3.4732
   34MOL0     H 4557   2.598   1.162   8.592 -0.9802 -0.9979 -0.3522
   34MOL0     H 4558   2.783   1.248   8.746 -0.4634 -1.7871  1.2858
   34MOL0     H 4559   2.825   1.096   8.784  2.0290  1.9473  0.4681
   34MOL0     H 4560   2.983   1.173   8.617  0.8361  0.5217  1.4325
   34MOL0     H 4561   2.860   1.255   8.526  1.7457 -0.1154 -1.1756
   34MOL0     H 4562   2.801   1.070   8.402  1.5085  0.3756 -1.9156
   34MOL0     H 4563   2.860   0.958   8.516  1.0779 -0.1755  0.5689
   34MOL0     H 4564   3.089   1.007   8.448  2.4932 -2.2912 -3.3617
   34MOL0     H 4565   2.998   0.968   8.306  1.3103  0.8207 -0.5784
   34MOL0     H 4566   3.116   1.238   8.382 -4.2111  1.5358  2.5315
   34MOL0     H 4567   2.973   1.234   8.283  1.8699  1.9244 -0.7295
   34MOL0     H 4568   3.066   1.093   8.117 -0.1486  0.2484 -0.6838
   34MOL0     H 4569   3.118   1.259   8.126 -0.4189  0.7390  3.2628
   34MOL0     H 4570   2.277   1.239   8.836  1.5782 -0.0078 -0.2259
   34MOL0     H 4571   2.086   1.223   9.020 -4.1123 -1.6966  1.0192
   34MOL0     H 4572   1.988   0.829   9.379  0.5632  1.0404 -0.6172
   34MOL0     H 4573   1.832   0.741   9.534  1.6122 -0.0217  1.8814
   34MOL0     H 4574   0.587   0.470   9.988  0.9224 -0.2265 -0.3224
   34MOL0     H 4575   0.698   0.298  10.128 -2.1769  0.8790  1.7610
   34MOL0     H 4576   0.791  -0.158  10.025 -2.5089  1.8368  1.5112
   34MOL0     H 4577   0.976  -0.336  10.027  1.9015 -3.1138  2.8148
   34MOL0     H 4578   1.143  -0.461  10.044 -0.5869  0.8874 -0.0531
   34MOL0     H 4579   1.252  -0.525  10.170  1.1787 -0.5052 -0.4090
   34MOL0     H 4580   1.396  -0.321  10.100  0.7369  2.3374 -2.1338
   34MOL0     H 4581   1.284  -0.281   9.976 -1.7646 -1.3456  0.6792
   34MOL0     H 4582   1.392  -0.562  10.001  1.2057  0.4059  1.4752
   34MOL0     H 4583   1.496  -0.422   9.934  1.3982 -2.2183  1.0073
   34MOL0     H 4584   1.272  -0.407   9.782 -0.8477 -0.7473 -1.5550
   34MOL0     H 4585   1.393  -0.535   9.735  0.9735  0.5456  0.6464
   34MOL0     H 4586   1.062  -0.767   9.815  0.3569 -0.1479  1.0515
   34MOL0     H 4587   1.092  -0.166  10.411 -2.4167  0.8369  1.4968
   34MOL0     H 4588   0.937   0.136  10.427  1.2143  0.0822  3.3298
   34MOL0     H 4589   0.854  -0.007  10.500  1.7601 -0.7444  2.2885
   34MOL0     H 4590   1.018   0.007  10.503  0.1739 -1.0919  0.0112
   35MOL0     O 4591   1.005   1.081   6.814 -0.1242 -0.1715  0.3224
   35MOL0     C 4592   0.940   1.142   6.902 -0.7910 -0.1540  0.1250
   35MOL0     O 4593   0.906   1.097   7.023  0.3632 -0.0607  0.3702
   35MOL0     C 4594   0.914   0.967   7.048 -0.3112  0.4532 -0.3663
   35MOL0     C 4595   1.042   0.912   7.064 -0.1659 -0.0157  0.3868
   35MOL0     C 4596   1.051   0.779   7.102 -0.0485  0.0368  0.7364
   35MOL0     C 4597   0.933   0.703   7.133  0.2615 -0.2205  0.1183
   35MOL0     O 4598   0.939   0.572   7.174 -0.6524  0.8921 -0.5211
   35MOL0     C 4599   1.069   0.493   7.173  0.4136 -0.5247 -0.5228
   35MOL0     C 4600   1.069   0.345   7.207 -0.2378  0.0143 -0.0960
   35MOL0     C 4601   0.992   0.316   7.337  0.3242  0.0391 -0.8397
   35MOL0     C 4602   0.938   0.173   7.337  0.5580  0.4743  0.7443
   35MOL0     C 4603   0.896   0.127   7.476 -0.3592 -0.5499 -0.5525
   35MOL0     C 4604   1.007   0.063   7.565 -0.2022 -1.0910 -0.1699
   35MOL0     C 4605   0.969   0.001   7.703  0.0006 -0.0672  0.1233
   35MOL0     C 4606   0.998   0.102   7.818 -0.8970  0.0814 -0.4476
   35MOL0     N 4607   1.120   0.084   7.896 -0.4482 -0.4485 -0.2259
   35MOL0     C 4608   1.248   0.109   7.852 -0.5838 -0.9001 -0.5635
   35MOL0     C 4609   1.336   0.078   7.950 -0.1481 -0.3046  0.0497
   35MOL0     C 4610   1.485   0.090   7.926  0.7604 -0.0583 -0.7307
   35MOL0     C 4611   1.557  -0.022   7.989 -0.3265 -0.4484  0.5716
   35MOL0     C 4612   1.606   0.011   8.129  0.5732 -0.0888 -0.1185
   35MOL0     C 4613   1.498   0.024   8.225  1.0137  0.6979 -0.4378
   35MOL0     O 4614   1.543   0.040   8.366  0.4354 -0.2273  0.4774
   35MOL0     C 4615   1.575   0.169   8.410  0.1454 -1.0391 -0.5494
   35MOL0     C 4616   1.591   0.183   8.552  0.7961 -0.2060 -0.3767
   35MOL0     C 4617   1.601   0.307   8.614  0.8743  0.0953 -0.0390
   35MOL0     C 4618   1.597   0.426   8.536 -0.0856 -0.0950 -0.1096
   35MOL0     C 4619   1.618   0.554   8.602 -0.0875 -0.3908 -0.5303
   35MOL0     O 4620   1.631   0.558   8.741  0.7045 -0.0466 -0.4861
   35MOL0     C 4621   1.654   0.678   8.801  0.2799  0.5240 -0.3828
   35MOL0     C 4622   1.772   0.701   8.867 -0.4699 -0.5741 -0.2711
   35MOL0     C 4623   1.780   0.813   8.957 -0.7364 -0.1816 -0.0915
   35MOL0     C 4624   1.677   0.911   8.957 -0.3831  0.5465 -0.4685
   35MOL0     O 4625   1.709   1.030   9.016 -0.0502 -0.8750  0.0335
   35MOL0     C 4626   1.604   1.133   9.028 -0.6148 -0.0121  1.4036
   35MOL0     C 4627   1.510   1.107   9.148 -0.8410  0.1916  0.5077
   35MOL0     C 4628   1.467   1.239   9.218  0.0274 -0.0636 -0.0265
   35MOL0     C 4629   1.339   1.283   9.161 -0.3449  0.5145  0.1605
   35MOL0     C 4630   1.218   1.193   9.210  0.2721 -0.2959  0.5379
   35MOL0     C 4631   1.087   1.272   9.192 -0.4237  0.7181  0.1420
   35MOL0     C 4632   0.961   1.209   9.225  0.1000 -0.5426 -0.1556
   35MOL0     C 4633   0.862   1.297   9.298 -0.5823 -0.3435  0.0507
   35MOL0    Cl 4634   0.713   1.193   9.331 -0.5620  0.5996 -0.3820
   35MOL0     C 4635   1.560   0.885   8.882 -0.1204  0.5734 -0.8167
   35MOL0     C 4636   1.546   0.764   8.816 -0.3794  0.7901  0.2581
   35MOL0     O 4637   1.628   0.652   8.531 -0.5558 -0.2808  0.2737
   35MOL0     C 4638   1.581   0.414   8.396  0.6169  0.5999  0.1937
   35MOL0     C 4639   1.568   0.289   8.339  0.0871  0.3891  0.1772
   35MOL0     N 4640   1.252   0.043   8.055 -0.9194 -0.1512  0.3687
   35MOL0     N 4641   1.128   0.052   8.027  0.1591  0.0817  0.7891
   35MOL0     C 4642   0.815   0.754   7.099 -1.4902  0.0667  0.1695
   35MOL0     C 4643   0.794   0.890   7.070 -0.5664 -0.5432 -0.4169
   35MOL0     C 4644   0.910   1.289   6.872 -1.1010  0.8919 -0.2644
   35MOL0     C 4645   0.847   1.315   6.756  0.7979 -0.4479  0.6584
   35MOL0     C 4646   0.807   1.440   6.731  1.1469 -0.0583  0.6055
   35MOL0     C 4647   0.833   1.541   6.817 -0.3139 -0.1050  0.4418
   35MOL0     O 4648   0.794   1.668   6.795 -1.3820 -0.2110 -0.5703
   35MOL0     C 4649   0.765   1.730   6.675  0.0399 -0.3188 -0.4145
   35MOL0     C 4650   0.610   1.734   6.659  0.2091  0.4165 -0.1697
   35MOL0     C 4651   0.527   1.757   6.787  0.2613 -0.0546 -0.2035
   35MOL0     C 4652   0.376   1.737   6.761  0.8995  0.1596  0.6278
   35MOL0     C 4653   0.311   1.873   6.761 -0.0340  0.4869  0.3180
   35MOL0     C 4654   0.258   1.978   6.757 -0.6994 -0.8115 -0.1579
   35MOL0     C 4655   0.906   1.523   6.935  1.3055  0.4042  0.0962
   35MOL0     C 4656   0.940   1.398   6.966  0.0866  0.6297  1.0204
   35MOL0     C 4657   1.017   1.371   7.095  0.6298  0.3689  0.4203
   35MOL0     H 4658   1.130   0.973   7.045  0.5737 -2.0501 -3.7937
   35MOL0     H 4659   1.148   0.732   7.116  1.0931  2.0089 -0.1211
   35MOL0     H 4660   1.112   0.489   7.073 -0.2880 -2.4210 -0.7791
   35MOL0     H 4661   1.137   0.540   7.245  1.1593  0.0834 -1.5868
   35MOL0     H 4662   1.164   0.293   7.221 -0.9565 -1.7301 -1.2558
   35MOL0     H 4663   1.029   0.297   7.117  0.5034  2.1953 -1.6742
   35MOL0     H 4664   0.907   0.382   7.356  1.1300  0.2311  2.8695
   35MOL0     H 4665   1.067   0.313   7.417 -0.6563  0.4893  0.1110
   35MOL0     H 4666   0.842   0.177   7.285  1.1179  1.8129 -0.2557
   35MOL0     H 4667   1.004   0.095   7.296 -1.5291 -0.9069 -0.1859
   35MOL0     H 4668   0.856   0.210   7.533  0.8641 -0.6246  0.4676
   35MOL0     H 4669   0.814   0.055   7.469 -1.3584  0.2177  2.1834
   35MOL0     H 4670   1.054  -0.018   7.509  1.4981 -0.0558 -0.3421
   35MOL0     H 4671   1.085   0.138   7.584 -1.4485  0.1773  0.1022
   35MOL0     H 4672   1.025  -0.092   7.720  0.8352  0.3951 -0.0279
   35MOL0     H 4673   0.867  -0.035   7.692  0.2130 -0.4628 -0.5909
   35MOL0     H 4674   0.981   0.203   7.779  2.4688  1.0408  0.2169
   35MOL0     H 4675   0.915   0.092   7.888 -0.6916 -1.1029 -0.3601
   35MOL0     H 4676   1.267   0.163   7.760 -0.7943 -0.4527 -0.3476
   35MOL0     H 4677   1.498   0.095   7.817 -0.7984 -0.6237 -0.9627
   35MOL0     H 4678   1.512   0.190   7.963 -1.0869  0.2703 -0.1649
   35MOL0     H 4679   1.502  -0.117   7.988 -1.2287  0.0161 -1.8794
   35MOL0     H 4680   1.643  -0.048   7.926  0.7763 -1.9680  2.6011
   35MOL0     H 4681   1.667   0.101   8.134 -2.0205  1.7148  1.5917
   35MOL0     H 4682   1.674  -0.063   8.172  1.0303  1.8399  2.7548
   35MOL0     H 4683   1.434  -0.065   8.219 -1.4447  2.0717  2.7915
   35MOL0     H 4684   1.444   0.112   8.192 -1.6816 -0.5105  0.4966
   35MOL0     H 4685   1.587   0.098   8.619  1.7296  1.2533  1.6111
   35MOL0     H 4686   1.619   0.300   8.721 -2.4370 -0.8160  0.5674
   35MOL0     H 4687   1.844   0.619   8.863  2.7681  1.8205  2.5278
   35MOL0     H 4688   1.857   0.834   9.030 -2.1367  1.1703  1.0649
   35MOL0     H 4689   1.658   1.227   9.043  1.2478 -1.0698  1.7104
   35MOL0     H 4690   1.551   1.146   8.934  1.3036 -0.1413  0.2432
   35MOL0     H 4691   1.426   1.046   9.113  0.2219 -1.2635  0.3587
   35MOL0     H 4692   1.561   1.042   9.220  0.5299  1.6580  0.9009
   35MOL0     H 4693   1.466   1.222   9.327 -0.0902  1.6872  0.2803
   35MOL0     H 4694   1.545   1.314   9.205  1.7454 -2.2222 -3.0563
   35MOL0     H 4695   1.342   1.291   9.052  1.2596 -1.7489 -0.0344
   35MOL0     H 4696   1.322   1.384   9.200  1.0691  0.3116  1.4287
   35MOL0     H 4697   1.221   1.156   9.313 -0.7434 -2.6243 -0.1963
   35MOL0     H 4698   1.225   1.106   9.143  1.9779  1.3427 -1.5562
   35MOL0     H 4699   1.097   1.368   9.244  1.5688  0.0701  1.0383
   35MOL0     H 4700   1.073   1.309   9.089 -2.7883 -0.5778 -0.0790
   35MOL0     H 4701   0.975   1.115   9.281 -0.6961  0.2728  1.4836
   35MOL0     H 4702   0.923   1.182   9.127  0.5791  1.9986 -1.1093
   35MOL0     H 4703   0.897   1.323   9.398 -1.7332  0.3972  0.2850
   35MOL0     H 4704   0.835   1.385   9.238  1.8711 -0.4560 -1.3338
   35MOL0     H 4705   1.466   0.940   8.885  0.3468  1.3715  1.8373
   35MOL0     H 4706   1.451   0.729   8.777  0.9368 -0.8715 -1.6400
   35MOL0     H 4707   1.570   0.511   8.347  2.4851  0.6196 -0.2656
   35MOL0     H 4708   1.553   0.291   8.232 -1.3189 -2.1442  0.2499
   35MOL0     H 4709   0.730   0.693   7.127 -0.4227 -1.2054  0.7481
   35MOL0     H 4710   0.696   0.936   7.075 -1.8435 -3.1536  1.8982
   35MOL0     H 4711   0.826   1.235   6.686 -1.6007  0.8798 -0.2783
   35MOL0     H 4712   0.762   1.459   6.634  0.2774 -3.9366  0.0663
   35MOL0     H 4713   0.823   1.679   6.598  0.7640 -0.0065 -0.0822
   35MOL0     H 4714   0.782   1.838   6.681  1.1740 -0.5336  0.6889
   35MOL0     H 4715   0.586   1.639   6.610  0.8451  0.0961  0.1338
   35MOL0     H 4716   0.587   1.810   6.583  1.1333  1.4512  0.5464
   35MOL0     H 4717   0.549   1.862   6.807  2.5916 -0.4748 -0.2937
   35MOL0     H 4718   0.549   1.684   6.865 -2.5195 -1.2766 -0.4390
   35MOL0     H 4719   0.357   1.678   6.671 -2.1457 -1.8390  2.4069
   35MOL0     H 4720   0.352   1.673   6.846  2.5237 -0.9677  0.2833
   35MOL0     H 4721   0.227   2.078   6.734  1.6166 -0.1565 -0.6100
   35MOL0     H 4722   0.926   1.614   6.989 -1.6206  2.6620 -2.2398
   35MOL0     H 4723   1.080   1.458   7.115  0.0788  0.3989  2.1386
   35MOL0     H 4724   0.940   1.370   7.172 -0.7638  0.0615 -0.9383
   35MOL0     H 4725   1.080   1.282   7.104  2.1068  1.4039  0.6593
   36MOL0     O 4726   8.047   5.693   2.759 -0.5313  0.1889 -0.2433
   36MOL0     C 4727   7.994   5.761   2.675  0.0009 -0.2382  0.3727
   36MOL0     O 4728   7.871   5.729   2.616 -1.1872  0.7695  0.4445
   36MOL0     C 4729   7.826   5.596   2.630  0.1351 -0.3945  0.8041
   36MOL0     C 4730   7.717   5.581   2.697  0.0529  0.0494 -0.3554
   36MOL0     C 4731   7.657   5.454   2.694  0.5159 -0.0845  0.3404
   36MOL0     C 4732   7.728   5.342   2.652 -0.0870  0.0628  0.1987
   36MOL0     O 4733   7.698   5.213   2.691 -0.1882 -0.1322  0.4551
   36MOL0     C 4734   7.563   5.184   2.729  0.3168  1.2693 -0.0641
   36MOL0     C 4735   7.561   5.027   2.775 -0.1857 -0.0044  0.0032
   36MOL0     C 4736   7.669   4.999   2.884 -0.5741 -0.5403 -0.0314
   36MOL0     C 4737   7.643   5.076   3.020 -0.2211  0.8135 -0.3336
   36MOL0     C 4738   7.734   5.014   3.125  0.7562  0.1975 -0.0498
   36MOL0     C 4739   7.688   5.032   3.270 -0.4495 -0.3388 -0.5851
   36MOL0     C 4740   7.798   5.005   3.370  0.9201 -0.2819  0.2835
   36MOL0     C 4741   7.746   4.965   3.510  0.7160  0.0463 -0.3233
   36MOL0     N 4742   7.660   5.064   3.565  0.2691  0.5348 -0.9670
   36MOL0     C 4743   7.691   5.199   3.575  0.6000 -0.0729 -1.1796
   36MOL0     C 4744   7.578   5.254   3.632  0.3789  0.3476  0.5935
   36MOL0     C 4745   7.559   5.395   3.663  0.1974 -0.1668  0.1876
   36MOL0     C 4746   7.591   5.446   3.806 -0.2924 -0.4534 -0.0853
   36MOL0     C 4747   7.543   5.586   3.830  0.6447 -0.8642 -0.8332
   36MOL0     C 4748   7.578   5.701   3.727  0.0932  0.4811  0.1646
   36MOL0     O 4749   7.716   5.705   3.716  0.3456  0.1813  0.0292
   36MOL0     C 4750   7.760   5.794   3.622  0.0565 -0.0842 -0.2328
   36MOL0     C 4751   7.832   5.907   3.660  0.5035 -0.1910  0.1179
   36MOL0     C 4752   7.889   5.983   3.562  0.1795 -0.5529 -0.2355
   36MOL0     C 4753   7.882   5.952   3.423  0.6491 -0.4014 -0.7446
   36MOL0     C 4754   7.959   6.041   3.325  0.2879  0.6408 -0.4428
   36MOL0     O 4755   8.019   6.158   3.372 -0.2688 -1.1341 -0.2126
   36MOL0     C 4756   8.080   6.224   3.274 -0.2519 -0.6318 -0.1015
   36MOL0     C 4757   8.187   6.164   3.212 -0.9249  0.1251 -0.4917
   36MOL0     C 4758   8.264   6.231   3.116  0.6844 -0.5547 -0.9202
   36MOL0     C 4759   8.234   6.363   3.080  0.6730  1.3633 -0.3276
   36MOL0     O 4760   8.321   6.442   3.002 -0.2958 -1.1839  0.2695
   36MOL0     C 4761   8.442   6.385   2.948 -0.2892 -1.0581  0.2003
   36MOL0     C 4762   8.517   6.485   2.856  0.0229 -0.0402  0.0380
   36MOL0     C 4763   8.596   6.583   2.924  0.0832 -0.3372 -0.0639
   36MOL0     C 4764   8.668   6.680   2.830 -0.8621 -0.2598  0.3194
   36MOL0     C 4765   8.740   6.790   2.905 -0.6879 -0.1582 -0.1895
   36MOL0     C 4766   8.814   6.882   2.801 -0.9716 -0.6455  0.9791
   36MOL0     C 4767   8.892   6.987   2.887 -1.2131 -0.4270  0.1444
   36MOL0     C 4768   8.940   7.088   2.796 -1.1522 -1.3641 -0.4739
   36MOL0    Cl 4769   9.059   7.201   2.877 -0.6340 -0.0297 -0.4554
   36MOL0     C 4770   8.108   6.418   3.125 -0.0329 -0.0303 -0.1925
   36MOL0     C 4771   8.039   6.356   3.230 -0.5821  0.6898  0.8610
   36MOL0     O 4772   7.979   5.986   3.216  0.2589 -1.0798  0.0044
   36MOL0     C 4773   7.803   5.845   3.387 -0.6353  0.0463  0.3049
   36MOL0     C 4774   7.745   5.763   3.485 -0.0341 -0.2056  0.7272
   36MOL0     N 4775   7.488   5.150   3.664  0.2651  0.3417 -0.1058
   36MOL0     N 4776   7.536   5.040   3.616 -0.3949 -0.1045 -0.3300
   36MOL0     C 4777   7.854   5.366   2.593  0.0353  0.1879  0.9159
   36MOL0     C 4778   7.897   5.492   2.579  1.3048  0.2445 -0.8476
   36MOL0     C 4779   8.046   5.900   2.642  0.2184  0.0550  0.6434
   36MOL0     C 4780   7.985   5.968   2.527  0.0587  0.0922 -0.0266
   36MOL0     C 4781   8.038   6.078   2.464 -0.4248 -0.0490 -0.0431
   36MOL0     C 4782   8.159   6.125   2.520 -0.1967 -0.1079  0.4524
   36MOL0     O 4783   8.227   6.232   2.469 -0.7292 -0.2523  0.4094
   36MOL0     C 4784   8.204   6.273   2.332 -0.8453  0.2772 -0.2384
   36MOL0     C 4785   8.288   6.195   2.220  0.3918  0.4384  0.6814
   36MOL0     C 4786   8.408   6.117   2.270  0.1041 -1.2913  0.3574
   36MOL0     C 4787   8.510   6.194   2.343 -1.0606 -0.6237  0.3576
   36MOL0     C 4788   8.562   6.298   2.254 -0.3813  0.1429 -0.1675
   36MOL0     C 4789   8.605   6.395   2.200 -0.3613  0.1946  0.0416
   36MOL0     C 4790   8.203   6.078   2.647  0.0788 -0.0023  0.8908
   36MOL0     C 4791   8.152   5.970   2.709  0.0932 -0.0673 -0.4235
   36MOL0     C 4792   8.212   5.939   2.850 -0.9175  0.7661 -0.0928
   36MOL0     H 4793   7.669   5.662   2.751  0.5651 -0.5859  1.0764
   36MOL0     H 4794   7.563   5.438   2.746 -1.0121  0.8544 -1.9783
   36MOL0     H 4795   7.533   5.246   2.814  1.7260  3.6516 -1.2193
   36MOL0     H 4796   7.492   5.200   2.647 -1.0246  0.4160  0.8799
   36MOL0     H 4797   7.590   4.969   2.687 -2.2028  2.4991 -2.4719
   36MOL0     H 4798   7.461   5.014   2.818  0.2108 -1.0379  0.6628
   36MOL0     H 4799   7.769   5.013   2.845 -0.0756  4.1928  2.1849
   36MOL0     H 4800   7.645   4.892   2.888 -2.0932 -0.3255 -1.8988
   36MOL0     H 4801   7.664   5.183   3.017 -0.7615  0.9313 -0.1090
   36MOL0     H 4802   7.538   5.052   3.041 -0.2858 -0.4958 -1.9098
   36MOL0     H 4803   7.725   4.908   3.097 -1.3940 -0.1937  1.8337
   36MOL0     H 4804   7.838   5.041   3.104  1.0127 -2.1215 -2.3028
   36MOL0     H 4805   7.650   5.130   3.297  0.3444 -0.8990  3.1565
   36MOL0     H 4806   7.603   4.963   3.277  0.9335 -2.2266 -1.4096
   36MOL0     H 4807   7.858   5.096   3.379 -0.6768  0.6883  1.8001
   36MOL0     H 4808   7.860   4.917   3.347  2.0286  0.5494  0.0231
   36MOL0     H 4809   7.681   4.878   3.499 -2.3581  1.8452  2.0525
   36MOL0     H 4810   7.831   4.945   3.576  0.5965 -1.5910 -0.6231
   36MOL0     H 4811   7.782   5.251   3.546 -0.3681  2.4726  0.0006
   36MOL0     H 4812   7.625   5.444   3.592  0.1497 -1.0848 -0.5080
   36MOL0     H 4813   7.466   5.442   3.628 -0.8790 -1.8935  0.5812
   36MOL0     H 4814   7.558   5.386   3.891  2.7919 -0.7023  1.0910
   36MOL0     H 4815   7.700   5.452   3.813 -0.3663  0.7054  0.4573
   36MOL0     H 4816   7.582   5.615   3.928  2.1205  1.1352 -1.9288
   36MOL0     H 4817   7.434   5.575   3.833  0.7970 -2.4251 -0.5660
   36MOL0     H 4818   7.547   5.802   3.758  0.6949  0.3809  1.1385
   36MOL0     H 4819   7.525   5.681   3.634 -0.4827 -1.5632  0.8741
   36MOL0     H 4820   7.843   5.920   3.767 -3.9971  2.0731  0.5347
   36MOL0     H 4821   7.931   6.079   3.589 -0.3124 -0.5944  0.7197
   36MOL0     H 4822   8.213   6.063   3.241  0.9094  0.6865 -0.0180
   36MOL0     H 4823   8.347   6.178   3.070  0.2060 -1.7767 -0.4312
   36MOL0     H 4824   8.516   6.354   3.022  0.3935 -2.3621 -0.9573
   36MOL0     H 4825   8.415   6.288   2.905 -0.8410 -1.8029  2.1118
   36MOL0     H 4826   8.586   6.429   2.793 -1.1877 -1.2193 -0.2976
   36MOL0     H 4827   8.439   6.537   2.799 -2.1616 -1.0481  1.9216
   36MOL0     H 4828   8.530   6.642   2.988 -0.3372  0.3939 -1.1530
   36MOL0     H 4829   8.671   6.523   2.977  1.1008 -0.8973 -2.0262
   36MOL0     H 4830   8.594   6.731   2.768  1.5449  0.8000 -1.8584
   36MOL0     H 4831   8.726   6.620   2.759 -0.1028  0.9118 -0.0750
   36MOL0     H 4832   8.819   6.743   2.964  2.0391 -1.1266 -4.1866
   36MOL0     H 4833   8.670   6.849   2.965 -1.3733 -1.3852  0.2472
   36MOL0     H 4834   8.887   6.829   2.739 -2.4084  0.2425 -1.6379
   36MOL0     H 4835   8.741   6.932   2.736  3.3945  3.3120 -1.4204
   36MOL0     H 4836   8.988   6.949   2.923  0.9986  2.4269 -2.2079
   36MOL0     H 4837   8.834   7.043   2.960 -1.4591  1.8508 -1.7077
   36MOL0     H 4838   8.989   7.030   2.718  3.1445 -2.0371  2.4026
   36MOL0     H 4839   8.860   7.147   2.750  1.3743  1.8758 -1.0969
   36MOL0     H 4840   8.066   6.508   3.080  0.0116  0.7184  1.2147
   36MOL0     H 4841   7.939   6.385   3.261 -1.2570 -3.0999  2.8610
   36MOL0     H 4842   7.789   5.830   3.281  2.0293  0.5878 -0.2013
   36MOL0     H 4843   7.669   5.694   3.451  1.0234  0.4201 -3.4172
   36MOL0     H 4844   7.916   5.277   2.581  0.9780  0.8106  1.0801
   36MOL0     H 4845   7.994   5.511   2.534  1.9526 -0.5963  0.1628
   36MOL0     H 4846   7.895   5.921   2.489 -0.8229  0.7820  1.1433
   36MOL0     H 4847   7.991   6.112   2.373 -1.6778 -1.0894  0.1948
   36MOL0     H 4848   8.247   6.373   2.324  0.5934 -0.1079  1.8634
   36MOL0     H 4849   8.096   6.287   2.317 -1.7651 -2.6980  2.5131
   36MOL0     H 4850   8.293   6.274   2.145 -0.8347 -0.8483 -0.8429
   36MOL0     H 4851   8.222   6.125   2.169  2.1063  1.2472 -2.9482
   36MOL0     H 4852   8.445   6.060   2.184 -4.2671 -1.3968 -1.7414
   36MOL0     H 4853   8.376   6.034   2.334  0.9473 -0.3432  2.0857
   36MOL0     H 4854   8.466   6.232   2.435 -0.7787 -4.1673  2.1234
   36MOL0     H 4855   8.591   6.129   2.379  0.5486  2.0484  1.8491
   36MOL0     H 4856   8.641   6.488   2.160 -1.6831  0.2979 -0.9454
   36MOL0     H 4857   8.283   6.137   2.692 -1.8083  4.2329 -0.7921
   36MOL0     H 4858   8.284   6.018   2.872 -0.2245  0.3880 -0.9540
   36MOL0     H 4859   8.139   5.938   2.931  0.1173  0.2296  0.8502
   36MOL0     H 4860   8.258   5.841   2.839 -3.9269 -0.6727 -1.0101
   37MOL0     O 4861   5.933   4.159   2.852  0.5363  0.6880 -0.4927
   37MOL0     C 4862   5.846   4.070   2.871  0.5898  0.1438  0.6200
   37MOL0     O 4863   5.870   3.931   2.894  0.1134 -0.4275  0.5083
   37MOL0     C 4864   6.001   3.900   2.914 -1.0786  0.0321  0.3214
   37MOL0     C 4865   6.069   3.888   3.031 -0.8082  0.9261 -0.4852
   37MOL0     C 4866   6.190   3.831   3.029 -0.0980 -0.7725 -0.2267
   37MOL0     C 4867   6.258   3.808   2.913 -0.9065  0.9145  0.6725
   37MOL0     O 4868   6.386   3.751   2.912 -0.3828 -0.2781 -1.0893
   37MOL0     C 4869   6.482   3.817   2.840  0.2149  0.4840  0.5740
   37MOL0     C 4870   6.582   3.727   2.769  0.4384 -1.3838  0.0001
   37MOL0     C 4871   6.653   3.793   2.649 -1.1827 -0.9187 -0.3958
   37MOL0     C 4872   6.771   3.704   2.596 -0.5090  0.0599 -0.0550
   37MOL0     C 4873   6.805   3.751   2.449 -0.1257 -0.4718 -0.1437
   37MOL0     C 4874   6.885   3.661   2.364 -0.1663  0.0145 -0.1113
   37MOL0     C 4875   6.807   3.534   2.331  0.0482 -0.0808  0.0523
   37MOL0     C 4876   6.893   3.419   2.264 -0.0826  0.3059  0.4889
   37MOL0     N 4877   6.968   3.475   2.142 -0.1249  0.7072 -0.3189
   37MOL0     C 4878   7.096   3.434   2.099 -0.1340 -0.7157 -0.3914
   37MOL0     C 4879   7.091   3.432   1.962 -0.3212 -0.3156  0.6713
   37MOL0     C 4880   7.192   3.353   1.879  0.3402 -0.0787 -0.2874
   37MOL0     C 4881   7.208   3.414   1.735  0.3262 -0.2475  0.3997
   37MOL0     C 4882   7.295   3.527   1.736  0.0572 -0.4392  0.0707
   37MOL0     C 4883   7.364   3.539   1.595  0.3249  0.4134  0.8396
   37MOL0     O 4884   7.489   3.605   1.623  0.3452  0.3146  0.5037
   37MOL0     C 4885   7.561   3.666   1.528 -0.0636 -0.0653  0.0621
   37MOL0     C 4886   7.644   3.771   1.576 -0.1241 -0.1976 -0.4692
   37MOL0     C 4887   7.736   3.830   1.482  0.6563  0.6090  0.7047
   37MOL0     C 4888   7.743   3.781   1.349 -0.4509  0.0214  0.7085
   37MOL0     C 4889   7.839   3.844   1.255  0.0670  0.1779 -1.0693
   37MOL0     O 4890   7.913   3.945   1.311 -0.0671  0.0826  1.0785
   37MOL0     C 4891   7.997   4.034   1.235  0.3810 -0.4269 -0.0084
   37MOL0     C 4892   7.950   4.078   1.114  0.4093  0.0575 -0.2677
   37MOL0     C 4893   8.019   4.175   1.043  0.2446  1.4717  0.3912
   37MOL0     C 4894   8.149   4.222   1.097  0.3629 -0.3530 -0.4368
   37MOL0     O 4895   8.216   4.323   1.040  0.1461  0.0315  0.0185
   37MOL0     C 4896   8.342   4.369   1.090  1.1398 -0.2989  0.6069
   37MOL0     C 4897   8.365   4.512   1.029 -0.1731 -0.5137  0.1059
   37MOL0     C 4898   8.506   4.566   1.075 -0.4857  0.4131 -0.2866
   37MOL0     C 4899   8.528   4.708   1.030 -0.1926 -0.8943  0.3573
   37MOL0     C 4900   8.659   4.770   1.070  0.3571 -0.2430 -0.7328
   37MOL0     C 4901   8.705   4.874   0.971  0.3681 -0.1687 -0.4685
   37MOL0     C 4902   8.840   4.925   1.003 -0.9646 -0.7326  0.0355
   37MOL0     C 4903   8.894   4.995   0.878  0.3145 -0.5034 -0.1703
   37MOL0    Cl 4904   8.783   5.136   0.820  0.3670  0.6458  0.3560
   37MOL0     C 4905   8.193   4.167   1.215 -0.2813 -0.4496  0.8810
   37MOL0     C 4906   8.115   4.072   1.276  0.1725  0.2101 -0.0409
   37MOL0     O 4907   7.864   3.792   1.149 -0.7314 -0.0128  0.5857
   37MOL0     C 4908   7.649   3.692   1.306  0.5270  0.1561 -0.1581
   37MOL0     C 4909   7.561   3.626   1.396  0.7161 -1.1215 -0.0625
   37MOL0     N 4910   6.971   3.492   1.924 -1.1437 -0.0737 -0.0812
   37MOL0     N 4911   6.891   3.496   2.028 -0.3341 -0.1459  0.2296
   37MOL0     C 4912   6.185   3.833   2.796  0.2200 -0.3620  0.2502
   37MOL0     C 4913   6.053   3.877   2.793 -1.1006 -0.0977  0.4355
   37MOL0     C 4914   5.703   4.104   2.853 -0.3873  0.5537  0.1483
   37MOL0     C 4915   5.606   4.009   2.867 -0.8763  0.4275 -0.4871
   37MOL0     C 4916   5.474   4.021   2.826  0.2321  0.3980 -0.2638
   37MOL0     C 4917   5.428   4.140   2.776 -0.1493 -0.2317 -0.0856
   37MOL0     O 4918   5.298   4.134   2.736  0.0729  0.3036  0.4686
   37MOL0     C 4919   5.268   4.247   2.648 -0.3510  0.2984 -1.3023
   37MOL0     C 4920   5.145   4.222   2.567 -0.4947 -0.0489  0.1084
   37MOL0     C 4921   5.030   4.162   2.645  0.6071  1.2147  0.2985
   37MOL0     C 4922   4.965   4.262   2.742  0.7942  0.6826 -0.7922
   37MOL0     C 4923   4.823   4.221   2.764  0.2127  0.2643  0.5506
   37MOL0     C 4924   4.701   4.194   2.776  1.1175  0.2169 -0.0668
   37MOL0     C 4925   5.520   4.247   2.772 -0.2848  0.1232 -0.1797
   37MOL0     C 4926   5.660   4.231   2.803  0.2498 -0.0319  0.5478
   37MOL0     C 4927   5.737   4.357   2.780 -0.5149  0.1028 -0.0551
   37MOL0     H 4928   6.025   3.905   3.128 -1.0356  3.5155 -0.9659
   37MOL0     H 4929   6.238   3.831   3.126  0.0052 -0.1030 -0.2711
   37MOL0     H 4930   6.446   3.873   2.754  0.5548  0.7955  0.6324
   37MOL0     H 4931   6.544   3.877   2.908  1.3355  0.7574 -0.6627
   37MOL0     H 4932   6.521   3.645   2.730 -1.4316  0.0812 -0.2924
   37MOL0     H 4933   6.647   3.682   2.844 -2.7816  0.8664  4.6092
   37MOL0     H 4934   6.708   3.882   2.681 -0.9973 -0.5327 -1.7385
   37MOL0     H 4935   6.573   3.825   2.583  0.5020 -0.8707 -2.5111
   37MOL0     H 4936   6.858   3.719   2.660 -0.8748  2.2870  0.0046
   37MOL0     H 4937   6.739   3.600   2.607 -0.6990  0.2506  1.2748
   37MOL0     H 4938   6.711   3.780   2.400 -1.2993 -2.6645  0.6722
   37MOL0     H 4939   6.867   3.841   2.460 -0.1910 -0.4861  0.3491
   37MOL0     H 4940   6.914   3.712   2.272  0.4429  1.5954  0.9208
   37MOL0     H 4941   6.978   3.631   2.413  2.0269  0.7693 -3.4716
   37MOL0     H 4942   6.712   3.553   2.280 -0.9679 -1.5934  1.2910
   37MOL0     H 4943   6.773   3.475   2.416 -0.6520 -1.2339 -0.9877
   37MOL0     H 4944   6.966   3.373   2.331 -0.2023 -2.2198 -1.0083
   37MOL0     H 4945   6.833   3.331   2.242 -1.5999  1.0429  1.5186
   37MOL0     H 4946   7.183   3.410   2.160  0.8521  1.4922 -0.8095
   37MOL0     H 4947   7.277   3.343   1.947  0.3834  1.6508 -0.0368
   37MOL0     H 4948   7.146   3.256   1.859  0.4432 -0.4294  1.0826
   37MOL0     H 4949   7.251   3.338   1.670 -0.8499  0.5485 -1.3678
   37MOL0     H 4950   7.113   3.454   1.700  0.7761  0.3107 -0.2130
   37MOL0     H 4951   7.367   3.519   1.818 -0.2903 -1.5860  0.2840
   37MOL0     H 4952   7.240   3.620   1.754  0.6260 -0.5406  2.7515
   37MOL0     H 4953   7.305   3.584   1.514  1.5161 -1.4519 -1.1873
   37MOL0     H 4954   7.396   3.436   1.576 -1.5143 -0.7083  3.2984
   37MOL0     H 4955   7.648   3.803   1.679  3.3884  2.5953 -1.2682
   37MOL0     H 4956   7.798   3.912   1.518  3.8520 -1.2329 -0.2217
   37MOL0     H 4957   7.856   4.041   1.077 -0.1049  0.2676  0.7898
   37MOL0     H 4958   7.987   4.219   0.948 -1.4021  1.4630  0.9083
   37MOL0     H 4959   8.342   4.379   1.199  1.8941 -2.1011  0.8191
   37MOL0     H 4960   8.417   4.293   1.064  0.7580 -0.6284  0.4655
   37MOL0     H 4961   8.357   4.510   0.920  2.4750  0.4989 -0.1797
   37MOL0     H 4962   8.286   4.571   1.076 -0.5469 -1.1689  0.3159
   37MOL0     H 4963   8.509   4.567   1.184 -0.5759  0.2190 -0.2821
   37MOL0     H 4964   8.595   4.511   1.045 -0.7667 -0.6050  0.6952
   37MOL0     H 4965   8.448   4.774   1.066  1.2767 -0.0629  2.2821
   37MOL0     H 4966   8.513   4.705   0.922 -0.6903 -0.1839  0.3965
   37MOL0     H 4967   8.744   4.700   1.070  1.9264  1.4534  2.0982
   37MOL0     H 4968   8.656   4.810   1.171 -0.5516  2.1466 -1.6242
   37MOL0     H 4969   8.700   4.838   0.868 -0.2272 -0.3649 -0.3748
   37MOL0     H 4970   8.635   4.958   0.977  0.6444  0.0715 -0.5868
   37MOL0     H 4971   8.918   4.851   1.023  2.4427  2.3807 -0.7449
   37MOL0     H 4972   8.828   4.993   1.088 -2.7656 -3.6706  2.3362
   37MOL0     H 4973   8.989   5.042   0.904 -1.2756  3.4657 -0.6304
   37MOL0     H 4974   8.917   4.927   0.796 -0.8087  0.1077 -1.0213
   37MOL0     H 4975   8.274   4.197   1.281 -1.1389 -0.9898  2.2457
   37MOL0     H 4976   8.147   4.020   1.365  1.0372 -5.0672 -2.9830
   37MOL0     H 4977   7.637   3.667   1.201 -0.2694  2.1489 -0.5924
   37MOL0     H 4978   7.490   3.550   1.365 -0.4389 -0.9130  1.8798
   37MOL0     H 4979   6.253   3.822   2.712  0.6263 -1.9993  0.7526
   37MOL0     H 4980   6.011   3.906   2.697 -1.6440  2.1000  1.2905
   37MOL0     H 4981   5.626   3.907   2.897 -2.8766 -0.4811 -1.9826
   37MOL0     H 4982   5.399   3.942   2.825 -1.2493  1.6945  1.3058
   37MOL0     H 4983   5.353   4.272   2.584  0.5933  1.1493  0.2174
   37MOL0     H 4984   5.243   4.330   2.715 -1.2445 -1.1049  0.1980
   37MOL0     H 4985   5.173   4.145   2.494  1.1996 -0.3201  0.9752
   37MOL0     H 4986   5.112   4.306   2.506  3.3074 -2.1837 -5.7904
   37MOL0     H 4987   5.059   4.067   2.690  2.2678  1.4536 -0.2090
   37MOL0     H 4988   4.957   4.140   2.567  1.9331  0.0411 -0.6458
   37MOL0     H 4989   5.020   4.260   2.836 -0.0635  2.4618 -0.2090
   37MOL0     H 4990   4.965   4.366   2.707 -0.5977  1.6744  1.8390
   37MOL0     H 4991   4.599   4.185   2.807  0.4653  0.1057 -2.0944
   37MOL0     H 4992   5.486   4.344   2.738  0.0270  0.0358 -0.7560
   37MOL0     H 4993   5.827   4.330   2.724 -0.0752  0.3541  0.5119
   37MOL0     H 4994   5.689   4.441   2.729  0.1379  2.3069  2.6769
   37MOL0     H 4995   5.753   4.398   2.880 -1.2396  1.5059 -0.4812
   38MOL0     O 4996   9.360   6.389   9.996  0.1211 -0.2776 -0.2271
   38MOL0     C 4997   9.355   6.337   9.884 -0.9034  1.4808  0.4851
   38MOL0     O 4998   9.240   6.303   9.823  0.1512 -0.1634  0.6346
   38MOL0     C 4999   9.123   6.322   9.887 -0.8058 -0.3259  0.0886
   38MOL0     C 5000   9.070   6.213   9.957  0.0770 -0.2261 -0.2210
   38MOL0     C 5001   8.959   6.239  10.035 -0.2773  0.1747  0.1049
   38MOL0     C 5002   8.898   6.372  10.035  0.0249 -0.1584 -0.3260
   38MOL0     O 5003   8.789   6.408  10.108 -0.2024 -0.1848 -0.7144
   38MOL0     C 5004   8.738   6.315  10.208 -0.1377 -0.6359  0.8377
   38MOL0     C 5005   8.621   6.390  10.288 -0.7986  0.2490 -0.0416
   38MOL0     C 5006   8.566   6.313  10.405 -0.1531  0.0220 -0.5105
   38MOL0     C 5007   8.444   6.387  10.462 -0.7478  0.2454 -0.0292
   38MOL0     C 5008   8.396   6.324  10.589  0.5715 -0.7353  0.0649
   38MOL0     C 5009   8.367   6.178  10.594 -0.4083  0.0793  1.2294
   38MOL0     C 5010   8.304   6.140  10.731  0.6712 -0.4547  0.0143
   38MOL0     C 5011   8.274   5.994  10.746 -1.4316  0.4953  0.1614
   38MOL0     N 5012   8.158   5.937  10.663 -0.0901 -0.0365 -0.4040
   38MOL0     C 5013   8.024   5.966  10.686  0.7664 -0.3026  0.2088
   38MOL0     C 5014   7.956   5.878  10.613  0.2541  0.1529 -0.0307
   38MOL0     C 5015   7.807   5.857  10.613 -0.4078 -1.0273  0.3950
   38MOL0     C 5016   7.766   5.780  10.493 -0.0041 -1.0034 -0.6811
   38MOL0     C 5017   7.617   5.736  10.488 -0.4415 -0.3154 -0.1959
   38MOL0     C 5018   7.598   5.611  10.583 -0.0988 -0.2724  0.8388
   38MOL0     O 5019   7.500   5.525  10.532 -0.2176 -0.4400  0.4282
   38MOL0     C 5020   7.424   5.449  10.611 -0.7167 -0.0340  0.1232
   38MOL0     C 5021   7.469   5.395  10.731 -0.1825 -0.7047 -0.4638
   38MOL0     C 5022   7.388   5.311  10.815  0.6674 -0.0437  0.0094
   38MOL0     C 5023   7.255   5.284  10.778  0.0168  0.4867 -0.0317
   38MOL0     C 5024   7.159   5.201  10.850 -0.3504  0.1588  0.8593
   38MOL0     O 5025   7.180   5.178  10.985  0.1296  0.1800  0.7785
   38MOL0     C 5026   7.064   5.130  11.048 -0.6834  0.4425 -0.0236
   38MOL0     C 5027   6.969   5.224  11.099 -1.1752  0.6230 -0.5671
   38MOL0     C 5028   6.848   5.193  11.151  0.3273  0.0225 -0.0336
   38MOL0     C 5029   6.805   5.057  11.151 -0.0499  0.1526  0.1017
   38MOL0     O 5030   6.690   5.009  11.217  0.2732 -0.8707  0.2769
   38MOL0     C 5031   6.617   5.089  11.317 -0.4377  0.1256 -0.4000
   38MOL0     C 5032   6.495   5.001  11.363 -0.2870 -0.4788  0.1492
   38MOL0     C 5033   6.407   4.950  11.242  0.3437  0.0469 -0.2000
   38MOL0     C 5034   6.293   4.875  11.290 -0.2904 -1.0207 -1.1198
   38MOL0     C 5035   6.180   4.833  11.194 -0.1117  0.6324 -0.2726
   38MOL0     C 5036   6.102   4.944  11.138 -0.2646  0.4882  0.1130
   38MOL0     C 5037   6.042   4.918  11.013 -0.2074  0.2115  0.3412
   38MOL0     C 5038   5.945   5.017  10.956 -0.1700 -0.4255 -0.6203
   38MOL0    Cl 5039   6.051   5.151  10.882 -0.0132  0.3526  0.3345
   38MOL0     C 5040   6.881   4.966  11.084 -0.5387  0.3230 -0.3344
   38MOL0     C 5041   7.014   4.999  11.042  0.3503  0.0957  0.3647
   38MOL0     O 5042   7.063   5.160  10.782 -0.2211 -0.3138 -1.9773
   38MOL0     C 5043   7.212   5.333  10.655 -0.0197  0.2537  0.2348
   38MOL0     C 5044   7.294   5.413  10.572  1.1050 -0.5035 -0.4221
   38MOL0     N 5045   8.043   5.814  10.523 -0.1511  0.0598 -0.3087
   38MOL0     N 5046   8.162   5.837  10.569 -0.4555  0.4560  0.7852
   38MOL0     C 5047   8.958   6.478   9.960 -0.4973  0.0163  0.3474
   38MOL0     C 5048   9.072   6.450   9.890 -0.8990  0.2481 -0.5611
   38MOL0     C 5049   9.482   6.328   9.812 -0.1045 -0.2607 -0.0118
   38MOL0     C 5050   9.585   6.266   9.892  0.2259  0.8148 -0.7875
   38MOL0     C 5051   9.708   6.239   9.836  0.0150 -0.2941 -0.3835
   38MOL0     C 5052   9.730   6.270   9.698  0.0683 -0.0318  0.3538
   38MOL0     O 5053   9.846   6.252   9.633 -0.8494 -0.2836  0.1022
   38MOL0     C 5054   9.842   6.123   9.566  0.0918 -0.6883 -0.6151
   38MOL0     C 5055   9.951   6.127   9.464 -0.1135  0.4761 -0.1827
   38MOL0     C 5056  10.086   6.102   9.537 -0.4602 -0.3145  0.2528
   38MOL0     C 5057  10.201   6.079   9.442 -0.1028 -0.0737  0.0782
   38MOL0     C 5058  10.321   6.115   9.518  0.2674  0.3598 -0.0800
   38MOL0     C 5059  10.422   6.141   9.577 -0.4824  0.1633 -0.2115
   38MOL0     C 5060   9.631   6.326   9.621 -0.0636 -0.4984 -0.1573
   38MOL0     C 5061   9.512   6.368   9.685 -0.0134 -0.0100  0.2009
   38MOL0     C 5062   9.415   6.448   9.600  0.2327 -0.0585 -0.1654
   38MOL0     H 5063   9.113   6.114   9.951 -2.9151 -2.0358  3.8746
   38MOL0     H 5064   8.909   6.160  10.089  1.8823 -1.7099 -0.5252
   38MOL0     H 5065   8.706   6.232  10.144  1.9748 -0.1722 -0.9531
   38MOL0     H 5066   8.813   6.282  10.280  0.3891 -0.3525  0.4317
   38MOL0     H 5067   8.531   6.404  10.226 -1.1852 -2.3154 -0.1957
   38MOL0     H 5068   8.667   6.484  10.318 -1.4658  0.2389  1.0478
   38MOL0     H 5069   8.645   6.310  10.480 -0.0046  3.3581 -0.3843
   38MOL0     H 5070   8.546   6.216  10.360  0.8304 -0.4349  0.0195
   38MOL0     H 5071   8.463   6.494  10.473 -0.6088  0.0718  1.6546
   38MOL0     H 5072   8.354   6.372  10.400 -1.0441 -2.1526  0.8623
   38MOL0     H 5073   8.469   6.354  10.665  0.1746  4.4259 -1.2774
   38MOL0     H 5074   8.301   6.373  10.610  1.0518  2.0613 -3.3844
   38MOL0     H 5075   8.306   6.144  10.510  2.6228  2.4787 -2.2555
   38MOL0     H 5076   8.459   6.123  10.570 -0.8151  0.6606 -2.1831
   38MOL0     H 5077   8.214   6.199  10.751 -1.1158 -2.4975 -1.5608
   38MOL0     H 5078   8.385   6.178  10.793  1.6644 -0.4408 -1.2396
   38MOL0     H 5079   8.366   5.938  10.726 -1.8049 -0.6569  1.4671
   38MOL0     H 5080   8.247   5.978  10.851 -1.0919  1.0778  0.3386
   38MOL0     H 5081   7.976   6.035  10.755  1.0569 -1.1599  1.2839
   38MOL0     H 5082   7.782   5.817  10.712 -1.9359  1.5083  1.1264
   38MOL0     H 5083   7.764   5.958  10.603  0.1233 -1.0031 -2.5393
   38MOL0     H 5084   7.794   5.829  10.399 -0.6008 -1.8741 -1.3240
   38MOL0     H 5085   7.819   5.685  10.486 -0.9544 -1.4857 -1.5760
   38MOL0     H 5086   7.595   5.718  10.382 -0.4101  1.1304 -0.4653
   38MOL0     H 5087   7.556   5.819  10.523  1.2347  1.7759 -1.9604
   38MOL0     H 5088   7.569   5.656  10.679 -1.0401  2.3821 -0.5913
   38MOL0     H 5089   7.695   5.563  10.599  1.5425  2.2546 -0.8507
   38MOL0     H 5090   7.573   5.403  10.759 -0.9698 -2.6927  3.7957
   38MOL0     H 5091   7.435   5.280  10.908 -0.6519 -0.1111  0.6800
   38MOL0     H 5092   6.993   5.330  11.099 -1.9532  0.8056 -0.6448
   38MOL0     H 5093   6.775   5.268  11.180 -1.0469 -1.6039  0.8599
   38MOL0     H 5094   6.679   5.119  11.401  2.2669 -0.2148 -2.1482
   38MOL0     H 5095   6.578   5.178  11.266 -3.0591 -1.1843 -0.8700
   38MOL0     H 5096   6.540   4.923  11.424 -0.4808 -1.2336 -0.6552
   38MOL0     H 5097   6.436   5.067  11.429  0.2824 -0.5754  0.7663
   38MOL0     H 5098   6.385   5.040  11.184 -1.1274  0.4065  0.8661
   38MOL0     H 5099   6.468   4.880  11.186  2.4279  0.5534  1.2913
   38MOL0     H 5100   6.248   4.928  11.375 -3.4958 -1.2097 -2.5872
   38MOL0     H 5101   6.351   4.793  11.335  3.1965  1.5070 -0.5631
   38MOL0     H 5102   6.110   4.771  11.251  2.2378 -0.6379  1.3843
   38MOL0     H 5103   6.208   4.766  11.112  0.4939  0.8157 -0.2240
   38MOL0     H 5104   6.034   4.980  11.216  1.8556 -1.2949  3.0426
   38MOL0     H 5105   6.177   5.020  11.115 -1.9352  1.9015 -0.9596
   38MOL0     H 5106   5.990   4.822  11.019 -0.2266  0.2978  3.2306
   38MOL0     H 5107   6.120   4.911  10.937 -2.3807 -3.9843 -1.8455
   38MOL0     H 5108   5.888   4.961  10.881 -0.1790 -1.6051  0.2197
   38MOL0     H 5109   5.875   5.060  11.028  0.7936  0.5522 -0.2494
   38MOL0     H 5110   6.848   4.864  11.068 -0.2326 -0.0319  1.1658
   38MOL0     H 5111   7.057   4.938  10.964 -1.6143  2.5225 -2.8437
   38MOL0     H 5112   7.118   5.322  10.602 -0.3099  2.2508  0.2588
   38MOL0     H 5113   7.269   5.437  10.469 -0.2362  1.7151  0.3484
   38MOL0     H 5114   8.917   6.578   9.953  1.2036  0.6874 -0.7093
   38MOL0     H 5115   9.119   6.526   9.828  0.3438  0.4002  0.5251
   38MOL0     H 5116   9.571   6.237   9.996  1.3002  0.5483 -0.7083
   38MOL0     H 5117   9.792   6.193   9.887 -0.7233 -0.2049  0.9536
   38MOL0     H 5118   9.747   6.108   9.515 -1.9094  5.0682  0.6917
   38MOL0     H 5119   9.851   6.044   9.642 -1.6245 -0.9106 -0.6209
   38MOL0     H 5120   9.947   6.219   9.406  1.7049  0.9849  0.4367
   38MOL0     H 5121   9.940   6.047   9.391 -2.3734  1.3646 -0.8818
   38MOL0     H 5122  10.083   6.015   9.604 -1.6807 -1.9138 -1.7361
   38MOL0     H 5123  10.098   6.193   9.595 -1.3528 -0.9749  1.5192
   38MOL0     H 5124  10.209   5.975   9.410 -1.1079 -0.3841  0.7821
   38MOL0     H 5125  10.184   6.152   9.362 -0.4747 -1.2068 -0.8913
   38MOL0     H 5126  10.514   6.159   9.629  0.0902  0.2074 -1.2086
   38MOL0     H 5127   9.648   6.342   9.515  2.9274  2.1935  0.5568
   38MOL0     H 5128   9.472   6.503   9.525  0.2331  2.1688  1.3652
   38MOL0     H 5129   9.336   6.392   9.550  2.5472 -0.5632 -3.5684
   38MOL0     H 5130   9.375   6.530   9.661  0.1566 -1.5150  1.8630
   39MOL0     O 5131   3.253  11.302   2.539  0.1180 -0.9981  0.1429
   39MOL0     C 5132   3.199  11.223   2.461 -0.0081 -0.0879 -0.8914
   39MOL0     O 5133   3.205  11.095   2.481  0.8300 -0.3958  0.7012
   39MOL0     C 5134   3.252  11.028   2.595  0.0797 -0.9690 -0.4484
   39MOL0     C 5135   3.199  10.901   2.623  0.1621 -0.2925 -0.3959
   39MOL0     C 5136   3.234  10.824   2.732  0.7609 -0.0954 -0.2124
   39MOL0     C 5137   3.330  10.876   2.824  0.2213  0.6721  0.6431
   39MOL0     O 5138   3.379  10.805   2.932 -0.1821  0.0791 -0.3937
   39MOL0     C 5139   3.301  10.694   2.983 -0.3515 -1.2070  0.6854
   39MOL0     C 5140   3.160  10.737   3.040 -0.0471  0.0218 -0.2736
   39MOL0     C 5141   3.163  10.849   3.149 -0.2839  0.3993  0.5696
   39MOL0     C 5142   3.175  10.996   3.092  0.1161 -0.2913 -0.4146
   39MOL0     C 5143   3.132  11.100   3.196 -0.3104 -0.4883  0.0968
   39MOL0     C 5144   3.095  11.237   3.145 -0.8934 -0.7245  0.4165
   39MOL0     C 5145   3.206  11.323   3.074 -0.3537 -0.4854 -0.5895
   39MOL0     C 5146   3.155  11.459   3.014 -0.4118  0.6025  0.3783
   39MOL0     N 5147   3.260  11.532   2.946  0.6476  0.5723  0.0685
   39MOL0     C 5148   3.305  11.521   2.811  0.1330 -0.5629  0.6268
   39MOL0     C 5149   3.387  11.625   2.791 -0.2321  0.0326 -0.3213
   39MOL0     C 5150   3.450  11.666   2.660  0.1843 -0.3685 -0.3857
   39MOL0     C 5151   3.583  11.606   2.639 -0.5851 -1.3103 -0.1844
   39MOL0     C 5152   3.584  11.466   2.584  0.7710 -0.3967 -0.6295
   39MOL0     C 5153   3.554  11.464   2.425  0.2766 -0.0240 -0.1960
   39MOL0     O 5154   3.656  11.532   2.352 -0.5716 -0.5073  0.1216
   39MOL0     C 5155   3.651  11.529   2.213 -0.1769 -0.4516  0.8984
   39MOL0     C 5156   3.767  11.583   2.150 -0.0909  0.2036  0.0130
   39MOL0     C 5157   3.796  11.556   2.014  0.3849  0.7488  0.6725
   39MOL0     C 5158   3.695  11.493   1.931 -0.5005 -0.2491  0.0764
   39MOL0     C 5159   3.709  11.469   1.782 -0.1016  0.2435  0.5230
   39MOL0     O 5160   3.601  11.430   1.713  0.2641  0.7846  0.4093
   39MOL0     C 5161   3.611  11.407   1.579  0.3490 -0.2855 -0.3197
   39MOL0     C 5162   3.638  11.286   1.521 -0.1472 -0.4972 -0.2154
   39MOL0     C 5163   3.663  11.269   1.386 -0.0268 -0.3576  1.2515
   39MOL0     C 5164   3.623  11.374   1.293 -0.3764  0.8815  0.5245
   39MOL0     O 5165   3.628  11.364   1.151  0.3730 -0.3623 -0.4097
   39MOL0     C 5166   3.759  11.369   1.102  0.0328 -0.4153  0.6508
   39MOL0     C 5167   3.764  11.427   0.958 -0.2826 -0.4202 -0.0956
   39MOL0     C 5168   3.762  11.580   0.939 -0.1871 -0.8825 -0.7228
   39MOL0     C 5169   3.889  11.641   1.002  0.0882 -0.7943 -0.2431
   39MOL0     C 5170   3.917  11.785   0.961  0.4791  0.0069 -0.4284
   39MOL0     C 5171   3.988  11.791   0.821 -0.2719  0.0624  0.5235
   39MOL0     C 5172   4.030  11.937   0.789  0.2572 -0.3450  0.0223
   39MOL0     C 5173   3.933  12.027   0.710 -0.2972  0.3638  0.3135
   39MOL0    Cl 5174   3.789  12.059   0.809 -0.1729  0.0764  0.0609
   39MOL0     C 5175   3.587  11.501   1.349  0.7696 -0.1812 -0.4725
   39MOL0     C 5176   3.590  11.514   1.495 -0.4864 -0.6156 -0.6612
   39MOL0     O 5177   3.814  11.504   1.731 -0.4074 -0.1187 -0.4228
   39MOL0     C 5178   3.579  11.455   1.990  0.0928  0.0066 -1.3372
   39MOL0     C 5179   3.555  11.470   2.126 -0.1729 -0.4701  0.0616
   39MOL0     N 5180   3.394  11.705   2.907  0.5387  0.1238 -0.7940
   39MOL0     N 5181   3.322  11.639   2.997 -0.4232 -0.6693 -0.8383
   39MOL0     C 5182   3.370  11.009   2.802  0.0710 -0.3887  0.1480
   39MOL0     C 5183   3.346  11.078   2.681 -0.1947  0.0414 -1.4083
   39MOL0     C 5184   3.144  11.268   2.344  1.5030  0.0609  1.3941
   39MOL0     C 5185   3.099  11.168   2.250 -0.6631  0.5685  0.6531
   39MOL0     C 5186   3.040  11.206   2.128 -0.0831  1.1465  0.3916
   39MOL0     C 5187   3.020  11.335   2.095  0.3551 -0.3232 -0.4505
   39MOL0     O 5188   2.978  11.366   1.967  0.8028  0.8897  0.4526
   39MOL0     C 5189   2.841  11.378   1.937 -0.0116 -0.3578  0.1195
   39MOL0     C 5190   2.815  11.287   1.815 -0.2380 -0.0332 -0.1858
   39MOL0     C 5191   2.699  11.333   1.730  0.8430 -0.3940  0.0282
   39MOL0     C 5192   2.621  11.219   1.657  0.0552  0.2292  0.7440
   39MOL0     C 5193   2.528  11.287   1.569  1.1669 -0.1697  0.3192
   39MOL0     C 5194   2.467  11.352   1.495 -1.0848  0.6784  0.2046
   39MOL0     C 5195   3.061  11.435   2.183 -0.1147 -0.8056 -1.0515
   39MOL0     C 5196   3.112  11.402   2.307 -0.2622  0.3851  0.2909
   39MOL0     C 5197   3.135  11.522   2.402  0.1019 -0.5314 -0.4033
   39MOL0     H 5198   3.125  10.861   2.555 -0.8445  0.3866  0.2819
   39MOL0     H 5199   3.195  10.723   2.743  1.1019 -0.1272  0.8518
   39MOL0     H 5200   3.295  10.619   2.904 -4.3031  0.3819 -0.7704
   39MOL0     H 5201   3.355  10.659   3.072  0.8848 -1.9623 -0.3401
   39MOL0     H 5202   3.123  10.649   3.093 -2.2628  2.3913  2.4305
   39MOL0     H 5203   3.079  10.765   2.972 -2.0096 -0.1733  1.8720
   39MOL0     H 5204   3.236  10.822   3.225  0.7665  0.1793 -0.4918
   39MOL0     H 5205   3.062  10.849   3.191  0.2465  3.1920  2.0575
   39MOL0     H 5206   3.278  11.024   3.066 -0.4718  1.3743 -1.0335
   39MOL0     H 5207   3.113  11.020   3.005 -2.1453  1.0436  1.4590
   39MOL0     H 5208   3.032  11.070   3.229  0.3673 -0.7324  2.0333
   39MOL0     H 5209   3.216  11.110   3.265  3.1648  1.9858 -4.0081
   39MOL0     H 5210   3.007  11.221   3.082 -1.5647 -1.1536  1.4324
   39MOL0     H 5211   3.077  11.306   3.228  3.3958  0.9326  0.2179
   39MOL0     H 5212   3.250  11.271   2.988 -1.1940  0.6616 -1.7654
   39MOL0     H 5213   3.286  11.342   3.145 -0.3839 -1.4643 -0.2750
   39MOL0     H 5214   3.069  11.454   2.947 -0.0421  0.8414 -0.1126
   39MOL0     H 5215   3.128  11.535   3.089  1.3918  1.8577 -0.1785
   39MOL0     H 5216   3.275  11.440   2.745  0.1037  0.2608 -0.3919
   39MOL0     H 5217   3.378  11.645   2.581  2.0471  4.2800 -3.7673
   39MOL0     H 5218   3.468  11.774   2.668 -1.0103 -0.3008  2.7892
   39MOL0     H 5219   3.645  11.670   2.575 -1.1941 -1.5033 -0.9734
   39MOL0     H 5220   3.644  11.596   2.729  0.3930  0.7633 -0.5533
   39MOL0     H 5221   3.510  11.411   2.642 -1.4725 -0.3546 -3.2192
   39MOL0     H 5222   3.687  11.431   2.597  1.2055 -0.1667 -2.9623
   39MOL0     H 5223   3.463  11.522   2.404  0.5812  0.6459  0.2775
   39MOL0     H 5224   3.556  11.363   2.384 -0.8157  0.4837 -1.6043
   39MOL0     H 5225   3.842  11.621   2.219 -2.8849  4.9678  0.8366
   39MOL0     H 5226   3.890  11.591   1.972 -0.4647  0.5998 -1.5098
   39MOL0     H 5227   3.655  11.199   1.584  1.9987 -1.4229 -1.9245
   39MOL0     H 5228   3.699  11.174   1.347  0.1435  0.3806 -0.5071
   39MOL0     H 5229   3.829  11.421   1.168  2.6770 -2.1190 -0.6437
   39MOL0     H 5230   3.793  11.266   1.111 -2.9314 -1.3872  2.1027
   39MOL0     H 5231   3.846  11.388   0.897 -1.4404 -2.7484 -0.3011
   39MOL0     H 5232   3.676  11.392   0.903 -1.5328 -0.0197  1.5597
   39MOL0     H 5233   3.750  11.608   0.834  0.2983  1.8173 -0.1531
   39MOL0     H 5234   3.684  11.636   0.991 -0.5599 -0.7890 -1.3743
   39MOL0     H 5235   3.982  11.590   0.978 -0.3607 -3.0127  2.2169
   39MOL0     H 5236   3.884  11.625   1.110  0.6046 -4.0472 -0.5820
   39MOL0     H 5237   3.996  11.820   1.028  0.7618 -0.2209 -0.6413
   39MOL0     H 5238   3.829  11.849   0.965  1.1060  0.8458  0.4811
   39MOL0     H 5239   4.082  11.740   0.843 -0.1232  0.4771  0.8650
   39MOL0     H 5240   3.942  11.728   0.745  0.1999 -3.5510  3.0007
   39MOL0     H 5241   4.124  11.920   0.736 -0.2519 -2.4081 -0.2957
   39MOL0     H 5242   4.063  12.001   0.871  1.8003 -3.6995  2.2428
   39MOL0     H 5243   3.984  12.118   0.677 -0.5360 -0.0205 -1.2273
   39MOL0     H 5244   3.910  11.971   0.618  4.0965 -0.4841 -0.5130
   39MOL0     H 5245   3.559  11.582   1.282 -1.1223 -0.3385  0.0856
   39MOL0     H 5246   3.563  11.613   1.530  2.9105 -0.8680  3.5765
   39MOL0     H 5247   3.490  11.433   1.931 -1.3238 -0.5791  0.8832
   39MOL0     H 5248   3.455  11.442   2.159  0.2743 -3.6446 -1.0080
   39MOL0     H 5249   3.445  11.048   2.870  0.3318  3.3200 -1.9872
   39MOL0     H 5250   3.384  11.179   2.670  0.1514  0.0688 -0.1424
   39MOL0     H 5251   3.094  11.064   2.281  1.4128 -0.3521 -1.7848
   39MOL0     H 5252   3.002  11.121   2.072  2.4634 -0.8403  1.4219
   39MOL0     H 5253   2.820  11.482   1.910  1.4211  0.8284  3.0643
   39MOL0     H 5254   2.777  11.356   2.023 -0.2749  1.9092  0.5818
   39MOL0     H 5255   2.782  11.192   1.860 -1.8267  0.1300 -0.9543
   39MOL0     H 5256   2.902  11.281   1.749  1.6071  1.1363  1.9919
   39MOL0     H 5257   2.742  11.411   1.666 -0.0442  1.3762  1.5041
   39MOL0     H 5258   2.618  11.385   1.781 -1.6717 -0.3140 -3.6929
   39MOL0     H 5259   2.687  11.159   1.594 -3.6346 -1.8061 -1.5443
   39MOL0     H 5260   2.562  11.158   1.726 -0.6452  0.1928  0.1197
   39MOL0     H 5261   2.404  11.391   1.417  0.7712 -0.7863 -2.1791
   39MOL0     H 5262   3.043  11.539   2.157  0.1607 -0.3236  0.5656
   39MOL0     H 5263   3.243  11.540   2.395  0.0370 -0.0318 -0.1540
   39MOL0     H 5264   3.078  11.611   2.374 -0.3405 -1.6311 -3.4024
   39MOL0     H 5265   3.111  11.493   2.505  1.8217 -2.7060 -0.5127
   40MOL0     O 5266   0.676   0.643   0.138 -0.1521 -0.2282  0.6593
   40MOL0     C 5267   0.750   0.712   0.067  0.0946 -0.5246 -0.4757
   40MOL0     O 5268   0.784   0.844   0.082  0.2370  0.2021 -0.4910
   40MOL0     C 5269   0.747   0.893   0.199 -0.0938  0.3504  0.0010
   40MOL0     C 5270   0.836   0.906   0.305 -0.8615 -0.2299 -0.1257
   40MOL0     C 5271   0.794   0.957   0.428  0.5868  0.1406  0.8699
   40MOL0     C 5272   0.650   0.979   0.450  0.4555 -0.7701  0.2656
   40MOL0     O 5273   0.605   1.020   0.570 -0.1818 -0.3140 -0.4829
   40MOL0     C 5274   0.659   0.951   0.684 -0.2858  0.3113  0.0097
   40MOL0     C 5275   0.574   0.991   0.804 -0.2069  0.0547 -0.4032
   40MOL0     C 5276   0.575   0.890   0.911  0.3473 -0.1671  0.7943
   40MOL0     C 5277   0.718   0.868   0.968  0.3783  0.0791 -0.7837
   40MOL0     C 5278   0.720   0.773   1.087 -0.4583  0.9012 -0.2822
   40MOL0     C 5279   0.636   0.832   1.203  0.1905 -0.0207 -0.6003
   40MOL0     C 5280   0.685   0.786   1.351 -0.5770 -1.2541 -0.2518
   40MOL0     C 5281   0.609   0.858   1.465  0.5533 -0.7145  0.1436
   40MOL0     N 5282   0.668   0.988   1.499 -0.3720  0.0678  0.5522
   40MOL0     C 5283   0.801   1.013   1.525 -0.0513  0.8233 -0.9230
   40MOL0     C 5284   0.816   1.147   1.517  0.6105  0.1877 -0.6852
   40MOL0     C 5285   0.930   1.232   1.562 -1.2970 -0.0594  0.6909
   40MOL0     C 5286   0.903   1.279   1.700 -0.7823 -0.5080 -0.3488
   40MOL0     C 5287   0.902   1.164   1.806  0.0924  0.0294 -0.8590
   40MOL0     C 5288   0.933   1.198   1.944 -0.0609 -0.0598  0.1151
   40MOL0     O 5289   0.979   1.083   2.023  0.3026  0.1887 -0.3347
   40MOL0     C 5290   1.056   1.093   2.139 -0.1750  0.2709  0.1354
   40MOL0     C 5291   1.083   1.220   2.197 -0.5629  0.7097 -0.1742
   40MOL0     C 5292   1.170   1.222   2.312  0.1418  0.4016  0.1881
   40MOL0     C 5293   1.234   1.116   2.368  0.0053 -0.5781  0.3444
   40MOL0     C 5294   1.338   1.122   2.474  0.0164  0.8402  0.9743
   40MOL0     O 5295   1.369   1.243   2.507 -0.2041 -0.1352  0.1180
   40MOL0     C 5296   1.456   1.286   2.600  0.2235  0.3278  0.5423
   40MOL0     C 5297   1.501   1.417   2.582  0.1687  0.7606  0.0526
   40MOL0     C 5298   1.605   1.459   2.671  0.4768 -0.2404 -0.1251
   40MOL0     C 5299   1.663   1.381   2.772  0.2520  0.0059  0.4253
   40MOL0     O 5300   1.759   1.425   2.855 -0.1351  0.6452  0.1575
   40MOL0     C 5301   1.699   1.495   2.964  0.2826 -0.2025 -0.1308
   40MOL0     C 5302   1.804   1.605   3.007 -0.1761  0.2705 -0.4009
   40MOL0     C 5303   1.737   1.707   3.100  0.5818 -0.2029  0.0178
   40MOL0     C 5304   1.845   1.773   3.181  0.2831  0.0263 -1.6566
   40MOL0     C 5305   1.791   1.902   3.250 -0.6982 -0.7590 -0.5291
   40MOL0     C 5306   1.743   2.010   3.155 -0.5844 -0.1555  0.2975
   40MOL0     C 5307   1.826   2.018   3.027 -0.3765  0.3594  0.2266
   40MOL0     C 5308   1.804   2.155   2.956 -0.5927 -0.0458 -0.3925
   40MOL0    Cl 5309   1.651   2.143   2.866  0.4548 -0.5550  0.4012
   40MOL0     C 5310   1.620   1.249   2.779 -0.4760 -0.2821 -0.2894
   40MOL0     C 5311   1.506   1.205   2.701 -1.2366  0.0967  0.0662
   40MOL0     O 5312   1.375   1.016   2.535 -0.6725 -0.6400  0.3521
   40MOL0     C 5313   1.200   0.994   2.308 -0.4620 -0.4477  0.2462
   40MOL0     C 5314   1.106   0.980   2.203  0.2543 -0.7505  0.4714
   40MOL0     N 5315   0.697   1.200   1.478  0.0250 -0.9949 -0.5474
   40MOL0     N 5316   0.612   1.109   1.471 -0.4851  1.1280  0.2358
   40MOL0     C 5317   0.565   0.976   0.341 -0.0589  0.0243  0.1007
   40MOL0     C 5318   0.611   0.928   0.220 -0.2276  0.0737  0.2990
   40MOL0     C 5319   0.794   0.645  -0.052 -0.1692  0.2113  0.6109
   40MOL0     C 5320   0.935   0.641  -0.074  0.1789  0.4737 -0.5334
   40MOL0     C 5321   0.992   0.579  -0.184  0.1194 -0.4395 -0.2127
   40MOL0     C 5322   0.905   0.525  -0.276 -0.7502 -0.1447  0.1879
   40MOL0     O 5323   0.970   0.486  -0.390  0.0010 -0.8719  0.5190
   40MOL0     C 5324   0.893   0.411  -0.489 -0.3359 -0.0558 -0.1911
   40MOL0     C 5325   1.002   0.356  -0.591  0.1236 -1.0867 -0.0169
   40MOL0     C 5326   1.059   0.467  -0.686 -0.3750  0.6100  0.8072
   40MOL0     C 5327   1.139   0.398  -0.800  0.1048  0.0640  0.1122
   40MOL0     C 5328   1.161   0.486  -0.917 -0.8670  0.7753 -0.1677
   40MOL0     C 5329   1.184   0.546  -1.023 -0.3327  0.7130  0.4023
   40MOL0     C 5330   0.768   0.535  -0.262  0.1929 -0.2009  0.0462
   40MOL0     C 5331   0.716   0.594  -0.149  0.6741  0.6217  0.7630
   40MOL0     C 5332   0.571   0.574  -0.132 -0.8109  0.5279 -0.2313
   40MOL0     H 5333   0.941   0.883   0.289 -1.0140 -1.5706  0.5782
   40MOL0     H 5334   0.872   0.971   0.501  1.5606 -1.4177  0.1937
   40MOL0     H 5335   0.642   0.843   0.681 -1.1514  0.3373  1.9915
   40MOL0     H 5336   0.764   0.977   0.702 -0.3231  0.4932 -0.0413
   40MOL0     H 5337   0.470   1.008   0.777 -0.1013  2.8054  0.5355
   40MOL0     H 5338   0.610   1.084   0.849 -0.5925 -0.0385  0.1051
   40MOL0     H 5339   0.526   0.795   0.886 -0.6923 -0.1580  2.6554
   40MOL0     H 5340   0.510   0.930   0.989 -0.4596  0.2307 -0.0714
   40MOL0     H 5341   0.785   0.831   0.890 -0.0584  0.0452 -1.1478
   40MOL0     H 5342   0.761   0.962   1.003  1.2473  0.8101 -3.5656
   40MOL0     H 5343   0.668   0.681   1.060 -3.2625  2.0060  0.9859
   40MOL0     H 5344   0.827   0.756   1.104  0.1224  3.6721 -0.6665
   40MOL0     H 5345   0.655   0.939   1.202  2.5990 -0.3781  0.7819
   40MOL0     H 5346   0.530   0.812   1.184  0.0178 -1.3906  1.4619
   40MOL0     H 5347   0.793   0.787   1.370 -0.4431 -0.6555 -0.9924
   40MOL0     H 5348   0.666   0.679   1.350 -1.3615 -1.1707 -3.1787
   40MOL0     H 5349   0.504   0.872   1.435  1.2374  2.8962 -0.9559
   40MOL0     H 5350   0.626   0.788   1.547  0.6547 -1.2234 -0.3110
   40MOL0     H 5351   0.884   0.943   1.532  1.5711  2.2233 -4.1501
   40MOL0     H 5352   1.023   1.175   1.553 -1.3307 -0.1167  0.7050
   40MOL0     H 5353   0.944   1.316   1.493  0.1021 -1.4536 -0.8118
   40MOL0     H 5354   0.993   1.337   1.723 -1.4075 -0.4466  2.2459
   40MOL0     H 5355   0.818   1.345   1.715 -0.1974  0.0534  0.6264
   40MOL0     H 5356   0.976   1.090   1.774 -1.2863 -1.2183 -1.2459
   40MOL0     H 5357   0.806   1.112   1.808 -0.4347  0.8956  2.7325
   40MOL0     H 5358   0.843   1.225   1.999  0.5981  1.3550  0.5368
   40MOL0     H 5359   0.998   1.285   1.943 -2.5113  1.9724  2.5730
   40MOL0     H 5360   1.040   1.309   2.153  0.6880  0.0407 -3.0097
   40MOL0     H 5361   1.212   1.316   2.346  2.6939 -1.4862  2.6560
   40MOL0     H 5362   1.454   1.466   2.498 -1.3182  0.1967  0.5282
   40MOL0     H 5363   1.651   1.558   2.669 -0.5197  0.2310 -1.7299
   40MOL0     H 5364   1.609   1.543   2.926  1.2338 -1.0106 -3.7973
   40MOL0     H 5365   1.665   1.438   3.050  2.0533 -0.0584  0.7160
   40MOL0     H 5366   1.882   1.547   3.058 -0.1762  1.9568  1.6483
   40MOL0     H 5367   1.851   1.656   2.922 -0.7374  3.9867  1.3197
   40MOL0     H 5368   1.689   1.781   3.036 -1.1652  0.6740  2.2216
   40MOL0     H 5369   1.661   1.672   3.171  2.0978 -0.1704  1.7423
   40MOL0     H 5370   1.939   1.790   3.128  1.0804 -1.7268 -0.8979
   40MOL0     H 5371   1.872   1.701   3.260 -2.6901  1.2673  0.6874
   40MOL0     H 5372   1.866   1.952   3.312 -0.3752 -1.1074 -0.6369
   40MOL0     H 5373   1.707   1.878   3.315 -0.0886 -0.3579  0.4335
   40MOL0     H 5374   1.639   1.989   3.130 -1.4103  0.6302  2.8014
   40MOL0     H 5375   1.748   2.109   3.203  2.2843 -1.2053  2.4532
   40MOL0     H 5376   1.795   1.942   2.954  0.6769 -0.2753  0.4272
   40MOL0     H 5377   1.930   1.999   3.054 -1.1744  1.7379  5.3027
   40MOL0     H 5378   1.800   2.235   3.030 -0.7150 -0.3932 -0.0198
   40MOL0     H 5379   1.887   2.191   2.894 -1.6710  0.4528 -1.6057
   40MOL0     H 5380   1.645   1.178   2.858  1.8098 -1.4004 -1.9183
   40MOL0     H 5381   1.475   1.102   2.716  2.0881 -1.7221 -3.6998
   40MOL0     H 5382   1.247   0.903   2.345 -0.2412 -0.0815  0.8812
   40MOL0     H 5383   1.093   0.883   2.155  1.5782 -0.6043 -0.2649
   40MOL0     H 5384   0.461   1.009   0.338  0.2873  1.0965 -1.0346
   40MOL0     H 5385   0.535   0.915   0.144 -0.7999 -1.6312  1.1226
   40MOL0     H 5386   0.995   0.685   0.005 -0.8073  0.3818  0.2850
   40MOL0     H 5387   1.097   0.558  -0.204  0.3083  1.3042 -1.2235
   40MOL0     H 5388   0.819   0.474  -0.540 -0.4637  2.1293  2.4514
   40MOL0     H 5389   0.840   0.323  -0.449  0.7388 -0.5807  0.1061
   40MOL0     H 5390   0.947   0.288  -0.657  0.2051 -0.0213 -1.2373
   40MOL0     H 5391   1.083   0.296  -0.548  0.9457 -0.4892 -0.6921
   40MOL0     H 5392   1.136   0.531  -0.642  1.1027  0.3311 -1.2522
   40MOL0     H 5393   0.983   0.528  -0.735  1.8689  1.4802 -1.8229
   40MOL0     H 5394   1.233   0.366  -0.755  0.0170  1.3249  1.2380
   40MOL0     H 5395   1.080   0.314  -0.840 -1.7005  1.0954  0.4624
   40MOL0     H 5396   1.214   0.599  -1.112 -0.6312  1.5400  0.7824
   40MOL0     H 5397   0.708   0.503  -0.347  0.7246  0.1482 -0.4680
   40MOL0     H 5398   0.548   0.473  -0.096  0.7654  0.6317  1.2119
   40MOL0     H 5399   0.524   0.640  -0.058  1.4771 -0.5050  2.3419
   40MOL0     H 5400   0.521   0.592  -0.227  3.2941 -1.5368 -3.0618
   41MOL0     O 5401  10.697   8.909   2.218  0.0683  0.3924  0.5092
   41MOL0     C 5402  10.762   8.888   2.316 -0.2087  0.1436 -0.1978
   41MOL0     O 5403  10.723   8.832   2.441 -0.5497 -0.0035  0.4898
   41MOL0     C 5404  10.595   8.778   2.434 -0.3246 -0.2124  0.6844
   41MOL0     C 5405  10.483   8.831   2.501 -0.5634 -0.7035 -1.1427
   41MOL0     C 5406  10.355   8.781   2.491  0.4586  0.6006  0.3098
   41MOL0     C 5407  10.336   8.661   2.429  0.6174  0.3117 -0.1564
   41MOL0     O 5408  10.215   8.598   2.437  0.1602 -0.6104 -0.3333
   41MOL0     C 5409  10.101   8.666   2.389 -0.3227 -0.7593  0.0129
   41MOL0     C 5410   9.985   8.639   2.486 -0.2659 -0.4184 -0.2902
   41MOL0     C 5411  10.041   8.628   2.630  0.2020  0.1080 -0.2659
   41MOL0     C 5412   9.926   8.622   2.740 -0.1645  0.6983 -0.7487
   41MOL0     C 5413   9.987   8.629   2.883 -0.2598  1.2552 -0.5435
   41MOL0     C 5414   9.887   8.585   2.991 -0.5638 -0.5926  0.4997
   41MOL0     C 5415   9.947   8.583   3.133 -0.4542  0.0457 -0.4663
   41MOL0     C 5416   9.987   8.720   3.183 -0.2146  0.4231  0.1148
   41MOL0     N 5417  10.049   8.723   3.318 -0.6094  0.4759  0.7520
   41MOL0     C 5418  10.035   8.821   3.413 -0.0541  0.1744 -0.1592
   41MOL0     C 5419  10.120   8.787   3.512  0.1369  0.1470  1.0426
   41MOL0     C 5420  10.134   8.857   3.639  0.0528 -0.0431 -0.4109
   41MOL0     C 5421  10.079   9.001   3.649  0.4207 -0.3472 -0.3348
   41MOL0     C 5422  10.146   9.104   3.555  0.3869  0.4779 -0.1055
   41MOL0     C 5423  10.132   9.253   3.613 -0.4550 -0.6445 -0.0709
   41MOL0     O 5424   9.995   9.282   3.637 -0.1817  0.1081 -0.1780
   41MOL0     C 5425   9.962   9.371   3.739 -0.0154 -0.3485  0.7982
   41MOL0     C 5426   9.888   9.485   3.713  0.2712 -0.6189  0.1153
   41MOL0     C 5427   9.854   9.563   3.819  0.5341 -0.5913 -0.4653
   41MOL0     C 5428   9.903   9.546   3.946 -1.0156 -0.0046 -0.8751
   41MOL0     C 5429   9.867   9.636   4.061  0.0487 -0.4214  0.4564
   41MOL0     O 5430   9.772   9.729   4.047  0.4668 -0.1979  0.7675
   41MOL0     C 5431   9.758   9.813   4.156  0.5527 -0.6266 -0.3001
   41MOL0     C 5432   9.834   9.931   4.156  0.1249  0.2905 -0.7475
   41MOL0     C 5433   9.839  10.000   4.279  1.0169 -0.3985 -0.1505
   41MOL0     C 5434   9.755   9.962   4.386  0.1388  0.0783  1.2847
   41MOL0     O 5435   9.766  10.031   4.504 -0.1549  0.0495  0.1834
   41MOL0     C 5436   9.722   9.981   4.627  0.4128 -0.0706  1.2878
   41MOL0     C 5437   9.801  10.050   4.737 -0.0228 -0.2115  0.5570
   41MOL0     C 5438   9.768  10.197   4.744 -0.1835 -0.2017  0.2390
   41MOL0     C 5439   9.622  10.220   4.791  0.0623 -0.3317 -0.5015
   41MOL0     C 5440   9.604  10.361   4.870 -0.0271  0.5904 -0.1593
   41MOL0     C 5441   9.685  10.484   4.818 -0.0801 -0.1228  0.3434
   41MOL0     C 5442   9.654  10.521   4.669  0.0240 -0.7287 -0.6261
   41MOL0     C 5443   9.510  10.562   4.618  0.0424  0.2547  0.7905
   41MOL0    Cl 5444   9.485  10.725   4.664  0.4791 -0.3364  0.1123
   41MOL0     C 5445   9.659   9.859   4.366 -0.5844  0.5252 -0.3532
   41MOL0     C 5446   9.664   9.778   4.256  0.2982  0.7336  0.4349
   41MOL0     O 5447   9.942   9.626   4.160 -0.0893 -0.5225  0.3114
   41MOL0     C 5448   9.975   9.425   3.974 -0.5114 -0.6561 -0.2703
   41MOL0     C 5449   9.997   9.334   3.870  0.2114 -0.2831  0.2836
   41MOL0     N 5450  10.178   8.664   3.480 -0.0220 -0.1723 -1.1199
   41MOL0     N 5451  10.144   8.636   3.358  0.4628 -0.6922 -0.3269
   41MOL0     C 5452  10.449   8.591   2.380 -0.7185  0.1592  0.3007
   41MOL0     C 5453  10.570   8.651   2.371 -0.0183 -0.4155 -0.2084
   41MOL0     C 5454  10.902   8.944   2.317 -0.3797  0.2922  0.2464
   41MOL0     C 5455  10.945   9.004   2.434  1.0161 -0.5915 -0.3243
   41MOL0     C 5456  11.058   9.070   2.454 -0.0775  0.1328 -0.5349
   41MOL0     C 5457  11.144   9.081   2.340 -0.1361 -0.8703  0.0653
   41MOL0     O 5458  11.244   9.171   2.347  0.4013  0.3447  1.0110
   41MOL0     C 5459  11.320   9.192   2.458 -0.2376  0.0282  0.4214
   41MOL0     C 5460  11.277   9.317   2.541  0.3933 -0.3620 -0.8179
   41MOL0     C 5461  11.325   9.299   2.687  0.2704  0.4368  1.1189
   41MOL0     C 5462  11.349   9.428   2.770 -0.0013 -0.7880 -0.3787
   41MOL0     C 5463  11.420   9.400   2.896 -0.2407  0.8377 -0.6949
   41MOL0     C 5464  11.493   9.373   2.995  0.3464  0.3579  0.5700
   41MOL0     C 5465  11.110   9.029   2.216 -0.4285 -0.0401  0.0724
   41MOL0     C 5466  10.993   8.955   2.205 -0.5372 -0.3083 -0.6058
   41MOL0     C 5467  10.964   8.896   2.074 -0.0200  0.2501 -0.1728
   41MOL0     H 5468  10.503   8.931   2.539  3.2690 -2.3932  1.9324
   41MOL0     H 5469  10.275   8.836   2.541  0.4151 -0.8143  1.8841
   41MOL0     H 5470  10.126   8.772   2.381  1.4247 -1.1408  0.0239
   41MOL0     H 5471  10.059   8.638   2.292 -3.9703  0.2445  1.1535
   41MOL0     H 5472   9.933   8.546   2.460  3.2232 -2.2717 -1.3901
   41MOL0     H 5473   9.925   8.730   2.478  1.8780  1.0651 -0.4142
   41MOL0     H 5474  10.113   8.705   2.656  4.8828 -2.9544 -2.8184
   41MOL0     H 5475  10.097   8.534   2.635  1.2060  0.6846 -0.6286
   41MOL0     H 5476   9.869   8.715   2.729 -1.4814  0.2144  1.3195
   41MOL0     H 5477   9.857   8.540   2.715 -1.2049  1.2231  0.2744
   41MOL0     H 5478  10.064   8.551   2.872 -1.0021  0.5157 -0.5944
   41MOL0     H 5479  10.043   8.720   2.904  4.3698 -2.0727  4.3829
   41MOL0     H 5480   9.804   8.656   2.992  0.0527  0.3698 -2.9194
   41MOL0     H 5481   9.850   8.485   2.969 -2.8239  0.5825 -1.5365
   41MOL0     H 5482  10.035   8.520   3.147 -2.7374 -3.7406 -1.8274
   41MOL0     H 5483   9.861   8.555   3.194 -2.6463  0.2737 -3.2318
   41MOL0     H 5484  10.064   8.755   3.113 -1.4286  0.6601 -1.1325
   41MOL0     H 5485   9.900   8.785   3.188 -3.3681 -3.4361 -0.2580
   41MOL0     H 5486   9.960   8.897   3.398  2.1157  2.2218 -1.3279
   41MOL0     H 5487  10.087   8.790   3.712 -1.1587 -0.0998 -1.2243
   41MOL0     H 5488  10.241   8.862   3.664 -0.5336  1.0508  2.1586
   41MOL0     H 5489   9.972   9.009   3.624  0.3722  2.3962  0.4578
   41MOL0     H 5490  10.104   9.030   3.751  3.4191 -1.2361 -0.7286
   41MOL0     H 5491  10.100   9.098   3.456  1.5403 -1.1133 -0.5807
   41MOL0     H 5492  10.254   9.086   3.545  0.7618  2.1399  0.5963
   41MOL0     H 5493  10.168   9.327   3.542 -4.2113  0.6685 -0.8433
   41MOL0     H 5494  10.195   9.268   3.702  1.1115 -2.0887 -0.8957
   41MOL0     H 5495   9.849   9.506   3.614 -1.0990 -0.6482  0.6350
   41MOL0     H 5496   9.778   9.639   3.803  1.7334  0.9921  0.9721
   41MOL0     H 5497   9.906   9.948   4.076  0.0006  0.1184 -0.8975
   41MOL0     H 5498   9.898  10.091   4.289 -1.6815  1.5719 -1.0522
   41MOL0     H 5499   9.614   9.996   4.628  0.5657  1.2678  0.2732
   41MOL0     H 5500   9.741   9.873   4.629  0.8045  0.0017  1.5681
   41MOL0     H 5501   9.779  10.001   4.832 -0.7394 -2.3223 -0.6424
   41MOL0     H 5502   9.907  10.032   4.714 -0.2212  0.9383 -1.4826
   41MOL0     H 5503   9.836  10.236   4.820  0.8235 -2.4593  0.5862
   41MOL0     H 5504   9.778  10.254   4.651 -1.5566  1.2536  0.9411
   41MOL0     H 5505   9.584  10.130   4.841  0.2303 -0.8106 -1.2250
   41MOL0     H 5506   9.558  10.226   4.703  3.4645 -1.0030 -3.2344
   41MOL0     H 5507   9.631  10.337   4.973 -2.5937 -0.3284  0.3616
   41MOL0     H 5508   9.497  10.378   4.880 -0.2357  0.3115 -1.6929
   41MOL0     H 5509   9.661  10.576   4.873 -2.6762 -2.9781  4.6518
   41MOL0     H 5510   9.793  10.474   4.826 -0.2379 -0.6578  2.7268
   41MOL0     H 5511   9.677  10.441   4.599 -0.0553 -1.0504 -0.2907
   41MOL0     H 5512   9.727  10.600   4.651 -0.0453 -0.8737 -1.5599
   41MOL0     H 5513   9.516  10.555   4.509 -0.9042  0.7800  0.6935
   41MOL0     H 5514   9.430  10.503   4.662  1.7964 -1.0878  2.3385
   41MOL0     H 5515   9.586   9.831   4.441 -0.7638 -1.6667 -1.2662
   41MOL0     H 5516   9.602   9.690   4.251  0.5007  0.6156 -0.2332
   41MOL0     H 5517  10.014   9.377   4.064  1.0169 -1.6993 -1.4365
   41MOL0     H 5518  10.051   9.240   3.878  0.9116 -0.1581 -2.2281
   41MOL0     H 5519  10.446   8.490   2.340  0.9159 -0.3424  1.3434
   41MOL0     H 5520  10.648   8.592   2.322 -1.0653 -1.8969 -0.1436
   41MOL0     H 5521  10.890   8.998   2.527  1.0492  0.0612 -0.2541
   41MOL0     H 5522  11.082   9.112   2.551 -1.5310  1.0521 -0.5428
   41MOL0     H 5523  11.422   9.222   2.432 -0.2536  2.3612  2.6201
   41MOL0     H 5524  11.311   9.105   2.523 -1.2631 -0.4762 -0.3787
   41MOL0     H 5525  11.168   9.306   2.543  0.6595 -4.8347  0.1694
   41MOL0     H 5526  11.310   9.412   2.498 -0.5815 -0.1004 -1.0124
   41MOL0     H 5527  11.426   9.259   2.678  0.2807  0.6175  0.3945
   41MOL0     H 5528  11.258   9.232   2.742  4.4289 -2.2866  3.4072
   41MOL0     H 5529  11.407   9.504   2.717  1.2783  0.6770  2.8438
   41MOL0     H 5530  11.249   9.470   2.783  0.4918 -0.0850  1.4024
   41MOL0     H 5531  11.552   9.366   3.083  0.6369  1.3573  0.4623
   41MOL0     H 5532  11.186   9.029   2.138  0.3558 -1.0351  0.8018
   41MOL0     H 5533  10.938   8.790   2.083 -0.8893  0.3868 -0.9418
   41MOL0     H 5534  10.894   8.960   2.020  0.1844 -0.0090 -0.7540
   41MOL0     H 5535  11.052   8.889   2.011 -0.4110  0.5349 -0.7601
   42MOL0     O 5536   3.617   8.199   3.598 -0.1061  0.2274  0.0166
   42MOL0     C 5537   3.641   8.318   3.598 -0.1212  0.1308  0.1797
   42MOL0     O 5538   3.586   8.405   3.508 -0.7845  0.4129 -0.3152
   42MOL0     C 5539   3.506   8.366   3.401 -0.4172  0.9491 -0.2565
   42MOL0     C 5540   3.432   8.470   3.346 -0.4819 -0.0897  0.3302
   42MOL0     C 5541   3.356   8.446   3.232 -0.0845  0.6847 -0.5079
   42MOL0     C 5542   3.346   8.321   3.187 -0.8585 -0.0429  0.4968
   42MOL0     O 5543   3.276   8.296   3.082 -0.1764  0.1904 -0.0675
   42MOL0     C 5544   3.146   8.228   3.107 -0.7551 -0.8279 -0.2762
   42MOL0     C 5545   3.116   8.157   2.982 -0.5586 -0.0686 -0.3041
   42MOL0     C 5546   2.972   8.104   2.998  0.5472 -0.7066 -0.1591
   42MOL0     C 5547   2.861   8.202   2.968 -0.2844 -0.2940 -0.0210
   42MOL0     C 5548   2.725   8.147   3.028  0.2593  0.3481  0.5577
   42MOL0     C 5549   2.632   8.271   3.075 -1.0340  0.4184  1.1975
   42MOL0     C 5550   2.564   8.341   2.955 -0.8013 -0.3188 -0.1949
   42MOL0     C 5551   2.457   8.437   2.997 -0.3204 -0.0644  0.2691
   42MOL0     N 5552   2.374   8.472   2.879  0.0529  0.4256  0.3290
   42MOL0     C 5553   2.253   8.415   2.874 -0.1966 -0.1067  0.3214
   42MOL0     C 5554   2.193   8.491   2.779 -1.0064  1.0322  0.6781
   42MOL0     C 5555   2.050   8.482   2.734  0.4067 -0.2075 -0.3292
   42MOL0     C 5556   2.038   8.476   2.582 -0.1477 -0.2219  0.0105
   42MOL0     C 5557   2.012   8.331   2.540 -0.0375  0.0948 -0.3276
   42MOL0     C 5558   2.129   8.237   2.545 -1.4264 -0.2589 -0.3342
   42MOL0     O 5559   2.227   8.264   2.447 -0.3285  0.2571 -0.6765
   42MOL0     C 5560   2.347   8.205   2.472  0.1287 -0.3212 -0.9343
   42MOL0     C 5561   2.388   8.095   2.405 -0.0103 -0.2737 -0.5437
   42MOL0     C 5562   2.511   8.032   2.443  0.2921  0.8435  0.2062
   42MOL0     C 5563   2.597   8.096   2.529  0.1358 -0.0177  0.4254
   42MOL0     C 5564   2.726   8.024   2.565  1.1221 -0.0700 -0.3472
   42MOL0     O 5565   2.766   7.939   2.464  0.1596 -0.1814 -0.7356
   42MOL0     C 5566   2.884   7.868   2.479 -0.3409  0.7636  0.0977
   42MOL0     C 5567   3.009   7.936   2.453  0.8859 -0.6091  0.3253
   42MOL0     C 5568   3.135   7.873   2.461  0.7959  0.2805 -0.5341
   42MOL0     C 5569   3.135   7.739   2.494 -0.0169 -0.0063  1.4483
   42MOL0     O 5570   3.257   7.675   2.486  0.0847  0.2615  0.2362
   42MOL0     C 5571   3.261   7.553   2.553 -0.2332  0.7181 -0.2652
   42MOL0     C 5572   3.220   7.431   2.472 -0.5363  0.4052 -0.0420
   42MOL0     C 5573   3.337   7.371   2.387  0.8770 -0.1244  0.1664
   42MOL0     C 5574   3.378   7.479   2.285  0.1637 -0.5097 -0.5912
   42MOL0     C 5575   3.466   7.404   2.169 -0.7517 -0.8689 -1.6880
   42MOL0     C 5576   3.601   7.330   2.216 -0.1756 -0.9176 -0.7649
   42MOL0     C 5577   3.706   7.415   2.275  0.1302 -0.7748 -0.3810
   42MOL0     C 5578   3.847   7.337   2.277  0.4570 -0.3611 -0.4473
   42MOL0    Cl 5579   3.965   7.418   2.382 -0.0313 -0.2236  0.3215
   42MOL0     C 5580   3.009   7.676   2.518 -0.5775  0.1003  0.0366
   42MOL0     C 5581   2.884   7.731   2.514 -0.3324 -0.3794  0.5036
   42MOL0     O 5582   2.790   8.053   2.666  0.0616  0.5021 -1.0346
   42MOL0     C 5583   2.563   8.225   2.584 -0.9121  1.1024 -0.0696
   42MOL0     C 5584   2.438   8.277   2.561 -0.1734  0.3246  0.4724
   42MOL0     N 5585   2.282   8.580   2.724  0.0592 -0.5349 -0.5193
   42MOL0     N 5586   2.401   8.564   2.781  0.1715 -0.3877 -0.4972
   42MOL0     C 5587   3.420   8.219   3.225  0.4543  0.8640  0.7820
   42MOL0     C 5588   3.505   8.235   3.341  0.2018  0.0691  0.3744
   42MOL0     C 5589   3.749   8.369   3.685 -0.2426 -0.5299  0.6328
   42MOL0     C 5590   3.860   8.431   3.625  0.3528 -0.3105  0.4905
   42MOL0     C 5591   3.964   8.499   3.696 -0.1836  0.4621  0.0629
   42MOL0     C 5592   3.975   8.478   3.831  0.0145  0.1484  0.2573
   42MOL0     O 5593   4.093   8.527   3.887 -0.8365  0.1906 -0.4867
   42MOL0     C 5594   4.110   8.524   4.032 -0.3609  0.1792 -1.5779
   42MOL0     C 5595   4.190   8.647   4.098 -0.3065 -0.1499 -0.3277
   42MOL0     C 5596   4.148   8.784   4.044  0.0748  0.1874  0.4235
   42MOL0     C 5597   4.130   8.899   4.138 -0.2387  0.0836  0.2421
   42MOL0     C 5598   4.241   8.923   4.228  0.3967  0.7064 -0.1190
   42MOL0     C 5599   4.327   8.927   4.315  0.2528  0.4991 -0.4999
   42MOL0     C 5600   3.867   8.412   3.904 -0.5599  0.0322  0.0569
   42MOL0     C 5601   3.748   8.368   3.828 -0.0298 -0.2184 -0.6653
   42MOL0     C 5602   3.631   8.317   3.907  0.2204  0.7104 -0.2063
   42MOL0     H 5603   3.447   8.574   3.375 -3.9414  0.2813  1.2154
   42MOL0     H 5604   3.312   8.531   3.179  1.3330  2.2800  0.7524
   42MOL0     H 5605   3.161   8.163   3.194 -1.4907  0.5994  0.9558
   42MOL0     H 5606   3.080   8.312   3.127 -0.3758 -0.7888  0.8459
   42MOL0     H 5607   3.190   8.078   2.965 -0.8913 -0.5879  0.6143
   42MOL0     H 5608   3.108   8.227   2.898  1.9040 -0.6858 -1.1580
   42MOL0     H 5609   2.963   8.053   3.094 -0.9043 -0.1912  0.0083
   42MOL0     H 5610   2.967   8.020   2.928 -2.3683 -1.6012  0.9615
   42MOL0     H 5611   2.886   8.299   3.012 -0.6476  1.3464 -3.1187
   42MOL0     H 5612   2.855   8.210   2.859 -0.5057 -1.1604 -0.0775
   42MOL0     H 5613   2.674   8.073   2.966  0.2466  0.9031 -0.1166
   42MOL0     H 5614   2.756   8.102   3.122 -2.7134 -1.9917  0.5432
   42MOL0     H 5615   2.552   8.226   3.134 -1.6709  0.2527  0.2416
   42MOL0     H 5616   2.691   8.348   3.124  2.0763 -0.9270 -0.1162
   42MOL0     H 5617   2.521   8.266   2.888  0.6421 -1.1364 -0.2398
   42MOL0     H 5618   2.631   8.399   2.891 -2.4267  1.7697 -0.1221
   42MOL0     H 5619   2.391   8.394   3.073 -0.2750  1.5231  1.2470
   42MOL0     H 5620   2.508   8.524   3.041 -0.7667 -0.3574  1.4079
   42MOL0     H 5621   2.212   8.349   2.949  0.3237  0.1762  0.8670
   42MOL0     H 5622   1.995   8.406   2.791 -1.2683  1.5188  0.4558
   42MOL0     H 5623   2.001   8.577   2.757  0.4002  0.0574 -1.4159
   42MOL0     H 5624   1.961   8.547   2.550  2.2304  2.4595 -0.1602
   42MOL0     H 5625   2.127   8.514   2.531 -0.7565 -1.9314 -2.5382
   42MOL0     H 5626   1.982   8.341   2.436 -1.3501  4.3056  0.2632
   42MOL0     H 5627   1.919   8.294   2.583  1.0220 -1.9614  0.3576
   42MOL0     H 5628   2.096   8.133   2.546 -2.0240 -0.0717 -0.5031
   42MOL0     H 5629   2.164   8.250   2.648 -2.1256 -0.9985  0.0073
   42MOL0     H 5630   2.324   8.044   2.335 -4.9347  1.4394  2.2510
   42MOL0     H 5631   2.538   7.936   2.401 -0.4787  0.8756 -0.3911
   42MOL0     H 5632   3.004   8.043   2.436 -3.9000 -0.8692 -1.5762
   42MOL0     H 5633   3.232   7.917   2.440  0.6978  1.4149  1.1550
   42MOL0     H 5634   3.369   7.544   2.568 -0.1492 -2.0160 -1.8834
   42MOL0     H 5635   3.212   7.560   2.650  3.8292 -0.8689  2.1685
   42MOL0     H 5636   3.195   7.353   2.545 -0.6279 -0.4375 -0.9546
   42MOL0     H 5637   3.138   7.463   2.407  0.5815  1.7020 -0.8719
   42MOL0     H 5638   3.424   7.329   2.439  1.3201  0.6902  0.0941
   42MOL0     H 5639   3.296   7.283   2.338 -0.5343  0.3015  0.5105
   42MOL0     H 5640   3.422   7.571   2.325 -0.1326 -0.8194  0.4843
   42MOL0     H 5641   3.285   7.503   2.232 -0.3306 -0.5310  0.2328
   42MOL0     H 5642   3.491   7.481   2.096  2.4384  0.2845  0.3913
   42MOL0     H 5643   3.393   7.339   2.120 -0.6625 -2.4001  0.0741
   42MOL0     H 5644   3.580   7.245   2.280  0.0436 -0.4710 -0.0911
   42MOL0     H 5645   3.655   7.286   2.131 -0.1330 -0.9442 -0.7241
   42MOL0     H 5646   3.671   7.441   2.375  2.0450  1.1204 -0.1367
   42MOL0     H 5647   3.720   7.504   2.214 -0.7884 -2.4906 -3.2959
   42MOL0     H 5648   3.829   7.236   2.315  3.1979 -0.2546  1.4038
   42MOL0     H 5649   3.880   7.340   2.173 -2.5542  1.1184 -1.4725
   42MOL0     H 5650   3.014   7.569   2.539  2.8980  0.5931  2.5889
   42MOL0     H 5651   2.785   7.690   2.531 -0.1321 -0.7142  0.8891
   42MOL0     H 5652   2.630   8.278   2.651  0.7109  2.2018 -2.4191
   42MOL0     H 5653   2.398   8.365   2.609 -0.9233  0.0220  0.4169
   42MOL0     H 5654   3.426   8.132   3.162  3.4047  0.1361  1.9072
   42MOL0     H 5655   3.567   8.155   3.381 -0.3875 -0.0801  1.0157
   42MOL0     H 5656   3.866   8.442   3.517  0.8599  1.5363  0.6729
   42MOL0     H 5657   4.040   8.556   3.643  1.2591  1.2102  2.7346
   42MOL0     H 5658   4.165   8.432   4.054  0.4985  1.1152  0.4050
   42MOL0     H 5659   4.019   8.528   4.093 -0.2729 -4.9137 -0.6675
   42MOL0     H 5660   4.297   8.638   4.076 -0.4852 -2.5633 -0.5220
   42MOL0     H 5661   4.184   8.646   4.207  1.4939 -1.9880 -0.1673
   42MOL0     H 5662   4.046   8.764   4.008 -0.0936  1.0165  0.4247
   42MOL0     H 5663   4.217   8.815   3.965  0.2153 -2.2898 -0.5311
   42MOL0     H 5664   4.125   8.995   4.086  0.1762  1.2311  2.2300
   42MOL0     H 5665   4.033   8.895   4.187 -1.0378  0.2232 -1.2831
   42MOL0     H 5666   4.395   8.940   4.397  0.4191  2.3739 -0.8981
   42MOL0     H 5667   3.881   8.390   4.009  2.1495  1.4060  0.0674
   42MOL0     H 5668   3.539   8.349   3.857 -1.0107  1.6112  2.4891
   42MOL0     H 5669   3.640   8.210   3.927  0.4482  0.6465 -0.6258
   42MOL0     H 5670   3.625   8.359   4.007  0.2266  0.7017 -0.2020
   43MOL0     O 5671   4.359   5.622   5.003 -0.2970  0.4251 -0.0805
   43MOL0     C 5672   4.282   5.533   4.963 -0.4629  0.5463 -0.4063
   43MOL0     O 5673   4.325   5.422   4.907 -0.0362 -0.3936 -0.4073
   43MOL0     C 5674   4.457   5.376   4.892  0.1961  0.3872  0.5190
   43MOL0     C 5675   4.504   5.353   4.763 -0.3257 -0.3457 -0.4489
   43MOL0     C 5676   4.634   5.302   4.748 -0.3773 -0.1032 -0.5043
   43MOL0     C 5677   4.718   5.276   4.858 -0.0395 -0.4094  0.3061
   43MOL0     O 5678   4.845   5.224   4.829  0.2811 -0.1111  0.3282
   43MOL0     C 5679   4.947   5.305   4.765 -0.5123 -0.8948  0.3172
   43MOL0     C 5680   4.975   5.438   4.846  0.6026  0.5888  0.4000
   43MOL0     C 5681   5.044   5.415   4.978 -0.5644  0.2763  0.1648
   43MOL0     C 5682   5.071   5.550   5.044  0.4404  0.2867  0.7216
   43MOL0     C 5683   5.140   5.548   5.182  0.2507  0.3198 -0.2917
   43MOL0     C 5684   5.290   5.577   5.178 -0.9352 -1.1575  0.9360
   43MOL0     C 5685   5.385   5.468   5.085 -0.1154  0.0411 -0.0034
   43MOL0     C 5686   5.432   5.547   4.966  0.1480 -1.3074  0.3121
   43MOL0     N 5687   5.536   5.472   4.885  1.0474  0.2868  0.0143
   43MOL0     C 5688   5.516   5.356   4.824 -0.2196  0.1383  0.5372
   43MOL0     C 5689   5.625   5.337   4.747  1.2177 -0.3680  0.8018
   43MOL0     C 5690   5.637   5.224   4.653 -0.0754  0.0107  0.2471
   43MOL0     C 5691   5.698   5.100   4.724 -0.0102 -0.3722 -0.4970
   43MOL0     C 5692   5.837   5.110   4.770 -0.3708  0.3590  0.1718
   43MOL0     C 5693   5.928   5.119   4.650 -1.0633  0.0884  0.2222
   43MOL0     O 5694   6.059   5.138   4.700  0.3822 -0.5181  0.3581
   43MOL0     C 5695   6.169   5.127   4.608 -0.1196 -0.6508 -0.1399
   43MOL0     C 5696   6.159   5.075   4.473 -0.6130  0.4420  0.1153
   43MOL0     C 5697   6.277   5.064   4.403  0.2496 -0.3745 -0.5457
   43MOL0     C 5698   6.401   5.093   4.467 -0.9298 -0.5391 -0.6911
   43MOL0     C 5699   6.520   5.066   4.388 -0.4228  0.8642  0.3532
   43MOL0     O 5700   6.639   5.138   4.407 -0.1379  0.3174  0.1546
   43MOL0     C 5701   6.726   5.135   4.294  0.4337 -0.5719 -0.8934
   43MOL0     C 5702   6.688   5.167   4.170 -0.1909  0.6863  0.0655
   43MOL0     C 5703   6.759   5.142   4.054  0.5319 -0.1679  0.3854
   43MOL0     C 5704   6.881   5.074   4.057 -1.1670  0.4947 -0.7913
   43MOL0     O 5705   6.950   5.047   3.944 -0.3574  0.2733 -0.1017
   43MOL0     C 5706   7.086   4.993   3.957 -0.7639 -0.1716 -1.6334
   43MOL0     C 5707   7.149   4.983   3.815 -0.3450  0.3959 -0.9721
   43MOL0     C 5708   7.076   4.892   3.719 -0.7291  0.6046 -0.4852
   43MOL0     C 5709   7.167   4.844   3.610 -0.4163  0.0066  0.6775
   43MOL0     C 5710   7.079   4.750   3.523  0.3432  0.8387 -0.6109
   43MOL0     C 5711   7.136   4.739   3.388 -0.4623  0.6055 -0.5925
   43MOL0     C 5712   7.086   4.608   3.331  0.8145  0.1099  0.8257
   43MOL0     C 5713   6.947   4.622   3.270  0.6536 -0.6687 -0.3357
   43MOL0    Cl 5714   6.971   4.726   3.128  0.1105 -0.2800  0.7408
   43MOL0     C 5715   6.924   5.050   4.190 -0.9764 -0.1678  0.6625
   43MOL0     C 5716   6.852   5.079   4.302  0.3245 -0.8400 -0.3120
   43MOL0     O 5717   6.507   4.967   4.311 -0.4125  0.0571  0.3300
   43MOL0     C 5718   6.408   5.143   4.589  0.2378  0.2505  0.1070
   43MOL0     C 5719   6.292   5.164   4.660 -0.0777  0.9543  0.4409
   43MOL0     N 5720   5.705   5.436   4.774  0.8682 -0.5009  0.9215
   43MOL0     N 5721   5.659   5.517   4.862 -0.0695  0.0528 -0.4873
   43MOL0     C 5722   4.676   5.328   4.983 -1.0467 -0.1603 -0.9820
   43MOL0     C 5723   4.541   5.362   5.005  0.6414 -0.3497 -0.0277
   43MOL0     C 5724   4.137   5.561   4.964 -0.6887 -0.1104 -0.4211
   43MOL0     C 5725   4.057   5.512   4.862 -0.3708 -0.5086 -0.7287
   43MOL0     C 5726   3.918   5.533   4.862  0.6735 -0.3333 -0.6027
   43MOL0     C 5727   3.860   5.617   4.960 -0.5746 -0.0714  0.2449
   43MOL0     O 5728   3.730   5.657   4.983  0.2920 -0.1638  0.1453
   43MOL0     C 5729   3.629   5.612   4.883 -0.2174  0.2587 -0.0384
   43MOL0     C 5730   3.493   5.685   4.901  0.5154  0.7805 -0.4155
   43MOL0     C 5731   3.424   5.642   5.025  0.4098  0.0296 -0.1871
   43MOL0     C 5732   3.294   5.724   5.043 -0.0053 -0.6642 -0.6952
   43MOL0     C 5733   3.195   5.715   4.926  0.0751  1.1622 -0.2231
   43MOL0     C 5734   3.129   5.709   4.825  0.3304  0.6994 -0.1265
   43MOL0     C 5735   3.944   5.663   5.061  0.3728 -0.0654 -0.1693
   43MOL0     C 5736   4.080   5.643   5.068 -0.4550 -0.4423  0.1066
   43MOL0     C 5737   4.161   5.696   5.186  0.6306  0.4073  1.3729
   43MOL0     H 5738   4.438   5.376   4.680  0.0108 -0.7124 -0.8192
   43MOL0     H 5739   4.680   5.275   4.654  0.9231  0.6906 -0.1138
   43MOL0     H 5740   5.041   5.249   4.769  0.4169  0.6202  0.4099
   43MOL0     H 5741   4.918   5.316   4.660 -3.1285 -2.6110  0.7594
   43MOL0     H 5742   4.880   5.488   4.867  1.7255  3.9953 -1.8506
   43MOL0     H 5743   5.028   5.511   4.784 -1.8901  1.3721 -0.9222
   43MOL0     H 5744   5.135   5.353   4.976 -3.0030 -3.7603  1.5751
   43MOL0     H 5745   4.982   5.357   5.047  0.7148 -1.4710 -0.0610
   43MOL0     H 5746   5.111   5.632   4.983 -2.1192  1.2327  0.1603
   43MOL0     H 5747   4.966   5.576   5.062  0.7501  1.3854  1.0661
   43MOL0     H 5748   5.092   5.620   5.249  0.9713 -1.4883  2.3202
   43MOL0     H 5749   5.115   5.460   5.241 -3.9478  1.0155 -0.7524
   43MOL0     H 5750   5.292   5.673   5.126  0.3089 -2.3637 -1.3810
   43MOL0     H 5751   5.341   5.589   5.273 -0.0400 -1.0058  0.4459
   43MOL0     H 5752   5.326   5.383   5.049 -0.2411 -0.0748  0.4647
   43MOL0     H 5753   5.471   5.437   5.147 -1.5861 -2.1849  1.0676
   43MOL0     H 5754   5.345   5.582   4.909 -2.2388 -1.8080  3.3840
   43MOL0     H 5755   5.467   5.642   5.007 -3.4701  0.1756  0.3753
   43MOL0     H 5756   5.426   5.295   4.832  0.0519 -0.0455  2.7543
   43MOL0     H 5757   5.539   5.195   4.614 -1.2365  2.7637  0.8850
   43MOL0     H 5758   5.700   5.249   4.567  3.9976 -2.9456  2.0238
   43MOL0     H 5759   5.622   5.070   4.796  0.6249  0.1748  0.4223
   43MOL0     H 5760   5.701   5.016   4.654  2.0964 -1.8593  1.2188
   43MOL0     H 5761   5.856   5.026   4.837 -1.9377  1.6535  2.3593
   43MOL0     H 5762   5.849   5.206   4.821  2.0004  1.7825 -2.7556
   43MOL0     H 5763   5.891   5.199   4.585  0.0357  0.6565  0.2731
   43MOL0     H 5764   5.924   5.032   4.584  0.7312 -1.2820  1.8180
   43MOL0     H 5765   6.071   5.028   4.431  0.6485  0.3619 -2.6889
   43MOL0     H 5766   6.268   5.029   4.301  1.7848  1.7120 -1.4674
   43MOL0     H 5767   6.592   5.219   4.175 -0.3819  0.2175  2.4825
   43MOL0     H 5768   6.727   5.164   3.952 -0.1230 -0.6041  0.4932
   43MOL0     H 5769   7.144   5.060   4.021  0.3100 -2.3395 -0.2235
   43MOL0     H 5770   7.081   4.896   4.007 -0.1129  0.3169 -0.5821
   43MOL0     H 5771   7.163   5.083   3.773 -0.6594 -0.2312 -2.6430
   43MOL0     H 5772   7.253   4.951   3.824 -0.2029  0.4545 -2.1661
   43MOL0     H 5773   7.042   4.801   3.770  0.8745  2.0133  3.5691
   43MOL0     H 5774   6.989   4.946   3.682 -2.1865 -0.7940  0.7288
   43MOL0     H 5775   7.257   4.798   3.653 -1.4699  1.0054  4.3218
   43MOL0     H 5776   7.200   4.930   3.550  1.7811  0.3679  2.2936
   43MOL0     H 5777   6.976   4.784   3.508  0.8461  1.5599 -2.7782
   43MOL0     H 5778   7.058   4.661   3.583 -1.1161  0.3647 -1.7827
   43MOL0     H 5779   7.114   4.829   3.330  0.5863  1.3277  0.0962
   43MOL0     H 5780   7.242   4.715   3.397 -1.1696 -2.8814 -0.0885
   43MOL0     H 5781   7.101   4.526   3.401  2.1635  0.6417  1.1934
   43MOL0     H 5782   7.144   4.587   3.240 -1.4711  0.3956 -0.7616
   43MOL0     H 5783   6.915   4.523   3.237  0.0251 -0.3290 -0.7603
   43MOL0     H 5784   6.877   4.666   3.342 -1.3348 -1.6499 -1.5931
   43MOL0     H 5785   7.018   4.997   4.202 -0.6484 -0.0229 -1.0049
   43MOL0     H 5786   6.887   5.054   4.402  1.2894  2.0108  0.1594
   43MOL0     H 5787   6.504   5.174   4.629  1.9468 -2.6124 -1.4713
   43MOL0     H 5788   6.305   5.214   4.756 -1.3117  1.3777  0.4089
   43MOL0     H 5789   4.739   5.316   5.070 -2.9318 -0.5330  0.4025
   43MOL0     H 5790   4.499   5.398   5.098 -0.4340  0.8495 -0.9425
   43MOL0     H 5791   4.098   5.443   4.789  2.5875  0.0923  0.2290
   43MOL0     H 5792   3.846   5.498   4.789  0.5250  2.2514 -1.8225
   43MOL0     H 5793   3.612   5.505   4.897 -1.6402  0.2943 -1.3563
   43MOL0     H 5794   3.665   5.636   4.783 -0.4713  4.0250  0.6290
   43MOL0     H 5795   3.441   5.649   4.811 -0.1484 -0.8029  0.5688
   43MOL0     H 5796   3.500   5.794   4.893 -1.5927  0.8697 -2.6803
   43MOL0     H 5797   3.485   5.660   5.114  2.3331 -4.2809 -0.3945
   43MOL0     H 5798   3.398   5.536   5.022 -0.6302  0.2492  0.4931
   43MOL0     H 5799   3.237   5.680   5.125  0.4014 -2.6445 -1.4285
   43MOL0     H 5800   3.308   5.831   5.064  2.3625 -0.5890 -2.2887
   43MOL0     H 5801   3.074   5.701   4.734  1.2681 -0.6288 -0.6115
   43MOL0     H 5802   3.900   5.724   5.139 -1.1664 -0.9139 -0.3407
   43MOL0     H 5803   4.188   5.609   5.247 -1.4148 -0.4731  1.1026
   43MOL0     H 5804   4.238   5.766   5.153  0.1939  0.1816 -0.1958
   43MOL0     H 5805   4.093   5.759   5.244 -4.0139 -3.0086  0.2303
   44MOL0     O 5806   4.901   8.946   8.734  0.2868  0.2504  0.5155
   44MOL0     C 5807   4.931   9.057   8.783 -0.5645 -0.1799  0.5747
   44MOL0     O 5808   5.054   9.118   8.767 -0.0827  1.0290 -0.2360
   44MOL0     C 5809   5.154   9.050   8.708  0.1414  0.7071 -0.7087
   44MOL0     C 5810   5.147   8.995   8.578  0.5541 -0.1706  0.6782
   44MOL0     C 5811   5.257   8.918   8.529  0.0466  0.3075 -0.2747
   44MOL0     C 5812   5.373   8.889   8.604  0.9485 -0.1848 -0.7256
   44MOL0     O 5813   5.476   8.813   8.563 -0.5363  0.0226  1.4779
   44MOL0     C 5814   5.480   8.754   8.435 -0.1898 -0.5408 -0.3247
   44MOL0     C 5815   5.628   8.760   8.375 -0.7731 -0.9939  0.1546
   44MOL0     C 5816   5.633   8.732   8.224  0.0058 -0.9778  0.3646
   44MOL0     C 5817   5.697   8.601   8.192  0.3861 -0.1806 -0.1692
   44MOL0     C 5818   5.688   8.555   8.049 -0.2586 -0.3976 -0.0029
   44MOL0     C 5819   5.748   8.656   7.950 -0.1351  0.4134 -0.6594
   44MOL0     C 5820   5.801   8.584   7.828  0.6669  0.1780 -0.2871
   44MOL0     C 5821   5.708   8.486   7.764 -0.1221  0.7624  0.0070
   44MOL0     N 5822   5.576   8.552   7.732  0.2372  0.2710 -0.5691
   44MOL0     C 5823   5.571   8.657   7.650 -0.0098 -0.0971  1.2366
   44MOL0     C 5824   5.453   8.645   7.584  0.4474  0.3698 -0.4857
   44MOL0     C 5825   5.438   8.730   7.466  0.3596  0.3169 -0.0067
   44MOL0     C 5826   5.469   8.645   7.336 -0.3769  0.0813  0.7245
   44MOL0     C 5827   5.379   8.528   7.284 -0.9670  0.5358 -0.4409
   44MOL0     C 5828   5.283   8.574   7.188  0.2781 -0.9559  0.6932
   44MOL0     O 5829   5.181   8.483   7.153  0.5391  0.3933 -0.6921
   44MOL0     C 5830   5.066   8.528   7.092  0.2817  0.4379  0.6121
   44MOL0     C 5831   4.943   8.460   7.132 -0.3459  0.2275  1.0445
   44MOL0     C 5832   4.822   8.513   7.083 -0.8204  1.0045 -0.3738
   44MOL0     C 5833   4.815   8.615   6.989  1.0676 -0.7127  0.9548
   44MOL0     C 5834   4.693   8.670   6.934  0.3654  0.6434  0.6973
   44MOL0     O 5835   4.581   8.587   6.934 -0.5591  0.6660  0.5016
   44MOL0     C 5836   4.467   8.642   6.889  0.2331 -0.5040 -0.4847
   44MOL0     C 5837   4.385   8.715   6.979  0.5032 -0.3719  0.3813
   44MOL0     C 5838   4.264   8.762   6.924  0.3847 -0.0605  0.2310
   44MOL0     C 5839   4.230   8.749   6.792 -0.8195 -0.3704 -0.1163
   44MOL0     O 5840   4.117   8.809   6.747 -0.1525  0.2100  0.0225
   44MOL0     C 5841   4.060   8.783   6.616  0.7879  0.4934  0.8818
   44MOL0     C 5842   3.916   8.826   6.605 -0.2742 -0.1458 -0.2840
   44MOL0     C 5843   3.904   8.987   6.608  0.1909  0.2677  0.8410
   44MOL0     C 5844   3.893   9.056   6.746  0.6080 -0.1117  0.6223
   44MOL0     C 5845   3.880   9.209   6.724  0.0409 -0.5719  0.2915
   44MOL0     C 5846   3.953   9.293   6.833  0.3335  1.0105 -0.3047
   44MOL0     C 5847   3.938   9.443   6.814  0.2444 -1.0669  0.1983
   44MOL0     C 5848   3.893   9.518   6.942  0.3987 -0.2810  0.6142
   44MOL0    Cl 5849   4.010   9.502   7.073 -0.2766 -0.0709 -0.0694
   44MOL0     C 5850   4.317   8.686   6.704  0.7307 -0.0029  0.8263
   44MOL0     C 5851   4.427   8.623   6.761  0.2270  0.0994  0.0053
   44MOL0     O 5852   4.689   8.780   6.887 -0.1815 -0.1928  1.4868
   44MOL0     C 5853   4.934   8.672   6.950  0.4271  0.4927  0.2817
   44MOL0     C 5854   5.057   8.635   7.003  0.3494 -0.0287 -0.1328
   44MOL0     N 5855   5.380   8.537   7.631 -0.3901  0.1540  0.5649
   44MOL0     N 5856   5.454   8.476   7.720 -0.3217 -0.3858 -0.4061
   44MOL0     C 5857   5.373   8.936   8.738 -0.1637  0.2567 -0.0363
   44MOL0     C 5858   5.266   9.019   8.783 -0.2935  0.2032  0.1407
   44MOL0     C 5859   4.842   9.128   8.885 -0.7245  0.0138  0.1524
   44MOL0     C 5860   4.890   9.231   8.967 -0.1734 -0.0506  0.2772
   44MOL0     C 5861   4.803   9.307   9.052 -0.2884  0.5735  0.0484
   44MOL0     C 5862   4.665   9.274   9.059  0.6143 -0.7929  0.5913
   44MOL0     O 5863   4.565   9.342   9.125  0.2712 -0.1122  0.3375
   44MOL0     C 5864   4.598   9.473   9.165  0.6859 -0.6268 -0.5287
   44MOL0     C 5865   4.482   9.544   9.244 -0.7200 -0.2033  0.7251
   44MOL0     C 5866   4.357   9.559   9.169  0.3494 -0.0342 -0.4832
   44MOL0     C 5867   4.239   9.635   9.229  0.0688  0.4932  0.0074
   44MOL0     C 5868   4.228   9.630   9.377 -0.0726  0.5016 -0.8314
   44MOL0     C 5869   4.224   9.630   9.500 -0.1849  0.1594  0.2858
   44MOL0     C 5870   4.612   9.168   8.976 -0.4085  0.6220 -0.0063
   44MOL0     C 5871   4.701   9.098   8.891  0.0723  0.0420  0.7689
   44MOL0     C 5872   4.636   8.991   8.797  0.3132 -0.1818 -0.5965
   44MOL0     H 5873   5.056   9.022   8.526  1.7918 -1.2917 -2.2994
   44MOL0     H 5874   5.245   8.877   8.429 -0.1474  1.8489 -0.9265
   44MOL0     H 5875   5.449   8.649   8.441  1.3696 -1.1890 -2.3576
   44MOL0     H 5876   5.418   8.806   8.361 -2.0401 -2.1291  0.0234
   44MOL0     H 5877   5.689   8.690   8.433 -1.0930 -0.4539  1.1727
   44MOL0     H 5878   5.668   8.860   8.393 -0.7233 -1.1278  0.8404
   44MOL0     H 5879   5.694   8.814   8.187 -1.6233  0.6889  1.1997
   44MOL0     H 5880   5.534   8.733   8.177 -0.7321  4.3002  1.3587
   44MOL0     H 5881   5.802   8.602   8.221  0.3331 -1.3978  0.1168
   44MOL0     H 5882   5.643   8.526   8.250  0.8547 -3.3460 -3.4430
   44MOL0     H 5883   5.754   8.468   8.043 -1.5693 -1.4632  0.3315
   44MOL0     H 5884   5.594   8.526   8.001  3.0511 -2.6371 -6.1784
   44MOL0     H 5885   5.672   8.735   7.946 -0.2360  0.3142 -0.7031
   44MOL0     H 5886   5.827   8.714   7.998 -1.7578  0.9901  1.4987
   44MOL0     H 5887   5.893   8.533   7.857  1.1987  1.4215  0.2888
   44MOL0     H 5888   5.831   8.658   7.754 -2.7428 -0.5304 -2.6342
   44MOL0     H 5889   5.740   8.462   7.662  0.2813  1.2028  0.0237
   44MOL0     H 5890   5.700   8.398   7.828  0.9012  1.3146  0.9409
   44MOL0     H 5891   5.654   8.725   7.632 -0.8593  0.9285  1.1379
   44MOL0     H 5892   5.334   8.764   7.467 -0.3303 -1.5069  2.8679
   44MOL0     H 5893   5.500   8.820   7.467 -1.3661  1.5750 -0.9933
   44MOL0     H 5894   5.473   8.720   7.256 -1.5200  1.3704  1.8400
   44MOL0     H 5895   5.572   8.606   7.341  0.3167  1.1348 -2.5773
   44MOL0     H 5896   5.327   8.485   7.370  0.2632 -0.6065 -0.2364
   44MOL0     H 5897   5.436   8.442   7.249 -1.2330  0.5660 -0.9679
   44MOL0     H 5898   5.332   8.600   7.094 -2.7056  0.7561 -0.5148
   44MOL0     H 5899   5.254   8.664   7.243 -2.9938 -1.1128 -0.5126
   44MOL0     H 5900   4.946   8.375   7.198  1.0415  0.3572  1.1826
   44MOL0     H 5901   4.729   8.463   7.109 -0.3608 -0.9051 -2.1253
   44MOL0     H 5902   4.405   8.740   7.083 -1.8977  1.5205  0.4584
   44MOL0     H 5903   4.195   8.821   6.983  0.2976  2.0148 -1.7822
   44MOL0     H 5904   4.119   8.830   6.537 -0.6630 -0.0428 -0.5641
   44MOL0     H 5905   4.072   8.676   6.601 -0.9713  0.5582 -1.6716
   44MOL0     H 5906   3.878   8.791   6.508 -1.9278 -0.4528  0.4495
   44MOL0     H 5907   3.861   8.778   6.686  1.1563  0.1578  0.9023
   44MOL0     H 5908   3.984   9.028   6.545  0.5506  0.4658  1.4168
   44MOL0     H 5909   3.812   9.007   6.553  0.9434 -1.1833 -1.0802
   44MOL0     H 5910   3.982   9.024   6.801  0.5892 -2.9882 -0.8328
   44MOL0     H 5911   3.806   9.016   6.799 -0.0206 -0.7713 -0.8516
   44MOL0     H 5912   3.777   9.242   6.709 -0.2434 -0.7813  1.7167
   44MOL0     H 5913   3.924   9.232   6.626 -1.2294 -1.2770 -0.4591
   44MOL0     H 5914   3.916   9.263   6.932  1.7369  0.1365 -0.0241
   44MOL0     H 5915   4.057   9.260   6.832  0.1985  0.5358 -2.0757
   44MOL0     H 5916   3.860   9.468   6.742 -0.4071  1.2744  1.5791
   44MOL0     H 5917   4.020   9.491   6.761 -3.5686  3.2007 -2.6211
   44MOL0     H 5918   3.897   9.623   6.910  0.0375  0.5500  3.0396
   44MOL0     H 5919   3.800   9.476   6.980 -0.5218  2.0265  1.0811
   44MOL0     H 5920   4.289   8.680   6.600  0.7461  0.3415  0.8025
   44MOL0     H 5921   4.497   8.573   6.695 -1.0664 -0.5706 -0.8999
   44MOL0     H 5922   4.927   8.749   6.875 -0.3187  0.2857  0.1272
   44MOL0     H 5923   5.146   8.685   6.967  0.2657 -0.0249 -0.3349
   44MOL0     H 5924   5.457   8.913   8.803  0.8372  1.3560 -0.8867
   44MOL0     H 5925   5.281   9.054   8.885  1.2686  1.9924 -0.6463
   44MOL0     H 5926   4.991   9.266   8.950 -0.1274 -0.2643  0.1133
   44MOL0     H 5927   4.843   9.394   9.104 -1.1775  1.0464 -0.0255
   44MOL0     H 5928   4.618   9.530   9.073 -2.0276  2.2631  0.5018
   44MOL0     H 5929   4.689   9.488   9.224 -0.2692  1.4331  0.5293
   44MOL0     H 5930   4.518   9.645   9.267 -2.3692  0.5835  0.0389
   44MOL0     H 5931   4.463   9.489   9.336 -0.6127  0.3755  1.1017
   44MOL0     H 5932   4.309   9.466   9.137 -3.4136  0.4825  2.9020
   44MOL0     H 5933   4.388   9.614   9.079  2.2620 -0.0067  0.1522
   44MOL0     H 5934   4.243   9.739   9.196 -0.9144  0.5214 -0.0678
   44MOL0     H 5935   4.148   9.587   9.190 -0.3884 -3.0232  4.5189
   44MOL0     H 5936   4.212   9.625   9.606 -1.7407 -0.8796  0.0813
   44MOL0     H 5937   4.504   9.155   8.969 -0.0419 -1.9801 -2.7313
   44MOL0     H 5938   4.666   8.894   8.839  1.1547  1.4932  3.1437
   44MOL0     H 5939   4.529   9.008   8.816  0.8255  1.2307  1.2953
   44MOL0     H 5940   4.665   9.020   8.696 -0.4890  0.9550 -0.5123
   45MOL0     O 5941   5.805  10.204   1.194 -0.9113 -0.5695 -0.1346
   45MOL0     C 5942   5.799  10.141   1.297 -0.0381 -0.2719 -0.5830
   45MOL0     O 5943   5.897  10.118   1.379 -1.0480 -0.4216  0.0515
   45MOL0     C 5944   6.022  10.103   1.326  0.1316  0.8886 -0.6836
   45MOL0     C 5945   6.130  10.116   1.413 -0.3635  0.0299  0.3238
   45MOL0     C 5946   6.263  10.084   1.378  0.5822  0.4399  0.2067
   45MOL0     C 5947   6.296  10.052   1.253  0.2730 -0.2311 -0.7099
   45MOL0     O 5948   6.418  10.023   1.213 -0.0201 -0.7776  0.8917
   45MOL0     C 5949   6.512  10.122   1.174  0.2246 -0.0844 -0.1145
   45MOL0     C 5950   6.592  10.164   1.292  0.0865 -0.8462 -0.0404
   45MOL0     C 5951   6.633  10.313   1.272 -0.0390 -0.0844 -0.5116
   45MOL0     C 5952   6.682  10.364   1.412 -0.1940  0.6425 -0.3947
   45MOL0     C 5953   6.730  10.511   1.409 -1.0078 -0.1136  0.0844
   45MOL0     C 5954   6.749  10.589   1.541  0.3140  0.0522  0.4816
   45MOL0     C 5955   6.815  10.505   1.652  0.3011  0.0769 -0.5600
   45MOL0     C 5956   6.923  10.578   1.729  0.0166 -0.4567  0.6714
   45MOL0     N 5957   6.987  10.471   1.812 -0.3767 -0.8229 -0.0381
   45MOL0     C 5958   6.926  10.413   1.911 -0.8691  0.5293 -0.0664
   45MOL0     C 5959   6.995  10.301   1.936  0.2175 -0.0756 -0.3301
   45MOL0     C 5960   6.980  10.190   2.039 -0.0667  1.4863 -0.4703
   45MOL0     C 5961   7.073  10.202   2.161 -0.2231 -0.7195  0.3989
   45MOL0     C 5962   7.071  10.347   2.212  0.9323  0.7687 -0.2809
   45MOL0     C 5963   7.174  10.379   2.323  0.0952 -0.6193 -0.2403
   45MOL0     O 5964   7.235  10.266   2.391 -0.3170  0.5242 -0.2664
   45MOL0     C 5965   7.166  10.194   2.483 -0.1346  0.7587  0.1498
   45MOL0     C 5966   7.029  10.209   2.508  0.5280  0.2833  0.0632
   45MOL0     C 5967   6.968  10.120   2.593  0.2644  1.2909 -0.5763
   45MOL0     C 5968   7.046  10.028   2.664 -0.0948 -0.0698 -0.5974
   45MOL0     C 5969   6.985   9.926   2.748  0.0785 -0.6417 -0.3740
   45MOL0     O 5970   6.859   9.948   2.808  0.3832  0.1770 -0.2108
   45MOL0     C 5971   6.817   9.844   2.890 -0.3994  0.0192 -0.1545
   45MOL0     C 5972   6.707   9.765   2.852  0.0805  0.0322 -0.2896
   45MOL0     C 5973   6.652   9.682   2.946 -0.2713 -0.5970 -1.3971
   45MOL0     C 5974   6.694   9.675   3.080 -0.5831 -1.7540  0.9638
   45MOL0     O 5975   6.645   9.592   3.174  0.1115 -1.1752  0.0065
   45MOL0     C 5976   6.502   9.611   3.200  0.2716 -0.1408  0.3777
   45MOL0     C 5977   6.470   9.755   3.241 -0.6575  0.1373 -0.0552
   45MOL0     C 5978   6.544   9.836   3.348  0.3841 -0.0605 -0.4891
   45MOL0     C 5979   6.560   9.762   3.483  0.2300 -0.7220 -0.3748
   45MOL0     C 5980   6.569   9.854   3.597 -1.6889  0.6109  0.0669
   45MOL0     C 5981   6.704   9.916   3.617  0.7271  1.0030 -0.5406
   45MOL0     C 5982   6.691  10.022   3.739 -0.4733 -0.8380 -0.8771
   45MOL0     C 5983   6.830  10.076   3.770  0.1004 -0.1321 -0.3327
   45MOL0    Cl 5984   6.882  10.168   3.629 -0.2192 -0.1364  0.1304
   45MOL0     C 5985   6.808   9.747   3.123 -0.3633 -0.4510 -0.5162
   45MOL0     C 5986   6.875   9.827   3.020 -0.1217 -0.1086 -0.1559
   45MOL0     O 5987   7.063   9.835   2.769  0.1903  0.3818 -0.5462
   45MOL0     C 5988   7.185  10.019   2.645  0.4850 -0.0363 -0.1043
   45MOL0     C 5989   7.244  10.100   2.547  0.0052  0.6683  0.2564
   45MOL0     N 5990   7.102  10.301   1.852 -0.3701 -0.2413 -0.8716
   45MOL0     N 5991   7.096  10.403   1.780  0.3919  0.6258 -0.2720
   45MOL0     C 5992   6.200  10.041   1.155  1.2062 -0.0001  0.5773
   45MOL0     C 5993   6.057  10.057   1.197  0.9030  0.2993 -0.6787
   45MOL0     C 5994   5.672  10.093   1.360 -0.2575 -0.1694  1.0357
   45MOL0     C 5995   5.668  10.071   1.497  1.1614  0.0987 -0.4363
   45MOL0     C 5996   5.553  10.013   1.555 -0.6947  0.9311  0.4122
   45MOL0     C 5997   5.452   9.961   1.477 -0.7514  0.4672 -0.0769
   45MOL0     O 5998   5.347   9.878   1.513 -0.2322  0.3221  0.3539
   45MOL0     C 5999   5.342   9.841   1.652  0.3830 -0.2000  0.8969
   45MOL0     C 6000   5.210   9.778   1.683 -0.3645  0.4548  0.8741
   45MOL0     C 6001   5.185   9.743   1.839 -0.2826 -0.2333  0.3129
   45MOL0     C 6002   5.096   9.627   1.855  0.8206 -0.5381 -0.2215
   45MOL0     C 6003   5.182   9.507   1.837  0.3584 -0.1826  0.6537
   45MOL0     C 6004   5.253   9.409   1.823  0.0389  0.2234  0.1770
   45MOL0     C 6005   5.459   9.983   1.340 -1.0721  0.5684  0.2342
   45MOL0     C 6006   5.571  10.038   1.279 -0.1363 -0.8173 -0.1964
   45MOL0     C 6007   5.575  10.044   1.127  0.3050  0.5936 -0.3262
   45MOL0     H 6008   6.102  10.146   1.514 -4.6086 -4.7893  0.9593
   45MOL0     H 6009   6.341  10.095   1.453 -0.3710 -1.6675  1.6144
   45MOL0     H 6010   6.581  10.078   1.101 -0.4387  0.1457 -0.8989
   45MOL0     H 6011   6.464  10.206   1.123 -0.5773 -1.3457 -1.5158
   45MOL0     H 6012   6.680  10.100   1.306  0.2860 -0.3753  0.9206
   45MOL0     H 6013   6.534  10.166   1.384  1.2912 -1.1956  0.7517
   45MOL0     H 6014   6.556  10.380   1.232  0.8786  0.8321 -0.7721
   45MOL0     H 6015   6.721  10.309   1.207 -1.4857  0.7444 -2.6547
   45MOL0     H 6016   6.601  10.347   1.483  1.6909 -1.5049  1.3951
   45MOL0     H 6017   6.769  10.306   1.446 -1.0130  1.0989  2.8409
   45MOL0     H 6018   6.830  10.513   1.365  0.5498  1.6478  3.2852
   45MOL0     H 6019   6.668  10.572   1.343  0.0170 -0.2895 -1.0783
   45MOL0     H 6020   6.815  10.674   1.520 -0.0412  0.1588 -0.2511
   45MOL0     H 6021   6.651  10.632   1.566 -0.4940 -1.3726 -0.0748
   45MOL0     H 6022   6.865  10.418   1.609  0.8337 -1.6268  3.1929
   45MOL0     H 6023   6.735  10.474   1.720  1.6069 -1.5224  0.2917
   45MOL0     H 6024   6.999  10.620   1.662 -1.2353 -0.0086 -0.5263
   45MOL0     H 6025   6.885  10.662   1.787 -0.0577 -0.3679  0.4966
   45MOL0     H 6026   6.833  10.443   1.960 -0.6064  0.8863  0.2191
   45MOL0     H 6027   6.876  10.192   2.073 -1.7758 -3.4095 -4.2766
   45MOL0     H 6028   6.984  10.092   1.992 -0.3604 -0.7987  3.7287
   45MOL0     H 6029   7.032  10.141   2.242 -1.8151 -3.0447 -1.9692
   45MOL0     H 6030   7.170  10.158   2.139 -1.3080 -3.0562 -0.0529
   45MOL0     H 6031   6.972  10.362   2.257  0.0423  1.4658 -2.3728
   45MOL0     H 6032   7.086  10.405   2.121  0.0804  0.5027 -0.6036
   45MOL0     H 6033   7.142  10.453   2.397  0.8493  0.3038 -0.8033
   45MOL0     H 6034   7.256  10.425   2.266 -1.9097 -0.6082 -3.3593
   45MOL0     H 6035   6.971  10.288   2.461 -2.7638 -2.1512 -0.3329
   45MOL0     H 6036   6.866  10.128   2.629 -0.7266 -1.9006 -2.2493
   45MOL0     H 6037   6.674   9.781   2.750 -0.0394  0.1222 -0.2363
   45MOL0     H 6038   6.582   9.604   2.917  0.3926 -1.2769 -1.2019
   45MOL0     H 6039   6.442   9.579   3.115 -3.4842 -0.6300  2.9780
   45MOL0     H 6040   6.482   9.541   3.281 -3.8580 -1.9554 -1.9359
   45MOL0     H 6041   6.480   9.806   3.145  0.7692 -1.5067 -0.8320
   45MOL0     H 6042   6.363   9.757   3.264 -0.4439  0.7705  0.9796
   45MOL0     H 6043   6.645   9.861   3.312  1.0000 -2.0190 -0.2657
   45MOL0     H 6044   6.497   9.934   3.360  2.3565  1.1117 -1.6523
   45MOL0     H 6045   6.650   9.701   3.476  2.6163  2.6986 -2.9754
   45MOL0     H 6046   6.479   9.694   3.512  1.6214 -1.4379  2.1768
   45MOL0     H 6047   6.539   9.798   3.686  1.1122  2.4077  2.3303
   45MOL0     H 6048   6.502   9.939   3.583 -1.4319  0.5913 -1.4375
   45MOL0     H 6049   6.766   9.829   3.639 -0.1595 -0.2872 -2.7969
   45MOL0     H 6050   6.735   9.960   3.522 -0.1101 -2.8684 -2.8159
   45MOL0     H 6051   6.652   9.980   3.832 -0.0598  0.0088 -0.2969
   45MOL0     H 6052   6.618  10.100   3.716  0.8268  0.7047 -0.0324
   45MOL0     H 6053   6.829  10.149   3.852 -2.0341 -0.9111  0.4047
   45MOL0     H 6054   6.893   9.991   3.797 -0.5599 -0.9467 -1.2590
   45MOL0     H 6055   6.847   9.737   3.224  1.4361 -1.7119 -1.2879
   45MOL0     H 6056   6.964   9.879   3.054  0.8012 -2.0688  0.5886
   45MOL0     H 6057   7.253   9.948   2.692 -0.5459 -1.5901 -0.8547
   45MOL0     H 6058   7.352  10.097   2.532  0.0319  1.5520  0.2174
   45MOL0     H 6059   6.223  10.013   1.053  1.8244  0.1848  0.6668
   45MOL0     H 6060   5.983  10.042   1.119 -0.6269 -2.0477  1.0648
   45MOL0     H 6061   5.753  10.105   1.555  1.3052  0.9692 -1.1365
   45MOL0     H 6062   5.563   9.993   1.661  2.0911 -1.2817 -0.1608
   45MOL0     H 6063   5.340   9.929   1.717 -1.7862 -0.7704  1.6750
   45MOL0     H 6064   5.432   9.782   1.672  0.9849  0.0105 -0.9732
   45MOL0     H 6065   5.214   9.688   1.621  0.1764 -0.3831  2.0857
   45MOL0     H 6066   5.130   9.844   1.648  0.1931  0.9446  0.4823
   45MOL0     H 6067   5.141   9.833   1.882  0.1920  0.1428  0.0253
   45MOL0     H 6068   5.277   9.717   1.893 -0.9812 -1.5525  0.9310
   45MOL0     H 6069   5.056   9.626   1.957 -1.6554  1.1398 -1.0612
   45MOL0     H 6070   5.005   9.642   1.796 -0.7525  1.3779  2.4872
   45MOL0     H 6071   5.312   9.321   1.803  1.4240  1.4244 -1.2550
   45MOL0     H 6072   5.373   9.953   1.280 -1.0758  1.6026 -0.3018
   45MOL0     H 6073   5.565  10.146   1.087  0.2730  0.0221 -1.8420
   45MOL0     H 6074   5.669  10.011   1.081 -0.3014  0.3628 -1.4463
   45MOL0     H 6075   5.506   9.975   1.077  3.6212 -3.1189 -0.2533
   46MOL0     O 6076   5.318   3.017  10.699  0.0714 -0.5431  0.8785
   46MOL0     C 6077   5.252   3.060  10.798 -0.8896 -0.4470 -1.2194
   46MOL0     O 6078   5.288   3.027  10.927 -0.5721  0.3122  0.4527
   46MOL0     C 6079   5.417   2.987  10.950 -0.7595 -0.1208 -0.4446
   46MOL0     C 6080   5.462   2.857  10.925 -0.1334  0.1882  0.1016
   46MOL0     C 6081   5.593   2.815  10.935 -0.3461  0.3132 -0.3061
   46MOL0     C 6082   5.690   2.905  10.968 -0.3100 -0.0409  0.5083
   46MOL0     O 6083   5.827   2.875  10.945 -0.7264  0.5336 -0.1194
   46MOL0     C 6084   5.921   2.986  10.957  0.1784  0.0458  0.9568
   46MOL0     C 6085   6.056   2.932  10.889 -0.2821  0.0872  0.3512
   46MOL0     C 6086   6.162   3.040  10.868  0.2640  0.2318 -0.5159
   46MOL0     C 6087   6.104   3.147  10.759  0.0786  0.3326 -0.8705
   46MOL0     C 6088   6.203   3.190  10.662 -0.5951 -0.5065 -0.4504
   46MOL0     C 6089   6.164   3.326  10.599 -0.2786 -0.3761 -0.4252
   46MOL0     C 6090   6.263   3.384  10.490  0.4716 -0.2067 -0.1994
   46MOL0     C 6091   6.210   3.526  10.460 -0.1003  0.1175  0.6168
   46MOL0     N 6092   6.290   3.604  10.373 -0.8042 -0.3420 -0.6078
   46MOL0     C 6093   6.329   3.737  10.388  0.4480 -0.3066  0.4349
   46MOL0     C 6094   6.378   3.769  10.263  0.6312 -0.7832  0.0596
   46MOL0     C 6095   6.431   3.904  10.234  0.0430 -0.9038 -0.6863
   46MOL0     C 6096   6.478   3.924  10.085 -0.2667 -0.3150  0.3167
   46MOL0     C 6097   6.608   3.846  10.071  0.0172  0.6507 -0.5485
   46MOL0     C 6098   6.692   3.888   9.956  0.1760 -0.9937 -0.2696
   46MOL0     O 6099   6.797   3.793   9.941 -0.3144 -0.3874  0.6289
   46MOL0     C 6100   6.881   3.838   9.836  0.1565  0.0042  0.8146
   46MOL0     C 6101   6.941   3.730   9.760  0.0727 -0.4876 -0.3226
   46MOL0     C 6102   7.022   3.750   9.652 -0.4473  0.4979  0.9475
   46MOL0     C 6103   7.056   3.876   9.608  0.3672 -0.8496  0.1488
   46MOL0     C 6104   7.161   3.907   9.500  0.1661 -0.3248 -0.0332
   46MOL0     O 6105   7.214   3.795   9.455  0.0123  0.7173 -0.4435
   46MOL0     C 6106   7.315   3.804   9.363 -0.4709  0.6138 -0.4318
   46MOL0     C 6107   7.276   3.810   9.230  0.2482  0.5041 -0.3325
   46MOL0     C 6108   7.372   3.807   9.130  0.3598  0.1614  0.0583
   46MOL0     C 6109   7.508   3.791   9.164 -0.3249 -0.4279  0.1186
   46MOL0     O 6110   7.599   3.783   9.071 -0.6000  1.0494 -0.1284
   46MOL0     C 6111   7.583   3.861   8.950 -0.1070  1.1569 -0.7237
   46MOL0     C 6112   7.725   3.895   8.883  0.4013  0.9621  0.6084
   46MOL0     C 6113   7.810   4.009   8.939 -0.4666  0.4951  0.6955
   46MOL0     C 6114   7.859   3.980   9.079  0.5034  0.5667  0.9642
   46MOL0     C 6115   7.958   4.088   9.134  0.4842 -0.1023  0.1042
   46MOL0     C 6116   8.099   4.061   9.088  0.2336 -0.1119 -0.7872
   46MOL0     C 6117   8.189   4.185   9.133  0.1342 -0.0844  0.5307
   46MOL0     C 6118   8.170   4.314   9.040  0.2998 -0.6632  0.9773
   46MOL0    Cl 6119   8.252   4.270   8.883  0.1263  0.3526  0.5630
   46MOL0     C 6120   7.545   3.790   9.299 -0.4443 -0.2636  0.8105
   46MOL0     C 6121   7.449   3.792   9.401  0.4646 -0.4155  0.7348
   46MOL0     O 6122   7.207   4.020   9.494  0.7683  0.3604 -0.2070
   46MOL0     C 6123   6.997   3.982   9.686 -0.0619  0.4828  0.3947
   46MOL0     C 6124   6.920   3.965   9.800 -0.1147  0.0990 -1.1841
   46MOL0     N 6125   6.371   3.663  10.186  0.3228  0.4507 -0.0564
   46MOL0     N 6126   6.313   3.563  10.243 -0.3054  0.0652 -0.3066
   46MOL0     C 6127   5.648   3.033  11.013 -0.5211  0.7376  0.0263
   46MOL0     C 6128   5.515   3.070  11.006  0.4288  0.1710  0.0205
   46MOL0     C 6129   5.130   3.142  10.772  0.5307 -0.5181 -0.3244
   46MOL0     C 6130   5.097   3.176  10.642  0.0246  0.1087  0.2375
   46MOL0     C 6131   4.976   3.241  10.607 -0.4182 -1.2681  0.0557
   46MOL0     C 6132   4.898   3.293  10.702 -0.1379  0.3315  1.3623
   46MOL0     O 6133   4.803   3.392  10.678  0.3731 -0.5375 -0.3807
   46MOL0     C 6134   4.733   3.394  10.547 -0.2596 -0.4695 -0.2136
   46MOL0     C 6135   4.586   3.374  10.590  0.0943  0.0049 -0.1316
   46MOL0     C 6136   4.501   3.383  10.460 -0.5065  0.5471  0.2970
   46MOL0     C 6137   4.349   3.376  10.493  0.1976 -0.0368  0.3776
   46MOL0     C 6138   4.283   3.258  10.552  0.5745 -0.2929 -0.2689
   46MOL0     C 6139   4.213   3.183  10.609  0.2069  0.3665  0.0522
   46MOL0     C 6140   4.921   3.246  10.831  0.2024 -1.0547 -0.4818
   46MOL0     C 6141   5.030   3.171  10.864 -0.0792  0.0463  0.7146
   46MOL0     C 6142   5.035   3.127  11.006 -1.0829 -0.2912 -0.1087
   46MOL0     H 6143   5.381   2.796  10.885 -0.0788  0.7594 -0.9065
   46MOL0     H 6144   5.624   2.718  10.898  2.1639  1.7348 -2.2687
   46MOL0     H 6145   5.896   3.081  10.908 -3.6628 -1.8022 -1.1219
   46MOL0     H 6146   5.940   3.015  11.061  1.5513  2.3959  0.1294
   46MOL0     H 6147   6.035   2.892  10.790  3.6055 -0.7519 -0.3270
   46MOL0     H 6148   6.104   2.856  10.952  3.6707  2.4978  0.5868
   46MOL0     H 6149   6.251   2.993  10.824  2.2782  1.4886  1.9518
   46MOL0     H 6150   6.201   3.075  10.964  0.9136 -2.0571  0.1409
   46MOL0     H 6151   6.024   3.100  10.701  0.9995 -0.5703 -1.4275
   46MOL0     H 6152   6.054   3.227  10.816 -2.1658 -0.5421 -1.4903
   46MOL0     H 6153   6.297   3.206  10.715 -1.0481  0.3817  0.1061
   46MOL0     H 6154   6.229   3.106  10.596  0.0757 -1.2882  0.7639
   46MOL0     H 6155   6.077   3.295  10.540  1.2031 -2.8643 -1.4624
   46MOL0     H 6156   6.147   3.398  10.680  0.8254 -0.3572 -0.2038
   46MOL0     H 6157   6.259   3.318  10.402  1.7919 -2.0558  1.0546
   46MOL0     H 6158   6.367   3.370  10.520  0.6830 -0.6577 -1.0996
   46MOL0     H 6159   6.111   3.516  10.415  0.7025  0.3127 -1.3212
   46MOL0     H 6160   6.186   3.565  10.559 -6.2166 -1.6024  0.2279
   46MOL0     H 6161   6.315   3.803  10.473  0.5216 -0.4149  0.5311
   46MOL0     H 6162   6.351   3.979  10.247  2.7308  1.8354  1.5160
   46MOL0     H 6163   6.512   3.927  10.303 -2.1546  2.4108  1.1215
   46MOL0     H 6164   6.404   3.897  10.009 -0.6113  2.3143 -0.3581
   46MOL0     H 6165   6.492   4.031  10.070 -1.4504 -0.6022 -4.2293
   46MOL0     H 6166   6.584   3.739  10.071 -4.5079  1.3873  1.8859
   46MOL0     H 6167   6.657   3.866  10.166  0.8351  2.3898 -1.3012
   46MOL0     H 6168   6.726   3.988   9.984 -2.0518  0.0223 -0.9447
   46MOL0     H 6169   6.618   3.901   9.876  0.0988  1.8293  0.1859
   46MOL0     H 6170   6.927   3.626   9.789 -1.5650 -0.7080 -1.7515
   46MOL0     H 6171   7.067   3.664   9.603  0.4134  0.3379  1.9729
   46MOL0     H 6172   7.170   3.818   9.213  0.1770  0.6750  0.1930
   46MOL0     H 6173   7.324   3.803   9.033 -0.1586  0.1783  0.3090
   46MOL0     H 6174   7.530   3.807   8.871 -0.4739 -0.0733  0.3390
   46MOL0     H 6175   7.517   3.943   8.981 -3.2237 -1.8052  1.1569
   46MOL0     H 6176   7.786   3.804   8.889 -1.5447 -0.3851  1.1962
   46MOL0     H 6177   7.708   3.912   8.776  0.6550 -4.2214 -0.5399
   46MOL0     H 6178   7.888   4.025   8.864 -1.0900 -0.7084 -0.2497
   46MOL0     H 6179   7.760   4.104   8.961 -3.2493 -1.2545  2.5322
   46MOL0     H 6180   7.912   3.886   9.070 -0.3614  0.1168  0.4975
   46MOL0     H 6181   7.769   3.974   9.142 -2.3047  2.7268 -2.4181
   46MOL0     H 6182   7.943   4.109   9.241 -1.0609 -1.2120  0.1409
   46MOL0     H 6183   7.933   4.181   9.082  2.0851  2.2933  3.2244
   46MOL0     H 6184   8.131   3.972   9.142 -0.2443 -0.1121 -0.4984
   46MOL0     H 6185   8.105   4.038   8.981 -1.0506 -1.3844 -0.6195
   46MOL0     H 6186   8.296   4.162   9.129  0.0620 -0.2811 -1.2342
   46MOL0     H 6187   8.160   4.198   9.237 -2.5437  0.4861 -0.2029
   46MOL0     H 6188   8.068   4.351   9.025  0.6110  0.3861  1.3408
   46MOL0     H 6189   8.226   4.396   9.085 -0.1646  0.1532  0.1052
   46MOL0     H 6190   7.651   3.788   9.324  0.6450 -0.5401 -3.0788
   46MOL0     H 6191   7.477   3.799   9.506 -2.0353  3.8287  1.3463
   46MOL0     H 6192   7.028   4.082   9.657 -0.7203  0.2840 -1.0653
   46MOL0     H 6193   6.874   4.056   9.837 -3.9838 -1.7482 -0.9747
   46MOL0     H 6194   5.717   3.114  11.036  0.5938 -0.4090  0.9114
   46MOL0     H 6195   5.491   3.174  11.026 -0.0599  0.2029 -0.6839
   46MOL0     H 6196   5.170   3.150  10.566  0.4067  1.3657  0.1512
   46MOL0     H 6197   4.958   3.242  10.500  1.5787 -2.8574 -0.3624
   46MOL0     H 6198   4.750   3.306  10.484 -2.1721 -0.1748 -1.2497
   46MOL0     H 6199   4.751   3.488  10.494  0.3019 -0.2631  0.3432
   46MOL0     H 6200   4.549   3.454  10.654 -0.3376  1.2573 -1.8744
   46MOL0     H 6201   4.571   3.282  10.648 -1.2957  0.2704 -0.0245
   46MOL0     H 6202   4.526   3.302  10.391 -1.1453  0.0811  0.6029
   46MOL0     H 6203   4.520   3.480  10.412  0.8844  1.3502  2.3482
   46MOL0     H 6204   4.338   3.454  10.568 -1.8876  0.0174  0.0859
   46MOL0     H 6205   4.291   3.401  10.403 -0.8586 -0.3616  0.9463
   46MOL0     H 6206   4.151   3.114  10.663 -0.4065 -1.1711 -2.4750
   46MOL0     H 6207   4.854   3.260  10.916 -0.8200 -1.1288 -1.2555
   46MOL0     H 6208   5.043   3.018  11.015 -0.1435 -0.0928  2.5982
   46MOL0     H 6209   5.115   3.180  11.059  0.2569  0.4007 -2.6711
   46MOL0     H 6210   4.936   3.146  11.048  0.0688 -0.4108  2.9763
   47MOL0     O 6211   1.081   8.393   3.415  0.3977  0.1609  0.3935
   47MOL0     C 6212   1.139   8.395   3.524 -0.2187  0.5677  0.6588
   47MOL0     O 6213   1.220   8.293   3.567 -0.3075 -0.2677 -0.3721
   47MOL0     C 6214   1.273   8.176   3.499 -0.2462 -0.7795  0.9356
   47MOL0     C 6215   1.367   8.099   3.573 -0.0420 -0.2796  0.7615
   47MOL0     C 6216   1.411   7.973   3.508  0.3754  0.8635  0.1588
   47MOL0     C 6217   1.368   7.938   3.383 -0.6896 -0.2186  0.0813
   47MOL0     O 6218   1.405   7.828   3.315  0.7484 -0.3038  0.0513
   47MOL0     C 6219   1.417   7.702   3.388  0.2456 -0.1725 -0.7181
   47MOL0     C 6220   1.423   7.606   3.270  0.7841 -0.7476 -0.9146
   47MOL0     C 6221   1.376   7.461   3.312  0.1917  0.3911  0.0739
   47MOL0     C 6222   1.475   7.355   3.276 -0.2776  0.4157  0.6007
   47MOL0     C 6223   1.432   7.216   3.334  0.1368  0.1590  0.5412
   47MOL0     C 6224   1.508   7.099   3.265 -0.0491  0.2750  0.1780
   47MOL0     C 6225   1.492   6.948   3.303  1.0196 -0.6624 -0.2152
   47MOL0     C 6226   1.551   6.858   3.200 -0.5109  0.4913 -0.1873
   47MOL0     N 6227   1.531   6.715   3.229 -0.3284  0.5314 -0.0038
   47MOL0     C 6228   1.450   6.622   3.161  0.2885 -1.0322 -0.7130
   47MOL0     C 6229   1.433   6.521   3.258  0.7351  0.2853  0.2315
   47MOL0     C 6230   1.360   6.386   3.238 -1.2098 -0.5525 -0.0980
   47MOL0     C 6231   1.212   6.381   3.273  0.8524 -0.5216 -0.0582
   47MOL0     C 6232   1.187   6.430   3.418  0.1503  0.2242 -0.2044
   47MOL0     C 6233   1.052   6.388   3.483  0.9933  0.6030 -0.6434
   47MOL0     O 6234   1.030   6.438   3.622  0.6161 -0.0654  0.3237
   47MOL0     C 6235   1.097   6.369   3.718  0.3716  0.2814  0.0101
   47MOL0     C 6236   1.187   6.257   3.694  0.2738 -0.2979  0.2094
   47MOL0     C 6237   1.247   6.191   3.802  0.3102  0.6663  0.6918
   47MOL0     C 6238   1.224   6.227   3.934 -1.0717 -0.3102 -0.4527
   47MOL0     C 6239   1.279   6.151   4.056 -0.4585 -1.2322  0.1966
   47MOL0     O 6240   1.236   6.196   4.184  0.0258  0.4927  0.0962
   47MOL0     C 6241   1.308   6.145   4.292 -0.9548  0.1974 -0.9011
   47MOL0     C 6242   1.252   6.050   4.382  0.2697 -0.0092 -0.5132
   47MOL0     C 6243   1.315   6.020   4.509  0.6919  1.1763 -1.0536
   47MOL0     C 6244   1.431   6.078   4.548  0.6609  1.0297 -0.1632
   47MOL0     O 6245   1.485   6.035   4.663  0.4239  0.2818 -0.1021
   47MOL0     C 6246   1.633   6.051   4.668 -0.8467 -0.3005 -0.6403
   47MOL0     C 6247   1.672   5.938   4.764  0.5512 -1.2316 -0.0164
   47MOL0     C 6248   1.821   5.947   4.801  0.5414 -0.3993  0.6878
   47MOL0     C 6249   1.875   5.868   4.922  0.9178  0.9449  0.5218
   47MOL0     C 6250   2.007   5.918   4.973 -0.6828 -0.4966  0.1827
   47MOL0     C 6251   2.003   6.045   5.062  0.2352 -0.3475  0.0048
   47MOL0     C 6252   1.905   6.030   5.188  0.2305 -0.5375  0.6603
   47MOL0     C 6253   1.905   5.895   5.253  0.4524 -0.3882  0.3600
   47MOL0    Cl 6254   2.067   5.869   5.319 -0.0274  0.0053  0.1345
   47MOL0     C 6255   1.491   6.168   4.456 -0.9630  0.0043  0.1598
   47MOL0     C 6256   1.436   6.195   4.331 -0.2193 -0.0469  0.1368
   47MOL0     O 6257   1.344   6.052   4.031 -0.0173  0.6973 -0.1567
   47MOL0     C 6258   1.117   6.322   3.948 -0.5731  0.2736 -0.3536
   47MOL0     C 6259   1.074   6.410   3.851 -0.1241  0.4424  0.1399
   47MOL0     N 6260   1.500   6.554   3.373 -0.5083  0.4938 -0.0082
   47MOL0     N 6261   1.564   6.661   3.354  0.3166  0.0221  1.0013
   47MOL0     C 6262   1.284   8.017   3.312  0.7572 -1.1817  0.7384
   47MOL0     C 6263   1.238   8.139   3.366  0.1874  0.3851  1.1508
   47MOL0     C 6264   1.106   8.510   3.617  0.9857 -0.3732  0.7956
   47MOL0     C 6265   1.002   8.593   3.576  1.2687  0.9239  0.1426
   47MOL0     C 6266   0.969   8.711   3.644 -0.5380  0.4045  0.9713
   47MOL0     C 6267   1.037   8.744   3.761  0.5922  0.3919 -0.3013
   47MOL0     O 6268   1.005   8.859   3.830  0.6209  0.3826  1.0112
   47MOL0     C 6269   0.919   8.966   3.773 -0.4298  0.8856 -0.3632
   47MOL0     C 6270   0.891   9.073   3.879  0.3565  0.0126 -0.4226
   47MOL0     C 6271   0.832   9.204   3.822  0.6125 -0.3536  0.7763
   47MOL0     C 6272   0.938   9.277   3.742  0.3852 -0.0525  1.1106
   47MOL0     C 6273   0.879   9.411   3.704  0.7082  0.8581 -1.0064
   47MOL0     C 6274   0.823   9.512   3.680  0.0321 -0.1125 -0.0910
   47MOL0     C 6275   1.148   8.669   3.798 -0.1374  0.9603 -0.1111
   47MOL0     C 6276   1.183   8.553   3.729  0.1620 -0.2269  0.0441
   47MOL0     C 6277   1.303   8.468   3.772  0.3685 -0.8066 -0.1537
   47MOL0     H 6278   1.412   8.139   3.663  1.8767  0.0495 -0.2793
   47MOL0     H 6279   1.490   7.916   3.556  0.0433 -0.9954 -1.4097
   47MOL0     H 6280   1.509   7.692   3.445 -0.0594 -4.7663 -0.6160
   47MOL0     H 6281   1.340   7.686   3.464  0.1018  0.9201 -0.6162
   47MOL0     H 6282   1.526   7.618   3.235  0.4534  1.8286 -1.1886
   47MOL0     H 6283   1.361   7.634   3.185  1.6381  2.7016 -0.5449
   47MOL0     H 6284   1.274   7.447   3.274  0.0268  0.2794  0.5456
   47MOL0     H 6285   1.356   7.458   3.420 -1.8961 -2.1912 -0.2707
   47MOL0     H 6286   1.501   7.361   3.170 -0.0118  1.4425  0.7128
   47MOL0     H 6287   1.566   7.379   3.330 -0.7543  1.3843  1.0104
   47MOL0     H 6288   1.432   7.219   3.443 -0.1695 -0.5311  0.5726
   47MOL0     H 6289   1.327   7.198   3.307 -0.3287 -1.4878  3.1361
   47MOL0     H 6290   1.490   7.107   3.157  1.4067 -0.2313 -0.1264
   47MOL0     H 6291   1.615   7.121   3.276 -0.1402  0.1003  1.5474
   47MOL0     H 6292   1.385   6.925   3.315  1.5958 -2.2714  3.8378
   47MOL0     H 6293   1.531   6.926   3.403 -0.8199  2.7211  1.3891
   47MOL0     H 6294   1.496   6.882   3.109 -0.8123 -1.3298 -0.5250
   47MOL0     H 6295   1.659   6.874   3.188 -0.1603 -0.7484  1.1084
   47MOL0     H 6296   1.401   6.625   3.064 -1.2517  0.0362  0.0577
   47MOL0     H 6297   1.389   6.336   3.145  3.3885 -5.1762  3.2840
   47MOL0     H 6298   1.411   6.316   3.304  0.9879 -1.6097 -2.7172
   47MOL0     H 6299   1.151   6.442   3.206 -1.2135 -4.2056 -1.7959
   47MOL0     H 6300   1.188   6.276   3.260 -0.7949 -0.3153  1.0163
   47MOL0     H 6301   1.197   6.539   3.411  1.9409  0.1920  1.0280
   47MOL0     H 6302   1.269   6.391   3.480  3.0518  2.3151 -2.4132
   47MOL0     H 6303   1.037   6.281   3.474  1.6911  0.6195 -2.4617
   47MOL0     H 6304   0.991   6.433   3.405  2.2486  2.1482 -0.8123
   47MOL0     H 6305   1.221   6.227   3.596  1.5799  0.4109  0.4261
   47MOL0     H 6306   1.327   6.121   3.784  1.8146  1.7814  2.6210
   47MOL0     H 6307   1.153   6.009   4.364  0.1027 -0.8359  1.9028
   47MOL0     H 6308   1.277   5.934   4.564  0.1737  0.8771 -1.8735
   47MOL0     H 6309   1.686   6.044   4.573  1.0524  0.1994  0.3199
   47MOL0     H 6310   1.664   6.152   4.697  1.0069 -0.6519 -1.2723
   47MOL0     H 6311   1.605   5.943   4.850  0.5457 -0.4428 -0.0595
   47MOL0     H 6312   1.655   5.849   4.703  0.5533 -0.1924 -1.6103
   47MOL0     H 6313   1.879   5.914   4.714  1.5854  2.7961  0.0158
   47MOL0     H 6314   1.836   6.053   4.822  2.9274 -0.8620  1.7378
   47MOL0     H 6315   1.884   5.763   4.895 -1.3752  0.6168  0.8356
   47MOL0     H 6316   1.808   5.867   5.009  2.2553  0.2665  1.5806
   47MOL0     H 6317   2.076   5.940   4.891 -0.0467 -1.3444  0.4812
   47MOL0     H 6318   2.056   5.836   5.025  1.0118 -0.3028 -1.0082
   47MOL0     H 6319   2.106   6.070   5.091  0.2634  0.2769 -0.6187
   47MOL0     H 6320   1.971   6.131   5.004 -0.6366 -0.8691 -0.3006
   47MOL0     H 6321   1.802   6.062   5.169  0.9953  1.9324  0.2502
   47MOL0     H 6322   1.942   6.106   5.258 -1.5877  0.5772  0.5038
   47MOL0     H 6323   1.834   5.894   5.337 -0.3002 -1.0738 -0.2642
   47MOL0     H 6324   1.874   5.808   5.194 -0.6577  0.0428  0.2746
   47MOL0     H 6325   1.583   6.221   4.479 -1.3877  0.2576  1.3332
   47MOL0     H 6326   1.481   6.257   4.254  0.0658  2.4148  2.1448
   47MOL0     H 6327   1.069   6.341   4.043  0.8647  0.2156  0.4185
   47MOL0     H 6328   0.999   6.485   3.874  0.5872  0.3688  3.1641
   47MOL0     H 6329   1.247   7.983   3.216 -3.2519 -0.4715  1.8524
   47MOL0     H 6330   1.175   8.193   3.295  0.7328 -0.3355  0.1052
   47MOL0     H 6331   0.942   8.564   3.491  0.6913 -1.8001  1.3730
   47MOL0     H 6332   0.885   8.766   3.603  0.4176  1.1618 -0.0189
   47MOL0     H 6333   0.830   8.913   3.736  1.4493 -3.6745  0.8860
   47MOL0     H 6334   0.961   9.005   3.680 -1.6320  1.4479 -0.6893
   47MOL0     H 6335   0.988   9.088   3.927  0.3020  0.9349 -0.5791
   47MOL0     H 6336   0.827   9.034   3.958  0.8284  1.2080  0.5918
   47MOL0     H 6337   0.793   9.267   3.902 -1.0396  0.0093 -0.2709
   47MOL0     H 6338   0.740   9.173   3.771  0.9204 -2.3501  1.3187
   47MOL0     H 6339   1.025   9.304   3.803  1.2541 -2.2302  0.9357
   47MOL0     H 6340   0.968   9.214   3.657 -4.0274 -3.3986  1.6869
   47MOL0     H 6341   0.777   9.607   3.661  1.2860  1.3784  3.4358
   47MOL0     H 6342   1.197   8.690   3.892  0.1785  2.0897 -0.5143
   47MOL0     H 6343   1.352   8.520   3.855  2.1240  1.5815 -2.5017
   47MOL0     H 6344   1.256   8.374   3.801 -1.5469  0.6877  1.9778
   47MOL0     H 6345   1.368   8.451   3.686  0.9565 -2.1378  0.5274
   48MOL0     O 6346   9.331   1.386   7.550 -0.0404  0.4971 -0.5065
   48MOL0     C 6347   9.405   1.291   7.510  1.2261  0.1310 -0.5050
   48MOL0     O 6348   9.358   1.167   7.493 -0.1613  0.2170  0.1478
   48MOL0     C 6349   9.243   1.137   7.553  0.1950  0.0814  0.0749
   48MOL0     C 6350   9.246   1.058   7.666  1.1573 -0.4982 -0.5502
   48MOL0     C 6351   9.123   1.012   7.719  1.4481  0.7010  0.6198
   48MOL0     C 6352   8.997   1.041   7.651  1.0680 -0.0769  0.2901
   48MOL0     O 6353   8.875   0.987   7.672 -0.2269  0.2095  0.2053
   48MOL0     C 6354   8.815   0.990   7.809  0.1378  0.5996 -0.1259
   48MOL0     C 6355   8.798   1.140   7.854  0.0034 -0.1831  1.2287
   48MOL0     C 6356   8.737   1.147   7.996 -0.0400 -0.1703  0.5020
   48MOL0     C 6357   8.611   1.067   8.023  0.5076  0.3395  0.5732
   48MOL0     C 6358   8.488   1.086   7.936  0.2101  0.4649  1.3280
   48MOL0     C 6359   8.441   1.228   7.917  0.1463  0.1700  0.0751
   48MOL0     C 6360   8.303   1.231   7.851 -0.0274  0.3589  0.4324
   48MOL0     C 6361   8.243   1.359   7.907  0.1815 -0.2476 -0.2991
   48MOL0     N 6362   8.103   1.392   7.843 -0.2022  0.4376 -0.0537
   48MOL0     C 6363   8.074   1.435   7.711  0.3835  0.3724  0.2704
   48MOL0     C 6364   7.941   1.426   7.718  0.6257  0.2275  0.3140
   48MOL0     C 6365   7.839   1.420   7.599 -0.1170 -1.2190 -0.1326
   48MOL0     C 6366   7.697   1.495   7.613  0.9755  0.4598 -0.4089
   48MOL0     C 6367   7.710   1.650   7.597  0.0118  0.5396  0.3464
   48MOL0     C 6368   7.568   1.705   7.625 -0.2332  1.1806  0.4395
   48MOL0     O 6369   7.483   1.691   7.511 -0.1038  0.6437  0.1184
   48MOL0     C 6370   7.359   1.744   7.531  0.5566  0.2706 -0.3062
   48MOL0     C 6371   7.272   1.702   7.434 -0.4952 -0.2948 -0.1431
   48MOL0     C 6372   7.136   1.729   7.424  0.7206  0.5790 -0.3683
   48MOL0     C 6373   7.081   1.815   7.527 -0.3170 -0.0957 -0.5601
   48MOL0     C 6374   6.940   1.851   7.526  0.3164  0.1610 -0.5579
   48MOL0     O 6375   6.872   1.809   7.420  0.1226 -0.3135 -0.2091
   48MOL0     C 6376   6.747   1.850   7.394  0.4566  0.8240  0.7671
   48MOL0     C 6377   6.730   1.970   7.317  0.4726 -0.6318  1.0744
   48MOL0     C 6378   6.605   2.020   7.287 -0.5975 -0.3166  0.5081
   48MOL0     C 6379   6.491   1.954   7.339  0.2773 -0.7675  0.1111
   48MOL0     O 6380   6.357   1.992   7.314  0.2616  0.0456  0.4826
   48MOL0     C 6381   6.336   2.130   7.271 -0.1823 -0.8498  0.6177
   48MOL0     C 6382   6.185   2.162   7.289 -1.8828 -0.4303 -0.1702
   48MOL0     C 6383   6.171   2.308   7.267  0.6266 -0.1111 -0.2793
   48MOL0     C 6384   6.030   2.338   7.215 -0.2771 -0.1671 -0.1330
   48MOL0     C 6385   5.911   2.278   7.292 -0.9964 -0.4989  0.1456
   48MOL0     C 6386   5.779   2.340   7.251 -1.1307  0.1988  0.2073
   48MOL0     C 6387   5.722   2.268   7.130  0.2834  0.4696  0.4801
   48MOL0     C 6388   5.592   2.326   7.086 -0.3419  0.3871  0.9149
   48MOL0    Cl 6389   5.462   2.322   7.205 -0.2900 -0.0427  0.5651
   48MOL0     C 6390   6.506   1.847   7.426  0.8158 -0.2709 -0.1220
   48MOL0     C 6391   6.636   1.784   7.448  0.0176 -0.1530  1.0334
   48MOL0     O 6392   6.901   1.914   7.618  0.2404  0.8348  0.0994
   48MOL0     C 6393   7.172   1.866   7.631  0.3847 -0.0384  0.9548
   48MOL0     C 6394   7.311   1.835   7.629  1.3310  0.4698  0.2737
   48MOL0     N 6395   7.896   1.388   7.837 -0.1423 -0.6364 -1.0027
   48MOL0     N 6396   7.992   1.373   7.921 -0.5250 -0.3386 -0.1185
   48MOL0     C 6397   9.007   1.115   7.536 -0.3800  0.3220 -0.3820
   48MOL0     C 6398   9.127   1.174   7.484 -0.2840  0.0325 -0.2696
   48MOL0     C 6399   9.555   1.310   7.473  0.2693 -0.1849 -0.7295
   48MOL0     C 6400   9.625   1.183   7.456  0.0031  1.2949 -0.1407
   48MOL0     C 6401   9.756   1.182   7.399  0.4940 -0.6336 -0.7450
   48MOL0     C 6402   9.816   1.302   7.374  0.4583  0.2391 -0.5994
   48MOL0     O 6403   9.945   1.286   7.331  0.0667 -0.1130 -0.4336
   48MOL0     C 6404  10.028   1.399   7.297  0.5696 -0.2181  0.2444
   48MOL0     C 6405   9.970   1.461   7.167  0.3257  0.1718 -0.1502
   48MOL0     C 6406   9.925   1.361   7.053  0.9825 -0.1023  0.6337
   48MOL0     C 6407  10.038   1.291   6.981 -0.2614 -0.3107  0.6171
   48MOL0     C 6408  10.050   1.329   6.839  0.2998 -0.1874 -0.7692
   48MOL0     C 6409  10.084   1.368   6.730 -0.6808  1.1560  0.5052
   48MOL0     C 6410   9.760   1.427   7.414  0.7699  0.9017 -0.4331
   48MOL0     C 6411   9.625   1.435   7.454  0.5326  0.6559  0.6576
   48MOL0     C 6412   9.561   1.570   7.478  0.4184 -0.5266  0.0657
   48MOL0     H 6413   9.343   1.029   7.705 -0.1942 -3.1416  1.1134
   48MOL0     H 6414   9.122   0.946   7.805 -1.1539 -1.7957 -1.1306
   48MOL0     H 6415   8.717   0.943   7.815 -0.2426  1.5522  2.3181
   48MOL0     H 6416   8.889   0.940   7.872  1.1101 -1.1490 -2.4870
   48MOL0     H 6417   8.739   1.192   7.779 -0.4191  0.2030  1.8200
   48MOL0     H 6418   8.892   1.195   7.846  0.2646 -0.5889  1.4421
   48MOL0     H 6419   8.718   1.249   8.029 -0.2616  0.4794 -1.4762
   48MOL0     H 6420   8.803   1.101   8.070 -0.7791 -1.1505  0.5792
   48MOL0     H 6421   8.632   0.960   8.029  0.2575  0.3208  1.2400
   48MOL0     H 6422   8.576   1.083   8.125 -0.7767 -0.3777  0.2741
   48MOL0     H 6423   8.515   1.060   7.834 -0.9967  0.7429  0.9231
   48MOL0     H 6424   8.399   1.033   7.970 -1.4355  0.8296 -2.0456
   48MOL0     H 6425   8.445   1.284   8.010 -1.3461  1.1160 -0.4009
   48MOL0     H 6426   8.499   1.270   7.835  1.6556  3.3361  2.5512
   48MOL0     H 6427   8.235   1.147   7.869 -0.3987  0.8021  1.1346
   48MOL0     H 6428   8.319   1.241   7.743 -0.7788 -0.5409  0.2201
   48MOL0     H 6429   8.231   1.368   8.016  3.2340 -0.2498  0.1201
   48MOL0     H 6430   8.303   1.448   7.886 -0.2736  0.2152  0.3011
   48MOL0     H 6431   8.137   1.442   7.624  4.2162 -0.2829  2.7738
   48MOL0     H 6432   7.884   1.454   7.506 -0.3209  2.8079  1.0737
   48MOL0     H 6433   7.813   1.315   7.583 -3.4601 -0.3885 -0.9889
   48MOL0     H 6434   7.621   1.439   7.558  0.2790  1.8751 -0.9307
   48MOL0     H 6435   7.671   1.474   7.718  3.3038 -4.7816 -0.5502
   48MOL0     H 6436   7.733   1.674   7.493 -0.8005 -1.8136 -0.4543
   48MOL0     H 6437   7.780   1.686   7.673  0.1416 -1.1795  1.0949
   48MOL0     H 6438   7.576   1.814   7.626 -2.7556  1.4301 -0.5328
   48MOL0     H 6439   7.527   1.655   7.713  3.0844 -0.4414  1.2367
   48MOL0     H 6440   7.314   1.625   7.370  1.5641 -0.2791  1.0839
   48MOL0     H 6441   7.068   1.705   7.344 -0.0559 -1.8109  0.9089
   48MOL0     H 6442   6.825   2.014   7.287  0.5577 -1.9300 -0.7234
   48MOL0     H 6443   6.590   2.112   7.231 -1.0855 -1.4177 -1.2448
   48MOL0     H 6444   6.386   2.201   7.338 -0.3432 -1.3479  1.2802
   48MOL0     H 6445   6.361   2.149   7.166  2.6814  2.5824  1.6814
   48MOL0     H 6446   6.134   2.095   7.219 -2.2024  0.2508 -0.6061
   48MOL0     H 6447   6.137   2.134   7.383 -1.4225  1.4354  0.6683
   48MOL0     H 6448   6.190   2.360   7.361 -0.2733  0.5199 -0.4324
   48MOL0     H 6449   6.238   2.347   7.189  1.9711  0.1431  0.9481
   48MOL0     H 6450   6.046   2.313   7.110  1.4223 -2.0184  0.4945
   48MOL0     H 6451   6.015   2.446   7.220  0.3432 -0.0283 -1.1289
   48MOL0     H 6452   5.925   2.304   7.398  1.8757  0.3781 -0.3443
   48MOL0     H 6453   5.910   2.169   7.287 -1.0028 -0.6403  2.3475
   48MOL0     H 6454   5.697   2.339   7.323 -1.3657 -5.1536  0.2777
   48MOL0     H 6455   5.802   2.443   7.223 -1.1234 -0.1470 -1.1483
   48MOL0     H 6456   5.715   2.164   7.164  0.6255  0.4695  0.5502
   48MOL0     H 6457   5.784   2.254   7.042 -1.4448 -1.6780 -0.4967
   48MOL0     H 6458   5.615   2.428   7.055 -0.1204 -0.0018 -0.2774
   48MOL0     H 6459   5.549   2.275   6.998  0.1269  0.4412  0.6523
   48MOL0     H 6460   6.418   1.818   7.482 -0.6144  0.6293 -1.7951
   48MOL0     H 6461   6.656   1.699   7.512  2.1101 -0.2134  0.3707
   48MOL0     H 6462   7.141   1.914   7.723 -1.5848 -1.5199  1.1445
   48MOL0     H 6463   7.380   1.861   7.709  1.4014  0.5669  0.1818
   48MOL0     H 6464   8.920   1.117   7.471  0.2285 -0.8344 -1.2501
   48MOL0     H 6465   9.116   1.236   7.395 -4.0079 -1.4781 -1.0175
   48MOL0     H 6466   9.578   1.086   7.472  0.3078  1.7659  5.8068
   48MOL0     H 6467   9.799   1.088   7.365 -2.7524 -1.3427 -3.4979
   48MOL0     H 6468  10.131   1.372   7.271  1.4482  4.1900 -1.7748
   48MOL0     H 6469  10.039   1.471   7.379  0.7264 -2.0453  1.9100
   48MOL0     H 6470  10.035   1.537   7.122  0.7111 -0.3201 -0.4318
   48MOL0     H 6471   9.882   1.518   7.199  1.6187  1.0606  2.0928
   48MOL0     H 6472   9.872   1.426   6.983  0.6808 -1.0036  0.0123
   48MOL0     H 6473   9.864   1.292   7.112  0.2674  1.1635  1.4257
   48MOL0     H 6474  10.130   1.328   7.027 -0.3350 -0.4643  0.8936
   48MOL0     H 6475  10.038   1.183   7.000  0.5267  0.0704  3.1500
   48MOL0     H 6476  10.111   1.413   6.637 -1.0316 -1.9503 -1.2315
   48MOL0     H 6477   9.812   1.522   7.410  0.4309  1.0667 -1.0630
   48MOL0     H 6478   9.514   1.588   7.575 -1.5649  0.5755 -1.0328
   48MOL0     H 6479   9.642   1.643   7.469  1.0294 -1.0894  0.8400
   48MOL0     H 6480   9.485   1.597   7.403  1.6686  0.9590 -0.7127
   49MOL0     O 6481   4.267   8.505   8.380 -0.5940 -0.0256 -0.5987
   49MOL0     C 6482   4.373   8.443   8.361 -0.5721  0.0783  0.7808
   49MOL0     O 6483   4.404   8.315   8.413 -0.5365  0.4402 -0.2527
   49MOL0     C 6484   4.303   8.254   8.481 -0.5424  0.8924  0.1516
   49MOL0     C 6485   4.307   8.254   8.620  0.8689  0.2118 -0.5017
   49MOL0     C 6486   4.219   8.170   8.702 -0.8660  0.2278  0.3253
   49MOL0     C 6487   4.147   8.070   8.636  0.5366 -1.0919 -0.2612
   49MOL0     O 6488   4.071   7.982   8.709 -0.2358  0.4327  0.2102
   49MOL0     C 6489   4.016   8.000   8.836  0.1803  0.3242 -0.7164
   49MOL0     C 6490   3.860   7.974   8.843 -1.0774 -0.5168  0.3344
   49MOL0     C 6491   3.784   8.064   8.743 -0.2881  0.8648  0.3228
   49MOL0     C 6492   3.677   8.140   8.817 -1.1125 -0.1768 -0.3045
   49MOL0     C 6493   3.581   8.214   8.724 -0.0120  0.3888 -0.3692
   49MOL0     C 6494   3.490   8.320   8.797 -0.3713 -0.1663 -0.2198
   49MOL0     C 6495   3.401   8.400   8.710  0.0026 -0.2711 -0.3335
   49MOL0     C 6496   3.482   8.497   8.630 -0.6688 -0.6462 -0.0347
   49MOL0     N 6497   3.392   8.599   8.572 -0.6904  0.1481  0.1099
   49MOL0     C 6498   3.366   8.607   8.437 -0.1401 -0.2386  0.1047
   49MOL0     C 6499   3.302   8.725   8.417  0.0823  0.2746 -0.1120
   49MOL0     C 6500   3.270   8.791   8.289  0.0642 -0.9619  0.1298
   49MOL0     C 6501   3.364   8.914   8.247  0.3344  0.4764  0.0054
   49MOL0     C 6502   3.516   8.866   8.259  0.3243 -0.0429 -0.0615
   49MOL0     C 6503   3.615   8.923   8.152 -0.2200  0.0825 -0.5402
   49MOL0     O 6504   3.739   8.855   8.160 -0.2810  0.6640 -0.5663
   49MOL0     C 6505   3.835   8.890   8.261 -0.2980  1.0267 -0.7133
   49MOL0     C 6506   3.952   8.809   8.285 -0.7430 -0.1595 -0.6839
   49MOL0     C 6507   4.035   8.818   8.393 -0.2051  0.4565 -0.0237
   49MOL0     C 6508   4.019   8.918   8.483 -0.0830  0.6028  1.0151
   49MOL0     C 6509   4.100   8.925   8.609 -0.1042 -0.6554 -0.4808
   49MOL0     O 6510   4.074   9.034   8.679 -0.7178 -0.3222 -0.5906
   49MOL0     C 6511   4.109   9.024   8.812 -0.4236 -0.4997  0.0603
   49MOL0     C 6512   4.170   9.132   8.865  0.5341 -0.0166 -0.7881
   49MOL0     C 6513   4.215   9.132   8.998 -0.4045 -0.4481 -0.1343
   49MOL0     C 6514   4.186   9.034   9.098  0.5976 -0.5074  0.4274
   49MOL0     O 6515   4.214   9.040   9.235 -0.6095 -0.4654 -0.1334
   49MOL0     C 6516   4.279   9.157   9.284 -0.9405 -0.2162 -0.1371
   49MOL0     C 6517   4.277   9.145   9.441  0.7693  0.7311 -0.5122
   49MOL0     C 6518   4.387   9.222   9.508  0.2065  0.2909 -0.3964
   49MOL0     C 6519   4.529   9.175   9.485  0.2465  0.4035 -0.1211
   49MOL0     C 6520   4.635   9.241   9.582  0.9768 -0.7879 -0.2753
   49MOL0     C 6521   4.654   9.390   9.551  0.2519 -0.3823  0.4205
   49MOL0     C 6522   4.765   9.454   9.623 -0.1234  0.3895 -0.2053
   49MOL0     C 6523   4.807   9.600   9.577 -0.0351 -0.5118  0.5518
   49MOL0    Cl 6524   4.884   9.580   9.411  0.0191  0.0659 -0.0350
   49MOL0     C 6525   4.115   8.922   9.043 -0.7623 -1.1548  0.3389
   49MOL0     C 6526   4.071   8.920   8.907 -0.0971 -0.2431  0.0917
   49MOL0     O 6527   4.173   8.833   8.643  0.5518  0.1640  0.6833
   49MOL0     C 6528   3.933   9.015   8.450 -0.3637  0.7504 -0.0619
   49MOL0     C 6529   3.833   9.001   8.348  0.3232  0.0811 -0.2160
   49MOL0     N 6530   3.297   8.786   8.546  0.2638 -0.1310 -0.1217
   49MOL0     N 6531   3.356   8.715   8.630 -0.7986 -0.7903  0.1046
   49MOL0     C 6532   4.160   8.051   8.498 -0.0949  0.7050 -0.0876
   49MOL0     C 6533   4.230   8.147   8.421 -0.2466  0.5733 -0.0657
   49MOL0     C 6534   4.475   8.506   8.277 -0.1348 -0.0953 -0.0721
   49MOL0     C 6535   4.604   8.468   8.288 -0.2429  0.1075 -0.3744
   49MOL0     C 6536   4.707   8.519   8.206 -0.3152  0.7085 -1.1572
   49MOL0     C 6537   4.671   8.609   8.108 -0.7771 -0.1245 -0.0463
   49MOL0     O 6538   4.762   8.655   8.014 -0.1920  0.5573 -0.3331
   49MOL0     C 6539   4.899   8.610   8.008 -0.3649 -0.8707  0.7043
   49MOL0     C 6540   4.967   8.645   7.874 -1.2106 -0.0047  0.1444
   49MOL0     C 6541   4.955   8.797   7.847 -0.6380 -0.1868  0.6922
   49MOL0     C 6542   5.030   8.833   7.710 -0.4754  0.0054  0.1591
   49MOL0     C 6543   4.993   8.963   7.651 -0.5227  0.1673  0.1878
   49MOL0     C 6544   4.983   9.074   7.606 -0.1092 -0.1835 -0.5615
   49MOL0     C 6545   4.538   8.657   8.096  0.1765 -0.6414 -0.4483
   49MOL0     C 6546   4.441   8.606   8.180  0.0897  0.7051 -0.9117
   49MOL0     C 6547   4.302   8.670   8.168 -0.5292  0.4169  0.7229
   49MOL0     H 6548   4.384   8.303   8.679  1.8092 -0.5900 -1.0318
   49MOL0     H 6549   4.211   8.186   8.809 -0.4340  0.0866  0.3815
   49MOL0     H 6550   4.060   7.930   8.907  1.0166 -0.5673 -2.0616
   49MOL0     H 6551   4.045   8.094   8.885  0.3533  0.7239 -1.5669
   49MOL0     H 6552   3.830   7.974   8.948 -0.3807 -0.6288  0.5372
   49MOL0     H 6553   3.857   7.868   8.817  0.2680  0.0950 -2.7576
   49MOL0     H 6554   3.732   8.002   8.669 -0.6262  1.6082 -0.0741
   49MOL0     H 6555   3.855   8.129   8.692 -2.1485  1.0550 -2.2074
   49MOL0     H 6556   3.619   8.065   8.872 -1.4135 -0.4027 -0.9213
   49MOL0     H 6557   3.730   8.219   8.871 -4.2330  1.8574 -0.0262
   49MOL0     H 6558   3.626   8.259   8.635 -0.8514 -2.1893 -2.2423
   49MOL0     H 6559   3.519   8.137   8.677 -1.2658  0.8556  0.4609
   49MOL0     H 6560   3.425   8.270   8.869  0.8476  0.4617  1.3750
   49MOL0     H 6561   3.555   8.390   8.850  0.7870 -2.3508  1.4044
   49MOL0     H 6562   3.326   8.455   8.767 -1.8743 -0.3108 -2.6264
   49MOL0     H 6563   3.345   8.338   8.640  0.6886  1.2994 -2.3899
   49MOL0     H 6564   3.554   8.556   8.687 -0.2269  0.6384 -1.8505
   49MOL0     H 6565   3.529   8.437   8.552  0.3047 -0.9045  0.7326
   49MOL0     H 6566   3.404   8.548   8.355  0.9917  1.4003 -0.6158
   49MOL0     H 6567   3.281   8.731   8.198  2.9190  0.8628 -0.8565
   49MOL0     H 6568   3.171   8.837   8.293 -1.1197 -3.0461 -2.3043
   49MOL0     H 6569   3.333   8.946   8.147 -2.4117 -2.4584 -0.2478
   49MOL0     H 6570   3.357   9.003   8.310  0.4647  0.4864  0.0050
   49MOL0     H 6571   3.521   8.757   8.251 -1.3267 -0.2446  1.2276
   49MOL0     H 6572   3.550   8.885   8.361  0.0963 -0.1620  0.0382
   49MOL0     H 6573   3.627   9.031   8.169 -0.0337 -0.3980  3.1692
   49MOL0     H 6574   3.576   8.901   8.053  0.7242  1.4917 -1.2547
   49MOL0     H 6575   3.988   8.729   8.220  1.0036 -0.0270  0.0957
   49MOL0     H 6576   4.101   8.736   8.417 -1.8227 -1.0886 -0.6417
   49MOL0     H 6577   4.196   9.217   8.803 -2.3976  0.9814 -0.7704
   49MOL0     H 6578   4.269   9.218   9.037 -0.3631 -0.4495 -0.1886
   49MOL0     H 6579   4.386   9.162   9.261 -0.9398  0.9740  0.0563
   49MOL0     H 6580   4.242   9.254   9.250  2.3030  1.8888  1.8213
   49MOL0     H 6581   4.182   9.187   9.476  1.4295  1.5671  0.3356
   49MOL0     H 6582   4.280   9.042   9.479 -1.4153  0.2282 -1.5563
   49MOL0     H 6583   4.378   9.328   9.483  1.7366  1.2255  2.6010
   49MOL0     H 6584   4.369   9.215   9.616  1.4505 -2.7686 -0.2690
   49MOL0     H 6585   4.563   9.186   9.382  2.0215  1.7611  0.5587
   49MOL0     H 6586   4.524   9.066   9.493 -1.6387  0.5928  2.9448
   49MOL0     H 6587   4.728   9.185   9.590 -0.2361 -3.2218 -1.8798
   49MOL0     H 6588   4.586   9.237   9.679 -1.2270  0.8521 -1.2307
   49MOL0     H 6589   4.668   9.412   9.445 -1.9563  2.4366  0.6126
   49MOL0     H 6590   4.558   9.439   9.565 -0.0741 -1.2954  1.5267
   49MOL0     H 6591   4.853   9.391   9.605 -0.6278 -0.3560 -0.1129
   49MOL0     H 6592   4.742   9.457   9.730  0.1586  2.4057 -0.1539
   49MOL0     H 6593   4.717   9.661   9.571 -1.8225 -3.1317 -2.0048
   49MOL0     H 6594   4.876   9.646   9.648  1.0897 -2.6706  0.9550
   49MOL0     H 6595   4.081   8.846   9.112 -3.9546  0.6698  0.9823
   49MOL0     H 6596   4.017   8.828   8.885 -1.5430 -0.3965  3.5829
   49MOL0     H 6597   3.922   9.105   8.511 -1.3018  1.0746 -0.6838
   49MOL0     H 6598   3.761   9.082   8.343  0.1538  0.0730  1.4487
   49MOL0     H 6599   4.096   7.978   8.449 -1.3118  1.2826  0.5982
   49MOL0     H 6600   4.234   8.126   8.315  1.1479  0.5744 -0.0202
   49MOL0     H 6601   4.628   8.385   8.353  4.1458  1.1311 -0.3431
   49MOL0     H 6602   4.807   8.484   8.229  1.2432  3.1220 -3.5836
   49MOL0     H 6603   4.910   8.502   8.024  1.0235 -0.8835 -0.1493
   49MOL0     H 6604   4.959   8.661   8.084  0.4488  0.1255 -0.5596
   49MOL0     H 6605   4.914   8.581   7.803 -3.7121  2.6284 -0.5579
   49MOL0     H 6606   5.074   8.632   7.892 -1.2004  1.4504  1.3167
   49MOL0     H 6607   4.992   8.862   7.926  0.9075  2.0603 -1.7184
   49MOL0     H 6608   4.850   8.825   7.835 -0.8058 -1.6316 -2.0501
   49MOL0     H 6609   5.136   8.840   7.735 -1.0159  3.3267  2.0956
   49MOL0     H 6610   5.025   8.752   7.637  0.0964  0.8399 -0.8353
   49MOL0     H 6611   4.979   9.174   7.567 -1.0583 -0.5783 -1.5297
   49MOL0     H 6612   4.520   8.741   8.029 -0.2772 -0.4644 -0.1115
   49MOL0     H 6613   4.230   8.588   8.166  2.5070 -2.4661  0.9787
   49MOL0     H 6614   4.272   8.732   8.252 -4.8640 -1.0808  0.5456
   49MOL0     H 6615   4.290   8.728   8.076  0.3763 -0.6289 -0.0864
   50MOL0     O 6616   6.253   4.904   0.382 -0.2974  0.9316  0.3731
   50MOL0     C 6617   6.256   4.811   0.305  0.5666 -0.1928 -0.0507
   50MOL0     O 6618   6.164   4.713   0.282 -0.0662  0.1349 -0.0200
   50MOL0     C 6619   6.033   4.749   0.297 -0.9640  1.0761  0.6622
   50MOL0     C 6620   5.963   4.800   0.185 -0.3471  0.1806 -0.1390
   50MOL0     C 6621   5.832   4.834   0.195  0.0122  0.1839 -0.0390
   50MOL0     C 6622   5.763   4.812   0.315  0.4390 -0.4572  0.7418
   50MOL0     O 6623   5.625   4.820   0.333 -0.3942 -1.1529 -0.2983
   50MOL0     C 6624   5.539   4.804   0.218 -0.9210  0.3217 -0.6633
   50MOL0     C 6625   5.399   4.847   0.235  0.1569 -0.7566 -1.3264
   50MOL0     C 6626   5.326   4.791   0.349 -0.5106  0.2101 -0.2823
   50MOL0     C 6627   5.175   4.810   0.356  0.0189 -0.7878  0.2583
   50MOL0     C 6628   5.126   4.748   0.480 -0.1795  0.8619 -0.1661
   50MOL0     C 6629   4.970   4.759   0.472  1.2301  0.7052  0.0036
   50MOL0     C 6630   4.915   4.651   0.375  0.7106  0.6068  0.4584
   50MOL0     C 6631   4.839   4.545   0.455 -0.2495  0.1300 -0.2193
   50MOL0     N 6632   4.772   4.446   0.363 -0.8952  0.2579 -0.3153
   50MOL0     C 6633   4.659   4.449   0.288  0.5036  0.2496 -0.3967
   50MOL0     C 6634   4.673   4.334   0.209  0.8947 -0.4310 -0.9945
   50MOL0     C 6635   4.576   4.274   0.111  0.2351 -0.1589 -0.7514
   50MOL0     C 6636   4.427   4.332   0.137  0.1539  1.2941  0.5705
   50MOL0     C 6637   4.327   4.220   0.100  0.1296 -0.1674  0.5306
   50MOL0     C 6638   4.332   4.179  -0.053  0.9959 -0.6986 -0.3826
   50MOL0     O 6639   4.311   4.297  -0.138  0.4750  0.1974 -0.2725
   50MOL0     C 6640   4.266   4.272  -0.266  0.2289 -0.0824  0.0132
   50MOL0     C 6641   4.193   4.376  -0.321  0.4437 -1.4478  0.1964
   50MOL0     C 6642   4.145   4.352  -0.452 -0.5843  0.3567  0.1266
   50MOL0     C 6643   4.174   4.242  -0.530 -0.3643  0.2892 -0.6833
   50MOL0     C 6644   4.150   4.246  -0.672 -0.6333  0.5970 -0.8666
   50MOL0     O 6645   4.238   4.183  -0.757  0.1218  0.5376 -0.3158
   50MOL0     C 6646   4.219   4.180  -0.888 -0.0591  0.5091  0.5985
   50MOL0     C 6647   4.132   4.084  -0.934  0.3896  0.5201  0.2773
   50MOL0     C 6648   4.107   4.078  -1.072  0.0884 -0.8124  0.0713
   50MOL0     C 6649   4.166   4.169  -1.167 -0.3474  0.0782  0.6393
   50MOL0     O 6650   4.137   4.163  -1.306 -0.7150  0.4843 -0.0992
   50MOL0     C 6651   4.235   4.211  -1.396 -0.8660  1.3786 -0.3233
   50MOL0     C 6652   4.202   4.150  -1.525  0.2110  0.0193  0.8294
   50MOL0     C 6653   4.325   4.104  -1.608  0.3552  0.9186  1.2116
   50MOL0     C 6654   4.396   3.994  -1.538  0.1401 -0.0095  0.7664
   50MOL0     C 6655   4.510   3.943  -1.629  0.3975  0.8551 -0.3762
   50MOL0     C 6656   4.639   4.032  -1.648  0.1742  0.4008 -0.2016
   50MOL0     C 6657   4.669   4.150  -1.559  0.0625 -0.2533 -0.8047
   50MOL0     C 6658   4.804   4.209  -1.585 -0.8528 -0.5538  0.3830
   50MOL0    Cl 6659   4.936   4.083  -1.562  0.1824  0.4586 -0.3486
   50MOL0     C 6660   4.259   4.263  -1.114  0.4181 -0.1926  0.6166
   50MOL0     C 6661   4.275   4.272  -0.974 -0.5499  0.2876 -0.7019
   50MOL0     O 6662   4.046   4.298  -0.706  0.5593 -0.2252  0.3884
   50MOL0     C 6663   4.246   4.135  -0.463  1.0687 -0.2601 -0.0839
   50MOL0     C 6664   4.287   4.151  -0.337 -0.9928 -0.3884 -0.1612
   50MOL0     N 6665   4.788   4.266   0.246 -0.0380  0.1129  0.2291
   50MOL0     N 6666   4.844   4.334   0.336 -0.4188  0.1784 -1.1197
   50MOL0     C 6667   5.827   4.768   0.427 -0.5152 -0.1210 -0.3660
   50MOL0     C 6668   5.966   4.728   0.410  0.8835  0.0967  0.0864
   50MOL0     C 6669   6.388   4.793   0.245 -0.1037 -0.0505  0.2047
   50MOL0     C 6670   6.408   4.677   0.160  0.0113 -0.2715 -0.6158
   50MOL0     C 6671   6.530   4.637   0.126  0.2701  0.8897  0.2993
   50MOL0     C 6672   6.642   4.713   0.153 -0.5386  0.6862 -0.0729
   50MOL0     O 6673   6.769   4.665   0.125 -1.1264 -0.2949  0.3610
   50MOL0     C 6674   6.865   4.755   0.065 -1.4690  0.2091 -1.0420
   50MOL0     C 6675   7.000   4.682   0.048  0.0003 -1.2700  0.4284
   50MOL0     C 6676   7.107   4.788   0.002 -0.2402 -0.6791  0.2846
   50MOL0     C 6677   7.238   4.716  -0.047  0.8892  0.4807 -0.2588
   50MOL0     C 6678   7.323   4.815  -0.104  0.4245 -0.1951 -0.4284
   50MOL0     C 6679   7.422   4.884  -0.126 -0.0341  0.2158 -1.7155
   50MOL0     C 6680   6.624   4.850   0.207 -0.5163 -0.6882  0.6674
   50MOL0     C 6681   6.497   4.890   0.252  0.3113 -0.1830  0.4478
   50MOL0     C 6682   6.508   5.029   0.315  0.6742 -0.7226  0.2993
   50MOL0     H 6683   6.020   4.815   0.094 -1.3732 -0.2753 -0.8784
   50MOL0     H 6684   5.776   4.878   0.114 -2.4241 -1.7949  0.4695
   50MOL0     H 6685   5.577   4.868   0.138 -0.4777  0.6101 -0.2246
   50MOL0     H 6686   5.542   4.702   0.178 -0.0492 -0.9800  2.3989
   50MOL0     H 6687   5.336   4.822   0.150  0.0440  1.0667 -1.7991
   50MOL0     H 6688   5.400   4.955   0.250  1.8268 -0.9850  0.8687
   50MOL0     H 6689   5.374   4.829   0.439  1.3309  2.4339 -2.0800
   50MOL0     H 6690   5.344   4.683   0.349  1.4088  0.4898 -1.1438
   50MOL0     H 6691   5.157   4.917   0.367  3.5863  0.3899 -3.0027
   50MOL0     H 6692   5.119   4.776   0.267 -0.4008 -0.6058  0.4513
   50MOL0     H 6693   5.156   4.645   0.497 -1.4275  0.3870 -0.7654
   50MOL0     H 6694   5.148   4.799   0.575 -1.8441 -2.2772  2.1002
   50MOL0     H 6695   4.936   4.748   0.575 -0.4562 -0.9050 -0.6850
   50MOL0     H 6696   4.950   4.862   0.440  1.7681  1.1615  1.0642
   50MOL0     H 6697   4.987   4.595   0.315  0.7735  1.7180 -0.5316
   50MOL0     H 6698   4.854   4.702   0.300  0.7405 -0.9973 -0.7049
   50MOL0     H 6699   4.904   4.497   0.528  1.1433 -0.7123 -1.9434
   50MOL0     H 6700   4.756   4.589   0.512 -0.2834  2.4235 -1.9210
   50MOL0     H 6701   4.577   4.519   0.291  0.4795  0.2200 -0.3612
   50MOL0     H 6702   4.610   4.295   0.009 -1.0170 -2.0449 -1.6261
   50MOL0     H 6703   4.573   4.168   0.136 -3.8741  0.2147  1.1858
   50MOL0     H 6704   4.412   4.353   0.244 -4.3943  1.1782  0.1559
   50MOL0     H 6705   4.412   4.428   0.087 -0.3915  1.3691  0.8733
   50MOL0     H 6706   4.229   4.268   0.111  0.7994  2.1758 -2.2636
   50MOL0     H 6707   4.335   4.127   0.156  0.2448  0.8387  2.2426
   50MOL0     H 6708   4.255   4.103  -0.070  0.1656  0.1107 -0.3426
   50MOL0     H 6709   4.427   4.130  -0.077  0.7339 -1.5909  0.3137
   50MOL0     H 6710   4.161   4.464  -0.266  0.9866 -0.7293 -0.6047
   50MOL0     H 6711   4.092   4.434  -0.499 -1.4336  0.2851  0.9283
   50MOL0     H 6712   4.073   4.011  -0.880  1.2538 -1.6193 -1.5498
   50MOL0     H 6713   4.025   4.013  -1.101  0.7236 -0.6769 -2.1794
   50MOL0     H 6714   4.215   4.318  -1.405 -0.1792  1.4105 -1.6069
   50MOL0     H 6715   4.339   4.189  -1.369 -1.1436 -0.0715 -0.3655
   50MOL0     H 6716   4.140   4.061  -1.516  0.8327 -0.5081  0.0412
   50MOL0     H 6717   4.145   4.217  -1.591 -0.7901 -0.8607  0.7867
   50MOL0     H 6718   4.283   4.065  -1.701 -0.4466  0.9120  1.5675
   50MOL0     H 6719   4.389   4.188  -1.636  0.1495  1.7680  3.1452
   50MOL0     H 6720   4.320   3.915  -1.531  0.6941 -0.6647 -0.2683
   50MOL0     H 6721   4.429   4.013  -1.435 -1.6123  0.6038  1.2418
   50MOL0     H 6722   4.467   3.918  -1.726  2.4601 -4.0006 -0.3607
   50MOL0     H 6723   4.556   3.854  -1.585  2.2164  1.1833 -1.5082
   50MOL0     H 6724   4.722   3.962  -1.656 -0.9315 -1.0074  0.3774
   50MOL0     H 6725   4.625   4.074  -1.748  0.4299 -0.3430 -0.5570
   50MOL0     H 6726   4.673   4.123  -1.453  1.3871 -1.8976 -1.2477
   50MOL0     H 6727   4.585   4.220  -1.572 -0.4761 -0.7631 -0.1779
   50MOL0     H 6728   4.791   4.258  -1.682  1.3185  0.8123  0.7177
   50MOL0     H 6729   4.832   4.292  -1.520  2.6779  0.7289 -2.4101
   50MOL0     H 6730   4.307   4.334  -1.180 -0.0251  1.7208  2.2572
   50MOL0     H 6731   4.343   4.341  -0.924 -1.3656 -0.7935  2.0536
   50MOL0     H 6732   4.266   4.055  -0.534  1.8260  0.1505 -0.3461
   50MOL0     H 6733   4.345   4.068  -0.297  1.2997  1.4484  0.5327
   50MOL0     H 6734   5.778   4.748   0.522  3.6551 -1.9271  1.6531
   50MOL0     H 6735   6.021   4.695   0.498 -0.8960  0.7183  1.4820
   50MOL0     H 6736   6.327   4.608   0.138 -0.2837  0.5623 -2.2977
   50MOL0     H 6737   6.551   4.542   0.077 -1.1073  1.1907 -0.9676
   50MOL0     H 6738   6.872   4.843   0.131 -2.2382 -0.2285 -0.3597
   50MOL0     H 6739   6.842   4.785  -0.037  1.0428  0.9559 -1.4680
   50MOL0     H 6740   6.990   4.606  -0.030  2.7715 -0.4044 -0.9173
   50MOL0     H 6741   7.037   4.636   0.140  0.3684  0.3903  1.1473
   50MOL0     H 6742   7.123   4.846   0.094  1.4660  1.3236 -1.1891
   50MOL0     H 6743   7.072   4.851  -0.080  1.0585 -0.6055 -0.2326
   50MOL0     H 6744   7.284   4.669   0.040  1.6534 -0.1009 -0.9585
   50MOL0     H 6745   7.221   4.642  -0.125  3.0181  0.5648 -0.8766
   50MOL0     H 6746   7.503   4.947  -0.159  1.2718 -0.8853 -0.7096
   50MOL0     H 6747   6.706   4.920   0.209 -2.7169  2.0964  0.2310
   50MOL0     H 6748   6.548   5.104   0.245 -0.7656  1.1569  1.4073
   50MOL0     H 6749   6.413   5.073   0.345  1.7458  2.4750 -0.5732
   50MOL0     H 6750   6.576   5.028   0.400 -1.1659  1.0913  1.8945
   51MOL0     O 6751  11.382   8.860   1.056  0.0465 -0.7377  0.0684
   51MOL0     C 6752  11.331   8.747   1.068 -0.9332 -0.0746  1.2003
   51MOL0     O 6753  11.339   8.664   1.180 -0.3353 -0.6591 -0.2174
   51MOL0     C 6754  11.449   8.693   1.261 -0.0858 -0.3218 -0.6593
   51MOL0     C 6755  11.434   8.793   1.365 -0.0419 -0.3469  0.1649
   51MOL0     C 6756  11.540   8.817   1.452 -0.9424  0.1987  0.4127
   51MOL0     C 6757  11.667   8.744   1.439  0.2008  0.6656 -0.2178
   51MOL0     O 6758  11.773   8.756   1.530  0.7513 -0.1983 -0.1523
   51MOL0     C 6759  11.751   8.837   1.644 -0.5901  0.6910 -0.4280
   51MOL0     C 6760  11.866   8.849   1.731  0.0648 -0.0965 -0.4119
   51MOL0     C 6761  11.886   8.734   1.837 -0.7447 -0.1237 -0.3555
   51MOL0     C 6762  12.008   8.743   1.925  0.7117 -0.8891 -0.4491
   51MOL0     C 6763  12.004   8.638   2.044 -0.2455 -0.3183  1.7685
   51MOL0     C 6764  12.146   8.610   2.102  0.3391 -0.7103 -0.5924
   51MOL0     C 6765  12.228   8.735   2.119  0.1314 -0.7048  0.1248
   51MOL0     C 6766  12.161   8.830   2.224  0.4787 -0.6357 -0.1751
   51MOL0     N 6767  12.241   8.947   2.265  0.0261 -0.0032 -0.0756
   51MOL0     C 6768  12.376   8.966   2.273  0.1045  0.5752  1.0275
   51MOL0     C 6769  12.400   9.104   2.291 -0.4175  0.3946  0.1327
   51MOL0     C 6770  12.527   9.184   2.309 -0.1208 -0.1636  0.1596
   51MOL0     C 6771  12.512   9.264   2.427  0.1289 -0.2170 -0.5484
   51MOL0     C 6772  12.627   9.368   2.457 -0.5152  0.7852 -0.2732
   51MOL0     C 6773  12.567   9.458   2.568 -0.0690 -0.7575  1.0064
   51MOL0     O 6774  12.672   9.543   2.627  0.3315  0.7724  0.0269
   51MOL0     C 6775  12.659   9.675   2.612 -1.3907 -0.3299 -0.3828
   51MOL0     C 6776  12.583   9.746   2.710  0.2770 -0.4980  0.8618
   51MOL0     C 6777  12.558   9.880   2.699 -0.2860  0.6932  0.0199
   51MOL0     C 6778  12.626   9.957   2.605 -0.1368  0.5330  0.3859
   51MOL0     C 6779  12.590  10.096   2.587  0.6180 -0.5817 -0.1896
   51MOL0     O 6780  12.490  10.149   2.664  0.7251 -0.1526 -0.0223
   51MOL0     C 6781  12.465  10.283   2.658 -0.5445 -0.4370 -0.6580
   51MOL0     C 6782  12.359  10.337   2.586  0.5944  0.3267  0.3225
   51MOL0     C 6783  12.328  10.482   2.590 -0.4938  0.7100 -0.4693
   51MOL0     C 6784  12.407  10.562   2.671  0.8917 -0.0991 -0.8000
   51MOL0     O 6785  12.378  10.692   2.702  0.0921  0.5922 -0.7696
   51MOL0     C 6786  12.345  10.783   2.589  0.6859 -0.6339 -0.0364
   51MOL0     C 6787  12.194  10.816   2.597  0.9286  0.2864  0.3873
   51MOL0     C 6788  12.159  10.897   2.472  0.5711  0.9364  0.6042
   51MOL0     C 6789  12.105  10.808   2.356  0.3148  0.3929  0.2706
   51MOL0     C 6790  12.057  10.894   2.242  0.3036 -0.3793 -0.7598
   51MOL0     C 6791  11.989  10.802   2.143  0.4070  0.2280  0.6274
   51MOL0     C 6792  12.002  10.854   2.001 -0.1703  0.0191  0.1851
   51MOL0     C 6793  11.891  10.812   1.908 -0.0708  0.7352 -0.0961
   51MOL0    Cl 6794  11.922  10.643   1.860  0.2066 -0.1843  0.2925
   51MOL0     C 6795  12.520  10.503   2.730 -0.2549 -0.1208  0.1235
   51MOL0     C 6796  12.541  10.370   2.734  0.4514  0.3478  0.1841
   51MOL0     O 6797  12.659  10.165   2.511  0.3740 -0.1598 -0.3790
   51MOL0     C 6798  12.716   9.891   2.515  0.0884 -0.2498 -0.0587
   51MOL0     C 6799  12.732   9.751   2.518  0.6471  0.0941  0.1914
   51MOL0     N 6800  12.273   9.159   2.294 -0.9384 -0.4958 -0.8772
   51MOL0     N 6801  12.185   9.073   2.264  0.0739  0.1181  0.2567
   51MOL0     C 6802  11.672   8.645   1.348 -0.7740  0.9891  0.0058
   51MOL0     C 6803  11.566   8.621   1.257 -0.8427  0.6401 -0.0569
   51MOL0     C 6804  11.261   8.687   0.947  0.8939  0.9489  0.9261
   51MOL0     C 6805  11.279   8.756   0.824 -0.1765 -0.7163  0.0162
   51MOL0     C 6806  11.215   8.715   0.701  0.1277  0.3715  0.2008
   51MOL0     C 6807  11.122   8.605   0.704  0.3547 -0.2991 -0.3415
   51MOL0     O 6808  11.043   8.559   0.600  0.0452  0.1779 -0.1154
   51MOL0     C 6809  11.005   8.651   0.498 -0.8446 -0.4984  0.4064
   51MOL0     C 6810  10.904   8.589   0.405  0.4649 -0.3280  0.5659
   51MOL0     C 6811  10.764   8.568   0.471 -0.1215 -0.3881  0.8709
   51MOL0     C 6812  10.658   8.574   0.369  0.2276  0.2193  0.1428
   51MOL0     C 6813  10.688   8.470   0.273 -1.1122  0.0720  0.2266
   51MOL0     C 6814  10.705   8.379   0.187  0.4953  0.1114 -1.5338
   51MOL0     C 6815  11.107   8.536   0.827  0.1547 -0.0047  0.7408
   51MOL0     C 6816  11.175   8.569   0.947  0.5348 -1.0566 -0.2343
   51MOL0     C 6817  11.147   8.484   1.070 -0.5381 -0.3055 -0.9513
   51MOL0     H 6818  11.334   8.831   1.385 -0.0159  0.4146 -1.0649
   51MOL0     H 6819  11.523   8.894   1.526 -1.1531  1.1988 -0.6495
   51MOL0     H 6820  11.724   8.942   1.627  1.2279  1.7915  2.7736
   51MOL0     H 6821  11.670   8.794   1.704 -0.0593  1.2115  0.6919
   51MOL0     H 6822  11.853   8.943   1.785 -2.1315  0.1861 -1.3534
   51MOL0     H 6823  11.960   8.852   1.673  1.1997 -2.0442  1.1977
   51MOL0     H 6824  11.888   8.646   1.773  0.8879 -0.5632  0.2484
   51MOL0     H 6825  11.803   8.756   1.905  0.3741  1.6035  0.5328
   51MOL0     H 6826  12.095   8.724   1.862  2.1454  3.6262 -0.2079
   51MOL0     H 6827  12.011   8.846   1.963 -1.5022 -2.0151  3.3001
   51MOL0     H 6828  11.941   8.674   2.126 -2.3644 -1.5423  0.7412
   51MOL0     H 6829  11.956   8.549   2.003 -2.5260  1.6963 -0.3055
   51MOL0     H 6830  12.137   8.553   2.195  0.3663  0.3389  0.0677
   51MOL0     H 6831  12.211   8.549   2.038  1.3356  0.3992 -0.6846
   51MOL0     H 6832  12.256   8.789   2.027  2.8869 -3.2122 -0.6465
   51MOL0     H 6833  12.323   8.712   2.167  0.4124 -1.3789 -0.7330
   51MOL0     H 6834  12.070   8.871   2.179  1.4531  1.2012 -0.5397
   51MOL0     H 6835  12.128   8.763   2.304 -2.7920 -2.7939 -3.0351
   51MOL0     H 6836  12.461   8.899   2.264  0.7498  1.4659  0.0709
   51MOL0     H 6837  12.612   9.116   2.324 -0.3044  0.2519  4.1071
   51MOL0     H 6838  12.551   9.242   2.219  3.1807  0.3294  1.2310
   51MOL0     H 6839  12.421   9.325   2.429 -0.8863 -1.7107  0.3122
   51MOL0     H 6840  12.509   9.203   2.518  2.6506  3.1197  2.0449
   51MOL0     H 6841  12.668   9.429   2.375  3.5244  2.6891  2.7864
   51MOL0     H 6842  12.721   9.331   2.498  0.3581  3.5429  0.4640
   51MOL0     H 6843  12.521   9.396   2.646 -1.9261  2.0215  2.3064
   51MOL0     H 6844  12.489   9.528   2.537  0.8596  0.2498  0.8844
   51MOL0     H 6845  12.540   9.684   2.787 -2.5233 -3.1255 -2.4870
   51MOL0     H 6846  12.500   9.928   2.777 -2.1796  1.3866 -1.7293
   51MOL0     H 6847  12.295  10.268   2.531  2.3256 -1.3918  0.3647
   51MOL0     H 6848  12.242  10.515   2.534 -1.3356 -2.1213 -0.9858
   51MOL0     H 6849  12.406  10.874   2.596  1.4810 -1.2154  0.8081
   51MOL0     H 6850  12.359  10.737   2.491  0.7139 -1.5272  0.3849
   51MOL0     H 6851  12.118  10.738   2.605 -0.6573  1.9310  2.1093
   51MOL0     H 6852  12.172  10.887   2.677 -2.2763  1.5384 -1.3885
   51MOL0     H 6853  12.074  10.961   2.496 -1.2869 -1.0882 -0.1822
   51MOL0     H 6854  12.239  10.966   2.444 -0.3887  1.2872 -1.5149
   51MOL0     H 6855  12.026  10.734   2.376 -1.0141  1.3946 -1.0708
   51MOL0     H 6856  12.195  10.751   2.333  1.3719 -0.1172  4.7298
   51MOL0     H 6857  12.140  10.953   2.203 -2.2368  2.7446 -1.9301
   51MOL0     H 6858  11.980  10.969   2.264  0.2344 -0.2260 -1.5137
   51MOL0     H 6859  12.031  10.702   2.129 -1.1318 -0.4409  0.5891
   51MOL0     H 6860  11.883  10.809   2.168  0.8268 -1.2500  3.1332
   51MOL0     H 6861  12.098  10.820   1.961 -0.3613 -2.4618  1.6313
   51MOL0     H 6862  12.001  10.963   2.002 -3.0560  0.0719  0.2391
   51MOL0     H 6863  11.794  10.827   1.958 -0.2027  0.6804 -0.3364
   51MOL0     H 6864  11.885  10.876   1.820 -4.0585  2.0727  0.9248
   51MOL0     H 6865  12.583  10.546   2.808 -1.8513  2.6558  0.0337
   51MOL0     H 6866  12.626  10.335   2.791  1.0508 -1.6315 -1.7453
   51MOL0     H 6867  12.767   9.953   2.442 -0.3082  0.4849  0.2823
   51MOL0     H 6868  12.792   9.707   2.439 -1.3223  1.9668 -2.5454
   51MOL0     H 6869  11.755   8.576   1.366 -0.3505  1.3925 -0.3909
   51MOL0     H 6870  11.586   8.546   1.182  3.7444 -1.0222  2.4242
   51MOL0     H 6871  11.352   8.836   0.818 -0.1213 -0.6502  1.3333
   51MOL0     H 6872  11.231   8.759   0.603  0.5637  0.8996  0.5080
   51MOL0     H 6873  11.096   8.683   0.448 -1.5165  1.4710  0.3662
   51MOL0     H 6874  10.962   8.736   0.553  0.4905  1.6147 -1.6350
   51MOL0     H 6875  10.951   8.497   0.370  2.6652 -0.1443  2.7328
   51MOL0     H 6876  10.892   8.657   0.321  3.3318  1.9917  1.8686
   51MOL0     H 6877  10.742   8.641   0.550 -1.9936  0.3594 -0.2891
   51MOL0     H 6878  10.767   8.466   0.512 -1.9393 -0.7758  0.1044
   51MOL0     H 6879  10.562   8.559   0.418  0.6962  2.5586  1.9866
   51MOL0     H 6880  10.656   8.677   0.332  0.3198  0.6272  1.2289
   51MOL0     H 6881  10.706   8.298   0.117 -0.6683  0.6357 -2.1775
   51MOL0     H 6882  11.050   8.444   0.825 -0.0181  0.1028  0.7051
   51MOL0     H 6883  11.142   8.530   1.169 -4.3226 -1.2227 -0.5292
   51MOL0     H 6884  11.052   8.430   1.063 -0.6805 -1.0357  3.5512
   51MOL0     H 6885  11.225   8.409   1.081 -0.4989 -0.3476 -1.5211
   52MOL0     O 6886   9.712  11.308  10.482  0.4125  0.0795  0.0317
   52MOL0     C 6887   9.587  11.321  10.465  0.2719 -0.9814  0.5565
   52MOL0     O 6888   9.506  11.389  10.554 -0.2214  0.1765 -0.0731
   52MOL0     C 6889   9.569  11.457  10.650 -0.4365 -0.3789  0.0512
   52MOL0     C 6890   9.663  11.401  10.742  0.8625 -0.6115  0.2499
   52MOL0     C 6891   9.708  11.488  10.848  0.2067  0.2321  0.2253
   52MOL0     C 6892   9.659  11.620  10.862 -1.2661 -0.6418  0.0782
   52MOL0     O 6893   9.701  11.702  10.966 -0.0382 -0.3952  0.0057
   52MOL0     C 6894   9.763  11.830  10.916 -0.1333 -0.5980 -0.3740
   52MOL0     C 6895   9.810  11.910  11.030  0.9684  0.3857  0.8973
   52MOL0     C 6896   9.853  12.055  10.977 -0.5029  0.5117 -0.2942
   52MOL0     C 6897   9.988  12.054  10.896 -0.1006  0.2912 -0.0661
   52MOL0     C 6898  10.036  12.188  10.841  0.3785  0.0019 -0.1673
   52MOL0     C 6899  10.015  12.180  10.687 -0.5185 -0.6548 -0.0886
   52MOL0     C 6900  10.018  12.324  10.633  0.3991 -0.5279  0.4291
   52MOL0     C 6901  10.150  12.395  10.652 -0.2921 -0.1744  0.5858
   52MOL0     N 6902  10.257  12.336  10.576 -0.5448  0.0661 -0.3646
   52MOL0     C 6903  10.367  12.272  10.616 -0.8007  0.0772 -0.2977
   52MOL0     C 6904  10.443  12.253  10.509 -0.8956 -0.5327  0.2800
   52MOL0     C 6905  10.556  12.161  10.502  1.1376 -0.3347 -0.1921
   52MOL0     C 6906  10.681  12.213  10.447 -0.5936 -0.4479 -0.7769
   52MOL0     C 6907  10.753  12.307  10.543 -0.4081  0.4359 -0.7735
   52MOL0     C 6908  10.871  12.380  10.475 -0.0864  0.8633  0.2804
   52MOL0     O 6909  10.838  12.431  10.350 -0.3310 -0.0619 -0.6366
   52MOL0     C 6910  10.817  12.566  10.337  0.5095 -0.1278  0.7941
   52MOL0     C 6911  10.922  12.650  10.327 -0.2582  0.6057  0.5292
   52MOL0     C 6912  10.907  12.784  10.298  0.2283  0.4195  0.2117
   52MOL0     C 6913  10.780  12.840  10.280  0.5090 -1.4320 -0.1203
   52MOL0     C 6914  10.756  12.981  10.248  0.8458  0.4732 -0.2591
   52MOL0     O 6915  10.860  13.058  10.266 -0.6330 -0.4412  0.0682
   52MOL0     C 6916  10.858  13.195  10.249  0.6573  0.1021  0.2562
   52MOL0     C 6917  10.749  13.275  10.282  0.3687 -0.3703  0.3223
   52MOL0     C 6918  10.754  13.411  10.288 -0.3315  0.5281  0.3671
   52MOL0     C 6919  10.874  13.476  10.246  0.4148 -0.0517 -0.1431
   52MOL0     O 6920  10.904  13.604  10.229 -0.4141  0.3130 -0.4873
   52MOL0     C 6921  10.796  13.700  10.235 -0.6233  0.0107  0.6862
   52MOL0     C 6922  10.825  13.840  10.164 -1.0749  0.1575 -0.4027
   52MOL0     C 6923  10.969  13.853  10.125  0.6397  0.0140 -0.7312
   52MOL0     C 6924  11.039  13.908  10.250 -0.3774 -0.4106 -0.3378
   52MOL0     C 6925  11.199  13.905  10.240  1.1987 -0.3385  0.2701
   52MOL0     C 6926  11.254  13.788  10.165 -0.2567 -0.1884 -0.0764
   52MOL0     C 6927  11.410  13.791  10.174 -0.6801  1.1720  1.2673
   52MOL0     C 6928  11.453  13.651  10.126  0.8141 -0.6452  0.9227
   52MOL0    Cl 6929  11.387  13.590   9.966  0.1321 -0.1899 -0.0312
   52MOL0     C 6930  10.983  13.405  10.212  0.1805 -0.0239 -0.3953
   52MOL0     C 6931  10.977  13.260  10.209  0.6913 -0.4039  0.6370
   52MOL0     O 6932  10.645  13.015  10.196 -0.1257  0.6433  0.5368
   52MOL0     C 6933  10.668  12.757  10.302  0.0330  0.0016  0.0147
   52MOL0     C 6934  10.690  12.620  10.330 -0.7283  0.8326  0.0061
   52MOL0     N 6935  10.389  12.327  10.399  0.8967  0.6454 -0.0116
   52MOL0     N 6936  10.280  12.370  10.446  0.3418  0.7803 -0.9676
   52MOL0     C 6937   9.563  11.661  10.778  0.0660  0.6222  0.1214
   52MOL0     C 6938   9.508  11.585  10.670  0.4835  0.6304  0.0519
   52MOL0     C 6939   9.527  11.243  10.364 -0.3704 -0.5353  0.2056
   52MOL0     C 6940   9.386  11.232  10.373 -0.6619  0.7486  0.7083
   52MOL0     C 6941   9.328  11.172  10.257  0.1717  0.1550 -1.3302
   52MOL0     C 6942   9.392  11.129  10.141  0.6502  0.0905  0.1420
   52MOL0     O 6943   9.323  11.065  10.045  0.1977  0.0282 -0.7364
   52MOL0     C 6944   9.292  10.925  10.064  0.0709 -0.1967 -0.8619
   52MOL0     C 6945   9.410  10.853  10.001 -0.9690 -0.5604 -0.0579
   52MOL0     C 6946   9.436  10.903   9.856  0.2578  0.3670 -0.8284
   52MOL0     C 6947   9.420  10.780   9.767  0.2619 -0.2324  0.0812
   52MOL0     C 6948   9.282  10.725   9.757 -0.4158  0.0386 -0.9776
   52MOL0     C 6949   9.178  10.664   9.778 -0.7534 -0.0386 -0.1441
   52MOL0     C 6950   9.529  11.142  10.135  1.1618  0.1180  0.2263
   52MOL0     C 6951   9.595  11.211  10.242  1.1256  0.9509  0.4881
   52MOL0     C 6952   9.732  11.238  10.210  0.1790 -0.4183 -0.7175
   52MOL0     H 6953   9.701  11.301  10.724  1.6557 -0.3618  0.4833
   52MOL0     H 6954   9.775  11.437  10.917  0.3964  1.3458  0.8819
   52MOL0     H 6955   9.853  11.804  10.859  0.1557 -0.9103  0.2196
   52MOL0     H 6956   9.693  11.888  10.854  2.2690  2.2880 -0.5753
   52MOL0     H 6957   9.893  11.862  11.082 -1.0886 -1.1149  2.9765
   52MOL0     H 6958   9.729  11.920  11.103  0.2717  1.2184  0.0437
   52MOL0     H 6959   9.876  12.109  11.070  1.5371  0.4310 -0.6868
   52MOL0     H 6960   9.769  12.106  10.929 -1.8695  1.2165  2.6143
   52MOL0     H 6961  10.067  12.016  10.961 -0.0216 -0.0593 -0.3651
   52MOL0     H 6962   9.980  11.978  10.818  1.3286 -2.3164  2.1865
   52MOL0     H 6963   9.981  12.267  10.893 -1.3826 -1.6201  0.5781
   52MOL0     H 6964  10.141  12.193  10.869  0.2493  1.0714  0.1696
   52MOL0     H 6965  10.094  12.121  10.640  0.2867 -0.5667  1.1040
   52MOL0     H 6966   9.917  12.134  10.668 -0.2340 -0.0410 -3.5788
   52MOL0     H 6967   9.942  12.394  10.667  0.4118 -0.2272 -0.1489
   52MOL0     H 6968   9.996  12.324  10.526 -0.3304  0.7839  0.5609
   52MOL0     H 6969  10.139  12.493  10.606 -1.8320 -1.5245 -2.1805
   52MOL0     H 6970  10.182  12.413  10.755 -0.3515 -0.9126  0.7372
   52MOL0     H 6971  10.382  12.227  10.714 -0.3058 -3.2171 -1.7483
   52MOL0     H 6972  10.568  12.115  10.600 -1.2105 -2.1558 -0.6500
   52MOL0     H 6973  10.527  12.079  10.435  1.4899  1.0569 -2.1226
   52MOL0     H 6974  10.753  12.138  10.415  0.2534  0.6191 -1.4563
   52MOL0     H 6975  10.645  12.266  10.359 -2.8975  0.8695  0.8385
   52MOL0     H 6976  10.796  12.259  10.631  1.4631  0.7479 -1.4515
   52MOL0     H 6977  10.682  12.380  10.582 -0.5563 -0.0612 -0.1111
   52MOL0     H 6978  10.958  12.314  10.473 -0.0581  0.8631  1.1091
   52MOL0     H 6979  10.902  12.463  10.540 -0.5928  4.2974 -3.4907
   52MOL0     H 6980  11.025  12.613  10.331 -0.7379 -0.7343  1.1761
   52MOL0     H 6981  10.999  12.832  10.267  1.2952  0.2064  2.8339
   52MOL0     H 6982  10.659  13.225  10.316 -1.6382  0.6185 -3.1139
   52MOL0     H 6983  10.669  13.464  10.331 -1.7174 -1.7340  0.5778
   52MOL0     H 6984  10.696  13.667  10.206 -0.3241 -0.8108  0.5855
   52MOL0     H 6985  10.792  13.728  10.340  2.2994  1.1751  0.5895
   52MOL0     H 6986  10.768  13.847  10.070  3.0653  1.7280 -3.0757
   52MOL0     H 6987  10.791  13.924  10.225 -0.7651  0.2722 -0.3892
   52MOL0     H 6988  11.017  13.764  10.083  0.0419 -1.3485  1.3243
   52MOL0     H 6989  10.979  13.933  10.051 -1.2065  2.9575  1.9968
   52MOL0     H 6990  11.000  13.846  10.332  2.3097 -3.2291 -0.9715
   52MOL0     H 6991  11.004  14.011  10.245  2.1860  0.4845 -1.5376
   52MOL0     H 6992  11.237  13.923  10.341 -3.8237  5.5015  1.7337
   52MOL0     H 6993  11.222  13.991  10.177  1.0339 -1.0968 -0.8686
   52MOL0     H 6994  11.216  13.694  10.207 -0.2219 -0.2610 -0.2053
   52MOL0     H 6995  11.231  13.800  10.059  0.3248  0.8020 -0.1000
   52MOL0     H 6996  11.445  13.801  10.277  1.5073 -1.4058  0.8812
   52MOL0     H 6997  11.451  13.871  10.111 -1.0467 -0.1991 -0.8164
   52MOL0     H 6998  11.562  13.659  10.120  0.6153  1.3526 -1.7474
   52MOL0     H 6999  11.412  13.589  10.207 -1.4504  1.7694  1.7657
   52MOL0     H 7000  11.079  13.444  10.177 -1.7906  2.9387 -3.0301
   52MOL0     H 7001  11.067  13.207  10.177 -1.1703 -3.5431  0.2026
   52MOL0     H 7002  10.566  12.793  10.319  0.9075  1.6055  2.3612
   52MOL0     H 7003  10.600  12.561  10.346 -0.2809 -0.3771 -1.5575
   52MOL0     H 7004   9.531  11.763  10.798 -0.3407  0.8286 -1.4672
   52MOL0     H 7005   9.423  11.623  10.615 -0.9294 -1.0896  0.9467
   52MOL0     H 7006   9.326  11.248  10.462 -2.5008 -0.6315 -0.2295
   52MOL0     H 7007   9.220  11.162  10.260  0.0477  1.0505 -2.1981
   52MOL0     H 7008   9.196  10.908  10.015 -0.4432  2.7431 -1.0637
   52MOL0     H 7009   9.287  10.907  10.172  1.3598 -0.4631 -0.8252
   52MOL0     H 7010   9.376  10.750   9.996 -1.0003 -0.4871 -1.5584
   52MOL0     H 7011   9.500  10.863  10.062 -0.9891  0.0397 -0.1188
   52MOL0     H 7012   9.539  10.927   9.828 -0.6910  1.2994 -3.9429
   52MOL0     H 7013   9.364  10.979   9.824  0.4086  1.9101  2.1409
   52MOL0     H 7014   9.456  10.811   9.669 -0.8007  0.6536 -0.0562
   52MOL0     H 7015   9.490  10.706   9.806 -0.7122 -0.9064  0.5955
   52MOL0     H 7016   9.082  10.620   9.798 -0.2289 -0.7699  0.8044
   52MOL0     H 7017   9.580  11.089  10.055 -0.3226 -1.3571  0.2073
   52MOL0     H 7018   9.752  11.339  10.247 -2.8733 -0.1834  0.6035
   52MOL0     H 7019   9.787  11.153  10.251 -1.5256 -1.5530 -0.7091
   52MOL0     H 7020   9.734  11.248  10.101  0.0125  1.3978 -0.5879
   53MOL0     O 7021   5.630   4.621  10.896 -0.5085 -0.3818  0.3443
   53MOL0     C 7022   5.670   4.690  10.988  0.5523  0.1885  0.1211
   53MOL0     O 7023   5.734   4.630  11.104 -0.2754 -0.6515  0.4931
   53MOL0     C 7024   5.808   4.520  11.087  0.3958 -0.8013 -0.1211
   53MOL0     C 7025   5.769   4.395  11.053  0.3720  0.2202  0.8501
   53MOL0     C 7026   5.860   4.292  11.025 -0.4184  0.7451 -0.0206
   53MOL0     C 7027   5.998   4.320  11.029  0.1488  0.5349 -1.3785
   53MOL0     O 7028   6.075   4.212  10.994 -0.6492 -0.1313 -0.1807
   53MOL0     C 7029   6.216   4.234  11.001 -0.7191  0.0407 -0.8608
   53MOL0     C 7030   6.306   4.112  10.993  1.3172 -0.4241 -0.0633
   53MOL0     C 7031   6.293   4.025  11.119 -0.7196 -0.6090 -0.7645
   53MOL0     C 7032   6.271   3.887  11.077  0.2468  0.1344  0.1979
   53MOL0     C 7033   6.260   3.800  11.202  0.0675 -0.5467 -0.1352
   53MOL0     C 7034   6.126   3.811  11.274 -0.0407  0.2813 -0.6474
   53MOL0     C 7035   6.122   3.705  11.385 -0.1939 -0.6037 -0.8191
   53MOL0     C 7036   6.002   3.718  11.482  0.4509 -0.7753  0.1161
   53MOL0     N 7037   6.003   3.847  11.563 -0.6734  0.6027  0.3790
   53MOL0     C 7038   6.059   3.852  11.690  0.3269  0.1942  1.3264
   53MOL0     C 7039   5.979   3.920  11.767 -0.6235  0.2384 -0.4634
   53MOL0     C 7040   6.007   3.971  11.909  0.0438  0.0657 -0.3277
   53MOL0     C 7041   6.142   4.035  11.942 -0.2487 -0.0388 -0.4284
   53MOL0     C 7042   6.171   4.145  11.839 -0.1279 -0.2633  0.6767
   53MOL0     C 7043   6.303   4.207  11.873 -0.5791  0.3502  0.8098
   53MOL0     O 7044   6.403   4.109  11.859 -0.6818 -0.4010 -0.2524
   53MOL0     C 7045   6.517   4.142  11.789  0.6011 -0.3348 -0.6299
   53MOL0     C 7046   6.599   4.030  11.766 -1.3865  0.1607  1.4248
   53MOL0     C 7047   6.723   4.045  11.704  0.8957  0.6714 -0.0081
   53MOL0     C 7048   6.763   4.177  11.658  0.6685  0.2303 -0.5060
   53MOL0     C 7049   6.905   4.197  11.613  0.8169  0.3430  0.6236
   53MOL0     O 7050   6.917   4.303  11.528  0.3187 -0.5778 -0.2803
   53MOL0     C 7051   7.036   4.320  11.464  0.2516  0.0159  0.0689
   53MOL0     C 7052   7.051   4.288  11.330  0.0238 -0.9218 -0.8503
   53MOL0     C 7053   7.181   4.297  11.271  0.6928 -0.5792 -1.0816
   53MOL0     C 7054   7.287   4.347  11.349 -0.7101 -0.0472  0.4362
   53MOL0     O 7055   7.408   4.368  11.290  0.1417  0.2410 -1.1201
   53MOL0     C 7056   7.419   4.387  11.150 -0.3216 -0.5495  0.1293
   53MOL0     C 7057   7.570   4.418  11.128  0.3626  0.4152  0.6860
   53MOL0     C 7058   7.608   4.560  11.180  0.1072  0.7279 -0.9453
   53MOL0     C 7059   7.755   4.593  11.196 -0.2211  0.4714 -0.0807
   53MOL0     C 7060   7.780   4.731  11.257 -0.1440 -0.5981  0.7904
   53MOL0     C 7061   7.926   4.741  11.284  0.9292  0.1783  0.0180
   53MOL0     C 7062   7.975   4.665  11.412 -0.4976 -0.0557  0.0718
   53MOL0     C 7063   8.123   4.672  11.452  0.2474  0.4278 -0.1205
   53MOL0    Cl 7064   8.215   4.545  11.363  0.4678 -0.1154  0.2251
   53MOL0     C 7065   7.273   4.370  11.480 -0.0012  0.6840 -0.0959
   53MOL0     C 7066   7.147   4.360  11.546  0.2815 -0.4553  0.6014
   53MOL0     O 7067   6.987   4.112  11.633 -0.1666 -0.0008  1.0582
   53MOL0     C 7068   6.677   4.291  11.676  0.4348 -0.3700  0.1929
   53MOL0     C 7069   6.553   4.271  11.737  0.3135  1.2006  0.2007
   53MOL0     N 7070   5.882   3.977  11.689 -0.8064  0.2091  0.2094
   53MOL0     N 7071   5.890   3.925  11.570 -0.2351  0.5141 -0.0031
   53MOL0     C 7072   6.036   4.450  11.061 -0.2284 -0.6579 -0.7316
   53MOL0     C 7073   5.941   4.551  11.095 -0.3310  0.5132 -1.5971
   53MOL0     C 7074   5.635   4.832  11.001 -0.3794 -0.6561 -0.5685
   53MOL0     C 7075   5.651   4.893  11.127  0.8307 -0.4242 -0.5881
   53MOL0     C 7076   5.608   5.026  11.147  0.3544  0.8229 -0.0889
   53MOL0     C 7077   5.547   5.101  11.041  0.3091  0.6897 -0.8147
   53MOL0     O 7078   5.493   5.228  11.080  0.3068 -0.6663  0.2137
   53MOL0     C 7079   5.386   5.292  11.014  0.2458 -0.1722 -0.1331
   53MOL0     C 7080   5.246   5.261  11.083 -0.1354 -0.5340  0.5006
   53MOL0     C 7081   5.109   5.292  11.009  0.3400 -0.0150 -0.6131
   53MOL0     C 7082   5.088   5.441  10.988  0.0415  1.1193 -0.0373
   53MOL0     C 7083   4.995   5.467  10.887 -0.1328 -0.2677  0.1259
   53MOL0     C 7084   4.927   5.479  10.790 -0.1871 -0.5079 -0.6153
   53MOL0     C 7085   5.544   5.050  10.913  0.2080 -0.0087  0.4652
   53MOL0     C 7086   5.587   4.917  10.899 -0.8257 -0.2679 -0.1568
   53MOL0     C 7087   5.555   4.866  10.759 -0.0481  0.1326 -0.5327
   53MOL0     H 7088   5.664   4.379  11.036  0.8298 -0.0342 -2.3670
   53MOL0     H 7089   5.821   4.196  10.992  1.5263 -0.3746  0.7346
   53MOL0     H 7090   6.248   4.301  10.919 -1.4745 -1.1921 -2.2070
   53MOL0     H 7091   6.254   4.271  11.097  0.6829 -0.5070 -1.1708
   53MOL0     H 7092   6.411   4.144  10.985  1.7114 -1.1221  1.7594
   53MOL0     H 7093   6.284   4.052  10.904 -0.9453  0.9800 -0.5185
   53MOL0     H 7094   6.204   4.045  11.179 -0.1912  0.0611 -0.1965
   53MOL0     H 7095   6.385   4.026  11.179 -2.1314 -3.8546  1.7938
   53MOL0     H 7096   6.179   3.885  11.017 -0.4621  1.9889  1.1182
   53MOL0     H 7097   6.355   3.856  11.016  1.7653  4.7494 -0.4909
   53MOL0     H 7098   6.277   3.699  11.163  1.6110 -0.1939 -0.4479
   53MOL0     H 7099   6.339   3.829  11.271 -1.6050  1.9299  0.9037
   53MOL0     H 7100   6.085   3.907  11.308 -0.6223  0.2278 -1.1831
   53MOL0     H 7101   6.052   3.769  11.206  2.2197 -1.1020 -2.4028
   53MOL0     H 7102   6.216   3.713  11.440 -0.8448 -0.0751  0.2353
   53MOL0     H 7103   6.139   3.609  11.335  0.7959  0.7796 -3.3699
   53MOL0     H 7104   5.908   3.701  11.428  2.6766 -0.5013 -4.2654
   53MOL0     H 7105   6.016   3.631  11.547 -0.4607 -0.7724  0.3276
   53MOL0     H 7106   6.148   3.797  11.722  1.6693  1.1183 -0.6095
   53MOL0     H 7107   5.926   4.044  11.920 -1.0416 -0.6407 -2.9511
   53MOL0     H 7108   5.989   3.893  11.983  1.8826 -1.3025 -1.2614
   53MOL0     H 7109   6.126   4.090  12.035  0.3715 -1.2343  0.3910
   53MOL0     H 7110   6.213   3.952  11.937 -2.3126 -1.9974  0.7878
   53MOL0     H 7111   6.085   4.213  11.838  0.3054  0.2978 -0.6344
   53MOL0     H 7112   6.174   4.111  11.735  0.2410 -1.4979  1.0747
   53MOL0     H 7113   6.308   4.220  11.981  0.7867 -0.7551  0.9002
   53MOL0     H 7114   6.313   4.306  11.826 -0.0640  0.6731  1.5819
   53MOL0     H 7115   6.574   3.928  11.795 -0.1560  0.1132  2.4025
   53MOL0     H 7116   6.772   3.949  11.697 -3.1955 -1.7031  0.4119
   53MOL0     H 7117   6.959   4.264  11.278 -0.3850 -0.7750 -0.2006
   53MOL0     H 7118   7.188   4.262  11.168  1.8848 -2.1377 -0.5127
   53MOL0     H 7119   7.401   4.298  11.089 -0.1973  0.4084 -1.3343
   53MOL0     H 7120   7.364   4.473  11.112  0.8547  0.3342  0.3553
   53MOL0     H 7121   7.625   4.342  11.183 -0.8033  0.6453  2.2230
   53MOL0     H 7122   7.592   4.401  11.022  0.8131 -1.4749  1.0479
   53MOL0     H 7123   7.568   4.622  11.099 -1.1337 -0.0916 -0.9840
   53MOL0     H 7124   7.556   4.590  11.271  3.4244  3.6641  0.2118
   53MOL0     H 7125   7.808   4.589  11.100  0.1846  1.2910  0.1040
   53MOL0     H 7126   7.789   4.517  11.267 -3.1576 -0.6978  0.2398
   53MOL0     H 7127   7.727   4.752  11.350  0.3211  0.0025  0.9270
   53MOL0     H 7128   7.747   4.797  11.177 -0.4657 -1.7477 -0.0530
   53MOL0     H 7129   7.975   4.716  11.190 -0.3472 -0.6620 -0.4460
   53MOL0     H 7130   7.948   4.844  11.314 -1.2764  0.2535  1.6997
   53MOL0     H 7131   7.952   4.560  11.392 -0.1430 -0.2946  0.8912
   53MOL0     H 7132   7.912   4.694  11.497 -3.2454  0.6253 -2.0192
   53MOL0     H 7133   8.170   4.764  11.417  4.7775 -0.3262  3.0383
   53MOL0     H 7134   8.138   4.646  11.557  1.0737 -3.1581 -0.9945
   53MOL0     H 7135   7.354   4.401  11.545 -0.7365 -0.2170  1.2913
   53MOL0     H 7136   7.139   4.378  11.653  0.8103  1.1332  0.4010
   53MOL0     H 7137   6.700   4.391  11.641  0.1434 -0.2737  0.2657
   53MOL0     H 7138   6.490   4.358  11.749 -2.7028 -1.0528  2.1486
   53MOL0     H 7139   6.141   4.477  11.065  0.0939 -1.9807  0.2673
   53MOL0     H 7140   5.972   4.652  11.121  2.0681 -0.3505 -0.8082
   53MOL0     H 7141   5.699   4.840  11.208  1.2982 -1.1928 -1.3534
   53MOL0     H 7142   5.616   5.068  11.246  0.4979 -2.0043  1.1902
   53MOL0     H 7143   5.383   5.253  10.912 -1.6712 -1.1152  0.2547
   53MOL0     H 7144   5.408   5.399  11.009 -2.1680  0.4789  1.3762
   53MOL0     H 7145   5.236   5.318  11.175 -1.2971  0.5536 -0.2724
   53MOL0     H 7146   5.250   5.154  11.109  0.5899 -0.2387  1.6584
   53MOL0     H 7147   5.032   5.255  11.077  0.7026  1.4830  0.6575
   53MOL0     H 7148   5.114   5.233  10.916 -3.7002 -5.8360  2.2396
   53MOL0     H 7149   5.059   5.488  11.083  0.1800 -1.5707  1.4221
   53MOL0     H 7150   5.174   5.488  10.939 -0.6587  1.2214 -1.2158
   53MOL0     H 7151   4.869   5.477  10.699  3.1019 -1.1268 -2.8738
   53MOL0     H 7152   5.494   5.100  10.831  1.2706 -3.2514 -2.3811
   53MOL0     H 7153   5.505   4.934  10.690  1.5809  1.1128 -0.8105
   53MOL0     H 7154   5.649   4.859  10.704  1.5729  2.8349  1.6086
   53MOL0     H 7155   5.494   4.776  10.773 -2.8898  1.9283 -0.4884
   54MOL0     O 7156  11.101  10.175  10.224 -0.3255 -0.1832 -0.4223
   54MOL0     C 7157  11.177  10.192  10.315  0.1197  0.6679  0.3124
   54MOL0     O 7158  11.191  10.308  10.388  0.4137 -0.1850 -0.2565
   54MOL0     C 7159  11.083  10.390  10.362 -0.4260 -0.0426 -0.3806
   54MOL0     C 7160  10.974  10.382  10.443  0.6786  0.1284 -0.3561
   54MOL0     C 7161  10.862  10.468  10.412  0.0603  0.8376  0.6603
   54MOL0     C 7162  10.866  10.558  10.305  0.6363 -0.1128 -0.6182
   54MOL0     O 7163  10.754  10.618  10.270  0.1710  0.4849  0.6762
   54MOL0     C 7164  10.735  10.753  10.327 -0.5641 -0.1619 -0.0148
   54MOL0     C 7165  10.641  10.829  10.236  0.6030  0.9777 -0.5144
   54MOL0     C 7166  10.647  10.981  10.263 -0.2477  0.6148 -0.5033
   54MOL0     C 7167  10.529  11.058  10.214  0.4303  0.1443  0.9314
   54MOL0     C 7168  10.547  11.201  10.180 -0.0771 -0.6113 -0.2250
   54MOL0     C 7169  10.554  11.276  10.315 -0.4565  0.4058 -0.2292
   54MOL0     C 7170  10.559  11.430  10.326  0.5659  0.2134  0.2268
   54MOL0     C 7171  10.664  11.493  10.231  0.2757 -0.2499 -0.6391
   54MOL0     N 7172  10.642  11.645  10.227 -0.1438 -0.8571  0.1451
   54MOL0     C 7173  10.598  11.728  10.129 -0.6402  0.3961  0.1498
   54MOL0     C 7174  10.616  11.849  10.181 -0.0854 -0.8266  0.2908
   54MOL0     C 7175  10.562  11.977  10.121 -1.6457  0.2845 -0.4338
   54MOL0     C 7176  10.667  12.086  10.121 -0.3171 -0.1164  0.8319
   54MOL0     C 7177  10.773  12.063  10.013 -0.2619  0.6404  0.3053
   54MOL0     C 7178  10.920  12.053  10.059 -0.7126 -0.2464 -0.3951
   54MOL0     O 7179  10.949  11.938  10.143  0.0899  0.2722 -0.3196
   54MOL0     C 7180  11.016  11.837  10.088 -0.7926  1.0704 -0.0585
   54MOL0     C 7181  11.161  11.848  10.094  0.1654 -0.2920  1.2306
   54MOL0     C 7182  11.239  11.746  10.051  0.5721 -0.5045  0.3621
   54MOL0     C 7183  11.185  11.629   9.995 -0.1168  0.0999  0.6919
   54MOL0     C 7184  11.271  11.519   9.935  0.8989 -0.3631 -0.0393
   54MOL0     O 7185  11.210  11.416   9.881 -0.5060 -0.5950  0.4126
   54MOL0     C 7186  11.261  11.297   9.843  0.3247 -0.2230 -0.8522
   54MOL0     C 7187  11.193  11.237   9.740 -0.7360  0.1972  0.0128
   54MOL0     C 7188  11.233  11.111   9.695  0.3858  0.2619  0.4716
   54MOL0     C 7189  11.354  11.051   9.741  0.3477 -0.0004  0.3695
   54MOL0     O 7190  11.390  10.929   9.693 -0.2004  0.5087  0.3904
   54MOL0     C 7191  11.467  10.941   9.574 -0.5328 -0.3215 -0.2873
   54MOL0     C 7192  11.487  10.801   9.513  0.2930 -0.2252 -0.2742
   54MOL0     C 7193  11.361  10.744   9.463 -0.3379 -0.8735 -0.5158
   54MOL0     C 7194  11.318  10.815   9.327 -1.0269  0.7181  0.2328
   54MOL0     C 7195  11.196  10.762   9.256 -0.5342  0.8890  0.8339
   54MOL0     C 7196  11.064  10.764   9.348 -0.6317 -0.2958  0.3852
   54MOL0     C 7197  10.947  10.692   9.279  0.3767  0.5291  0.4448
   54MOL0     C 7198  10.820  10.777   9.269 -0.8088  0.0458  0.0228
   54MOL0    Cl 7199  10.841  10.938   9.182  0.4268 -0.3281  0.0499
   54MOL0     C 7200  11.430  11.114   9.836 -0.0319 -1.0823 -0.6806
   54MOL0     C 7201  11.383  11.237   9.884 -0.4854  0.4616 -0.3218
   54MOL0     O 7202  11.390  11.529   9.956  0.4916  0.8008 -0.2876
   54MOL0     C 7203  11.052  11.622   9.989  0.5127 -0.4388  0.4171
   54MOL0     C 7204  10.960  11.717  10.042  0.2870 -0.1082 -0.8891
   54MOL0     N 7205  10.676  11.838  10.306 -0.5046 -0.3568 -0.2040
   54MOL0     N 7206  10.690  11.715  10.329  0.3843  0.4559 -0.3344
   54MOL0     C 7207  10.987  10.572  10.236 -0.2256 -0.8509  0.2984
   54MOL0     C 7208  11.090  10.478  10.260  0.3489 -0.8996  0.7890
   54MOL0     C 7209  11.289  10.092  10.324  0.0895 -0.5781  0.3790
   54MOL0     C 7210  11.403  10.127  10.406 -0.4236  0.2878  0.6665
   54MOL0     C 7211  11.519  10.046  10.413 -0.0034 -0.2711 -0.4366
   54MOL0     C 7212  11.524   9.926  10.340 -0.7611  0.7415  0.5138
   54MOL0     O 7213  11.647   9.865  10.347  0.8309  0.4396  0.0430
   54MOL0     C 7214  11.663   9.731  10.298  0.9524 -0.8485 -0.3503
   54MOL0     C 7215  11.746   9.651  10.406  0.5801 -0.5928 -0.0971
   54MOL0     C 7216  11.698   9.664  10.550 -1.1322 -0.3122 -0.3937
   54MOL0     C 7217  11.551   9.654  10.578 -0.2970 -0.4381 -0.1657
   54MOL0     C 7218  11.509   9.516  10.540 -0.0625 -0.0107  0.3629
   54MOL0     C 7219  11.467   9.415  10.502 -0.4489  0.2368 -0.3232
   54MOL0     C 7220  11.421   9.900  10.251  0.5240  0.1083  0.4716
   54MOL0     C 7221  11.296   9.972  10.248 -0.6952  0.5465  0.9414
   54MOL0     C 7222  11.193   9.921  10.148 -0.0081 -0.1107  1.1487
   54MOL0     H 7223  10.961  10.313  10.525 -1.2120 -0.3866 -1.0243
   54MOL0     H 7224  10.764  10.462  10.459  0.0861 -0.0012  0.6162
   54MOL0     H 7225  10.685  10.745  10.424 -2.7846 -0.4853 -1.1103
   54MOL0     H 7226  10.825  10.813  10.341 -1.3775  0.8133  1.2223
   54MOL0     H 7227  10.545  10.789  10.269 -0.7550  4.5417  0.4071
   54MOL0     H 7228  10.661  10.820  10.129  1.0973 -0.7684 -0.2958
   54MOL0     H 7229  10.738  11.021  10.217  0.3126  0.0242  0.0698
   54MOL0     H 7230  10.650  11.001  10.370 -1.0916 -0.2937 -0.2965
   54MOL0     H 7231  10.527  11.015  10.113 -0.1438 -1.8869  1.7676
   54MOL0     H 7232  10.433  11.043  10.263 -0.1569  1.4747  0.2293
   54MOL0     H 7233  10.645  11.205  10.132  0.9905 -2.4746  1.6472
   54MOL0     H 7234  10.467  11.243  10.117 -0.2374  0.8664  0.9171
   54MOL0     H 7235  10.472  11.237  10.376 -0.0924 -1.4394 -0.8684
   54MOL0     H 7236  10.642  11.250  10.374  0.5897  3.3530 -0.3054
   54MOL0     H 7237  10.591  11.459  10.426  3.7234 -0.6949 -0.3916
   54MOL0     H 7238  10.459  11.467  10.304  0.1198 -1.1282 -0.1040
   54MOL0     H 7239  10.766  11.465  10.259  0.0334 -0.1800  0.3283
   54MOL0     H 7240  10.660  11.459  10.127 -1.0977  1.1306 -1.0819
   54MOL0     H 7241  10.561  11.705  10.029  1.4268  0.1364 -0.6117
   54MOL0     H 7242  10.525  11.954  10.020  0.2580 -0.9066 -0.9028
   54MOL0     H 7243  10.482  12.008  10.189 -2.1862  0.6088 -1.1933
   54MOL0     H 7244  10.618  12.183  10.106 -1.2940 -0.8829 -1.3544
   54MOL0     H 7245  10.712  12.101  10.220 -0.2296  0.2407  0.7387
   54MOL0     H 7246  10.756  12.138   9.935  1.6835  0.6903 -0.1363
   54MOL0     H 7247  10.761  11.969   9.958 -0.4223  1.4360 -1.0643
   54MOL0     H 7248  10.939  12.143  10.117  0.5444 -0.9068  0.2713
   54MOL0     H 7249  10.978  12.042   9.967  1.5685  0.0223  0.9153
   54MOL0     H 7250  11.209  11.936  10.135 -1.2785  1.8895 -1.4017
   54MOL0     H 7251  11.346  11.747  10.068  0.2561 -2.1779  3.0410
   54MOL0     H 7252  11.105  11.270   9.687  0.2099  1.9570 -0.5678
   54MOL0     H 7253  11.169  11.050   9.633  1.8774 -3.0355  1.9250
   54MOL0     H 7254  11.411  11.005   9.506 -1.4540  0.4748  1.1633
   54MOL0     H 7255  11.567  10.986   9.573 -0.8727  0.5522 -2.7511
   54MOL0     H 7256  11.557  10.808   9.429  1.4652 -0.1389  0.6736
   54MOL0     H 7257  11.546  10.738   9.580 -0.8757 -2.4182 -1.1999
   54MOL0     H 7258  11.393  10.644   9.431 -3.1874 -1.9658 -0.2928
   54MOL0     H 7259  11.281  10.734   9.537 -1.6190 -3.1978 -2.0678
   54MOL0     H 7260  11.405  10.811   9.262  1.3860  0.1425  3.2780
   54MOL0     H 7261  11.285  10.917   9.351 -0.4514  0.7928  0.7276
   54MOL0     H 7262  11.215  10.660   9.223  0.5769  1.6985 -1.1978
   54MOL0     H 7263  11.194  10.828   9.169  1.9235  2.0987  1.6021
   54MOL0     H 7264  11.083  10.710   9.441  0.2274 -2.8274 -1.1685
   54MOL0     H 7265  11.031  10.862   9.384 -0.2355 -0.0187 -0.0037
   54MOL0     H 7266  10.907  10.596   9.313  1.9508 -0.2172  0.3039
   54MOL0     H 7267  10.977  10.666   9.177 -0.2464  0.3847  0.2928
   54MOL0     H 7268  10.748  10.725   9.205 -3.0333 -1.1334  3.1879
   54MOL0     H 7269  10.774  10.808   9.364 -0.2257 -0.1066  0.3583
   54MOL0     H 7270  11.515  11.070   9.887 -2.2192 -3.5589  1.0807
   54MOL0     H 7271  11.454  11.263   9.962  0.1711 -0.7622 -0.4868
   54MOL0     H 7272  11.016  11.535   9.934  0.1571  0.4437 -0.7922
   54MOL0     H 7273  10.853  11.707  10.053  0.6187 -0.5788  3.1903
   54MOL0     H 7274  10.978  10.643  10.154  2.3276 -0.7678  0.0266
   54MOL0     H 7275  11.178  10.482  10.197  0.4289  1.8597  0.9366
   54MOL0     H 7276  11.400  10.221  10.460  0.1955  1.0966 -0.6524
   54MOL0     H 7277  11.607  10.075  10.469 -0.0079 -3.2806  1.3286
   54MOL0     H 7278  11.714   9.731  10.201 -0.0657  2.3621 -1.0259
   54MOL0     H 7279  11.570   9.681  10.271  1.3453 -2.5850  1.3038
   54MOL0     H 7280  11.851   9.684  10.408 -0.1101  1.8542  1.5724
   54MOL0     H 7281  11.746   9.546  10.377 -2.9953 -0.1694 -2.1765
   54MOL0     H 7282  11.731   9.763  10.584 -3.8239  0.9185 -1.0988
   54MOL0     H 7283  11.750   9.580  10.598 -0.1048  1.5204  1.9149
   54MOL0     H 7284  11.526   9.684  10.680 -0.0710 -0.7921 -0.0038
   54MOL0     H 7285  11.490   9.717  10.512  0.6082  2.5659  1.6376
   54MOL0     H 7286  11.433   9.318  10.472  1.1723 -0.1724 -0.9020
   54MOL0     H 7287  11.433   9.807  10.196 -0.0157  1.4960 -2.1728
   54MOL0     H 7288  11.096   9.915  10.199 -0.7477  0.4455 -0.1418
   54MOL0     H 7289  11.175   9.990  10.066  0.8408 -2.8580 -1.5558
   54MOL0     H 7290  11.214   9.828  10.093  1.5829  0.5822  0.5396
   55MOL0     O 7291   1.216   1.604   6.927 -0.2204 -0.1232  0.3207
   55MOL0     C 7292   1.281   1.669   6.853 -0.1750 -0.0462 -0.4451
   55MOL0     O 7293   1.278   1.804   6.842  0.3807  0.6748  0.1550
   55MOL0     C 7294   1.185   1.876   6.920 -1.1964 -0.3428  0.7522
   55MOL0     C 7295   1.236   1.961   7.021 -0.6776  0.9295  0.8014
   55MOL0     C 7296   1.142   2.039   7.087  0.2689 -0.5464 -0.3814
   55MOL0     C 7297   1.001   2.037   7.054 -0.3625  0.3786 -0.4965
   55MOL0     O 7298   0.919   2.131   7.120 -0.6734  0.5074 -0.4511
   55MOL0     C 7299   0.847   2.206   7.026  0.0191  0.0357 -0.1082
   55MOL0     C 7300   0.924   2.271   6.904 -0.4000  0.0554  0.0913
   55MOL0     C 7301   1.046   2.354   6.943 -0.4616 -0.3421  0.1530
   55MOL0     C 7302   1.029   2.459   7.051  0.2713 -1.0716 -1.1397
   55MOL0     C 7303   1.169   2.497   7.104  0.2505 -0.2218  0.1801
   55MOL0     C 7304   1.168   2.635   7.176 -0.8949  0.6480 -0.4647
   55MOL0     C 7305   1.310   2.670   7.240  0.3675  0.2330  0.2554
   55MOL0     C 7306   1.320   2.803   7.304 -0.7692 -0.1111 -0.7592
   55MOL0     N 7307   1.332   2.917   7.204  0.3424  0.9539  0.0015
   55MOL0     C 7308   1.415   2.932   7.102  0.1029  0.4574  0.1691
   55MOL0     C 7309   1.376   3.046   7.040  0.4100 -0.6983  0.2011
   55MOL0     C 7310   1.445   3.112   6.916 -0.0149 -0.1701 -0.0017
   55MOL0     C 7311   1.352   3.086   6.799 -0.4843 -0.3746 -0.0652
   55MOL0     C 7312   1.342   3.189   6.682  0.1903  0.2755 -0.6205
   55MOL0     C 7313   1.214   3.248   6.704  0.9267 -0.0608  0.5186
   55MOL0     O 7314   1.196   3.364   6.628 -0.4075 -0.0534 -0.2101
   55MOL0     C 7315   1.060   3.415   6.648 -0.9663  0.4941 -0.0530
   55MOL0     C 7316   1.071   3.545   6.673 -0.1360 -0.3629  0.0434
   55MOL0     C 7317   0.952   3.623   6.693 -0.0307  0.1215 -0.7486
   55MOL0     C 7318   0.829   3.560   6.678  0.5048  0.4636 -0.6229
   55MOL0     C 7319   0.704   3.635   6.698  0.0948 -0.6257 -0.5017
   55MOL0     O 7320   0.723   3.761   6.748  0.2851 -0.1216  0.6877
   55MOL0     C 7321   0.625   3.856   6.705 -0.4049  1.1903  0.1100
   55MOL0     C 7322   0.575   3.943   6.796  0.3749 -1.0029 -0.7574
   55MOL0     C 7323   0.490   4.055   6.774 -0.6058 -0.0740  0.0968
   55MOL0     C 7324   0.452   4.080   6.639  0.3622  0.0820 -0.7683
   55MOL0     O 7325   0.375   4.186   6.602 -0.5001 -0.1029 -0.4049
   55MOL0     C 7326   0.346   4.201   6.456 -0.4389  0.2383 -1.1891
   55MOL0     C 7327   0.270   4.331   6.439 -0.3152  0.5958  0.1221
   55MOL0     C 7328   0.355   4.457   6.471 -0.3266  0.4421 -0.1676
   55MOL0     C 7329   0.287   4.579   6.409 -0.0570  0.4700 -0.5336
   55MOL0     C 7330   0.326   4.591   6.268 -0.2983 -0.9540  0.2275
   55MOL0     C 7331   0.239   4.698   6.192 -0.4472  0.3838 -0.0430
   55MOL0     C 7332   0.194   4.821   6.278 -0.3694  0.3769  0.0225
   55MOL0     C 7333   0.105   4.912   6.193  0.7359  0.2191 -0.7183
   55MOL0    Cl 7334   0.069   5.070   6.261 -0.3948  0.1110  0.0010
   55MOL0     C 7335   0.490   3.976   6.543 -0.0102  0.0741 -0.2653
   55MOL0     C 7336   0.581   3.869   6.577 -0.4999 -0.7366  0.1478
   55MOL0     O 7337   0.597   3.577   6.687  0.4419  0.7265 -0.4966
   55MOL0     C 7338   0.821   3.423   6.662  0.1842  0.7789 -0.5048
   55MOL0     C 7339   0.940   3.351   6.643 -0.5712  0.4393  0.3686
   55MOL0     N 7340   1.267   3.094   7.102  0.0469  0.0700  0.1282
   55MOL0     N 7341   1.236   3.017   7.200 -0.1703  0.0006  0.0979
   55MOL0     C 7342   0.953   1.941   6.966  0.5330  0.0868 -0.3222
   55MOL0     C 7343   1.045   1.870   6.894  0.2585  0.2281  0.1580
   55MOL0     C 7344   1.379   1.610   6.765  0.6125  0.2485 -0.8780
   55MOL0     C 7345   1.500   1.683   6.742  0.4298  0.1338 -0.2070
   55MOL0     C 7346   1.588   1.636   6.654 -0.9297 -0.5437  0.5629
   55MOL0     C 7347   1.575   1.510   6.585 -0.4704 -0.9671 -0.6226
   55MOL0     O 7348   1.679   1.488   6.499 -1.0354  0.3084  0.0572
   55MOL0     C 7349   1.668   1.375   6.401  0.0293 -0.9241 -0.3342
   55MOL0     C 7350   1.739   1.248   6.444 -0.5503  0.1477  0.0568
   55MOL0     C 7351   1.894   1.220   6.443 -0.1830  0.7308  0.8685
   55MOL0     C 7352   1.914   1.094   6.533 -0.3393 -0.2896 -0.7826
   55MOL0     C 7353   1.858   0.967   6.479 -0.8372  0.6204 -0.0477
   55MOL0     C 7354   1.814   0.868   6.434  1.1623 -0.2705  0.2079
   55MOL0     C 7355   1.459   1.438   6.615 -0.9313  0.0281  0.0815
   55MOL0     C 7356   1.359   1.490   6.700  0.4450  0.4636 -0.4180
   55MOL0     C 7357   1.232   1.403   6.722 -0.3098  0.0093  0.4302
   55MOL0     H 7358   1.344   1.957   7.034 -0.9218 -0.4663  2.7587
   55MOL0     H 7359   1.180   2.105   7.164 -0.6200  0.1292 -0.5080
   55MOL0     H 7360   0.772   2.145   6.977  0.3533  0.2586 -0.9136
   55MOL0     H 7361   0.792   2.285   7.078 -0.0546  0.6215 -1.0483
   55MOL0     H 7362   0.855   2.329   6.843  0.3620  1.6174  0.6760
   55MOL0     H 7363   0.947   2.194   6.829 -0.8778 -1.1642  1.1503
   55MOL0     H 7364   1.093   2.400   6.856 -2.7081 -0.5371 -1.2432
   55MOL0     H 7365   1.119   2.282   6.983  0.4769  1.2638  1.4607
   55MOL0     H 7366   0.967   2.537   7.005  1.2989  0.1723 -0.4707
   55MOL0     H 7367   0.978   2.412   7.135  0.7685 -0.5580 -0.5416
   55MOL0     H 7368   1.204   2.423   7.176  2.3257  0.4877 -0.0266
   55MOL0     H 7369   1.245   2.501   7.026  0.9576  2.8847  0.8730
   55MOL0     H 7370   1.160   2.708   7.094  0.1233  1.2246 -0.0676
   55MOL0     H 7371   1.101   2.647   7.261 -0.2693 -3.2376  0.7572
   55MOL0     H 7372   1.383   2.658   7.160 -0.0480 -0.4866 -0.0296
   55MOL0     H 7373   1.328   2.596   7.318 -3.3149  0.2502  1.3098
   55MOL0     H 7374   1.236   2.821   7.372  0.9824  0.8540  1.2810
   55MOL0     H 7375   1.405   2.811   7.372 -0.6948  2.3109 -1.0326
   55MOL0     H 7376   1.511   2.892   7.071  0.1893  0.5669  0.2940
   55MOL0     H 7377   1.442   3.221   6.926 -1.9683 -0.2668  0.9773
   55MOL0     H 7378   1.541   3.071   6.884 -0.6560 -1.2020 -0.6719
   55MOL0     H 7379   1.389   2.994   6.752 -1.7371 -0.6125 -0.6280
   55MOL0     H 7380   1.254   3.051   6.832  0.2305 -1.6598  0.7932
   55MOL0     H 7381   1.349   3.128   6.591  1.9047 -0.5754  0.0279
   55MOL0     H 7382   1.424   3.260   6.692  0.1959  0.2428 -0.4464
   55MOL0     H 7383   1.188   3.273   6.807 -2.4305 -1.4793  0.1609
   55MOL0     H 7384   1.134   3.173   6.698  1.3065 -0.5432  1.3069
   55MOL0     H 7385   1.172   3.583   6.675  0.1666 -1.0142  3.6737
   55MOL0     H 7386   0.955   3.730   6.707  2.4816  0.1378 -0.9371
   55MOL0     H 7387   0.615   3.928   6.896  2.1298 -0.9795 -1.4368
   55MOL0     H 7388   0.460   4.126   6.850  2.2188  1.0989  0.2604
   55MOL0     H 7389   0.442   4.221   6.407  1.2483 -0.9234  1.4041
   55MOL0     H 7390   0.288   4.115   6.421 -1.6364  0.8218 -0.7004
   55MOL0     H 7391   0.237   4.332   6.334 -2.1059  1.0737  0.6574
   55MOL0     H 7392   0.179   4.326   6.500 -1.8256 -0.7138 -2.0857
   55MOL0     H 7393   0.367   4.461   6.579 -2.7857 -0.4674  0.2005
   55MOL0     H 7394   0.455   4.437   6.432  1.1710  1.9296  2.6144
   55MOL0     H 7395   0.315   4.673   6.458  1.3396 -0.6878  0.9862
   55MOL0     H 7396   0.179   4.563   6.421  0.1972 -0.2704  1.0687
   55MOL0     H 7397   0.316   4.496   6.214  1.1029  0.5559 -2.9615
   55MOL0     H 7398   0.433   4.615   6.276  0.2797 -3.1900 -0.0830
   55MOL0     H 7399   0.293   4.729   6.102 -0.0082  1.6679  0.6301
   55MOL0     H 7400   0.155   4.641   6.150 -0.0374 -0.5418  0.3592
   55MOL0     H 7401   0.286   4.877   6.301  0.2278 -0.3282 -0.5883
   55MOL0     H 7402   0.139   4.787   6.366 -0.4018 -1.3544 -0.6335
   55MOL0     H 7403   0.153   4.925   6.095  0.1474  2.2404 -0.7689
   55MOL0     H 7404   0.013   4.855   6.181  1.6758 -2.5216  3.2387
   55MOL0     H 7405   0.460   3.989   6.440 -1.2227 -0.7500 -0.0241
   55MOL0     H 7406   0.627   3.810   6.498 -1.3954  0.4771 -1.3137
   55MOL0     H 7407   0.727   3.374   6.640 -0.2046  2.4337 -2.8812
   55MOL0     H 7408   0.927   3.244   6.631 -0.3763  0.5298 -0.7726
   55MOL0     H 7409   0.847   1.917   6.963  0.8721 -1.9929  1.7090
   55MOL0     H 7410   1.006   1.801   6.820 -1.7843  2.8005 -1.3360
   55MOL0     H 7411   1.525   1.774   6.796 -1.0112 -0.4118  1.4769
   55MOL0     H 7412   1.679   1.695   6.661 -1.6623  0.4496  6.2664
   55MOL0     H 7413   1.706   1.404   6.302  1.4294 -0.9597  0.1653
   55MOL0     H 7414   1.564   1.354   6.375 -0.2276  2.3306 -2.5460
   55MOL0     H 7415   1.685   1.165   6.397  0.5992 -0.2535 -0.6099
   55MOL0     H 7416   1.709   1.228   6.547 -0.4625  0.4079  0.1339
   55MOL0     H 7417   1.951   1.309   6.474 -0.2208  0.1453  2.7229
   55MOL0     H 7418   1.914   1.184   6.342 -0.0008 -0.4990  1.3288
   55MOL0     H 7419   2.017   1.069   6.560  0.2587  2.2439 -0.4948
   55MOL0     H 7420   1.864   1.109   6.628 -0.8792 -2.6887 -0.6128
   55MOL0     H 7421   1.770   0.778   6.396 -1.2492  0.1446  1.8279
   55MOL0     H 7422   1.447   1.337   6.579  1.0753  0.5024 -2.1738
   55MOL0     H 7423   1.217   1.381   6.828  0.8833 -0.2492  0.5596
   55MOL0     H 7424   1.160   1.467   6.671  0.5031  0.2247 -0.4687
   55MOL0     H 7425   1.245   1.304   6.677 -1.9519 -0.7417  1.5341
   56MOL0     O 7426  10.766   0.297   7.556 -0.9260  0.3243 -0.3527
   56MOL0     C 7427  10.863   0.318   7.479 -0.6942  0.5619 -0.5230
   56MOL0     O 7428  10.970   0.232   7.466 -0.5291  0.6085 -0.3379
   56MOL0     C 7429  10.939   0.096   7.489 -0.2754 -0.0882  0.0183
   56MOL0     C 7430  11.024   0.011   7.557 -0.0292 -0.7717  0.4286
   56MOL0     C 7431  11.013  -0.128   7.548  0.3746 -0.0067  0.9372
   56MOL0     C 7432  10.919  -0.199   7.469 -1.0340 -0.8705 -0.2656
   56MOL0     O 7433  10.917  -0.338   7.479 -0.2781 -0.5984  0.3720
   56MOL0     C 7434  10.859  -0.417   7.376  0.1104  0.5381  0.0039
   56MOL0     C 7435  10.725  -0.468   7.427  0.0681  0.0128  0.3451
   56MOL0     C 7436  10.635  -0.527   7.313 -0.0129  0.3476  0.0343
   56MOL0     C 7437  10.501  -0.587   7.356 -0.3197 -0.0939  0.3930
   56MOL0     C 7438  10.507  -0.746   7.384 -0.4135 -0.0503  0.2694
   56MOL0     C 7439  10.612  -0.791   7.490  0.2124  0.2542 -0.2228
   56MOL0     C 7440  10.617  -0.939   7.525  0.0101  0.3565 -0.6452
   56MOL0     C 7441  10.490  -1.000   7.570 -0.2037 -0.2229 -0.3030
   56MOL0     N 7442  10.514  -1.141   7.621  0.3494  0.2095  0.3932
   56MOL0     C 7443  10.620  -1.203   7.683 -0.7516  0.4089 -0.1920
   56MOL0     C 7444  10.588  -1.330   7.680 -0.6228  0.2852  0.6753
   56MOL0     C 7445  10.678  -1.428   7.741  0.1446  0.5892 -0.1665
   56MOL0     C 7446  10.622  -1.572   7.779 -0.6475 -0.0522 -0.0759
   56MOL0     C 7447  10.578  -1.584   7.925  0.3419 -0.5290  0.2372
   56MOL0     C 7448  10.543  -1.739   7.955 -0.4430 -0.6659 -0.0669
   56MOL0     O 7449  10.461  -1.801   7.857 -0.3679 -0.1583 -0.4436
   56MOL0     C 7450  10.416  -1.925   7.883  0.2080 -0.0186  1.2984
   56MOL0     C 7451  10.470  -2.004   7.984 -0.6305  0.0779 -0.0096
   56MOL0     C 7452  10.427  -2.133   8.003 -0.2735  0.6006 -0.5652
   56MOL0     C 7453  10.333  -2.185   7.917  0.3135 -0.5237 -0.7552
   56MOL0     C 7454  10.307  -2.329   7.936  0.1921  0.3839 -0.5077
   56MOL0     O 7455  10.328  -2.382   8.060 -0.3245  0.2441  0.1438
   56MOL0     C 7456  10.271  -2.509   8.084 -0.8600 -0.6479  0.8813
   56MOL0     C 7457  10.340  -2.607   8.150 -0.4289 -0.2456 -1.3764
   56MOL0     C 7458  10.286  -2.738   8.163  0.3391 -0.1457  0.7954
   56MOL0     C 7459  10.155  -2.758   8.117 -0.0886 -0.9143 -0.0218
   56MOL0     O 7460  10.101  -2.876   8.148  0.5879 -0.1308 -0.0062
   56MOL0     C 7461   9.958  -2.868   8.163 -0.1068  0.3749  0.1507
   56MOL0     C 7462   9.901  -3.005   8.204 -0.3664 -0.0246 -0.3870
   56MOL0     C 7463   9.971  -3.067   8.323  0.7497  0.2350 -0.4706
   56MOL0     C 7464   9.898  -3.199   8.377  0.1318  0.5186  0.1521
   56MOL0     C 7465   9.973  -3.281   8.488  0.3007  0.4722  0.8265
   56MOL0     C 7466  10.041  -3.197   8.605 -0.3228 -0.7806  0.0488
   56MOL0     C 7467  10.117  -3.289   8.704 -0.3238 -0.5408 -0.2245
   56MOL0     C 7468  10.097  -3.219   8.844  0.2252  0.4532 -0.1145
   56MOL0    Cl 7469  10.143  -3.349   8.954 -0.1736  0.4307  0.1719
   56MOL0     C 7470  10.088  -2.656   8.047  0.6544 -0.4323  0.2275
   56MOL0     C 7471  10.139  -2.534   8.036 -0.2997  1.1538  0.4282
   56MOL0     O 7472  10.263  -2.387   7.838 -1.3263  0.3054 -0.7675
   56MOL0     C 7473  10.273  -2.114   7.824 -0.4059  0.4616  0.1743
   56MOL0     C 7474  10.312  -1.979   7.800 -0.7476  0.6471 -0.4534
   56MOL0     N 7475  10.467  -1.352   7.623  0.2257 -1.0768 -0.0842
   56MOL0     N 7476  10.422  -1.239   7.586 -0.2412 -0.0406  0.2496
   56MOL0     C 7477  10.826  -0.112   7.412 -0.6628  0.3596  0.3519
   56MOL0     C 7478  10.832   0.033   7.416 -0.4891 -1.0518  0.4578
   56MOL0     C 7479  10.882   0.454   7.426  0.0701  0.3077  0.2437
   56MOL0     C 7480  10.805   0.558   7.485  0.4297  1.0630  0.2317
   56MOL0     C 7481  10.805   0.692   7.441 -0.3678  0.7315 -0.9409
   56MOL0     C 7482  10.885   0.726   7.334  0.3163  0.1312  0.4442
   56MOL0     O 7483  10.870   0.843   7.281  0.7215 -0.1250  0.4659
   56MOL0     C 7484  10.909   0.943   7.370 -0.3317  0.2017  0.1099
   56MOL0     C 7485  10.961   1.049   7.258  0.7732  0.5598 -0.3800
   56MOL0     C 7486  11.092   0.999   7.188  0.2468 -0.1886  0.1882
   56MOL0     C 7487  11.216   1.032   7.289 -0.4373 -0.3342  1.0449
   56MOL0     C 7488  11.224   1.179   7.315 -0.4446  0.1301 -0.2565
   56MOL0     C 7489  11.229   1.294   7.322 -0.0917 -0.9462 -0.4279
   56MOL0     C 7490  10.961   0.632   7.278 -0.5599  1.0721  0.1787
   56MOL0     C 7491  10.976   0.499   7.323 -0.3307  0.3257  0.7316
   56MOL0     C 7492  11.063   0.389   7.246  0.1045 -0.5379 -0.2958
   56MOL0     H 7493  11.105   0.053   7.616 -0.2771  2.8793 -1.5284
   56MOL0     H 7494  11.078  -0.200   7.597 -0.4710 -0.7374  1.0077
   56MOL0     H 7495  10.851  -0.362   7.281 -0.6889  1.1664  0.4185
   56MOL0     H 7496  10.927  -0.500   7.358 -1.0162  0.1628 -3.2288
   56MOL0     H 7497  10.689  -0.376   7.473 -0.3453 -0.4945  1.0470
   56MOL0     H 7498  10.743  -0.537   7.510 -0.4922  1.4661  1.7232
   56MOL0     H 7499  10.699  -0.604   7.269 -1.8592 -1.0717 -0.3044
   56MOL0     H 7500  10.612  -0.445   7.244  1.2120  1.3539  0.7941
   56MOL0     H 7501  10.461  -0.523   7.436 -2.1820  2.5745 -2.4556
   56MOL0     H 7502  10.425  -0.585   7.278 -0.6814 -1.7628  0.6547
   56MOL0     H 7503  10.408  -0.784   7.411  0.0849 -1.1480  0.5990
   56MOL0     H 7504  10.528  -0.782   7.283  2.1731  0.1112  0.6813
   56MOL0     H 7505  10.709  -0.754   7.454  1.0030  0.7233  2.2395
   56MOL0     H 7506  10.586  -0.739   7.583 -2.2573 -1.4264  0.1385
   56MOL0     H 7507  10.686  -0.943   7.610 -0.7593 -1.6546 -0.0491
   56MOL0     H 7508  10.667  -0.986   7.440 -1.1484 -1.0546 -0.5891
   56MOL0     H 7509  10.435  -0.948   7.648  0.0856  1.9743 -1.4828
   56MOL0     H 7510  10.426  -1.023   7.485  1.6254 -5.5608 -0.6231
   56MOL0     H 7511  10.709  -1.150   7.719 -1.7934  2.8348 -0.9448
   56MOL0     H 7512  10.759  -1.450   7.671 -0.3328 -0.9112 -0.2849
   56MOL0     H 7513  10.711  -1.379   7.832  0.3772  2.4664 -1.2089
   56MOL0     H 7514  10.544  -1.602   7.709 -1.1630 -2.9437  1.5818
   56MOL0     H 7515  10.705  -1.642   7.765  0.6851  1.4506  0.0203
   56MOL0     H 7516  10.491  -1.523   7.950 -0.2530 -0.7712 -1.1553
   56MOL0     H 7517  10.649  -1.534   7.991  1.0618  0.5653 -1.3006
   56MOL0     H 7518  10.524  -1.743   8.062  2.7991  0.2779  0.6625
   56MOL0     H 7519  10.644  -1.781   7.951 -0.9237 -1.7897 -2.9340
   56MOL0     H 7520  10.543  -1.971   8.057  0.0014  1.0457 -1.0496
   56MOL0     H 7521  10.461  -2.190   8.089 -0.7070  3.6925  1.8130
   56MOL0     H 7522  10.440  -2.591   8.190 -0.6334  1.3437 -1.4335
   56MOL0     H 7523  10.345  -2.802   8.228  2.4318  0.4280 -0.4672
   56MOL0     H 7524   9.935  -2.796   8.242 -1.5949  0.5378 -0.4142
   56MOL0     H 7525   9.907  -2.854   8.068 -0.9527 -0.9220  0.3856
   56MOL0     H 7526   9.798  -2.996   8.239 -1.1223 -2.3434 -1.7695
   56MOL0     H 7527   9.891  -3.075   8.121 -1.3673 -4.1980  2.8725
   56MOL0     H 7528  10.078  -3.077   8.299  1.0885  0.1593  0.9768
   56MOL0     H 7529   9.960  -2.991   8.401 -0.7782  0.8827 -1.2763
   56MOL0     H 7530   9.870  -3.272   8.301 -2.4084  0.6235  0.9209
   56MOL0     H 7531   9.812  -3.160   8.432 -0.1058 -0.4134  0.4548
   56MOL0     H 7532  10.036  -3.359   8.444 -2.4736  0.0614 -2.9448
   56MOL0     H 7533   9.900  -3.340   8.545 -0.8218 -3.6268 -4.1038
   56MOL0     H 7534  10.116  -3.125   8.572 -1.3788  0.2702 -0.1358
   56MOL0     H 7535   9.967  -3.140   8.661  1.0036 -0.0798  1.1468
   56MOL0     H 7536  10.216  -3.324   8.674 -0.0655  0.7675 -0.9886
   56MOL0     H 7537  10.062  -3.384   8.707 -0.1331 -0.6606  3.1583
   56MOL0     H 7538  10.163  -3.133   8.856  1.7480 -0.3332 -2.1885
   56MOL0     H 7539   9.993  -3.191   8.859 -0.1536 -0.5003 -0.8704
   56MOL0     H 7540   9.984  -2.668   8.018  1.6844 -4.8380 -2.7177
   56MOL0     H 7541  10.087  -2.456   7.981 -3.0861 -0.2214  0.9487
   56MOL0     H 7542  10.184  -2.155   7.777 -0.0130 -1.7472  1.2331
   56MOL0     H 7543  10.277  -1.917   7.718  0.6665 -0.0388 -1.6412
   56MOL0     H 7544  10.755  -0.174   7.359 -2.0739 -0.5668  3.1456
   56MOL0     H 7545  10.760   0.099   7.369  1.1974  2.9533  2.9427
   56MOL0     H 7546  10.734   0.540   7.566 -1.3939  0.7785 -1.3421
   56MOL0     H 7547  10.730   0.760   7.479 -3.2435  0.6860 -5.7636
   56MOL0     H 7548  10.994   0.913   7.432 -2.1327 -1.5663  1.8902
   56MOL0     H 7549  10.827   0.977   7.433  0.2791  3.1919 -0.5339
   56MOL0     H 7550  10.977   1.144   7.309  0.8070 -0.3043  1.2988
   56MOL0     H 7551  10.888   1.079   7.183  1.1076  4.0571  0.5207
   56MOL0     H 7552  11.103   1.048   7.091 -1.7091 -3.6038 -1.9649
   56MOL0     H 7553  11.083   0.892   7.167  1.2767 -1.0067  3.3461
   56MOL0     H 7554  11.200   0.986   7.387 -0.8228 -0.3105  0.9940
   56MOL0     H 7555  11.305   0.987   7.244 -1.2917  0.9309 -2.2294
   56MOL0     H 7556  11.237   1.400   7.338  6.8353 -0.9041 -1.1425
   56MOL0     H 7557  11.015   0.675   7.194 -2.6116  1.1262 -1.1812
   56MOL0     H 7558  11.143   0.347   7.308  0.1134  0.8856  0.7052
   56MOL0     H 7559  11.002   0.303   7.221  1.5178 -1.5930 -0.2732
   56MOL0     H 7560  11.110   0.427   7.155 -3.9900 -1.4906 -3.0308
   57MOL0     O 7561   6.974   6.013   9.402  0.0872  0.0242  0.1176
   57MOL0     C 7562   6.976   6.080   9.503 -0.3585 -0.0757  0.4932
   57MOL0     O 7563   7.092   6.140   9.552 -0.4262  0.6932 -0.0004
   57MOL0     C 7564   7.201   6.148   9.468  0.2469  0.2336  0.6406
   57MOL0     C 7565   7.263   6.033   9.412 -0.4072 -0.3019  0.3041
   57MOL0     C 7566   7.370   6.046   9.316 -0.5819 -0.4230 -0.2368
   57MOL0     C 7567   7.419   6.172   9.280  0.1620  0.1656  1.0503
   57MOL0     O 7568   7.528   6.203   9.197  0.8128 -0.4986 -0.6432
   57MOL0     C 7569   7.604   6.085   9.159 -0.0030 -0.4407  0.1009
   57MOL0     C 7570   7.741   6.130   9.097 -0.7224  0.3242  0.1361
   57MOL0     C 7571   7.829   6.196   9.201 -0.4353  0.9363  0.2845
   57MOL0     C 7572   7.891   6.095   9.309 -0.9545 -0.0023  0.1859
   57MOL0     C 7573   8.045   6.089   9.290 -0.0966 -1.3928  0.2302
   57MOL0     C 7574   8.119   6.005   9.389 -0.3116 -0.9013 -0.7145
   57MOL0     C 7575   8.100   5.854   9.353 -0.7413  0.9030  0.0104
   57MOL0     C 7576   8.217   5.773   9.407  1.5445 -0.4267  0.2175
   57MOL0     N 7577   8.321   5.759   9.307  0.6145  0.9715 -0.2879
   57MOL0     C 7578   8.307   5.683   9.196 -0.0803 -0.5459 -0.0408
   57MOL0     C 7579   8.430   5.654   9.155 -0.0079 -0.0751  0.4453
   57MOL0     C 7580   8.455   5.558   9.045 -0.0340  0.8687 -0.1218
   57MOL0     C 7581   8.429   5.623   8.911 -0.1475  0.4749 -0.4662
   57MOL0     C 7582   8.358   5.521   8.818  0.0627 -0.8038  0.0777
   57MOL0     C 7583   8.454   5.427   8.756 -1.1245  0.1386  0.9117
   57MOL0     O 7584   8.497   5.320   8.837  0.0014 -0.1478 -0.3852
   57MOL0     C 7585   8.586   5.220   8.796 -0.1542 -0.8014  0.3941
   57MOL0     C 7586   8.653   5.217   8.670  0.0888  0.5801  0.4041
   57MOL0     C 7587   8.752   5.120   8.649  0.1265 -0.0575  0.8915
   57MOL0     C 7588   8.788   5.020   8.740 -0.6678  0.9384  0.7776
   57MOL0     C 7589   8.897   4.912   8.714 -0.2253 -0.0043 -0.5539
   57MOL0     O 7590   8.933   4.836   8.815 -0.1145  0.0804  0.3464
   57MOL0     C 7591   9.003   4.725   8.782  0.3552  0.4369  0.3506
   57MOL0     C 7592   9.139   4.712   8.810 -0.4061 -0.4958 -0.2710
   57MOL0     C 7593   9.204   4.599   8.767 -0.4284  0.4150  1.1092
   57MOL0     C 7594   9.144   4.489   8.707  0.7973 -1.4447 -0.3589
   57MOL0     O 7595   9.189   4.377   8.656  0.9250  0.9790  0.4632
   57MOL0     C 7596   9.295   4.385   8.555  0.4353 -0.6628 -0.6506
   57MOL0     C 7597   9.241   4.459   8.434 -0.7757  0.1229  0.3527
   57MOL0     C 7598   9.342   4.500   8.321 -0.7422 -0.7153  0.2696
   57MOL0     C 7599   9.269   4.570   8.202 -0.0728  0.4481  0.2545
   57MOL0     C 7600   9.381   4.600   8.093 -0.4576 -0.2421  0.2172
   57MOL0     C 7601   9.356   4.715   8.011 -0.2588 -0.0473  0.5259
   57MOL0     C 7602   9.218   4.704   7.934  1.0140 -0.8935 -1.2736
   57MOL0     C 7603   9.205   4.831   7.861  0.7322 -0.0808  0.8077
   57MOL0    Cl 7604   9.333   4.868   7.750  0.3356 -0.4044  0.0321
   57MOL0     C 7605   9.007   4.498   8.702  0.0137  0.4451 -0.5092
   57MOL0     C 7606   8.936   4.611   8.728  0.3502  0.5640 -0.7833
   57MOL0     O 7607   8.928   4.899   8.594 -0.1766  0.2106 -0.4771
   57MOL0     C 7608   8.715   5.017   8.856 -0.0637 -0.6438  0.5738
   57MOL0     C 7609   8.620   5.113   8.892  0.5525  0.8017  0.1444
   57MOL0     N 7610   8.513   5.711   9.241 -1.1526  0.0150  0.8764
   57MOL0     N 7611   8.455   5.782   9.324 -0.2398  0.1267 -0.1295
   57MOL0     C 7612   7.357   6.290   9.324  0.1454  0.3178 -0.0430
   57MOL0     C 7613   7.245   6.279   9.413  0.4858  0.3625 -1.0909
   57MOL0     C 7614   6.852   6.093   9.582  0.4690  1.2716 -0.1674
   57MOL0     C 7615   6.856   6.183   9.688  0.1323 -0.9752 -0.9756
   57MOL0     C 7616   6.751   6.213   9.782  0.1143 -1.1593  0.4595
   57MOL0     C 7617   6.633   6.153   9.762 -0.1967  0.7404  0.2856
   57MOL0     O 7618   6.523   6.188   9.838  0.5986 -0.1511  0.3230
   57MOL0     C 7619   6.390   6.168   9.807  0.0195  0.1133  0.6469
   57MOL0     C 7620   6.342   6.013   9.818  0.3524 -0.2274 -0.9667
   57MOL0     C 7621   6.210   5.984   9.746  0.7405 -0.3700 -0.3559
   57MOL0     C 7622   6.165   5.840   9.756 -0.0025 -0.8275 -0.3292
   57MOL0     C 7623   6.123   5.813   9.891 -0.1130 -0.3539 -0.3204
   57MOL0     C 7624   6.083   5.813  10.007 -0.6772  0.8010 -0.0777
   57MOL0     C 7625   6.622   6.061   9.655 -1.0768  1.2339 -0.3997
   57MOL0     C 7626   6.726   6.026   9.567  0.6512 -0.1586  0.4818
   57MOL0     C 7627   6.703   5.921   9.476  0.2463  2.0149 -0.2270
   57MOL0     H 7628   7.232   5.937   9.450 -1.0364 -1.2410 -2.3860
   57MOL0     H 7629   7.425   5.955   9.296  1.2111  0.9830 -2.1195
   57MOL0     H 7630   7.634   6.031   9.249  0.2269 -0.1527  0.1997
   57MOL0     H 7631   7.547   6.018   9.094  0.0682 -0.1049 -0.3126
   57MOL0     H 7632   7.717   6.201   9.018 -1.9381  0.5696  0.7076
   57MOL0     H 7633   7.798   6.048   9.052  1.1335  0.2306  2.4067
   57MOL0     H 7634   7.764   6.269   9.251 -1.7272 -1.3492  2.1951
   57MOL0     H 7635   7.914   6.241   9.150  1.1278 -1.8106  0.2212
   57MOL0     H 7636   7.871   6.131   9.411  0.1280  0.6474  0.1760
   57MOL0     H 7637   7.860   5.990   9.300  1.0516 -0.6854  0.6895
   57MOL0     H 7638   8.064   6.060   9.186 -1.9601  1.1675 -0.9243
   57MOL0     H 7639   8.084   6.191   9.303 -2.2264 -0.8325  3.1775
   57MOL0     H 7640   8.225   6.028   9.384 -0.2538 -0.8143  0.5764
   57MOL0     H 7641   8.079   6.021   9.490  0.2956 -1.7453 -0.3346
   57MOL0     H 7642   8.088   5.837   9.245  3.3488  0.3334 -0.4978
   57MOL0     H 7643   8.012   5.814   9.404  0.2847 -1.9725 -0.3074
   57MOL0     H 7644   8.255   5.810   9.502  0.7678 -1.3650  0.9191
   57MOL0     H 7645   8.173   5.673   9.412 -2.8137  1.2503 -0.1814
   57MOL0     H 7646   8.215   5.635   9.166 -0.1649 -0.8707  0.7173
   57MOL0     H 7647   8.556   5.515   9.047 -0.6303 -0.5857 -0.3804
   57MOL0     H 7648   8.387   5.473   9.051 -2.3328  2.3325 -3.0598
   57MOL0     H 7649   8.360   5.706   8.931 -0.9371  0.1311 -1.6196
   57MOL0     H 7650   8.521   5.659   8.865  1.3373 -1.9246  0.4399
   57MOL0     H 7651   8.334   5.589   8.737  1.9582  1.0031  0.9392
   57MOL0     H 7652   8.274   5.472   8.869 -0.9951 -0.5161 -1.3310
   57MOL0     H 7653   8.545   5.485   8.738 -2.3477  2.0938  0.7532
   57MOL0     H 7654   8.415   5.398   8.658 -0.7390  3.4878 -0.3642
   57MOL0     H 7655   8.638   5.294   8.595 -0.6759  0.8817  0.8552
   57MOL0     H 7656   8.806   5.116   8.555  2.1635  0.9988  1.9442
   57MOL0     H 7657   9.181   4.799   8.860  1.2660 -0.8707 -0.9628
   57MOL0     H 7658   9.311   4.613   8.775 -0.7352  3.9226  0.8767
   57MOL0     H 7659   9.381   4.437   8.598 -2.1766  2.0980  1.6268
   57MOL0     H 7660   9.328   4.285   8.524  0.7067 -0.8085  0.0939
   57MOL0     H 7661   9.170   4.397   8.379 -1.9522  1.0351  0.7961
   57MOL0     H 7662   9.186   4.544   8.475 -0.7975 -0.8427  2.4806
   57MOL0     H 7663   9.421   4.565   8.359  1.0280 -1.2069 -2.2432
   57MOL0     H 7664   9.382   4.404   8.286  0.2744  0.3023 -1.5213
   57MOL0     H 7665   9.234   4.663   8.247 -0.3993  0.0165  0.8953
   57MOL0     H 7666   9.184   4.514   8.162 -0.7190  0.5701  1.4374
   57MOL0     H 7667   9.390   4.512   8.029  2.7417 -1.5283  2.2015
   57MOL0     H 7668   9.470   4.622   8.152 -0.0722  3.6307 -1.5375
   57MOL0     H 7669   9.362   4.810   8.065 -1.0854 -0.2309  0.9497
   57MOL0     H 7670   9.441   4.721   7.942 -0.1745  2.6375  0.7466
   57MOL0     H 7671   9.140   4.702   8.011 -1.0350 -1.0545 -3.2295
   57MOL0     H 7672   9.205   4.628   7.856 -2.0175 -0.4142 -1.3705
   57MOL0     H 7673   9.110   4.833   7.807  0.8331 -2.1934  0.4714
   57MOL0     H 7674   9.205   4.912   7.934  3.0334  0.3270  0.4308
   57MOL0     H 7675   8.943   4.421   8.661 -3.4477  2.3498  0.9636
   57MOL0     H 7676   8.830   4.618   8.705  0.2437  0.3926 -0.3452
   57MOL0     H 7677   8.745   4.962   8.945  0.5366  3.7048  3.3854
   57MOL0     H 7678   8.588   5.089   8.993 -1.7258  0.0066 -0.7208
   57MOL0     H 7679   7.388   6.391   9.298  2.6579 -0.7239 -1.4927
   57MOL0     H 7680   7.191   6.365   9.451 -0.0461 -0.7266  0.7606
   57MOL0     H 7681   6.946   6.243   9.701 -1.6816  2.1996 -1.8904
   57MOL0     H 7682   6.770   6.274   9.870  0.3141  1.2594 -1.1617
   57MOL0     H 7683   6.380   6.217   9.710 -0.7678  2.9719  2.0664
   57MOL0     H 7684   6.325   6.217   9.880  0.0793 -1.9349  2.1626
   57MOL0     H 7685   6.327   5.994   9.925 -0.5752 -2.7988 -1.4733
   57MOL0     H 7686   6.415   5.936   9.795  0.1587 -0.7892  0.2134
   57MOL0     H 7687   6.218   6.002   9.639 -0.5872  2.8135 -0.0448
   57MOL0     H 7688   6.131   6.053   9.780 -0.2362  1.0600 -4.8934
   57MOL0     H 7689   6.093   5.834   9.674 -4.3018  1.6728  2.8385
   57MOL0     H 7690   6.255   5.779   9.746  0.0892 -1.1088  1.7307
   57MOL0     H 7691   6.067   5.821  10.113 -0.1847  1.9408 -0.0803
   57MOL0     H 7692   6.524   6.013   9.648 -0.3784 -0.0015 -2.3968
   57MOL0     H 7693   6.769   5.835   9.490  0.1611  1.7508 -1.3239
   57MOL0     H 7694   6.599   5.889   9.464 -0.0838  2.0466  2.1293
   57MOL0     H 7695   6.731   5.962   9.378 -0.5060  3.6236  0.1875
   58MOL0     O 7696   8.369   7.462  10.176 -0.0585  0.2539  0.0828
   58MOL0     C 7697   8.418   7.552  10.108 -0.0474 -0.4298  0.7786
   58MOL0     O 7698   8.346   7.620  10.015 -0.1542  0.6919  0.0585
   58MOL0     C 7699   8.214   7.592   9.981 -0.6566 -0.1646 -0.2707
   58MOL0     C 7700   8.132   7.697   9.951  0.9725 -1.1875 -0.5057
   58MOL0     C 7701   8.008   7.687   9.912 -0.0668  0.1873 -0.2392
   58MOL0     C 7702   7.940   7.563   9.907  0.7580  0.3886 -0.7272
   58MOL0     O 7703   7.801   7.562   9.862  0.0445  0.1502 -0.0162
   58MOL0     C 7704   7.721   7.439   9.862  0.1654 -0.2238  0.1915
   58MOL0     C 7705   7.600   7.456   9.766 -0.7263  0.5056  0.6887
   58MOL0     C 7706   7.491   7.343   9.781 -0.2487  0.9520 -0.2181
   58MOL0     C 7707   7.453   7.284   9.637  0.1828 -0.6664 -1.6317
   58MOL0     C 7708   7.340   7.175   9.662 -0.3338  0.3476  0.3791
   58MOL0     C 7709   7.291   7.114   9.530  0.4626 -0.0497  0.0322
   58MOL0     C 7710   7.154   7.063   9.553 -0.1610  0.4113  0.1348
   58MOL0     C 7711   7.069   7.017   9.434 -0.6576 -0.5011 -0.1866
   58MOL0     N 7712   7.075   7.115   9.324  0.4116 -0.1307  0.0510
   58MOL0     C 7713   7.128   7.098   9.195 -0.5574  0.3994  0.6477
   58MOL0     C 7714   7.084   7.201   9.126  0.6053  0.1132 -0.1391
   58MOL0     C 7715   7.106   7.221   8.974 -0.2672 -0.2798  0.0909
   58MOL0     C 7716   6.980   7.279   8.902  0.7929 -0.7498 -0.2985
   58MOL0     C 7717   7.009   7.322   8.760  0.4733 -0.1068  0.0796
   58MOL0     C 7718   6.901   7.418   8.712 -0.8850 -0.3832 -0.6142
   58MOL0     O 7719   6.926   7.450   8.575 -0.8676 -0.1357 -0.6227
   58MOL0     C 7720   6.846   7.544   8.507  0.1304  0.2868  1.0711
   58MOL0     C 7721   6.883   7.579   8.378  0.9403  0.4451  0.2139
   58MOL0     C 7722   6.808   7.672   8.297 -0.3617  0.2524  0.2321
   58MOL0     C 7723   6.692   7.726   8.355 -0.2801 -0.5309  0.8550
   58MOL0     C 7724   6.613   7.829   8.274 -0.1116 -0.3253 -0.7152
   58MOL0     O 7725   6.501   7.882   8.326  0.5236  0.0280  0.5845
   58MOL0     C 7726   6.404   7.937   8.249  0.1911 -0.1434  0.0939
   58MOL0     C 7727   6.361   7.877   8.125 -0.2070  0.8421  0.4432
   58MOL0     C 7728   6.251   7.926   8.051  0.7516 -1.0212 -0.0774
   58MOL0     C 7729   6.184   8.045   8.103 -0.7410 -0.7021  0.0143
   58MOL0     O 7730   6.070   8.108   8.057 -0.2592  0.1406  0.4309
   58MOL0     C 7731   6.018   8.074   7.922  0.0986 -0.1422  0.3596
   58MOL0     C 7732   5.891   8.164   7.906 -0.5721  0.3486 -0.2821
   58MOL0     C 7733   5.773   8.160   8.002  1.3629  0.7057 -0.4391
   58MOL0     C 7734   5.716   8.023   7.993  0.1011  0.0886 -0.6388
   58MOL0     C 7735   5.582   8.031   7.914 -0.5682  0.3423 -0.1769
   58MOL0     C 7736   5.491   7.901   7.929  0.2973  0.0272 -0.2203
   58MOL0     C 7737   5.568   7.782   7.878  0.6853  0.5685 -0.3585
   58MOL0     C 7738   5.489   7.663   7.826  0.6365 -0.5482  0.1653
   58MOL0    Cl 7739   5.605   7.537   7.754  0.1294 -0.2819 -0.4089
   58MOL0     C 7740   6.226   8.092   8.226  0.9568  0.2608  0.2319
   58MOL0     C 7741   6.334   8.041   8.295  0.2750  0.1664 -0.6387
   58MOL0     O 7742   6.650   7.831   8.155  0.6313  0.0329 -0.8009
   58MOL0     C 7743   6.653   7.690   8.489 -0.1589  1.0474  0.2588
   58MOL0     C 7744   6.725   7.595   8.563 -0.8533 -0.4317 -0.6055
   58MOL0     N 7745   6.998   7.274   9.207  0.1048 -0.2528 -1.0983
   58MOL0     N 7746   6.998   7.229   9.326 -0.0863  1.1676  0.0030
   58MOL0     C 7747   8.016   7.447   9.949  0.9366 -0.1826  0.7475
   58MOL0     C 7748   8.151   7.466   9.982  0.4474  1.0710  0.1896
   58MOL0     C 7749   8.563   7.566  10.112  0.3756 -0.0231  0.9015
   58MOL0     C 7750   8.608   7.688  10.068 -0.4542 -1.1831  1.5925
   58MOL0     C 7751   8.749   7.706  10.064 -0.1098  0.3904  0.3687
   58MOL0     C 7752   8.844   7.606  10.115  0.4503  0.1526 -0.4693
   58MOL0     O 7753   8.976   7.649  10.120  0.5685  0.6980 -0.1905
   58MOL0     C 7754   9.091   7.556  10.105  0.7092 -0.7270  0.1993
   58MOL0     C 7755   9.092   7.486   9.974 -0.0170 -0.0852 -0.3315
   58MOL0     C 7756   9.099   7.602   9.875 -0.6661  0.3332  0.4542
   58MOL0     C 7757   9.231   7.673   9.855 -0.6245 -0.1240 -0.0028
   58MOL0     C 7758   9.349   7.583   9.834  0.2200 -0.3839 -0.8987
   58MOL0     C 7759   9.443   7.510   9.814  0.2906  0.8842 -0.5039
   58MOL0     C 7760   8.798   7.479  10.132  1.3751  0.8751 -0.7963
   58MOL0     C 7761   8.659   7.460  10.132  0.2486  0.0139  1.3301
   58MOL0     C 7762   8.619   7.313  10.142 -0.0580  0.5869  0.0925
   58MOL0     H 7763   8.177   7.795   9.955 -0.7563 -0.2170 -2.7215
   58MOL0     H 7764   7.951   7.772   9.876  0.1439 -0.2271 -1.6211
   58MOL0     H 7765   7.781   7.355   9.824 -0.0466 -0.7289  0.9456
   58MOL0     H 7766   7.690   7.413   9.963  0.2328 -0.4293  0.1614
   58MOL0     H 7767   7.640   7.459   9.664 -0.5277 -2.7459  0.5784
   58MOL0     H 7768   7.546   7.549   9.787 -0.5856 -0.3704  6.3716
   58MOL0     H 7769   7.404   7.393   9.824 -0.9850  1.5333 -2.2716
   58MOL0     H 7770   7.544   7.267   9.840 -0.1599  2.4223  1.6693
   58MOL0     H 7771   7.422   7.359   9.565  0.9852  2.4471  1.0034
   58MOL0     H 7772   7.544   7.242   9.592  0.9309 -0.0253 -0.7638
   58MOL0     H 7773   7.366   7.093   9.729 -2.1426 -0.5370  0.0467
   58MOL0     H 7774   7.263   7.226   9.719 -0.0040  1.3822 -0.0728
   58MOL0     H 7775   7.301   7.192   9.455  0.0225  0.3154  0.3417
   58MOL0     H 7776   7.350   7.031   9.491 -1.0827 -2.1494  1.8504
   58MOL0     H 7777   7.099   7.130   9.620 -1.2724  0.6586 -0.9915
   58MOL0     H 7778   7.161   6.974   9.616  0.2790 -0.2737 -0.8587
   58MOL0     H 7779   7.118   6.927   9.395  0.3424 -0.3287  0.6063
   58MOL0     H 7780   6.969   7.002   9.476 -0.0243  2.8530  2.9995
   58MOL0     H 7781   7.192   7.020   9.154  0.4398  1.8899 -0.7406
   58MOL0     H 7782   7.192   7.290   8.968 -1.4493  1.1242 -3.0418
   58MOL0     H 7783   7.128   7.132   8.915  0.1430  0.8480 -1.5200
   58MOL0     H 7784   6.890   7.217   8.901 -0.0257  0.3465 -2.8442
   58MOL0     H 7785   6.956   7.368   8.959  0.6713 -1.0676  0.1483
   58MOL0     H 7786   7.012   7.228   8.704  0.4761 -0.0071 -0.0878
   58MOL0     H 7787   7.109   7.366   8.753  1.5690 -1.9100  2.8420
   58MOL0     H 7788   6.898   7.506   8.776  0.5748 -0.7724  0.0331
   58MOL0     H 7789   6.798   7.382   8.715 -1.1799  0.2798 -2.1999
   58MOL0     H 7790   6.976   7.559   8.326 -1.0209 -0.1810 -3.3887
   58MOL0     H 7791   6.835   7.699   8.196  0.6433  0.0238  0.4300
   58MOL0     H 7792   6.409   7.782   8.102  0.1451  0.6396  1.9068
   58MOL0     H 7793   6.225   7.864   7.966  0.9553  0.4511 -1.2582
   58MOL0     H 7794   6.091   8.111   7.850 -0.1226 -0.5386 -0.0781
   58MOL0     H 7795   5.997   7.966   7.915 -2.6205  0.2726  0.8792
   58MOL0     H 7796   5.926   8.264   7.935  0.4240  0.1429 -0.7347
   58MOL0     H 7797   5.851   8.164   7.804 -1.1218  1.4461 -0.0909
   58MOL0     H 7798   5.802   8.188   8.104  0.6451  1.3080 -0.3931
   58MOL0     H 7799   5.704   8.239   7.970 -0.9518 -1.0855 -0.0901
   58MOL0     H 7800   5.695   7.985   8.094  0.5140 -3.0008 -1.6169
   58MOL0     H 7801   5.769   7.944   7.940  2.7016 -0.1720  2.0815
   58MOL0     H 7802   5.589   8.052   7.806 -0.5153 -1.5135 -0.5676
   58MOL0     H 7803   5.526   8.103   7.974  0.5100 -1.7072  3.6251
   58MOL0     H 7804   5.450   7.891   8.030  0.0938 -1.0639 -0.3996
   58MOL0     H 7805   5.403   7.931   7.871 -1.4790 -1.2358  1.6609
   58MOL0     H 7806   5.623   7.734   7.959 -1.6423 -0.6579  0.5886
   58MOL0     H 7807   5.630   7.813   7.793  1.4453 -1.9759 -0.8107
   58MOL0     H 7808   5.437   7.624   7.914  2.1216 -1.8718  0.4847
   58MOL0     H 7809   5.414   7.692   7.751  0.1549  0.9518  1.1718
   58MOL0     H 7810   6.167   8.176   8.261  2.6311  1.8220 -0.4958
   58MOL0     H 7811   6.361   8.088   8.389 -1.4707  2.0269 -0.9977
   58MOL0     H 7812   6.571   7.738   8.541 -1.8552 -0.9823 -0.4089
   58MOL0     H 7813   6.692   7.569   8.663  1.1478 -2.2507 -0.3466
   58MOL0     H 7814   7.976   7.346   9.940 -0.9395  0.5339  0.6219
   58MOL0     H 7815   8.208   7.379  10.010 -1.2704 -0.1088  0.1556
   58MOL0     H 7816   8.546   7.761  10.017  2.1916  0.0657 -0.0211
   58MOL0     H 7817   8.781   7.802  10.026 -3.9680  0.5882 -3.0048
   58MOL0     H 7818   9.092   7.481  10.185  0.2484 -1.6324 -0.6303
   58MOL0     H 7819   9.180   7.617  10.124 -0.0613 -0.1238  2.1464
   58MOL0     H 7820   9.002   7.427   9.957  0.4275 -0.5127 -1.2430
   58MOL0     H 7821   9.175   7.416   9.962 -1.9855 -2.1451 -3.0020
   58MOL0     H 7822   9.023   7.679   9.888 -2.0397 -0.7806 -0.6876
   58MOL0     H 7823   9.064   7.560   9.780 -2.2203 -2.4124  2.1087
   58MOL0     H 7824   9.231   7.740   9.768 -2.4313 -0.7627 -0.5412
   58MOL0     H 7825   9.256   7.731   9.944  1.1342 -1.9424  0.7582
   58MOL0     H 7826   9.520   7.436   9.804  0.8905  1.6543 -2.0066
   58MOL0     H 7827   8.858   7.391  10.153 -2.0573 -1.8993 -1.6161
   58MOL0     H 7828   8.607   7.279  10.245 -0.0715  0.3166  0.0024
   58MOL0     H 7829   8.523   7.296  10.092 -1.6673  0.4646  2.9955
   58MOL0     H 7830   8.694   7.257  10.085 -0.8161 -0.0510 -0.2922
   59MOL0     O 7831   7.585  10.425   4.104  0.1709 -0.7646 -0.2476
   59MOL0     C 7832   7.549  10.336   4.180  0.9636 -0.1893  1.2646
   59MOL0     O 7833   7.554  10.345   4.309  0.0359 -0.7860 -0.8489
   59MOL0     C 7834   7.645  10.432   4.367 -1.0634  0.0491 -0.2984
   59MOL0     C 7835   7.634  10.568   4.365 -0.2972  0.0799 -0.3007
   59MOL0     C 7836   7.728  10.655   4.423 -0.2484 -0.5174  0.6738
   59MOL0     C 7837   7.833  10.596   4.497  0.0621 -0.5079  1.1465
   59MOL0     O 7838   7.931  10.675   4.550 -0.1662  0.4764  0.3085
   59MOL0     C 7839   8.043  10.608   4.618  0.5600  0.4239 -0.0086
   59MOL0     C 7840   8.146  10.714   4.630  0.7453  0.1475  0.1314
   59MOL0     C 7841   8.263  10.655   4.712 -0.8660 -0.8142 -0.7068
   59MOL0     C 7842   8.392  10.745   4.715  1.2239  0.4266  1.1400
   59MOL0     C 7843   8.510  10.683   4.789  1.2031  0.3893  0.1985
   59MOL0     C 7844   8.652  10.715   4.740 -0.4110 -0.3995  0.8251
   59MOL0     C 7845   8.767  10.636   4.800  0.8604  0.7045  0.3274
   59MOL0     C 7846   8.897  10.714   4.757 -0.4302  0.6060 -0.8157
   59MOL0     N 7847   9.021  10.656   4.802 -0.0760  0.1929  0.6342
   59MOL0     C 7848   9.106  10.724   4.886  0.3005  0.1651  0.8131
   59MOL0     C 7849   9.216  10.643   4.891  0.1408  0.4798 -0.0424
   59MOL0     C 7850   9.340  10.657   4.975 -0.3243 -0.0958 -0.5174
   59MOL0     C 7851   9.315  10.595   5.110  0.4080 -0.6363  0.2465
   59MOL0     C 7852   9.440  10.551   5.189 -0.3037  0.0994  1.3342
   59MOL0     C 7853   9.504  10.660   5.275  0.3064  0.6439  0.8197
   59MOL0     O 7854   9.614  10.607   5.346 -0.0030 -0.6439  0.3663
   59MOL0     C 7855   9.673  10.700   5.429 -0.5454 -0.4766  0.1861
   59MOL0     C 7856   9.799  10.668   5.467 -0.4590 -0.1645 -0.9493
   59MOL0     C 7857   9.887  10.749   5.544  0.0202  0.0025 -0.0304
   59MOL0     C 7858   9.844  10.877   5.582  0.4022  0.3093  0.0915
   59MOL0     C 7859   9.927  10.968   5.672  0.1390  0.4738 -0.4681
   59MOL0     O 7860  10.057  10.932   5.690 -0.3780 -0.3948 -0.1167
   59MOL0     C 7861  10.144  11.023   5.754  0.2952  0.1168  0.8523
   59MOL0     C 7862  10.247  10.976   5.844  0.0512  0.2136  0.0388
   59MOL0     C 7863  10.327  11.060   5.924  0.4679  0.6150  0.2047
   59MOL0     C 7864  10.318  11.196   5.905 -0.3420 -0.3239  0.4904
   59MOL0     O 7865  10.408  11.274   5.977  0.4987  0.2187  0.0618
   59MOL0     C 7866  10.438  11.404   5.930 -0.1149 -0.2073  0.3889
   59MOL0     C 7867  10.561  11.455   5.998 -0.3512  0.1744 -1.8648
   59MOL0     C 7868  10.672  11.364   5.947 -0.7366  1.0223  0.0737
   59MOL0     C 7869  10.798  11.372   6.025  0.6323  1.1063  0.2618
   59MOL0     C 7870  10.867  11.506   6.013 -0.1913 -0.4580 -0.0824
   59MOL0     C 7871  10.952  11.539   6.139 -0.5478 -0.7737  0.5765
   59MOL0     C 7872  11.020  11.677   6.110 -0.1407  1.0239 -0.1635
   59MOL0     C 7873  11.129  11.712   6.216 -0.1068 -0.1950  0.6665
   59MOL0    Cl 7874  11.259  11.583   6.217  0.3407 -0.0641 -0.2928
   59MOL0     C 7875  10.229  11.249   5.814  0.2547  0.3027 -0.0979
   59MOL0     C 7876  10.143  11.164   5.737  0.7741 -0.1657  0.3324
   59MOL0     O 7877   9.865  11.060   5.730 -0.5157  0.2448 -0.1576
   59MOL0     C 7878   9.709  10.917   5.534 -0.4302  0.2850  0.1184
   59MOL0     C 7879   9.632  10.834   5.450  0.1035  0.0721  0.6683
   59MOL0     N 7880   9.193  10.537   4.802  1.2142 -0.2368  0.7835
   59MOL0     N 7881   9.073  10.544   4.750 -0.3686  0.5208  0.5111
   59MOL0     C 7882   7.829  10.461   4.516 -0.8365  0.8210 -0.0962
   59MOL0     C 7883   7.741  10.379   4.447 -0.1534  0.4276 -0.3154
   59MOL0     C 7884   7.492  10.212   4.117  0.5225  0.7071  0.1868
   59MOL0     C 7885   7.428  10.121   4.204 -0.4836  0.0611  0.5584
   59MOL0     C 7886   7.360  10.012   4.150  0.4337  0.2447  0.5469
   59MOL0     C 7887   7.358   9.980   4.013 -0.2459 -0.5113  0.3978
   59MOL0     O 7888   7.296   9.864   3.974 -0.4493  0.1263 -1.0302
   59MOL0     C 7889   7.265   9.840   3.837  0.8944 -0.2873 -0.9698
   59MOL0     C 7890   7.157   9.736   3.839  0.5536  0.4148 -0.2789
   59MOL0     C 7891   7.045   9.753   3.945  0.3298  0.4271 -0.5562
   59MOL0     C 7892   6.950   9.628   3.943  0.4647 -0.1494 -0.9710
   59MOL0     C 7893   6.888   9.601   3.817  1.0633  0.8471 -0.5461
   59MOL0     C 7894   6.817   9.576   3.724 -0.3073 -0.3001  0.0612
   59MOL0     C 7895   7.433  10.068   3.929  0.0691 -0.8825  0.1121
   59MOL0     C 7896   7.487  10.189   3.977  0.1406 -0.1860  0.1758
   59MOL0     C 7897   7.559  10.272   3.870  0.0219 -0.2438  0.4394
   59MOL0     H 7898   7.544  10.611   4.322 -0.5262  3.5560  3.1759
   59MOL0     H 7899   7.724  10.763   4.417  1.8721 -0.4276 -0.0069
   59MOL0     H 7900   8.009  10.576   4.717 -2.5628  1.3110 -0.6717
   59MOL0     H 7901   8.082  10.516   4.574  0.4377 -1.1650  2.9295
   59MOL0     H 7902   8.102  10.804   4.673  0.0482 -0.1117 -0.0244
   59MOL0     H 7903   8.188  10.726   4.529  1.9239 -0.4317  0.5295
   59MOL0     H 7904   8.287  10.562   4.659 -0.9246 -0.0248 -2.1736
   59MOL0     H 7905   8.227  10.635   4.814  2.1961 -1.0586  0.4164
   59MOL0     H 7906   8.423  10.764   4.612 -0.2989 -2.7282 -0.0462
   59MOL0     H 7907   8.369  10.845   4.750 -0.4666  0.0955  1.0849
   59MOL0     H 7908   8.502  10.699   4.897  0.0026 -1.5573  0.4401
   59MOL0     H 7909   8.504  10.575   4.775  1.2955  0.4613 -0.4267
   59MOL0     H 7910   8.657  10.697   4.632 -0.6229 -0.4331  0.8201
   59MOL0     H 7911   8.670  10.822   4.758 -0.8567  0.1127 -1.4618
   59MOL0     H 7912   8.770  10.541   4.747 -2.5156  1.0336 -0.6771
   59MOL0     H 7913   8.770  10.625   4.909  1.9145  3.7916  0.7139
   59MOL0     H 7914   8.897  10.708   4.648  0.8089  1.1424 -0.8557
   59MOL0     H 7915   8.893  10.815   4.799 -0.0469  0.1154  0.4454
   59MOL0     H 7916   9.088  10.821   4.931 -1.5723  0.4893 -0.5435
   59MOL0     H 7917   9.425  10.620   4.915  1.7027 -0.4754  2.3727
   59MOL0     H 7918   9.365  10.763   4.985 -1.2331  0.1053 -0.2848
   59MOL0     H 7919   9.247  10.668   5.154 -2.0774 -0.4702 -3.4092
   59MOL0     H 7920   9.259  10.504   5.090 -1.3367  0.6026 -0.8113
   59MOL0     H 7921   9.514  10.514   5.118 -0.1951  0.3608  1.3100
   59MOL0     H 7922   9.427  10.471   5.263  3.5497  0.0368  2.1334
   59MOL0     H 7923   9.422  10.693   5.339 -1.5509 -0.6000 -0.7791
   59MOL0     H 7924   9.532  10.747   5.214 -0.9062 -0.2752 -1.1724
   59MOL0     H 7925   9.835  10.573   5.427  2.1897  0.4895 -0.3348
   59MOL0     H 7926   9.981  10.704   5.574  0.8393  2.4073  1.3164
   59MOL0     H 7927  10.269  10.870   5.842  0.3338  0.2850 -2.0186
   59MOL0     H 7928  10.399  11.023   5.996 -1.6903 -0.6508  1.8572
   59MOL0     H 7929  10.457  11.406   5.823 -0.9170 -0.9886  0.2196
   59MOL0     H 7930  10.349  11.460   5.962  0.4016 -0.0241  1.5653
   59MOL0     H 7931  10.584  11.560   5.981 -1.6058  0.8007  0.0787
   59MOL0     H 7932  10.542  11.443   6.105 -0.7466 -0.2492 -1.9766
   59MOL0     H 7933  10.650  11.257   5.941  0.4058  0.6745  1.5624
   59MOL0     H 7934  10.689  11.399   5.845 -1.6135  0.1575 -0.3846
   59MOL0     H 7935  10.866  11.295   5.988  1.3175  0.9707  1.7344
   59MOL0     H 7936  10.774  11.353   6.130  0.0212  0.7503  0.0584
   59MOL0     H 7937  10.802  11.592   5.992  1.3518  0.3773 -1.7339
   59MOL0     H 7938  10.938  11.511   5.930  0.2585  0.9621  0.3484
   59MOL0     H 7939  10.890  11.553   6.229 -3.2166  1.4608 -1.4288
   59MOL0     H 7940  11.028  11.463   6.160  0.4644  0.4807  1.6443
   59MOL0     H 7941  10.943  11.755   6.115 -2.7245 -1.4395  0.5523
   59MOL0     H 7942  11.062  11.675   6.009 -0.1754 -1.9122 -0.1867
   59MOL0     H 7943  11.169  11.807   6.179 -1.7727  0.1890 -0.2454
   59MOL0     H 7944  11.078  11.730   6.311  1.3281  2.4465  1.0257
   59MOL0     H 7945  10.231  11.357   5.807  1.2669  0.3647  0.9418
   59MOL0     H 7946  10.079  11.216   5.667  0.2176  0.5953  1.3714
   59MOL0     H 7947   9.671  11.018   5.550  0.8765  0.7264  0.5542
   59MOL0     H 7948   9.538  10.875   5.414 -0.2067 -0.1206  1.2574
   59MOL0     H 7949   7.895  10.414   4.590 -0.3716  3.0771  1.0107
   59MOL0     H 7950   7.738  10.274   4.475  1.5770  0.3878 -0.1670
   59MOL0     H 7951   7.432  10.132   4.312  3.2189 -1.5707  0.7284
   59MOL0     H 7952   7.319   9.933   4.212  1.1686 -2.1819 -1.8531
   59MOL0     H 7953   7.357   9.811   3.785  2.5955  0.9390  1.1352
   59MOL0     H 7954   7.210   9.925   3.796 -3.2084 -1.6358  1.2445
   59MOL0     H 7955   7.198   9.637   3.860 -3.7607 -1.1827  1.8379
   59MOL0     H 7956   7.119   9.734   3.736 -0.8341  0.3008  0.2150
   59MOL0     H 7957   6.990   9.847   3.928 -0.5744 -0.0317 -0.2581
   59MOL0     H 7958   7.083   9.749   4.047  1.7141 -1.7750 -1.0985
   59MOL0     H 7959   7.005   9.536   3.964 -0.2259 -0.1007  1.4037
   59MOL0     H 7960   6.875   9.646   4.021  1.1561  0.8948 -0.5409
   59MOL0     H 7961   6.746   9.572   3.643 -0.0930  0.3701 -0.1698
   59MOL0     H 7962   7.441  10.046   3.823  2.8748  3.0152 -0.7013
   59MOL0     H 7963   7.655  10.311   3.907 -0.7520 -0.5902  2.9427
   59MOL0     H 7964   7.580  10.218   3.777 -1.9041 -2.1224  1.0480
   59MOL0     H 7965   7.501  10.364   3.854 -2.6468 -1.7588  0.8811
   60MOL0     O 7966   6.888   4.756  10.526  0.6014 -0.0614 -0.2627
   60MOL0     C 7967   6.820   4.813  10.442  0.0414 -0.8868 -0.3856
   60MOL0     O 7968   6.867   4.909  10.372 -0.1377 -0.3094 -0.4551
   60MOL0     C 7969   7.002   4.942  10.367 -0.8407 -0.7031 -0.4646
   60MOL0     C 7970   7.070   5.007  10.473  0.8882  0.4457 -1.0926
   60MOL0     C 7971   7.197   5.053  10.463  0.3387  0.2632  0.0282
   60MOL0     C 7972   7.267   5.046  10.336  1.4112 -0.2966  0.7811
   60MOL0     O 7973   7.392   5.096  10.327 -0.1739 -0.1543  0.3628
   60MOL0     C 7974   7.487   5.000  10.296  0.0167  0.9452  0.0925
   60MOL0     C 7975   7.628   5.064  10.306  0.3905  0.1197 -0.0537
   60MOL0     C 7976   7.661   5.106  10.450 -0.1693  0.8753 -0.5937
   60MOL0     C 7977   7.791   5.174  10.453 -0.4454 -0.3122  0.0222
   60MOL0     C 7978   7.832   5.228  10.592  0.2187 -0.2941 -0.1552
   60MOL0     C 7979   7.948   5.325  10.589 -0.1179  0.4911  0.7856
   60MOL0     C 7980   8.082   5.249  10.568 -0.5392  0.7172  0.5854
   60MOL0     C 7981   8.152   5.215  10.694 -0.6264  0.2914  0.0874
   60MOL0     N 7982   8.298   5.203  10.682 -0.2379 -0.8832 -0.9085
   60MOL0     C 7983   8.374   5.297  10.612  0.6125  0.1737 -0.2986
   60MOL0     C 7984   8.486   5.229  10.566  0.2456 -0.1583 -0.9939
   60MOL0     C 7985   8.609   5.291  10.492  0.4694  0.2773  0.6354
   60MOL0     C 7986   8.683   5.183  10.417  0.3582 -0.3607 -0.5725
   60MOL0     C 7987   8.775   5.261  10.320  0.4789  0.0888 -0.7375
   60MOL0     C 7988   8.907   5.290  10.390 -0.3719 -0.8938 -0.1120
   60MOL0     O 7989   9.008   5.350  10.308 -1.0801 -0.3977  0.4250
   60MOL0     C 7990   9.009   5.470  10.225 -0.1842  1.2827 -0.4583
   60MOL0     C 7991   9.121   5.488  10.136  0.2490  0.0446 -0.4857
   60MOL0     C 7992   9.122   5.585  10.040 -0.2188  0.4149  0.2208
   60MOL0     C 7993   9.021   5.678  10.039  0.4864  0.3628  0.2901
   60MOL0     C 7994   9.025   5.783   9.941  0.3345  0.0980 -1.0096
   60MOL0     O 7995   9.065   5.745   9.824 -0.4128 -0.1826  0.5304
   60MOL0     C 7996   9.103   5.843   9.734 -0.4499  0.2267  0.6944
   60MOL0     C 7997   9.049   5.854   9.603  0.9480  1.5336 -0.3233
   60MOL0     C 7998   9.097   5.938   9.504 -0.4270  0.2263  0.7059
   60MOL0     C 7999   9.198   6.028   9.545  0.4820  0.3721  0.1135
   60MOL0     O 8000   9.245   6.134   9.463  0.5540  0.6253  0.2297
   60MOL0     C 8001   9.194   6.143   9.328  0.8758  0.2278 -0.0907
   60MOL0     C 8002   9.261   6.257   9.251  0.6247 -0.5010 -0.0365
   60MOL0     C 8003   9.192   6.280   9.118 -0.7633  0.1178 -0.1523
   60MOL0     C 8004   9.043   6.323   9.119 -0.3939 -0.9029  0.0038
   60MOL0     C 8005   8.949   6.205   9.081 -0.1571 -0.3644  0.4503
   60MOL0     C 8006   8.810   6.228   9.134 -0.5540 -0.1088 -0.0444
   60MOL0     C 8007   8.731   6.102   9.083 -0.7176 -0.2655  0.3284
   60MOL0     C 8008   8.584   6.089   9.120 -0.4535  0.2741  0.6037
   60MOL0    Cl 8009   8.498   6.252   9.092  0.3493 -0.1042 -0.0305
   60MOL0     C 8010   9.263   6.011   9.666 -0.5129 -0.4610 -0.5668
   60MOL0     C 8011   9.210   5.924   9.767 -0.8185  0.3029 -0.0590
   60MOL0     O 8012   9.016   5.896   9.987  0.3879 -0.0844  0.0309
   60MOL0     C 8013   8.916   5.677  10.136  0.0603 -0.5200 -0.8696
   60MOL0     C 8014   8.908   5.567  10.225  0.4589 -0.1394 -0.0278
   60MOL0     N 8015   8.474   5.093  10.611 -0.2259 -0.4150 -0.0361
   60MOL0     N 8016   8.369   5.084  10.681  0.4085 -0.9763  0.0577
   60MOL0     C 8017   7.198   4.973  10.234 -0.4403  0.4847  0.6683
   60MOL0     C 8018   7.079   4.911  10.252 -0.5249 -0.7601  0.0185
   60MOL0     C 8019   6.695   4.759  10.406  0.0194 -0.2997  0.1984
   60MOL0     C 8020   6.634   4.814  10.289 -0.3099 -0.0518  0.0797
   60MOL0     C 8021   6.515   4.768  10.240 -0.1694  0.0306 -0.3392
   60MOL0     C 8022   6.447   4.665  10.308  1.0013  1.0224 -0.5388
   60MOL0     O 8023   6.322   4.633  10.264  0.1287  0.5803  0.2783
   60MOL0     C 8024   6.237   4.543  10.327  0.2489  0.7973 -0.9441
   60MOL0     C 8025   6.092   4.586  10.279 -1.2318 -0.4992  0.2902
   60MOL0     C 8026   5.989   4.497  10.331 -0.1299 -0.9368  1.0742
   60MOL0     C 8027   5.841   4.526  10.289 -0.1545 -1.1879  0.2946
   60MOL0     C 8028   5.828   4.473  10.150  0.6734 -0.8793  0.4052
   60MOL0     C 8029   5.820   4.438  10.035  0.6591 -0.2181 -0.5222
   60MOL0     C 8030   6.508   4.605  10.414 -0.7842 -0.6625  0.4689
   60MOL0     C 8031   6.629   4.654  10.465 -0.3186  0.8075 -0.4412
   60MOL0     C 8032   6.681   4.595  10.606 -0.1064  1.0768  0.1389
   60MOL0     H 8033   7.019   5.020  10.568  0.5233  1.1243 -1.3756
   60MOL0     H 8034   7.243   5.095  10.551  0.0825 -1.5095  1.0709
   60MOL0     H 8035   7.481   4.914  10.365  0.9738 -0.6008 -1.6623
   60MOL0     H 8036   7.479   4.963  10.194  1.0074  3.0295 -0.7991
   60MOL0     H 8037   7.621   5.150  10.238 -2.2137  1.1455  1.3294
   60MOL0     H 8038   7.709   5.001  10.270  3.0573  2.4437  1.4938
   60MOL0     H 8039   7.668   5.018  10.514  0.5598  1.6085  0.3716
   60MOL0     H 8040   7.584   5.178  10.477 -1.7255  1.0975 -4.8508
   60MOL0     H 8041   7.866   5.102  10.418 -1.0608 -0.4738 -1.0157
   60MOL0     H 8042   7.793   5.260  10.385 -2.0618  0.3506  0.7676
   60MOL0     H 8043   7.746   5.287  10.628  0.9677  1.1421 -0.6456
   60MOL0     H 8044   7.845   5.148  10.665  2.3895  0.0114 -0.1456
   60MOL0     H 8045   7.948   5.401  10.511  1.5741 -0.1497  0.1179
   60MOL0     H 8046   7.948   5.378  10.684  0.3099  1.2142  0.3845
   60MOL0     H 8047   8.149   5.302  10.500 -0.0131 -2.4132 -1.5344
   60MOL0     H 8048   8.068   5.151  10.523  4.1341 -0.2678  0.7207
   60MOL0     H 8049   8.127   5.283  10.776  2.0804 -0.1879  1.4081
   60MOL0     H 8050   8.119   5.114  10.724  0.4486  0.4285  1.8863
   60MOL0     H 8051   8.352   5.399  10.582 -0.3925 -0.1683 -0.7746
   60MOL0     H 8052   8.585   5.376  10.427  2.6978 -0.6675 -1.5924
   60MOL0     H 8053   8.678   5.328  10.568  0.4250  3.4349 -0.7055
   60MOL0     H 8054   8.742   5.130  10.492 -1.7424  0.4794  1.8132
   60MOL0     H 8055   8.621   5.107  10.369 -1.6135 -0.5493  2.0686
   60MOL0     H 8056   8.720   5.350  10.289 -3.7926 -0.1509  4.6032
   60MOL0     H 8057   8.793   5.198  10.232 -0.7473 -3.5516  1.3646
   60MOL0     H 8058   8.942   5.198  10.438 -0.8203 -0.5078  0.9748
   60MOL0     H 8059   8.888   5.365  10.467  1.9424 -1.1101  0.7431
   60MOL0     H 8060   9.204   5.418  10.140 -1.1020 -1.8999 -3.2347
   60MOL0     H 8061   9.205   5.588   9.970  1.0103  0.8999  1.6493
   60MOL0     H 8062   8.978   5.777   9.574 -1.0345  2.4477  1.7683
   60MOL0     H 8063   9.046   5.933   9.408 -0.8336 -2.8002  0.9954
   60MOL0     H 8064   9.209   6.047   9.278  0.9788  2.1282 -4.0780
   60MOL0     H 8065   9.086   6.158   9.329  0.5837 -1.6883 -0.2855
   60MOL0     H 8066   9.243   6.351   9.304 -2.4338 -1.0775  0.1385
   60MOL0     H 8067   9.367   6.232   9.237  0.5553 -0.6402 -0.3336
   60MOL0     H 8068   9.260   6.347   9.064  0.7292 -2.1809 -1.3126
   60MOL0     H 8069   9.191   6.184   9.065  1.2392 -0.5030  0.8165
   60MOL0     H 8070   9.024   6.415   9.064 -1.3138 -0.7021  0.6447
   60MOL0     H 8071   9.019   6.351   9.222 -0.8849  0.7796 -0.5462
   60MOL0     H 8072   8.988   6.114   9.127 -1.4160 -1.3560 -0.3448
   60MOL0     H 8073   8.943   6.193   8.972 -0.3014  1.6073  0.2148
   60MOL0     H 8074   8.812   6.217   9.243 -0.1436 -0.5864 -0.1020
   60MOL0     H 8075   8.774   6.330   9.113 -1.1331  0.5821  3.5546
   60MOL0     H 8076   8.786   6.017   9.125  0.8591  1.8466  2.9417
   60MOL0     H 8077   8.731   6.095   8.974 -0.8762 -0.4525  0.3411
   60MOL0     H 8078   8.538   6.001   9.074 -0.3945  0.4916  0.1305
   60MOL0     H 8079   8.584   6.079   9.229 -1.9050  0.9819  0.6875
   60MOL0     H 8080   9.344   6.082   9.686 -1.3781  0.1772  0.8925
   60MOL0     H 8081   9.254   5.916   9.866  1.2858 -0.8782 -1.0109
   60MOL0     H 8082   8.842   5.757  10.130 -0.1074 -0.6704 -0.8154
   60MOL0     H 8083   8.827   5.568  10.297 -2.3587  1.0221 -2.9860
   60MOL0     H 8084   7.249   4.973  10.138 -0.2824  0.6442  0.7529
   60MOL0     H 8085   7.051   4.860  10.160  0.2546 -1.2182  0.0262
   60MOL0     H 8086   6.686   4.889  10.232 -0.3210  0.6927  1.0146
   60MOL0     H 8087   6.462   4.819  10.160  1.3900  1.2177 -0.6508
   60MOL0     H 8088   6.241   4.537  10.437  0.2072  1.7978 -0.8798
   60MOL0     H 8089   6.260   4.441  10.294  1.5942  0.6506  0.3020
   60MOL0     H 8090   6.086   4.597  10.170 -1.0607  2.4699  0.5207
   60MOL0     H 8091   6.077   4.687  10.316 -3.0987  0.4091 -2.5781
   60MOL0     H 8092   5.994   4.486  10.439  1.1909  2.6191  1.4965
   60MOL0     H 8093   6.019   4.398  10.296  0.3311 -0.9870  1.5981
   60MOL0     H 8094   5.776   4.489  10.369 -0.0810  1.9547  1.9565
   60MOL0     H 8095   5.812   4.631  10.293 -1.8376 -1.6155  4.6874
   60MOL0     H 8096   5.819   4.412   9.931  2.4884  0.3801 -0.7306
   60MOL0     H 8097   6.457   4.520  10.458 -0.7358 -0.3132  1.2200
   60MOL0     H 8098   6.753   4.515  10.584 -1.5140 -0.4710  0.9844
   60MOL0     H 8099   6.730   4.665  10.674 -0.7454 -1.9332  4.0225
   60MOL0     H 8100   6.595   4.547  10.652 -2.3645  1.1455 -3.5720
   61MOL0     O 8101   4.186   8.629   6.251 -0.0590 -0.3531 -0.3512
   61MOL0     C 8102   4.276   8.556   6.214  0.6053  0.4198  0.3360
   61MOL0     O 8103   4.270   8.414   6.212  0.7750  0.0506  0.2539
   61MOL0     C 8104   4.153   8.345   6.251 -1.5575 -0.8721 -0.0203
   61MOL0     C 8105   4.149   8.218   6.198  0.3968 -0.4329  0.8354
   61MOL0     C 8106   4.043   8.129   6.231  1.0927  0.0444  0.0581
   61MOL0     C 8107   3.947   8.159   6.329  0.1408 -0.0828 -0.5231
   61MOL0     O 8108   3.861   8.055   6.357 -0.5033  0.3008 -0.0529
   61MOL0     C 8109   3.820   8.018   6.482 -0.1316  0.1207 -0.6669
   61MOL0     C 8110   3.682   7.965   6.490 -0.7504 -0.7254 -0.6738
   61MOL0     C 8111   3.566   8.065   6.495 -0.2005 -0.0386  0.4114
   61MOL0     C 8112   3.438   7.995   6.516  1.5037  0.5516 -0.1577
   61MOL0     C 8113   3.320   8.093   6.504  0.7070 -0.1769 -0.8293
   61MOL0     C 8114   3.198   8.015   6.520  0.3602 -0.1921 -0.5963
   61MOL0     C 8115   3.072   8.104   6.523 -0.2784  0.1160 -0.1697
   61MOL0     C 8116   2.940   8.030   6.567  0.2143  0.9478  0.3582
   61MOL0     N 8117   2.860   7.955   6.465  0.3944 -0.3535 -0.2326
   61MOL0     C 8118   2.771   7.849   6.481  0.0740 -1.0818 -0.3129
   61MOL0     C 8119   2.692   7.848   6.369 -0.2352  0.0861 -1.1760
   61MOL0     C 8120   2.571   7.755   6.353  0.4665  0.1241 -0.5118
   61MOL0     C 8121   2.505   7.694   6.480  0.5216 -0.1850  0.0140
   61MOL0     C 8122   2.383   7.610   6.428 -0.2325  0.3914  0.9692
   61MOL0     C 8123   2.255   7.691   6.414 -0.1871  0.0477 -0.2628
   61MOL0     O 8124   2.224   7.763   6.541  0.5749 -0.0085  0.0168
   61MOL0     C 8125   2.099   7.814   6.569 -0.9218  0.1340 -1.1249
   61MOL0     C 8126   2.075   7.855   6.706  0.0113 -1.5634 -0.2092
   61MOL0     C 8127   1.946   7.896   6.735  0.9058  0.1747 -0.6238
   61MOL0     C 8128   1.843   7.912   6.639  0.5582 -0.9466  0.6029
   61MOL0     C 8129   1.711   7.978   6.672 -0.0990 -0.4345 -0.2431
   61MOL0     O 8130   1.676   7.982   6.801  0.1036 -0.0045  0.1639
   61MOL0     C 8131   1.593   8.082   6.836  0.3911 -0.5923 -0.4352
   61MOL0     C 8132   1.481   8.043   6.917  1.1626  0.3215  0.2262
   61MOL0     C 8133   1.381   8.149   6.941 -0.4046  1.1697  0.2227
   61MOL0     C 8134   1.406   8.282   6.915 -0.4944 -1.0239 -0.0865
   61MOL0     O 8135   1.306   8.385   6.938 -0.7446  0.5898 -0.7069
   61MOL0     C 8136   1.188   8.347   7.012  0.1148  0.2366  0.0140
   61MOL0     C 8137   1.100   8.465   7.045  0.1538 -0.3565 -0.0973
   61MOL0     C 8138   1.093   8.575   6.934 -0.7286  0.1732 -0.2197
   61MOL0     C 8139   1.075   8.515   6.792  0.4976 -0.7385  0.0294
   61MOL0     C 8140   1.048   8.627   6.689  0.4479  0.0221 -0.5365
   61MOL0     C 8141   1.079   8.591   6.542  0.2047  0.2671 -0.7025
   61MOL0     C 8142   0.994   8.472   6.483  0.2352 -0.6782  0.6155
   61MOL0     C 8143   0.848   8.474   6.518  0.1746 -0.2687 -0.2000
   61MOL0    Cl 8144   0.786   8.313   6.468 -0.2293  0.2189 -0.1039
   61MOL0     C 8145   1.529   8.315   6.850 -0.7399  0.6081 -1.1845
   61MOL0     C 8146   1.615   8.213   6.802  0.0659 -0.3327  0.9041
   61MOL0     O 8147   1.652   8.028   6.583 -0.1962  0.3633 -0.5724
   61MOL0     C 8148   1.877   7.877   6.502 -0.0508  0.2998  0.1335
   61MOL0     C 8149   1.997   7.821   6.477  0.0666  0.2602 -0.1883
   61MOL0     N 8150   2.730   7.950   6.287 -0.7729  0.5967 -0.2333
   61MOL0     N 8151   2.834   8.009   6.341 -0.0192 -0.6235 -0.4256
   61MOL0     C 8152   3.955   8.286   6.390  0.3147  0.4261  0.0537
   61MOL0     C 8153   4.059   8.374   6.357 -0.5356 -1.0635 -0.1784
   61MOL0     C 8154   4.401   8.618   6.159 -0.4478 -0.3354 -0.4894
   61MOL0     C 8155   4.427   8.756   6.179 -0.8648 -0.6254 -0.1031
   61MOL0     C 8156   4.535   8.820   6.134 -0.5251  0.2480  0.0843
   61MOL0     C 8157   4.635   8.743   6.071  0.9831 -0.2308 -0.3652
   61MOL0     O 8158   4.747   8.795   6.015 -1.2695 -1.2025  0.2974
   61MOL0     C 8159   4.744   8.924   5.940  0.0331 -0.5942 -0.5204
   61MOL0     C 8160   4.842   9.011   6.012  1.1901 -0.2506 -0.7702
   61MOL0     C 8161   4.988   8.962   5.996  0.4385  0.6592  0.2452
   61MOL0     C 8162   5.042   8.877   6.114  0.2081  0.5197 -0.5271
   61MOL0     C 8163   5.189   8.884   6.121  0.6140 -0.2943  0.1310
   61MOL0     C 8164   5.307   8.896   6.121 -0.1200  0.5694 -0.8492
   61MOL0     C 8165   4.611   8.613   6.044 -0.2321 -0.3695 -0.2676
   61MOL0     C 8166   4.501   8.544   6.103 -1.0248  1.1639  0.3401
   61MOL0     C 8167   4.523   8.390   6.097  0.5014 -0.3860  0.3326
   61MOL0     H 8168   4.217   8.184   6.120 -1.4761 -0.6571 -0.7791
   61MOL0     H 8169   4.022   8.032   6.186 -2.8891 -0.4024  2.3173
   61MOL0     H 8170   3.895   7.946   6.515  2.1505  3.8302  3.3618
   61MOL0     H 8171   3.818   8.106   6.547 -1.8780  0.5613 -1.2781
   61MOL0     H 8172   3.683   7.914   6.587  0.4041  1.5796  0.6153
   61MOL0     H 8173   3.662   7.889   6.413 -3.6221 -2.1744  1.3036
   61MOL0     H 8174   3.555   8.101   6.392  0.8094  0.9711  0.6374
   61MOL0     H 8175   3.586   8.144   6.569  3.2828 -0.4194  0.0277
   61MOL0     H 8176   3.424   7.922   6.436  2.2715 -1.3428  1.3719
   61MOL0     H 8177   3.434   7.956   6.618 -0.0305  1.2862  0.0992
   61MOL0     H 8178   3.316   8.154   6.595 -5.6323  0.9619 -1.3686
   61MOL0     H 8179   3.319   8.156   6.414  3.8315  2.8915  1.0568
   61MOL0     H 8180   3.194   7.937   6.443  1.9917  0.7230 -1.6540
   61MOL0     H 8181   3.200   7.965   6.618 -2.5081  1.6816  0.5251
   61MOL0     H 8182   3.062   8.128   6.417  0.7084  4.6942  0.5646
   61MOL0     H 8183   3.088   8.200   6.574 -0.2784  0.6092 -1.0795
   61MOL0     H 8184   2.954   7.958   6.648 -0.4390  1.0939  0.6030
   61MOL0     H 8185   2.873   8.096   6.621 -0.3199 -2.0519  3.7041
   61MOL0     H 8186   2.730   7.803   6.570  1.0882 -2.3343 -0.4631
   61MOL0     H 8187   2.496   7.823   6.311 -1.6130 -1.4939  0.3640
   61MOL0     H 8188   2.595   7.675   6.283  1.4891  2.2605 -2.7377
   61MOL0     H 8189   2.576   7.630   6.533  0.4393 -0.2186  0.0855
   61MOL0     H 8190   2.457   7.761   6.552 -3.4730  1.3856 -3.6443
   61MOL0     H 8191   2.363   7.528   6.498 -2.6713  0.3467  0.3162
   61MOL0     H 8192   2.407   7.579   6.326 -0.1778 -2.2298  1.6840
   61MOL0     H 8193   2.176   7.629   6.373  0.0998  0.6139 -1.7062
   61MOL0     H 8194   2.270   7.760   6.331 -0.0946  0.7615  0.3366
   61MOL0     H 8195   2.154   7.844   6.779  2.7320 -0.0208 -2.7512
   61MOL0     H 8196   1.931   7.936   6.834  2.0107 -0.3232 -0.2420
   61MOL0     H 8197   1.473   7.937   6.938 -1.6786  0.5218  0.5233
   61MOL0     H 8198   1.280   8.125   6.975 -1.1890 -0.4678 -2.8654
   61MOL0     H 8199   1.135   8.274   6.950 -1.0915 -1.7776  3.2007
   61MOL0     H 8200   1.209   8.300   7.108  1.8355  0.3242 -0.2859
   61MOL0     H 8201   0.997   8.435   7.068 -0.7342  2.0767 -0.6477
   61MOL0     H 8202   1.126   8.516   7.139 -1.7210  0.6425 -0.0681
   61MOL0     H 8203   1.008   8.642   6.953 -0.7045  0.3007 -0.5595
   61MOL0     H 8204   1.184   8.635   6.925 -0.7242  0.2692  0.3931
   61MOL0     H 8205   0.984   8.455   6.801  0.4511 -0.6948 -0.1435
   61MOL0     H 8206   1.162   8.453   6.768  1.0631  0.1336 -0.2135
   61MOL0     H 8207   1.104   8.717   6.715  0.7919 -0.0646 -0.9485
   61MOL0     H 8208   0.944   8.659   6.699  0.0482 -1.4239  0.1404
   61MOL0     H 8209   1.070   8.681   6.479  1.5268  0.7088 -0.2894
   61MOL0     H 8210   1.184   8.565   6.530  0.8605  2.5181 -0.2484
   61MOL0     H 8211   1.035   8.380   6.526 -0.0168 -0.0050  2.3691
   61MOL0     H 8212   1.002   8.461   6.375  2.8447  0.4586  0.6231
   61MOL0     H 8213   0.820   8.491   6.622 -0.7664 -1.3538 -0.2656
   61MOL0     H 8214   0.791   8.556   6.472  0.0645 -0.0308  0.3573
   61MOL0     H 8215   1.564   8.415   6.828 -0.5211 -0.2155 -5.3164
   61MOL0     H 8216   1.705   8.236   6.746 -0.3743 -1.5074 -0.3293
   61MOL0     H 8217   1.791   7.857   6.439 -0.9633 -0.3199  1.5244
   61MOL0     H 8218   2.008   7.778   6.378 -1.9409 -0.0404 -0.3074
   61MOL0     H 8219   3.868   8.322   6.445 -0.8824  2.3465 -2.8567
   61MOL0     H 8220   4.074   8.468   6.411  2.4800 -2.4745  1.7249
   61MOL0     H 8221   4.355   8.804   6.244  1.4836  4.0473 -0.5916
   61MOL0     H 8222   4.540   8.925   6.162 -2.2945  0.0943  1.0949
   61MOL0     H 8223   4.644   8.968   5.944  1.1187  1.9366  1.4823
   61MOL0     H 8224   4.766   8.912   5.833  0.8148 -1.2465 -0.3021
   61MOL0     H 8225   4.813   9.009   6.117  0.7600  1.0553 -0.8473
   61MOL0     H 8226   4.829   9.114   5.978  1.3152 -0.7014 -2.2624
   61MOL0     H 8227   5.052   9.049   5.983 -0.3392  0.9104 -2.4736
   61MOL0     H 8228   4.986   8.900   5.906  1.8286  2.6717 -1.2560
   61MOL0     H 8229   5.014   8.921   6.210  1.2214 -0.0414  0.0485
   61MOL0     H 8230   5.018   8.770   6.108 -1.0613  0.6202  1.8109
   61MOL0     H 8231   5.414   8.903   6.125 -0.0425 -0.6015 -0.7476
   61MOL0     H 8232   4.688   8.555   5.994  2.0007  2.2784 -0.1035
   61MOL0     H 8233   4.615   8.365   6.043 -0.4029 -0.5380 -1.1767
   61MOL0     H 8234   4.541   8.348   6.197  0.2876 -0.0847  0.4997
   61MOL0     H 8235   4.435   8.335   6.061 -0.0715  1.5403 -1.3848
   62MOL0     O 8236  10.702   7.207   1.398  0.0877  0.5890  0.1313
   62MOL0     C 8237  10.616   7.191   1.484  0.7507  0.3094  0.0251
   62MOL0     O 8238  10.625   7.102   1.588  0.4976 -0.1639 -0.4785
   62MOL0     C 8239  10.743   7.063   1.640 -0.1489  0.4667  1.1286
   62MOL0     C 8240  10.765   7.079   1.777  0.6913 -0.7479  0.4705
   62MOL0     C 8241  10.876   7.021   1.839 -0.5717 -0.4532 -0.7251
   62MOL0     C 8242  10.981   6.967   1.769 -0.5135 -0.1187 -0.8214
   62MOL0     O 8243  11.072   6.921   1.857  0.6789 -0.3897  0.1109
   62MOL0     C 8244  11.062   6.783   1.890  1.2389 -0.2418  0.2973
   62MOL0     C 8245  11.169   6.687   1.836 -0.5914 -1.0693  0.6904
   62MOL0     C 8246  11.174   6.550   1.905  0.2218 -0.4104  0.4110
   62MOL0     C 8247  11.220   6.434   1.812  0.4253 -0.2589  0.2457
   62MOL0     C 8248  11.322   6.349   1.880 -0.1152  0.8794  0.2706
   62MOL0     C 8249  11.394   6.254   1.771  0.4873 -1.0147 -0.0134
   62MOL0     C 8250  11.508   6.167   1.832  0.7894 -0.2026  1.1869
   62MOL0     C 8251  11.455   6.056   1.924  1.0997 -0.6070 -0.0465
   62MOL0     N 8252  11.568   5.980   1.948  0.5667  0.3020 -0.3654
   62MOL0     C 8253  11.689   6.011   2.004 -0.3113 -0.1273  1.0052
   62MOL0     C 8254  11.769   5.906   1.990 -0.1351 -0.0418 -0.8255
   62MOL0     C 8255  11.899   5.907   2.064 -0.3708 -0.3267  0.0275
   62MOL0     C 8256  12.006   5.852   1.965  0.4202 -0.0012  0.0338
   62MOL0     C 8257  12.082   5.725   1.995 -0.2130  0.2141 -0.0541
   62MOL0     C 8258  11.988   5.603   2.029 -0.4386  1.1333  0.4943
   62MOL0     O 8259  12.071   5.487   2.012  0.2517 -0.4195  0.2561
   62MOL0     C 8260  12.043   5.375   2.089 -2.2880 -0.7493 -0.0215
   62MOL0     C 8261  11.923   5.354   2.163  0.0720 -0.5277  1.0129
   62MOL0     C 8262  11.896   5.232   2.223  0.8933 -0.7005  0.6921
   62MOL0     C 8263  11.974   5.120   2.203 -0.1262  0.3998 -0.2754
   62MOL0     C 8264  11.947   4.982   2.273  0.1674 -0.1176 -0.3967
   62MOL0     O 8265  12.040   4.882   2.269 -0.6917  0.3710  0.0397
   62MOL0     C 8266  12.018   4.758   2.314 -0.5232  0.4316  1.4260
   62MOL0     C 8267  11.996   4.658   2.219 -0.3883  0.3034  0.4873
   62MOL0     C 8268  11.961   4.532   2.250 -0.3139  0.3791 -0.1115
   62MOL0     C 8269  11.950   4.491   2.390  0.8893  1.1271 -0.7706
   62MOL0     O 8270  11.889   4.364   2.406 -0.5588  0.0260  1.1609
   62MOL0     C 8271  11.879   4.315   2.545 -0.3111 -0.3485  0.2664
   62MOL0     C 8272  11.809   4.180   2.549 -0.7914  0.1311  0.3746
   62MOL0     C 8273  11.786   4.151   2.700  1.1421 -0.1812 -0.1214
   62MOL0     C 8274  11.908   4.102   2.779  0.4899  0.0400  0.0122
   62MOL0     C 8275  11.884   4.016   2.904 -0.5956 -0.2008 -0.2341
   62MOL0     C 8276  11.770   4.059   3.005  0.1903  0.5008 -1.0648
   62MOL0     C 8277  11.721   3.936   3.083 -0.3221 -0.7548  0.3946
   62MOL0     C 8278  11.660   3.993   3.204  0.3994  1.2968 -0.6955
   62MOL0    Cl 8279  11.742   4.110   3.321 -0.5735  0.5833  0.9752
   62MOL0     C 8280  11.976   4.592   2.491  0.0929 -0.3788 -0.2635
   62MOL0     C 8281  12.010   4.724   2.453 -0.2817 -0.4746  0.9816
   62MOL0     O 8282  11.828   4.962   2.306 -0.3327 -0.1365 -1.0328
   62MOL0     C 8283  12.101   5.143   2.139  0.3935  0.2846  0.7474
   62MOL0     C 8284  12.132   5.266   2.078 -0.2027 -0.0043 -0.0295
   62MOL0     N 8285  11.700   5.804   1.940  0.5533 -0.3471 -0.7825
   62MOL0     N 8286  11.578   5.846   1.917  0.5571 -0.0552  0.7771
   62MOL0     C 8287  10.966   6.956   1.630  0.1510 -0.2145 -0.1568
   62MOL0     C 8288  10.843   6.984   1.564  0.8834  0.1218 -0.2375
   62MOL0     C 8289  10.482   7.250   1.472 -0.1211  0.7260 -0.5469
   62MOL0     C 8290  10.400   7.261   1.598  0.0942 -0.3150 -0.5818
   62MOL0     C 8291  10.269   7.323   1.597  1.4533  0.4276 -0.3845
   62MOL0     C 8292  10.215   7.372   1.480 -0.2729  0.7721  0.3714
   62MOL0     O 8293  10.086   7.412   1.484 -0.1293 -0.1757 -1.0424
   62MOL0     C 8294   9.994   7.334   1.411  0.1186  0.6545  0.4912
   62MOL0     C 8295   9.865   7.414   1.386 -0.0523 -0.5951  0.2239
   62MOL0     C 8296   9.743   7.342   1.328 -0.1529 -0.9381 -0.7066
   62MOL0     C 8297   9.676   7.236   1.409  1.1375 -0.7830 -0.0648
   62MOL0     C 8298   9.561   7.312   1.471  0.0455 -0.5144 -0.1228
   62MOL0     C 8299   9.481   7.400   1.517 -0.0183  0.1685 -1.5113
   62MOL0     C 8300  10.295   7.366   1.362 -0.2859  0.1010 -0.4983
   62MOL0     C 8301  10.429   7.312   1.351 -0.5481  0.2013 -0.0246
   62MOL0     C 8302  10.494   7.307   1.224 -0.1116 -0.6068  0.3318
   62MOL0     H 8303  10.687   7.128   1.834  0.4497 -2.7091  1.9301
   62MOL0     H 8304  10.874   7.039   1.946 -1.2487  0.0652 -0.8181
   62MOL0     H 8305  11.056   6.790   1.999 -1.2616  3.7112  0.0985
   62MOL0     H 8306  10.966   6.743   1.858  0.7590 -0.3378  1.7615
   62MOL0     H 8307  11.265   6.739   1.843 -0.8734 -0.2048 -1.3114
   62MOL0     H 8308  11.150   6.670   1.730 -2.8901 -1.3164  1.0874
   62MOL0     H 8309  11.071   6.538   1.941  0.0653 -1.4702 -0.3397
   62MOL0     H 8310  11.233   6.566   1.995 -0.3209  1.2497  0.5080
   62MOL0     H 8311  11.133   6.373   1.785 -0.8613  1.3311  0.6349
   62MOL0     H 8312  11.264   6.468   1.718 -0.2619 -3.9565 -1.5936
   62MOL0     H 8313  11.393   6.425   1.914  1.6284 -1.1624  1.4567
   62MOL0     H 8314  11.295   6.289   1.967  1.2602 -1.5629 -0.8611
   62MOL0     H 8315  11.315   6.195   1.723  0.1853 -0.9839  0.4435
   62MOL0     H 8316  11.433   6.318   1.691 -0.2671  0.1489  0.5255
   62MOL0     H 8317  11.576   6.239   1.877 -0.2715  1.1718  0.6691
   62MOL0     H 8318  11.559   6.124   1.746 -2.6989  0.1628 -1.2849
   62MOL0     H 8319  11.416   6.087   2.022 -0.3620  0.5650 -0.9621
   62MOL0     H 8320  11.380   6.008   1.861  2.1035  0.4984 -2.1844
   62MOL0     H 8321  11.714   6.103   2.057 -2.5051 -0.4630  2.7654
   62MOL0     H 8322  11.919   6.004   2.111 -2.7868  0.3604 -0.1834
   62MOL0     H 8323  11.889   5.839   2.149  1.2308  0.6741  1.0570
   62MOL0     H 8324  11.967   5.834   1.864  0.6150 -0.7919  0.0872
   62MOL0     H 8325  12.082   5.930   1.961 -1.0601  1.4686 -0.5805
   62MOL0     H 8326  12.147   5.746   2.081 -3.4369  0.9039  2.3904
   62MOL0     H 8327  12.144   5.695   1.910 -0.9263 -0.5105 -0.3299
   62MOL0     H 8328  11.908   5.599   1.954 -0.6219 -1.4864  0.7214
   62MOL0     H 8329  11.955   5.606   2.133 -2.8290 -1.1877 -0.0647
   62MOL0     H 8330  11.855   5.435   2.187  0.4665  0.1652 -0.1565
   62MOL0     H 8331  11.800   5.211   2.269  0.9230 -3.0116 -0.1675
   62MOL0     H 8332  12.008   4.695   2.117 -2.0180  0.2664  0.2547
   62MOL0     H 8333  11.920   4.481   2.163 -0.3454  2.8908 -1.6892
   62MOL0     H 8334  11.979   4.316   2.590  0.6351 -1.8236 -1.6770
   62MOL0     H 8335  11.811   4.385   2.594  0.2310 -0.2924  0.9543
   62MOL0     H 8336  11.715   4.191   2.493 -0.0156  2.0374 -0.6337
   62MOL0     H 8337  11.873   4.109   2.495  1.8641  1.1816  1.9890
   62MOL0     H 8338  11.757   4.245   2.747  0.2370  0.0271 -1.0578
   62MOL0     H 8339  11.704   4.085   2.730 -0.7681  0.9839 -2.4231
   62MOL0     H 8340  11.970   4.189   2.802 -0.0770  0.5462 -0.3343
   62MOL0     H 8341  11.961   4.034   2.712 -0.1238  0.0516 -0.4956
   62MOL0     H 8342  11.979   4.001   2.956 -1.7630 -2.0594  1.5247
   62MOL0     H 8343  11.856   3.914   2.876  0.3552 -1.1821  2.1325
   62MOL0     H 8344  11.812   4.144   3.059  1.4619 -0.2591 -0.8296
   62MOL0     H 8345  11.689   4.094   2.940 -1.0366 -2.0755 -1.0386
   62MOL0     H 8346  11.802   3.875   3.123 -0.1093 -0.0312  1.0867
   62MOL0     H 8347  11.658   3.869   3.024  2.3959 -0.3836 -3.2860
   62MOL0     H 8348  11.571   4.048   3.172  0.5519  0.9199 -1.8494
   62MOL0     H 8349  11.632   3.907   3.265  1.7614  1.4831  0.2347
   62MOL0     H 8350  11.961   4.579   2.598  1.6092 -2.0975 -0.1987
   62MOL0     H 8351  12.022   4.803   2.526 -3.0185  1.2707 -0.3009
   62MOL0     H 8352  12.167   5.059   2.123 -0.1582 -0.3288  1.6146
   62MOL0     H 8353  12.225   5.282   2.025 -0.2794  0.6508  0.0153
   62MOL0     H 8354  11.040   6.918   1.560  1.2498 -1.0964  1.4189
   62MOL0     H 8355  10.829   6.968   1.458 -1.8485 -0.9706  0.2040
   62MOL0     H 8356  10.442   7.239   1.695 -0.4560 -1.7854 -0.6540
   62MOL0     H 8357  10.207   7.334   1.686  5.0916  0.8822  2.3305
   62MOL0     H 8358   9.964   7.240   1.457 -1.9484  0.6606 -0.7299
   62MOL0     H 8359  10.035   7.312   1.311  1.8368  0.5738  1.1751
   62MOL0     H 8360   9.895   7.490   1.313 -1.7865  1.5135  1.5882
   62MOL0     H 8361   9.845   7.462   1.482  0.4961  0.2870 -0.0906
   62MOL0     H 8362   9.776   7.288   1.239 -1.3424 -0.3312 -1.5519
   62MOL0     H 8363   9.671   7.415   1.289 -0.2497 -0.1303  0.9054
   62MOL0     H 8364   9.645   7.153   1.346  0.5638 -0.9515  0.4297
   62MOL0     H 8365   9.739   7.206   1.494 -2.7486 -4.4056  1.9163
   62MOL0     H 8366   9.411   7.475   1.549  1.6070  1.7502 -1.4603
   62MOL0     H 8367  10.252   7.404   1.270 -1.5673 -1.1622 -0.4510
   62MOL0     H 8368  10.588   7.360   1.242 -1.3079  2.0218 -0.6281
   62MOL0     H 8369  10.508   7.199   1.210 -0.1401 -0.8457  1.9646
   62MOL0     H 8370  10.438   7.360   1.146 -0.4050  2.0271  2.2075
   63MOL0     O 8371   4.191   6.023   6.235 -0.1884  0.3081 -0.4681
   63MOL0     C 8372   4.244   6.059   6.133 -0.0950 -0.7723  0.6845
   63MOL0     O 8373   4.250   5.987   6.013  0.3643  0.2345 -0.2171
   63MOL0     C 8374   4.158   5.877   6.000  0.1331 -0.1627 -0.0742
   63MOL0     C 8375   4.022   5.878   6.043 -0.6728  0.1070 -0.7788
   63MOL0     C 8376   3.943   5.761   6.024  0.1286 -0.1123 -0.6273
   63MOL0     C 8377   3.990   5.659   5.946 -0.6445  0.6446  1.3848
   63MOL0     O 8378   3.915   5.549   5.926 -0.0258  0.5896  0.2940
   63MOL0     C 8379   3.888   5.469   6.047  0.0575 -0.7413 -0.3376
   63MOL0     C 8380   3.894   5.320   6.020 -0.0107 -0.1145 -0.1219
   63MOL0     C 8381   4.041   5.276   5.986 -0.1481 -0.1184 -0.8479
   63MOL0     C 8382   4.159   5.301   6.095  1.0127  0.0075 -0.2404
   63MOL0     C 8383   4.302   5.261   6.039  0.7279  0.1587 -0.8169
   63MOL0     C 8384   4.420   5.277   6.143 -0.8123  0.1685 -0.7356
   63MOL0     C 8385   4.556   5.277   6.081  0.7560 -0.7664  0.2231
   63MOL0     C 8386   4.649   5.246   6.190 -0.3998 -0.1382  0.8699
   63MOL0     N 8387   4.679   5.101   6.202 -0.1580  0.0589  0.2165
   63MOL0     C 8388   4.743   5.019   6.116 -0.3684 -0.9945 -0.1797
   63MOL0     C 8389   4.744   4.902   6.175 -0.2472 -0.2590 -0.5136
   63MOL0     C 8390   4.781   4.773   6.113 -0.3827  0.4225  0.5098
   63MOL0     C 8391   4.670   4.695   6.048 -0.5052  0.0396  0.1971
   63MOL0     C 8392   4.578   4.632   6.153 -0.0196 -0.0902  0.3435
   63MOL0     C 8393   4.443   4.574   6.103 -0.0064 -0.4649 -0.5624
   63MOL0     O 8394   4.467   4.452   6.034 -0.5079 -0.2621 -0.5087
   63MOL0     C 8395   4.381   4.399   5.939  0.0744 -0.4688  0.3098
   63MOL0     C 8396   4.424   4.278   5.878 -0.5935 -0.1093  0.4881
   63MOL0     C 8397   4.362   4.235   5.755  0.3229  0.6040  0.6171
   63MOL0     C 8398   4.255   4.309   5.703  0.1671  0.2467  0.1583
   63MOL0     C 8399   4.216   4.264   5.574  0.5030  0.1677 -0.9886
   63MOL0     O 8400   4.270   4.138   5.529  0.2287  0.1658 -0.0933
   63MOL0     C 8401   4.221   4.093   5.405  0.0442 -0.3365  0.5253
   63MOL0     C 8402   4.091   4.068   5.376 -0.3084 -0.0431  0.2385
   63MOL0     C 8403   4.048   4.037   5.240  0.9186 -0.1283 -0.4521
   63MOL0     C 8404   4.143   4.006   5.148  0.0122  0.7244  0.3299
   63MOL0     O 8405   4.105   3.962   5.020  0.6405 -0.3257  0.3767
   63MOL0     C 8406   4.011   3.850   5.016  0.1284  0.4900 -0.8195
   63MOL0     C 8407   4.074   3.718   5.074 -0.3867  0.4048 -0.1066
   63MOL0     C 8408   3.975   3.600   5.064 -0.0118 -0.4871 -0.2594
   63MOL0     C 8409   3.995   3.523   4.929 -0.5080  0.4992 -0.2146
   63MOL0     C 8410   3.987   3.366   4.943  0.5597 -0.4201 -0.7212
   63MOL0     C 8411   3.887   3.315   5.042 -0.2649 -0.3595 -0.1998
   63MOL0     C 8412   3.853   3.163   5.020 -0.6239 -0.0144 -0.4616
   63MOL0     C 8413   3.728   3.114   5.104  0.5474  0.1941 -0.0887
   63MOL0    Cl 8414   3.723   2.926   5.073 -0.4137 -0.0080  0.0718
   63MOL0     C 8415   4.283   4.006   5.185  1.4024  0.8367 -0.7994
   63MOL0     C 8416   4.319   4.056   5.308 -0.5150 -0.6003 -0.7583
   63MOL0     O 8417   4.134   4.328   5.512  0.2012 -0.1917 -0.5911
   63MOL0     C 8418   4.206   4.417   5.772 -0.6750  0.3992 -0.4449
   63MOL0     C 8419   4.266   4.464   5.886 -0.2157  0.7078  0.3784
   63MOL0     N 8420   4.677   4.915   6.292  0.9573 -0.1431  0.1566
   63MOL0     N 8421   4.635   5.029   6.312 -0.8296  0.1489  0.0252
   63MOL0     C 8422   4.126   5.656   5.908 -0.3794 -0.4786 -0.0326
   63MOL0     C 8423   4.211   5.767   5.938  0.7627 -0.0277 -0.7844
   63MOL0     C 8424   4.320   6.191   6.136  1.0250 -0.2853 -0.5366
   63MOL0     C 8425   4.347   6.245   6.265 -0.7086  0.6441  0.8511
   63MOL0     C 8426   4.414   6.367   6.279  0.2471 -0.6274 -0.1180
   63MOL0     C 8427   4.438   6.441   6.164  0.4959 -0.6231  0.2375
   63MOL0     O 8428   4.496   6.567   6.161  1.0800 -0.2043 -0.6389
   63MOL0     C 8429   4.469   6.656   6.274  0.0617 -0.8349 -0.7438
   63MOL0     C 8430   4.495   6.801   6.236  0.1397 -0.3771  0.4814
   63MOL0     C 8431   4.518   6.899   6.350  0.4321 -0.8867  0.1052
   63MOL0     C 8432   4.559   7.038   6.296 -0.9963 -0.3902 -0.3070
   63MOL0     C 8433   4.571   7.131   6.410 -0.0553  0.3692  0.8280
   63MOL0     C 8434   4.588   7.209   6.509  0.0553  1.5324 -0.3346
   63MOL0     C 8435   4.411   6.398   6.036  0.6720  1.4508  0.6882
   63MOL0     C 8436   4.349   6.269   6.020  0.0315  0.1887  0.5215
   63MOL0     C 8437   4.335   6.241   5.871  0.5521  1.0252  0.1934
   63MOL0     H 8438   3.979   5.949   6.113 -2.6116 -0.8155 -0.9762
   63MOL0     H 8439   3.844   5.746   6.066 -0.1918  1.3395 -0.8197
   63MOL0     H 8440   3.957   5.508   6.123 -0.0684  3.0706 -1.9414
   63MOL0     H 8441   3.784   5.494   6.074  0.3166  2.4670 -1.7918
   63MOL0     H 8442   3.825   5.293   5.939 -1.9478  0.1725  1.3814
   63MOL0     H 8443   3.879   5.267   6.114 -0.3517 -4.4714 -2.3394
   63MOL0     H 8444   4.076   5.304   5.886 -1.4907 -1.1690 -1.6470
   63MOL0     H 8445   4.033   5.169   5.968 -4.2434  0.1642 -1.7018
   63MOL0     H 8446   4.158   5.409   6.112  3.5717 -0.2084  2.1685
   63MOL0     H 8447   4.144   5.245   6.188 -3.3913 -3.6456 -2.7465
   63MOL0     H 8448   4.311   5.159   6.001  0.3318 -2.1877  4.4779
   63MOL0     H 8449   4.307   5.332   5.956  3.9095  0.0285 -0.8371
   63MOL0     H 8450   4.402   5.366   6.205 -2.1744 -0.6669  0.1043
   63MOL0     H 8451   4.409   5.197   6.217  1.4099  0.6238  0.1869
   63MOL0     H 8452   4.586   5.367   6.028 -1.4876  1.4565  2.4292
   63MOL0     H 8453   4.564   5.192   6.012 -1.2456 -1.0250  0.2475
   63MOL0     H 8454   4.749   5.280   6.160 -0.6361 -0.5358 -0.4501
   63MOL0     H 8455   4.621   5.283   6.288  0.7281  2.9185  0.1537
   63MOL0     H 8456   4.784   5.057   6.023  0.6251  2.4751  1.4695
   63MOL0     H 8457   4.851   4.791   6.031 -0.2356 -1.9247  0.0515
   63MOL0     H 8458   4.843   4.713   6.180  0.2758 -0.9361 -1.2391
   63MOL0     H 8459   4.602   4.755   5.986 -0.7849 -0.9680 -0.5106
   63MOL0     H 8460   4.716   4.620   5.983  0.1338  1.9610 -1.6792
   63MOL0     H 8461   4.556   4.718   6.217 -1.9985 -1.0944  1.1185
   63MOL0     H 8462   4.619   4.556   6.219  0.3749  0.5789  0.8803
   63MOL0     H 8463   4.403   4.639   6.025 -2.7149 -1.0009  0.2503
   63MOL0     H 8464   4.365   4.568   6.180  0.3915  0.7675 -0.0475
   63MOL0     H 8465   4.510   4.219   5.908  0.5597  1.5685  0.6075
   63MOL0     H 8466   4.407   4.153   5.700  0.6917  1.5618 -0.5745
   63MOL0     H 8467   4.015   4.092   5.450 -1.7893  0.0368 -1.2474
   63MOL0     H 8468   3.943   4.017   5.223  0.8319 -1.0288  1.0388
   63MOL0     H 8469   3.916   3.876   5.062  1.3599 -1.7565  3.6314
   63MOL0     H 8470   3.983   3.837   4.911  0.0952 -2.7449 -0.5188
   63MOL0     H 8471   4.162   3.703   5.012 -1.8068  1.8989 -2.6638
   63MOL0     H 8472   4.113   3.723   5.176 -0.6230 -3.2885  0.2998
   63MOL0     H 8473   4.016   3.544   5.149  0.0999 -0.7291 -0.4734
   63MOL0     H 8474   3.873   3.639   5.071 -1.2032 -3.1263 -1.5921
   63MOL0     H 8475   4.086   3.558   4.879 -1.6784 -0.7301 -3.4485
   63MOL0     H 8476   3.909   3.549   4.867 -1.2607  1.6789  1.2536
   63MOL0     H 8477   4.085   3.327   4.973  1.1400  1.5840  0.1692
   63MOL0     H 8478   3.965   3.316   4.847  3.0155 -1.3378 -0.8752
   63MOL0     H 8479   3.922   3.336   5.143 -2.4389  0.4481  0.4341
   63MOL0     H 8480   3.784   3.351   5.036 -0.1414 -0.0294 -0.4506
   63MOL0     H 8481   3.935   3.099   5.054 -0.3037  0.1622 -0.8870
   63MOL0     H 8482   3.825   3.135   4.918 -2.1017 -1.1467  0.2264
   63MOL0     H 8483   3.738   3.150   5.206 -2.1917  0.4868  0.1334
   63MOL0     H 8484   3.630   3.151   5.075 -0.4061 -2.6539 -0.8109
   63MOL0     H 8485   4.363   3.964   5.124  3.1633  0.4022  1.6564
   63MOL0     H 8486   4.424   4.068   5.335 -0.5303 -1.7814 -0.1077
   63MOL0     H 8487   4.115   4.472   5.751 -3.2530 -1.9302  3.3322
   63MOL0     H 8488   4.225   4.543   5.949  1.4252  1.2239  0.8425
   63MOL0     H 8489   4.142   5.567   5.848 -0.1505  0.5460 -1.5653
   63MOL0     H 8490   4.317   5.761   5.915  1.1583 -2.1723  1.1830
   63MOL0     H 8491   4.323   6.191   6.356  3.1787 -1.1618  0.9931
   63MOL0     H 8492   4.440   6.414   6.373 -1.4381  1.4345 -0.6006
   63MOL0     H 8493   4.545   6.635   6.350  0.0887  1.1006 -0.1757
   63MOL0     H 8494   4.371   6.644   6.319 -0.3514 -2.0412 -1.8992
   63MOL0     H 8495   4.416   6.825   6.163  1.3318  0.3747 -0.6052
   63MOL0     H 8496   4.580   6.810   6.167 -0.4031  0.3437 -0.1169
   63MOL0     H 8497   4.588   6.859   6.424  3.0492  4.6493  1.0908
   63MOL0     H 8498   4.417   6.915   6.390 -0.1431 -0.5685 -1.3928
   63MOL0     H 8499   4.660   7.030   6.254 -0.9463 -1.2638 -0.0420
   63MOL0     H 8500   4.493   7.073   6.216  2.4750 -0.7091 -3.6002
   63MOL0     H 8501   4.601   7.281   6.588  0.2999  1.4436 -0.2950
   63MOL0     H 8502   4.444   6.447   5.945 -3.0932 -2.1227 -3.0711
   63MOL0     H 8503   4.335   6.133   5.857 -0.7808  1.3567 -3.3892
   63MOL0     H 8504   4.247   6.292   5.830 -0.5297 -1.4406 -0.7012
   63MOL0     H 8505   4.419   6.273   5.808  0.0847 -3.4107 -3.1074
   64MOL0     O 8506   3.258   0.744  11.067 -0.0220  0.0369 -0.0089
   64MOL0     C 8507   3.176   0.763  11.156  0.9195  0.1645  0.1496
   64MOL0     O 8508   3.169   0.713  11.284 -0.1863  0.3530 -0.1899
   64MOL0     C 8509   3.255   0.612  11.305  0.6893  0.4800 -0.6666
   64MOL0     C 8510   3.363   0.621  11.394 -0.0294 -0.4748  0.2455
   64MOL0     C 8511   3.449   0.515  11.422 -0.7225  0.4386  0.3660
   64MOL0     C 8512   3.426   0.388  11.374 -0.6518  0.3984 -0.3859
   64MOL0     O 8513   3.528   0.288  11.395  0.3819 -0.8610  0.4873
   64MOL0     C 8514   3.511   0.144  11.363 -0.3764 -0.1937  0.3389
   64MOL0     C 8515   3.430   0.064  11.465  0.1583 -0.4481  0.1037
   64MOL0     C 8516   3.512   0.013  11.583 -0.2715  0.6013  0.1147
   64MOL0     C 8517   3.583   0.125  11.656 -0.4655 -0.0805  0.4842
   64MOL0     C 8518   3.671   0.073  11.766 -0.5970 -0.4002 -0.1259
   64MOL0     C 8519   3.705   0.186  11.865 -0.2233 -0.7009 -0.1405
   64MOL0     C 8520   3.819   0.280  11.801  0.1832  0.2770  0.4852
   64MOL0     C 8521   3.964   0.226  11.797  0.0691 -0.0293  0.8344
   64MOL0     N 8522   4.062   0.327  11.829 -0.4995  0.2472 -0.6819
   64MOL0     C 8523   4.159   0.320  11.926  0.6371  0.0686 -0.4531
   64MOL0     C 8524   4.231   0.429  11.910  0.6177 -0.4938  0.9067
   64MOL0     C 8525   4.359   0.459  11.987  0.5516 -0.4330  1.0173
   64MOL0     C 8526   4.349   0.582  12.079  0.1544  0.0789 -0.7893
   64MOL0     C 8527   4.479   0.665  12.087  0.2327 -0.3807 -0.9670
   64MOL0     C 8528   4.609   0.588  12.106  0.6030  0.1327  0.0746
   64MOL0     O 8529   4.709   0.681  12.159 -0.0886  0.8161  0.1380
   64MOL0     C 8530   4.839   0.637  12.144  0.0941 -0.0648  0.9928
   64MOL0     C 8531   4.931   0.736  12.185 -0.3423  0.4750  0.0853
   64MOL0     C 8532   5.072   0.714  12.166  0.6877  0.4130  0.1182
   64MOL0     C 8533   5.113   0.605  12.089 -0.0701  0.2251  0.7577
   64MOL0     C 8534   5.260   0.593  12.044  0.9083  0.0563 -0.0436
   64MOL0     O 8535   5.294   0.496  11.951 -0.0216 -0.1511  0.5277
   64MOL0     C 8536   5.421   0.491  11.912  0.1849  1.2584 -0.2158
   64MOL0     C 8537   5.456   0.526  11.788 -0.0857 -0.9419  0.1446
   64MOL0     C 8538   5.590   0.533  11.746  0.0250  0.5434 -0.2096
   64MOL0     C 8539   5.691   0.483  11.831  0.5085 -0.4097 -0.1379
   64MOL0     O 8540   5.821   0.475  11.787  0.6364 -0.1196 -0.4687
   64MOL0     C 8541   5.911   0.403  11.860 -0.4307  0.0835  0.2295
   64MOL0     C 8542   6.035   0.360  11.772 -0.2123  0.3023 -0.5752
   64MOL0     C 8543   6.151   0.456  11.786  0.0948 -0.2594 -0.5739
   64MOL0     C 8544   6.253   0.407  11.682 -0.6749  0.9690  0.2883
   64MOL0     C 8545   6.375   0.486  11.717  0.2838  1.2524 -0.2242
   64MOL0     C 8546   6.487   0.454  11.620  0.3301  0.0597  0.6504
   64MOL0     C 8547   6.615   0.519  11.680 -0.8897  0.7304  0.0046
   64MOL0     C 8548   6.723   0.529  11.569  0.6854 -0.5568 -0.9855
   64MOL0    Cl 8549   6.669   0.631  11.436 -0.0447  0.0019 -0.7668
   64MOL0     C 8550   5.651   0.439  11.961 -0.6379  0.9897 -0.2259
   64MOL0     C 8551   5.522   0.440  12.005 -0.8390  0.9988  0.1627
   64MOL0     O 8552   5.342   0.668  12.092  0.0692  0.5526 -0.3645
   64MOL0     C 8553   5.020   0.504  12.052  1.2071  0.1792 -0.5107
   64MOL0     C 8554   4.879   0.516  12.085 -0.3046 -0.3143  0.0982
   64MOL0     N 8555   4.172   0.509  11.815 -0.9442  0.6590  0.8645
   64MOL0     N 8556   4.077   0.449  11.764 -0.2163  0.2582 -0.1599
   64MOL0     C 8557   3.317   0.376  11.289 -0.0151 -0.7003  0.5485
   64MOL0     C 8558   3.225   0.479  11.259 -0.5837 -0.2330 -0.2808
   64MOL0     C 8559   3.067   0.848  11.104 -0.3511  0.4284 -0.3714
   64MOL0     C 8560   2.961   0.791  11.031 -0.7852 -0.6022 -0.4931
   64MOL0     C 8561   2.850   0.876  10.996  0.2504  0.8553  0.5447
   64MOL0     C 8562   2.841   1.002  11.040  0.8823 -1.0358  0.8870
   64MOL0     O 8563   2.724   1.074  11.024 -0.3017  0.0109 -0.7045
   64MOL0     C 8564   2.723   1.197  10.948  0.3176 -0.5328  0.5109
   64MOL0     C 8565   2.573   1.232  10.901 -0.2362 -0.7744  0.1909
   64MOL0     C 8566   2.479   1.250  11.019  0.4613  0.2993  0.1192
   64MOL0     C 8567   2.329   1.255  10.978  0.5205  0.0563 -0.2824
   64MOL0     C 8568   2.231   1.245  11.091 -1.0893 -0.4369  0.7374
   64MOL0     C 8569   2.154   1.257  11.182  0.1705  0.2727 -0.4289
   64MOL0     C 8570   2.947   1.057  11.111 -0.0283  0.0566  0.1810
   64MOL0     C 8571   3.062   0.979  11.140  0.9966 -0.3341 -0.0657
   64MOL0     C 8572   3.175   1.049  11.222  1.3267 -0.3820  0.5067
   64MOL0     H 8573   3.375   0.721  11.434 -2.8451  1.0475 -2.3094
   64MOL0     H 8574   3.541   0.531  11.479 -0.7420 -2.0707  1.2184
   64MOL0     H 8575   3.466   0.133  11.264 -1.3406  2.4326  0.4260
   64MOL0     H 8576   3.612   0.104  11.349 -0.3894  0.1940 -0.9848
   64MOL0     H 8577   3.391  -0.026  11.417 -1.5171  0.2459  0.1143
   64MOL0     H 8578   3.338   0.115  11.494  0.7988 -0.1912  1.8103
   64MOL0     H 8579   3.580  -0.062  11.542 -0.6305 -0.4808  1.4185
   64MOL0     H 8580   3.455  -0.043  11.657 -0.8370  1.0837  0.0496
   64MOL0     H 8581   3.637   0.188  11.585  2.0983 -3.0945 -0.4687
   64MOL0     H 8582   3.498   0.178  11.700 -0.7654 -1.3760  1.5279
   64MOL0     H 8583   3.602   0.008  11.820 -2.5027  0.8653 -0.8954
   64MOL0     H 8584   3.758   0.019  11.727  0.8979 -0.4709  3.0597
   64MOL0     H 8585   3.618   0.247  11.891  1.2425  2.5393 -2.0615
   64MOL0     H 8586   3.749   0.144  11.956 -0.4988 -0.1078  0.2776
   64MOL0     H 8587   3.830   0.361  11.874 -0.2760  1.5586 -0.8153
   64MOL0     H 8588   3.781   0.316  11.705 -0.8152 -1.6256  0.1167
   64MOL0     H 8589   3.967   0.150  11.876 -0.4875 -0.4076  0.5023
   64MOL0     H 8590   3.982   0.169  11.705  1.0050 -0.1729  1.0909
   64MOL0     H 8591   4.189   0.237  11.989  1.3782  2.6436  2.8531
   64MOL0     H 8592   4.377   0.372  12.051 -0.4080 -0.2979  1.4962
   64MOL0     H 8593   4.437   0.464  11.910 -0.3922 -1.8009 -0.0836
   64MOL0     H 8594   4.270   0.648  12.043 -0.1457 -0.5077 -1.2206
   64MOL0     H 8595   4.325   0.550  12.181  3.6078 -3.2045 -0.7729
   64MOL0     H 8596   4.477   0.751  12.153 -0.0896 -0.7683 -0.4606
   64MOL0     H 8597   4.471   0.716  11.990 -0.0730  3.0847  0.7412
   64MOL0     H 8598   4.625   0.549  12.005 -1.1770  0.8274 -0.5156
   64MOL0     H 8599   4.606   0.512  12.184 -2.4550 -1.3627 -1.3311
   64MOL0     H 8600   4.883   0.821  12.232 -2.4409 -0.1054 -0.9115
   64MOL0     H 8601   5.143   0.790  12.199 -1.4602  1.8915  1.6162
   64MOL0     H 8602   5.370   0.562  11.732 -1.2964 -0.9430  1.8992
   64MOL0     H 8603   5.618   0.562  11.645  1.2748 -1.2484 -0.4258
   64MOL0     H 8604   5.950   0.467  11.939 -4.8972  3.8387 -0.1955
   64MOL0     H 8605   5.868   0.306  11.889 -1.9021  0.6919  0.2071
   64MOL0     H 8606   6.069   0.262  11.806 -4.8677 -0.3876  3.2580
   64MOL0     H 8607   6.006   0.348  11.667  2.2620 -5.6474 -0.9676
   64MOL0     H 8608   6.129   0.559  11.758 -0.7172 -0.5481 -1.0392
   64MOL0     H 8609   6.190   0.467  11.888 -0.3387 -1.5962 -0.2346
   64MOL0     H 8610   6.214   0.418  11.580 -0.1223 -0.7818 -0.1547
   64MOL0     H 8611   6.293   0.305  11.692  0.0537  1.0460 -1.4270
   64MOL0     H 8612   6.399   0.471  11.822 -0.0186  0.7735 -0.2223
   64MOL0     H 8613   6.348   0.591  11.701 -1.5238  1.3142  2.5958
   64MOL0     H 8614   6.497   0.346  11.612  0.2500  0.0935  0.0511
   64MOL0     H 8615   6.456   0.484  11.520  0.6068 -5.0825 -1.2386
   64MOL0     H 8616   6.653   0.450  11.756 -2.4108 -1.3230 -0.9827
   64MOL0     H 8617   6.595   0.619  11.721  3.2043  0.6474  2.8118
   64MOL0     H 8618   6.821   0.561  11.607  1.6917 -0.2777 -3.6159
   64MOL0     H 8619   6.738   0.424  11.544  1.7204 -1.7177  3.5493
   64MOL0     H 8620   5.726   0.417  12.036 -1.1076 -0.8974 -0.2756
   64MOL0     H 8621   5.490   0.413  12.105 -3.7884 -0.7592 -1.1006
   64MOL0     H 8622   5.046   0.413  12.000 -2.7979 -0.0135 -2.6184
   64MOL0     H 8623   4.812   0.446  12.036 -0.3159  1.2872 -2.3690
   64MOL0     H 8624   3.287   0.275  11.264  1.5461 -1.2177  0.6069
   64MOL0     H 8625   3.148   0.445  11.190 -0.4588 -0.4743 -0.3005
   64MOL0     H 8626   2.958   0.684  11.011  0.4148 -0.7048 -0.1958
   64MOL0     H 8627   2.760   0.829  10.957 -0.1226  0.7059  1.5668
   64MOL0     H 8628   2.792   1.186  10.865  0.2766  0.0799  0.3886
   64MOL0     H 8629   2.752   1.281  11.012 -2.1623 -1.0223  2.4729
   64MOL0     H 8630   2.535   1.159  10.830 -2.1487 -1.6082  1.9627
   64MOL0     H 8631   2.584   1.332  10.857  0.5103  0.5664  3.1252
   64MOL0     H 8632   2.495   1.348  11.064  0.6526 -1.1470  3.4325
   64MOL0     H 8633   2.499   1.180  11.100  5.6525  3.0868  1.6980
   64MOL0     H 8634   2.316   1.346  10.918  2.8076 -0.4857 -1.7329
   64MOL0     H 8635   2.321   1.171  10.908 -1.0765 -0.4242  0.4279
   64MOL0     H 8636   2.096   1.287  11.268  0.5957  2.8467 -0.9590
   64MOL0     H 8637   2.939   1.162  11.137  0.4382 -0.2167  1.5188
   64MOL0     H 8638   3.161   1.157  11.210 -0.3391 -0.3651  2.0547
   64MOL0     H 8639   3.161   1.032  11.330 -2.2265 -1.2557  0.0407
   64MOL0     H 8640   3.276   1.020  11.192  0.8904  0.3501 -1.8391
   65MOL0     O 8641   3.128   0.404   2.101 -0.9964  0.3675 -0.1012
   65MOL0     C 8642   3.224   0.364   2.045 -0.4018  0.0702  0.5259
   65MOL0     O 8643   3.345   0.421   2.056  0.3840 -0.0350 -0.0832
   65MOL0     C 8644   3.363   0.524   2.155  1.1782 -0.1719  0.4615
   65MOL0     C 8645   3.479   0.518   2.236 -0.7040 -0.0221  0.1131
   65MOL0     C 8646   3.510   0.616   2.332 -0.0283 -0.2662 -0.4342
   65MOL0     C 8647   3.439   0.735   2.328 -0.4477  0.7762  0.0227
   65MOL0     O 8648   3.472   0.824   2.419  0.6877  0.3772 -0.4476
   65MOL0     C 8649   3.416   0.951   2.409  0.0824 -0.6356 -0.3356
   65MOL0     C 8650   3.484   1.033   2.510 -0.6315  0.6888 -0.5308
   65MOL0     C 8651   3.635   1.044   2.508 -0.0805 -0.8774  0.3737
   65MOL0     C 8652   3.685   1.160   2.592  0.3473  0.4301 -0.0262
   65MOL0     C 8653   3.835   1.154   2.630  0.6340 -0.1179 -0.2319
   65MOL0     C 8654   3.910   1.177   2.501  0.3957 -0.0548 -0.3634
   65MOL0     C 8655   3.905   1.317   2.449 -0.1271 -0.1837 -0.1299
   65MOL0     C 8656   3.999   1.409   2.535 -0.7894 -0.4591  0.4203
   65MOL0     N 8657   4.052   1.518   2.452  0.3563  1.2220 -0.0795
   65MOL0     C 8658   4.109   1.504   2.330 -0.7263 -0.3105 -0.5659
   65MOL0     C 8659   4.133   1.633   2.294  0.5156  0.0296 -0.4027
   65MOL0     C 8660   4.199   1.679   2.163  0.0163  0.2893 -0.6161
   65MOL0     C 8661   4.090   1.772   2.102  0.4980  0.1472  0.6400
   65MOL0     C 8662   3.950   1.705   2.065 -0.2671 -0.6810 -0.1880
   65MOL0     C 8663   3.888   1.762   1.930  0.4080  0.8516  0.2167
   65MOL0     O 8664   3.886   1.905   1.920  0.2871  0.6137  0.7635
   65MOL0     C 8665   3.759   1.957   1.896 -0.5722 -0.5872 -0.8917
   65MOL0     C 8666   3.653   1.926   1.981  0.1352 -0.1552 -0.2034
   65MOL0     C 8667   3.537   1.990   1.966  0.2732  0.3613  0.2634
   65MOL0     C 8668   3.502   2.063   1.850  0.4045 -0.1690 -0.3687
   65MOL0     C 8669   3.364   2.105   1.813  0.0589  0.1301 -0.8395
   65MOL0     O 8670   3.335   2.199   1.718  0.0518 -0.0099  0.1354
   65MOL0     C 8671   3.206   2.239   1.686 -0.0854  0.0114 -0.3721
   65MOL0     C 8672   3.194   2.373   1.665 -0.6899  0.0859 -0.1509
   65MOL0     C 8673   3.075   2.430   1.617 -0.2106 -0.5312 -0.2039
   65MOL0     C 8674   2.960   2.347   1.608  0.0874  0.0165 -0.2763
   65MOL0     O 8675   2.839   2.384   1.563 -0.2413 -0.2471 -0.3374
   65MOL0     C 8676   2.784   2.517   1.591 -0.7241  1.3065 -0.3707
   65MOL0     C 8677   2.631   2.486   1.630 -0.8115  0.0277  0.7180
   65MOL0     C 8678   2.537   2.509   1.501  0.3509 -0.1304 -0.8856
   65MOL0     C 8679   2.384   2.525   1.525 -0.2526  0.2740 -0.5271
   65MOL0     C 8680   2.322   2.526   1.379 -1.0548  0.1241  0.1833
   65MOL0     C 8681   2.171   2.566   1.381  0.3954 -0.1816  0.0992
   65MOL0     C 8682   2.102   2.582   1.244  0.1816  0.8312  0.4086
   65MOL0     C 8683   1.950   2.570   1.251 -0.2227 -0.9349  0.2084
   65MOL0    Cl 8684   1.879   2.418   1.302  0.3709  0.2752 -0.4313
   65MOL0     C 8685   2.971   2.206   1.643 -0.1828 -0.9093 -0.2363
   65MOL0     C 8686   3.090   2.160   1.687  0.0768  0.0473  0.0283
   65MOL0     O 8687   3.279   2.035   1.876 -1.2331  0.1464  0.1721
   65MOL0     C 8688   3.609   2.095   1.770  0.4094  0.1941  0.4939
   65MOL0     C 8689   3.731   2.040   1.793  0.9733  0.6238  0.6275
   65MOL0     N 8690   4.084   1.717   2.391 -0.2226 -0.6522 -0.1673
   65MOL0     N 8691   4.036   1.653   2.489 -1.5146  0.5337  0.0425
   65MOL0     C 8692   3.329   0.743   2.226 -0.4859 -0.4247  0.1121
   65MOL0     C 8693   3.286   0.638   2.156 -1.0182  0.5930  0.7472
   65MOL0     C 8694   3.203   0.265   1.928  0.2943 -0.3773 -0.2902
   65MOL0     C 8695   3.309   0.188   1.877  0.5021  0.6492 -0.2216
   65MOL0     C 8696   3.298   0.100   1.770 -0.1847  0.8479 -0.4839
   65MOL0     C 8697   3.180   0.089   1.706  0.4568  0.5928  0.3288
   65MOL0     O 8698   3.150  -0.001   1.610 -0.1330  0.3116  0.0532
   65MOL0     C 8699   3.254  -0.086   1.562 -0.4637  0.4033  1.4388
   65MOL0     C 8700   3.195  -0.177   1.455 -0.5130 -0.2150 -0.3953
   65MOL0     C 8701   3.294  -0.294   1.426  0.4853 -0.0904  0.0567
   65MOL0     C 8702   3.242  -0.383   1.318 -0.1815  0.1010  0.2215
   65MOL0     C 8703   3.119  -0.456   1.348  0.4350 -0.1485  0.1525
   65MOL0     C 8704   3.005  -0.505   1.370 -1.2994 -0.2203  0.6749
   65MOL0     C 8705   3.075   0.164   1.748  0.4310  0.3419 -0.9315
   65MOL0     C 8706   3.076   0.244   1.860  0.9789 -0.7411  0.0253
   65MOL0     C 8707   2.944   0.310   1.898 -0.7556 -0.2463  0.0508
   65MOL0     H 8708   3.553   0.439   2.230 -0.9188 -0.6569  3.6162
   65MOL0     H 8709   3.589   0.609   2.406 -0.1800  1.6890 -0.0328
   65MOL0     H 8710   3.438   1.003   2.315 -0.4284  0.9284  0.3810
   65MOL0     H 8711   3.307   0.947   2.421  0.1441  0.5532  0.7341
   65MOL0     H 8712   3.456   0.986   2.605 -0.7468 -2.4274 -1.9919
   65MOL0     H 8713   3.437   1.132   2.509 -0.9283  0.5466 -0.9529
   65MOL0     H 8714   3.665   1.061   2.405 -0.9835  0.4622  0.2996
   65MOL0     H 8715   3.667   0.948   2.548  2.9666 -0.0104  0.2338
   65MOL0     H 8716   3.652   1.257   2.554  1.7005 -0.0379 -2.6225
   65MOL0     H 8717   3.632   1.161   2.688  1.3822 -1.3753  0.6189
   65MOL0     H 8718   3.858   1.225   2.710  0.4284 -2.7662  2.3147
   65MOL0     H 8719   3.857   1.057   2.673 -0.4863 -0.0447  0.5392
   65MOL0     H 8720   4.016   1.149   2.512  0.7615  0.2214 -2.6792
   65MOL0     H 8721   3.858   1.117   2.426 -1.1990 -0.9217  1.3626
   65MOL0     H 8722   3.807   1.363   2.465  0.9821  2.5460 -0.6002
   65MOL0     H 8723   3.934   1.330   2.344 -1.6301  0.0690 -0.5344
   65MOL0     H 8724   3.944   1.437   2.625 -1.7312 -0.8092 -0.0344
   65MOL0     H 8725   4.090   1.360   2.571  0.3961  1.1796 -0.2039
   65MOL0     H 8726   4.150   1.420   2.276  0.3777  1.6694 -3.0048
   65MOL0     H 8727   4.290   1.736   2.186  1.6051 -1.8654 -1.2427
   65MOL0     H 8728   4.225   1.593   2.100 -0.7970 -1.0512  0.7967
   65MOL0     H 8729   4.076   1.864   2.159 -1.8424 -0.7401  1.6164
   65MOL0     H 8730   4.144   1.805   2.013  3.5887  0.3877  2.4478
   65MOL0     H 8731   3.879   1.719   2.147  1.3293 -2.3996  1.5852
   65MOL0     H 8732   3.965   1.597   2.055 -2.6512 -1.3592  2.2459
   65MOL0     H 8733   3.789   1.720   1.910  0.6747 -0.0876  0.8380
   65MOL0     H 8734   3.952   1.720   1.852 -0.1115  0.9541 -0.2743
   65MOL0     H 8735   3.669   1.859   2.064 -3.3692  0.5551  1.2190
   65MOL0     H 8736   3.459   1.974   2.040 -3.0977 -0.1378 -3.0820
   65MOL0     H 8737   3.282   2.434   1.682  0.1932 -0.8535 -1.1693
   65MOL0     H 8738   3.076   2.538   1.608  1.4073 -0.1746  2.8733
   65MOL0     H 8739   2.822   2.555   1.686 -1.3486 -0.5743  0.6863
   65MOL0     H 8740   2.803   2.583   1.506  1.7258  1.7105  0.4206
   65MOL0     H 8741   2.620   2.381   1.660 -1.9543 -0.6716 -1.8607
   65MOL0     H 8742   2.592   2.553   1.707 -0.0350  1.0783  0.2144
   65MOL0     H 8743   2.568   2.603   1.454 -3.4555  1.2437 -1.0231
   65MOL0     H 8744   2.554   2.419   1.441  0.2730 -0.5938 -0.2162
   65MOL0     H 8745   2.354   2.624   1.560 -0.2112  0.1303 -0.0883
   65MOL0     H 8746   2.346   2.448   1.592 -1.3326  2.9588  2.1953
   65MOL0     H 8747   2.336   2.430   1.330  0.1927 -0.4652  1.6061
   65MOL0     H 8748   2.381   2.605   1.332 -3.9483  3.3437  1.4603
   65MOL0     H 8749   2.129   2.475   1.424 -1.5153  1.0823  1.0199
   65MOL0     H 8750   2.161   2.655   1.443 -4.5215 -0.2728 -0.1855
   65MOL0     H 8751   2.121   2.507   1.166  2.1646  1.8097 -0.1072
   65MOL0     H 8752   2.133   2.675   1.196  2.1994 -0.0086 -0.0256
   65MOL0     H 8753   1.897   2.635   1.321 -1.5640  0.9685 -2.4073
   65MOL0     H 8754   1.908   2.603   1.155 -0.1271 -2.2596 -0.3060
   65MOL0     H 8755   2.887   2.137   1.640  0.9212 -2.2955 -0.8739
   65MOL0     H 8756   3.099   2.056   1.716 -1.6624 -0.5398 -1.3652
   65MOL0     H 8757   3.592   2.155   1.681  0.4028 -2.0755 -1.1332
   65MOL0     H 8758   3.814   2.056   1.725 -1.7852  0.0417 -3.2877
   65MOL0     H 8759   3.264   0.830   2.226  0.9712  0.7148 -0.4838
   65MOL0     H 8760   3.203   0.637   2.087  1.1632 -0.5895 -2.0712
   65MOL0     H 8761   3.405   0.215   1.919 -0.1861 -2.5560  3.9948
   65MOL0     H 8762   3.371   0.025   1.742 -1.5127 -1.3544  1.5464
   65MOL0     H 8763   3.290  -0.153   1.641 -1.7435  0.6301  2.2413
   65MOL0     H 8764   3.343  -0.042   1.516 -0.7431  0.4330  0.9291
   65MOL0     H 8765   3.184  -0.117   1.364  0.9110  1.4825  0.4795
   65MOL0     H 8766   3.102  -0.220   1.494 -0.7831  0.1258 -0.6624
   65MOL0     H 8767   3.308  -0.351   1.518  0.3763 -0.5174 -0.1859
   65MOL0     H 8768   3.390  -0.252   1.393  0.7122  0.5988  1.5308
   65MOL0     H 8769   3.229  -0.324   1.227  1.7881  0.9089  0.4192
   65MOL0     H 8770   3.318  -0.462   1.307 -1.1756 -1.1668  1.8773
   65MOL0     H 8771   2.911  -0.555   1.381 -1.6456  0.5509  1.3452
   65MOL0     H 8772   2.986   0.156   1.686  0.0054  0.0963 -0.3054
   65MOL0     H 8773   2.863   0.294   1.827 -2.4261 -0.0877  1.8398
   65MOL0     H 8774   2.904   0.277   1.994  1.5365 -0.8756  0.8442
   65MOL0     H 8775   2.976   0.415   1.907  1.3429 -0.9641  1.7357
   66MOL0     O 8776   2.270   4.429  10.778 -0.0946  0.3520  0.3419
   66MOL0     C 8777   2.376   4.382  10.810  0.9040 -0.3517 -0.0116
   66MOL0     O 8778   2.449   4.415  10.917 -0.4429 -0.4700  0.0798
   66MOL0     C 8779   2.391   4.484  11.021 -0.0003  0.0077 -1.7253
   66MOL0     C 8780   2.305   4.419  11.113  0.3608 -0.7845 -1.5231
   66MOL0     C 8781   2.267   4.486  11.226  0.4818  0.2958 -0.5294
   66MOL0     C 8782   2.286   4.620  11.256 -0.2914 -0.2901  0.5768
   66MOL0     O 8783   2.240   4.681  11.367 -0.1486 -0.8861  0.5894
   66MOL0     C 8784   2.140   4.631  11.441  0.3133 -0.3329  0.8278
   66MOL0     C 8785   2.004   4.627  11.368  0.3408 -0.6753 -0.0555
   66MOL0     C 8786   1.951   4.768  11.330  0.7914  0.8558 -0.3962
   66MOL0     C 8787   1.869   4.828  11.440  0.1084 -0.1949 -0.1962
   66MOL0     C 8788   1.827   4.980  11.408  0.2122  1.4965  0.7308
   66MOL0     C 8789   1.752   5.053  11.525  0.7358 -0.5612  0.2406
   66MOL0     C 8790   1.631   4.975  11.555  0.6501 -0.7512  0.0087
   66MOL0     C 8791   1.541   5.071  11.639  0.5530  0.1748  0.1492
   66MOL0     N 8792   1.451   5.002  11.729  0.0314 -0.1511  0.2880
   66MOL0     C 8793   1.453   5.002  11.868  0.3376 -0.7795  0.1493
   66MOL0     C 8794   1.367   4.905  11.906  0.4670 -0.6454 -0.3077
   66MOL0     C 8795   1.310   4.899  12.050 -1.0757  0.4695  0.5896
   66MOL0     C 8796   1.209   5.008  12.092  0.0774  0.4617  0.1768
   66MOL0     C 8797   1.068   5.009  12.033 -0.6763  0.5706  0.3261
   66MOL0     C 8798   1.002   4.866  12.016 -0.9142 -0.2689  0.0215
   66MOL0     O 8799   0.874   4.882  11.954 -0.2910  0.0804 -0.0694
   66MOL0     C 8800   0.859   4.844  11.822 -0.1409 -0.1579 -0.3891
   66MOL0     C 8801   0.957   4.860  11.720  0.6403 -0.8077 -0.4998
   66MOL0     C 8802   0.933   4.803  11.599 -0.3356  0.7633  0.3124
   66MOL0     C 8803   0.815   4.728  11.570  0.3161 -1.1400  0.2845
   66MOL0     C 8804   0.801   4.663  11.438 -0.4759  0.2938 -0.0530
   66MOL0     O 8805   0.889   4.705  11.343  0.2099 -0.4915  0.2620
   66MOL0     C 8806   0.895   4.646  11.213 -0.2330 -0.6311  0.0965
   66MOL0     C 8807   0.945   4.510  11.200 -0.9801  0.5133 -0.6662
   66MOL0     C 8808   0.992   4.472  11.074 -0.8046  0.3599 -0.3072
   66MOL0     C 8809   0.960   4.549  10.959  0.7808  0.0857 -0.7385
   66MOL0     O 8810   0.981   4.510  10.832 -0.5505  0.1495 -0.6912
   66MOL0     C 8811   0.976   4.369  10.798  0.5976 -0.1072 -0.1016
   66MOL0     C 8812   0.992   4.342  10.645 -0.9175 -0.1212  0.0417
   66MOL0     C 8813   0.908   4.415  10.548  0.3463 -0.7175  0.6868
   66MOL0     C 8814   0.756   4.426  10.582 -0.4054 -0.1840  0.6590
   66MOL0     C 8815   0.661   4.479  10.473 -0.2016 -0.6004 -0.7034
   66MOL0     C 8816   0.517   4.431  10.499 -0.2931 -0.5057  0.0021
   66MOL0     C 8817   0.458   4.509  10.618 -0.4460  0.4987 -0.2040
   66MOL0     C 8818   0.320   4.440  10.639 -1.4881  0.2679 -0.1571
   66MOL0    Cl 8819   0.284   4.478  10.814 -0.1924  0.1218  0.3504
   66MOL0     C 8820   0.891   4.673  10.982  1.1212 -0.2085  0.6500
   66MOL0     C 8821   0.876   4.725  11.106  0.0822 -0.5325  0.2527
   66MOL0     O 8822   0.715   4.580  11.422  0.0759 -0.1633 -0.3193
   66MOL0     C 8823   0.715   4.723  11.676  1.0180 -0.5304  0.1318
   66MOL0     C 8824   0.733   4.781  11.797 -0.8795 -0.1884  0.8359
   66MOL0     N 8825   1.324   4.840  11.791  0.3891  0.7419  0.1599
   66MOL0     N 8826   1.376   4.893  11.690 -0.0286 -0.5925  0.1484
   66MOL0     C 8827   2.361   4.682  11.154 -0.1743  0.4821 -0.7621
   66MOL0     C 8828   2.412   4.620  11.039  0.1293 -0.1113  0.3375
   66MOL0     C 8829   2.432   4.279  10.721  0.5535 -0.0735  0.1263
   66MOL0     C 8830   2.556   4.311  10.669  0.5089  0.0153  0.3119
   66MOL0     C 8831   2.620   4.228  10.585 -0.3414 -0.0373  0.3655
   66MOL0     C 8832   2.568   4.105  10.545  0.3887  0.0838  0.0280
   66MOL0     O 8833   2.649   4.030  10.461  0.0822 -0.3625  0.1231
   66MOL0     C 8834   2.621   3.887  10.455 -0.0659  0.0246 -0.3726
   66MOL0     C 8835   2.665   3.812  10.577 -1.1631 -0.2644 -0.3082
   66MOL0     C 8836   2.645   3.658  10.569  0.0488 -0.5124 -0.0961
   66MOL0     C 8837   2.501   3.607  10.542 -0.3545  0.0121  0.4091
   66MOL0     C 8838   2.502   3.458  10.559  1.3922 -0.1405  0.5801
   66MOL0     C 8839   2.486   3.343  10.582 -1.1365  0.3059 -0.2783
   66MOL0     C 8840   2.441   4.076  10.585  0.5999  0.4034 -0.4249
   66MOL0     C 8841   2.370   4.155  10.677 -0.7951  0.4184 -0.2297
   66MOL0     C 8842   2.235   4.110  10.726  0.5259  0.3743 -0.5906
   66MOL0     H 8843   2.296   4.313  11.093  0.7244 -1.3942  1.0939
   66MOL0     H 8844   2.214   4.429  11.301  0.8750  1.5822  0.7633
   66MOL0     H 8845   2.177   4.534  11.477  0.9424  0.9599  3.9504
   66MOL0     H 8846   2.136   4.700  11.526  2.4452 -1.7597  2.1901
   66MOL0     H 8847   1.934   4.574  11.433 -0.7665 -1.7493 -2.0226
   66MOL0     H 8848   1.999   4.562  11.279  1.9358 -2.1203  0.8536
   66MOL0     H 8849   1.902   4.771  11.233 -0.7381 -1.9449  0.1790
   66MOL0     H 8850   2.037   4.831  11.304 -0.1782  2.4688  0.1772
   66MOL0     H 8851   1.778   4.768  11.447 -1.2384  1.9252  3.3075
   66MOL0     H 8852   1.918   4.821  11.537  0.8074  0.6814 -0.4734
   66MOL0     H 8853   1.921   5.034  11.394  1.7099 -1.4698 -1.8850
   66MOL0     H 8854   1.767   4.987  11.317  2.4891  0.3750 -0.9394
   66MOL0     H 8855   1.822   5.055  11.608 -0.0286  1.2878  0.8942
   66MOL0     H 8856   1.723   5.152  11.489  1.1729 -0.2789  0.6645
   66MOL0     H 8857   1.644   4.883  11.611 -1.1970  0.1833  2.1189
   66MOL0     H 8858   1.581   4.949  11.460 -0.4282 -0.8882  0.5961
   66MOL0     H 8859   1.609   5.136  11.694  0.5916  3.4803 -3.4590
   66MOL0     H 8860   1.483   5.127  11.566  0.0527  1.1759  1.2807
   66MOL0     H 8861   1.496   5.073  11.937  0.9628 -3.3447  2.6275
   66MOL0     H 8862   1.277   4.797  12.072 -1.4635  0.2432 -0.9580
   66MOL0     H 8863   1.391   4.913  12.123 -0.6674 -3.2310  1.0810
   66MOL0     H 8864   1.185   5.000  12.199 -2.0395  0.8547 -0.2338
   66MOL0     H 8865   1.263   5.102  12.084 -1.3158  1.4551  1.7343
   66MOL0     H 8866   1.082   5.053  11.934 -0.8763  0.0025  0.0421
   66MOL0     H 8867   0.996   5.068  12.090 -0.7260  0.1638  0.6879
   66MOL0     H 8868   0.984   4.815  12.111 -0.2333  3.6317  2.4884
   66MOL0     H 8869   1.070   4.817  11.946 -3.0478  0.4709 -2.7859
   66MOL0     H 8870   1.049   4.915  11.738  2.4698 -3.4766 -1.0254
   66MOL0     H 8871   1.011   4.804  11.524 -0.0407  3.8983  0.5274
   66MOL0     H 8872   0.961   4.454  11.292  1.5087  2.1165 -0.0032
   66MOL0     H 8873   1.035   4.373  11.069  1.3981  1.2918 -1.2474
   66MOL0     H 8874   1.039   4.305  10.860  1.9576  1.1842 -0.0910
   66MOL0     H 8875   0.874   4.333  10.817  0.4780  0.7912  1.0956
   66MOL0     H 8876   1.096   4.350  10.611 -1.0392 -1.3892 -0.6989
   66MOL0     H 8877   0.978   4.234  10.631  2.0315 -0.5072 -0.5461
   66MOL0     H 8878   0.944   4.517  10.536 -2.8007  0.2979 -1.4395
   66MOL0     H 8879   0.918   4.372  10.448  1.7319 -1.7600  1.2377
   66MOL0     H 8880   0.753   4.482  10.675 -0.4755 -0.9594  1.1384
   66MOL0     H 8881   0.729   4.321  10.598 -0.3753 -0.2719  0.1691
   66MOL0     H 8882   0.693   4.445  10.375 -1.2337 -1.4015 -0.7724
   66MOL0     H 8883   0.669   4.588  10.468  2.6204 -0.7637 -1.3484
   66MOL0     H 8884   0.454   4.462  10.415  0.6955  1.7320  0.0289
   66MOL0     H 8885   0.513   4.322  10.507  0.4857 -0.6033 -0.7544
   66MOL0     H 8886   0.453   4.617  10.604  1.9540  0.6650 -0.2471
   66MOL0     H 8887   0.517   4.504  10.710 -1.7888 -1.1324  0.6408
   66MOL0     H 8888   0.248   4.477  10.566 -0.5194  1.6384 -0.4617
   66MOL0     H 8889   0.333   4.332  10.628 -3.0105 -0.3634  2.9906
   66MOL0     H 8890   0.855   4.727  10.895  1.9694  0.0456  0.4480
   66MOL0     H 8891   0.838   4.826  11.108  0.7410 -0.2143 -1.7196
   66MOL0     H 8892   0.619   4.684  11.645  1.2616 -2.0542  1.1431
   66MOL0     H 8893   0.649   4.777  11.865 -1.9735  0.6939 -0.3995
   66MOL0     H 8894   2.384   4.787  11.162 -1.4580  0.6860  0.9945
   66MOL0     H 8895   2.484   4.662  10.971  2.8179  2.7799  4.4963
   66MOL0     H 8896   2.614   4.395  10.705  0.7409 -0.5994  1.4479
   66MOL0     H 8897   2.721   4.258  10.557 -0.4424  1.1471  1.1646
   66MOL0     H 8898   2.670   3.853  10.363  1.5462  1.9876 -0.2916
   66MOL0     H 8899   2.514   3.880  10.432 -0.9016 -1.0032  3.2651
   66MOL0     H 8900   2.613   3.849  10.666 -0.5394 -0.1601  0.0216
   66MOL0     H 8901   2.771   3.834  10.592 -1.1865 -0.1745 -0.2692
   66MOL0     H 8902   2.672   3.615  10.666  0.3786 -0.8835 -0.3481
   66MOL0     H 8903   2.725   3.620  10.505  2.0995  0.5410  1.7163
   66MOL0     H 8904   2.419   3.645  10.604 -0.5892  1.1889 -0.5936
   66MOL0     H 8905   2.475   3.623  10.437  1.2314  0.0126 -0.0144
   66MOL0     H 8906   2.465   3.241  10.607 -0.2762 -0.1653 -1.3859
   66MOL0     H 8907   2.391   3.984  10.556 -2.2153  1.6027  0.3247
   66MOL0     H 8908   2.160   4.186  10.748  0.9823  1.2023 -1.8074
   66MOL0     H 8909   2.197   4.035  10.656  2.0275 -2.0109  0.9822
   66MOL0     H 8910   2.258   4.045  10.812  0.3906 -0.8633 -1.4665
   67MOL0     O 8911   5.742   9.471   3.188 -0.0468 -0.0378 -0.3681
   67MOL0     C 8912   5.710   9.366   3.139  0.4815  0.9060  0.6083
   67MOL0     O 8913   5.779   9.313   3.047  0.2634  0.2659  0.0883
   67MOL0     C 8914   5.915   9.313   3.033 -0.5516 -0.4246  0.1099
   67MOL0     C 8915   5.981   9.191   3.036 -0.6477 -0.2278  0.7158
   67MOL0     C 8916   6.122   9.187   3.053  0.5296 -0.8234 -0.3796
   67MOL0     C 8917   6.202   9.302   3.063  0.9011 -0.8836  0.4899
   67MOL0     O 8918   6.336   9.299   3.101  0.0669 -0.0253 -0.6968
   67MOL0     C 8919   6.395   9.187   3.163  0.1779  0.1203  1.1148
   67MOL0     C 8920   6.548   9.217   3.176  0.1093  0.1972 -0.1393
   67MOL0     C 8921   6.612   9.271   3.050  0.4785 -0.3795 -0.7391
   67MOL0     C 8922   6.761   9.295   3.077 -1.3983 -0.1063 -0.3765
   67MOL0     C 8923   6.839   9.341   2.954 -0.5377 -0.5300 -0.2509
   67MOL0     C 8924   6.992   9.336   2.981  1.1225 -0.2952  0.6996
   67MOL0     C 8925   7.075   9.414   2.883 -0.1092  0.4802  0.4171
   67MOL0     C 8926   7.033   9.395   2.740  0.6431  0.9395  0.3609
   67MOL0     N 8927   7.144   9.420   2.644 -0.6573  0.3283  0.0553
   67MOL0     C 8928   7.181   9.546   2.597  0.2998 -0.6211 -1.1585
   67MOL0     C 8929   7.274   9.520   2.507  0.3320 -0.3292  0.4973
   67MOL0     C 8930   7.344   9.616   2.411  0.3716 -0.6394  0.0885
   67MOL0     C 8931   7.495   9.643   2.445  0.0916  0.8484 -0.1528
   67MOL0     C 8932   7.582   9.533   2.369 -0.1028 -0.0794 -1.4807
   67MOL0     C 8933   7.737   9.567   2.376 -0.4239  0.1110  0.2498
   67MOL0     O 8934   7.816   9.446   2.357 -0.5039 -0.2996 -0.1415
   67MOL0     C 8935   7.862   9.397   2.237  0.1198 -0.8514 -0.8182
   67MOL0     C 8936   7.851   9.464   2.113 -0.1405 -1.6043  0.1625
   67MOL0     C 8937   7.914   9.413   1.996 -0.4241 -0.4834  0.5197
   67MOL0     C 8938   7.984   9.296   2.002 -0.3492 -0.4415  0.4365
   67MOL0     C 8939   8.053   9.247   1.880 -0.2467  0.1873 -0.3063
   67MOL0     O 8940   8.056   9.325   1.768 -1.0032 -0.2772  0.1596
   67MOL0     C 8941   8.124   9.299   1.654 -0.7547  0.0101  0.0708
   67MOL0     C 8942   8.079   9.373   1.545 -0.0337  0.3733 -0.9466
   67MOL0     C 8943   8.154   9.374   1.427 -0.0954 -1.0802 -0.0136
   67MOL0     C 8944   8.272   9.296   1.414 -0.0685 -0.4207 -0.2539
   67MOL0     O 8945   8.355   9.294   1.302  0.2403 -0.3337  0.3380
   67MOL0     C 8946   8.377   9.419   1.242  0.3752 -0.5933  1.2619
   67MOL0     C 8947   8.509   9.409   1.166 -0.1242 -0.0112 -0.1913
   67MOL0     C 8948   8.625   9.442   1.252 -0.5359 -0.4443 -0.6212
   67MOL0     C 8949   8.753   9.441   1.168 -0.7503 -0.1899 -0.4520
   67MOL0     C 8950   8.882   9.509   1.244 -0.4191 -0.3661 -0.1591
   67MOL0     C 8951   9.002   9.514   1.146  0.0019  0.1767 -0.8636
   67MOL0     C 8952   9.129   9.579   1.213  0.4115 -0.8636 -0.3089
   67MOL0     C 8953   9.239   9.602   1.120  0.6516  0.0783 -0.6542
   67MOL0    Cl 8954   9.294   9.446   1.049 -0.2215 -0.5449 -0.4965
   67MOL0     C 8955   8.310   9.210   1.518  0.5476 -1.0214 -0.3308
   67MOL0     C 8956   8.236   9.216   1.635  0.1805 -0.9685  0.2687
   67MOL0     O 8957   8.107   9.137   1.896 -0.2848  0.1694  0.1460
   67MOL0     C 8958   8.008   9.230   2.130 -0.3636  0.2568 -0.2652
   67MOL0     C 8959   7.945   9.280   2.241  0.2447 -0.1972  0.6283
   67MOL0     N 8960   7.280   9.387   2.486 -0.3527  0.0053  0.1523
   67MOL0     N 8961   7.209   9.328   2.567  0.2764  0.6192 -0.3474
   67MOL0     C 8962   6.133   9.424   3.052 -1.4049  0.9129 -0.0569
   67MOL0     C 8963   5.995   9.436   3.038  0.2468 -0.1249 -0.1057
   67MOL0     C 8964   5.591   9.277   3.175  0.4324 -0.8997  0.3039
   67MOL0     C 8965   5.598   9.139   3.134 -0.1067  0.8614 -0.5735
   67MOL0     C 8966   5.490   9.053   3.147 -0.2070  0.9281 -0.4518
   67MOL0     C 8967   5.377   9.097   3.220 -0.0008  0.3741  0.2050
   67MOL0     O 8968   5.274   9.013   3.258 -0.1647 -0.5011 -0.8326
   67MOL0     C 8969   5.257   8.883   3.193 -0.5387 -0.6647 -0.0410
   67MOL0     C 8970   5.133   8.810   3.244 -0.0201 -0.5279 -0.1068
   67MOL0     C 8971   5.145   8.797   3.394 -0.2260  0.2648  0.4738
   67MOL0     C 8972   5.074   8.674   3.455 -0.8300  0.8631  1.0224
   67MOL0     C 8973   4.931   8.691   3.451  0.1706  0.2681  0.6662
   67MOL0     C 8974   4.807   8.692   3.454 -0.4058  0.0697  0.1540
   67MOL0     C 8975   5.364   9.233   3.236 -0.5516 -0.0062 -0.5412
   67MOL0     C 8976   5.460   9.324   3.209 -0.3030 -0.0650  0.1064
   67MOL0     C 8977   5.427   9.469   3.211  0.0092 -0.4717  0.1615
   67MOL0     H 8978   5.931   9.095   3.029  0.0528 -0.5235 -0.4653
   67MOL0     H 8979   6.180   9.096   3.063  0.7485 -0.5634  0.9148
   67MOL0     H 8980   6.351   9.178   3.263 -0.1177  2.1417  1.2080
   67MOL0     H 8981   6.383   9.098   3.101 -1.5005  1.6841 -0.9568
   67MOL0     H 8982   6.601   9.126   3.206  1.9172  0.6307 -1.8043
   67MOL0     H 8983   6.565   9.298   3.248  1.7148 -0.2118 -0.0213
   67MOL0     H 8984   6.568   9.361   3.005 -1.3236 -1.1661 -0.6446
   67MOL0     H 8985   6.605   9.193   2.973  2.0467  1.0177 -2.3879
   67MOL0     H 8986   6.771   9.365   3.161 -1.4292 -0.1574 -0.3306
   67MOL0     H 8987   6.808   9.208   3.123 -3.7457 -2.4274 -2.1006
   67MOL0     H 8988   6.818   9.273   2.871 -1.2338  0.1827 -0.6786
   67MOL0     H 8989   6.814   9.446   2.933 -0.4082 -0.1661  1.3084
   67MOL0     H 8990   7.002   9.372   3.084 -0.2401 -0.6942  0.9932
   67MOL0     H 8991   7.035   9.235   2.979  0.7204 -0.4524 -0.2507
   67MOL0     H 8992   7.181   9.387   2.893 -0.9376 -3.0792  0.9181
   67MOL0     H 8993   7.061   9.520   2.903  0.2679  0.4311  0.9539
   67MOL0     H 8994   6.988   9.298   2.720  0.3753  1.5121 -2.1786
   67MOL0     H 8995   6.962   9.475   2.715 -1.1327 -0.6705  0.0442
   67MOL0     H 8996   7.136   9.640   2.626  2.9730  0.0863  1.1786
   67MOL0     H 8997   7.341   9.595   2.304 -0.3959  0.3324 -0.0987
   67MOL0     H 8998   7.294   9.711   2.434  1.9022  0.2131 -0.0084
   67MOL0     H 8999   7.512   9.745   2.411 -0.8060  1.7410  1.8813
   67MOL0     H 9000   7.520   9.626   2.551  2.4735 -1.0483 -0.9233
   67MOL0     H 9001   7.566   9.516   2.262  0.6915  2.5771 -2.0750
   67MOL0     H 9002   7.573   9.445   2.435 -1.2882  0.8083 -0.3931
   67MOL0     H 9003   7.752   9.605   2.477 -3.1912  0.9621  0.4139
   67MOL0     H 9004   7.764   9.653   2.314 -1.4526  1.1465  1.2025
   67MOL0     H 9005   7.798   9.559   2.105  1.7263 -0.6036 -1.1098
   67MOL0     H 9006   7.886   9.459   1.902  0.6780 -1.1832 -0.1685
   67MOL0     H 9007   8.000   9.444   1.564 -0.5543  0.1968 -2.3042
   67MOL0     H 9008   8.123   9.442   1.348  2.8935 -0.3804 -0.6821
   67MOL0     H 9009   8.295   9.450   1.175  2.0748 -0.5602 -0.9169
   67MOL0     H 9010   8.396   9.501   1.312 -1.4138  1.5607 -0.5777
   67MOL0     H 9011   8.523   9.307   1.128  2.0628  0.3963 -0.6216
   67MOL0     H 9012   8.509   9.472   1.076  0.7321  0.0434 -0.1616
   67MOL0     H 9013   8.612   9.531   1.314 -1.0144 -1.2375  0.4533
   67MOL0     H 9014   8.633   9.358   1.321  1.2469 -0.8487 -1.2699
   67MOL0     H 9015   8.737   9.484   1.069  0.3078 -2.2673 -1.6010
   67MOL0     H 9016   8.772   9.335   1.149  0.7384 -0.4397  2.0413
   67MOL0     H 9017   8.906   9.467   1.342 -1.1588  3.9711  2.1411
   67MOL0     H 9018   8.854   9.612   1.267 -0.8948 -0.4104 -0.5050
   67MOL0     H 9019   9.028   9.413   1.113  0.2630  0.0788 -0.3595
   67MOL0     H 9020   8.983   9.564   1.050 -3.1503 -2.8523 -2.0399
   67MOL0     H 9021   9.165   9.516   1.295 -0.7983 -0.9472  0.1722
   67MOL0     H 9022   9.104   9.678   1.250  0.6722 -0.4992 -1.0908
   67MOL0     H 9023   9.200   9.659   1.035  0.2929 -0.7617 -1.0685
   67MOL0     H 9024   9.322   9.648   1.173 -0.3432 -0.3528  1.3790
   67MOL0     H 9025   8.388   9.137   1.498  0.8884 -0.0732 -2.9466
   67MOL0     H 9026   8.276   9.157   1.716 -0.0984  0.2831  1.3587
   67MOL0     H 9027   8.072   9.142   2.128  0.0937  0.5986 -1.0555
   67MOL0     H 9028   7.951   9.224   2.334  0.7175  4.7182  3.9029
   67MOL0     H 9029   6.173   9.525   3.053 -1.5697  0.9734  0.8113
   67MOL0     H 9030   5.948   9.533   3.045 -0.3893 -0.3914 -0.5760
   67MOL0     H 9031   5.677   9.084   3.084 -0.3095 -1.9887  1.9621
   67MOL0     H 9032   5.500   8.948   3.120 -2.0902  0.1515  1.5067
   67MOL0     H 9033   5.344   8.819   3.214 -0.4726 -0.8313 -0.8019
   67MOL0     H 9034   5.254   8.897   3.085 -1.0461  2.2747  0.2655
   67MOL0     H 9035   5.115   8.720   3.184  0.7262 -1.0373  0.4251
   67MOL0     H 9036   5.047   8.876   3.230  1.2032  2.3372  4.1764
   67MOL0     H 9037   5.100   8.884   3.443  2.1203  4.2179 -3.6613
   67MOL0     H 9038   5.250   8.785   3.422  0.2164  2.8357  0.1809
   67MOL0     H 9039   5.094   8.593   3.385 -0.2292  0.9776  1.0540
   67MOL0     H 9040   5.118   8.664   3.555  2.3560  1.7239 -0.1626
   67MOL0     H 9041   4.700   8.697   3.457 -0.4077  1.4044 -1.0123
   67MOL0     H 9042   5.264   9.268   3.261 -0.8875 -0.7514 -0.8321
   67MOL0     H 9043   5.321   9.477   3.233  0.6624  1.4729  3.1471
   67MOL0     H 9044   5.476   9.503   3.303 -3.8792  1.8155  1.6213
   67MOL0     H 9045   5.449   9.534   3.126 -1.1255  0.7914  0.7863
   68MOL0     O 9046   6.388   1.188   2.615  0.6440  1.2186 -0.0798
   68MOL0     C 9047   6.311   1.118   2.676  0.3212  0.5319  0.2389
   68MOL0     O 9048   6.301   1.106   2.810 -0.6448 -0.0024 -0.3016
   68MOL0     C 9049   6.370   1.191   2.894 -0.7048  0.2059  0.1865
   68MOL0     C 9050   6.381   1.327   2.858 -0.9307 -0.0594 -0.7113
   68MOL0     C 9051   6.462   1.415   2.927 -0.0353 -0.7747  0.0283
   68MOL0     C 9052   6.520   1.378   3.051  0.2840  0.5351  0.0158
   68MOL0     O 9053   6.584   1.466   3.134 -0.2509  0.0940 -0.1196
   68MOL0     C 9054   6.723   1.453   3.096  0.0071  0.5008  0.4277
   68MOL0     C 9055   6.798   1.550   3.189  0.6345 -0.7759 -0.6945
   68MOL0     C 9056   6.939   1.599   3.154  0.4286  0.5672  0.1805
   68MOL0     C 9057   7.038   1.483   3.117  0.4995  0.3137 -0.4517
   68MOL0     C 9058   7.049   1.362   3.209 -0.6068  0.7160 -0.2344
   68MOL0     C 9059   7.080   1.406   3.350 -0.4766 -0.1758 -0.3186
   68MOL0     C 9060   7.123   1.288   3.441  0.3956 -0.0167  0.2421
   68MOL0     C 9061   7.267   1.231   3.440  0.0472 -0.2410 -0.5186
   68MOL0     N 9062   7.314   1.157   3.319  0.1283 -0.8845 -0.2874
   68MOL0     C 9063   7.447   1.152   3.287  0.6451 -0.1921  0.7811
   68MOL0     C 9064   7.446   1.065   3.185 -0.5350 -0.7379 -0.1686
   68MOL0     C 9065   7.573   1.032   3.124  0.7968  0.4671  0.0970
   68MOL0     C 9066   7.582   1.098   2.983 -0.3823  0.5505 -0.7617
   68MOL0     C 9067   7.708   1.071   2.900 -0.7024  0.3257 -0.2794
   68MOL0     C 9068   7.723   0.931   2.848 -0.2541 -0.2644  0.0604
   68MOL0     O 9069   7.860   0.917   2.797  0.8906  0.1422  0.0426
   68MOL0     C 9070   7.891   0.794   2.756 -0.1186 -0.7030 -0.4268
   68MOL0     C 9071   7.808   0.691   2.746 -0.5156  0.5917 -0.2374
   68MOL0     C 9072   7.850   0.567   2.694 -0.0719 -0.8073 -0.6996
   68MOL0     C 9073   7.991   0.558   2.649 -0.5089  0.4535  0.6160
   68MOL0     C 9074   8.039   0.412   2.603 -0.1584 -1.0660 -0.1375
   68MOL0     O 9075   8.169   0.419   2.572 -0.2918  0.0388  0.1906
   68MOL0     C 9076   8.250   0.309   2.557 -0.3728 -1.1836 -0.1642
   68MOL0     C 9077   8.268   0.202   2.654 -1.0528  0.1087  0.1036
   68MOL0     C 9078   8.369   0.108   2.636 -0.3380 -0.4039 -0.9064
   68MOL0     C 9079   8.458   0.113   2.528  0.5694 -0.5596  0.7697
   68MOL0     O 9080   8.573   0.048   2.515 -0.1619  0.3115 -0.0261
   68MOL0     C 9081   8.578  -0.075   2.435  0.8516 -0.2072  0.0219
   68MOL0     C 9082   8.651  -0.183   2.520 -0.5365 -0.8045  0.5914
   68MOL0     C 9083   8.687  -0.300   2.421 -0.5635 -0.7466  0.3445
   68MOL0     C 9084   8.777  -0.404   2.493  0.9265  0.1589 -0.4751
   68MOL0     C 9085   8.924  -0.359   2.513 -0.5194  0.5563 -0.2988
   68MOL0     C 9086   9.016  -0.445   2.601  0.0025  1.0710  0.1139
   68MOL0     C 9087   9.083  -0.558   2.514  0.7089 -0.0007 -0.2807
   68MOL0     C 9088   9.172  -0.649   2.596 -0.2096 -0.4864  0.2816
   68MOL0    Cl 9089   9.195  -0.813   2.524  0.1771  0.5515  0.0433
   68MOL0     C 9090   8.433   0.212   2.432 -0.3780  0.4285  0.6255
   68MOL0     C 9091   8.330   0.307   2.443 -0.8425 -0.2125  0.6059
   68MOL0     O 9092   7.970   0.315   2.612  0.2802 -0.0632 -0.0355
   68MOL0     C 9093   8.068   0.671   2.650 -0.8627  0.7319 -0.1871
   68MOL0     C 9094   8.018   0.791   2.704  0.0239  0.4425 -0.2426
   68MOL0     N 9095   7.321   1.007   3.172 -0.0903 -0.8045 -0.0689
   68MOL0     N 9096   7.244   1.057   3.263 -0.9980  0.5353 -0.1823
   68MOL0     C 9097   6.497   1.247   3.093  0.2722  1.3083  0.0882
   68MOL0     C 9098   6.431   1.145   3.010 -0.1867 -0.6812 -0.0090
   68MOL0     C 9099   6.236   1.029   2.588 -0.7699 -0.0187  1.3547
   68MOL0     C 9100   6.227   1.075   2.453  0.3636 -0.1191  0.0150
   68MOL0     C 9101   6.162   0.999   2.359  0.5658 -1.0817  0.4867
   68MOL0     C 9102   6.113   0.876   2.389  0.0546  0.2361  0.0586
   68MOL0     O 9103   6.074   0.797   2.285  0.5855  0.2156 -0.1378
   68MOL0     C 9104   5.975   0.688   2.305  0.8336 -0.2105 -0.0149
   68MOL0     C 9105   5.839   0.748   2.340  0.4451 -0.6808 -0.4109
   68MOL0     C 9106   5.746   0.674   2.433 -0.3046 -0.2419  0.8068
   68MOL0     C 9107   5.609   0.754   2.450 -0.3695  0.2174 -0.1817
   68MOL0     C 9108   5.499   0.653   2.471 -0.2611  0.5816 -0.7676
   68MOL0     C 9109   5.412   0.569   2.476 -0.4032 -0.0399 -0.4505
   68MOL0     C 9110   6.117   0.836   2.521  0.4400  0.9292 -0.1382
   68MOL0     C 9111   6.175   0.911   2.624 -0.3305 -0.6055 -0.0661
   68MOL0     C 9112   6.168   0.848   2.763 -0.8362  0.2551 -0.1019
   68MOL0     H 9113   6.333   1.373   2.772  1.6100 -1.5282 -3.0731
   68MOL0     H 9114   6.475   1.521   2.906  3.8219 -1.0515  0.3843
   68MOL0     H 9115   6.769   1.354   3.094  2.0236  1.3713 -1.9846
   68MOL0     H 9116   6.730   1.485   2.991  0.7416 -2.8436 -0.6705
   68MOL0     H 9117   6.803   1.513   3.292  0.8174  2.2085  0.4649
   68MOL0     H 9118   6.734   1.638   3.197  1.1960 -0.0794 -3.0125
   68MOL0     H 9119   6.981   1.666   3.230 -0.8380  1.3882  0.1915
   68MOL0     H 9120   6.927   1.656   3.061  1.9241 -2.1673 -1.8191
   68MOL0     H 9121   7.019   1.443   3.017 -0.5214 -2.5882  0.7725
   68MOL0     H 9122   7.136   1.532   3.115 -0.7159  2.9998  0.3472
   68MOL0     H 9123   6.952   1.313   3.213 -0.0997 -0.2717  0.5496
   68MOL0     H 9124   7.116   1.286   3.166 -2.5291 -1.8156  0.9561
   68MOL0     H 9125   7.173   1.464   3.346 -1.4614  1.4038 -0.9660
   68MOL0     H 9126   6.993   1.458   3.391 -1.0805  0.7461 -2.6181
   68MOL0     H 9127   7.058   1.204   3.413  3.7510 -3.1062  0.9912
   68MOL0     H 9128   7.102   1.315   3.545 -0.0279 -1.1124  0.4565
   68MOL0     H 9129   7.339   1.312   3.455 -1.2324  1.0396 -1.0162
   68MOL0     H 9130   7.275   1.161   3.524  3.0037  0.1590 -0.3473
   68MOL0     H 9131   7.531   1.206   3.329  0.4074 -1.0081  2.4147
   68MOL0     H 9132   7.650   1.066   3.194  0.0852 -2.7910  2.7609
   68MOL0     H 9133   7.572   0.922   3.115 -3.2422  0.3451  0.2493
   68MOL0     H 9134   7.502   1.062   2.918 -0.5836 -1.0099  0.3056
   68MOL0     H 9135   7.572   1.207   2.990  0.1834  0.5344  0.4708
   68MOL0     H 9136   7.787   1.083   2.975 -0.7019  1.2731 -0.4185
   68MOL0     H 9137   7.725   1.137   2.814  1.5007 -0.6428 -0.6771
   68MOL0     H 9138   7.650   0.914   2.768 -1.8292  0.6029  1.2502
   68MOL0     H 9139   7.707   0.859   2.930  0.2069  0.7159  1.0447
   68MOL0     H 9140   7.711   0.690   2.793 -1.2844 -0.2040 -1.7424
   68MOL0     H 9141   7.783   0.482   2.693 -1.4000  0.1794  0.4392
   68MOL0     H 9142   8.216   0.191   2.748  1.3288 -2.4041  1.2664
   68MOL0     H 9143   8.374   0.033   2.714  0.1938  3.0593  2.7387
   68MOL0     H 9144   8.480  -0.106   2.398  1.3143 -1.4269 -0.2289
   68MOL0     H 9145   8.626  -0.053   2.340  1.6939 -4.8266 -0.8671
   68MOL0     H 9146   8.751  -0.158   2.556 -0.2417  0.2982 -0.8897
   68MOL0     H 9147   8.607  -0.206   2.618 -0.4873 -3.2852  0.0734
   68MOL0     H 9148   8.591  -0.348   2.399  0.3216 -1.3758 -2.4876
   68MOL0     H 9149   8.727  -0.262   2.327 -0.0718  0.0790  0.8712
   68MOL0     H 9150   8.777  -0.504   2.447 -2.5956 -0.5704  0.8287
   68MOL0     H 9151   8.724  -0.415   2.588 -4.3688  1.1921 -2.9613
   68MOL0     H 9152   8.932  -0.264   2.566  1.9858 -0.0950  0.6633
   68MOL0     H 9153   8.973  -0.336   2.417  2.1199  3.4237  1.5249
   68MOL0     H 9154   9.086  -0.375   2.648  0.9659  1.3556 -1.6933
   68MOL0     H 9155   8.945  -0.484   2.674 -0.8130  0.0327 -1.2055
   68MOL0     H 9156   9.141  -0.528   2.426  0.5621  2.4704  0.3647
   68MOL0     H 9157   9.001  -0.621   2.477  0.4075 -0.0168  0.4098
   68MOL0     H 9158   9.268  -0.599   2.611 -0.5525  0.4063 -0.4307
   68MOL0     H 9159   9.134  -0.658   2.698  1.9408  0.9062  1.2808
   68MOL0     H 9160   8.500   0.216   2.346 -0.2524 -0.6008  0.6568
   68MOL0     H 9161   8.323   0.375   2.359  0.9054 -0.5546  0.1400
   68MOL0     H 9162   8.165   0.680   2.601 -2.0698  0.8597 -2.7425
   68MOL0     H 9163   8.070   0.886   2.702 -0.2364  0.5835 -0.3519
   68MOL0     H 9164   6.518   1.220   3.196 -0.4148  0.7334  0.0891
   68MOL0     H 9165   6.412   1.043   3.041  1.9083 -0.9120  0.6580
   68MOL0     H 9166   6.251   1.166   2.399 -2.8178 -0.0209 -1.4927
   68MOL0     H 9167   6.149   1.041   2.260 -0.0832  0.5755  1.2297
   68MOL0     H 9168   6.005   0.605   2.369 -1.7935 -2.5670 -1.6295
   68MOL0     H 9169   5.958   0.632   2.213 -0.7037 -3.2979  1.9815
   68MOL0     H 9170   5.791   0.771   2.244  1.3001  1.7824 -0.2972
   68MOL0     H 9171   5.859   0.844   2.387  0.4953 -0.0081 -1.7536
   68MOL0     H 9172   5.788   0.688   2.533  0.3544  2.8934  0.1823
   68MOL0     H 9173   5.732   0.570   2.401  1.0171 -0.6911  1.6250
   68MOL0     H 9174   5.620   0.819   2.537 -2.5831  3.2063 -1.9426
   68MOL0     H 9175   5.576   0.814   2.365 -4.5193  1.1738  1.8589
   68MOL0     H 9176   5.337   0.494   2.481  2.0379 -2.6246  0.0910
   68MOL0     H 9177   6.083   0.734   2.535 -0.6169  1.5966  2.9876
   68MOL0     H 9178   6.120   0.750   2.762  0.9583 -0.6751 -0.9337
   68MOL0     H 9179   6.268   0.839   2.806 -0.2845  2.3153 -0.8398
   68MOL0     H 9180   6.110   0.910   2.832  1.1657  0.6339  1.3251
   69MOL0     O 9181   0.647   9.414   1.370  0.9819  0.5490 -0.5577
   69MOL0     C 9182   0.602   9.531   1.382  0.2995  0.6679 -0.1163
   69MOL0     O 9183   0.669   9.637   1.409 -0.1675 -0.2005 -0.4444
   69MOL0     C 9184   0.797   9.618   1.459 -0.8340 -0.0619 -0.0775
   69MOL0     C 9185   0.820   9.641   1.591 -0.7549  0.6903 -0.5286
   69MOL0     C 9186   0.949   9.641   1.651 -0.7508 -0.0953  0.3623
   69MOL0     C 9187   1.058   9.615   1.571  1.0262 -0.0197  0.0409
   69MOL0     O 9188   1.171   9.597   1.642 -0.5218  0.0106 -0.7405
   69MOL0     C 9189   1.295   9.592   1.563  0.4347  0.6567 -0.5351
   69MOL0     C 9190   1.422   9.581   1.646  0.0198 -0.1043 -0.3034
   69MOL0     C 9191   1.507   9.455   1.607  0.0372  1.3613 -0.6017
   69MOL0     C 9192   1.604   9.438   1.726  0.2921  1.0645  0.8258
   69MOL0     C 9193   1.727   9.524   1.701 -0.0285  0.5369 -0.1714
   69MOL0     C 9194   1.824   9.483   1.820  0.4976  0.8387  0.7315
   69MOL0     C 9195   1.965   9.540   1.808  0.7229 -0.2739 -0.1465
   69MOL0     C 9196   1.961   9.686   1.857  0.8975  0.1069  0.7841
   69MOL0     N 9197   1.989   9.697   1.998 -0.8403 -0.1446 -0.4277
   69MOL0     C 9198   2.116   9.697   2.054  0.4877 -0.9117 -0.1299
   69MOL0     C 9199   2.087   9.728   2.183  0.5895  0.3572 -0.0045
   69MOL0     C 9200   2.196   9.749   2.277 -0.4484 -0.5077  0.5391
   69MOL0     C 9201   2.155   9.840   2.401 -0.1699  0.9748 -0.3240
   69MOL0     C 9202   2.253   9.819   2.522  0.5921  0.1265 -0.1306
   69MOL0     C 9203   2.197   9.843   2.662 -0.3286 -0.4760 -0.1224
   69MOL0     O 9204   2.145   9.979   2.673 -0.7437 -0.1127 -0.0438
   69MOL0     C 9205   2.078  10.003   2.790  0.0361  0.3130  0.2717
   69MOL0     C 9206   2.013  10.123   2.795 -0.8735  0.7533 -0.4729
   69MOL0     C 9207   1.939  10.172   2.903 -0.7333  0.0038  1.2768
   69MOL0     C 9208   1.922  10.086   3.011  0.1698  0.2197  0.4160
   69MOL0     C 9209   1.852  10.126   3.129  0.1846  0.4940  1.1244
   69MOL0     O 9210   1.840  10.029   3.229  0.3691  0.6408 -0.1897
   69MOL0     C 9211   1.745  10.050   3.322 -0.1564  0.1796 -0.8718
   69MOL0     C 9212   1.613  10.104   3.303 -0.3661 -0.5691  0.2563
   69MOL0     C 9213   1.520  10.101   3.407 -0.5966  0.0331 -0.1091
   69MOL0     C 9214   1.551  10.073   3.545  0.3518  0.0543 -0.5247
   69MOL0     O 9215   1.457  10.071   3.645  0.0770  0.3148  0.7917
   69MOL0     C 9216   1.337  10.156   3.636 -0.5740 -1.1332  0.9373
   69MOL0     C 9217   1.285  10.193   3.777 -0.8047  0.6168  0.1071
   69MOL0     C 9218   1.276  10.067   3.863 -0.4476  0.0370 -1.0009
   69MOL0     C 9219   1.273  10.096   4.017 -0.5794 -0.1295  0.4240
   69MOL0     C 9220   1.226   9.976   4.097 -0.0413 -0.6718 -0.5842
   69MOL0     C 9221   1.235  10.003   4.249  0.0344  0.2654  0.3615
   69MOL0     C 9222   1.151   9.899   4.321  0.5145  0.0042  0.0550
   69MOL0     C 9223   1.171   9.889   4.473  0.7079 -0.4460 -0.3326
   69MOL0    Cl 9224   1.156   9.720   4.524 -0.3309 -0.1565 -0.6797
   69MOL0     C 9225   1.677  10.028   3.558 -0.2074  0.7955 -0.6936
   69MOL0     C 9226   1.776  10.018   3.454  0.5557 -0.6901 -0.0860
   69MOL0     O 9227   1.807  10.240   3.127  1.3114 -0.0434  0.0811
   69MOL0     C 9228   1.997   9.964   3.011 -0.6092  0.6988  0.5280
   69MOL0     C 9229   2.066   9.921   2.899 -0.4800  0.4630 -0.6785
   69MOL0     N 9230   1.950   9.739   2.206 -0.8564  0.2471 -0.4909
   69MOL0     N 9231   1.894   9.727   2.092 -0.5780 -0.8859  0.1133
   69MOL0     C 9232   1.039   9.593   1.436  0.6803  0.3535 -0.0809
   69MOL0     C 9233   0.911   9.579   1.381 -0.4499 -0.3741 -0.1143
   69MOL0     C 9234   0.458   9.559   1.350  0.8028  0.5309 -0.3828
   69MOL0     C 9235   0.384   9.470   1.274 -0.0835 -0.4474  0.9132
   69MOL0     C 9236   0.256   9.493   1.223  0.0778 -0.6183  0.2334
   69MOL0     C 9237   0.191   9.614   1.252  0.2959  0.2422  0.1355
   69MOL0     O 9238   0.062   9.643   1.212  0.7909 -0.2477 -0.4566
   69MOL0     C 9239   0.005   9.569   1.111  0.8643 -0.7065  0.5569
   69MOL0     C 9240  -0.133   9.629   1.086 -0.0259  0.7426  0.7804
   69MOL0     C 9241  -0.194   9.557   0.967 -0.1328  0.0752 -0.3502
   69MOL0     C 9242  -0.340   9.596   0.926  1.3279 -0.1588  0.6813
   69MOL0     C 9243  -0.439   9.562   1.027  0.4296 -0.2993 -0.4070
   69MOL0     C 9244  -0.525   9.544   1.113 -0.0796 -0.2553  0.4824
   69MOL0     C 9245   0.259   9.705   1.336 -0.2331 -0.3661 -1.1316
   69MOL0     C 9246   0.389   9.680   1.390 -0.7471  1.2507  0.2775
   69MOL0     C 9247   0.453   9.787   1.481  0.1519 -0.0735 -0.5335
   69MOL0     H 9248   0.737   9.675   1.652 -1.3274  3.2361 -2.5442
   69MOL0     H 9249   0.971   9.669   1.754  6.2096  0.4517 -0.8268
   69MOL0     H 9250   1.293   9.517   1.482  1.1477 -0.3221  0.3318
   69MOL0     H 9251   1.314   9.679   1.499  1.5859 -2.3609 -4.7985
   69MOL0     H 9252   1.393   9.577   1.751 -1.3568  3.5569 -0.3679
   69MOL0     H 9253   1.485   9.669   1.628 -0.1149  0.3078  1.1057
   69MOL0     H 9254   1.558   9.478   1.513  1.2064 -2.4384 -1.0475
   69MOL0     H 9255   1.437   9.373   1.589 -0.1350  1.3191  0.2128
   69MOL0     H 9256   1.565   9.477   1.820  0.5915  4.1410 -0.2283
   69MOL0     H 9257   1.626   9.331   1.737 -0.8467  0.6339 -0.6615
   69MOL0     H 9258   1.769   9.505   1.601  4.0261 -2.6652  1.8124
   69MOL0     H 9259   1.701   9.629   1.715 -0.1873  0.7861 -2.0837
   69MOL0     H 9260   1.780   9.511   1.916  1.9876  1.1842  1.3469
   69MOL0     H 9261   1.829   9.375   1.833 -2.0167  0.7249  1.2960
   69MOL0     H 9262   1.990   9.534   1.702 -0.9218 -0.9010 -0.5342
   69MOL0     H 9263   2.035   9.473   1.859 -0.1331 -0.6470  0.5715
   69MOL0     H 9264   2.019   9.740   1.782 -0.9184  1.1519  0.0619
   69MOL0     H 9265   1.863   9.728   1.831  1.8350  1.2440 -1.1054
   69MOL0     H 9266   2.217   9.692   2.013  0.6998  2.6008 -0.3222
   69MOL0     H 9267   2.228   9.652   2.318  1.5124 -0.1401 -0.0143
   69MOL0     H 9268   2.281   9.797   2.228 -0.0864  0.4399  2.0596
   69MOL0     H 9269   2.158   9.945   2.369 -0.4807  0.8657 -0.7133
   69MOL0     H 9270   2.056   9.809   2.434  0.3536  0.9393  1.3144
   69MOL0     H 9271   2.348   9.871   2.509  1.4819 -0.9317  1.7219
   69MOL0     H 9272   2.282   9.713   2.522  0.1597 -0.0644 -2.5818
   69MOL0     H 9273   2.284   9.830   2.727 -1.7308  1.2680  2.2732
   69MOL0     H 9274   2.124   9.765   2.685  1.8888 -2.0357  2.2539
   69MOL0     H 9275   2.028  10.184   2.706  1.2423  0.0378 -0.6544
   69MOL0     H 9276   1.898  10.273   2.898 -0.7190 -0.0656 -1.6026
   69MOL0     H 9277   1.585  10.143   3.207 -0.1854 -0.9043  0.0636
   69MOL0     H 9278   1.420  10.133   3.382 -0.7359 -0.7086 -0.5161
   69MOL0     H 9279   1.343  10.251   3.582 -2.2831 -1.7213 -0.3533
   69MOL0     H 9280   1.258  10.095   3.592  0.6801 -1.8363 -0.4525
   69MOL0     H 9281   1.348  10.268   3.826 -0.6344  0.2827  0.4032
   69MOL0     H 9282   1.182  10.231   3.772 -0.4745  1.4014 -3.7089
   69MOL0     H 9283   1.181  10.026   3.828  0.5521 -1.7779 -1.6807
   69MOL0     H 9284   1.361  10.001   3.842  0.5522  1.2131 -0.7807
   69MOL0     H 9285   1.206  10.182   4.029  1.6399  1.8564 -0.5907
   69MOL0     H 9286   1.376  10.116   4.047 -0.0734  0.5738 -1.6161
   69MOL0     H 9287   1.294   9.892   4.083 -0.3479 -1.0532  0.1711
   69MOL0     H 9288   1.121   9.954   4.074 -0.3034 -3.5427  2.5598
   69MOL0     H 9289   1.343  10.012   4.268 -0.0395 -2.1921  2.5555
   69MOL0     H 9290   1.200  10.105   4.268  2.4893  1.0955  0.8900
   69MOL0     H 9291   1.167   9.801   4.275 -1.9160 -0.3486 -0.1804
   69MOL0     H 9292   1.044   9.916   4.302 -0.8412 -1.2118  5.1964
   69MOL0     H 9293   1.273   9.917   4.500 -0.1525 -0.4229  3.5917
   69MOL0     H 9294   1.102   9.953   4.530  1.7432  1.6680 -1.3274
   69MOL0     H 9295   1.704  10.004   3.660 -0.7867 -3.0458 -1.3002
   69MOL0     H 9296   1.878   9.991   3.477  1.2689  2.9664  1.7896
   69MOL0     H 9297   1.982   9.907   3.102 -2.8133  0.7089  0.2281
   69MOL0     H 9298   2.100   9.819   2.904 -1.6443  0.0477 -0.8602
   69MOL0     H 9299   1.113   9.574   1.360  0.0680 -1.7488 -0.2287
   69MOL0     H 9300   0.896   9.555   1.276 -1.2302 -1.7154  0.2838
   69MOL0     H 9301   0.439   9.380   1.250 -0.6837 -0.9479  1.3730
   69MOL0     H 9302   0.223   9.419   1.151  2.6176  1.5417 -3.5168
   69MOL0     H 9303  -0.019   9.465   1.137  0.0958 -0.7329 -0.2011
   69MOL0     H 9304   0.050   9.558   1.012 -2.2005 -1.2543 -0.9007
   69MOL0     H 9305  -0.132   9.738   1.078 -0.9831  0.6377 -1.6261
   69MOL0     H 9306  -0.179   9.594   1.179 -1.7547 -0.3310 -0.4155
   69MOL0     H 9307  -0.196   9.450   0.988  0.6893  0.4487  1.7887
   69MOL0     H 9308  -0.140   9.593   0.878 -0.1442 -0.9627 -0.7879
   69MOL0     H 9309  -0.347   9.704   0.910  0.9961 -0.3336 -0.4549
   69MOL0     H 9310  -0.367   9.546   0.832 -0.1766 -0.7803  1.4043
   69MOL0     H 9311  -0.598   9.530   1.190  0.6864 -0.4458  1.1827
   69MOL0     H 9312   0.206   9.798   1.356  0.6178 -0.1166  0.0791
   69MOL0     H 9313   0.494   9.740   1.570  1.5353  3.0760  0.6092
   69MOL0     H 9314   0.532   9.839   1.425 -0.7469  0.7901 -1.0340
   69MOL0     H 9315   0.381   9.865   1.506 -0.4433 -0.4469 -1.0497
   70MOL0     O 9316   9.511   3.023   5.535 -0.4177  0.2876  0.2109
   70MOL0     C 9317   9.426   2.977   5.457  0.9547  0.4032 -0.0895
   70MOL0     O 9318   9.402   2.847   5.436 -0.0724 -0.3548 -0.0805
   70MOL0     C 9319   9.481   2.765   5.513  0.4087  0.5852  0.1451
   70MOL0     C 9320   9.592   2.698   5.458 -0.5748  0.1707 -0.3726
   70MOL0     C 9321   9.669   2.605   5.528 -0.5218  0.7756 -0.4866
   70MOL0     C 9322   9.631   2.567   5.655 -0.6952 -0.0149 -0.9787
   70MOL0     O 9323   9.716   2.482   5.735  0.1108  0.0814 -0.0456
   70MOL0     C 9324   9.752   2.350   5.682 -0.1440  0.1529 -0.1365
   70MOL0     C 9325   9.816   2.281   5.798 -0.1375 -0.6045 -0.2415
   70MOL0     C 9326   9.879   2.151   5.749  0.5725 -0.1611  0.4424
   70MOL0     C 9327   9.790   2.057   5.669  1.0178 -0.5564  0.9037
   70MOL0     C 9328   9.861   1.922   5.641  0.7733 -1.3904  0.3266
   70MOL0     C 9329   9.913   1.936   5.497  0.0771 -0.0344  0.3844
   70MOL0     C 9330   9.979   1.817   5.432 -0.3917  0.1237 -0.5839
   70MOL0     C 9331  10.040   1.848   5.306  0.1104 -0.4178 -0.7192
   70MOL0     N 9332   9.956   1.903   5.201 -0.0799 -0.7734  0.0464
   70MOL0     C 9333   9.940   2.041   5.169 -0.4232  0.4849  0.1191
   70MOL0     C 9334   9.835   2.040   5.077  0.0676 -0.7137 -0.1582
   70MOL0     C 9335   9.757   2.163   5.031  0.5502 -0.3755 -0.3025
   70MOL0     C 9336   9.837   2.250   4.939  0.1540 -0.4812 -0.2278
   70MOL0     C 9337   9.762   2.349   4.844  0.1664  0.1084 -0.1069
   70MOL0     C 9338   9.652   2.288   4.764  0.6330  0.4796 -0.5764
   70MOL0     O 9339   9.619   2.386   4.667 -0.4808 -0.4824  0.0041
   70MOL0     C 9340   9.566   2.506   4.706  0.8704 -0.2240 -0.9765
   70MOL0     C 9341   9.563   2.607   4.609 -0.1885  1.1367 -0.5172
   70MOL0     C 9342   9.500   2.721   4.633  0.5435  0.5348  0.1293
   70MOL0     C 9343   9.427   2.747   4.752  0.1277  0.5232 -0.0994
   70MOL0     C 9344   9.361   2.879   4.773 -1.1759 -0.0231  0.3221
   70MOL0     O 9345   9.356   2.953   4.655 -0.1481 -0.2388 -0.2890
   70MOL0     C 9346   9.332   3.081   4.673  1.2217 -1.1412  1.1623
   70MOL0     C 9347   9.435   3.171   4.738 -1.1500  0.5351  0.6329
   70MOL0     C 9348   9.406   3.306   4.746 -0.2310 -0.4957 -0.0806
   70MOL0     C 9349   9.282   3.351   4.701  0.3603  0.1751 -1.3813
   70MOL0     O 9350   9.243   3.489   4.712  0.0714  0.8303 -0.7636
   70MOL0     C 9351   9.299   3.568   4.609 -0.3727 -0.0681 -0.1147
   70MOL0     C 9352   9.204   3.591   4.486 -0.2511  0.3726  0.0001
   70MOL0     C 9353   9.282   3.587   4.350  0.3515  0.8673 -0.5510
   70MOL0     C 9354   9.179   3.613   4.230 -0.5216  1.5219 -0.5367
   70MOL0     C 9355   9.242   3.612   4.096 -0.9328 -0.4133 -0.4345
   70MOL0     C 9356   9.157   3.607   3.971 -0.1663  0.1852 -0.1533
   70MOL0     C 9357   9.046   3.505   3.958 -1.7066 -0.2979 -0.1663
   70MOL0     C 9358   8.904   3.553   3.938  0.7648 -0.4346 -0.3537
   70MOL0    Cl 9359   8.902   3.694   3.828 -0.1468  0.4228 -0.2920
   70MOL0     C 9360   9.184   3.263   4.651  0.1686  0.2169  0.5813
   70MOL0     C 9361   9.208   3.132   4.631 -0.6254  0.5375 -0.1138
   70MOL0     O 9362   9.322   2.922   4.884 -0.2407  0.1616 -0.5693
   70MOL0     C 9363   9.423   2.649   4.853  0.3185  0.3352 -0.3729
   70MOL0     C 9364   9.484   2.523   4.822 -0.3768 -0.6335 -0.1316
   70MOL0     N 9365   9.793   1.908   5.056 -0.6633 -0.2376  0.3071
   70MOL0     N 9366   9.870   1.829   5.121  1.4391 -0.4543 -0.8668
   70MOL0     C 9367   9.518   2.631   5.713  0.5108 -0.7366 -0.0237
   70MOL0     C 9368   9.447   2.724   5.639  0.6002 -0.2838 -0.5777
   70MOL0     C 9369   9.346   3.078   5.385  0.9759 -0.2125 -0.2927
   70MOL0     C 9370   9.315   3.041   5.255 -0.4788 -0.7148  0.0146
   70MOL0     C 9371   9.248   3.125   5.160  0.0203  0.5315  0.7426
   70MOL0     C 9372   9.200   3.244   5.210 -0.3904  0.8182  0.4392
   70MOL0     O 9373   9.143   3.316   5.108  0.1314  0.0592  0.0035
   70MOL0     C 9374   9.081   3.438   5.157  0.8790 -0.8156  0.1772
   70MOL0     C 9375   8.967   3.495   5.063  0.8514 -0.4573  0.6626
   70MOL0     C 9376   9.031   3.523   4.919 -0.3683  0.0621 -0.5282
   70MOL0     C 9377   8.925   3.585   4.831 -0.3315  0.7931 -0.0085
   70MOL0     C 9378   8.931   3.733   4.823  0.2626 -0.1187  0.3674
   70MOL0     C 9379   8.939   3.848   4.830 -0.0688 -0.6641 -0.4645
   70MOL0     C 9380   9.235   3.285   5.342 -0.0796  0.1118  0.2680
   70MOL0     C 9381   9.313   3.210   5.430 -0.3912  0.1063  0.9063
   70MOL0     C 9382   9.352   3.270   5.567 -1.0823 -0.0445  0.6504
   70MOL0     H 9383   9.619   2.739   5.361 -2.0191 -2.3118 -1.9415
   70MOL0     H 9384   9.762   2.566   5.487 -0.2520 -3.1677  3.1402
   70MOL0     H 9385   9.664   2.291   5.656 -0.7110  0.5173  0.8834
   70MOL0     H 9386   9.819   2.353   5.596 -0.6173 -0.6510 -0.5399
   70MOL0     H 9387   9.749   2.256   5.880  2.0109 -0.2227  1.7465
   70MOL0     H 9388   9.884   2.351   5.847 -0.9727  0.7023 -0.9194
   70MOL0     H 9389   9.910   2.098   5.839  1.2311 -3.1342 -1.3886
   70MOL0     H 9390   9.975   2.165   5.699  1.9438  2.9683  3.6358
   70MOL0     H 9391   9.693   2.038   5.715  0.2434 -0.7141 -0.7398
   70MOL0     H 9392   9.764   2.111   5.578  0.5010  1.3707  2.1311
   70MOL0     H 9393   9.949   1.907   5.703  0.6390 -1.5303  0.4835
   70MOL0     H 9394   9.797   1.833   5.645  2.3489 -2.5464  0.5986
   70MOL0     H 9395   9.828   1.960   5.433  0.6657 -2.5951 -1.4983
   70MOL0     H 9396   9.996   2.007   5.503  0.7299 -0.7937  0.6553
   70MOL0     H 9397   9.908   1.733   5.428  1.5387 -1.5478 -1.5346
   70MOL0     H 9398  10.047   1.776   5.507 -3.3350 -0.5732  1.9323
   70MOL0     H 9399  10.135   1.901   5.310 -0.1161  0.0206 -1.0661
   70MOL0     H 9400  10.075   1.746   5.286 -0.2231  0.0420 -4.2184
   70MOL0     H 9401   9.984   2.129   5.214  0.9508 -0.4043  0.5751
   70MOL0     H 9402   9.660   2.138   4.988  0.4448  0.4020 -0.5356
   70MOL0     H 9403   9.733   2.228   5.116 -2.6504 -1.4747 -0.2478
   70MOL0     H 9404   9.915   2.302   4.996 -0.1946 -0.2761  0.0739
   70MOL0     H 9405   9.905   2.192   4.877  2.7832  0.4174  1.6410
   70MOL0     H 9406   9.847   2.379   4.782  0.7594  2.0661  1.5186
   70MOL0     H 9407   9.730   2.439   4.897  1.3527  0.5015 -0.0127
   70MOL0     H 9408   9.565   2.269   4.828  1.8049 -1.0145  0.6243
   70MOL0     H 9409   9.664   2.187   4.724 -5.3969 -0.5121 -0.8981
   70MOL0     H 9410   9.626   2.590   4.523 -0.4046  0.7844 -0.6047
   70MOL0     H 9411   9.519   2.801   4.561 -2.4165  1.7950  0.6031
   70MOL0     H 9412   9.530   3.124   4.763 -0.3249  2.6362  1.6384
   70MOL0     H 9413   9.461   3.383   4.798  0.6533  1.9773 -4.2446
   70MOL0     H 9414   9.325   3.656   4.668  2.7555 -1.4409  0.7496
   70MOL0     H 9415   9.387   3.514   4.573  0.4753 -0.1502  1.9578
   70MOL0     H 9416   9.127   3.513   4.485 -1.4671  1.5375 -1.5087
   70MOL0     H 9417   9.156   3.689   4.496 -1.7036  0.3477 -4.6294
   70MOL0     H 9418   9.360   3.663   4.340  2.6362 -1.4759 -1.4464
   70MOL0     H 9419   9.328   3.490   4.333  0.3991  1.2550 -2.9131
   70MOL0     H 9420   9.129   3.707   4.255 -3.9976 -0.5134  1.0061
   70MOL0     H 9421   9.093   3.545   4.221  0.6819 -0.1124 -0.2310
   70MOL0     H 9422   9.307   3.524   4.092 -0.0462  0.2654 -1.8355
   70MOL0     H 9423   9.312   3.696   4.095  0.7889 -1.7244  1.0630
   70MOL0     H 9424   9.113   3.705   3.949 -4.7710 -1.2571  1.4755
   70MOL0     H 9425   9.225   3.600   3.886 -0.0153  3.6460 -0.4596
   70MOL0     H 9426   9.040   3.439   4.045 -0.4232  2.8315  2.4672
   70MOL0     H 9427   9.073   3.431   3.882 -0.1360 -1.4720  1.4698
   70MOL0     H 9428   8.839   3.474   3.900 -1.1857  1.6195 -1.4949
   70MOL0     H 9429   8.855   3.593   4.028  0.3923  0.2391 -0.8497
   70MOL0     H 9430   9.093   3.313   4.620  0.8423 -0.2181 -2.4769
   70MOL0     H 9431   9.133   3.066   4.589 -0.3082  0.1147 -0.0229
   70MOL0     H 9432   9.386   2.672   4.952 -2.8122  0.6610 -1.5365
   70MOL0     H 9433   9.474   2.448   4.900  2.0410 -0.6103  0.2679
   70MOL0     H 9434   9.487   2.609   5.814  0.7422  0.8235  0.4015
   70MOL0     H 9435   9.357   2.771   5.678  2.2121  3.3941 -0.9540
   70MOL0     H 9436   9.343   2.944   5.218 -0.0433 -0.6522  0.1759
   70MOL0     H 9437   9.221   3.098   5.058  0.2469  0.7404  0.6247
   70MOL0     H 9438   9.152   3.516   5.186 -1.1979  1.4864 -0.6272
   70MOL0     H 9439   9.031   3.412   5.250  2.6551 -1.1181  1.0851
   70MOL0     H 9440   8.923   3.586   5.106  1.1615  0.3251 -0.6408
   70MOL0     H 9441   8.891   3.419   5.040 -0.8353  1.3676 -0.0776
   70MOL0     H 9442   9.062   3.430   4.872  2.0594 -0.1702  1.3098
   70MOL0     H 9443   9.128   3.575   4.921  1.1271 -2.5249  1.0866
   70MOL0     H 9444   8.917   3.539   4.731  1.3793 -0.8251  0.5492
   70MOL0     H 9445   8.832   3.559   4.883 -0.5184  0.5391 -0.4617
   70MOL0     H 9446   8.938   3.955   4.835  2.3590 -0.5662 -0.9577
   70MOL0     H 9447   9.191   3.370   5.394 -2.2136 -0.7121 -0.0925
   70MOL0     H 9448   9.284   3.349   5.601 -1.2244 -0.3565  1.0970
   70MOL0     H 9449   9.357   3.193   5.644  0.5445  0.2218  0.8441
   70MOL0     H 9450   9.449   3.320   5.557 -2.3876  2.6414  0.4567
   71MOL0     O 9451   3.256   6.559   3.383  0.7599 -0.0388  0.4623
   71MOL0     C 9452   3.228   6.543   3.500  0.9111  0.2062 -0.8379
   71MOL0     O 9453   3.260   6.639   3.600  0.7516  0.8544  0.7868
   71MOL0     C 9454   3.270   6.764   3.551 -0.9910 -0.5623 -0.2921
   71MOL0     C 9455   3.398   6.818   3.565  0.1597 -0.3639 -0.2903
   71MOL0     C 9456   3.436   6.944   3.525 -1.0860  0.3406 -0.2377
   71MOL0     C 9457   3.337   7.033   3.495  0.5748  0.9043  0.1091
   71MOL0     O 9458   3.345   7.173   3.478 -0.2576  0.5326 -0.0222
   71MOL0     C 9459   3.467   7.233   3.511 -0.2641 -0.2577  0.3056
   71MOL0     C 9460   3.473   7.383   3.481 -0.8108 -0.3489 -0.6283
   71MOL0     C 9461   3.550   7.474   3.579  0.2265 -0.9827  0.1685
   71MOL0     C 9462   3.485   7.492   3.717 -0.0587 -0.0031  0.4499
   71MOL0     C 9463   3.484   7.646   3.756 -0.7163  0.8419 -0.5668
   71MOL0     C 9464   3.612   7.706   3.800  0.3515  0.2006  0.7120
   71MOL0     C 9465   3.593   7.844   3.866 -0.1251 -0.2449 -0.4075
   71MOL0     C 9466   3.570   7.964   3.777 -0.6402 -0.3060 -0.0534
   71MOL0     N 9467   3.437   8.019   3.790 -0.0621 -0.1592 -0.1609
   71MOL0     C 9468   3.329   7.980   3.724  0.2614  0.2017 -0.4016
   71MOL0     C 9469   3.220   8.029   3.783 -0.5761 -0.2336  0.0657
   71MOL0     C 9470   3.079   8.041   3.745  0.6197 -0.2169  0.0774
   71MOL0     C 9471   3.057   8.047   3.593 -0.1494 -0.6624 -0.3366
   71MOL0     C 9472   2.912   8.091   3.554 -0.4820 -0.1302 -0.3467
   71MOL0     C 9473   2.793   8.034   3.642 -0.5634 -0.0378 -0.0519
   71MOL0     O 9474   2.768   8.126   3.750  0.8148  0.2858 -0.6000
   71MOL0     C 9475   2.686   8.073   3.855 -0.0180 -0.3952 -0.3280
   71MOL0     C 9476   2.700   8.121   3.984  0.6734 -0.4090 -0.3342
   71MOL0     C 9477   2.627   8.080   4.087  0.4933  0.7317  0.9582
   71MOL0     C 9478   2.513   7.991   4.060 -0.5795 -0.5667 -1.1261
   71MOL0     C 9479   2.422   7.958   4.172 -0.1010 -0.7061  0.8642
   71MOL0     O 9480   2.308   7.905   4.139  1.1104  0.1009 -0.6860
   71MOL0     C 9481   2.201   7.930   4.218  0.5952 -0.3630  0.2076
   71MOL0     C 9482   2.101   8.023   4.162  0.2550 -0.0540  1.6180
   71MOL0     C 9483   1.973   8.032   4.218  0.2972  0.2303 -0.1601
   71MOL0     C 9484   1.941   7.956   4.336 -0.1133 -1.4484  0.8965
   71MOL0     O 9485   1.823   7.956   4.394 -0.4994  0.7556  0.4552
   71MOL0     C 9486   1.720   8.043   4.340 -0.4254  0.0454  0.3228
   71MOL0     C 9487   1.586   8.029   4.421 -0.0497  0.8599  0.2506
   71MOL0     C 9488   1.599   8.032   4.575  0.3265 -0.5852 -0.5697
   71MOL0     C 9489   1.469   8.092   4.645 -0.9822  0.3811  0.2334
   71MOL0     C 9490   1.456   8.079   4.797 -0.4890 -0.8207 -0.1904
   71MOL0     C 9491   1.434   7.939   4.837 -0.0213  0.0388 -0.2114
   71MOL0     C 9492   1.315   7.874   4.786  0.6963  1.3038  1.0277
   71MOL0     C 9493   1.255   7.776   4.877  0.3014  0.1910  0.4476
   71MOL0    Cl 9494   1.113   7.677   4.820  0.0747  0.3175  0.4009
   71MOL0     C 9495   2.041   7.883   4.390  0.3147  0.0564 -0.8112
   71MOL0     C 9496   2.165   7.863   4.337  0.0889 -0.0385 -0.7497
   71MOL0     O 9497   2.450   8.006   4.288  0.0393  0.1174  0.0272
   71MOL0     C 9498   2.499   7.938   3.932  0.1306  0.8286  1.2985
   71MOL0     C 9499   2.591   7.974   3.830 -1.4248 -0.2395  0.1163
   71MOL0     N 9500   3.271   8.104   3.891  0.2419  0.0462  0.0821
   71MOL0     N 9501   3.393   8.095   3.896 -0.3089 -0.4515 -0.4990
   71MOL0     C 9502   3.196   6.984   3.471 -0.2615 -0.5178  0.1812
   71MOL0     C 9503   3.163   6.849   3.510 -0.9939  0.4641  0.5219
   71MOL0     C 9504   3.136   6.436   3.548  0.2228 -0.3327 -0.6943
   71MOL0     C 9505   3.148   6.409   3.698  0.3472 -0.2199  0.5584
   71MOL0     C 9506   3.062   6.320   3.753  0.6037  0.0235 -0.2739
   71MOL0     C 9507   2.961   6.252   3.677 -0.1241 -0.4204  0.7926
   71MOL0     O 9508   2.863   6.188   3.745 -0.0729 -0.1676  0.0171
   71MOL0     C 9509   2.750   6.143   3.674  0.1123 -0.5697  0.3019
   71MOL0     C 9510   2.656   6.099   3.782  0.4611  0.0564 -0.5097
   71MOL0     C 9511   2.612   6.222   3.869 -0.3417  0.0223  0.8165
   71MOL0     C 9512   2.510   6.170   3.967  0.5000  0.1559  0.2002
   71MOL0     C 9513   2.374   6.207   3.940 -0.4571 -0.1377  0.0019
   71MOL0     C 9514   2.258   6.223   3.907 -0.7451  0.2688 -0.6377
   71MOL0     C 9515   2.966   6.272   3.534 -0.2140 -0.1945 -0.1689
   71MOL0     C 9516   3.045   6.364   3.470  0.5620 -1.1976 -0.1354
   71MOL0     C 9517   3.036   6.367   3.318 -0.0990 -0.0968  0.2772
   71MOL0     H 9518   3.468   6.749   3.609  0.8725 -0.1218 -1.0050
   71MOL0     H 9519   3.540   6.967   3.548 -1.1680  1.0375 -0.5406
   71MOL0     H 9520   3.482   7.218   3.619  0.1313  0.1923  0.3136
   71MOL0     H 9521   3.552   7.180   3.466 -0.5405  1.1560 -2.0035
   71MOL0     H 9522   3.373   7.426   3.488 -1.6945 -1.9734 -2.5082
   71MOL0     H 9523   3.509   7.406   3.380  0.5147 -1.1390 -0.3590
   71MOL0     H 9524   3.558   7.571   3.530 -1.6879 -0.7248  0.2732
   71MOL0     H 9525   3.647   7.427   3.595 -0.3017 -3.3036 -2.5672
   71MOL0     H 9526   3.385   7.449   3.711  0.2807 -0.8046  0.4049
   71MOL0     H 9527   3.542   7.432   3.788 -0.3498 -0.9007 -0.0642
   71MOL0     H 9528   3.439   7.707   3.677 -3.0495 -1.3475 -1.0627
   71MOL0     H 9529   3.409   7.638   3.836  0.8235 -0.1056  0.8536
   71MOL0     H 9530   3.667   7.644   3.871  1.0994 -1.2935 -1.0696
   71MOL0     H 9531   3.675   7.712   3.710  1.4497 -3.0486  1.1311
   71MOL0     H 9532   3.687   7.861   3.919  0.9361  3.1046 -3.0212
   71MOL0     H 9533   3.506   7.832   3.932  1.1533 -2.6181  1.0097
   71MOL0     H 9534   3.642   8.044   3.795  0.2094 -0.6040 -1.9433
   71MOL0     H 9535   3.587   7.936   3.673  0.1526 -0.8654  0.2224
   71MOL0     H 9536   3.335   7.924   3.631  3.0663  1.0065 -0.8075
   71MOL0     H 9537   3.020   7.959   3.787 -1.8015 -0.0881 -2.6880
   71MOL0     H 9538   3.041   8.136   3.785 -1.0054 -2.3847  4.1684
   71MOL0     H 9539   3.128   8.120   3.553 -0.0952  0.1098  1.0983
   71MOL0     H 9540   3.072   7.947   3.552 -2.0439 -0.9009 -0.5346
   71MOL0     H 9541   2.895   8.063   3.450  2.6043 -0.3150 -0.8918
   71MOL0     H 9542   2.910   8.200   3.560 -1.1723 -0.0671 -1.4747
   71MOL0     H 9543   2.827   7.932   3.662 -1.6743 -0.2327  0.9469
   71MOL0     H 9544   2.705   8.029   3.577 -0.4758 -1.0145 -0.1129
   71MOL0     H 9545   2.774   8.200   3.998  1.3877 -0.8453 -1.4952
   71MOL0     H 9546   2.662   8.128   4.178  3.2267  1.7738 -0.5223
   71MOL0     H 9547   2.131   8.083   4.077 -1.1190 -2.5112 -0.7255
   71MOL0     H 9548   1.918   8.105   4.158  0.0550 -0.1028 -0.3465
   71MOL0     H 9549   1.766   8.141   4.354  2.8137 -1.2420 -0.4185
   71MOL0     H 9550   1.715   8.024   4.233 -2.0367  1.4942  0.1089
   71MOL0     H 9551   1.533   8.125   4.413  2.5408  2.3047 -0.8551
   71MOL0     H 9552   1.521   7.948   4.388 -0.6043 -0.5373  4.1905
   71MOL0     H 9553   1.614   7.933   4.619 -0.0038 -0.2099  0.4017
   71MOL0     H 9554   1.683   8.099   4.596  0.2386 -0.3185 -1.0379
   71MOL0     H 9555   1.389   8.046   4.586  0.5352  1.8082 -3.1862
   71MOL0     H 9556   1.462   8.196   4.613  0.6762  1.1627  2.1614
   71MOL0     H 9557   1.377   8.147   4.829 -1.0872 -2.8452  3.2073
   71MOL0     H 9558   1.553   8.105   4.840  0.8140  0.1646 -3.4702
   71MOL0     H 9559   1.515   7.870   4.812  0.4221 -0.5846  2.5651
   71MOL0     H 9560   1.434   7.940   4.947  4.4425  1.5883 -0.0168
   71MOL0     H 9561   1.339   7.812   4.700 -1.3419 -4.3212  4.0291
   71MOL0     H 9562   1.240   7.949   4.759 -1.3420  0.2721  3.4310
   71MOL0     H 9563   1.329   7.706   4.917 -1.9508 -3.4049 -1.1349
   71MOL0     H 9564   1.225   7.843   4.958  2.4492  0.4546  1.0955
   71MOL0     H 9565   2.008   7.824   4.476  3.2033 -2.3922 -1.2376
   71MOL0     H 9566   2.225   7.786   4.384  0.2945  0.5628 -0.0119
   71MOL0     H 9567   2.414   7.873   3.914  2.2355 -1.5595 -0.6222
   71MOL0     H 9568   2.575   7.927   3.734  1.5715 -2.9842  0.7586
   71MOL0     H 9569   3.117   7.055   3.447  0.6931  0.0579 -1.4408
   71MOL0     H 9570   3.062   6.812   3.520 -2.2886  1.5542 -5.1565
   71MOL0     H 9571   3.217   6.468   3.757 -1.1424  1.5514  0.6150
   71MOL0     H 9572   3.078   6.303   3.859 -0.1881  0.2338 -0.1132
   71MOL0     H 9573   2.757   6.053   3.614  0.3262 -0.6334  0.4203
   71MOL0     H 9574   2.702   6.222   3.616 -0.0627 -0.6153  0.3842
   71MOL0     H 9575   2.688   6.023   3.854 -1.3568 -0.0432  0.2438
   71MOL0     H 9576   2.569   6.056   3.732  2.4392 -1.6064 -2.7377
   71MOL0     H 9577   2.566   6.299   3.807 -0.2628  0.5065  1.3569
   71MOL0     H 9578   2.696   6.275   3.915 -0.1367 -0.4420  0.9867
   71MOL0     H 9579   2.503   6.063   3.990 -0.2679  0.0785 -0.3517
   71MOL0     H 9580   2.534   6.212   4.065 -1.8182 -2.6591  2.1326
   71MOL0     H 9581   2.160   6.239   3.866  0.2825  2.8472 -2.3759
   71MOL0     H 9582   2.901   6.223   3.463 -0.0211  1.0714 -1.2599
   71MOL0     H 9583   2.993   6.282   3.265 -0.1730  0.5640 -0.7521
   71MOL0     H 9584   2.974   6.446   3.273  0.0332 -0.2035 -0.0928
   71MOL0     H 9585   3.135   6.388   3.277  0.4417  0.1522  1.6599
   72MOL0     O 9586   5.007   3.019  11.337 -0.6744  0.4545  0.4742
   72MOL0     C 9587   5.005   2.911  11.398 -0.3758  0.6369  0.1482
   72MOL0     O 9588   4.885   2.838  11.420  0.7004  0.5299 -0.1634
   72MOL0     C 9589   4.777   2.855  11.344  0.5356 -0.1058 -0.6228
   72MOL0     C 9590   4.785   2.891  11.211  0.0564 -0.4578  0.3796
   72MOL0     C 9591   4.671   2.940  11.150 -0.0561  1.2250  0.4868
   72MOL0     C 9592   4.553   2.942  11.211  0.7120  0.1258  0.5757
   72MOL0     O 9593   4.433   2.969  11.131 -0.5656  0.4017 -0.8468
   72MOL0     C 9594   4.316   3.006  11.192  0.0503 -0.8744  0.2826
   72MOL0     C 9595   4.214   3.063  11.097  0.9206  0.4093  0.0367
   72MOL0     C 9596   4.120   3.148  11.173  0.2994 -0.6752 -0.2848
   72MOL0     C 9597   4.047   3.256  11.105 -0.2907  0.9615  0.1540
   72MOL0     C 9598   3.985   3.353  11.210 -1.4047 -1.2066  0.2539
   72MOL0     C 9599   3.953   3.492  11.146 -0.1304  0.0103  0.9472
   72MOL0     C 9600   3.867   3.599  11.226  0.3274  0.1355  0.1244
   72MOL0     C 9601   3.910   3.593  11.372  0.6259 -0.1156 -0.8107
   72MOL0     N 9602   4.040   3.658  11.409  0.5784  0.4819  0.0963
   72MOL0     C 9603   4.155   3.598  11.448  0.3134  0.1775  1.1985
   72MOL0     C 9604   4.236   3.696  11.458 -0.9024 -0.9443 -0.5157
   72MOL0     C 9605   4.380   3.666  11.483 -0.3576 -0.4789 -0.7053
   72MOL0     C 9606   4.437   3.662  11.628 -0.2810 -0.6474  0.4355
   72MOL0     C 9607   4.592   3.664  11.638  0.1307  0.0851 -0.5022
   72MOL0     C 9608   4.667   3.771  11.559 -0.0112 -0.7322  1.0039
   72MOL0     O 9609   4.661   3.758  11.419 -0.0105 -0.9762  0.1833
   72MOL0     C 9610   4.688   3.866  11.347  0.4559 -0.3231  0.0538
   72MOL0     C 9611   4.755   3.984  11.394 -0.4534  0.6002 -0.3603
   72MOL0     C 9612   4.774   4.093  11.317 -0.1466 -0.2521  0.8586
   72MOL0     C 9613   4.721   4.101  11.184 -1.0033  0.4858 -0.4249
   72MOL0     C 9614   4.722   4.223  11.109 -0.5466 -0.6087 -0.4042
   72MOL0     O 9615   4.649   4.225  10.995  0.6827  0.5557 -0.1098
   72MOL0     C 9616   4.648   4.331  10.912 -0.0877 -0.0938  0.0934
   72MOL0     C 9617   4.755   4.416  10.890 -0.3711 -0.4976 -0.0611
   72MOL0     C 9618   4.738   4.530  10.809  0.2134  1.2423  0.0009
   72MOL0     C 9619   4.621   4.546  10.732 -0.1432  0.3214 -0.0044
   72MOL0     O 9620   4.600   4.640  10.635 -0.1061 -0.4588  0.0257
   72MOL0     C 9621   4.684   4.760  10.637  0.0016  0.8015  0.1843
   72MOL0     C 9622   4.629   4.873  10.541  0.0048  0.1454  0.4235
   72MOL0     C 9623   4.649   4.836  10.394 -0.6893 -0.0805 -0.1704
   72MOL0     C 9624   4.604   4.933  10.299  0.5918 -0.6661  0.3937
   72MOL0     C 9625   4.630   4.895  10.149 -0.6224  0.7105 -0.3207
   72MOL0     C 9626   4.791   4.889  10.119  0.4689  0.5416 -0.1923
   72MOL0     C 9627   4.831   4.918   9.976 -0.0912 -0.9742  0.0650
   72MOL0     C 9628   4.738   4.861   9.873 -1.0048  0.5375  0.1568
   72MOL0    Cl 9629   4.733   4.676   9.897 -0.1033 -0.4835  0.4967
   72MOL0     C 9630   4.519   4.451  10.737 -0.2702  0.8470 -0.1972
   72MOL0     C 9631   4.530   4.350  10.837 -0.3222  0.0693 -0.2035
   72MOL0     O 9632   4.777   4.327  11.156  0.0363 -0.2578  0.0191
   72MOL0     C 9633   4.677   3.981  11.131 -0.0863 -0.1860  0.6737
   72MOL0     C 9634   4.658   3.869  11.211  0.2879  0.2838 -0.3893
   72MOL0     N 9635   4.177   3.814  11.432 -0.8718 -0.7191  0.0953
   72MOL0     N 9636   4.062   3.797  11.395 -0.0830  0.5890  0.0758
   72MOL0     C 9637   4.543   2.902  11.347 -0.4921  0.2615  0.4077
   72MOL0     C 9638   4.655   2.868  11.419 -0.0063 -0.0158 -0.4071
   72MOL0     C 9639   5.128   2.863  11.464  0.0778  0.4533  0.5359
   72MOL0     C 9640   5.108   2.770  11.566 -0.5034  0.0815  0.9668
   72MOL0     C 9641   5.210   2.694  11.627  0.7595 -0.1709  0.4366
   72MOL0     C 9642   5.340   2.729  11.601 -0.7395  0.5561 -0.4882
   72MOL0     O 9643   5.434   2.656  11.672 -0.2469  0.4544 -0.5133
   72MOL0     C 9644   5.519   2.589  11.578  0.2261 -0.2501  0.0620
   72MOL0     C 9645   5.627   2.510  11.650 -0.0786 -0.9576  0.7340
   72MOL0     C 9646   5.576   2.404  11.746 -0.9285 -0.1116  0.0271
   72MOL0     C 9647   5.463   2.319  11.687  0.6036  0.3513 -0.1279
   72MOL0     C 9648   5.449   2.182  11.746 -0.5288 -0.4456  0.5852
   72MOL0     C 9649   5.431   2.082  11.800 -0.0485  0.0269 -0.0718
   72MOL0     C 9650   5.366   2.844  11.522 -0.1493 -0.2667 -0.1801
   72MOL0     C 9651   5.264   2.906  11.448 -0.3281  0.3155 -0.2421
   72MOL0     C 9652   5.299   3.007  11.348 -0.7086 -0.4705 -0.6479
   72MOL0     H 9653   4.884   2.893  11.167 -0.3428 -2.7318 -0.7817
   72MOL0     H 9654   4.685   2.990  11.055 -0.6808  1.5271  0.5520
   72MOL0     H 9655   4.274   2.916  11.237 -0.3557 -0.1056  1.4961
   72MOL0     H 9656   4.339   3.074  11.275 -3.4415  0.0855  0.6417
   72MOL0     H 9657   4.168   2.975  11.051  2.0294 -0.9367  1.3890
   72MOL0     H 9658   4.267   3.127  11.026  2.0599 -0.5220  0.0202
   72MOL0     H 9659   4.184   3.193  11.249 -0.6668  0.5997 -0.1965
   72MOL0     H 9660   4.049   3.094  11.237 -0.9144  1.0424 -0.1270
   72MOL0     H 9661   4.107   3.309  11.031 -0.9359 -1.5603 -2.3153
   72MOL0     H 9662   3.967   3.203  11.052 -0.2361  1.1739 -0.1398
   72MOL0     H 9663   3.892   3.302  11.235  0.2705 -4.6337  0.1201
   72MOL0     H 9664   4.038   3.363  11.305 -0.8922 -0.2553 -0.1217
   72MOL0     H 9665   4.041   3.545  11.110 -2.2395  1.0634 -3.2518
   72MOL0     H 9666   3.897   3.481  11.053  0.3277  0.5848  0.6009
   72MOL0     H 9667   3.762   3.570  11.229 -0.6592  3.3992  0.7794
   72MOL0     H 9668   3.861   3.704  11.194  1.7820  1.3553  3.4613
   72MOL0     H 9669   3.839   3.647  11.435  1.4611 -0.2526  0.2835
   72MOL0     H 9670   3.911   3.493  11.415  1.4870  0.2683  0.1012
   72MOL0     H 9671   4.176   3.492  11.465 -0.3635  0.0533  1.2899
   72MOL0     H 9672   4.406   3.562  11.457  2.0632 -0.8218  2.4484
   72MOL0     H 9673   4.442   3.734  11.423 -0.4163  2.0198  1.8810
   72MOL0     H 9674   4.402   3.750  11.681  2.2124  1.1467 -0.6845
   72MOL0     H 9675   4.411   3.569  11.679 -0.5327 -0.0641  1.4010
   72MOL0     H 9676   4.638   3.568  11.613 -0.1522 -0.4002  0.7503
   72MOL0     H 9677   4.632   3.675  11.739 -0.1699 -1.0327 -0.2463
   72MOL0     H 9678   4.773   3.764  11.587 -0.5869 -0.8186  3.4423
   72MOL0     H 9679   4.633   3.870  11.591  3.1247  0.1732  1.9350
   72MOL0     H 9680   4.789   4.002  11.495 -0.2724  0.3548 -0.3746
   72MOL0     H 9681   4.816   4.173  11.378  1.6058 -1.0905  0.8301
   72MOL0     H 9682   4.847   4.398  10.946  0.3222  0.1433 -0.9636
   72MOL0     H 9683   4.822   4.597  10.792  0.1129  0.7226 -2.9354
   72MOL0     H 9684   4.705   4.801  10.736  2.2968 -1.5209  0.7578
   72MOL0     H 9685   4.781   4.731  10.595 -0.1268  1.7831 -0.8576
   72MOL0     H 9686   4.524   4.888  10.569  1.0475 -0.0224  5.2886
   72MOL0     H 9687   4.692   4.960  10.562 -1.1664  1.8911 -2.4626
   72MOL0     H 9688   4.758   4.836  10.385 -0.6150 -1.2447  0.5691
   72MOL0     H 9689   4.598   4.741  10.373 -0.7525 -0.1147  0.1382
   72MOL0     H 9690   4.638   5.035  10.323 -0.0198 -0.8471  2.1867
   72MOL0     H 9691   4.498   4.951  10.314  1.0437  1.9739  1.0309
   72MOL0     H 9692   4.582   4.970  10.087  1.3656  2.4704  0.1502
   72MOL0     H 9693   4.589   4.796  10.127 -0.4761  0.8935 -1.4609
   72MOL0     H 9694   4.832   4.966  10.184 -0.6622  1.8022 -0.8921
   72MOL0     H 9695   4.824   4.792  10.155 -2.7831  0.8605  4.6048
   72MOL0     H 9696   4.931   4.875   9.959  0.4366 -0.9930  2.8671
   72MOL0     H 9697   4.830   5.026   9.963  0.3384 -1.0479 -0.6415
   72MOL0     H 9698   4.635   4.899   9.871 -0.9410  0.7199 -2.0881
   72MOL0     H 9699   4.777   4.885   9.774  1.9599 -2.2145  0.4984
   72MOL0     H 9700   4.428   4.453  10.680 -1.8265 -0.0941  2.0945
   72MOL0     H 9701   4.456   4.272  10.846  1.2458 -1.4232  0.1859
   72MOL0     H 9702   4.640   3.983  11.029 -1.2623  0.3371  1.0906
   72MOL0     H 9703   4.630   3.769  11.180  1.1401 -0.5755  1.4449
   72MOL0     H 9704   4.455   2.904  11.411 -1.8989  0.7611 -1.4752
   72MOL0     H 9705   4.648   2.866  11.527  1.4003  2.0942 -0.2052
   72MOL0     H 9706   5.007   2.742  11.594 -1.2150  0.1228 -1.3643
   72MOL0     H 9707   5.194   2.616  11.701  0.0455  1.1949  1.7842
   72MOL0     H 9708   5.562   2.655  11.503 -1.9253  1.6881  0.4107
   72MOL0     H 9709   5.460   2.519  11.519 -0.0529  1.0126 -1.2044
   72MOL0     H 9710   5.684   2.583  11.708 -0.9654 -0.8760  1.5276
   72MOL0     H 9711   5.685   2.452  11.577  1.7443  0.9318  0.5738
   72MOL0     H 9712   5.550   2.460  11.836 -1.1869  3.6968 -2.1903
   72MOL0     H 9713   5.662   2.340  11.770 -0.4508  1.5593  3.3448
   72MOL0     H 9714   5.373   2.381  11.694  1.0508  1.1212 -0.9338
   72MOL0     H 9715   5.477   2.297  11.581 -0.1493  0.5369 -0.2758
   72MOL0     H 9716   5.410   1.990  11.851  0.4053  0.2118  0.4645
   72MOL0     H 9717   5.470   2.876  11.522 -0.7144  1.7023  0.0938
   72MOL0     H 9718   5.262   3.109  11.362  3.6423  1.7422 -3.0201
   72MOL0     H 9719   5.406   3.014  11.324 -1.3199  1.1502 -3.3234
   72MOL0     H 9720   5.252   2.967  11.258 -0.1382 -2.4265 -0.1165
   73MOL0     O 9721   3.573  10.780  10.863  0.1791 -0.1419  0.2233
   73MOL0     C 9722   3.471  10.824  10.817  0.4535 -0.0104 -1.1057
   73MOL0     O 9723   3.359  10.858  10.890  0.4245 -0.4708 -0.8353
   73MOL0     C 9724   3.355  10.856  11.025  1.4090 -0.3232  0.4911
   73MOL0     C 9725   3.231  10.826  11.078  0.0173  0.1580  0.5733
   73MOL0     C 9726   3.216  10.801  11.213  0.2536  0.0760  0.4824
   73MOL0     C 9727   3.322  10.805  11.301  0.5652 -0.3168  0.3379
   73MOL0     O 9728   3.306  10.781  11.431 -0.6085  0.1757  0.2690
   73MOL0     C 9729   3.197  10.859  11.487  0.2251  0.4796  0.8440
   73MOL0     C 9730   3.225  10.899  11.636  0.4409  0.8574 -0.1263
   73MOL0     C 9731   3.357  10.964  11.653 -0.1444  0.1719 -0.8707
   73MOL0     C 9732   3.393  10.984  11.791 -0.1444  0.2238 -0.4362
   73MOL0     C 9733   3.525  11.064  11.822  1.2801 -0.5067  1.1595
   73MOL0     C 9734   3.652  10.986  11.793 -0.1225 -0.2555 -0.0829
   73MOL0     C 9735   3.777  11.071  11.782  0.4573  0.7964 -0.8968
   73MOL0     C 9736   3.821  11.114  11.914  0.3839  0.5035 -0.1734
   73MOL0     N 9737   3.947  11.187  11.891  0.2683  0.4010  0.2520
   73MOL0     C 9738   4.067  11.128  11.860 -0.0386 -0.2316 -0.3377
   73MOL0     C 9739   4.159  11.223  11.887 -0.1677  0.0703 -0.8046
   73MOL0     C 9740   4.308  11.215  11.890 -1.2603 -0.4827 -0.7229
   73MOL0     C 9741   4.382  11.346  11.913  0.3122 -0.4574 -0.3877
   73MOL0     C 9742   4.527  11.341  11.944  0.9637 -0.1499 -0.5929
   73MOL0     C 9743   4.601  11.311  11.814 -0.7316 -0.2079 -0.2722
   73MOL0     O 9744   4.742  11.325  11.854  0.0359  0.3143 -0.6578
   73MOL0     C 9745   4.830  11.221  11.836 -0.1263 -0.5935  0.5339
   73MOL0     C 9746   4.809  11.109  11.760 -0.0172 -1.0682  0.2342
   73MOL0     C 9747   4.894  11.005  11.767 -0.4927  0.8765  0.2129
   73MOL0     C 9748   5.011  11.003  11.845  0.3709  0.4164  0.3000
   73MOL0     C 9749   5.105  10.891  11.854  0.2124 -0.6147 -0.3952
   73MOL0     O 9750   5.225  10.925  11.897 -0.4138  0.2189  0.0505
   73MOL0     C 9751   5.328  10.833  11.903  0.1554  0.3006 -1.1100
   73MOL0     C 9752   5.437  10.860  11.830 -0.0918 -0.3387  0.2082
   73MOL0     C 9753   5.559  10.784  11.818 -0.1470  0.6602 -0.0149
   73MOL0     C 9754   5.556  10.661  11.873 -0.3143  0.0898 -0.1180
   73MOL0     O 9755   5.671  10.586  11.864  0.2061 -0.0792  0.8669
   73MOL0     C 9756   5.710  10.557  11.729  0.2268 -0.1841  0.2242
   73MOL0     C 9757   5.776  10.415  11.724 -0.2984  0.0001  0.5761
   73MOL0     C 9758   5.917  10.420  11.796  0.1276 -0.2683  1.0228
   73MOL0     C 9759   5.957  10.282  11.837 -0.6371  0.3834  0.0185
   73MOL0     C 9760   6.081  10.294  11.929 -0.1188 -0.8532 -1.0365
   73MOL0     C 9761   6.106  10.154  11.997  0.8015 -2.7791  0.0806
   73MOL0     C 9762   6.236  10.138  12.076  0.7485 -0.4724 -0.1161
   73MOL0     C 9763   6.254  10.252  12.180 -0.0638  0.5136 -0.4434
   73MOL0    Cl 9764   6.093  10.286  12.266 -0.1393 -0.3925  0.0705
   73MOL0     C 9765   5.447  10.625  11.956  0.1320  0.4997 -0.2738
   73MOL0     C 9766   5.332  10.704  11.962  1.1259  0.8363 -0.3051
   73MOL0     O 9767   5.072  10.781  11.829  0.8914  0.6581  0.0465
   73MOL0     C 9768   5.030  11.121  11.919 -0.4158 -0.3037  0.6828
   73MOL0     C 9769   4.953  11.231  11.908  0.6977 -0.2099  0.0455
   73MOL0     N 9770   4.095  11.337  11.926  0.4688 -0.9774 -0.1051
   73MOL0     N 9771   3.972  11.319  11.922  0.2600  0.2385  0.5493
   73MOL0     C 9772   3.447  10.846  11.258  0.8268  0.5868  0.5309
   73MOL0     C 9773   3.468  10.864  11.120 -0.3009  0.3031 -0.1257
   73MOL0     C 9774   3.465  10.860  10.676 -0.2130  0.5082  0.3788
   73MOL0     C 9775   3.386  10.965  10.641 -0.2914  0.0987  0.4472
   73MOL0     C 9776   3.381  10.994  10.502  0.0250 -0.5392  0.6983
   73MOL0     C 9777   3.454  10.936  10.401 -0.8648  0.1705  0.2974
   73MOL0     O 9778   3.456  10.990  10.276 -0.3878 -0.0611  0.5708
   73MOL0     C 9779   3.434  10.901  10.167  0.6173 -0.0940  0.0281
   73MOL0     C 9780   3.373  10.990  10.061 -0.2775  0.2629  0.6643
   73MOL0     C 9781   3.285  10.917   9.960 -0.1463  0.1249 -0.0058
   73MOL0     C 9782   3.233  11.001   9.853  0.4417  0.7128 -0.7152
   73MOL0     C 9783   3.341  11.033   9.761  1.0657 -0.5641 -0.3405
   73MOL0     C 9784   3.431  11.046   9.684  0.8108  0.1129  0.7405
   73MOL0     C 9785   3.529  10.824  10.442 -0.9087 -0.1971 -0.1084
   73MOL0     C 9786   3.548  10.795  10.581 -0.1765 -0.9487 -0.7182
   73MOL0     C 9787   3.660  10.695  10.622  0.4430  0.9225 -0.5503
   73MOL0     H 9788   3.147  10.843  11.011  0.8823  0.7490 -0.3978
   73MOL0     H 9789   3.120  10.782  11.259  0.6368  3.8169  3.3245
   73MOL0     H 9790   3.177  10.951  11.432  2.1558  0.6317  0.3185
   73MOL0     H 9791   3.110  10.793  11.481  0.8977 -0.3181 -1.0240
   73MOL0     H 9792   3.216  10.811  11.702  0.9926  1.0252  0.1791
   73MOL0     H 9793   3.149  10.974  11.662 -2.1109 -1.8873  1.0357
   73MOL0     H 9794   3.346  11.064  11.610 -0.7151  1.0591  1.2292
   73MOL0     H 9795   3.427  10.906  11.593 -1.3833 -2.7537  0.3053
   73MOL0     H 9796   3.312  11.031  11.847  0.0372  0.4113 -0.3280
   73MOL0     H 9797   3.403  10.882  11.831  0.1941  0.3926 -0.0846
   73MOL0     H 9798   3.518  11.153  11.759  0.9131 -1.7712 -0.6890
   73MOL0     H 9799   3.514  11.088  11.928  0.4945  0.9514  0.7837
   73MOL0     H 9800   3.672  10.917  11.876  0.5219  1.1944  1.0208
   73MOL0     H 9801   3.649  10.935  11.696  1.6018 -0.9800  0.2045
   73MOL0     H 9802   3.746  11.155  11.719 -0.8155 -0.0111 -1.3953
   73MOL0     H 9803   3.859  11.017  11.735 -0.8277  0.4249 -2.8420
   73MOL0     H 9804   3.755  11.189  11.957 -0.1264 -0.5919  1.0461
   73MOL0     H 9805   3.822  11.028  11.982  0.6128  2.0518  1.8818
   73MOL0     H 9806   4.093  11.027  11.830 -0.2147 -0.3939  0.0596
   73MOL0     H 9807   4.338  11.149  11.973 -0.9952  2.5487  1.7510
   73MOL0     H 9808   4.349  11.166  11.801  2.0191 -1.2716  1.0308
   73MOL0     H 9809   4.363  11.399  11.819 -2.1549  1.9807  1.3547
   73MOL0     H 9810   4.330  11.408  11.985 -1.3103 -2.1516 -0.0115
   73MOL0     H 9811   4.549  11.265  12.020  2.1653  3.0975  2.6025
   73MOL0     H 9812   4.554  11.441  11.978 -1.1503  2.1793 -4.9123
   73MOL0     H 9813   4.588  11.389  11.739  2.8206  0.0309 -0.8247
   73MOL0     H 9814   4.573  11.215  11.770 -1.1932 -0.1755 -0.0523
   73MOL0     H 9815   4.720  11.110  11.698  0.9036  1.0001 -1.1625
   73MOL0     H 9816   4.882  10.925  11.695  3.9062  1.3490 -1.3463
   73MOL0     H 9817   5.435  10.951  11.772  1.9184 -1.0410 -1.0710
   73MOL0     H 9818   5.638  10.831  11.761  2.3565  0.2023  2.8582
   73MOL0     H 9819   5.623  10.567  11.663  0.9930  2.6534 -0.4784
   73MOL0     H 9820   5.777  10.633  11.688 -2.2832  1.3909 -1.2175
   73MOL0     H 9821   5.710  10.345  11.776 -2.2509  2.2719  1.3134
   73MOL0     H 9822   5.784  10.381  11.620 -1.8389  0.9168  0.1168
   73MOL0     H 9823   5.994  10.453  11.725 -0.6005 -1.2645 -0.2859
   73MOL0     H 9824   5.903  10.484  11.884 -1.2983  2.1221 -0.8122
   73MOL0     H 9825   5.987  10.235  11.743  1.5555 -1.1787  1.3982
   73MOL0     H 9826   5.873  10.227  11.880 -2.3158 -0.0126 -3.3897
   73MOL0     H 9827   6.050  10.366  12.005  0.9212  1.1361 -2.3990
   73MOL0     H 9828   6.174  10.334  11.887 -0.0282  0.7532  0.5627
   73MOL0     H 9829   6.024  10.119  12.060 -1.2281  0.1905 -0.6924
   73MOL0     H 9830   6.105  10.086  11.912 -0.4916  0.0220 -2.3136
   73MOL0     H 9831   6.320  10.133  12.006  0.3663 -1.7441 -0.5056
   73MOL0     H 9832   6.231  10.043  12.130 -2.1560  0.5292  1.6232
   73MOL0     H 9833   6.320  10.206  12.253 -2.4940 -0.8495  1.0090
   73MOL0     H 9834   6.287  10.344  12.129 -2.5656  0.4486 -2.3725
   73MOL0     H 9835   5.438  10.530  12.008 -1.2574  1.1805  0.8085
   73MOL0     H 9836   5.240  10.662  12.000  0.4218  1.6679 -1.0522
   73MOL0     H 9837   5.114  11.132  11.986 -0.3468  3.1135  0.2267
   73MOL0     H 9838   4.966  11.316  11.974 -0.6269  0.4788 -0.5333
   73MOL0     H 9839   3.520  10.846  11.339  2.1187  0.9358 -0.5920
   73MOL0     H 9840   3.571  10.881  11.089 -0.2248  5.4635  1.8435
   73MOL0     H 9841   3.330  11.016  10.719  2.3211 -1.1696  3.3207
   73MOL0     H 9842   3.319  11.081  10.482  1.5790  0.7432  1.1683
   73MOL0     H 9843   3.350  10.836  10.193 -1.1328  3.5173  4.9763
   73MOL0     H 9844   3.517  10.834  10.142 -0.9847 -1.9992 -0.4377
   73MOL0     H 9845   3.459  11.042  10.016 -0.9491  0.1218 -0.8507
   73MOL0     H 9846   3.304  11.061  10.107 -0.0792 -0.8901  2.8318
   73MOL0     H 9847   3.199  10.879  10.017  0.4247 -0.3160  0.5699
   73MOL0     H 9848   3.343  10.832   9.924 -0.9339  0.1176 -1.3132
   73MOL0     H 9849   3.162  10.941   9.796 -0.5822 -0.4581  1.6429
   73MOL0     H 9850   3.189  11.097   9.880 -0.9326  0.1882 -0.9997
   73MOL0     H 9851   3.512  11.051   9.614  0.4976 -0.6304  0.3123
   73MOL0     H 9852   3.587  10.774  10.365 -0.4830  1.3863 -0.8714
   73MOL0     H 9853   3.697  10.656  10.527  0.1617  0.3084 -0.4160
   73MOL0     H 9854   3.738  10.736  10.686 -0.5554 -1.0839  2.1435
   73MOL0     H 9855   3.618  10.616  10.685  1.6561  1.4936  1.0402
   74MOL0     O 9856  10.452   0.099   2.876  0.4780 -0.2714 -0.1901
   74MOL0     C 9857  10.422  -0.012   2.852 -0.0499  0.2392 -0.4530
   74MOL0     O 9858  10.308  -0.083   2.911 -0.3686 -0.5160  0.2977
   74MOL0     C 9859  10.243  -0.025   3.010  0.4573  0.0998  0.5596
   74MOL0     C 9860  10.128   0.062   2.988 -0.3537 -1.2016 -0.9557
   74MOL0     C 9861  10.057   0.114   3.094 -0.0806 -0.3828 -0.3248
   74MOL0     C 9862  10.105   0.091   3.224  1.0493  0.0028  0.4718
   74MOL0     O 9863  10.035   0.143   3.336  0.2923  0.0035  1.2295
   74MOL0     C 9864  10.005   0.060   3.445  0.4237 -0.5772  0.7100
   74MOL0     C 9865   9.856   0.038   3.440 -0.1113  0.0337  1.0663
   74MOL0     C 9866   9.799  -0.017   3.565 -0.2779  0.4630 -0.0660
   74MOL0     C 9867   9.656  -0.047   3.566  0.5777 -0.7999  0.3926
   74MOL0     C 9868   9.555   0.071   3.545  0.9944  0.1185  0.4028
   74MOL0     C 9869   9.550   0.155   3.675  0.5299 -0.3376 -0.1704
   74MOL0     C 9870   9.451   0.272   3.676  0.3552 -0.4147 -0.0898
   74MOL0     C 9871   9.301   0.236   3.669  0.0774  0.5507 -0.0218
   74MOL0     N 9872   9.274   0.124   3.760  0.0808 -0.0131  0.4939
   74MOL0     C 9873   9.242  -0.004   3.731  0.9698  0.6432 -0.3521
   74MOL0     C 9874   9.191  -0.062   3.846  0.5995  0.5314 -0.7631
   74MOL0     C 9875   9.128  -0.203   3.835  0.1166 -0.2926  0.2480
   74MOL0     C 9876   9.161  -0.300   3.949 -0.6754  0.3979 -0.3289
   74MOL0     C 9877   9.120  -0.245   4.087  0.0347  0.5702 -0.1433
   74MOL0     C 9878   9.146  -0.350   4.197  0.4124 -0.8929  0.5417
   74MOL0     O 9879   9.109  -0.308   4.327  0.5232 -0.3716 -0.4898
   74MOL0     C 9880   8.973  -0.301   4.352 -0.3179 -0.3523 -0.0761
   74MOL0     C 9881   8.871  -0.364   4.272 -0.3269 -0.2059  0.3500
   74MOL0     C 9882   8.739  -0.377   4.319 -0.4463 -0.6534 -0.1547
   74MOL0     C 9883   8.704  -0.322   4.442  0.8118 -0.0897  0.2342
   74MOL0     C 9884   8.561  -0.351   4.485 -0.5668  0.3350 -0.0991
   74MOL0     O 9885   8.465  -0.361   4.385 -0.8416  0.2656 -0.5638
   74MOL0     C 9886   8.342  -0.340   4.438  0.9092 -0.6382  0.8816
   74MOL0     C 9887   8.253  -0.444   4.414 -0.3397  0.1939  0.4805
   74MOL0     C 9888   8.121  -0.422   4.454  1.5165 -0.1110 -0.1808
   74MOL0     C 9889   8.072  -0.308   4.519  0.4161  0.1638  0.1028
   74MOL0     O 9890   7.944  -0.277   4.569  0.1713  0.0355 -0.1711
   74MOL0     C 9891   7.831  -0.366   4.538 -0.1967 -0.0821  0.8571
   74MOL0     C 9892   7.779  -0.400   4.671  0.0176 -0.3869  0.3833
   74MOL0     C 9893   7.623  -0.407   4.677 -1.1082 -0.2494  0.2644
   74MOL0     C 9894   7.575  -0.524   4.590  0.0832 -0.5363 -0.8484
   74MOL0     C 9895   7.418  -0.544   4.592  0.7916  0.2108  0.3069
   74MOL0     C 9896   7.373  -0.686   4.543  0.4902  0.4647  0.2665
   74MOL0     C 9897   7.244  -0.758   4.600 -0.3256  0.5369 -0.2082
   74MOL0     C 9898   7.122  -0.677   4.579  0.1191 -0.0954  0.0116
   74MOL0    Cl 9899   6.995  -0.786   4.648 -0.6887 -0.0934  0.2086
   74MOL0     C 9900   8.170  -0.207   4.542  1.3964  0.2003 -0.4151
   74MOL0     C 9901   8.296  -0.224   4.494  0.6564  0.5172 -0.0097
   74MOL0     O 9902   8.551  -0.399   4.607 -0.2587 -0.1635  0.5995
   74MOL0     C 9903   8.800  -0.264   4.525  0.5187  0.3421  0.0556
   74MOL0     C 9904   8.932  -0.253   4.480  0.3825 -0.0438 -0.2693
   74MOL0     N 9905   9.190   0.036   3.948 -0.7193 -1.2776 -0.2212
   74MOL0     N 9906   9.251   0.144   3.891  0.0559 -0.6676  0.3332
   74MOL0     C 9907  10.210   0.003   3.254 -0.3506  0.1271  0.9565
   74MOL0     C 9908  10.278  -0.052   3.139  0.4738  0.1059 -0.4706
   74MOL0     C 9909  10.497  -0.074   2.735  0.2243  0.4173 -0.2997
   74MOL0     C 9910  10.546   0.012   2.634  0.4469  0.6277 -0.4767
   74MOL0     C 9911  10.620  -0.030   2.527 -0.5438  0.0382 -0.5815
   74MOL0     C 9912  10.636  -0.167   2.508  0.7062  0.2367  0.5226
   74MOL0     O 9913  10.701  -0.211   2.394 -0.4152  0.2875 -0.0815
   74MOL0     C 9914  10.664  -0.158   2.266  0.1418  0.6455 -0.5095
   74MOL0     C 9915  10.641  -0.272   2.166  0.8286  0.4945 -0.1663
   74MOL0     C 9916  10.775  -0.355   2.152 -0.1235 -1.1779 -0.8600
   74MOL0     C 9917  10.784  -0.455   2.034  0.2023  0.2284 -0.2273
   74MOL0     C 9918  10.813  -0.391   1.910  0.0433 -0.7730  0.5035
   74MOL0     C 9919  10.816  -0.341   1.798  1.1202 -0.9967  0.0390
   74MOL0     C 9920  10.592  -0.252   2.602 -0.0427 -0.2856  0.5282
   74MOL0     C 9921  10.522  -0.211   2.717 -0.2213 -0.4037 -0.2811
   74MOL0     C 9922  10.478  -0.320   2.816 -0.6251 -0.2225  0.4230
   74MOL0     H 9923  10.113   0.081   2.883 -1.3683 -2.9254 -1.1602
   74MOL0     H 9924   9.989   0.194   3.065  0.2493  0.4204  1.0350
   74MOL0     H 9925  10.061  -0.033   3.438  4.3130  1.6240 -0.1104
   74MOL0     H 9926  10.031   0.109   3.539  0.4630 -0.3662  0.5896
   74MOL0     H 9927   9.828  -0.015   3.349  0.4773 -2.9372  2.4817
   74MOL0     H 9928   9.805   0.135   3.436 -0.3845 -0.1050  1.1456
   74MOL0     H 9929   9.830   0.044   3.651  0.7262  1.1295 -0.8710
   74MOL0     H 9930   9.834  -0.120   3.568 -0.2877 -0.0075 -5.5353
   74MOL0     H 9931   9.636  -0.103   3.474 -1.9511  2.0430 -0.9556
   74MOL0     H 9932   9.631  -0.087   3.664 -0.9900  1.0141  0.7778
   74MOL0     H 9933   9.585   0.141   3.467  0.5734  0.4142  0.5054
   74MOL0     H 9934   9.458   0.024   3.528  1.7570 -1.9502  1.3512
   74MOL0     H 9935   9.519   0.096   3.762 -1.6117 -1.9531 -1.8777
   74MOL0     H 9936   9.649   0.187   3.706 -0.3188  3.2507 -0.7733
   74MOL0     H 9937   9.479   0.332   3.589  0.2872  0.1261  0.2631
   74MOL0     H 9938   9.454   0.332   3.767 -2.1173  2.5753 -1.8010
   74MOL0     H 9939   9.236   0.319   3.697  1.4668  2.1088 -1.2174
   74MOL0     H 9940   9.280   0.220   3.563 -0.8189 -0.0853  0.2388
   74MOL0     H 9941   9.266  -0.048   3.635 -0.8202  0.5598 -0.7868
   74MOL0     H 9942   9.022  -0.178   3.827  0.3917  0.3005 -2.1818
   74MOL0     H 9943   9.159  -0.242   3.738  0.2510 -3.3510  1.4091
   74MOL0     H 9944   9.111  -0.396   3.940 -0.7651  0.5296 -1.3200
   74MOL0     H 9945   9.270  -0.315   3.949 -1.0570 -2.9901 -0.1558
   74MOL0     H 9946   9.011  -0.241   4.079 -0.2168 -2.3148  0.6295
   74MOL0     H 9947   9.158  -0.144   4.103  1.6140  0.8058 -4.2643
   74MOL0     H 9948   9.254  -0.363   4.187  0.3621 -0.7341 -0.3381
   74MOL0     H 9949   9.101  -0.445   4.168  1.8802 -1.7491  0.9591
   74MOL0     H 9950   8.906  -0.423   4.187  1.4762  1.7335 -0.3408
   74MOL0     H 9951   8.672  -0.437   4.259 -1.4108 -0.8382  1.0743
   74MOL0     H 9952   8.289  -0.538   4.373 -1.7279  0.1420 -0.6935
   74MOL0     H 9953   8.058  -0.508   4.433 -0.1579  1.5116 -2.2427
   74MOL0     H 9954   7.759  -0.296   4.495 -1.2503 -1.0024  1.0725
   74MOL0     H 9955   7.854  -0.448   4.469  1.5067  1.2946 -0.2946
   74MOL0     H 9956   7.818  -0.495   4.709  1.7947 -0.9594 -2.5731
   74MOL0     H 9957   7.809  -0.318   4.738  1.2674 -0.4591 -0.0668
   74MOL0     H 9958   7.606  -0.417   4.785  2.5332 -1.4922  0.8786
   74MOL0     H 9959   7.580  -0.313   4.642 -1.4060 -0.3051  0.4733
   74MOL0     H 9960   7.625  -0.613   4.628 -2.9263 -2.0796 -0.2309
   74MOL0     H 9961   7.608  -0.517   4.486  4.5236 -1.1527  0.3411
   74MOL0     H 9962   7.358  -0.475   4.531 -0.5958 -1.4389 -0.2781
   74MOL0     H 9963   7.384  -0.520   4.693  5.0495 -0.1191  2.0442
   74MOL0     H 9964   7.375  -0.692   4.434 -2.6312 -0.8089  0.1721
   74MOL0     H 9965   7.453  -0.755   4.570  0.1503 -1.9357 -3.9935
   74MOL0     H 9966   7.265  -0.771   4.707  0.7189  0.2829 -0.4285
   74MOL0     H 9967   7.233  -0.859   4.559  0.0476  1.3680 -2.4576
   74MOL0     H 9968   7.136  -0.581   4.630  0.0565 -0.2093  0.2439
   74MOL0     H 9969   7.104  -0.654   4.474 -0.3175  0.4813  0.2113
   74MOL0     H 9970   8.148  -0.120   4.603  0.5094 -0.4253  0.1830
   74MOL0     H 9971   8.368  -0.144   4.503  1.6971 -0.2756 -0.9660
   74MOL0     H 9972   8.763  -0.233   4.622 -0.0535 -0.6167  0.1624
   74MOL0     H 9973   9.004  -0.213   4.551 -0.4439  2.1123 -0.5743
   74MOL0     H 9974  10.254  -0.016   3.352  2.3990  1.1732  0.0162
   74MOL0     H 9975  10.364  -0.118   3.151 -0.1188 -0.3419  1.6275
   74MOL0     H 9976  10.539   0.120   2.644  2.4297  0.5825  3.7375
   74MOL0     H 9977  10.654   0.047   2.458 -0.6904  1.0876  0.4784
   74MOL0     H 9978  10.736  -0.082   2.237  0.8758 -0.5923 -2.0705
   74MOL0     H 9979  10.569  -0.103   2.277  0.8260  1.6745  0.5407
   74MOL0     H 9980  10.602  -0.233   2.071 -0.0286  1.2269  0.4638
   74MOL0     H 9981  10.560  -0.338   2.198  2.3375 -1.4376 -0.1562
   74MOL0     H 9982  10.787  -0.420   2.240  1.5579 -0.1683 -0.2836
   74MOL0     H 9983  10.863  -0.290   2.143  1.4715 -3.4104 -2.4822
   74MOL0     H 9984  10.862  -0.528   2.055 -0.0878 -0.5815 -1.8328
   74MOL0     H 9985  10.691  -0.512   2.029 -1.0229  2.1901 -4.5897
   74MOL0     H 9986  10.817  -0.280   1.710  2.3500  3.2079  2.6637
   74MOL0     H 9987  10.626  -0.355   2.595  0.6079 -0.0214 -0.2998
   74MOL0     H 9988  10.414  -0.389   2.761 -2.7733  0.6017  1.7636
   74MOL0     H 9989  10.576  -0.360   2.845 -0.5707  0.5589  1.3597
   74MOL0     H 9990  10.425  -0.296   2.909  0.3501 -2.3997  1.6143
   75MOL0     O 9991   5.891   6.880  11.212  0.7138  0.0047  0.1347
   75MOL0     C 9992   6.012   6.907  11.187  0.4135 -0.0447 -0.2962
   75MOL0     O 9993   6.118   6.815  11.201 -0.4149 -0.3491 -0.4170
   75MOL0     C 9994   6.097   6.677  11.222  0.9265  0.7373 -0.5249
   75MOL0     C 9995   6.191   6.596  11.294  0.0798 -0.3223 -0.6541
   75MOL0     C 9996   6.177   6.453  11.300 -0.2946 -0.7207  0.1082
   75MOL0     C 9997   6.068   6.391  11.234  1.0031  0.6664 -0.7148
   75MOL0     O 9998   6.064   6.257  11.237 -0.4027 -0.3250  0.0076
   75MOL0     C 9999   5.931   6.200  11.268 -0.6227  0.7226  0.0216
   75MOL0     C10000   5.940   6.064  11.336  0.9821  0.3607 -0.3429
   75MOL0     C10001   6.041   5.970  11.265 -0.2058  0.7083  0.1112
   75MOL0     C10002   6.008   5.815  11.293  0.3436 -0.0410  0.3178
   75MOL0     C10003   5.892   5.760  11.228  0.7277 -0.0069  1.3280
   75MOL0     C10004   5.903   5.612  11.187 -0.5185 -0.8284 -0.5202
   75MOL0     C10005   5.761   5.565  11.152  0.5950 -0.4653 -0.3971
   75MOL0     C10006   5.767   5.420  11.100 -0.3126  0.4611  0.2896
   75MOL0     N10007   5.820   5.320  11.201 -0.8128 -0.5622  0.1280
   75MOL0     C10008   5.951   5.276  11.201  0.3094 -0.0731 -1.2116
   75MOL0     C10009   5.975   5.236  11.327 -0.9594 -0.2486 -0.4189
   75MOL0     C10010   6.110   5.202  11.386 -0.1829  0.6036  0.1253
   75MOL0     C10011   6.181   5.328  11.454 -0.2061  0.2551 -1.0740
   75MOL0     C10012   6.216   5.306  11.607 -0.4516  0.5059 -0.2349
   75MOL0     C10013   6.250   5.433  11.695 -0.1896 -0.5920  0.0965
   75MOL0     O10014   6.355   5.509  11.641 -0.5518 -0.5885 -0.1290
   75MOL0     C10015   6.483   5.457  11.619 -0.6908 -0.0110 -0.1912
   75MOL0     C10016   6.559   5.399  11.723  0.6201 -0.0547  0.0881
   75MOL0     C10017   6.690   5.367  11.709 -0.2682  0.0527 -0.4668
   75MOL0     C10018   6.756   5.385  11.580 -0.0776 -0.1213 -0.5749
   75MOL0     C10019   6.902   5.351  11.568  0.7592  0.2309  0.7197
   75MOL0     O10020   6.960   5.429  11.464 -0.3037  0.4848 -0.2689
   75MOL0     C10021   7.089   5.392  11.434 -0.5175 -0.5204 -0.5013
   75MOL0     C10022   7.137   5.264  11.407 -0.3729 -0.0170  0.9073
   75MOL0     C10023   7.279   5.244  11.378  0.3488 -0.0597  0.1128
   75MOL0     C10024   7.365   5.356  11.369  1.0141 -0.0525  0.6755
   75MOL0     O10025   7.489   5.337  11.342  0.1332  0.0931  0.0878
   75MOL0     C10026   7.515   5.285  11.216  0.7798 -0.9096 -0.1039
   75MOL0     C10027   7.664   5.229  11.216 -0.3778  0.0506  0.2300
   75MOL0     C10028   7.764   5.340  11.236 -0.2379 -0.2241 -0.2006
   75MOL0     C10029   7.909   5.287  11.293  0.4725 -0.2829 -0.3732
   75MOL0     C10030   8.022   5.388  11.263 -0.3383 -0.1526 -0.3456
   75MOL0     C10031   8.165   5.317  11.239  1.1062 -0.4255  1.0368
   75MOL0     C10032   8.262   5.441  11.197  1.4347  0.1467  0.2508
   75MOL0     C10033   8.402   5.379  11.175  1.1595  0.0486 -1.5469
   75MOL0    Cl10034   8.533   5.492  11.230  0.1644 -0.8270  0.5191
   75MOL0     C10035   7.312   5.484  11.395 -0.4267  0.3210 -0.3165
   75MOL0     C10036   7.180   5.502  11.432 -0.1357 -0.6610  0.1125
   75MOL0     O10037   6.962   5.287  11.654 -0.2660 -0.0076  0.2621
   75MOL0     C10038   6.675   5.440  11.477  0.0386 -0.7617 -0.0173
   75MOL0     C10039   6.542   5.481  11.497 -0.3820  0.3086 -0.4771
   75MOL0     N10040   5.856   5.243  11.400  0.6345  1.1711  0.0706
   75MOL0     N10041   5.764   5.298  11.325  0.0561 -0.1764  0.1146
   75MOL0     C10042   5.988   6.475  11.157  0.4904  0.6167  0.3416
   75MOL0     C10043   5.992   6.617  11.147 -1.0039  0.2885 -1.0090
   75MOL0     C10044   6.046   7.049  11.159  0.7737 -1.1607 -0.6952
   75MOL0     C10045   6.181   7.089  11.173 -0.0767  0.5305  0.0743
   75MOL0     C10046   6.222   7.221  11.144 -0.7802  0.9561  0.8812
   75MOL0     C10047   6.130   7.322  11.103 -0.2323 -0.3133 -0.6794
   75MOL0     O10048   6.148   7.459  11.086  0.0322  1.3722 -0.4690
   75MOL0     C10049   6.269   7.523  11.131 -0.1251  0.0583 -0.6673
   75MOL0     C10050   6.251   7.682  11.139  0.5280  0.5857  0.2788
   75MOL0     C10051   6.193   7.737  11.008 -0.5949 -0.6807  0.1731
   75MOL0     C10052   6.183   7.886  11.009 -0.1209 -1.1400  0.1714
   75MOL0     C10053   6.308   7.962  11.028  0.1963 -0.3170 -0.1481
   75MOL0     C10054   6.412   8.028  11.032 -0.4385 -0.2576  0.8677
   75MOL0     C10055   5.997   7.281  11.093 -0.2032 -0.3058 -0.2167
   75MOL0     C10056   5.954   7.144  11.119 -0.0962 -0.6385 -0.4774
   75MOL0     C10057   5.811   7.110  11.086 -0.0567  0.8926  0.5030
   75MOL0     H10058   6.272   6.634  11.356 -0.4255  1.1989 -0.8885
   75MOL0     H10059   6.262   6.405  11.348  0.5733  2.3143  1.8722
   75MOL0     H10060   5.879   6.264  11.339 -2.4021  0.5087 -1.0341
   75MOL0     H10061   5.869   6.193  11.177  1.6444  1.3148 -1.6737
   75MOL0     H10062   5.842   6.018  11.322  0.7513  1.0748 -1.1638
   75MOL0     H10063   5.953   6.074  11.444  3.4850  1.2498 -0.6630
   75MOL0     H10064   6.143   5.992  11.297  0.8162  0.6454 -2.8167
   75MOL0     H10065   6.023   5.981  11.157  0.6883 -0.1897 -0.1426
   75MOL0     H10066   6.096   5.761  11.258  1.5536 -0.1021  3.1154
   75MOL0     H10067   6.008   5.816  11.403  1.2486  2.3498  0.3704
   75MOL0     H10068   5.808   5.767  11.297 -1.4195 -2.7255 -0.8047
   75MOL0     H10069   5.867   5.815  11.136  1.2882 -2.5632 -0.4764
   75MOL0     H10070   5.965   5.601  11.097  0.2507  0.7829 -0.2148
   75MOL0     H10071   5.953   5.557  11.267  1.6550  0.2290 -1.0926
   75MOL0     H10072   5.724   5.628  11.071  0.9610  0.0589 -0.1628
   75MOL0     H10073   5.694   5.576  11.238  1.9863  1.9157  0.4780
   75MOL0     H10074   5.667   5.392  11.068  0.4178 -1.2454 -0.5891
   75MOL0     H10075   5.824   5.420  11.007 -0.7468 -3.4224 -0.1071
   75MOL0     H10076   6.018   5.298  11.120  1.0556 -0.0217 -0.5931
   75MOL0     H10077   6.093   5.128  11.465  0.9956  0.4034  0.2183
   75MOL0     H10078   6.172   5.146  11.315 -1.2748 -1.0525  0.4140
   75MOL0     H10079   6.276   5.352  11.406  0.4605  1.9844  0.9951
   75MOL0     H10080   6.111   5.411  11.455  0.1880  0.5925 -0.0397
   75MOL0     H10081   6.305   5.242  11.601 -0.7523  0.1327 -0.8143
   75MOL0     H10082   6.135   5.246  11.649  2.0101 -0.6161  3.3772
   75MOL0     H10083   6.270   5.394  11.795  0.9495 -0.4298 -0.0458
   75MOL0     H10084   6.158   5.491  11.691 -0.5498 -1.1311  0.5388
   75MOL0     H10085   6.515   5.391  11.822  0.2263 -3.0185 -0.2366
   75MOL0     H10086   6.761   5.338  11.787  0.1782  1.2055 -0.4180
   75MOL0     H10087   7.075   5.174  11.404  1.7180 -1.5685  1.8025
   75MOL0     H10088   7.318   5.144  11.362 -2.9080 -2.3885  4.5447
   75MOL0     H10089   7.445   5.204  11.194 -0.7944  0.9974 -2.6482
   75MOL0     H10090   7.489   5.362  11.143  0.1319  0.9684  2.0241
   75MOL0     H10091   7.681   5.152  11.291 -1.5333 -0.6040 -0.1511
   75MOL0     H10092   7.693   5.190  11.118  2.2746 -0.3120  1.0764
   75MOL0     H10093   7.779   5.404  11.148 -0.7054  0.2083  0.0311
   75MOL0     H10094   7.728   5.418  11.303 -0.1824 -2.8312  3.0976
   75MOL0     H10095   7.922   5.199  11.230  1.1119  2.3879 -4.2748
   75MOL0     H10096   7.891   5.260  11.398 -1.6685 -0.5898 -0.7641
   75MOL0     H10097   8.016   5.472  11.333 -2.8190 -0.6902  0.1564
   75MOL0     H10098   7.982   5.444  11.178  0.1618  0.8554  0.0657
   75MOL0     H10099   8.201   5.272  11.332  2.1245  1.0480  1.3952
   75MOL0     H10100   8.152   5.246  11.157  0.7117  0.7818  0.0108
   75MOL0     H10101   8.261   5.512  11.280 -1.2220 -0.2552  0.6600
   75MOL0     H10102   8.234   5.498  11.108 -1.4550  1.5688  1.9037
   75MOL0     H10103   8.421   5.290  11.236  1.9930  1.2727  0.0583
   75MOL0     H10104   8.416   5.369  11.067 -0.9300  2.7480 -2.1824
   75MOL0     H10105   7.372   5.574  11.389  1.7086 -1.0238 -0.1151
   75MOL0     H10106   7.145   5.603  11.453  0.8175 -0.2235 -0.3659
   75MOL0     H10107   6.718   5.467  11.381 -0.5381 -1.2592 -0.4276
   75MOL0     H10108   6.495   5.544  11.422 -0.1366  1.9882  0.7330
   75MOL0     H10109   5.921   6.435  11.082  1.0880 -1.3699  0.8085
   75MOL0     H10110   5.931   6.682  11.086 -0.1023  1.3411 -0.8187
   75MOL0     H10111   6.259   7.018  11.198  1.6331  2.5827  0.8349
   75MOL0     H10112   6.327   7.243  11.159  0.2013 -2.0807 -0.7674
   75MOL0     H10113   6.349   7.505  11.060  0.0932  0.7050 -0.5884
   75MOL0     H10114   6.306   7.491  11.229 -0.9442  0.4694 -0.2058
   75MOL0     H10115   6.352   7.723  11.138 -0.0481  2.2586  2.6889
   75MOL0     H10116   6.189   7.700  11.227 -1.4035 -1.2545 -0.6014
   75MOL0     H10117   6.099   7.688  10.982  0.0180 -1.3182 -0.9298
   75MOL0     H10118   6.267   7.701  10.935  0.6702 -4.2880  2.9175
   75MOL0     H10119   6.156   7.942  10.919 -1.4442  0.2021  1.3332
   75MOL0     H10120   6.112   7.918  11.086 -0.9815  1.4804 -1.5820
   75MOL0     H10121   6.492   8.098  11.018 -0.0722 -1.2830 -3.8248
   75MOL0     H10122   5.918   7.350  11.066 -1.0460 -1.5228 -0.9947
   75MOL0     H10123   5.812   7.015  11.031  0.0128  2.3341 -2.1356
   75MOL0     H10124   5.757   7.090  11.179  1.4939 -0.9656  1.0881
   75MOL0     H10125   5.758   7.185  11.026 -0.1637  0.6743  0.3215
   76MOL0     O10126   7.724   9.799   3.059 -0.2896 -0.2674 -0.6957
   76MOL0     C10127   7.633   9.844   2.990 -0.5664  0.5282  0.2152
   76MOL0     O10128   7.623   9.840   2.855 -0.4301  0.5696  0.7899
   76MOL0     C10129   7.725   9.823   2.769 -0.3550 -0.0442 -0.3592
   76MOL0     C10130   7.837   9.742   2.790 -0.4214 -0.7220 -0.0663
   76MOL0     C10131   7.935   9.742   2.692 -0.2467 -0.2353  0.7385
   76MOL0     C10132   7.921   9.810   2.569  0.4826 -0.4600  0.0531
   76MOL0     O10133   8.022   9.800   2.484  0.0577  1.2654 -0.3706
   76MOL0     C10134   8.015   9.830   2.347 -0.1516 -0.2217 -0.8979
   76MOL0     C10135   8.121   9.742   2.281 -1.1286  0.1353  0.3076
   76MOL0     C10136   8.092   9.759   2.134 -0.1261  0.8121  0.6137
   76MOL0     C10137   8.195   9.681   2.040  0.2366  0.0001  0.1934
   76MOL0     C10138   8.146   9.704   1.892  0.1038 -0.1426  0.1249
   76MOL0     C10139   8.246   9.668   1.785 -0.2801 -0.3746  0.1303
   76MOL0     C10140   8.188   9.704   1.647  0.4352 -0.3331 -0.0607
   76MOL0     C10141   8.298   9.690   1.549  0.3695  0.2545  0.4341
   76MOL0     N10142   8.255   9.741   1.413 -0.2020 -0.1901  0.3019
   76MOL0     C10143   8.319   9.840   1.350 -0.4606  0.6196 -0.2177
   76MOL0     C10144   8.269   9.837   1.220  1.4679  0.9557 -0.5850
   76MOL0     C10145   8.302   9.936   1.115 -1.6602 -0.2705  0.1104
   76MOL0     C10146   8.443  10.009   1.130 -0.7433 -0.1015  0.2511
   76MOL0     C10147   8.570   9.921   1.141 -0.2946  0.5843  0.7168
   76MOL0     C10148   8.605   9.857   1.005 -0.3929 -0.0557  0.0541
   76MOL0     O10149   8.737   9.792   1.022  0.0705 -0.1179  0.8461
   76MOL0     C10150   8.804   9.752   0.904 -0.1896 -0.4285  0.2008
   76MOL0     C10151   8.941   9.774   0.887  0.2890  0.1566 -0.1981
   76MOL0     C10152   9.006   9.753   0.772 -0.7119 -1.2806 -0.2675
   76MOL0     C10153   8.927   9.726   0.655 -0.6301 -1.2446 -0.4816
   76MOL0     C10154   8.996   9.710   0.524 -0.5699  0.6745  0.2085
   76MOL0     O10155   9.127   9.700   0.531  0.4141  0.2147  0.5914
   76MOL0     C10156   9.202   9.675   0.416 -1.0176 -1.1873  0.3892
   76MOL0     C10157   9.196   9.558   0.338 -0.5309 -0.4813 -0.3244
   76MOL0     C10158   9.280   9.548   0.228 -0.2444 -0.3661  0.5575
   76MOL0     C10159   9.368   9.655   0.189  0.2735 -0.2054 -0.5119
   76MOL0     O10160   9.455   9.656   0.085 -0.0348 -0.1058 -0.2756
   76MOL0     C10161   9.445   9.541  -0.003  0.4655  0.5117 -0.4640
   76MOL0     C10162   9.526   9.545  -0.130 -0.7813 -0.4974  0.3957
   76MOL0     C10163   9.539   9.420  -0.211  0.2289  0.1858 -0.0922
   76MOL0     C10164   9.577   9.438  -0.368  0.2569 -0.1105  0.4598
   76MOL0     C10165   9.575   9.310  -0.442  0.0074  0.8044  0.8815
   76MOL0     C10166   9.633   9.327  -0.584  0.0498 -0.5258 -0.5149
   76MOL0     C10167   9.677   9.192  -0.647  0.0370 -0.1328  0.8394
   76MOL0     C10168   9.694   9.195  -0.796 -0.5471 -0.2157 -0.4350
   76MOL0    Cl10169   9.745   9.045  -0.863  0.2808  0.3759 -0.1595
   76MOL0     C10170   9.362   9.775   0.261 -0.7622  0.3027 -0.5499
   76MOL0     C10171   9.287   9.783   0.377 -0.2407  0.6158 -0.0202
   76MOL0     O10172   8.926   9.701   0.428 -0.6665  0.0787  0.9232
   76MOL0     C10173   8.791   9.713   0.669 -0.6935  0.1675  0.2838
   76MOL0     C10174   8.732   9.718   0.792 -0.0683  0.1171  0.1098
   76MOL0     N10175   8.172   9.730   1.216 -0.2569  0.5407  0.7051
   76MOL0     N10176   8.166   9.677   1.332  0.9015 -1.1197 -0.8510
   76MOL0     C10177   7.796   9.879   2.546  0.1882  0.1636 -1.3984
   76MOL0     C10178   7.702   9.879   2.643 -0.2858 -0.3360 -0.5231
   76MOL0     C10179   7.509   9.894   3.054 -1.0736 -0.0644 -0.0928
   76MOL0     C10180   7.400   9.941   2.977  0.1134  0.0318  0.4021
   76MOL0     C10181   7.282   9.978   3.031 -0.6784 -0.9674  0.5947
   76MOL0     C10182   7.265   9.985   3.171 -0.7521 -0.1822 -0.2004
   76MOL0     O10183   7.158  10.063   3.215  0.2827 -0.9261  0.8880
   76MOL0     C10184   7.152  10.107   3.343 -0.6093  0.0272 -0.3180
   76MOL0     C10185   7.145  10.262   3.365 -0.7006  0.1524  0.0592
   76MOL0     C10186   7.004  10.311   3.335 -0.0615 -0.1710  0.1146
   76MOL0     C10187   6.986  10.457   3.384 -0.7487  0.2759  0.2294
   76MOL0     C10188   6.846  10.510   3.367 -0.0255 -0.0215 -0.3253
   76MOL0     C10189   6.725  10.553   3.361 -0.0949 -0.3471 -0.7493
   76MOL0     C10190   7.365   9.932   3.249  0.3256 -1.3808  1.3537
   76MOL0     C10191   7.488   9.880   3.195  0.6347 -0.1168 -0.4763
   76MOL0     C10192   7.579   9.816   3.295 -0.2590  0.1080 -0.0346
   76MOL0     H10193   7.860   9.701   2.887  1.1903 -0.0774 -0.1600
   76MOL0     H10194   8.020   9.679   2.716 -1.1531 -2.0348 -0.5950
   76MOL0     H10195   7.916   9.813   2.303 -0.5603 -3.5939  0.9706
   76MOL0     H10196   8.037   9.937   2.339  3.3611 -0.5953  1.4212
   76MOL0     H10197   8.117   9.645   2.330  0.3302  0.6799  1.6074
   76MOL0     H10198   8.221   9.778   2.308 -2.5493  2.4200  3.0567
   76MOL0     H10199   8.099   9.866   2.114  0.9800  0.7589  0.6506
   76MOL0     H10200   7.990   9.725   2.117  0.2427 -0.4472  0.8353
   76MOL0     H10201   8.297   9.715   2.060  1.2138  0.4379 -4.2861
   76MOL0     H10202   8.192   9.576   2.071  1.0636  0.2195  1.0664
   76MOL0     H10203   8.057   9.644   1.871 -0.8522  0.1377  2.9848
   76MOL0     H10204   8.113   9.808   1.886 -2.2442 -0.8616 -0.5685
   76MOL0     H10205   8.338   9.720   1.811  0.5396 -1.5032 -0.4271
   76MOL0     H10206   8.271   9.561   1.789  1.5368  0.0590  1.8060
   76MOL0     H10207   8.152   9.807   1.644 -0.6815 -0.7071  0.0870
   76MOL0     H10208   8.100   9.644   1.621 -1.3857  1.0564  2.4446
   76MOL0     H10209   8.379   9.741   1.601  3.0677 -2.9270 -0.3323
   76MOL0     H10210   8.334   9.587   1.545  2.6324  0.9373  1.5908
   76MOL0     H10211   8.396   9.910   1.379 -0.6855  0.9529 -0.4265
   76MOL0     H10212   8.310   9.877   1.023  0.8526  0.9249 -0.5291
   76MOL0     H10213   8.220  10.007   1.099 -1.7335 -0.7859 -2.1222
   76MOL0     H10214   8.464  10.078   1.048 -0.2901 -0.0924  0.3710
   76MOL0     H10215   8.434  10.069   1.221  0.1207  0.0946  0.2157
   76MOL0     H10216   8.556   9.830   1.201 -0.0036  1.4960  2.2409
   76MOL0     H10217   8.651   9.987   1.173  1.4807 -0.3329 -1.6062
   76MOL0     H10218   8.608   9.938   0.931 -0.4970 -1.8941 -2.0800
   76MOL0     H10219   8.530   9.779   0.988 -2.0951  1.0218  2.2675
   76MOL0     H10220   8.995   9.811   0.974  2.3926  3.7164 -2.7516
   76MOL0     H10221   9.113   9.768   0.765 -0.8554 -1.0423 -2.5254
   76MOL0     H10222   9.125   9.482   0.367  0.2377 -0.5357  1.5953
   76MOL0     H10223   9.280   9.463   0.160 -0.7736 -1.3630  1.7618
   76MOL0     H10224   9.484   9.453   0.049  0.2340 -1.1393 -2.9319
   76MOL0     H10225   9.341   9.548  -0.037 -0.0068  2.8401  1.2055
   76MOL0     H10226   9.483   9.624  -0.191 -0.5744 -0.7955 -0.1404
   76MOL0     H10227   9.629   9.574  -0.110  0.4578 -3.2558 -1.3971
   76MOL0     H10228   9.612   9.356  -0.161 -3.0038 -2.0541  2.1622
   76MOL0     H10229   9.448   9.360  -0.208  0.7253 -0.5305  1.1733
   76MOL0     H10230   9.675   9.482  -0.388  1.2115 -2.0225  0.7469
   76MOL0     H10231   9.503   9.502  -0.416  0.9839 -0.0598 -0.6199
   76MOL0     H10232   9.472   9.272  -0.434  0.2873 -0.4057 -0.6706
   76MOL0     H10233   9.640   9.243  -0.386 -1.1670 -0.6366  0.6087
   76MOL0     H10234   9.550   9.375  -0.638  1.6598 -1.2161 -3.9018
   76MOL0     H10235   9.722   9.389  -0.577 -0.1949 -0.3125  0.9938
   76MOL0     H10236   9.603   9.114  -0.625  3.3567 -4.0302 -0.4604
   76MOL0     H10237   9.772   9.165  -0.599  0.7711  1.1850  0.1865
   76MOL0     H10238   9.598   9.229  -0.837 -0.3309  0.7390 -0.1938
   76MOL0     H10239   9.772   9.266  -0.826  5.2101 -4.8579  1.6257
   76MOL0     H10240   9.427   9.857   0.231 -1.5094  1.3987  0.7190
   76MOL0     H10241   9.294   9.871   0.441  1.3512 -0.3450  1.2031
   76MOL0     H10242   8.726   9.687   0.586  2.6628  0.7296 -2.7644
   76MOL0     H10243   8.625   9.705   0.793 -0.2329  1.3106 -0.3352
   76MOL0     H10244   7.769   9.916   2.447  1.5390  2.8056 -0.8735
   76MOL0     H10245   7.601   9.918   2.630  0.9891  3.6343  0.0839
   76MOL0     H10246   7.414   9.949   2.869  1.3076  1.4495  0.6245
   76MOL0     H10247   7.210  10.018   2.961  1.3592 -0.4149 -1.3254
   76MOL0     H10248   7.227  10.073   3.415 -1.2604  0.2253  0.4689
   76MOL0     H10249   7.061  10.067   3.388  0.7354 -2.5042  0.3448
   76MOL0     H10250   7.222  10.299   3.296  0.6630  1.8487  2.3606
   76MOL0     H10251   7.176  10.279   3.469 -1.3858  0.8293  0.1598
   76MOL0     H10252   6.935  10.243   3.385  0.1722 -1.0718 -0.7541
   76MOL0     H10253   6.986  10.309   3.228  0.9964  2.3331 -0.2015
   76MOL0     H10254   7.013  10.463   3.490 -3.2476  2.4296  0.8303
   76MOL0     H10255   7.058  10.519   3.330  0.2944 -1.9970 -1.1360
   76MOL0     H10256   6.621  10.570   3.343  0.1726  1.3728 -0.8579
   76MOL0     H10257   7.345   9.930   3.356  1.0538  0.8910  1.5865
   76MOL0     H10258   7.532   9.824   3.394  0.2302  0.5397  0.1690
   76MOL0     H10259   7.604   9.714   3.265  0.2091  0.7424 -1.9048
   76MOL0     H10260   7.673   9.870   3.309 -0.6049  0.2475  2.0836
   77MOL0     O10261   7.311  10.212   0.649  0.0450 -0.2472 -0.3972
   77MOL0     C10262   7.203  10.206   0.711  0.4726 -0.1677 -0.2701
   77MOL0     O10263   7.093  10.133   0.671  0.1732 -0.1517  0.3353
   77MOL0     C10264   7.063  10.099   0.545  0.3700 -1.1684 -0.3179
   77MOL0     C10265   6.960  10.019   0.526  1.0670 -0.0265 -0.4174
   77MOL0     C10266   6.923   9.972   0.398  0.5715  0.4890 -0.0887
   77MOL0     C10267   6.994  10.010   0.285  1.5496  0.4160  1.3901
   77MOL0     O10268   6.967   9.978   0.155  0.8008 -0.5320 -0.8122
   77MOL0     C10269   6.885   9.859   0.127 -0.4063  0.1025 -0.3844
   77MOL0     C10270   6.948   9.725   0.176  0.7651  0.3529  0.0923
   77MOL0     C10271   6.880   9.603   0.112 -0.4281  1.0008  0.2194
   77MOL0     C10272   6.912   9.477   0.202 -0.1823 -0.3668 -0.2933
   77MOL0     C10273   6.866   9.347   0.136  0.4204  0.1726 -0.4273
   77MOL0     C10274   6.970   9.291   0.037  0.0360 -0.3117 -0.3271
   77MOL0     C10275   6.942   9.154  -0.016  0.4261 -0.7701  0.7534
   77MOL0     C10276   6.799   9.138  -0.079  0.2767 -0.2796  0.0754
   77MOL0     N10277   6.782   9.225  -0.188 -0.5125 -0.5260  0.8519
   77MOL0     C10278   6.838   9.208  -0.317  1.1431  0.5718  0.4757
   77MOL0     C10279   6.786   9.309  -0.394 -0.4770  0.7926 -0.3938
   77MOL0     C10280   6.848   9.338  -0.527 -0.5634 -0.4275 -1.3232
   77MOL0     C10281   6.755   9.388  -0.629 -0.9437  0.2480  0.0472
   77MOL0     C10282   6.737   9.536  -0.639 -0.0712 -0.5642  0.1638
   77MOL0     C10283   6.599   9.585  -0.602  1.0103  0.3760 -0.0169
   77MOL0     O10284   6.579   9.722  -0.648  0.0562  0.1316 -0.2358
   77MOL0     C10285   6.532   9.744  -0.776  0.3904  0.5251  0.6721
   77MOL0     C10286   6.514   9.636  -0.871  0.0423 -0.6229  0.0618
   77MOL0     C10287   6.444   9.674  -0.988  0.4612 -0.2733  0.3556
   77MOL0     C10288   6.410   9.809  -1.017  0.3221 -0.0841  1.2732
   77MOL0     C10289   6.362   9.860  -1.155  0.3871  0.7861 -0.4205
   77MOL0     O10290   6.277   9.976  -1.163 -0.1153 -0.7711  0.0327
   77MOL0     C10291   6.204   9.992  -1.273  0.4451 -0.9228 -0.3861
   77MOL0     C10292   6.247  10.104  -1.347 -0.6170  0.8902 -0.6784
   77MOL0     C10293   6.177  10.143  -1.460 -0.7467 -0.7664  1.6236
   77MOL0     C10294   6.055  10.089  -1.501 -0.3755 -0.1162 -0.9400
   77MOL0     O10295   5.989  10.145  -1.610  0.8819  0.1193 -0.6694
   77MOL0     C10296   5.848  10.135  -1.607 -0.7705  0.4192  0.1102
   77MOL0     C10297   5.794  10.247  -1.698  0.6757  0.1339  0.4943
   77MOL0     C10298   5.649  10.210  -1.738  0.5395 -0.3860 -0.7484
   77MOL0     C10299   5.601  10.265  -1.868  0.5022  0.0999 -0.0359
   77MOL0     C10300   5.678  10.242  -1.996 -0.0256 -0.1079  1.0398
   77MOL0     C10301   5.587  10.267  -2.121  1.2289 -0.1058  0.2820
   77MOL0     C10302   5.648  10.228  -2.254 -0.5203 -0.4948 -0.5342
   77MOL0     C10303   5.680  10.077  -2.260  0.5794 -0.4064 -0.5121
   77MOL0    Cl10304   5.545   9.971  -2.250  0.1379  0.6677  0.2931
   77MOL0     C10305   6.007   9.983  -1.423 -0.4021 -0.3129  0.6231
   77MOL0     C10306   6.080   9.938  -1.308  0.4483 -0.2783 -0.1322
   77MOL0     O10307   6.391   9.782  -1.250  0.2905  0.5439 -0.0188
   77MOL0     C10308   6.430   9.909  -0.921  0.4240  0.4661  0.1757
   77MOL0     C10309   6.486   9.871  -0.799  1.4973 -0.2595  0.2787
   77MOL0     N10310   6.712   9.389  -0.304 -0.8252  0.0319  0.3997
   77MOL0     N10311   6.705   9.338  -0.189  0.4978 -0.2892 -0.0341
   77MOL0     C10312   7.099  10.098   0.297  0.2127  0.3927 -0.0431
   77MOL0     C10313   7.126  10.145   0.423  0.2958 -0.0317 -0.2914
   77MOL0     C10314   7.183  10.265   0.846 -0.1867 -0.5182 -0.3656
   77MOL0     C10315   7.086  10.219   0.934  0.0128  0.0498  0.0461
   77MOL0     C10316   7.066  10.278   1.053  0.6092 -0.0731 -0.1676
   77MOL0     C10317   7.150  10.386   1.099  0.7626  0.4634  1.1080
   77MOL0     O10318   7.108  10.453   1.211 -0.1040  0.1200  0.4857
   77MOL0     C10319   7.163  10.383   1.328  0.8097 -1.2448 -1.1855
   77MOL0     C10320   7.180  10.474   1.444 -0.4619  0.0411  0.7189
   77MOL0     C10321   7.285  10.588   1.403  0.1214 -0.0529  0.2215
   77MOL0     C10322   7.334  10.672   1.522  0.4298  0.3580 -0.0346
   77MOL0     C10323   7.458  10.740   1.478 -0.5312 -0.5649 -0.5421
   77MOL0     C10324   7.554  10.802   1.432  0.0691 -0.2243  0.0542
   77MOL0     C10325   7.249  10.437   1.009  1.0407  0.1395  0.1588
   77MOL0     C10326   7.263  10.377   0.881  0.4790 -0.9657  0.2375
   77MOL0     C10327   7.341  10.464   0.783 -0.9401 -0.1336 -0.7931
   77MOL0     H10328   6.894   9.983   0.605 -1.8418  2.2520 -1.6538
   77MOL0     H10329   6.835   9.909   0.396  0.6566  0.3463  0.7117
   77MOL0     H10330   6.778   9.867   0.148 -0.3611  2.0989 -0.6595
   77MOL0     H10331   6.888   9.856   0.017 -0.9453  1.7438 -0.4818
   77MOL0     H10332   6.934   9.718   0.284 -0.8431  0.1720 -0.1063
   77MOL0     H10333   7.056   9.726   0.154  0.5127  0.4375 -1.2407
   77MOL0     H10334   6.913   9.588   0.009 -0.6007 -1.0420  0.4258
   77MOL0     H10335   6.771   9.615   0.112 -0.5632 -0.0920 -0.2740
   77MOL0     H10336   7.019   9.471   0.225 -0.2003 -1.2159 -0.4046
   77MOL0     H10337   6.852   9.477   0.294  0.3255 -1.0528  0.0488
   77MOL0     H10338   6.853   9.279   0.220 -0.0878 -1.0005 -1.4228
   77MOL0     H10339   6.771   9.361   0.084  1.4815  2.9354 -1.8651
   77MOL0     H10340   6.971   9.361  -0.047 -0.9241 -0.9181 -0.8633
   77MOL0     H10341   7.071   9.307   0.075 -0.2703 -3.1280  2.0151
   77MOL0     H10342   6.943   9.084   0.068 -2.7155 -1.6477  0.1725
   77MOL0     H10343   7.009   9.129  -0.099  0.1795  1.5969 -0.2474
   77MOL0     H10344   6.779   9.036  -0.114 -2.5093  0.2716 -0.1756
   77MOL0     H10345   6.723   9.145  -0.001 -0.8493  0.6639 -1.0741
   77MOL0     H10346   6.918   9.139  -0.342  1.4325  1.0297  0.1205
   77MOL0     H10347   6.934   9.404  -0.511 -2.5557  2.1051 -0.4524
   77MOL0     H10348   6.888   9.245  -0.569 -1.1754 -0.6121 -1.5130
   77MOL0     H10349   6.800   9.354  -0.722 -4.4631  1.1415 -2.1674
   77MOL0     H10350   6.658   9.338  -0.636  0.7425 -3.6233  1.4539
   77MOL0     H10351   6.760   9.551  -0.745  0.8992 -2.3941  0.0676
   77MOL0     H10352   6.816   9.587  -0.583 -0.0242 -0.6567  0.1822
   77MOL0     H10353   6.587   9.586  -0.493  0.6450 -0.2238 -0.0489
   77MOL0     H10354   6.524   9.527  -0.655  2.0824  2.0619 -3.7352
   77MOL0     H10355   6.536   9.530  -0.856 -1.1651 -0.9422 -0.3002
   77MOL0     H10356   6.422   9.599  -1.063  2.7528 -1.7477  1.0493
   77MOL0     H10357   6.330  10.169  -1.324  1.4927 -0.6311 -3.4639
   77MOL0     H10358   6.208  10.234  -1.509 -3.3443 -1.2217 -1.2285
   77MOL0     H10359   5.822  10.038  -1.650  0.0704 -0.6139  1.8714
   77MOL0     H10360   5.805  10.140  -1.507  3.3245 -2.5249  2.2922
   77MOL0     H10361   5.802  10.334  -1.631 -0.1860  1.5182 -1.1007
   77MOL0     H10362   5.856  10.253  -1.787  1.0091 -1.6559  0.5702
   77MOL0     H10363   5.633  10.102  -1.745  0.0183 -0.9877  4.8307
   77MOL0     H10364   5.576  10.251  -1.668 -0.1706  0.4258 -1.9206
   77MOL0     H10365   5.599  10.374  -1.869  1.7011  0.1328 -0.1208
   77MOL0     H10366   5.496  10.237  -1.880  1.2175 -1.6106 -3.2787
   77MOL0     H10367   5.694  10.135  -2.010 -1.4817 -0.0151 -2.5804
   77MOL0     H10368   5.774  10.294  -1.989  0.4697 -1.2375  3.8401
   77MOL0     H10369   5.488  10.222  -2.108  1.1609 -0.0926 -0.1854
   77MOL0     H10370   5.563  10.373  -2.123 -0.3172 -0.4245  0.6280
   77MOL0     H10371   5.746  10.273  -2.266 -0.8476  0.5620  0.5717
   77MOL0     H10372   5.587  10.257  -2.340  1.2205 -0.5242 -1.8240
   77MOL0     H10373   5.721  10.063  -2.361  0.9399  0.9920 -0.5715
   77MOL0     H10374   5.755  10.057  -2.184 -0.3190  0.0428  0.5133
   77MOL0     H10375   5.912   9.936  -1.448 -1.2550  2.2900 -1.5019
   77MOL0     H10376   6.031   9.866  -1.244  0.1685  0.7202  0.8146
   77MOL0     H10377   6.394  10.010  -0.936 -1.9828 -0.7234 -3.6902
   77MOL0     H10378   6.495   9.943  -0.719  2.1028 -2.2778  2.1532
   77MOL0     H10379   7.150  10.129   0.206  1.5169 -0.8120  0.2380
   77MOL0     H10380   7.212  10.211   0.434  0.0416  0.2156  0.2445
   77MOL0     H10381   7.028  10.130   0.909  1.3140 -0.2635 -2.1727
   77MOL0     H10382   6.994  10.232   1.120  0.4127 -3.9848 -2.7357
   77MOL0     H10383   7.264  10.364   1.290  1.1079  3.6192 -3.7524
   77MOL0     H10384   7.103  10.295   1.352 -1.5907  0.1862 -1.6281
   77MOL0     H10385   7.226  10.423   1.528  0.4103  1.7196  1.3076
   77MOL0     H10386   7.083  10.515   1.476 -0.6576 -1.3450  1.9794
   77MOL0     H10387   7.233  10.652   1.330 -0.3808 -2.0042 -1.2103
   77MOL0     H10388   7.372  10.541   1.357 -1.0105 -0.7797 -1.2470
   77MOL0     H10389   7.261  10.739   1.568 -2.3190 -2.0784 -0.5634
   77MOL0     H10390   7.359  10.603   1.603 -3.8339  0.5599  1.6820
   77MOL0     H10391   7.651  10.830   1.397 -0.4676 -0.6132 -1.8695
   77MOL0     H10392   7.314  10.513   1.051 -0.9460  1.1480  1.6175
   77MOL0     H10393   7.441  10.424   0.760 -0.5630  0.2505  0.1255
   77MOL0     H10394   7.289  10.481   0.689  0.4541 -0.3915 -1.6460
   77MOL0     H10395   7.369  10.563   0.822 -0.6725  0.0066 -1.3293
   78MOL0     O10396   2.099   4.915   8.373  0.3922  0.0845  0.2917
   78MOL0     C10397   2.003   4.854   8.312  0.1033  0.1688 -0.1140
   78MOL0     O10398   1.998   4.716   8.297 -0.2989 -0.0038  0.3200
   78MOL0     C10399   2.104   4.642   8.354 -0.6803 -0.4413 -0.3235
   78MOL0     C10400   2.212   4.605   8.277  0.0489 -0.3317  0.3581
   78MOL0     C10401   2.317   4.528   8.330 -0.2570 -0.0008 -0.8179
   78MOL0     C10402   2.323   4.511   8.469  0.9553 -0.5435 -0.4164
   78MOL0     O10403   2.419   4.441   8.542 -0.6851  0.0647 -0.0216
   78MOL0     C10404   2.535   4.401   8.464  0.5654  0.6972  0.2573
   78MOL0     C10405   2.657   4.372   8.560 -0.0455 -0.2602 -1.0924
   78MOL0     C10406   2.686   4.507   8.634  0.5665  0.6742 -0.2226
   78MOL0     C10407   2.790   4.477   8.738  0.1504 -0.0585 -0.4345
   78MOL0     C10408   2.932   4.449   8.697  0.3137  0.0427  0.0506
   78MOL0     C10409   2.993   4.547   8.596  0.0838 -0.2992 -0.6405
   78MOL0     C10410   2.989   4.704   8.637 -0.4555  0.3262  0.5777
   78MOL0     C10411   3.056   4.723   8.776 -0.2422 -0.7537 -0.2169
   78MOL0     N10412   3.135   4.848   8.786 -0.3128  0.3768  0.2954
   78MOL0     C10413   3.120   4.961   8.719 -0.5753 -0.1176  0.1605
   78MOL0     C10414   3.235   5.030   8.728  0.9172 -0.2302  0.1580
   78MOL0     C10415   3.267   5.166   8.675  0.2627  1.1304 -0.1237
   78MOL0     C10416   3.387   5.165   8.577  0.7654 -0.6162  0.5840
   78MOL0     C10417   3.421   5.309   8.532  0.1938  0.6233  0.1005
   78MOL0     C10418   3.503   5.306   8.403 -0.2763 -0.6859  0.2277
   78MOL0     O10419   3.571   5.439   8.391 -0.5441  0.3246 -0.7025
   78MOL0     C10420   3.500   5.521   8.313 -0.1452 -0.3028  0.8558
   78MOL0     C10421   3.525   5.501   8.178 -0.0785  0.0505  0.4602
   78MOL0     C10422   3.476   5.592   8.089 -0.6826 -0.7119  0.3464
   78MOL0     C10423   3.400   5.698   8.130  0.1593  0.2252  0.6367
   78MOL0     C10424   3.346   5.799   8.032  1.1066  0.3763  0.0581
   78MOL0     O10425   3.353   5.766   7.906 -0.6237 -0.5603  0.7389
   78MOL0     C10426   3.295   5.860   7.818 -0.3129 -0.9237 -0.2190
   78MOL0     C10427   3.378   5.960   7.777 -0.2149 -0.0482  0.2691
   78MOL0     C10428   3.326   6.060   7.698 -0.3705  1.1024  0.5940
   78MOL0     C10429   3.186   6.061   7.664  0.9243  0.1962 -0.3645
   78MOL0     O10430   3.152   6.153   7.578  0.0035  0.2155  0.1679
   78MOL0     C10431   3.024   6.147   7.510 -0.7319 -0.8860 -0.1409
   78MOL0     C10432   3.020   6.051   7.391 -0.3485 -0.2470  0.4136
   78MOL0     C10433   2.891   6.063   7.309  0.8550 -0.0174 -0.7053
   78MOL0     C10434   2.898   5.996   7.178 -0.5897  0.2412  0.5703
   78MOL0     C10435   2.775   6.028   7.091  0.6536  0.6999 -0.7702
   78MOL0     C10436   2.783   5.948   6.960 -0.0017  0.6735 -0.1593
   78MOL0     C10437   2.667   5.946   6.864 -0.2369  0.0745  0.0500
   78MOL0     C10438   2.706   5.883   6.732  0.4856 -0.3349 -0.1551
   78MOL0    Cl10439   2.582   5.889   6.610 -0.0722  0.0026 -0.3071
   78MOL0     C10440   3.110   5.956   7.707 -0.1057 -0.7815 -0.4837
   78MOL0     C10441   3.163   5.868   7.791 -0.1505  0.2849  0.0818
   78MOL0     O10442   3.293   5.903   8.074  0.1261  0.8560 -0.2960
   78MOL0     C10443   3.374   5.711   8.268  1.2054 -0.0592 -0.4317
   78MOL0     C10444   3.427   5.628   8.361  0.2050  0.2493  0.2154
   78MOL0     N10445   3.308   4.955   8.806 -0.5600 -0.1349  0.2271
   78MOL0     N10446   3.260   4.852   8.841  0.6773 -0.0421  0.1277
   78MOL0     C10447   2.222   4.570   8.550 -0.2521  0.5188  0.4374
   78MOL0     C10448   2.107   4.625   8.495 -0.0470  0.1759 -0.4486
   78MOL0     C10449   1.885   4.939   8.267  0.0057  0.2706  0.6479
   78MOL0     C10450   1.752   4.891   8.266 -0.5421  0.0520  0.6627
   78MOL0     C10451   1.647   4.969   8.237 -0.1688  0.4127  0.5294
   78MOL0     C10452   1.659   5.109   8.222 -0.3645 -1.1914 -0.6056
   78MOL0     O10453   1.547   5.189   8.213  0.0617 -0.8381 -0.5471
   78MOL0     C10454   1.543   5.333   8.238 -0.8748 -0.0676 -0.4922
   78MOL0     C10455   1.427   5.398   8.303  0.9161  0.1087 -0.4643
   78MOL0     C10456   1.438   5.424   8.454 -0.1624  0.1529 -0.0659
   78MOL0     C10457   1.361   5.322   8.547 -0.7014 -0.7126  0.1322
   78MOL0     C10458   1.405   5.186   8.542  0.0684 -0.9764  0.3842
   78MOL0     C10459   1.439   5.071   8.526  0.2770 -0.4383 -0.1642
   78MOL0     C10460   1.786   5.156   8.214 -0.8024 -0.7534 -0.5818
   78MOL0     C10461   1.899   5.078   8.241 -0.0797 -0.8800 -0.0152
   78MOL0     C10462   2.034   5.148   8.216  0.4074 -0.4204 -0.2092
   78MOL0     H10463   2.207   4.609   8.168 -0.0376 -0.7261  0.3448
   78MOL0     H10464   2.395   4.507   8.258 -1.1657 -0.9454 -1.5634
   78MOL0     H10465   2.519   4.309   8.408 -2.7628  0.5809  1.1870
   78MOL0     H10466   2.554   4.473   8.384 -0.5869 -2.9285 -3.6832
   78MOL0     H10467   2.746   4.346   8.500 -0.3228 -1.8522 -0.8642
   78MOL0     H10468   2.639   4.295   8.636 -1.9053  1.0022 -0.1969
   78MOL0     H10469   2.598   4.542   8.689 -0.4073  1.5044 -2.2359
   78MOL0     H10470   2.727   4.587   8.572  1.3492  1.5215  1.3020
   78MOL0     H10471   2.799   4.563   8.805 -0.2412 -0.1982 -0.1982
   78MOL0     H10472   2.748   4.399   8.803 -0.7559 -0.4716 -1.4879
   78MOL0     H10473   3.007   4.441   8.776  0.5155  0.2231 -0.1195
   78MOL0     H10474   2.928   4.346   8.660 -1.9036 -1.5176  3.9666
   78MOL0     H10475   3.092   4.518   8.561  1.5263  0.8598  2.1802
   78MOL0     H10476   2.926   4.553   8.510  0.7708  3.4353 -1.0898
   78MOL0     H10477   2.892   4.755   8.633  0.1694  1.4973 -1.3984
   78MOL0     H10478   3.048   4.753   8.559 -0.8701 -0.5373 -0.3079
   78MOL0     H10479   2.976   4.718   8.850  1.9271  1.1706  2.4861
   78MOL0     H10480   3.110   4.633   8.808 -0.4104 -0.6477  0.3823
   78MOL0     H10481   3.033   5.005   8.670  0.4774  1.8138 -0.1031
   78MOL0     H10482   3.180   5.218   8.634  1.4707  2.5202 -1.0411
   78MOL0     H10483   3.303   5.218   8.765  2.5829 -0.8108  0.1674
   78MOL0     H10484   3.477   5.114   8.613  1.5909 -1.4933 -2.4146
   78MOL0     H10485   3.352   5.100   8.496  0.4774 -2.3324  2.0162
   78MOL0     H10486   3.475   5.363   8.610  0.9241 -0.4441  0.3614
   78MOL0     H10487   3.327   5.358   8.508 -1.8570 -2.8792  0.2842
   78MOL0     H10488   3.439   5.291   8.315  0.3394 -2.2473  0.0152
   78MOL0     H10489   3.581   5.230   8.398  2.4166  1.9146  0.3547
   78MOL0     H10490   3.590   5.419   8.148  1.4103  0.9580  1.1476
   78MOL0     H10491   3.495   5.583   7.983 -0.9648 -2.3344  0.4161
   78MOL0     H10492   3.486   5.960   7.786  0.1332  1.4022 -2.7248
   78MOL0     H10493   3.399   6.128   7.655 -1.8376  1.5529 -1.3576
   78MOL0     H10494   2.938   6.118   7.570 -0.3785 -1.0062  0.3193
   78MOL0     H10495   2.997   6.247   7.477  1.3762 -0.8896 -2.1393
   78MOL0     H10496   3.105   6.079   7.328 -0.8944 -1.9144 -1.1663
   78MOL0     H10497   3.039   5.951   7.431  1.0131  0.3787  1.4199
   78MOL0     H10498   2.798   6.041   7.363  0.8517 -0.5056 -0.8990
   78MOL0     H10499   2.886   6.171   7.297  1.4329  0.2673  1.2583
   78MOL0     H10500   2.891   5.887   7.189 -1.0109  0.1207 -0.6520
   78MOL0     H10501   2.989   6.036   7.133 -0.6425 -2.1053 -1.8566
   78MOL0     H10502   2.754   6.133   7.069 -0.3400  0.5924 -0.3541
   78MOL0     H10503   2.684   5.992   7.139 -1.1172  1.3061 -3.4875
   78MOL0     H10504   2.873   5.993   6.917 -0.1297  3.6130  2.3038
   78MOL0     H10505   2.793   5.842   6.983 -0.6225  0.4981 -0.6897
   78MOL0     H10506   2.634   6.047   6.838 -0.3487  0.3780  1.2630
   78MOL0     H10507   2.582   5.890   6.904 -0.2995 -0.1692 -0.4181
   78MOL0     H10508   2.794   5.939   6.698  0.1032  1.9867  2.3776
   78MOL0     H10509   2.742   5.779   6.738 -1.1866 -0.9501 -0.2870
   78MOL0     H10510   3.005   5.957   7.679  0.4329 -3.9493 -3.2109
   78MOL0     H10511   3.095   5.798   7.841  0.7574 -0.2013  0.6631
   78MOL0     H10512   3.320   5.803   8.291  1.9013  0.4030 -0.6022
   78MOL0     H10513   3.417   5.637   8.469  0.2248  0.6908  0.1796
   78MOL0     H10514   2.223   4.549   8.656 -0.6707  3.0130  0.9838
   78MOL0     H10515   2.031   4.652   8.567  0.3891  0.3402 -0.0485
   78MOL0     H10516   1.745   4.786   8.291 -0.3086  0.2723  1.7068
   78MOL0     H10517   1.550   4.923   8.256 -0.1244  0.5378  1.0709
   78MOL0     H10518   1.560   5.393   8.148 -0.9722  1.8708  0.7132
   78MOL0     H10519   1.631   5.359   8.298 -3.7333  1.2138  3.5971
   78MOL0     H10520   1.344   5.327   8.292  0.6788 -0.8468  4.8201
   78MOL0     H10521   1.405   5.491   8.249  0.9346  0.8534  0.7942
   78MOL0     H10522   1.411   5.526   8.479  2.5951  0.7472  0.8654
   78MOL0     H10523   1.538   5.411   8.496 -0.4735 -1.0937  0.3392
   78MOL0     H10524   1.368   5.359   8.649 -2.4118 -0.9374  0.3545
   78MOL0     H10525   1.255   5.323   8.518 -0.6015 -3.0437 -0.5203
   78MOL0     H10526   1.471   4.969   8.517  0.4712 -0.3061 -1.1094
   78MOL0     H10527   1.808   5.261   8.197  1.7176 -1.3610 -1.4286
   78MOL0     H10528   2.114   5.077   8.194  2.0177  1.1923  0.2589
   78MOL0     H10529   2.026   5.232   8.146  2.1087  0.1600  0.2397
   78MOL0     H10530   2.069   5.190   8.311 -1.6001 -0.7565  0.7440
   79MOL0     O10531   0.430   8.765   7.441 -0.9175  0.3662  0.5183
   79MOL0     C10532   0.437   8.761   7.566 -1.3185 -0.1765 -0.1260
   79MOL0     O10533   0.398   8.863   7.648  0.2172 -0.5485  0.7757
   79MOL0     C10534   0.385   8.991   7.602  0.8283 -0.9313  0.4190
   79MOL0     C10535   0.279   9.065   7.656  0.0395 -0.2566 -0.0707
   79MOL0     C10536   0.258   9.200   7.635 -1.1243  0.2781  0.7017
   79MOL0     C10537   0.347   9.272   7.555  0.8304  1.1482 -0.0807
   79MOL0     O10538   0.307   9.401   7.521  0.1298  0.4359  0.7453
   79MOL0     C10539   0.414   9.492   7.547  0.0529  0.0793  0.0635
   79MOL0     C10540   0.353   9.630   7.572 -0.3087 -1.3803 -0.1753
   79MOL0     C10541   0.350   9.725   7.455 -0.6915 -0.0339  0.4514
   79MOL0     C10542   0.299   9.869   7.486  1.1843  0.1434 -0.7718
   79MOL0     C10543   0.325   9.973   7.369  0.6610 -0.7296  1.5171
   79MOL0     C10544   0.292  10.118   7.395 -0.3306  0.2718  0.5299
   79MOL0     C10545   0.146  10.148   7.421 -0.1158  0.1691 -0.2907
   79MOL0     C10546   0.057  10.140   7.296 -0.7321  0.2535 -0.5129
   79MOL0     N10547   0.103  10.218   7.177 -0.1371  0.2794 -0.1055
   79MOL0     C10548   0.123  10.354   7.163 -0.3680  0.2655 -0.4334
   79MOL0     C10549   0.181  10.367   7.036 -0.3252 -0.3104  0.5393
   79MOL0     C10550   0.233  10.500   6.967 -0.8691  0.9939 -0.3440
   79MOL0     C10551   0.128  10.608   6.969 -0.2602 -0.2652  0.2590
   79MOL0     C10552   0.190  10.733   6.887 -0.3948 -0.2236 -0.1123
   79MOL0     C10553   0.206  10.687   6.741  0.6900 -0.9301  1.1236
   79MOL0     O10554   0.235  10.794   6.658  0.5654 -0.1664 -0.4189
   79MOL0     C10555   0.364  10.845   6.664  0.0306  0.4895  0.2974
   79MOL0     C10556   0.481  10.781   6.720  0.1031 -0.1108 -1.1048
   79MOL0     C10557   0.610  10.818   6.684  0.4677 -0.1211  0.1063
   79MOL0     C10558   0.627  10.918   6.587 -0.4552 -0.2473  0.4064
   79MOL0     C10559   0.756  10.962   6.536  0.5209 -0.0204 -0.1546
   79MOL0     O10560   0.752  11.076   6.460 -0.4954  0.8629  0.3710
   79MOL0     C10561   0.853  11.091   6.361 -0.4984 -0.5135 -0.7601
   79MOL0     C10562   0.839  11.027   6.235 -0.4921 -0.0264  0.8841
   79MOL0     C10563   0.944  11.039   6.138  0.1475  0.2419 -0.8701
   79MOL0     C10564   1.052  11.128   6.156  0.9786  0.1312 -0.5868
   79MOL0     O10565   1.152  11.123   6.068 -0.4504 -0.6538  0.7035
   79MOL0     C10566   1.258  11.223   6.078 -0.0005 -0.0473  1.1256
   79MOL0     C10567   1.211  11.346   6.010  1.3975 -0.4709 -0.7041
   79MOL0     C10568   1.231  11.333   5.860  0.2127 -0.0090  0.9737
   79MOL0     C10569   1.201  11.459   5.780 -0.0816 -0.5834 -0.2968
   79MOL0     C10570   1.182  11.419   5.627 -0.3247  0.0711 -1.0343
   79MOL0     C10571   1.231  11.537   5.540  0.4701  0.9026 -0.3333
   79MOL0     C10572   1.377  11.525   5.498  0.6662 -0.0112 -0.7277
   79MOL0     C10573   1.438  11.647   5.437  0.6537 -0.1763  0.8926
   79MOL0    Cl10574   1.389  11.688   5.271 -0.2232 -0.0599 -0.3245
   79MOL0     C10575   1.050  11.209   6.274  0.3495 -0.3435  0.5788
   79MOL0     C10576   0.958  11.183   6.379 -0.3121 -0.2306  0.0739
   79MOL0     O10577   0.857  10.894   6.551 -0.1551 -0.2020  0.0546
   79MOL0     C10578   0.516  10.996   6.550  0.3832 -0.2029 -0.0766
   79MOL0     C10579   0.386  10.954   6.583  0.4303  0.3841  1.3283
   79MOL0     N10580   0.189  10.244   6.978  0.4620  0.3947  0.1131
   79MOL0     N10581   0.143  10.151   7.065 -0.1910  0.1719 -0.2125
   79MOL0     C10582   0.462   9.206   7.504 -0.4459  0.0366  0.8532
   79MOL0     C10583   0.478   9.066   7.523 -0.2412 -0.5608  0.0038
   79MOL0     C10584   0.499   8.642   7.625 -0.7943  0.5662 -0.8440
   79MOL0     C10585   0.588   8.650   7.739  0.3140  0.6777  0.5895
   79MOL0     C10586   0.656   8.543   7.792  0.0685  0.3016 -0.9220
   79MOL0     C10587   0.631   8.418   7.764  0.3504 -0.3591 -0.2419
   79MOL0     O10588   0.689   8.320   7.834  0.1781 -0.3699 -0.2491
   79MOL0     C10589   0.631   8.191   7.852  0.9828  0.5259 -0.8919
   79MOL0     C10590   0.687   8.143   7.992 -0.7034 -0.2315  0.3997
   79MOL0     C10591   0.838   8.105   7.975 -0.1252  1.0668  0.2476
   79MOL0     C10592   0.952   8.209   7.938  0.4118  0.8632 -0.1356
   79MOL0     C10593   1.086   8.154   7.974 -0.6761  0.3969 -0.7237
   79MOL0     C10594   1.195   8.096   7.969 -0.1551 -0.4605  0.2476
   79MOL0     C10595   0.541   8.392   7.655  0.6537  0.2718  0.2244
   79MOL0     C10596   0.479   8.500   7.582 -0.1320  0.1090  0.4602
   79MOL0     C10597   0.390   8.465   7.473  0.9432 -0.3744  0.3400
   79MOL0     H10598   0.208   9.020   7.725  2.4585 -0.8708  2.1807
   79MOL0     H10599   0.179   9.266   7.670 -0.5294  0.1111  2.4444
   79MOL0     H10600   0.457   9.471   7.646  1.8930  0.5518 -0.5977
   79MOL0     H10601   0.492   9.489   7.470 -0.8214 -0.4466 -0.8176
   79MOL0     H10602   0.403   9.688   7.650  0.7429  2.2384 -3.2429
   79MOL0     H10603   0.250   9.612   7.606  0.0049 -0.0706  1.6782
   79MOL0     H10604   0.284   9.688   7.376 -0.8184  0.7308  0.1871
   79MOL0     H10605   0.452   9.733   7.416 -0.9150  2.5753  0.2368
   79MOL0     H10606   0.191   9.862   7.505  1.2062  0.0576 -0.6802
   79MOL0     H10607   0.340   9.913   7.578 -1.9501  1.7745 -0.0057
   79MOL0     H10608   0.427   9.968   7.330 -0.7958 -2.2498 -2.5744
   79MOL0     H10609   0.272   9.938   7.281  2.2952  0.5979 -0.0651
   79MOL0     H10610   0.334  10.162   7.486  3.9839  2.5690 -2.2072
   79MOL0     H10611   0.340  10.177   7.316  0.2852  0.3082  0.9226
   79MOL0     H10612   0.145  10.250   7.461  0.7897  0.8422 -1.8975
   79MOL0     H10613   0.103  10.078   7.494 -0.6127  2.7516  2.0623
   79MOL0     H10614   0.053  10.035   7.266  1.5770  0.8236 -3.2697
   79MOL0     H10615  -0.047  10.171   7.314 -0.6573 -0.1429  0.7017
   79MOL0     H10616   0.111  10.442   7.226  1.2932 -0.0340  0.3606
   79MOL0     H10617   0.320  10.538   7.022 -0.9421 -0.3844  0.7760
   79MOL0     H10618   0.270  10.481   6.866 -1.1033  1.1168 -0.4523
   79MOL0     H10619   0.042  10.570   6.913  2.0834 -2.6590 -2.0398
   79MOL0     H10620   0.103  10.644   7.070  0.7169  0.8934  0.1039
   79MOL0     H10621   0.287  10.755   6.933  0.0261 -1.5539 -0.3340
   79MOL0     H10622   0.130  10.824   6.890 -2.8514 -1.6112 -2.6577
   79MOL0     H10623   0.108  10.646   6.714  2.3185 -2.8030 -2.8119
   79MOL0     H10624   0.275  10.606   6.717 -0.2761 -0.9334 -2.2184
   79MOL0     H10625   0.474  10.694   6.786 -2.3505 -0.8989 -2.2528
   79MOL0     H10626   0.696  10.761   6.718  1.5036 -0.3503 -2.5828
   79MOL0     H10627   0.757  10.959   6.217 -0.0180 -0.2488 -0.5591
   79MOL0     H10628   0.927  10.984   6.046 -1.2285 -2.2926  0.7675
   79MOL0     H10629   1.303  11.248   6.175 -0.8377  1.5630  1.1393
   79MOL0     H10630   1.344  11.204   6.014  0.3387  3.7109  0.2076
   79MOL0     H10631   1.104  11.363   6.025  1.4016 -0.9232 -0.1540
   79MOL0     H10632   1.268  11.436   6.036  0.8150 -0.3600  0.2409
   79MOL0     H10633   1.330  11.300   5.828 -0.5313 -1.5228  0.1331
   79MOL0     H10634   1.152  11.265   5.824 -0.3457  0.1039  1.9467
   79MOL0     H10635   1.295  11.515   5.774  0.0531 -0.7277  0.4371
   79MOL0     H10636   1.120  11.525   5.814 -1.4386 -1.1827 -2.2060
   79MOL0     H10637   1.074  11.404   5.617 -0.5806  0.7523  0.3558
   79MOL0     H10638   1.253  11.339   5.605 -2.1899 -1.9399 -0.0837
   79MOL0     H10639   1.165  11.533   5.452 -3.4350  0.9377  2.3587
   79MOL0     H10640   1.208  11.636   5.581 -2.3374 -0.8159  2.7921
   79MOL0     H10641   1.376  11.434   5.437 -2.4827  0.8518 -2.1676
   79MOL0     H10642   1.431  11.511   5.592 -2.2553  1.0680  1.2550
   79MOL0     H10643   1.405  11.730   5.501 -0.3330  0.7838 -0.7929
   79MOL0     H10644   1.547  11.648   5.446  0.5548 -0.6441  2.4902
   79MOL0     H10645   1.130  11.281   6.292  0.8447 -1.0662  1.3482
   79MOL0     H10646   0.968  11.230   6.476  2.6617  0.1630 -0.3101
   79MOL0     H10647   0.530  11.090   6.497 -1.0904 -0.8670 -1.7827
   79MOL0     H10648   0.304  11.004   6.531 -1.0220  0.5864  3.6862
   79MOL0     H10649   0.534   9.262   7.445  0.1516  0.4508  1.9553
   79MOL0     H10650   0.562   9.003   7.493 -2.1655 -2.3596 -1.9812
   79MOL0     H10651   0.598   8.746   7.788  5.1227  1.2765 -0.9592
   79MOL0     H10652   0.712   8.568   7.882 -0.8727 -1.2998  0.1759
   79MOL0     H10653   0.662   8.116   7.779 -1.1776 -1.6781  0.3333
   79MOL0     H10654   0.523   8.201   7.864  1.2079  0.2789  1.7921
   79MOL0     H10655   0.638   8.052   8.026  3.3492 -2.0420  2.1259
   79MOL0     H10656   0.684   8.217   8.073 -2.5011 -0.3896  0.5099
   79MOL0     H10657   0.839   8.012   7.917  1.7048  0.5009  1.0951
   79MOL0     H10658   0.857   8.070   8.077  3.1335 -3.0552 -1.4750
   79MOL0     H10659   0.940   8.227   7.831  0.8232  0.7937 -0.1975
   79MOL0     H10660   0.946   8.302   7.995  0.4241 -0.2148  1.7017
   79MOL0     H10661   1.294   8.056   7.983  0.6280  1.6733  1.1132
   79MOL0     H10662   0.513   8.289   7.638 -0.7530  0.4620  1.2075
   79MOL0     H10663   0.384   8.356   7.475  2.5931 -0.4905  2.1220
   79MOL0     H10664   0.290   8.498   7.500  0.9493 -0.2319  0.1885
   79MOL0     H10665   0.419   8.493   7.371  1.5674 -4.6718 -0.8390
   80MOL0     O10666   5.871   1.526  10.740  0.4954 -0.7080  0.5299
   80MOL0     C10667   5.980   1.528  10.702  0.0812  0.3578 -0.5332
   80MOL0     O10668   6.020   1.513  10.568  0.3068  0.3892 -0.3618
   80MOL0     C10669   5.910   1.524  10.485 -1.2146  0.2437  0.6716
   80MOL0     C10670   5.865   1.413  10.410 -0.2908 -1.0207 -0.9057
   80MOL0     C10671   5.778   1.426  10.301  0.0803 -0.6201 -0.1086
   80MOL0     C10672   5.735   1.550  10.265 -0.4645 -0.3494 -0.3688
   80MOL0     O10673   5.655   1.568  10.155  0.0543 -0.0222 -0.0966
   80MOL0     C10674   5.518   1.591  10.195  0.2133  0.3149 -0.3029
   80MOL0     C10675   5.427   1.642  10.088  0.1214 -0.8090 -0.0355
   80MOL0     C10676   5.453   1.788  10.049  0.4589  0.1028 -0.1066
   80MOL0     C10677   5.393   1.894  10.138 -0.6157 -0.4113 -0.0521
   80MOL0     C10678   5.458   2.025  10.103 -0.2316  0.4592 -0.5175
   80MOL0     C10679   5.542   2.070  10.229 -0.8810 -0.1200 -0.4478
   80MOL0     C10680   5.618   2.197  10.177  0.5099 -0.4351 -0.3076
   80MOL0     C10681   5.747   2.165  10.101  0.2645  0.3637  0.2738
   80MOL0     N10682   5.826   2.282  10.050  1.0593 -0.2159 -0.4418
   80MOL0     C10683   5.958   2.291  10.058 -0.2214 -0.6176 -0.6093
   80MOL0     C10684   5.981   2.410   9.996 -1.1159  0.5508 -1.0049
   80MOL0     C10685   6.118   2.478   9.978  0.1615 -0.8627  0.1836
   80MOL0     C10686   6.119   2.627   9.931 -0.2707  0.2980 -0.0576
   80MOL0     C10687   6.245   2.693   9.960 -0.2514 -0.0426  0.4658
   80MOL0     C10688   6.362   2.689   9.853  0.1868 -0.7083  0.0316
   80MOL0     O10689   6.317   2.745   9.728 -0.4602 -0.1720  0.0494
   80MOL0     C10690   6.405   2.783   9.633  0.0680  0.4645  0.3348
   80MOL0     C10691   6.364   2.886   9.554  0.8132  0.4341  0.1719
   80MOL0     C10692   6.433   2.919   9.440 -0.7407  0.2568  1.0689
   80MOL0     C10693   6.558   2.854   9.400  1.4071  0.6282  0.6145
   80MOL0     C10694   6.640   2.895   9.275  0.2805  0.2873 -0.0314
   80MOL0     O10695   6.755   2.831   9.234 -0.6032 -0.0469 -1.0312
   80MOL0     C10696   6.856   2.891   9.159 -0.5048  0.4050 -0.6250
   80MOL0     C10697   6.947   2.807   9.098 -0.9750 -1.0032 -0.1815
   80MOL0     C10698   7.041   2.856   9.004 -0.0395 -0.7668 -0.2121
   80MOL0     C10699   7.043   2.994   8.989  0.6662 -0.3608 -0.5131
   80MOL0     O10700   7.120   3.045   8.892 -0.2995  0.2345 -0.8535
   80MOL0     C10701   7.253   3.086   8.923 -0.0507 -0.2837  0.1815
   80MOL0     C10702   7.348   2.980   8.862  0.0686 -0.5250 -0.8659
   80MOL0     C10703   7.490   3.042   8.870 -0.4300  0.5630 -1.0348
   80MOL0     C10704   7.593   2.961   8.773 -0.1163  0.1529 -0.2258
   80MOL0     C10705   7.734   3.010   8.777 -1.1924 -0.3912 -0.4686
   80MOL0     C10706   7.839   2.913   8.729 -0.3087 -0.3849 -0.3292
   80MOL0     C10707   7.975   2.975   8.720  0.2319 -0.4504  0.4395
   80MOL0     C10708   8.050   3.015   8.847  0.3707 -0.8932  0.1277
   80MOL0    Cl10709   8.211   3.057   8.788 -0.3347  0.3356  0.0564
   80MOL0     C10710   6.955   3.081   9.064  0.3259  0.3437  0.7527
   80MOL0     C10711   6.858   3.032   9.143 -0.2371  0.0412  0.4059
   80MOL0     O10712   6.591   2.984   9.218  1.0132  0.0567  0.3463
   80MOL0     C10713   6.598   2.744   9.474  0.4583  1.0216  0.1943
   80MOL0     C10714   6.515   2.707   9.590  0.1365  0.2182 -0.1813
   80MOL0     N10715   5.869   2.467   9.952  0.3378  0.5231  0.2678
   80MOL0     N10716   5.779   2.390   9.987 -0.6208 -0.2708  0.4145
   80MOL0     C10717   5.778   1.664  10.338 -0.1828  0.7385  0.7616
   80MOL0     C10718   5.865   1.646  10.451  0.4089 -0.5146 -0.2048
   80MOL0     C10719   6.075   1.509  10.815  0.0417 -0.0450  0.9188
   80MOL0     C10720   6.213   1.511  10.778 -0.4710  0.5130  0.1449
   80MOL0     C10721   6.314   1.508  10.875 -0.1163 -1.0184  0.0977
   80MOL0     C10722   6.290   1.512  11.007 -0.0618  0.7781 -0.3234
   80MOL0     O10723   6.395   1.506  11.093 -1.0322 -0.5660 -0.0004
   80MOL0     C10724   6.464   1.633  11.109 -0.3910  0.3882 -1.1503
   80MOL0     C10725   6.596   1.597  11.179  0.4628  0.8310 -0.7944
   80MOL0     C10726   6.692   1.544  11.077  0.2892  1.1039 -0.2832
   80MOL0     C10727   6.832   1.546  11.133 -0.5322 -0.0756 -0.0755
   80MOL0     C10728   6.907   1.674  11.123 -0.1374  0.2038 -0.6323
   80MOL0     C10729   6.982   1.770  11.126 -0.3301  0.5525 -0.4613
   80MOL0     C10730   6.159   1.504  11.051 -0.3730  0.1023 -0.2106
   80MOL0     C10731   6.046   1.488  10.959 -0.4344 -0.6366 -0.6892
   80MOL0     C10732   5.904   1.474  11.015  0.2530  0.6380 -0.7684
   80MOL0     H10733   5.915   1.318  10.424  0.7061 -0.2023  1.6106
   80MOL0     H10734   5.763   1.335  10.244  4.0908  0.2522 -2.9621
   80MOL0     H10735   5.464   1.501  10.226 -0.6658  1.6980  2.4637
   80MOL0     H10736   5.516   1.666  10.274  0.2576  0.9982 -0.9418
   80MOL0     H10737   5.321   1.638  10.115 -0.6223 -1.0359 -2.6612
   80MOL0     H10738   5.437   1.573  10.004  1.2982 -2.2477  1.2367
   80MOL0     H10739   5.410   1.814   9.952 -2.4520 -1.7032  0.5393
   80MOL0     H10740   5.561   1.800  10.052  0.7655 -2.1729  2.1475
   80MOL0     H10741   5.284   1.899  10.125 -0.9882 -4.4478  0.4182
   80MOL0     H10742   5.410   1.872  10.243 -0.0476  1.9311  0.3974
   80MOL0     H10743   5.521   2.015  10.014 -0.5809  1.4519 -0.8914
   80MOL0     H10744   5.383   2.102  10.087  2.2833  3.4356  1.0106
   80MOL0     H10745   5.482   2.105  10.314  1.5770  2.3939  0.4121
   80MOL0     H10746   5.607   1.989  10.262 -1.4537 -0.5094 -0.2670
   80MOL0     H10747   5.640   2.244  10.273  1.1141  0.7888 -1.0356
   80MOL0     H10748   5.545   2.261  10.126 -2.7482 -2.2661  1.7099
   80MOL0     H10749   5.797   2.109  10.180 -3.6433 -2.3912  1.1303
   80MOL0     H10750   5.731   2.098  10.015  2.4213 -2.3911  1.8403
   80MOL0     H10751   6.042   2.234  10.096  1.9133  2.5308 -0.2896
   80MOL0     H10752   6.163   2.471  10.078 -0.2159 -2.4450  0.2682
   80MOL0     H10753   6.164   2.426   9.894  0.8538 -0.2418  0.1615
   80MOL0     H10754   6.087   2.618   9.826  2.1653 -1.1076 -0.7664
   80MOL0     H10755   6.038   2.681   9.980 -0.1530  1.7127 -1.3419
   80MOL0     H10756   6.285   2.660  10.057  1.6009  1.1538  0.1616
   80MOL0     H10757   6.216   2.798   9.966 -0.5251 -0.2000  2.8169
   80MOL0     H10758   6.396   2.585   9.841  1.7192 -0.2067 -0.2697
   80MOL0     H10759   6.451   2.737   9.894 -0.6204  2.1222 -1.2873
   80MOL0     H10760   6.280   2.948   9.584  0.0307 -0.6337  0.2242
   80MOL0     H10761   6.387   2.987   9.369 -0.3818 -0.7760 -0.1937
   80MOL0     H10762   6.937   2.699   9.093  2.0864 -1.3952  0.5509
   80MOL0     H10763   7.114   2.794   8.953 -0.6570  0.2687 -2.4765
   80MOL0     H10764   7.279   3.185   8.883 -0.3442  0.4222  1.6711
   80MOL0     H10765   7.254   3.082   9.032  0.6457  0.4318  0.2097
   80MOL0     H10766   7.362   2.894   8.929  0.1637  0.8692  0.9588
   80MOL0     H10767   7.321   2.959   8.758  0.9827 -1.2940 -0.9702
   80MOL0     H10768   7.498   3.144   8.830  1.2837  1.2275  0.8409
   80MOL0     H10769   7.532   3.049   8.970 -2.6782  1.4194 -0.0996
   80MOL0     H10770   7.548   2.957   8.673 -1.6961 -2.4658  0.4795
   80MOL0     H10771   7.604   2.861   8.815  1.0547  1.7997  3.9148
   80MOL0     H10772   7.767   3.040   8.877  2.0697 -2.5377 -0.7345
   80MOL0     H10773   7.733   3.101   8.715 -4.1763  0.2746  0.4368
   80MOL0     H10774   7.836   2.831   8.802  1.1904 -0.6814 -0.5647
   80MOL0     H10775   7.821   2.882   8.626  1.9727  1.0472 -1.2294
   80MOL0     H10776   7.961   3.072   8.673  0.4176 -0.3466  0.6002
   80MOL0     H10777   8.045   2.916   8.660  0.9004  0.3004  0.4749
   80MOL0     H10778   7.999   3.099   8.896 -2.9290 -2.7674  0.2786
   80MOL0     H10779   8.050   2.943   8.930 -1.4966 -0.1076  0.8764
   80MOL0     H10780   6.962   3.188   9.078 -2.0582  0.2070  4.5443
   80MOL0     H10781   6.793   3.105   9.190 -1.5127 -0.2920 -0.7641
   80MOL0     H10782   6.684   2.680   9.457 -1.3831 -1.7736  0.7103
   80MOL0     H10783   6.547   2.619   9.646 -1.1459 -0.9716 -1.2575
   80MOL0     H10784   5.758   1.769  10.315 -0.1740  1.2884  3.0493
   80MOL0     H10785   5.911   1.726  10.509  1.3931  0.3750 -2.1182
   80MOL0     H10786   6.252   1.496  10.678  0.4955 -3.2974  0.9136
   80MOL0     H10787   6.417   1.520  10.843 -0.4770  1.3811 -0.3558
   80MOL0     H10788   6.409   1.708  11.166  1.1446 -0.1113  1.1383
   80MOL0     H10789   6.487   1.679  11.013  1.1615 -0.6173 -1.2867
   80MOL0     H10790   6.574   1.520  11.253  0.1640  0.4831 -1.2412
   80MOL0     H10791   6.638   1.689  11.221 -2.9639  1.3935  1.8595
   80MOL0     H10792   6.684   1.599  10.983 -1.7972 -2.7813 -2.5937
   80MOL0     H10793   6.666   1.440  11.054 -0.2968  1.7947 -3.1308
   80MOL0     H10794   6.825   1.529  11.241  2.5590  1.6830  0.5024
   80MOL0     H10795   6.886   1.475  11.069 -2.5436 -0.9019 -0.9524
   80MOL0     H10796   7.057   1.846  11.114  0.1847  0.2462  0.6466
   80MOL0     H10797   6.144   1.494  11.158  1.3932 -0.1783  0.0353
   80MOL0     H10798   5.842   1.564  11.004  2.0493  1.8950 -1.1269
   80MOL0     H10799   5.852   1.388  10.973  1.1561  0.2975 -1.2219
   80MOL0     H10800   5.902   1.444  11.120 -2.0925 -0.9679 -1.2019
   81MOL0     O10801   3.387   0.737   0.241  0.8089 -0.2665 -0.0504
   81MOL0     C10802   3.392   0.645   0.321  0.1085  0.9428  0.3832
   81MOL0     O10803   3.500   0.604   0.392 -0.2633 -0.1314 -0.5439
   81MOL0     C10804   3.617   0.675   0.379  0.1363  0.5160  0.3169
   81MOL0     C10805   3.627   0.804   0.415  0.4816 -0.0784  0.0212
   81MOL0     C10806   3.744   0.888   0.400 -0.0359  0.1650 -0.2170
   81MOL0     C10807   3.854   0.826   0.340  0.4956 -0.7212  0.3358
   81MOL0     O10808   3.967   0.908   0.315  0.0518 -0.1825 -0.0366
   81MOL0     C10809   4.081   0.853   0.253  0.0564  0.6699  0.8862
   81MOL0     C10810   4.177   0.966   0.215 -0.5950 -0.6268  0.1717
   81MOL0     C10811   4.321   0.922   0.170 -0.0780  0.2973 -0.1247
   81MOL0     C10812   4.389   0.811   0.261 -0.1469 -0.0647  0.6524
   81MOL0     C10813   4.528   0.762   0.222 -0.6074 -0.0412  0.4233
   81MOL0     C10814   4.645   0.858   0.256 -1.2349 -1.1981  0.7169
   81MOL0     C10815   4.732   0.804   0.363  0.8014  0.2030  0.3568
   81MOL0     C10816   4.850   0.893   0.389 -0.2162  0.6364 -0.1680
   81MOL0     N10817   4.954   0.873   0.291  0.1340  0.6542  0.7546
   81MOL0     C10818   5.003   0.754   0.237  0.3167 -0.0241 -0.1444
   81MOL0     C10819   5.090   0.795   0.147 -0.0721 -0.0587 -0.2407
   81MOL0     C10820   5.132   0.700   0.036  0.7944 -0.1391 -0.3794
   81MOL0     C10821   5.292   0.692   0.028 -0.0863 -0.4062 -0.3087
   81MOL0     C10822   5.358   0.801  -0.055 -0.4450  0.3994  0.6813
   81MOL0     C10823   5.507   0.794  -0.103  0.5871 -0.2750 -0.2081
   81MOL0     O10824   5.604   0.757   0.004 -0.0595  0.1849  0.2405
   81MOL0     C10825   5.734   0.747  -0.032  0.4101 -0.2012 -0.6772
   81MOL0     C10826   5.790   0.726  -0.162 -0.4794 -0.1972 -0.6431
   81MOL0     C10827   5.925   0.726  -0.185  1.2295 -0.3019  0.0206
   81MOL0     C10828   6.016   0.732  -0.076  0.2781  0.4228  0.3507
   81MOL0     C10829   6.153   0.734  -0.104 -0.2771 -0.2729 -0.1768
   81MOL0     O10830   6.185   0.752  -0.236 -0.3636 -0.3008 -0.7733
   81MOL0     C10831   6.311   0.764  -0.296  0.4181 -0.7980 -0.2828
   81MOL0     C10832   6.428   0.737  -0.231 -1.6792  0.6824  0.6615
   81MOL0     C10833   6.549   0.774  -0.290  0.0194  0.2476  0.9208
   81MOL0     C10834   6.551   0.819  -0.419 -0.2163  0.7833  0.0094
   81MOL0     O10835   6.672   0.831  -0.480 -0.4784  0.1542  0.0075
   81MOL0     C10836   6.689   0.811  -0.620  0.9730 -1.0290  0.9573
   81MOL0     C10837   6.842   0.821  -0.650 -0.0958 -0.3437  0.2733
   81MOL0     C10838   6.872   0.967  -0.677  0.4083  0.4526 -0.0554
   81MOL0     C10839   7.019   1.001  -0.675  0.5026 -0.5798  0.3586
   81MOL0     C10840   7.116   0.916  -0.765 -0.1098  0.1079 -0.8943
   81MOL0     C10841   7.090   0.936  -0.912  0.0534 -0.1334  0.3278
   81MOL0     C10842   7.188   0.868  -1.005  0.4013 -0.3319 -0.4584
   81MOL0     C10843   7.117   0.818  -1.133 -0.2875 -0.6100 -0.1473
   81MOL0    Cl10844   7.070   0.953  -1.238 -0.0358  0.0623  0.6731
   81MOL0     C10845   6.428   0.841  -0.488  0.3003  0.3817  0.3821
   81MOL0     C10846   6.310   0.808  -0.423  0.8642 -0.1358 -0.3493
   81MOL0     O10847   6.227   0.699  -0.018  0.0844  0.4023 -0.6090
   81MOL0     C10848   5.962   0.723   0.054 -0.6980  0.0722  0.4100
   81MOL0     C10849   5.828   0.733   0.076  0.0658 -0.2156 -0.4468
   81MOL0     N10850   5.105   0.932   0.150  0.2941  1.4674 -0.5856
   81MOL0     N10851   5.026   0.976   0.245 -0.5900  0.3232 -0.0865
   81MOL0     C10852   3.850   0.694   0.310 -0.3440  0.8320 -0.7026
   81MOL0     C10853   3.734   0.616   0.333 -0.6159  0.2395  0.0582
   81MOL0     C10854   3.279   0.551   0.326 -0.1600 -0.9060  0.5003
   81MOL0     C10855   3.308   0.414   0.361 -0.7195 -0.2677  0.2169
   81MOL0     C10856   3.215   0.322   0.368  0.6896  0.3608  0.2494
   81MOL0     C10857   3.077   0.361   0.354  0.2398 -0.0201  0.1868
   81MOL0     O10858   2.971   0.280   0.390  0.2928  0.6781 -0.6684
   81MOL0     C10859   2.989   0.161   0.463 -0.3374 -0.8646  0.0281
   81MOL0     C10860   3.010   0.207   0.602  0.1574 -0.0819  0.8626
   81MOL0     C10861   2.881   0.268   0.656  0.4505 -0.6813  0.1022
   81MOL0     C10862   2.869   0.237   0.811 -0.2141  0.2466  0.4055
   81MOL0     C10863   2.853   0.347   0.905 -0.7637  0.2061 -0.2109
   81MOL0     C10864   2.887   0.439   0.979  0.8785  1.0013  0.3261
   81MOL0     C10865   3.043   0.491   0.317 -0.4875 -0.5864  0.3540
   81MOL0     C10866   3.144   0.593   0.313 -0.2404  1.0730 -0.3040
   81MOL0     C10867   3.106   0.737   0.290  1.2865  0.4429 -0.2376
   81MOL0     H10868   3.538   0.849   0.459  1.0268  0.7923  0.2501
   81MOL0     H10869   3.746   0.992   0.431  1.8532  0.7786 -2.1228
   81MOL0     H10870   4.129   0.797   0.334  2.7474 -0.2100 -1.1989
   81MOL0     H10871   4.054   0.802   0.160 -2.0361  4.0995 -0.5860
   81MOL0     H10872   4.193   1.022   0.308  1.3689 -0.8424  0.0022
   81MOL0     H10873   4.125   1.029   0.143  0.6063 -2.5418 -2.5317
   81MOL0     H10874   4.392   1.005   0.169 -0.8880  1.0013 -0.0952
   81MOL0     H10875   4.298   0.874   0.075 -3.0117  1.2443  0.0314
   81MOL0     H10876   4.399   0.837   0.367 -2.0331  0.5309  0.7138
   81MOL0     H10877   4.330   0.720   0.270  1.0753 -0.7932  1.6065
   81MOL0     H10878   4.544   0.669   0.276 -2.1806  0.6525  2.1980
   81MOL0     H10879   4.528   0.729   0.118 -1.2057 -2.2783  1.0951
   81MOL0     H10880   4.695   0.884   0.162  1.4652  1.3132  2.6722
   81MOL0     H10881   4.601   0.953   0.287  1.1435 -0.4955  2.1787
   81MOL0     H10882   4.755   0.701   0.333 -0.4576 -0.2989  1.0506
   81MOL0     H10883   4.668   0.798   0.451 -1.0977  3.0048 -0.6786
   81MOL0     H10884   4.821   0.996   0.408 -2.0547  0.6869 -2.6163
   81MOL0     H10885   4.894   0.859   0.483  2.5682  1.3370 -1.1163
   81MOL0     H10886   4.956   0.657   0.247 -2.7365  1.5469  3.0478
   81MOL0     H10887   5.093   0.601   0.057 -0.5890  0.5798  0.5655
   81MOL0     H10888   5.093   0.744  -0.057 -1.3653 -0.6885  0.2309
   81MOL0     H10889   5.342   0.697   0.125 -3.4818  3.1084  1.5379
   81MOL0     H10890   5.318   0.599  -0.023 -0.0137  0.1418 -1.2989
   81MOL0     H10891   5.361   0.876   0.025  1.0350  1.0891  0.0098
   81MOL0     H10892   5.282   0.837  -0.124  0.3461  1.4688  0.3510
   81MOL0     H10893   5.529   0.893  -0.145 -0.7925  0.2992  0.3798
   81MOL0     H10894   5.514   0.725  -0.188  0.8517 -1.1885  0.5374
   81MOL0     H10895   5.734   0.693  -0.249 -1.1086  3.2884 -1.7241
   81MOL0     H10896   5.967   0.706  -0.283  0.0483  1.1107 -0.8086
   81MOL0     H10897   6.433   0.706  -0.127  2.5002  0.4596  0.5700
   81MOL0     H10898   6.644   0.764  -0.239 -0.8187 -1.6125  2.2126
   81MOL0     H10899   6.648   0.718  -0.661 -0.7118 -0.9620  2.3726
   81MOL0     H10900   6.638   0.890  -0.677 -0.5527 -2.1221  0.7430
   81MOL0     H10901   6.900   0.795  -0.562  0.2494 -0.9396 -0.1277
   81MOL0     H10902   6.868   0.759  -0.736  2.4363  0.2143  0.5819
   81MOL0     H10903   6.844   0.997  -0.779  0.5226 -1.5801 -0.7178
   81MOL0     H10904   6.822   1.034  -0.606  1.9646  0.8500  0.7039
   81MOL0     H10905   7.055   1.020  -0.574  0.8790  1.2640 -0.0712
   81MOL0     H10906   7.025   1.105  -0.709 -0.4839 -1.1890 -1.8619
   81MOL0     H10907   7.106   0.808  -0.750 -2.0223  0.2871 -0.7140
   81MOL0     H10908   7.219   0.928  -0.728 -0.0828 -1.0180 -0.5545
   81MOL0     H10909   6.988   0.914  -0.947  0.6037  0.8639 -2.0271
   81MOL0     H10910   7.096   1.043  -0.933 -0.5430 -0.5744 -2.3759
   81MOL0     H10911   7.243   0.790  -0.951  0.1476 -1.1677 -1.3860
   81MOL0     H10912   7.273   0.935  -1.026 -0.4104  1.6075  1.9386
   81MOL0     H10913   7.192   0.772  -1.197  0.5463 -2.9590  2.3449
   81MOL0     H10914   7.033   0.748  -1.121 -0.6177 -0.4356 -1.3374
   81MOL0     H10915   6.423   0.874  -0.591  1.3198  0.2439  0.2760
   81MOL0     H10916   6.216   0.831  -0.472  0.2926  1.4895  1.3976
   81MOL0     H10917   6.010   0.719   0.151 -2.2706  1.5862  1.3196
   81MOL0     H10918   5.793   0.731   0.178  1.6882 -1.4241  0.1205
   81MOL0     H10919   3.929   0.643   0.257 -1.2335 -0.2163 -1.0595
   81MOL0     H10920   3.744   0.516   0.293  0.2735  0.3193  0.0417
   81MOL0     H10921   3.409   0.379   0.382 -0.3040  0.3354 -0.7068
   81MOL0     H10922   3.243   0.218   0.380  4.1377  0.5441 -3.6686
   81MOL0     H10923   3.077   0.105   0.429 -0.4666 -0.9549 -0.1607
   81MOL0     H10924   2.904   0.093   0.449 -1.4217 -0.0019  1.9961
   81MOL0     H10925   3.086   0.286   0.601 -2.1010  2.2667 -0.7446
   81MOL0     H10926   3.048   0.123   0.661  0.4181 -0.0618  0.7259
   81MOL0     H10927   2.797   0.223   0.602  1.6234 -1.7369 -0.9084
   81MOL0     H10928   2.879   0.376   0.637 -2.3870 -0.4848  1.1548
   81MOL0     H10929   2.787   0.165   0.819 -1.3505  1.4505  0.0003
   81MOL0     H10930   2.956   0.181   0.846  0.0618  1.3662  1.5956
   81MOL0     H10931   2.941   0.513   1.035  0.6958  0.4440  1.2609
   81MOL0     H10932   2.942   0.524   0.291 -0.4685  0.2798  1.3204
   81MOL0     H10933   3.164   0.776   0.206  3.8268  2.3143  2.1894
   81MOL0     H10934   2.998   0.745   0.276  1.1725  2.5030  1.3667
   81MOL0     H10935   3.128   0.794   0.381 -1.0009 -2.3269  2.2420
   82MOL0     O10936   4.677   1.079  11.433 -0.3891  1.0528 -0.8140
   82MOL0     C10937   4.689   1.143  11.329 -0.1072 -0.2246 -0.8518
   82MOL0     O10938   4.596   1.168  11.237  0.7870 -0.2508 -0.4775
   82MOL0     C10939   4.480   1.110  11.215  0.5501 -0.4301  0.0332
   82MOL0     C10940   4.408   1.016  11.288  0.1124  0.3657  1.2855
   82MOL0     C10941   4.283   0.973  11.230  0.1532 -0.1861 -0.7461
   82MOL0     C10942   4.240   1.020  11.113  0.5312 -0.5394 -0.1591
   82MOL0     O10943   4.125   0.959  11.061  0.1788  0.4167  0.1674
   82MOL0     C10944   4.021   1.033  10.988  0.5496  0.4261 -0.1128
   82MOL0     C10945   3.882   1.020  11.050 -0.1458 -0.1022 -1.0046
   82MOL0     C10946   3.791   1.102  10.973 -0.7661  0.9359 -0.6289
   82MOL0     C10947   3.651   1.089  11.018  0.0555  0.3437  0.4411
   82MOL0     C10948   3.549   1.168  10.931 -0.1755 -0.5418  0.6465
   82MOL0     C10949   3.404   1.155  10.979 -0.6459  0.8350 -0.4675
   82MOL0     C10950   3.318   1.225  10.879 -0.1791 -0.6986 -0.1706
   82MOL0     C10951   3.175   1.249  10.899  0.1330 -0.2491  0.6681
   82MOL0     N10952   3.102   1.270  10.779 -0.3000  0.6941 -0.6179
   82MOL0     C10953   3.145   1.232  10.651  0.3917 -0.3544 -0.0115
   82MOL0     C10954   3.065   1.310  10.574 -0.2510  0.2912 -0.4286
   82MOL0     C10955   3.069   1.299  10.424 -0.2846  0.3904  0.8864
   82MOL0     C10956   3.076   1.445  10.364 -0.0834 -0.3787  0.0311
   82MOL0     C10957   3.212   1.524  10.375 -0.0588 -0.6242  0.5003
   82MOL0     C10958   3.283   1.512  10.515 -0.0525 -0.2960 -0.7610
   82MOL0     O10959   3.404   1.585  10.507 -0.8570  0.3022  0.9237
   82MOL0     C10960   3.485   1.588  10.623  0.4756  0.2671 -0.0815
   82MOL0     C10961   3.437   1.597  10.751 -0.1175 -1.0262  0.0910
   82MOL0     C10962   3.525   1.564  10.857  0.4708  0.8584  0.5755
   82MOL0     C10963   3.661   1.539  10.837  0.2781  0.1540  0.8233
   82MOL0     C10964   3.761   1.530  10.943  0.1905  0.5978 -0.5394
   82MOL0     O10965   3.890   1.551  10.901 -0.0221  0.2533 -0.0884
   82MOL0     C10966   3.977   1.545  11.008  0.5696 -0.3457  0.0580
   82MOL0     C10967   4.069   1.649  11.015 -0.3333 -0.6375  0.1790
   82MOL0     C10968   4.163   1.656  11.122 -0.6127 -0.0548 -0.2121
   82MOL0     C10969   4.184   1.552  11.209  0.6143  0.4257 -0.2895
   82MOL0     O10970   4.287   1.539  11.304 -0.1143 -0.2446 -0.2012
   82MOL0     C10971   4.338   1.664  11.352  0.0883  0.5513  0.3193
   82MOL0     C10972   4.466   1.692  11.276  1.2535 -0.0225  0.1240
   82MOL0     C10973   4.573   1.593  11.331  1.2029 -0.6846  0.3142
   82MOL0     C10974   4.695   1.620  11.254 -0.6699  0.0013 -0.3060
   82MOL0     C10975   4.771   1.751  11.286  0.7304  0.2723  0.2683
   82MOL0     C10976   4.898   1.748  11.203 -0.3780 -0.2004 -0.4381
   82MOL0     C10977   4.878   1.780  11.056  1.2450  0.0823 -0.5852
   82MOL0     C10978   5.007   1.846  11.003  0.0467 -0.8944 -0.3440
   82MOL0    Cl10979   4.980   1.887  10.825  0.0435  0.0182 -0.0858
   82MOL0     C10980   4.096   1.442  11.192  0.3778  0.4168  0.4872
   82MOL0     C10981   3.994   1.439  11.095  0.2839  0.3261  0.1518
   82MOL0     O10982   3.725   1.516  11.056  0.6896  0.4492 -0.5956
   82MOL0     C10983   3.708   1.538  10.703  0.0024  0.0612 -0.2936
   82MOL0     C10984   3.621   1.566  10.599 -0.2632 -0.0257  0.0867
   82MOL0     N10985   2.982   1.387  10.651  1.0911 -0.1949  0.1381
   82MOL0     N10986   3.002   1.361  10.775 -0.9042 -0.6964  0.6292
   82MOL0     C10987   4.312   1.119  11.040 -0.3801 -0.3980  0.7243
   82MOL0     C10988   4.427   1.165  11.099  0.8752 -0.1374  0.8471
   82MOL0     C10989   4.820   1.216  11.301  1.0601 -0.0078  0.2341
   82MOL0     C10990   4.842   1.263  11.173 -0.2429 -0.5273 -0.4055
   82MOL0     C10991   4.964   1.345  11.140 -0.0367 -0.3361  0.2380
   82MOL0     C10992   5.056   1.366  11.234 -0.2505 -0.3175 -0.5411
   82MOL0     O10993   5.180   1.423  11.218 -0.4890  0.2515  0.0074
   82MOL0     C10994   5.212   1.486  11.094 -0.0165 -0.0560  0.0016
   82MOL0     C10995   5.296   1.400  11.013  0.1052  0.9511  0.2200
   82MOL0     C10996   5.434   1.376  11.082 -0.4574  0.4873  0.1767
   82MOL0     C10997   5.521   1.267  11.015 -1.1178  0.1995 -0.0318
   82MOL0     C10998   5.560   1.316  10.885  0.3632  0.3535 -0.2036
   82MOL0     C10999   5.582   1.356  10.773  0.1062 -0.0263 -0.0315
   82MOL0     C11000   5.038   1.302  11.358 -1.1114 -0.2757  0.4683
   82MOL0     C11001   4.921   1.237  11.400 -0.0001  0.3933 -1.1862
   82MOL0     C11002   4.903   1.209  11.549  0.3304 -0.0965 -0.1212
   82MOL0     H11003   4.461   0.967  11.369  0.8220  0.7286  1.0494
   82MOL0     H11004   4.233   0.904  11.298  1.7522  0.9374  1.7306
   82MOL0     H11005   4.038   1.140  10.981 -2.2650  0.8742 -1.5557
   82MOL0     H11006   4.017   0.991  10.887  0.1705  1.6676 -0.6345
   82MOL0     H11007   3.885   1.057  11.153  2.1418 -0.2576 -0.9531
   82MOL0     H11008   3.848   0.916  11.053 -2.2499  0.5381  1.2477
   82MOL0     H11009   3.783   1.066  10.870  1.3047 -0.2560 -0.4253
   82MOL0     H11010   3.821   1.207  10.967 -1.0246  1.0581  0.1156
   82MOL0     H11011   3.634   0.981  11.015  0.0832  0.3021  1.4779
   82MOL0     H11012   3.630   1.114  11.123  0.6687 -2.2304  1.2455
   82MOL0     H11013   3.559   1.276  10.942 -2.5051 -0.2285  0.3331
   82MOL0     H11014   3.559   1.138  10.826  2.8432 -0.3800  0.8152
   82MOL0     H11015   3.378   1.049  10.972 -0.3137  0.8494 -2.5797
   82MOL0     H11016   3.395   1.193  11.082  0.0809  2.8800 -1.1186
   82MOL0     H11017   3.325   1.161  10.791  0.2039 -1.6767  0.5415
   82MOL0     H11018   3.363   1.315  10.838  0.9987 -1.5502 -0.8068
   82MOL0     H11019   3.128   1.167  10.955 -0.5299 -1.0534 -0.9949
   82MOL0     H11020   3.174   1.340  10.960  0.7898  0.6106 -0.5354
   82MOL0     H11021   3.205   1.148  10.619  1.0753 -0.7010  2.0160
   82MOL0     H11022   3.156   1.243  10.390  0.3024  0.9580  1.4382
   82MOL0     H11023   2.983   1.238  10.393 -0.6790  0.4351  1.8632
   82MOL0     H11024   3.060   1.440  10.256 -1.4969 -0.0322  0.1990
   82MOL0     H11025   3.004   1.513  10.411  2.3235  2.0390  0.4995
   82MOL0     H11026   3.203   1.629  10.345  3.3160 -1.2978 -4.1553
   82MOL0     H11027   3.289   1.490  10.304  0.2518  1.6761 -0.3412
   82MOL0     H11028   3.301   1.406  10.533  2.5746 -0.2485 -2.5587
   82MOL0     H11029   3.210   1.545  10.590 -0.0259  0.5069 -1.0798
   82MOL0     H11030   3.332   1.622  10.763  0.3309  0.4059  1.1652
   82MOL0     H11031   3.478   1.577  10.954  0.5312  2.2506  0.4377
   82MOL0     H11032   4.074   1.717  10.930 -2.0430 -1.2046 -0.4195
   82MOL0     H11033   4.227   1.744  11.116  0.2411 -0.7297 -3.5531
   82MOL0     H11034   4.264   1.744  11.344  3.0534  3.5139  0.3103
   82MOL0     H11035   4.369   1.655  11.457  0.7588 -3.9275 -0.0389
   82MOL0     H11036   4.448   1.685  11.169  1.1867  0.4906  0.1020
   82MOL0     H11037   4.497   1.794  11.298 -0.3410  0.4650  0.2619
   82MOL0     H11038   4.585   1.598  11.439 -1.5791  0.3336  0.6679
   82MOL0     H11039   4.541   1.491  11.305  0.3659 -0.4762  0.4841
   82MOL0     H11040   4.672   1.614  11.147  1.6212  0.1194 -0.8556
   82MOL0     H11041   4.768   1.540  11.269 -2.0395 -1.8705 -2.7827
   82MOL0     H11042   4.808   1.745  11.389  0.6205 -3.7784  0.2041
   82MOL0     H11043   4.717   1.846  11.278 -0.3692 -0.3791 -0.3107
   82MOL0     H11044   4.960   1.829  11.243 -2.3997  1.8097 -1.1333
   82MOL0     H11045   4.948   1.652  11.218  1.4163  0.2814 -2.7325
   82MOL0     H11046   4.801   1.855  11.039  2.1374  1.3845  0.8736
   82MOL0     H11047   4.846   1.700  10.988  0.9753 -1.3924  1.1916
   82MOL0     H11048   5.030   1.939  11.055  2.2572 -2.9943  2.8420
   82MOL0     H11049   5.095   1.782  11.012  0.3371 -0.5267 -0.5255
   82MOL0     H11050   4.101   1.363  11.266  5.0632  1.7354  1.9138
   82MOL0     H11051   3.929   1.352  11.097  1.7427 -0.8165  2.1044
   82MOL0     H11052   3.813   1.521  10.685 -0.3307 -0.4705 -1.9323
   82MOL0     H11053   3.667   1.553  10.502 -0.7732  2.7102 -0.6025
   82MOL0     H11054   4.295   1.146  10.937  3.6394 -3.7950 -1.1491
   82MOL0     H11055   4.473   1.248  11.047 -1.4338  0.9121  0.3587
   82MOL0     H11056   4.767   1.242  11.098 -2.5195 -2.3032  2.1795
   82MOL0     H11057   4.961   1.388  11.040 -2.9785  0.3497  0.5263
   82MOL0     H11058   5.259   1.584  11.112 -0.1623  0.7663 -3.3291
   82MOL0     H11059   5.118   1.514  11.047 -0.7396 -0.7147  1.0305
   82MOL0     H11060   5.309   1.460  10.923 -0.9045  2.2156  0.8937
   82MOL0     H11061   5.239   1.309  10.993  1.3919  0.3055 -0.6139
   82MOL0     H11062   5.411   1.340  11.182  3.7278  0.1862  1.2127
   82MOL0     H11063   5.487   1.471  11.091 -1.2421  1.0123 -0.5404
   82MOL0     H11064   5.605   1.257  11.085 -1.2915  1.1660  0.3270
   82MOL0     H11065   5.468   1.172  11.005  1.9042 -1.4288 -2.3337
   82MOL0     H11066   5.631   1.386  10.682 -2.2208  4.1793 -0.1322
   82MOL0     H11067   5.120   1.327  11.424  1.7315 -1.4095 -2.4292
   82MOL0     H11068   4.888   1.101  11.554  1.4495 -0.3512 -1.4926
   82MOL0     H11069   5.000   1.223  11.598  0.3633 -2.4222  0.5952
   82MOL0     H11070   4.816   1.253  11.598 -0.7139 -0.9153 -1.1737
   83MOL0     O11071   2.050   6.539   1.514 -1.0245  0.1574 -0.0921
   83MOL0     C11072   2.085   6.467   1.424 -0.4746 -0.2561  0.5153
   83MOL0     O11073   2.068   6.330   1.437  0.5060  0.0309  0.8117
   83MOL0     C11074   2.014   6.271   1.549  0.4456 -0.0019  0.7890
   83MOL0     C11075   1.878   6.241   1.556  0.2728  0.4218 -0.3532
   83MOL0     C11076   1.814   6.175   1.667 -0.0239  0.8801 -0.4753
   83MOL0     C11077   1.900   6.126   1.764 -1.2672  0.2964 -0.7604
   83MOL0     O11078   1.836   6.069   1.880 -0.1014 -0.3303  0.2732
   83MOL0     C11079   1.916   6.036   1.985 -0.4004  0.0573  0.7721
   83MOL0     C11080   1.964   5.893   1.974  0.1663  1.1045 -0.5825
   83MOL0     C11081   1.906   5.807   2.083  0.5524 -0.9480  0.4199
   83MOL0     C11082   1.932   5.658   2.048  0.1201 -0.9576  0.7122
   83MOL0     C11083   1.814   5.597   1.964  1.0539  0.0914  0.1573
   83MOL0     C11084   1.806   5.444   1.974  0.0520  0.6277 -0.1069
   83MOL0     C11085   1.668   5.398   1.920 -0.1502  0.5544 -0.6750
   83MOL0     C11086   1.583   5.310   2.010  0.4341 -0.7403  0.8453
   83MOL0     N11087   1.565   5.376   2.143 -0.0262  0.2756 -0.2287
   83MOL0     C11088   1.512   5.496   2.146 -0.1452  0.4635  0.4102
   83MOL0     C11089   1.505   5.523   2.279 -0.0526  1.0130 -0.4731
   83MOL0     C11090   1.447   5.636   2.342 -0.0284  0.5311 -0.4609
   83MOL0     C11091   1.469   5.768   2.262 -0.0747 -0.3756 -0.4633
   83MOL0     C11092   1.601   5.852   2.287  0.4914 -0.9566  0.8609
   83MOL0     C11093   1.610   5.971   2.198 -0.8342  0.0384 -0.2408
   83MOL0     O11094   1.501   6.057   2.224 -0.1720  0.1742 -0.4599
   83MOL0     C11095   1.512   6.171   2.307  0.0162 -0.1087 -1.1739
   83MOL0     C11096   1.624   6.230   2.359  0.1444 -0.8389  0.0865
   83MOL0     C11097   1.617   6.344   2.436 -0.1027  0.9444 -0.2214
   83MOL0     C11098   1.495   6.411   2.457 -0.4878 -0.4980  0.7546
   83MOL0     C11099   1.485   6.536   2.542 -0.0298  0.2748  0.0204
   83MOL0     O11100   1.603   6.600   2.578  0.2472  0.3886  0.5466
   83MOL0     C11101   1.595   6.737   2.596 -0.0840 -0.1977 -0.1050
   83MOL0     C11102   1.486   6.809   2.664 -0.0893 -0.5269 -0.7495
   83MOL0     C11103   1.493   6.949   2.686 -0.5050 -0.2339 -0.8592
   83MOL0     C11104   1.613   7.021   2.651 -0.4909  0.4331  0.3747
   83MOL0     O11105   1.630   7.152   2.680  0.2626  0.4305 -0.4858
   83MOL0     C11106   1.522   7.244   2.709 -1.0810  0.2783  0.2087
   83MOL0     C11107   1.601   7.370   2.738 -0.3414  0.3225  0.0855
   83MOL0     C11108   1.702   7.356   2.847  0.1989  0.4161  0.3002
   83MOL0     C11109   1.753   7.491   2.887  0.5554 -0.0383  0.2707
   83MOL0     C11110   1.849   7.478   3.003 -0.0252  1.6358  0.5001
   83MOL0     C11111   1.980   7.412   2.947 -0.6624 -0.5800  0.0937
   83MOL0     C11112   2.103   7.458   3.039  0.6669 -0.5351 -0.5253
   83MOL0     C11113   2.179   7.588   3.017  0.3382  0.2712  0.4802
   83MOL0    Cl11114   2.224   7.602   2.840 -0.3305  0.1826 -0.0350
   83MOL0     C11115   1.710   6.953   2.580 -0.1528 -0.4494  0.1940
   83MOL0     C11116   1.702   6.820   2.556 -0.1032  0.5940  0.1911
   83MOL0     O11117   1.368   6.565   2.577  0.2474 -0.4438  0.0034
   83MOL0     C11118   1.381   6.351   2.401  1.1223 -0.2240  0.5866
   83MOL0     C11119   1.393   6.234   2.321  0.7294  1.0867 -0.4856
   83MOL0     N11120   1.554   5.420   2.352 -0.1201  0.3415 -0.2116
   83MOL0     N11121   1.595   5.333   2.267  0.5468  0.3831 -0.2812
   83MOL0     C11122   2.037   6.148   1.757  0.9180 -0.3427  0.1580
   83MOL0     C11123   2.092   6.221   1.647 -0.2995  0.9228 -0.3326
   83MOL0     C11124   2.159   6.509   1.304 -0.4754 -0.3555 -0.2189
   83MOL0     C11125   2.141   6.431   1.192 -0.5295 -0.2186 -0.5395
   83MOL0     C11126   2.173   6.474   1.062  0.3324 -0.7096 -0.2036
   83MOL0     C11127   2.242   6.595   1.046 -0.3106 -0.3940  0.3970
   83MOL0     O11128   2.279   6.650   0.925 -0.2244  0.3132 -0.1424
   83MOL0     C11129   2.287   6.556   0.809 -0.2391  0.6751 -0.0915
   83MOL0     C11130   2.362   6.619   0.691 -0.0148  0.6655 -0.9301
   83MOL0     C11131   2.497   6.679   0.711 -1.3991  0.2531 -0.0960
   83MOL0     C11132   2.550   6.769   0.598  0.6418 -0.2439  0.9948
   83MOL0     C11133   2.589   6.698   0.474  0.2746  0.9938  0.2081
   83MOL0     C11134   2.629   6.627   0.379 -0.1678  0.1776 -0.3712
   83MOL0     C11135   2.266   6.660   1.163 -0.4212 -0.3473 -0.6975
   83MOL0     C11136   2.234   6.629   1.294  0.0674  0.0406  0.4882
   83MOL0     C11137   2.275   6.720   1.408  0.1269  0.2205  0.3722
   83MOL0     H11138   1.823   6.274   1.469 -3.0803  0.2410  1.5055
   83MOL0     H11139   1.712   6.139   1.664  0.2805 -0.0977  0.3843
   83MOL0     H11140   1.999   6.106   1.999 -0.5575  0.0097  2.1063
   83MOL0     H11141   1.863   6.035   2.081 -1.4339 -0.3004  0.2135
   83MOL0     H11142   2.069   5.875   2.001 -0.5501  0.2999  1.9209
   83MOL0     H11143   1.953   5.843   1.878 -1.5074 -0.5362  0.3995
   83MOL0     H11144   1.798   5.822   2.090  0.8988  1.3821  1.9923
   83MOL0     H11145   1.946   5.834   2.181  2.6847 -3.5975  0.3920
   83MOL0     H11146   2.026   5.649   1.992 -0.8563  0.3155 -1.2729
   83MOL0     H11147   1.938   5.595   2.137  1.7521 -1.9786 -0.0606
   83MOL0     H11148   1.721   5.644   1.996  1.8905  1.5881  0.4781
   83MOL0     H11149   1.821   5.619   1.858  1.3924  2.4946  0.6363
   83MOL0     H11150   1.880   5.410   1.901  1.7765 -0.3017  1.9773
   83MOL0     H11151   1.822   5.410   2.077 -1.4671  3.6473  1.2645
   83MOL0     H11152   1.686   5.334   1.834 -2.3433 -0.3071 -0.5698
   83MOL0     H11153   1.607   5.482   1.887  1.2180  0.4302 -3.8630
   83MOL0     H11154   1.491   5.293   1.954 -1.8614  1.7975  3.4972
   83MOL0     H11155   1.627   5.212   2.033 -0.4673 -1.0130  1.4256
   83MOL0     H11156   1.484   5.560   2.062 -2.0526  0.2432  0.8405
   83MOL0     H11157   1.341   5.609   2.348  0.2893 -0.5774  0.5366
   83MOL0     H11158   1.475   5.640   2.448 -1.9802 -0.0423  0.1261
   83MOL0     H11159   1.477   5.744   2.156  1.1633 -1.0138 -0.2403
   83MOL0     H11160   1.381   5.831   2.278  0.3666  0.2662 -0.5387
   83MOL0     H11161   1.698   5.803   2.275  1.9418  1.9646 -0.3868
   83MOL0     H11162   1.592   5.885   2.391 -0.6536 -0.1950  0.5443
   83MOL0     H11163   1.606   5.934   2.095  2.1216  0.1934 -0.4995
   83MOL0     H11164   1.709   6.011   2.222 -0.9138  0.6790 -0.9340
   83MOL0     H11165   1.726   6.192   2.353  0.7789  0.8637 -0.6798
   83MOL0     H11166   1.708   6.383   2.482 -0.3304 -0.4860  1.5389
   83MOL0     H11167   1.393   6.767   2.702 -1.0413  3.4368  1.9759
   83MOL0     H11168   1.414   7.003   2.737 -0.1425 -0.7307  0.2522
   83MOL0     H11169   1.451   7.252   2.626  0.2663  3.6003 -0.8111
   83MOL0     H11170   1.458   7.235   2.797 -1.1524  1.7188  0.3330
   83MOL0     H11171   1.662   7.389   2.649  1.0000 -1.9948  0.4014
   83MOL0     H11172   1.528   7.448   2.759  1.7081  2.8266 -1.4522
   83MOL0     H11173   1.653   7.312   2.934  0.4808 -1.6981 -0.5714
   83MOL0     H11174   1.781   7.288   2.816 -0.9806 -0.6152 -0.5360
   83MOL0     H11175   1.668   7.554   2.916  1.7600  0.3252  3.2974
   83MOL0     H11176   1.803   7.545   2.806  0.7798  0.5252  0.7784
   83MOL0     H11177   1.803   7.415   3.079 -1.0694 -0.8938 -2.0966
   83MOL0     H11178   1.860   7.574   3.055 -1.8392  0.1016  4.1060
   83MOL0     H11179   1.986   7.303   2.940  1.7238 -0.4219 -1.4961
   83MOL0     H11180   1.994   7.468   2.854 -0.7086  0.7988  0.8873
   83MOL0     H11181   2.173   7.374   3.028 -1.0240 -1.8105 -2.2399
   83MOL0     H11182   2.067   7.445   3.142 -1.4428 -3.9572 -1.5313
   83MOL0     H11183   2.118   7.673   3.046 -0.7991 -0.9044  1.6663
   83MOL0     H11184   2.274   7.589   3.071  0.9918 -0.7993 -0.5853
   83MOL0     H11185   1.792   7.017   2.549  0.1846 -1.1513 -0.3645
   83MOL0     H11186   1.788   6.776   2.506 -1.7202 -2.2679 -0.2682
   83MOL0     H11187   1.282   6.394   2.396  2.0534  2.0335  0.7447
   83MOL0     H11188   1.315   6.185   2.264  0.7410  1.1190 -0.5295
   83MOL0     H11189   2.111   6.128   1.834  2.4142  0.4313 -1.0180
   83MOL0     H11190   2.201   6.221   1.648 -0.1395 -3.0957 -0.4693
   83MOL0     H11191   2.101   6.331   1.191 -0.9166 -0.0705 -0.2054
   83MOL0     H11192   2.149   6.417   0.973 -0.0519 -0.7236 -0.0944
   83MOL0     H11193   2.187   6.528   0.776  0.9026  1.5465 -5.0348
   83MOL0     H11194   2.340   6.465   0.837 -0.4609 -0.6444 -3.4758
   83MOL0     H11195   2.296   6.690   0.640 -1.4642 -0.2211 -0.3534
   83MOL0     H11196   2.361   6.525   0.636 -1.0926 -0.4086  0.8372
   83MOL0     H11197   2.568   6.596   0.723 -0.1195  1.4212  0.7684
   83MOL0     H11198   2.497   6.742   0.801  1.6552  0.1522  0.1076
   83MOL0     H11199   2.467   6.836   0.575 -3.3499 -5.0181 -0.0829
   83MOL0     H11200   2.632   6.822   0.648 -0.0915  2.8350 -0.8046
   83MOL0     H11201   2.676   6.568   0.304  1.2953  1.0557 -0.1766
   83MOL0     H11202   2.316   6.753   1.142 -2.9318  0.9226 -1.4613
   83MOL0     H11203   2.371   6.767   1.385 -0.6086  1.0994 -1.0966
   83MOL0     H11204   2.206   6.805   1.417 -0.2699  0.0676 -0.9802
   83MOL0     H11205   2.284   6.666   1.503  1.1650  0.1200  0.2256
   84MOL0     O11206   2.072   8.219   1.447  0.5610 -0.7826 -0.7562
   84MOL0     C11207   1.979   8.160   1.507  0.1014 -0.1459 -0.3001
   84MOL0     O11208   1.994   8.069   1.617  0.6261 -0.9422  0.7076
   84MOL0     C11209   2.121   8.052   1.661  0.4357 -0.5279  0.1398
   84MOL0     C11210   2.162   7.926   1.694  1.0757 -0.1003 -1.1019
   84MOL0     C11211   2.281   7.895   1.755 -0.2858 -0.4121 -0.1120
   84MOL0     C11212   2.373   7.999   1.768  0.5937 -0.3970 -0.0944
   84MOL0     O11213   2.507   7.989   1.812 -0.3578 -0.4614 -0.1557
   84MOL0     C11214   2.519   7.912   1.927  0.9855 -0.0429 -0.0775
   84MOL0     C11215   2.669   7.890   1.947  0.5599  0.3042 -0.0292
   84MOL0     C11216   2.703   7.836   2.089  0.1989  0.3859 -0.5372
   84MOL0     C11217   2.836   7.752   2.104  0.1992 -0.0680  0.0093
   84MOL0     C11218   2.958   7.844   2.063  0.6368  0.9019 -0.2155
   84MOL0     C11219   3.088   7.766   2.084  0.2107 -0.2205 -0.4917
   84MOL0     C11220   3.211   7.858   2.076  0.3511 -0.1154 -0.3689
   84MOL0     C11221   3.339   7.786   2.133  0.8758  0.6088 -0.2515
   84MOL0     N11222   3.455   7.883   2.153 -0.1609 -0.0922  0.8667
   84MOL0     C11223   3.455   8.004   2.201  0.4255 -0.3166  0.2987
   84MOL0     C11224   3.577   8.049   2.210 -0.1160 -0.7050  0.2586
   84MOL0     C11225   3.622   8.186   2.245 -0.0796 -0.7340 -0.7896
   84MOL0     C11226   3.765   8.209   2.299 -0.4983  0.6444  0.2119
   84MOL0     C11227   3.877   8.205   2.193  0.2342  0.7012  0.0021
   84MOL0     C11228   3.898   8.345   2.136 -0.6424 -0.2762 -0.4583
   84MOL0     O11229   3.989   8.347   2.021  0.2989  0.6855  0.5299
   84MOL0     C11230   3.966   8.468   1.962  0.1907  0.8907  0.0177
   84MOL0     C11231   3.882   8.500   1.856 -0.1119  0.7330 -0.1630
   84MOL0     C11232   3.890   8.630   1.793  0.3057 -0.6263 -0.2746
   84MOL0     C11233   3.968   8.732   1.846 -0.0932 -0.3919  0.3953
   84MOL0     C11234   3.954   8.879   1.790  0.4330  0.0903 -0.1166
   84MOL0     O11235   4.001   8.971   1.874  0.0047  0.4809 -0.0637
   84MOL0     C11236   3.948   9.099   1.868 -0.5171 -0.0828 -0.0255
   84MOL0     C11237   3.856   9.140   1.962  0.9188 -0.7567  0.1428
   84MOL0     C11238   3.787   9.261   1.952 -0.5295  0.3349  0.3246
   84MOL0     C11239   3.799   9.343   1.843 -0.8788 -0.1902  0.3695
   84MOL0     O11240   3.721   9.455   1.838  0.4381 -0.1803 -0.2433
   84MOL0     C11241   3.664   9.521   1.727  0.9385  0.1226 -0.3630
   84MOL0     C11242   3.736   9.644   1.692 -0.3674 -0.1753 -0.4428
   84MOL0     C11243   3.675   9.701   1.565  0.2379 -0.4263 -0.2555
   84MOL0     C11244   3.522   9.738   1.583 -0.1394 -0.8738 -0.1623
   84MOL0     C11245   3.478   9.836   1.471  0.0343  0.1802 -0.7795
   84MOL0     C11246   3.335   9.892   1.500  0.0667  0.5287 -0.0489
   84MOL0     C11247   3.222   9.798   1.465  0.2001 -0.1589  0.8603
   84MOL0     C11248   3.083   9.828   1.513 -0.0330  0.0077 -0.2459
   84MOL0    Cl11249   3.066  10.008   1.517 -0.3039 -0.6388 -0.3627
   84MOL0     C11250   3.892   9.305   1.743  0.1260 -0.3279 -0.1873
   84MOL0     C11251   3.970   9.187   1.760 -0.7507  0.1449  0.4190
   84MOL0     O11252   3.898   8.908   1.684  0.1120  0.1819  0.3742
   84MOL0     C11253   4.053   8.701   1.947 -0.5011  0.4321  0.8316
   84MOL0     C11254   4.053   8.570   2.005  0.0663  0.6230 -0.2667
   84MOL0     N11255   3.660   7.942   2.177  0.3738  0.0671 -0.5404
   84MOL0     N11256   3.585   7.837   2.152  0.2752  0.3852 -0.4819
   84MOL0     C11257   2.337   8.130   1.742  0.7242  0.7269 -0.0031
   84MOL0     C11258   2.206   8.156   1.688 -0.3300 -0.9244 -0.2371
   84MOL0     C11259   1.847   8.157   1.432 -0.4960  0.6280  0.4349
   84MOL0     C11260   1.810   8.255   1.341  0.4074  0.5252  0.8375
   84MOL0     C11261   1.682   8.258   1.277 -0.2237 -0.2629 -0.2075
   84MOL0     C11262   1.593   8.155   1.298  0.4842 -0.6076  0.4762
   84MOL0     O11263   1.472   8.136   1.235 -0.3101 -0.9477 -0.3781
   84MOL0     C11264   1.398   8.253   1.211 -0.6106  0.3112 -0.3154
   84MOL0     C11265   1.288   8.273   1.312 -0.2263 -0.6507  0.1443
   84MOL0     C11266   1.194   8.162   1.313 -0.4153  0.0064  0.0973
   84MOL0     C11267   1.059   8.202   1.375  0.6126 -0.4288 -0.2289
   84MOL0     C11268   1.061   8.242   1.513 -0.5683 -0.0913  0.2588
   84MOL0     C11269   1.043   8.287   1.629  0.8970  0.1168 -0.0553
   84MOL0     C11270   1.630   8.054   1.383  1.3790 -1.2898  0.9969
   84MOL0     C11271   1.754   8.052   1.447 -0.5446  0.7932  0.8182
   84MOL0     C11272   1.779   7.925   1.534  1.3338  0.3944 -0.1541
   84MOL0     H11273   2.101   7.844   1.655  2.3096 -1.7096  0.1974
   84MOL0     H11274   2.314   7.794   1.775  1.4033  0.3503  1.1601
   84MOL0     H11275   2.482   7.955   2.021 -0.3441 -1.3875  0.0579
   84MOL0     H11276   2.463   7.819   1.914  1.5292 -0.2465 -1.0939
   84MOL0     H11277   2.724   7.983   1.926  1.6665 -0.6070 -1.3851
   84MOL0     H11278   2.705   7.813   1.878  0.6212 -1.5809  1.9810
   84MOL0     H11279   2.630   7.756   2.105  0.5992  0.5303  2.7840
   84MOL0     H11280   2.692   7.906   2.172  1.3579 -0.3496  0.2667
   84MOL0     H11281   2.841   7.722   2.209 -2.7321 -1.3407 -0.1185
   84MOL0     H11282   2.831   7.666   2.036  1.2759 -0.8166  0.8307
   84MOL0     H11283   2.950   7.866   1.956  0.7905 -1.8675 -0.8665
   84MOL0     H11284   2.960   7.943   2.108  2.5839  0.3123  1.1458
   84MOL0     H11285   3.089   7.723   2.185  3.1078 -0.8324 -0.6980
   84MOL0     H11286   3.101   7.685   2.011 -0.3348 -0.9609  0.2141
   84MOL0     H11287   3.191   7.954   2.125 -0.0656 -0.7680  0.7690
   84MOL0     H11288   3.233   7.883   1.971  0.0648  1.6926 -0.0243
   84MOL0     H11289   3.307   7.742   2.228  0.6613 -0.6083 -0.8802
   84MOL0     H11290   3.366   7.706   2.063 -2.9921  0.7046 -2.0700
   84MOL0     H11291   3.359   8.055   2.198  0.7366  0.2665  0.2748
   84MOL0     H11292   3.612   8.257   2.162  2.1726  0.3868 -0.2094
   84MOL0     H11293   3.562   8.216   2.331  1.1070 -2.3208  0.6773
   84MOL0     H11294   3.778   8.302   2.355 -1.7897  0.5463  0.7205
   84MOL0     H11295   3.789   8.141   2.382  2.1424  2.3166  0.9486
   84MOL0     H11296   3.862   8.134   2.112  0.1816 -0.8068  1.3033
   84MOL0     H11297   3.978   8.192   2.233 -0.5177  2.8398  2.9631
   84MOL0     H11298   3.944   8.400   2.219 -2.5552  0.4343  0.1821
   84MOL0     H11299   3.800   8.392   2.123  0.8645  2.7574 -2.2194
   84MOL0     H11300   3.819   8.419   1.821  0.5036  0.4602 -0.6644
   84MOL0     H11301   3.810   8.647   1.721 -0.2074 -2.0805 -0.0879
   84MOL0     H11302   3.848   9.078   2.051 -1.1830  0.8257  1.1460
   84MOL0     H11303   3.725   9.276   2.040  1.0953  1.5445  1.3038
   84MOL0     H11304   3.658   9.452   1.642 -0.5411 -1.4016  0.9007
   84MOL0     H11305   3.561   9.543   1.758  1.0073  0.0466 -0.0830
   84MOL0     H11306   3.717   9.716   1.772  0.3452 -1.3445  0.8282
   84MOL0     H11307   3.842   9.624   1.671  0.3411  3.4815 -1.0506
   84MOL0     H11308   3.732   9.789   1.534  0.2193 -0.1038  0.5915
   84MOL0     H11309   3.680   9.628   1.484  3.9022 -0.2659 -0.3474
   84MOL0     H11310   3.513   9.798   1.674  0.6614  0.4872 -0.9437
   84MOL0     H11311   3.467   9.643   1.590  0.2877 -1.0369  1.3072
   84MOL0     H11312   3.479   9.792   1.371  0.2334 -0.8480 -0.3398
   84MOL0     H11313   3.539   9.926   1.474  0.3639 -0.0081 -1.6460
   84MOL0     H11314   3.334   9.906   1.608 -0.5004 -2.8069  0.4544
   84MOL0     H11315   3.321   9.991   1.455 -0.5960  0.1641 -0.6719
   84MOL0     H11316   3.257   9.699   1.498  0.6966 -0.2798  0.0223
   84MOL0     H11317   3.223   9.801   1.356  0.1734  1.5482  0.8843
   84MOL0     H11318   3.020   9.786   1.434 -0.6879 -0.0782  0.3132
   84MOL0     H11319   3.074   9.781   1.611  3.6509  1.6133  1.0259
   84MOL0     H11320   3.896   9.364   1.651  0.4205 -1.5798 -0.9926
   84MOL0     H11321   4.045   9.155   1.688  2.7410  0.2034  3.6575
   84MOL0     H11322   4.123   8.779   1.975  0.9662  1.5202 -4.6191
   84MOL0     H11323   4.127   8.538   2.077 -0.0508 -0.2727 -0.5407
   84MOL0     H11324   2.399   8.217   1.765  0.9769  1.1780 -2.2136
   84MOL0     H11325   2.187   8.261   1.668  0.1796 -1.0378 -1.4013
   84MOL0     H11326   1.886   8.331   1.327 -1.6969  2.7568  0.6777
   84MOL0     H11327   1.640   8.331   1.209 -0.1460 -1.1076 -1.2009
   84MOL0     H11328   1.353   8.250   1.111  3.5843 -1.0499 -2.4086
   84MOL0     H11329   1.463   8.340   1.222  2.1054 -1.7574  1.3383
   84MOL0     H11330   1.241   8.370   1.292  1.9376  0.0785 -1.9338
   84MOL0     H11331   1.332   8.275   1.412 -1.7020 -0.6964  0.8193
   84MOL0     H11332   1.228   8.067   1.356 -0.3239 -0.0734 -0.1492
   84MOL0     H11333   1.164   8.133   1.212 -0.5569  0.0600  0.1226
   84MOL0     H11334   1.024   8.286   1.314  0.5665 -0.2405  0.0556
   84MOL0     H11335   0.978   8.129   1.374 -0.2402  0.4988 -0.0966
   84MOL0     H11336   1.013   8.339   1.717 -1.5055 -1.2452  0.0183
   84MOL0     H11337   1.550   7.983   1.401  0.3225 -1.8554 -4.3794
   84MOL0     H11338   1.700   7.857   1.500  1.3700  0.4384 -0.3307
   84MOL0     H11339   1.874   7.878   1.507  0.3074 -1.2806 -1.0647
   84MOL0     H11340   1.759   7.949   1.638  3.7438  0.6888  0.3028
   85MOL0     O11341   4.303   1.365   9.602 -0.3320  0.2598 -0.9300
   85MOL0     C11342   4.401   1.361   9.677 -1.3692 -0.8413  0.2731
   85MOL0     O11343   4.461   1.468   9.734 -0.1654  0.8520 -0.6093
   85MOL0     C11344   4.402   1.592   9.736  0.6290 -0.4444  0.0028
   85MOL0     C11345   4.306   1.631   9.830  1.1596  0.1574  0.7227
   85MOL0     C11346   4.260   1.765   9.825 -0.7213 -0.7869  0.7152
   85MOL0     C11347   4.286   1.845   9.718 -0.3207  0.2322  0.3143
   85MOL0     O11348   4.215   1.958   9.709  0.5586  0.8696  0.4257
   85MOL0     C11349   4.285   2.082   9.710  0.5753  0.8729  0.2580
   85MOL0     C11350   4.186   2.186   9.760 -0.1970 -0.1521 -0.2381
   85MOL0     C11351   4.051   2.199   9.683  0.2279 -0.6477 -0.6424
   85MOL0     C11352   3.970   2.317   9.738 -0.7307 -0.3446 -0.6462
   85MOL0     C11353   3.835   2.312   9.684  1.0443 -0.5870 -0.0694
   85MOL0     C11354   3.835   2.376   9.545  0.7490  0.5781 -0.4475
   85MOL0     C11355   3.700   2.414   9.495 -0.1323  0.2439 -0.1890
   85MOL0     C11356   3.597   2.299   9.477  0.6340 -0.6904 -0.7563
   85MOL0     N11357   3.644   2.199   9.382  0.5497  0.1606  0.2939
   85MOL0     C11358   3.677   2.078   9.413  0.4489  1.3234  0.4143
   85MOL0     C11359   3.723   2.035   9.290 -0.3157  0.3917 -1.1620
   85MOL0     C11360   3.814   1.919   9.269  0.5634 -0.2811 -0.1119
   85MOL0     C11361   3.948   1.898   9.346  0.3198  0.4046 -0.1207
   85MOL0     C11362   4.053   1.979   9.284  0.2423 -0.4708  1.0749
   85MOL0     C11363   4.186   1.915   9.270 -0.5109  0.2917 -0.3333
   85MOL0     O11364   4.197   1.802   9.183 -0.3953  0.0135  0.0603
   85MOL0     C11365   4.323   1.738   9.169 -0.1885 -0.4095  0.6061
   85MOL0     C11366   4.431   1.755   9.253  0.6348 -0.3879  0.4522
   85MOL0     C11367   4.551   1.686   9.245  0.1732  0.0686  0.7638
   85MOL0     C11368   4.567   1.594   9.141  0.8449 -0.3912 -0.2107
   85MOL0     C11369   4.689   1.508   9.137  1.2888  0.5531  0.4890
   85MOL0     O11370   4.785   1.531   9.228  0.4546  0.1696  0.3014
   85MOL0     C11371   4.913   1.477   9.222 -0.5151 -0.1751 -1.3811
   85MOL0     C11372   4.965   1.430   9.099  0.0855 -0.3308 -0.9619
   85MOL0     C11373   5.099   1.381   9.097  1.0250  0.5011  0.4254
   85MOL0     C11374   5.175   1.377   9.215  0.4344  0.9475  0.1224
   85MOL0     O11375   5.288   1.296   9.211 -0.0992 -0.0154 -0.3221
   85MOL0     C11376   5.369   1.277   9.330 -0.4462 -1.1710 -0.9183
   85MOL0     C11377   5.443   1.147   9.317  0.3522 -0.0113  0.5540
   85MOL0     C11378   5.343   1.025   9.334 -0.8639 -1.3478 -0.2920
   85MOL0     C11379   5.406   0.888   9.296 -0.0506 -0.5264 -0.0298
   85MOL0     C11380   5.320   0.766   9.337  0.4351 -1.0178  0.5600
   85MOL0     C11381   5.385   0.628   9.315  0.3912 -0.5878  0.4119
   85MOL0     C11382   5.437   0.621   9.173  0.5028  0.0333  0.4224
   85MOL0     C11383   5.506   0.498   9.139 -0.8953 -0.4381 -0.2248
   85MOL0    Cl11384   5.394   0.359   9.134 -0.5876  0.9941  0.0304
   85MOL0     C11385   5.129   1.447   9.327 -0.1077  0.6637  0.0861
   85MOL0     C11386   4.998   1.496   9.336 -0.3341  0.1943 -0.0152
   85MOL0     O11387   4.676   1.403   9.069  1.0992  0.3231  0.3953
   85MOL0     C11388   4.461   1.576   9.050 -0.2466 -0.0117  0.2085
   85MOL0     C11389   4.337   1.643   9.071  0.7680  0.2076  0.0864
   85MOL0     N11390   3.699   2.128   9.188 -0.2666  0.1189 -0.6318
   85MOL0     N11391   3.638   2.223   9.247 -0.1935  0.9002 -0.6024
   85MOL0     C11392   4.385   1.803   9.626  0.2928  0.7204 -0.3275
   85MOL0     C11393   4.450   1.682   9.638  0.0995  0.2835 -0.3220
   85MOL0     C11394   4.462   1.230   9.723  0.3221 -0.5429  0.2903
   85MOL0     C11395   4.595   1.225   9.769 -0.9470  0.0444 -0.0037
   85MOL0     C11396   4.646   1.112   9.829 -0.0911 -0.2643 -0.3183
   85MOL0     C11397   4.575   0.990   9.830 -0.3616  0.3156 -1.1405
   85MOL0     O11398   4.633   0.871   9.869  0.6567  0.4160  0.1228
   85MOL0     C11399   4.560   0.748   9.849 -0.5737  1.0762  0.4531
   85MOL0     C11400   4.657   0.629   9.874  0.2381 -0.4242 -0.3209
   85MOL0     C11401   4.681   0.616  10.029 -0.1157  0.4694  0.7722
   85MOL0     C11402   4.755   0.483  10.059 -0.4041  0.2853 -0.3219
   85MOL0     C11403   4.765   0.463  10.203 -1.1261 -0.7651  0.2008
   85MOL0     C11404   4.794   0.438  10.316  0.2442 -0.1101 -0.4578
   85MOL0     C11405   4.441   1.000   9.796 -0.0484  0.6860  0.3775
   85MOL0     C11406   4.380   1.110   9.744 -0.2614 -0.6452  0.3837
   85MOL0     C11407   4.229   1.103   9.705 -0.2195 -0.1230 -1.1749
   85MOL0     H11408   4.278   1.570   9.915 -0.2831 -2.1623 -1.2732
   85MOL0     H11409   4.192   1.788   9.907  0.1203  0.6688  1.0285
   85MOL0     H11410   4.375   2.080   9.773  0.4836  5.6957  0.9633
   85MOL0     H11411   4.323   2.099   9.608  1.0930  0.8017  0.4355
   85MOL0     H11412   4.235   2.283   9.776 -2.1181  0.5949  1.7463
   85MOL0     H11413   4.161   2.161   9.863  1.0952  1.6415  0.5679
   85MOL0     H11414   4.011   2.099   9.703  1.8807 -1.5353 -1.5200
   85MOL0     H11415   4.062   2.219   9.576 -2.2048  1.1787 -0.6246
   85MOL0     H11416   3.971   2.302   9.847 -0.7596  1.8214 -0.2844
   85MOL0     H11417   4.014   2.415   9.717  1.3571 -1.6207 -2.6477
   85MOL0     H11418   3.802   2.208   9.687  1.7608 -0.7985  1.2920
   85MOL0     H11419   3.767   2.372   9.744  0.9524  0.6068 -1.3067
   85MOL0     H11420   3.880   2.475   9.551  1.5882  0.1900 -0.2523
   85MOL0     H11421   3.888   2.314   9.472  1.0907  0.7055 -0.3041
   85MOL0     H11422   3.724   2.467   9.403 -0.0069 -0.0832 -0.3457
   85MOL0     H11423   3.658   2.491   9.560 -0.5821  1.0392 -1.3963
   85MOL0     H11424   3.573   2.253   9.573  0.9872  2.6969  1.1203
   85MOL0     H11425   3.503   2.340   9.439  0.0165 -3.2739 -2.2610
   85MOL0     H11426   3.688   2.020   9.504 -0.5048  1.4529  0.6288
   85MOL0     H11427   3.755   1.829   9.290  1.8596 -1.2890 -0.6325
   85MOL0     H11428   3.830   1.903   9.162  0.6764 -1.5338  0.0784
   85MOL0     H11429   3.956   1.901   9.455  0.3681 -4.3451  0.2338
   85MOL0     H11430   3.969   1.793   9.323 -1.6893 -0.2432  0.7657
   85MOL0     H11431   4.064   2.075   9.336 -0.2267 -0.1782  0.6378
   85MOL0     H11432   4.017   2.009   9.185  0.7122 -0.8963  0.7623
   85MOL0     H11433   4.208   1.871   9.368 -1.6323  1.1795  0.3485
   85MOL0     H11434   4.258   1.993   9.244 -0.7461 -0.0872 -2.2789
   85MOL0     H11435   4.426   1.829   9.333  1.7852 -0.3929  0.5379
   85MOL0     H11436   4.624   1.685   9.326  0.0315 -0.3001  0.8901
   85MOL0     H11437   4.904   1.420   9.009  0.8028  1.0582 -1.6221
   85MOL0     H11438   5.126   1.343   8.999 -1.1859  0.3751 -0.1965
   85MOL0     H11439   5.447   1.354   9.333  0.8927 -2.4676  2.3603
   85MOL0     H11440   5.308   1.278   9.421  2.1799 -1.6062  0.9581
   85MOL0     H11441   5.488   1.142   9.218  0.3279  4.1402  0.1962
   85MOL0     H11442   5.521   1.144   9.394 -0.1673  1.4066  1.1651
   85MOL0     H11443   5.310   1.008   9.437 -4.3274 -1.3489 -1.2775
   85MOL0     H11444   5.249   1.033   9.280  0.3224 -0.1293 -2.3311
   85MOL0     H11445   5.504   0.886   9.344  0.5203  1.5816 -0.9892
   85MOL0     H11446   5.426   0.893   9.188 -0.6244  0.7260 -0.1026
   85MOL0     H11447   5.225   0.779   9.285  1.2187 -3.6684 -1.7512
   85MOL0     H11448   5.293   0.761   9.443  3.0819 -1.7163  1.2764
   85MOL0     H11449   5.464   0.614   9.388  1.6740  4.4776  0.3222
   85MOL0     H11450   5.298   0.563   9.330 -2.6893  2.6585 -1.5635
   85MOL0     H11451   5.509   0.703   9.162  0.4785 -0.3084 -3.4210
   85MOL0     H11452   5.350   0.633   9.108 -0.0407  2.1196  1.4291
   85MOL0     H11453   5.553   0.516   9.042  0.8381  1.0733  0.8177
   85MOL0     H11454   5.599   0.486   9.195  0.1260 -0.0187 -1.7691
   85MOL0     H11455   5.199   1.457   9.409  1.1458 -2.9214 -0.3810
   85MOL0     H11456   4.957   1.552   9.420 -2.9000  0.1579 -1.1328
   85MOL0     H11457   4.467   1.504   8.969 -1.1238 -0.6641  0.7007
   85MOL0     H11458   4.261   1.601   9.005  0.1603  1.7576 -0.2622
   85MOL0     H11459   4.424   1.870   9.549  2.2880 -1.6488 -1.5446
   85MOL0     H11460   4.518   1.651   9.560 -0.2370 -2.5658  0.4240
   85MOL0     H11461   4.664   1.309   9.765 -0.3438 -0.1616  3.1620
   85MOL0     H11462   4.742   1.111   9.880 -0.0332 -0.9308 -0.4227
   85MOL0     H11463   4.537   0.725   9.745  4.1134 -2.3754 -0.1133
   85MOL0     H11464   4.471   0.747   9.914  0.3281  2.6867  1.8182
   85MOL0     H11465   4.748   0.643   9.815  1.3199  0.3063  1.4282
   85MOL0     H11466   4.630   0.533   9.829  1.0779 -0.3978 -0.9011
   85MOL0     H11467   4.577   0.599  10.058  0.6442 -1.4776  2.6984
   85MOL0     H11468   4.732   0.703  10.072 -1.6235  0.6193  2.3838
   85MOL0     H11469   4.724   0.389  10.012  0.8271 -0.6747  0.7238
   85MOL0     H11470   4.861   0.501  10.039 -1.1257  1.7156 -3.5792
   85MOL0     H11471   4.823   0.417  10.417 -4.2246  0.6037  1.2046
   85MOL0     H11472   4.369   0.920   9.808 -0.4286  1.1481  1.3210
   85MOL0     H11473   4.175   1.166   9.776  0.6874  0.5588 -1.0803
   85MOL0     H11474   4.204   1.137   9.604 -3.0415  0.1869 -0.4719
   85MOL0     H11475   4.189   1.002   9.720  0.7465 -0.3933 -0.2399
   86MOL0     O11476   9.737   6.939  10.751 -0.0693  0.5831  0.0109
   86MOL0     C11477   9.794   6.840  10.797 -0.0715  0.6295 -0.3392
   86MOL0     O11478   9.929   6.811  10.798  0.2440  0.1765 -0.1113
   86MOL0     C11479  10.006   6.892  10.719 -0.8441  0.4406 -0.0019
   86MOL0     C11480  10.087   6.994  10.758 -0.1626 -0.0515 -0.6433
   86MOL0     C11481  10.177   7.062  10.675 -0.2478  0.6862 -0.3146
   86MOL0     C11482  10.195   7.011  10.542 -0.4677 -0.0276  1.0047
   86MOL0     O11483  10.285   7.074  10.455  0.3861  1.0302  0.0305
   86MOL0     C11484  10.415   7.095  10.501 -0.2145 -0.1425 -0.9183
   86MOL0     C11485  10.518   7.077  10.387  0.2325  0.0385  0.0263
   86MOL0     C11486  10.649   7.135  10.420 -0.8538 -0.2376 -0.6491
   86MOL0     C11487  10.716   7.048  10.532  0.3487  1.0805 -0.8156
   86MOL0     C11488  10.805   6.944  10.463 -0.8320 -0.1309 -0.2005
   86MOL0     C11489  10.878   6.850  10.563 -0.1677 -0.1888  0.3600
   86MOL0     C11490  10.959   6.738  10.507 -0.0479 -0.0161 -0.6799
   86MOL0     C11491  10.854   6.636  10.457 -0.1962 -1.5087 -1.2046
   86MOL0     N11492  10.903   6.532  10.364 -0.1112 -0.4263 -0.7410
   86MOL0     C11493  10.933   6.569  10.241 -1.2922  0.0870  0.6384
   86MOL0     C11494  11.002   6.456  10.189 -0.5918  0.1541  1.2080
   86MOL0     C11495  11.062   6.449  10.048  0.5407 -0.8760 -0.1125
   86MOL0     C11496  11.209   6.413  10.066 -0.4334  0.3478 -0.0162
   86MOL0     C11497  11.312   6.526  10.095 -0.2994  0.0743  0.7970
   86MOL0     C11498  11.346   6.604   9.968  0.1093 -0.5118  0.7687
   86MOL0     O11499  11.453   6.697   9.992  0.0492 -0.5305  0.0518
   86MOL0     C11500  11.581   6.661   9.975  1.1340 -0.2660 -0.2944
   86MOL0     C11501  11.670   6.768   9.968 -0.4799 -0.0959 -0.3241
   86MOL0     C11502  11.805   6.756   9.932  0.1680  0.9045  0.2638
   86MOL0     C11503  11.860   6.622   9.917  1.0978 -0.6894  0.4841
   86MOL0     C11504  12.002   6.608   9.872  0.8393 -0.7554 -0.2810
   86MOL0     O11505  12.081   6.722   9.900 -0.2513  0.1562  0.0479
   86MOL0     C11506  12.213   6.705   9.889  0.3594 -0.1883  0.2273
   86MOL0     C11507  12.260   6.666   9.764  0.0172 -0.1223  0.2762
   86MOL0     C11508  12.399   6.659   9.737 -0.6124 -0.3711 -0.2039
   86MOL0     C11509  12.494   6.718   9.826 -0.1507 -0.1199 -0.5553
   86MOL0     O11510  12.629   6.728   9.808  0.2322  0.2254 -0.1350
   86MOL0     C11511  12.685   6.674   9.691  0.9735 -0.9527 -0.9113
   86MOL0     C11512  12.833   6.643   9.695  0.2691 -0.0354  1.0323
   86MOL0     C11513  12.873   6.537   9.580  0.6080 -0.4176  0.1250
   86MOL0     C11514  12.856   6.592   9.436  0.3695  0.1948  0.7133
   86MOL0     C11515  12.897   6.494   9.316 -0.3178 -0.0354  0.9462
   86MOL0     C11516  13.034   6.529   9.262 -0.1931  0.7105 -0.0962
   86MOL0     C11517  13.087   6.392   9.203  0.1358 -0.6702  0.0911
   86MOL0     C11518  13.206   6.407   9.099  0.8962 -0.2073 -0.3594
   86MOL0    Cl11519  13.331   6.481   9.194 -0.0367 -0.0710 -0.6374
   86MOL0     C11520  12.437   6.759   9.951 -0.3141 -0.9761 -0.8330
   86MOL0     C11521  12.302   6.752   9.983 -0.1250 -0.5736  0.6454
   86MOL0     O11522  12.043   6.495   9.834 -0.6259  0.0591  0.7677
   86MOL0     C11523  11.769   6.514   9.938 -1.2754 -0.5384  0.0774
   86MOL0     C11524  11.636   6.531   9.976 -0.3690  0.0841 -0.7928
   86MOL0     N11525  11.019   6.370  10.295 -0.6060 -0.7588 -1.0935
   86MOL0     N11526  10.946   6.412  10.397 -0.4573  0.5151 -0.0149
   86MOL0     C11527  10.110   6.915  10.495 -0.3731 -0.4334 -0.4561
   86MOL0     C11528  10.013   6.857  10.585  0.8549 -1.2359  0.5031
   86MOL0     C11529   9.710   6.748  10.885  1.0375 -0.1469 -0.1925
   86MOL0     C11530   9.762   6.697  11.006 -0.5018 -0.1665  0.6094
   86MOL0     C11531   9.694   6.603  11.086  0.0557  0.9178 -0.5369
   86MOL0     C11532   9.561   6.569  11.057  0.2538  0.6440 -0.6385
   86MOL0     O11533   9.481   6.498  11.143 -0.3177 -0.4522  0.8482
   86MOL0     C11534   9.550   6.399  11.218  0.4926 -0.2474 -0.3300
   86MOL0     C11535   9.456   6.326  11.313  0.5105  0.2112 -0.6566
   86MOL0     C11536   9.386   6.415  11.417 -0.3504 -0.4792  0.2265
   86MOL0     C11537   9.469   6.496  11.514 -0.6421 -0.1189  0.1556
   86MOL0     C11538   9.561   6.409  11.589 -0.4109 -0.0051 -0.0784
   86MOL0     C11539   9.619   6.346  11.677 -0.4499 -1.0419 -0.0266
   86MOL0     C11540   9.503   6.622  10.937 -1.0229  0.1432 -0.1844
   86MOL0     C11541   9.576   6.703  10.846 -0.5985 -0.8398  0.2087
   86MOL0     C11542   9.507   6.756  10.718  0.1477  0.5916 -0.1946
   86MOL0     H11543  10.088   7.029  10.861  1.7725 -0.6316 -0.4359
   86MOL0     H11544  10.220   7.152  10.716  1.6426 -0.3873  0.1673
   86MOL0     H11545  10.423   7.194  10.547 -3.7057  0.8901 -2.1965
   86MOL0     H11546  10.426   7.019  10.579 -0.1403  1.2551  0.4972
   86MOL0     H11547  10.480   7.130  10.299  1.2564  3.8690  1.6903
   86MOL0     H11548  10.532   6.969  10.374  1.5925  0.2833 -0.7346
   86MOL0     H11549  10.632   7.229  10.474  1.0978 -0.8715  1.1986
   86MOL0     H11550  10.714   7.153  10.334  1.5654  0.6133  1.2497
   86MOL0     H11551  10.763   7.120  10.600 -1.3328  2.5408 -1.1347
   86MOL0     H11552  10.638   7.000  10.591 -0.9249  3.0432 -0.8009
   86MOL0     H11553  10.745   6.887  10.391  1.2390 -0.1612 -2.0220
   86MOL0     H11554  10.886   6.998  10.413  3.9858 -5.4824  0.7912
   86MOL0     H11555  10.949   6.913  10.617 -0.3300  1.5071 -1.2803
   86MOL0     H11556  10.798   6.818  10.631 -3.1693  1.8681 -1.8851
   86MOL0     H11557  11.010   6.679  10.584 -0.9049 -0.3914 -0.3838
   86MOL0     H11558  11.037   6.776  10.441  2.4000 -1.0897  1.4074
   86MOL0     H11559  10.799   6.597  10.542  1.5980  2.7158  2.2879
   86MOL0     H11560  10.780   6.698  10.406  0.5414 -0.6822 -1.3065
   86MOL0     H11561  10.914   6.659  10.183  0.0467  0.6625  1.0440
   86MOL0     H11562  11.007   6.378   9.986 -0.1333  0.7249 -1.4053
   86MOL0     H11563  11.058   6.546   9.999  2.2686 -1.5848 -1.8027
   86MOL0     H11564  11.212   6.337  10.145 -0.5872 -1.3255 -1.5441
   86MOL0     H11565  11.246   6.350   9.984  4.1916  1.0256  1.2400
   86MOL0     H11566  11.401   6.474  10.131 -1.4240 -0.4713  2.9278
   86MOL0     H11567  11.270   6.588  10.175 -1.1243 -1.8213  1.8970
   86MOL0     H11568  11.260   6.657   9.925  0.7533 -1.3026 -1.6729
   86MOL0     H11569  11.373   6.534   9.888  1.6935  0.7499  0.1559
   86MOL0     H11570  11.620   6.863   9.985  0.8291  0.3799  1.1007
   86MOL0     H11571  11.877   6.836   9.929 -2.4648  3.4368  0.2582
   86MOL0     H11572  12.195   6.620   9.690  0.0667  0.3858 -0.0917
   86MOL0     H11573  12.424   6.615   9.640  0.2209  2.3270 -1.2904
   86MOL0     H11574  12.645   6.573   9.681 -0.0485 -0.6802  0.1563
   86MOL0     H11575  12.654   6.731   9.602 -1.3441 -0.7301 -0.0346
   86MOL0     H11576  12.896   6.733   9.692  3.5878 -1.8927  4.9868
   86MOL0     H11577  12.856   6.603   9.794 -2.2927  3.1432  3.1056
   86MOL0     H11578  12.981   6.523   9.591  0.6378 -2.9224 -2.2955
   86MOL0     H11579  12.814   6.447   9.599  0.2181 -0.0339  0.7602
   86MOL0     H11580  12.908   6.688   9.431  0.2028  0.3438  1.6925
   86MOL0     H11581  12.756   6.626   9.407  0.3973 -1.9620 -2.3718
   86MOL0     H11582  12.821   6.497   9.237 -1.3918 -3.0020  1.7279
   86MOL0     H11583  12.885   6.397   9.364 -2.6907  0.9279  2.4829
   86MOL0     H11584  13.030   6.594   9.174 -0.9668 -2.8256 -2.9095
   86MOL0     H11585  13.100   6.575   9.336  0.0004  1.2451 -0.5890
   86MOL0     H11586  13.006   6.335   9.157  1.5037 -0.9024 -2.1609
   86MOL0     H11587  13.133   6.330   9.280 -2.8985 -0.6858  2.0950
   86MOL0     H11588  13.221   6.308   9.055 -0.8009 -0.3760 -0.6389
   86MOL0     H11589  13.171   6.471   9.017 -0.5684 -2.3103 -1.5015
   86MOL0     H11590  12.510   6.794  10.023 -1.4295  3.2425 -1.4472
   86MOL0     H11591  12.271   6.801  10.075  0.3975  1.9145 -0.4232
   86MOL0     H11592  11.802   6.412   9.922  1.9675  0.3599  0.2513
   86MOL0     H11593  11.571   6.446   9.994  1.4502 -1.0659  0.5970
   86MOL0     H11594  10.099   6.887  10.391 -0.3844 -3.7397  0.3317
   86MOL0     H11595   9.937   6.784  10.562  3.2081 -4.8631  3.1634
   86MOL0     H11596   9.865   6.720  11.033 -0.3570 -1.1457  0.9497
   86MOL0     H11597   9.749   6.567  11.173  0.0529  1.9065 -0.1198
   86MOL0     H11598   9.613   6.449  11.291 -2.4419  0.9374  1.5537
   86MOL0     H11599   9.610   6.336  11.151 -0.2839  0.1408 -1.4226
   86MOL0     H11600   9.518   6.249  11.358 -0.0132 -1.1448 -2.1703
   86MOL0     H11601   9.383   6.278  11.247 -1.6643 -0.1841  1.8748
   86MOL0     H11602   9.323   6.347  11.476 -2.2002  0.1216 -0.9633
   86MOL0     H11603   9.316   6.488  11.375 -0.0193  0.1549  0.7587
   86MOL0     H11604   9.517   6.576  11.457 -1.2400 -0.0380 -0.2436
   86MOL0     H11605   9.406   6.565  11.571  1.4701  2.2148 -0.1430
   86MOL0     H11606   9.657   6.281  11.753  1.8112  0.9680  0.6646
   86MOL0     H11607   9.401   6.604  10.905 -1.2385  1.3692 -0.2289
   86MOL0     H11608   9.488   6.863  10.725 -2.2239  0.2340 -0.3321
   86MOL0     H11609   9.573   6.735  10.633  2.2349  0.6374  1.3336
   86MOL0     H11610   9.409   6.707  10.723  0.0101  0.8327  4.7360
   87MOL0     O11611   0.718   8.434   8.712 -0.8842 -0.3026  0.1266
   87MOL0     C11612   0.692   8.412   8.829 -0.6574 -0.4051  0.4243
   87MOL0     O11613   0.698   8.503   8.923 -0.0435  0.1342 -0.6607
   87MOL0     C11614   0.744   8.633   8.920  0.2634  0.5825 -0.4946
   87MOL0     C11615   0.690   8.717   9.022 -0.0435 -0.7282  0.4594
   87MOL0     C11616   0.702   8.855   9.016 -0.2769 -0.3092 -0.0332
   87MOL0     C11617   0.785   8.914   8.921 -0.1644  0.2719  0.3082
   87MOL0     O11618   0.824   9.049   8.906  1.0145 -0.0634 -0.7598
   87MOL0     C11619   0.767   9.138   9.000 -0.1494 -0.9626  0.5183
   87MOL0     C11620   0.815   9.280   8.971 -0.1284  0.0477  0.5015
   87MOL0     C11621   0.966   9.309   8.951 -0.1683 -0.2660 -0.7650
   87MOL0     C11622   1.062   9.290   9.076  0.8297 -0.0340  0.2836
   87MOL0     C11623   1.214   9.313   9.035  0.0622 -0.4550 -0.0573
   87MOL0     C11624   1.315   9.315   9.145  0.0482  0.4221  0.0553
   87MOL0     C11625   1.298   9.414   9.257 -0.2828 -0.2704  0.4805
   87MOL0     C11626   1.350   9.384   9.389 -0.1301  1.1187  0.2288
   87MOL0     N11627   1.494   9.403   9.394 -0.1994 -0.2844  0.0298
   87MOL0     C11628   1.591   9.322   9.337 -0.1780 -0.2070  0.3839
   87MOL0     C11629   1.705   9.391   9.350  0.2028  0.5549  0.8945
   87MOL0     C11630   1.847   9.355   9.313 -1.2794 -1.2591  0.0625
   87MOL0     C11631   1.907   9.243   9.409  1.1152 -0.2622 -0.1479
   87MOL0     C11632   2.053   9.222   9.395  0.0002  0.1049 -0.1924
   87MOL0     C11633   2.106   9.122   9.492 -0.0571  1.3444 -0.4510
   87MOL0     O11634   2.045   8.993   9.461 -0.0479  0.0610 -0.9721
   87MOL0     C11635   2.073   8.901   9.561  0.0378  0.3545 -0.3386
   87MOL0     C11636   2.195   8.891   9.624  0.3444  1.0078  0.5030
   87MOL0     C11637   2.221   8.781   9.708  0.9343  0.5268 -0.5008
   87MOL0     C11638   2.120   8.684   9.739 -0.0114 -0.1291 -0.5668
   87MOL0     C11639   2.149   8.578   9.848 -0.2710  0.4775 -0.2963
   87MOL0     O11640   2.050   8.483   9.865 -0.3189  0.0284 -0.6052
   87MOL0     C11641   2.067   8.395   9.972  0.7236  0.8959  0.5522
   87MOL0     C11642   1.954   8.377  10.042  0.0628 -0.3859  0.0899
   87MOL0     C11643   1.957   8.293  10.151  0.1784 -0.2558 -0.1687
   87MOL0     C11644   2.076   8.225  10.191 -0.2317 -0.9706  0.5676
   87MOL0     O11645   2.100   8.158  10.305  0.8525 -0.3416  0.3677
   87MOL0     C11646   2.000   8.071  10.357 -0.0298  0.4724  0.4303
   87MOL0     C11647   2.059   8.004  10.490 -0.2010 -0.6333  1.2522
   87MOL0     C11648   1.975   7.898  10.533 -0.1304  0.2094 -0.8415
   87MOL0     C11649   1.985   7.872  10.686 -2.1545  0.4390 -0.9985
   87MOL0     C11650   2.123   7.815  10.725  0.2735 -0.1649  0.0454
   87MOL0     C11651   2.126   7.727  10.858  0.4371 -0.0809  0.3742
   87MOL0     C11652   2.262   7.670  10.900  0.8249 -0.4678  0.0081
   87MOL0     C11653   2.318   7.581  10.794 -0.4274  0.8121  0.6446
   87MOL0    Cl11654   2.483   7.532  10.823 -0.3089 -0.4145  0.3239
   87MOL0     C11655   2.186   8.232  10.105  0.2182  0.2195 -0.1373
   87MOL0     C11656   2.183   8.320   9.998 -0.0995 -0.5942  0.4309
   87MOL0     O11657   2.253   8.596   9.911 -0.0908 -0.3874 -0.6203
   87MOL0     C11658   1.998   8.710   9.686 -0.3061  0.2502  0.4272
   87MOL0     C11659   1.972   8.814   9.596  0.6875  0.1615 -0.5000
   87MOL0     N11660   1.670   9.521   9.390 -0.4974  0.8432  0.0408
   87MOL0     N11661   1.545   9.524   9.421 -0.1153 -1.1273 -0.2832
   87MOL0     C11662   0.839   8.831   8.826 -0.0932 -0.4995 -0.7527
   87MOL0     C11663   0.820   8.690   8.822 -0.1878  0.5133  0.4598
   87MOL0     C11664   0.643   8.273   8.875 -0.9732 -0.3195  0.6757
   87MOL0     C11665   0.621   8.259   9.007  0.0304 -0.0629 -0.5490
   87MOL0     C11666   0.589   8.128   9.054 -0.7476 -0.2203  1.0248
   87MOL0     C11667   0.572   8.018   8.964 -0.6436  0.1861 -0.3181
   87MOL0     O11668   0.530   7.896   9.016  0.1012 -0.0538 -0.1770
   87MOL0     C11669   0.468   7.786   8.938 -0.3929  0.1444  0.3237
   87MOL0     C11670   0.528   7.660   9.002 -0.2003 -0.8012 -0.4617
   87MOL0     C11671   0.689   7.644   9.008  0.5720 -1.3290  1.3743
   87MOL0     C11672   0.710   7.557   9.126  0.8227  0.8935 -0.0873
   87MOL0     C11673   0.854   7.506   9.149 -0.4306 -0.5554  0.3638
   87MOL0     C11674   0.968   7.469   9.172 -0.3160 -0.0933 -0.1165
   87MOL0     C11675   0.590   8.040   8.828  0.7858 -0.0425  0.1522
   87MOL0     C11676   0.622   8.162   8.782  0.0391 -0.1098  0.5794
   87MOL0     C11677   0.628   8.161   8.628  0.3257  0.3312  0.0302
   87MOL0     H11678   0.639   8.674   9.107  0.9993 -1.1697  0.8756
   87MOL0     H11679   0.666   8.920   9.096 -2.7818 -0.1432 -1.2095
   87MOL0     H11680   0.658   9.140   9.000 -0.1820 -1.6697 -1.0814
   87MOL0     H11681   0.803   9.119   9.102  2.1829  0.0715 -0.0456
   87MOL0     H11682   0.778   9.352   9.044  1.7076 -0.2555  1.8026
   87MOL0     H11683   0.776   9.306   8.872  2.8775 -0.5639 -0.9692
   87MOL0     H11684   0.981   9.406   8.904  0.6766 -0.9361 -1.9382
   87MOL0     H11685   1.011   9.240   8.880  0.6524  0.4052 -0.9081
   87MOL0     H11686   1.026   9.364   9.149  1.2455  2.2476 -1.7093
   87MOL0     H11687   1.052   9.197   9.133 -3.4584 -0.2997 -0.5865
   87MOL0     H11688   1.252   9.233   8.970  1.8230  0.4578 -0.1817
   87MOL0     H11689   1.223   9.397   8.966  0.1492 -0.4611 -0.0529
   87MOL0     H11690   1.291   9.216   9.185 -0.4168  0.1825 -0.7799
   87MOL0     H11691   1.413   9.312   9.096 -0.3105  0.6547 -0.6836
   87MOL0     H11692   1.194   9.449   9.258 -0.0962  0.3104 -0.1570
   87MOL0     H11693   1.349   9.506   9.229  0.4326 -1.1834 -1.3650
   87MOL0     H11694   1.297   9.449   9.460 -0.2363  0.5758  0.6569
   87MOL0     H11695   1.324   9.280   9.413  4.7956 -0.6360 -0.9182
   87MOL0     H11696   1.575   9.223   9.297 -0.1425  0.6933 -1.9798
   87MOL0     H11697   1.851   9.324   9.208 -0.3780 -0.6354 -0.0933
   87MOL0     H11698   1.911   9.444   9.315 -0.8298 -1.5050 -1.8016
   87MOL0     H11699   1.887   9.277   9.511  1.4471 -0.2527 -0.0861
   87MOL0     H11700   1.854   9.148   9.396  1.0819 -0.8174  3.1813
   87MOL0     H11701   2.097   9.318   9.425 -1.4961  0.1673  2.1273
   87MOL0     H11702   2.080   9.196   9.293  1.9618 -2.1112  0.7893
   87MOL0     H11703   2.092   9.159   9.594 -1.2613 -0.1484 -0.0176
   87MOL0     H11704   2.213   9.127   9.472  0.3773  0.7334  1.5450
   87MOL0     H11705   2.276   8.961   9.606 -1.0623  1.8476 -3.8068
   87MOL0     H11706   2.317   8.777   9.760  0.4015 -2.9896  0.4671
   87MOL0     H11707   1.862   8.422  10.007 -1.6839 -1.0644  3.3677
   87MOL0     H11708   1.859   8.272  10.193 -1.5238 -0.1513 -3.7269
   87MOL0     H11709   1.905   8.121  10.378 -0.0488  0.5998  0.0565
   87MOL0     H11710   1.982   7.998  10.277  2.1400  0.5270 -0.1458
   87MOL0     H11711   2.164   7.977  10.496  0.7046  2.4243  0.9356
   87MOL0     H11712   2.063   8.084  10.565  0.9560 -0.6234  1.1835
   87MOL0     H11713   1.869   7.919  10.516 -0.2177  0.2602 -0.2510
   87MOL0     H11714   2.010   7.809  10.479  0.8284 -1.0420  1.6696
   87MOL0     H11715   1.909   7.797  10.709 -0.6514 -0.6282  0.6458
   87MOL0     H11716   1.967   7.966  10.740 -0.1271  0.4508 -0.2833
   87MOL0     H11717   2.190   7.901  10.736 -0.9470  0.6358  1.4624
   87MOL0     H11718   2.155   7.752  10.641  1.4865 -1.5611  1.4720
   87MOL0     H11719   2.082   7.783  10.941  2.7093  0.6777  1.1474
   87MOL0     H11720   2.061   7.642  10.834 -0.8148  1.3610 -1.6134
   87MOL0     H11721   2.261   7.615  10.994  2.1741 -3.0416 -1.3397
   87MOL0     H11722   2.319   7.760  10.927  0.7193  0.0242 -1.3152
   87MOL0     H11723   2.253   7.495  10.777  1.0334 -0.7101  2.3511
   87MOL0     H11724   2.325   7.643  10.704  0.2581 -0.9403 -0.5800
   87MOL0     H11725   2.271   8.170  10.130 -0.2818 -0.0723  0.8914
   87MOL0     H11726   2.278   8.333   9.948 -1.5019 -0.8005 -2.4793
   87MOL0     H11727   1.913   8.646   9.706 -0.8655  1.2243  1.2305
   87MOL0     H11728   1.876   8.825   9.546 -0.7960 -1.7843  1.7125
   87MOL0     H11729   0.913   8.877   8.761  3.5726 -0.4601  3.0751
   87MOL0     H11730   0.851   8.628   8.738 -2.7995 -1.4451  0.8147
   87MOL0     H11731   0.630   8.347   9.069 -2.0590  1.9008 -2.8159
   87MOL0     H11732   0.566   8.113   9.158 -2.3483  2.6339  1.1925
   87MOL0     H11733   0.479   7.796   8.829 -1.6887 -2.1821 -0.0818
   87MOL0     H11734   0.361   7.784   8.962 -0.1246  0.9698  1.6900
   87MOL0     H11735   0.480   7.574   8.954 -0.9690 -0.6723  0.0573
   87MOL0     H11736   0.489   7.673   9.104  2.7737  1.5103  0.5381
   87MOL0     H11737   0.729   7.746   9.017 -1.7337 -0.1810 -0.3015
   87MOL0     H11738   0.733   7.592   8.923 -1.5264 -2.9880  1.2269
   87MOL0     H11739   0.664   7.594   9.218 -0.8952  0.4872 -0.7465
   87MOL0     H11740   0.649   7.469   9.105  0.3170  1.0622  0.6556
   87MOL0     H11741   1.066   7.426   9.172 -0.1501  0.2695 -0.8967
   87MOL0     H11742   0.597   7.959   8.755  0.5933  1.3649 -1.4891
   87MOL0     H11743   0.731   8.185   8.599  1.7056 -2.2148  2.3257
   87MOL0     H11744   0.593   8.072   8.574 -1.4607  2.1507 -1.9991
   87MOL0     H11745   0.557   8.236   8.591 -2.3003 -2.1761 -0.3755
   88MOL0     O11746   8.267  11.278   5.751  0.1549  0.6148  0.5014
   88MOL0     C11747   8.292  11.161   5.775  0.2573 -0.6863  0.7348
   88MOL0     O11748   8.388  11.121   5.861  0.4526  0.6527  0.4300
   88MOL0     C11749   8.459  11.221   5.927  0.2139  0.0675  0.3188
   88MOL0     C11750   8.381  11.279   6.030  0.0014  0.8515 -0.4776
   88MOL0     C11751   8.431  11.384   6.115  1.0511  0.2301  0.3482
   88MOL0     C11752   8.555  11.437   6.080 -0.2971 -0.4439  0.3536
   88MOL0     O11753   8.592  11.547   6.160 -0.8666  0.0310  0.0590
   88MOL0     C11754   8.722  11.619   6.130  0.4606  0.9639 -0.1494
   88MOL0     C11755   8.752  11.669   6.274 -0.5637 -0.9648 -0.1711
   88MOL0     C11756   8.791  11.557   6.373 -0.7202 -0.0584 -0.5731
   88MOL0     C11757   8.931  11.489   6.364 -0.6734 -0.4250  0.4347
   88MOL0     C11758   9.044  11.545   6.456  0.7533 -0.4990 -0.1871
   88MOL0     C11759   9.086  11.698   6.437  0.3029 -0.4631 -0.7039
   88MOL0     C11760   9.216  11.730   6.517  0.3459 -0.3136  0.2003
   88MOL0     C11761   9.289  11.862   6.476  0.4741  0.1706  0.1814
   88MOL0     N11762   9.378  11.831   6.365 -0.2135 -0.3665 -0.5857
   88MOL0     C11763   9.500  11.764   6.380 -0.0769  0.4063 -0.2925
   88MOL0     C11764   9.547  11.771   6.255  0.7117  0.7011 -0.0448
   88MOL0     C11765   9.663  11.695   6.196 -0.5839 -0.3594 -0.4044
   88MOL0     C11766   9.790  11.777   6.227 -0.5354 -0.9428 -0.4312
   88MOL0     C11767   9.909  11.685   6.182  0.4947  0.1645  1.0930
   88MOL0     C11768  10.046  11.739   6.220  0.2316  1.4889 -0.3941
   88MOL0     O11769  10.146  11.694   6.125 -0.1577 -0.2399 -0.0935
   88MOL0     C11770  10.270  11.754   6.140 -1.4465  0.9646  1.6053
   88MOL0     C11771  10.355  11.738   6.028  0.0015  0.1921 -0.2250
   88MOL0     C11772  10.483  11.794   6.037  0.2242  0.5278  0.1055
   88MOL0     C11773  10.531  11.860   6.156  0.2892  0.1524 -0.0390
   88MOL0     C11774  10.674  11.915   6.161  0.1704 -0.1860  0.7274
   88MOL0     O11775  10.720  11.954   6.284 -0.1779  0.5911  0.8798
   88MOL0     C11776  10.847  12.008   6.293 -0.1275 -0.1735 -0.3419
   88MOL0     C11777  10.925  11.971   6.402  0.0954  0.5703 -0.2449
   88MOL0     C11778  11.049  12.022   6.422 -0.0326 -0.6483  0.4127
   88MOL0     C11779  11.097  12.114   6.322 -0.4285 -0.0640  0.9649
   88MOL0     O11780  11.228  12.171   6.325  1.0440 -1.2741 -0.1924
   88MOL0     C11781  11.331  12.118   6.412 -0.4064  1.0399 -0.6599
   88MOL0     C11782  11.453  12.201   6.392  0.4660 -0.2474 -1.0659
   88MOL0     C11783  11.566  12.172   6.485  0.3505  0.3781 -0.3439
   88MOL0     C11784  11.620  12.026   6.472 -0.3194  1.0811  0.1611
   88MOL0     C11785  11.749  12.006   6.545  0.5401  0.8466  0.2269
   88MOL0     C11786  11.873  12.043   6.466  0.2631 -0.0771 -0.5144
   88MOL0     C11787  11.912  11.919   6.383 -0.6082  0.0279  0.2053
   88MOL0     C11788  12.000  11.962   6.266  0.3482 -0.1559  0.0567
   88MOL0    Cl11789  12.135  12.053   6.332  0.7715 -0.1059  0.0618
   88MOL0     C11790  11.020  12.158   6.210 -0.6897  0.6927  0.2758
   88MOL0     C11791  10.895  12.105   6.200  1.3049 -0.5621 -0.7648
   88MOL0     O11792  10.729  11.927   6.047 -0.0033  0.6642 -0.0354
   88MOL0     C11793  10.452  11.861   6.264  0.4968 -0.6303 -0.1270
   88MOL0     C11794  10.318  11.814   6.251  0.8082  0.8252 -0.3166
   88MOL0     N11795   9.462  11.831   6.171 -0.0284  0.0925  0.4664
   88MOL0     N11796   9.357  11.861   6.236 -0.6457 -0.5252  0.4761
   88MOL0     C11797   8.628  11.382   5.975  0.2302  0.0197 -0.1753
   88MOL0     C11798   8.591  11.263   5.904 -0.6815  0.1344 -0.4934
   88MOL0     C11799   8.202  11.058   5.731  0.0721  0.4185  0.0496
   88MOL0     C11800   8.145  11.079   5.603  0.0142 -0.4340  0.4896
   88MOL0     C11801   8.056  10.985   5.552 -0.7548  0.8404 -0.8163
   88MOL0     C11802   8.025  10.868   5.621  0.0304  0.6313  0.8991
   88MOL0     O11803   7.939  10.782   5.552  0.2292 -0.0581  0.0717
   88MOL0     C11804   7.889  10.658   5.608  0.3067  0.5759 -0.3239
   88MOL0     C11805   7.747  10.694   5.672 -0.3110 -0.9150 -1.3840
   88MOL0     C11806   7.646  10.725   5.563  0.3593 -0.2203  0.6906
   88MOL0     C11807   7.573  10.619   5.483  0.7303 -0.2946  0.2940
   88MOL0     C11808   7.494  10.537   5.569  0.0676 -1.0463 -0.2493
   88MOL0     C11809   7.439  10.450   5.636  0.3593  0.1714 -0.3217
   88MOL0     C11810   8.078  10.853   5.750 -0.4211 -0.0842  0.2414
   88MOL0     C11811   8.171  10.943   5.805  0.0331  0.7650 -0.8932
   88MOL0     C11812   8.212  10.898   5.945 -0.6896 -0.0881  0.0521
   88MOL0     H11813   8.287  11.229   6.050  0.5970 -0.8895 -1.8376
   88MOL0     H11814   8.366  11.420   6.194 -1.7600 -0.1813 -1.6319
   88MOL0     H11815   8.802  11.568   6.077 -0.7328 -0.3208 -0.7810
   88MOL0     H11816   8.701  11.705   6.066 -1.2240 -0.0327 -1.0093
   88MOL0     H11817   8.668  11.729   6.310  1.5917  1.2076  1.5774
   88MOL0     H11818   8.832  11.742   6.264 -0.6660 -1.0145 -1.4435
   88MOL0     H11819   8.716  11.478   6.367  0.5170 -1.2143 -1.3505
   88MOL0     H11820   8.769  11.598   6.472 -0.7368  0.2881 -0.7177
   88MOL0     H11821   8.922  11.380   6.373 -2.4919 -0.1912  2.8668
   88MOL0     H11822   8.972  11.498   6.264  2.2380  0.0857  1.5964
   88MOL0     H11823   9.002  11.516   6.553 -2.6378 -1.8524 -1.9054
   88MOL0     H11824   9.134  11.484   6.444  0.6740 -0.5733 -0.4151
   88MOL0     H11825   9.110  11.722   6.333 -1.5324  0.7654 -0.8828
   88MOL0     H11826   9.005  11.763   6.472 -0.3702 -2.9798  3.0599
   88MOL0     H11827   9.284  11.644   6.519  1.8807  0.8703  2.5116
   88MOL0     H11828   9.186  11.744   6.621 -1.5804  1.0136 -0.4834
   88MOL0     H11829   9.228  11.951   6.459 -2.1140 -1.4254  0.6325
   88MOL0     H11830   9.353  11.876   6.564 -2.5271 -0.4581  2.6198
   88MOL0     H11831   9.541  11.718   6.469  2.3426  3.7380  0.5102
   88MOL0     H11832   9.651  11.598   6.244 -1.2751 -0.4179 -0.6850
   88MOL0     H11833   9.650  11.680   6.088  0.0953 -1.3733 -0.3621
   88MOL0     H11834   9.799  11.873   6.177  2.8436 -0.8183  0.1975
   88MOL0     H11835   9.790  11.796   6.335 -3.4915 -1.8197 -0.1720
   88MOL0     H11836   9.904  11.676   6.073  1.0534  1.2115  0.9679
   88MOL0     H11837   9.898  11.586   6.226  1.6588 -0.8116 -0.6811
   88MOL0     H11838  10.074  11.717   6.323  1.1431  1.5759 -0.6101
   88MOL0     H11839  10.040  11.849   6.220  1.2010  1.5642 -1.3943
   88MOL0     H11840  10.323  11.670   5.950  0.2496 -0.2774  0.0763
   88MOL0     H11841  10.550  11.793   5.951 -0.6729 -1.0947 -0.6101
   88MOL0     H11842  10.890  11.894   6.470  0.2981 -0.6318 -1.4665
   88MOL0     H11843  11.104  11.982   6.507  0.1017  3.6078  2.6229
   88MOL0     H11844  11.298  12.125   6.516 -0.7775  0.6224 -0.7437
   88MOL0     H11845  11.350  12.014   6.381 -2.4735  0.6934 -0.9090
   88MOL0     H11846  11.491  12.183   6.290  0.6383  0.5297 -1.1459
   88MOL0     H11847  11.414  12.303   6.401  1.3505 -0.1352  3.9227
   88MOL0     H11848  11.643  12.247   6.466 -2.9860  4.5051  0.7149
   88MOL0     H11849  11.531  12.186   6.588 -0.6437 -1.5126 -0.3761
   88MOL0     H11850  11.635  11.993   6.369  1.5863  1.9337  0.1293
   88MOL0     H11851  11.549  11.959   6.522  0.0013  1.3710  1.0235
   88MOL0     H11852  11.763  11.907   6.590  0.7009  0.8959  0.2855
   88MOL0     H11853  11.748  12.079   6.627  1.3296  1.9437 -0.7117
   88MOL0     H11854  11.853  12.136   6.412 -0.4010  1.1300  1.6875
   88MOL0     H11855  11.955  12.059   6.536  3.0038 -2.2460 -2.9441
   88MOL0     H11856  11.825  11.858   6.355  0.0110 -1.2982  1.0801
   88MOL0     H11857  11.969  11.848   6.443  0.6042  2.3028  1.9254
   88MOL0     H11858  12.023  11.867   6.218 -1.9724 -1.0013  0.5064
   88MOL0     H11859  11.957  12.023   6.186 -0.5680 -0.6820  0.1321
   88MOL0     H11860  11.058  12.223   6.131 -0.6158  2.4633  1.7197
   88MOL0     H11861  10.832  12.147   6.122  2.6235  4.3597  0.4821
   88MOL0     H11862  10.474  11.905   6.361  1.3009 -1.3839  0.0425
   88MOL0     H11863  10.247  11.821   6.332 -0.4473  0.5527 -1.3667
   88MOL0     H11864   8.716  11.429   5.932 -0.0832  1.5295  0.7698
   88MOL0     H11865   8.663  11.212   5.841  2.1485  0.6319  2.0947
   88MOL0     H11866   8.129  11.178   5.561 -3.8935 -0.6081  1.2197
   88MOL0     H11867   8.012  11.010   5.456  0.3484  1.2437 -1.2288
   88MOL0     H11868   7.960  10.607   5.674  0.3515 -1.3913 -1.7913
   88MOL0     H11869   7.863  10.589   5.527 -3.5312  0.4874  0.7623
   88MOL0     H11870   7.753  10.781   5.738 -2.3581 -0.6934 -1.4168
   88MOL0     H11871   7.709  10.615   5.737  2.0045  0.4521  1.9447
   88MOL0     H11872   7.691  10.801   5.499  1.0259 -1.4678 -0.3809
   88MOL0     H11873   7.562  10.782   5.602  1.4254 -0.2650  3.2277
   88MOL0     H11874   7.512  10.669   5.407 -0.2909 -2.6033 -0.5074
   88MOL0     H11875   7.643  10.553   5.431  0.7262 -1.0285  1.1992
   88MOL0     H11876   7.410  10.368   5.699 -0.1052 -0.3892 -1.2409
   88MOL0     H11877   8.038  10.768   5.805 -1.4108  0.1302 -0.1375
   88MOL0     H11878   8.164  10.803   5.969 -1.8460 -0.3735 -2.9630
   88MOL0     H11879   8.315  10.874   5.972 -0.5872 -0.5939 -0.7441
   88MOL0     H11880   8.179  10.978   6.012  1.4713  1.0567 -0.1577
   89MOL0     O11881   7.900   4.013  11.326  0.4595  0.5051  0.3921
   89MOL0     C11882   7.832   4.040  11.229  0.8723  1.1219  0.7243
   89MOL0     O11883   7.708   3.988  11.195 -0.4636 -0.4420  0.0732
   89MOL0     C11884   7.638   3.930  11.305 -0.5849  0.0806  0.5052
   89MOL0     C11885   7.499   3.954  11.313 -0.6269  0.4630  0.1224
   89MOL0     C11886   7.420   3.877  11.398  1.7520 -0.3332 -0.7376
   89MOL0     C11887   7.480   3.779  11.478 -0.3788  0.5942 -0.2967
   89MOL0     O11888   7.412   3.689  11.569 -1.1547  0.4469  0.1690
   89MOL0     C11889   7.278   3.726  11.591  0.4761  0.0478 -0.3436
   89MOL0     C11890   7.233   3.652  11.719  0.0835  0.4698  0.7847
   89MOL0     C11891   7.293   3.714  11.851 -0.0591 -0.0422 -0.0951
   89MOL0     C11892   7.222   3.834  11.907 -0.0355  0.0897  0.9833
   89MOL0     C11893   7.293   3.887  12.029 -0.2817 -1.0181 -0.8552
   89MOL0     C11894   7.223   4.014  12.094 -0.4927 -0.0375 -0.0495
   89MOL0     C11895   7.084   3.990  12.151  0.1016 -0.4974  0.0732
   89MOL0     C11896   6.989   4.040  12.041  0.0569  0.6460  0.5213
   89MOL0     N11897   6.857   3.990  12.070  0.1687 -1.2044 -0.5702
   89MOL0     C11898   6.763   4.064  12.130 -0.8611 -0.5182 -0.0272
   89MOL0     C11899   6.654   3.996  12.139 -0.3249  0.2214 -0.7040
   89MOL0     C11900   6.539   4.019  12.216  1.3047  0.4906  0.3640
   89MOL0     C11901   6.461   3.890  12.250  0.1405 -0.4526 -1.2517
   89MOL0     C11902   6.349   3.909  12.359 -0.2118  0.2122 -0.6418
   89MOL0     C11903   6.255   3.789  12.369  0.3198 -0.3337 -0.1773
   89MOL0     O11904   6.314   3.672  12.423 -0.6116 -0.6405  0.4230
   89MOL0     C11905   6.303   3.664  12.551  0.2608 -0.7843 -1.4165
   89MOL0     C11906   6.350   3.548  12.601 -0.6544 -0.4728  0.9411
   89MOL0     C11907   6.367   3.515  12.737 -1.2328  0.0394 -0.3644
   89MOL0     C11908   6.324   3.615  12.827  0.1467  0.1430  0.2176
   89MOL0     C11909   6.320   3.594  12.974  0.2495  1.4674  0.0686
   89MOL0     O11910   6.382   3.482  13.002  0.2340 -0.7304 -0.4894
   89MOL0     C11911   6.381   3.440  13.134  0.4136 -0.8725  0.0013
   89MOL0     C11912   6.261   3.384  13.186  0.1914  0.4284 -0.3106
   89MOL0     C11913   6.258   3.324  13.314  0.4434 -0.2886 -0.2850
   89MOL0     C11914   6.360   3.336  13.402  0.1707  0.7006 -0.1514
   89MOL0     O11915   6.353   3.280  13.526 -0.3668  0.1142 -0.3455
   89MOL0     C11916   6.443   3.325  13.629 -0.3164 -0.1654  1.0911
   89MOL0     C11917   6.399   3.464  13.679 -0.4800  0.1789  0.5954
   89MOL0     C11918   6.381   3.459  13.826  0.0875  0.4522 -0.1896
   89MOL0     C11919   6.238   3.405  13.862  0.6064  0.2166  0.7206
   89MOL0     C11920   6.195   3.439  14.003 -0.2168 -0.3750  0.4815
   89MOL0     C11921   6.080   3.358  14.046  0.1798  0.6820 -0.1757
   89MOL0     C11922   6.026   3.406  14.188 -0.1616 -0.7882  0.6252
   89MOL0     C11923   5.913   3.319  14.230  0.3903 -0.0186 -0.0909
   89MOL0    Cl11924   5.951   3.150  14.253 -0.5339  0.5408 -0.0850
   89MOL0     C11925   6.481   3.385  13.351  0.1685 -0.1050  0.7361
   89MOL0     C11926   6.484   3.441  13.221  0.2456 -0.9195 -0.2353
   89MOL0     O11927   6.252   3.668  13.042  0.1519  0.1835  0.3575
   89MOL0     C11928   6.265   3.733  12.779  0.1331  0.1115  0.5972
   89MOL0     C11929   6.248   3.753  12.648  0.9279 -0.3011  0.7382
   89MOL0     N11930   6.674   3.867  12.079  0.0095 -0.1700  0.4715
   89MOL0     N11931   6.792   3.873  12.034  0.1709 -0.1151  0.5565
   89MOL0     C11932   7.615   3.766  11.480  0.6398 -0.4761  0.2442
   89MOL0     C11933   7.691   3.827  11.383  0.3725 -0.8927 -0.6743
   89MOL0     C11934   7.897   4.137  11.136  0.8754  0.0647  0.5230
   89MOL0     C11935   7.998   4.212  11.197  0.7519 -0.3297 -0.2242
   89MOL0     C11936   8.076   4.293  11.111 -0.2188  0.2905 -0.0024
   89MOL0     C11937   8.037   4.328  10.981 -0.1257  0.3848  0.2229
   89MOL0     O11938   8.108   4.405  10.898 -0.4081 -0.1876  0.6583
   89MOL0     C11939   8.240   4.455  10.934 -0.4189  0.3565  0.3282
   89MOL0     C11940   8.254   4.594  11.002  0.7022 -0.7710 -0.4334
   89MOL0     C11941   8.181   4.703  10.930 -0.3661 -0.2086  0.6158
   89MOL0     C11942   8.260   4.836  10.941 -0.1470  0.7101 -0.2696
   89MOL0     C11943   8.158   4.945  10.956  0.4570  0.5540  0.4221
   89MOL0     C11944   8.064   5.021  10.976  0.8259 -0.0146 -1.1674
   89MOL0     C11945   7.924   4.266  10.930  0.7954 -0.3961  1.2900
   89MOL0     C11946   7.852   4.170  11.003  0.2763 -0.2819  0.7422
   89MOL0     C11947   7.734   4.112  10.933  0.2770 -0.0209 -0.3080
   89MOL0     H11948   7.455   4.029  11.248  2.0788 -1.0482 -3.8858
   89MOL0     H11949   7.313   3.885  11.386  1.9654  3.5447 -1.3492
   89MOL0     H11950   7.285   3.833  11.612 -1.2721 -0.0021  0.6685
   89MOL0     H11951   7.210   3.698  11.509  0.1695 -0.1701 -0.0202
   89MOL0     H11952   7.266   3.548  11.713 -0.3190  0.3870 -0.2823
   89MOL0     H11953   7.125   3.658  11.730 -0.1069 -0.7730 -0.1532
   89MOL0     H11954   7.396   3.736  11.822 -0.6592  0.0074 -2.4633
   89MOL0     H11955   7.293   3.634  11.925 -3.8080 -0.3856 -0.2744
   89MOL0     H11956   7.213   3.911  11.830  1.3577  0.7934  1.4936
   89MOL0     H11957   7.124   3.799  11.939  0.4319 -2.9792 -0.5817
   89MOL0     H11958   7.279   3.811  12.106 -0.1692 -1.9281 -1.7213
   89MOL0     H11959   7.401   3.899  12.018 -0.0658 -1.4513  0.5943
   89MOL0     H11960   7.286   4.048  12.177 -0.9369 -1.2672  0.8312
   89MOL0     H11961   7.222   4.098  12.024  1.6249  2.1570  2.3391
   89MOL0     H11962   7.057   4.054  12.235 -2.7251 -1.8162  0.2859
   89MOL0     H11963   7.070   3.888  12.187  1.1498 -0.1207  1.6537
   89MOL0     H11964   6.992   4.149  12.029  0.9863  0.4445 -1.6598
   89MOL0     H11965   7.014   3.995  11.944 -1.8945 -0.0100  0.2838
   89MOL0     H11966   6.782   4.166  12.163  1.6028 -0.6881 -0.6984
   89MOL0     H11967   6.574   4.070  12.306 -1.2103 -1.2645  2.5229
   89MOL0     H11968   6.474   4.080  12.153  0.7530 -0.2058  0.2348
   89MOL0     H11969   6.408   3.854  12.162 -1.3719 -0.2185 -0.4657
   89MOL0     H11970   6.529   3.814  12.290  1.3807  1.3867  0.3648
   89MOL0     H11971   6.301   4.006  12.343 -1.2847 -0.1638  0.1676
   89MOL0     H11972   6.413   3.915  12.447  4.4349 -0.0852 -3.6046
   89MOL0     H11973   6.223   3.754  12.271 -0.2053 -1.2376  0.3063
   89MOL0     H11974   6.165   3.823  12.422  0.2388 -2.2974  1.0578
   89MOL0     H11975   6.390   3.478  12.529  0.5983  3.3594 -2.4672
   89MOL0     H11976   6.415   3.427  12.778 -3.0533 -0.3887  0.9621
   89MOL0     H11977   6.180   3.405  13.118 -0.6868 -2.0506 -0.1368
   89MOL0     H11978   6.188   3.256  13.362 -0.7241  0.6773 -0.5756
   89MOL0     H11979   6.432   3.248  13.706 -1.1707  2.4112  3.7142
   89MOL0     H11980   6.549   3.337  13.603  0.3491 -2.2061  2.6902
   89MOL0     H11981   6.470   3.542  13.652 -0.9669  0.4255  0.0157
   89MOL0     H11982   6.310   3.495  13.624 -0.5922 -0.8739  0.1684
   89MOL0     H11983   6.448   3.386  13.873 -0.4899 -0.7614 -1.1706
   89MOL0     H11984   6.407   3.557  13.867  1.6732 -0.1979  0.4255
   89MOL0     H11985   6.242   3.296  13.863  3.1095  0.1766  4.5452
   89MOL0     H11986   6.163   3.434  13.787  3.5319  0.4981 -2.3304
   89MOL0     H11987   6.153   3.540  14.001 -1.8687 -1.0172  0.4426
   89MOL0     H11988   6.278   3.435  14.073  3.5543  2.4704 -3.3224
   89MOL0     H11989   6.000   3.381  13.975  1.3129  1.0213 -1.3800
   89MOL0     H11990   6.105   3.251  14.045 -1.9269  0.1431 -1.2290
   89MOL0     H11991   5.991   3.509  14.174  2.1808  0.1413  1.1026
   89MOL0     H11992   6.109   3.419  14.258  1.7400 -0.5507 -1.5694
   89MOL0     H11993   5.871   3.357  14.323  1.6365 -1.8664  1.3003
   89MOL0     H11994   5.834   3.333  14.156 -3.4579  0.5463  3.7524
   89MOL0     H11995   6.574   3.385  13.406  0.0938 -0.1892  0.8643
   89MOL0     H11996   6.582   3.474  13.188  0.1119 -1.9262 -1.7805
   89MOL0     H11997   6.219   3.802  12.850 -2.1499 -1.0610  0.3435
   89MOL0     H11998   6.203   3.844  12.611  0.1832 -0.7492  0.5251
   89MOL0     H11999   7.661   3.692  11.546  0.2781 -1.2222 -0.3196
   89MOL0     H12000   7.796   3.802  11.372  0.8999  1.2628 -0.8548
   89MOL0     H12001   8.018   4.191  11.301  1.2680 -2.3663 -0.6956
   89MOL0     H12002   8.162   4.330  11.168 -1.8279 -0.7360  3.3434
   89MOL0     H12003   8.300   4.458  10.842 -1.8047 -0.5868 -0.6390
   89MOL0     H12004   8.290   4.381  10.997 -4.5236 -4.2142 -1.1381
   89MOL0     H12005   8.360   4.620  11.005  0.8284 -1.3010  1.8927
   89MOL0     H12006   8.216   4.590  11.105  1.1841  1.7945 -0.0707
   89MOL0     H12007   8.082   4.706  10.977 -0.0164 -1.6484  1.5193
   89MOL0     H12008   8.164   4.677  10.825 -2.3752 -0.0537  0.8470
   89MOL0     H12009   8.316   4.831  11.034 -0.7572 -1.2344  0.0389
   89MOL0     H12010   8.320   4.850  10.851 -2.2006 -0.6462 -1.9678
   89MOL0     H12011   8.002   5.107  10.988  0.9379  0.0638 -1.1618
   89MOL0     H12012   7.881   4.304  10.837 -2.5849 -1.1469  2.3963
   89MOL0     H12013   7.642   4.093  10.989  1.4484 -0.6580  1.4695
   89MOL0     H12014   7.709   4.171  10.843  1.2361  4.1405  1.8745
   89MOL0     H12015   7.767   4.013  10.900 -0.1593 -0.9582  1.9532
   90MOL0     O12016  10.420   8.478   7.273  0.3361 -0.3131  0.0590
   90MOL0     C12017  10.399   8.384   7.341 -0.3224  0.6313 -0.0393
   90MOL0     O12018  10.280   8.328   7.373  0.2027  0.1322 -0.3597
   90MOL0     C12019  10.159   8.365   7.326  0.0034  0.9604 -0.0104
   90MOL0     C12020  10.038   8.293   7.383 -0.0385  0.1412  0.6322
   90MOL0     C12021   9.907   8.338   7.357  0.3953 -0.0905  0.4429
   90MOL0     C12022   9.882   8.435   7.256 -0.8969  0.5602  0.1680
   90MOL0     O12023   9.752   8.483   7.228 -0.3553 -0.6730  0.1375
   90MOL0     C12024   9.728   8.550   7.099 -0.4738 -0.6518  0.0651
   90MOL0     C12025   9.578   8.562   7.086  0.4065 -0.4653  0.0118
   90MOL0     C12026   9.524   8.419   7.072  0.3248  0.1078  0.5399
   90MOL0     C12027   9.375   8.415   7.045 -0.1113  0.0760 -0.3447
   90MOL0     C12028   9.343   8.263   7.017  0.2997 -0.7294 -0.2378
   90MOL0     C12029   9.197   8.256   6.978 -0.5551  0.6474 -0.1961
   90MOL0     C12030   9.121   8.122   6.976  0.6106  0.2427  0.3899
   90MOL0     C12031   8.974   8.133   6.930  0.5456  0.1412 -0.5270
   90MOL0     N12032   8.940   8.134   6.796  0.1480  0.1147  0.2718
   90MOL0     C12033   8.932   8.023   6.719 -0.4345  0.6142  0.3838
   90MOL0     C12034   8.874   8.053   6.604 -0.1157  1.0607 -0.6401
   90MOL0     C12035   8.851   7.958   6.478  0.2361  0.7322  0.1314
   90MOL0     C12036   8.944   7.851   6.430  0.7208 -0.2704 -0.2038
   90MOL0     C12037   9.071   7.904   6.371 -0.3125 -0.9309  0.3102
   90MOL0     C12038   9.183   7.818   6.341 -0.0380  0.3538 -0.3028
   90MOL0     O12039   9.305   7.890   6.308 -0.2553 -0.7196  0.4439
   90MOL0     C12040   9.421   7.831   6.353  0.1238  0.1495  0.6284
   90MOL0     C12041   9.443   7.801   6.490  0.3838 -0.5167  0.0810
   90MOL0     C12042   9.572   7.762   6.533  0.1918 -0.0830  0.1873
   90MOL0     C12043   9.682   7.749   6.440  0.2546 -0.2901 -0.2965
   90MOL0     C12044   9.817   7.721   6.507 -0.3028  0.1467  1.4987
   90MOL0     O12045   9.929   7.732   6.424  0.7549  0.3273  0.8715
   90MOL0     C12046  10.055   7.695   6.476  0.0215 -0.2762 -0.3474
   90MOL0     C12047  10.140   7.610   6.406 -0.8221 -0.0157 -0.7617
   90MOL0     C12048  10.275   7.585   6.445 -0.9988  1.0134  0.5185
   90MOL0     C12049  10.333   7.641   6.553  0.3441  0.6170  0.4541
   90MOL0     O12050  10.468   7.620   6.574  0.4152  0.6892  0.1338
   90MOL0     C12051  10.510   7.639   6.714  0.8161  0.5675 -0.3904
   90MOL0     C12052  10.600   7.766   6.729  0.2083  0.2453 -0.1220
   90MOL0     C12053  10.709   7.753   6.832 -0.3006 -0.1060 -0.7991
   90MOL0     C12054  10.758   7.907   6.854  0.6656  0.0016 -0.3888
   90MOL0     C12055  10.890   7.915   6.935  1.0628  0.1869  0.1635
   90MOL0     C12056  10.994   8.008   6.879  0.5305 -0.5297  0.3503
   90MOL0     C12057  11.112   8.021   6.968 -0.3946  0.1074  0.1118
   90MOL0     C12058  11.226   8.127   6.925  0.4294 -0.3832  0.5047
   90MOL0    Cl12059  11.310   8.074   6.774 -0.3292  0.1562  0.0120
   90MOL0     C12060  10.243   7.727   6.630  0.4361  0.1167  0.1259
   90MOL0     C12061  10.107   7.758   6.594 -0.4702  1.0571  0.4281
   90MOL0     O12062   9.818   7.701   6.628  0.7511 -0.5626  0.2704
   90MOL0     C12063   9.663   7.781   6.306 -0.6658 -0.1404 -0.3370
   90MOL0     C12064   9.528   7.811   6.258  0.7303 -0.0902 -0.1966
   90MOL0     N12065   8.832   8.178   6.614 -1.4049  0.1949  0.2730
   90MOL0     N12066   8.870   8.231   6.723 -0.0204  0.1414  0.1372
   90MOL0     C12067   9.997   8.494   7.193  0.2501 -0.5016 -0.2565
   90MOL0     C12068  10.130   8.466   7.232 -0.3091 -0.9724  0.0102
   90MOL0     C12069  10.526   8.313   7.382 -1.0011  0.0798 -0.7659
   90MOL0     C12070  10.635   8.404   7.418 -0.6233  0.4106  0.3714
   90MOL0     C12071  10.754   8.357   7.472  0.2091  0.0578  0.2227
   90MOL0     C12072  10.773   8.218   7.488 -0.0213 -0.6026 -0.7134
   90MOL0     O12073  10.901   8.179   7.526 -0.1519  0.6418 -0.2287
   90MOL0     C12074  10.941   8.039   7.555 -0.2371 -1.0627 -0.1098
   90MOL0     C12075  10.971   7.966   7.431 -0.3582  0.0734  0.0029
   90MOL0     C12076  11.074   7.851   7.457 -0.3497  0.4371  0.9300
   90MOL0     C12077  11.116   7.788   7.326 -1.1063  0.0051  0.0243
   90MOL0     C12078  11.242   7.849   7.277 -0.4037  0.5058 -0.0419
   90MOL0     C12079  11.352   7.904   7.262  1.0283 -0.4035 -0.1772
   90MOL0     C12080  10.672   8.128   7.456  0.4041 -0.3042 -0.5910
   90MOL0     C12081  10.547   8.172   7.408  0.8402 -0.0333 -0.1734
   90MOL0     C12082  10.450   8.073   7.368 -0.2119  0.1878  0.5105
   90MOL0     H12083  10.038   8.210   7.453 -0.3526  1.7881  2.6972
   90MOL0     H12084   9.814   8.304   7.401  0.6123  0.4479  1.3301
   90MOL0     H12085   9.764   8.653   7.099 -1.2795 -0.3460 -1.0991
   90MOL0     H12086   9.778   8.495   7.019  0.5085  1.9136 -1.1591
   90MOL0     H12087   9.537   8.614   7.000 -1.4313  1.2854  1.8356
   90MOL0     H12088   9.539   8.613   7.175  0.2899  0.5412 -0.6069
   90MOL0     H12089   9.550   8.367   7.164 -0.0413  2.2934  1.9663
   90MOL0     H12090   9.557   8.372   6.979 -2.5588 -0.8825 -0.0776
   90MOL0     H12091   9.325   8.440   7.138  0.1077 -2.7242  0.6101
   90MOL0     H12092   9.343   8.483   6.965 -0.5338 -0.8488 -0.9793
   90MOL0     H12093   9.407   8.226   6.937 -0.7923 -2.9205 -0.1668
   90MOL0     H12094   9.369   8.202   7.104  1.7638  1.4150  0.9213
   90MOL0     H12095   9.140   8.330   7.035  2.1212  2.4302  0.3615
   90MOL0     H12096   9.205   8.267   6.869  1.4841 -4.4693 -0.8492
   90MOL0     H12097   9.113   8.072   7.073 -0.8539 -3.6742 -1.5082
   90MOL0     H12098   9.168   8.049   6.910  2.1222 -0.1110  1.7946
   90MOL0     H12099   8.921   8.046   6.970 -0.3699  0.9814  0.1432
   90MOL0     H12100   8.934   8.224   6.976  2.4954  0.6049  0.3554
   90MOL0     H12101   8.980   7.927   6.730 -0.9798  0.4177  1.1313
   90MOL0     H12102   8.753   7.913   6.500  1.0220 -1.1621 -0.0389
   90MOL0     H12103   8.828   8.019   6.390  0.3070 -1.3267 -1.4144
   90MOL0     H12104   8.976   7.785   6.510 -0.5128 -0.6072  0.0335
   90MOL0     H12105   8.893   7.779   6.366  1.9092 -3.5346  2.2527
   90MOL0     H12106   9.102   7.964   6.458  0.7995 -1.3057  0.1838
   90MOL0     H12107   9.052   7.978   6.293  1.6945  1.4945  1.9240
   90MOL0     H12108   9.158   7.757   6.253 -1.0709  0.4665 -0.1062
   90MOL0     H12109   9.200   7.747   6.423 -2.8508  0.7678  0.7576
   90MOL0     H12110   9.366   7.805   6.567 -0.8193  0.5382 -1.1104
   90MOL0     H12111   9.592   7.739   6.637  0.2915 -0.6610  0.0400
   90MOL0     H12112  10.095   7.565   6.318 -2.0588  0.9391 -0.6430
   90MOL0     H12113  10.339   7.536   6.373 -0.3945  0.2226  1.5662
   90MOL0     H12114  10.429   7.635   6.787  2.9516 -3.2797  2.1535
   90MOL0     H12115  10.566   7.550   6.746  0.9623 -0.3471 -2.9258
   90MOL0     H12116  10.642   7.793   6.632  1.0656 -2.1264 -0.4915
   90MOL0     H12117  10.522   7.837   6.758 -0.7767 -1.6580  2.2314
   90MOL0     H12118  10.672   7.717   6.928  1.7585  1.9091  0.8430
   90MOL0     H12119  10.787   7.685   6.795 -0.9943 -0.3060 -1.9738
   90MOL0     H12120  10.678   7.972   6.892 -1.3591 -1.6848 -1.5745
   90MOL0     H12121  10.775   7.960   6.760 -2.0783  0.0696 -0.9165
   90MOL0     H12122  10.937   7.816   6.933  0.1002 -0.4560  3.3451
   90MOL0     H12123  10.859   7.932   7.039 -2.4178  0.5252 -0.8193
   90MOL0     H12124  11.026   7.964   6.784  0.1225  3.2526 -1.7490
   90MOL0     H12125  10.960   8.109   6.852  0.7906 -0.8989 -1.5199
   90MOL0     H12126  11.158   7.926   6.998  0.6534  1.1817  2.0396
   90MOL0     H12127  11.073   8.062   7.061 -0.8366  0.1142 -0.0717
   90MOL0     H12128  11.177   8.216   6.883 -2.0233 -2.5577 -1.5540
   90MOL0     H12129  11.288   8.130   7.015 -1.2559 -1.5928  1.7625
   90MOL0     H12130  10.282   7.790   6.709 -1.1332 -0.9313  1.8122
   90MOL0     H12131  10.044   7.821   6.657 -2.4385 -0.7746  0.4003
   90MOL0     H12132   9.748   7.781   6.238  0.3101 -1.6926  0.8249
   90MOL0     H12133   9.518   7.835   6.152 -1.5607 -0.5649 -0.1452
   90MOL0     H12134   9.987   8.583   7.131  0.6566  0.3606  0.8727
   90MOL0     H12135  10.207   8.527   7.185  1.4994 -0.0620  3.7281
   90MOL0     H12136  10.623   8.510   7.401  1.9744  1.0485  1.9286
   90MOL0     H12137  10.828   8.434   7.491  0.8232  0.0224 -1.8247
   90MOL0     H12138  10.865   7.989   7.615 -2.0055 -0.4210 -1.7133
   90MOL0     H12139  11.023   8.029   7.627  0.2234  0.2569 -0.4188
   90MOL0     H12140  11.033   8.016   7.355  0.4032 -0.1310  0.4827
   90MOL0     H12141  10.876   7.936   7.385  1.4307 -1.8736 -2.8034
   90MOL0     H12142  11.023   7.773   7.514  0.0459 -0.2201  0.3940
   90MOL0     H12143  11.161   7.884   7.515 -1.2396  1.1575  1.9022
   90MOL0     H12144  11.127   7.680   7.340 -0.2246  0.0640 -0.1051
   90MOL0     H12145  11.036   7.795   7.253 -0.4603 -0.0400 -0.7042
   90MOL0     H12146  11.445   7.957   7.252 -0.0053  1.4168 -0.6432
   90MOL0     H12147  10.681   8.021   7.442 -0.0943 -0.2591 -1.3048
   90MOL0     H12148  10.364   8.071   7.435 -0.5545 -0.6988  0.0637
   90MOL0     H12149  10.418   8.097   7.266 -0.8866 -0.2456  0.6099
   90MOL0     H12150  10.485   7.969   7.373  0.8113  0.5210  0.5561
   91MOL0     O12151   2.598   8.414  11.399  0.2000  0.1710 -0.6929
   91MOL0     C12152   2.663   8.469  11.317  0.0531 -0.4602  0.5727
   91MOL0     O12153   2.786   8.526  11.339 -0.0475  0.1518  0.6473
   91MOL0     C12154   2.864   8.478  11.437 -0.4881 -0.4006 -0.6464
   91MOL0     C12155   2.845   8.530  11.567  0.0487 -0.4563 -0.4234
   91MOL0     C12156   2.935   8.503  11.669  0.1946  0.1875 -0.0769
   91MOL0     C12157   3.045   8.424  11.650  0.2926 -0.3038 -0.2503
   91MOL0     O12158   3.121   8.391  11.750  0.0677  0.1503  0.3085
   91MOL0     C12159   3.260   8.440  11.745  0.6677  0.6916  0.0300
   91MOL0     C12160   3.266   8.563  11.828  0.5110 -0.5945 -0.4168
   91MOL0     C12161   3.409   8.606  11.867  1.0611  0.0781 -0.0096
   91MOL0     C12162   3.444   8.572  12.014  0.1992 -0.1851 -0.0089
   91MOL0     C12163   3.583   8.605  12.060  0.5000  0.8532 -0.1414
   91MOL0     C12164   3.675   8.484  12.061  0.2942  0.9112  0.6956
   91MOL0     C12165   3.831   8.508  12.109  0.6813 -0.0966 -0.3042
   91MOL0     C12166   3.919   8.382  12.077 -0.2897  0.7328 -0.0182
   91MOL0     N12167   4.055   8.407  12.122 -0.4943  0.1529 -0.1134
   91MOL0     C12168   4.132   8.511  12.065 -0.5838 -0.0764  1.3845
   91MOL0     C12169   4.235   8.532  12.153  0.2333 -0.6262  0.8598
   91MOL0     C12170   4.342   8.645  12.137 -0.0600  0.8016 -0.9360
   91MOL0     C12171   4.480   8.598  12.114 -0.2339  0.8004 -0.3923
   91MOL0     C12172   4.492   8.536  11.977 -0.7538  0.7284 -0.1186
   91MOL0     C12173   4.476   8.627  11.854 -1.3366 -0.7744  0.2349
   91MOL0     O12174   4.348   8.669  11.836  0.7581 -0.3390  0.2672
   91MOL0     C12175   4.310   8.705  11.713  0.3290 -0.6890  0.7736
   91MOL0     C12176   4.361   8.830  11.671  1.1820 -0.3190  0.6227
   91MOL0     C12177   4.307   8.877  11.549  0.5202  0.2030  0.2480
   91MOL0     C12178   4.195   8.812  11.489  0.2324  0.5803  1.2143
   91MOL0     C12179   4.128   8.873  11.371 -0.1074  0.6471  1.1193
   91MOL0     O12180   4.189   8.962  11.293  0.7564 -0.2078 -0.0617
   91MOL0     C12181   4.117   9.008  11.184  0.2190  1.1572 -0.7370
   91MOL0     C12182   4.042   8.937  11.092  0.2303 -0.3409  0.1221
   91MOL0     C12183   3.975   8.999  10.987 -0.0734 -0.6330 -0.2438
   91MOL0     C12184   3.983   9.145  10.968 -0.7638  0.0868 -0.9096
   91MOL0     O12185   3.941   9.211  10.853 -0.2622 -0.0736  0.0780
   91MOL0     C12186   3.974   9.156  10.731 -0.8231  0.9071  0.4833
   91MOL0     C12187   4.130   9.165  10.714 -0.0850 -0.4443  0.1976
   91MOL0     C12188   4.149   9.178  10.561  0.5844 -0.2745  0.0285
   91MOL0     C12189   4.123   9.059  10.476 -0.9591 -0.1194  0.6888
   91MOL0     C12190   4.162   9.079  10.327 -0.0324  0.6515 -1.2712
   91MOL0     C12191   4.313   9.044  10.311 -0.6049  0.4917 -0.1777
   91MOL0     C12192   4.343   9.040  10.156  0.1093  0.0839 -0.3260
   91MOL0     C12193   4.489   9.008  10.118  0.0916 -0.3970  0.3069
   91MOL0    Cl12194   4.514   8.848  10.179  0.0301  0.5673  0.0126
   91MOL0     C12195   4.064   9.217  11.058  0.7562 -0.0742  0.0063
   91MOL0     C12196   4.128   9.148  11.167  0.4876 -0.1076  0.2811
   91MOL0     O12197   4.005   8.853  11.371  0.6210 -0.4159 -0.0692
   91MOL0     C12198   4.145   8.688  11.544 -0.6935 -0.2491  0.9762
   91MOL0     C12199   4.199   8.641  11.654  0.3827  0.5189  0.0013
   91MOL0     N12200   4.227   8.435  12.253  0.6307  0.2347  0.4302
   91MOL0     N12201   4.117   8.375  12.235 -0.5030  0.0901 -0.2946
   91MOL0     C12202   3.055   8.358  11.524 -0.0659 -0.1399  0.1986
   91MOL0     C12203   2.976   8.394  11.416  0.4787 -0.4215  0.0501
   91MOL0     C12204   2.607   8.496  11.185  0.3825 -0.7709 -0.2641
   91MOL0     C12205   2.684   8.574  11.095 -0.1432  0.3669  0.8482
   91MOL0     C12206   2.625   8.633  10.976  0.4265  0.2684 -0.6621
   91MOL0     C12207   2.492   8.605  10.941  0.2716 -0.2749 -0.0279
   91MOL0     O12208   2.420   8.640  10.830 -0.1499 -0.1889 -0.5030
   91MOL0     C12209   2.496   8.660  10.705  0.2607  0.4313  0.4979
   91MOL0     C12210   2.564   8.794  10.678  0.4404 -0.6019 -0.6794
   91MOL0     C12211   2.513   8.913  10.771  0.0275 -0.4488  0.5583
   91MOL0     C12212   2.558   9.053  10.729 -0.0060 -0.3466 -0.2639
   91MOL0     C12213   2.694   9.093  10.766 -0.1195  1.0032 -0.5031
   91MOL0     C12214   2.806   9.113  10.805 -0.0745 -0.1917  0.5358
   91MOL0     C12215   2.425   8.513  11.022 -0.0250 -0.4715  0.2504
   91MOL0     C12216   2.472   8.463  11.148 -0.4653  1.1432 -0.1275
   91MOL0     C12217   2.376   8.378  11.223  0.5473 -0.2569 -0.4954
   91MOL0     H12218   2.754   8.586  11.583  0.7056  0.1082  1.8066
   91MOL0     H12219   2.911   8.553  11.761  1.9212 -0.5331  0.8146
   91MOL0     H12220   3.337   8.368  11.776  0.2196 -1.3264 -3.0860
   91MOL0     H12221   3.283   8.463  11.640 -1.1520  0.7664 -0.3810
   91MOL0     H12222   3.213   8.554  11.924  0.3745  0.7486 -0.3454
   91MOL0     H12223   3.216   8.642  11.772 -1.8851  0.3006  2.7045
   91MOL0     H12224   3.408   8.714  11.856 -1.1413  0.0930 -0.1659
   91MOL0     H12225   3.475   8.552  11.798 -0.7606 -1.2581 -0.7982
   91MOL0     H12226   3.376   8.625  12.080 -1.8987 -1.3904 -1.1028
   91MOL0     H12227   3.448   8.463  12.030 -1.4148 -0.3078 -0.3416
   91MOL0     H12228   3.606   8.690  11.995 -2.6265  1.8142 -0.1227
   91MOL0     H12229   3.572   8.627  12.166  2.4409 -1.1988  0.5780
   91MOL0     H12230   3.634   8.400  12.119 -2.4432 -0.4560 -2.8731
   91MOL0     H12231   3.675   8.454  11.956  0.2608 -2.7243  1.5950
   91MOL0     H12232   3.823   8.530  12.216 -2.3676  0.4465 -0.5487
   91MOL0     H12233   3.870   8.598  12.060  3.5067 -0.4967  1.0070
   91MOL0     H12234   3.884   8.291  12.127 -0.3294  0.0485 -1.2493
   91MOL0     H12235   3.915   8.371  11.969 -2.9204  3.3767 -0.3162
   91MOL0     H12236   4.109   8.568  11.975 -4.1887 -0.1743  2.0818
   91MOL0     H12237   4.315   8.730  12.073 -1.6360  1.5489  0.6238
   91MOL0     H12238   4.349   8.691  12.236 -0.0649  2.3876 -1.6554
   91MOL0     H12239   4.550   8.681  12.129  1.6030 -0.7040 -0.2038
   91MOL0     H12240   4.502   8.521  12.189 -0.5362  0.3720 -0.7341
   91MOL0     H12241   4.426   8.450  11.960 -2.2910  0.9394  3.7277
   91MOL0     H12242   4.591   8.488  11.973 -1.2103 -1.1837  4.5533
   91MOL0     H12243   4.523   8.581  11.766  1.0115 -1.7754  1.8978
   91MOL0     H12244   4.544   8.712  11.865 -0.3443 -1.1903 -2.0571
   91MOL0     H12245   4.440   8.893  11.710  0.9719 -0.5950  1.5137
   91MOL0     H12246   4.337   8.975  11.514 -1.1246 -0.5804 -3.9375
   91MOL0     H12247   4.036   8.829  11.094 -5.0606 -0.3242 -1.5856
   91MOL0     H12248   3.925   8.934  10.917  0.3177 -2.9447  1.5018
   91MOL0     H12249   3.961   9.047  10.722 -0.1194  0.9166 -0.7703
   91MOL0     H12250   3.917   9.209  10.655 -0.6987  2.2730  1.3131
   91MOL0     H12251   4.190   9.246  10.759  1.3636 -1.7245  0.6682
   91MOL0     H12252   4.178   9.082  10.767  1.0197 -0.5922 -0.9979
   91MOL0     H12253   4.098   9.268  10.528  3.4619  1.9402  1.1943
   91MOL0     H12254   4.253   9.209  10.552  0.0662  1.4121 -0.4560
   91MOL0     H12255   4.021   9.025  10.491 -1.2048  1.0478  1.8207
   91MOL0     H12256   4.174   8.970  10.514 -1.4315 -1.8020 -2.2915
   91MOL0     H12257   4.149   9.179  10.286  3.0594  2.1299  0.9010
   91MOL0     H12258   4.100   9.011  10.269  0.4609 -0.4210 -0.5722
   91MOL0     H12259   4.377   9.101  10.380 -0.6314 -1.1666  1.3180
   91MOL0     H12260   4.329   8.940  10.341  1.2468  0.1189 -2.1658
   91MOL0     H12261   4.315   9.136  10.111 -0.9382 -0.2110 -0.3316
   91MOL0     H12262   4.280   8.959  10.120 -0.4264 -0.3466  1.4595
   91MOL0     H12263   4.492   9.019  10.009  0.2513  2.3484  0.5135
   91MOL0     H12264   4.558   9.068  10.177 -2.4476  2.3513  0.7576
   91MOL0     H12265   4.075   9.324  11.047  0.5094  0.1560  1.6737
   91MOL0     H12266   4.187   9.212  11.232  1.2879 -0.7673  0.2214
   91MOL0     H12267   4.058   8.646  11.494 -0.2482 -4.1507  3.0854
   91MOL0     H12268   4.160   8.553  11.704  0.4929  0.2576 -0.3676
   91MOL0     H12269   3.106   8.263  11.509 -4.0964 -2.9420  2.1177
   91MOL0     H12270   2.987   8.347  11.318 -0.1748 -1.0476  0.2675
   91MOL0     H12271   2.788   8.593  11.121  0.3496 -0.6451 -0.2569
   91MOL0     H12272   2.680   8.702  10.912  2.0976 -0.8383 -0.4789
   91MOL0     H12273   2.422   8.641  10.627 -1.8285 -3.5972  3.0750
   91MOL0     H12274   2.559   8.573  10.688  0.0897  0.7550 -2.1842
   91MOL0     H12275   2.551   8.832  10.576  0.0712 -0.1666 -0.4759
   91MOL0     H12276   2.667   8.778  10.708  0.9769 -0.6104 -2.3920
   91MOL0     H12277   2.561   8.901  10.869 -0.4591  2.1226  1.2100
   91MOL0     H12278   2.404   8.927  10.776  0.2300  2.2100 -0.6839
   91MOL0     H12279   2.546   9.072  10.622 -1.1988  2.6703  0.2940
   91MOL0     H12280   2.496   9.127  10.781 -1.5019 -0.2629 -2.0709
   91MOL0     H12281   2.907   9.130  10.838 -0.5613 -1.6103  3.0664
   91MOL0     H12282   2.332   8.472  10.984  1.1971 -1.1255 -2.2538
   91MOL0     H12283   2.273   8.414  11.217  0.2477 -0.6326  1.5897
   91MOL0     H12284   2.365   8.278  11.180 -2.3618  0.7038 -2.2947
   91MOL0     H12285   2.394   8.370  11.331  0.3293  1.6888 -0.2626
   92MOL0     O12286   7.002   2.175   4.817  0.0302  0.4687 -0.5840
   92MOL0     C12287   6.922   2.097   4.869  0.7780  0.3046  0.1785
   92MOL0     O12288   6.957   1.990   4.946 -0.0169 -0.4862  0.0539
   92MOL0     C12289   7.085   1.950   4.957  0.1766  1.8362 -0.5225
   92MOL0     C12290   7.184   1.940   4.842  0.5484  0.5500 -0.9490
   92MOL0     C12291   7.311   1.891   4.871 -0.6163  0.3700  0.4535
   92MOL0     C12292   7.339   1.831   4.995 -0.3745 -0.0015 -0.8082
   92MOL0     O12293   7.468   1.779   5.018  0.0119 -0.2474  1.0200
   92MOL0     C12294   7.510   1.722   5.145 -0.6030 -0.2199 -0.3595
   92MOL0     C12295   7.554   1.829   5.246  0.0570  0.1119 -0.4046
   92MOL0     C12296   7.508   1.799   5.399 -0.1672 -0.8812  0.7652
   92MOL0     C12297   7.612   1.851   5.500  0.7002 -0.2896  0.2387
   92MOL0     C12298   7.541   1.832   5.643 -0.1202 -0.2229  0.2866
   92MOL0     C12299   7.447   1.701   5.663 -0.6728 -0.3999 -0.3516
   92MOL0     C12300   7.370   1.701   5.797  0.0988 -0.8867 -0.2880
   92MOL0     C12301   7.445   1.731   5.924  0.4485  0.1290 -0.3389
   92MOL0     N12302   7.562   1.640   5.944  0.3183  1.3340 -0.8093
   92MOL0     C12303   7.588   1.558   6.044 -0.8629  0.1103 -0.9762
   92MOL0     C12304   7.711   1.515   6.029  0.0133 -0.1152 -0.8258
   92MOL0     C12305   7.783   1.425   6.123 -0.8228 -0.2504  0.2291
   92MOL0     C12306   7.884   1.498   6.219  0.3585  0.6940  0.1928
   92MOL0     C12307   8.005   1.577   6.156  0.9656  0.4562 -0.1405
   92MOL0     C12308   8.090   1.484   6.081  0.0074 -0.5009 -0.1416
   92MOL0     O12309   8.201   1.439   6.159  0.3683  0.3695  0.6978
   92MOL0     C12310   8.302   1.391   6.090 -0.2656 -0.5982 -0.5895
   92MOL0     C12311   8.425   1.392   6.160 -0.5040 -0.1702  0.2372
   92MOL0     C12312   8.541   1.322   6.115 -0.0698 -0.5333  0.0221
   92MOL0     C12313   8.543   1.276   5.981  0.0596  0.4181 -0.4738
   92MOL0     C12314   8.662   1.217   5.920  1.1970 -0.0622 -1.4224
   92MOL0     O12315   8.650   1.136   5.812  0.2903  0.1221 -0.1761
   92MOL0     C12316   8.758   1.052   5.770  0.0637  0.4042  0.2864
   92MOL0     C12317   8.769   1.030   5.635  0.5774  0.8748 -0.7833
   92MOL0     C12318   8.868   0.955   5.572  0.9796 -0.6329  0.3438
   92MOL0     C12319   8.975   0.890   5.646  0.7235 -0.3024  0.4138
   92MOL0     O12320   9.057   0.804   5.586 -0.1973 -0.3113  0.5069
   92MOL0     C12321   9.190   0.798   5.645  0.1088 -0.1773 -0.2811
   92MOL0     C12322   9.286   0.733   5.543  0.2187  0.5011 -0.4528
   92MOL0     C12323   9.425   0.712   5.592  0.0137 -0.4273 -0.1088
   92MOL0     C12324   9.510   0.700   5.473  0.8714  0.0551 -0.3575
   92MOL0     C12325   9.655   0.691   5.517  0.1999  0.4454 -1.1908
   92MOL0     C12326   9.738   0.623   5.408 -0.2418  0.9861  0.0556
   92MOL0     C12327   9.895   0.625   5.447  1.0894  0.2873 -0.1642
   92MOL0     C12328   9.970   0.552   5.348  0.0717  0.4690 -0.5098
   92MOL0    Cl12329  10.139   0.563   5.401  0.4775 -0.0270  0.2545
   92MOL0     C12330   8.969   0.912   5.789 -0.5742 -0.2685  0.4790
   92MOL0     C12331   8.857   0.989   5.847 -1.0944  0.6626 -0.2674
   92MOL0     O12332   8.764   1.219   5.996 -0.4244  0.0298  0.8818
   92MOL0     C12333   8.420   1.270   5.911 -0.2113  0.0866 -0.3574
   92MOL0     C12334   8.301   1.318   5.964  0.6383  0.0630  0.3053
   92MOL0     N12335   7.772   1.587   5.927 -0.1699 -0.0084 -0.2026
   92MOL0     N12336   7.681   1.653   5.880 -0.8185  0.0953  0.1904
   92MOL0     C12337   7.253   1.837   5.099 -0.1023  0.0411 -0.5913
   92MOL0     C12338   7.128   1.894   5.073 -0.1466  0.8725  1.2987
   92MOL0     C12339   6.777   2.120   4.827 -0.0906 -0.3991  0.2234
   92MOL0     C12340   6.728   2.195   4.721 -0.3203  0.3072  1.1546
   92MOL0     C12341   6.590   2.216   4.672 -0.4141  1.0904 -0.6800
   92MOL0     C12342   6.494   2.142   4.750 -0.6390  0.0990 -0.1704
   92MOL0     O12343   6.366   2.160   4.718 -0.0852 -0.2488  0.4169
   92MOL0     C12344   6.261   2.084   4.783  0.3885  0.8763  0.6844
   92MOL0     C12345   6.123   2.138   4.757  0.2737  0.2041 -0.0167
   92MOL0     C12346   6.017   2.076   4.861 -0.1289  0.2200  0.7098
   92MOL0     C12347   6.036   2.109   5.002  1.1034 -0.5625  0.2742
   92MOL0     C12348   5.909   2.065   5.074 -0.4048  0.3495  0.3839
   92MOL0     C12349   5.801   2.010   5.103  0.4715  0.6517  0.4334
   92MOL0     C12350   6.533   2.060   4.851 -0.5748 -0.7178 -0.6635
   92MOL0     C12351   6.667   2.051   4.895 -0.9478  0.3093  0.2994
   92MOL0     C12352   6.691   1.959   5.011 -0.1206 -1.0114  0.0700
   92MOL0     H12353   7.163   1.979   4.743 -0.3326  0.1494 -0.9300
   92MOL0     H12354   7.376   1.876   4.786 -3.9252 -1.5759 -1.9761
   92MOL0     H12355   7.441   1.647   5.186  3.5890 -3.4870  1.3682
   92MOL0     H12356   7.597   1.658   5.130  0.1632 -0.1238  2.9128
   92MOL0     H12357   7.524   1.932   5.224  0.2600  0.9057  2.6145
   92MOL0     H12358   7.661   1.839   5.226 -0.3189  1.6398 -1.9305
   92MOL0     H12359   7.499   1.691   5.414  1.3975 -1.1643 -0.1474
   92MOL0     H12360   7.416   1.858   5.405  0.3914  0.7420 -3.3243
   92MOL0     H12361   7.705   1.796   5.485 -0.1807 -1.2751 -2.2098
   92MOL0     H12362   7.622   1.955   5.470  0.8713 -0.8490 -1.8000
   92MOL0     H12363   7.626   1.826   5.712  0.5131  1.1558 -0.3343
   92MOL0     H12364   7.479   1.921   5.654  0.9579  0.3003  2.7329
   92MOL0     H12365   7.373   1.675   5.587 -0.5793 -3.2394  0.4291
   92MOL0     H12366   7.520   1.619   5.669 -0.1384  0.1651  1.7436
   92MOL0     H12367   7.339   1.597   5.806  0.0227 -1.0986 -2.5480
   92MOL0     H12368   7.276   1.758   5.796  1.8838  2.3856  0.8471
   92MOL0     H12369   7.462   1.838   5.908 -1.5259  1.1804  3.3008
   92MOL0     H12370   7.382   1.715   6.012  1.1901 -0.6848  0.0577
   92MOL0     H12371   7.516   1.527   6.119 -1.2049 -1.1618 -1.8031
   92MOL0     H12372   7.720   1.362   6.186  0.4938 -0.5426  1.3154
   92MOL0     H12373   7.851   1.365   6.063  0.8302  1.6502  0.0836
   92MOL0     H12374   7.818   1.563   6.277 -1.8324 -0.6311 -0.6836
   92MOL0     H12375   7.931   1.430   6.291 -0.5370  1.1348  1.2172
   92MOL0     H12376   8.063   1.638   6.226  1.0221  2.0379 -1.4990
   92MOL0     H12377   7.965   1.652   6.087 -1.4410 -0.8253 -0.2479
   92MOL0     H12378   8.121   1.526   5.985 -2.3023  2.9326  0.4535
   92MOL0     H12379   8.034   1.396   6.051 -2.1963  0.8255 -0.1056
   92MOL0     H12380   8.424   1.445   6.254 -0.1772 -0.3151  0.3251
   92MOL0     H12381   8.628   1.335   6.178 -0.9132  1.9554  0.7773
   92MOL0     H12382   8.686   1.066   5.575  0.0986  2.8732  0.9369
   92MOL0     H12383   8.867   0.944   5.464  2.8926  0.9933  0.0821
   92MOL0     H12384   9.234   0.889   5.686 -0.9917 -0.3130  1.2659
   92MOL0     H12385   9.179   0.722   5.723 -1.0260 -0.1316 -0.3839
   92MOL0     H12386   9.256   0.635   5.506  0.6352 -0.2367  1.1145
   92MOL0     H12387   9.278   0.799   5.455  0.3037  0.9821 -0.1048
   92MOL0     H12388   9.449   0.796   5.658 -2.3781  0.4962 -0.3101
   92MOL0     H12389   9.428   0.616   5.645 -0.6369  0.0397  0.8045
   92MOL0     H12390   9.497   0.784   5.404  0.2195  1.4451  1.3823
   92MOL0     H12391   9.482   0.609   5.418  0.2744  1.3392 -2.2930
   92MOL0     H12392   9.665   0.641   5.613 -1.9300  1.4632 -0.3711
   92MOL0     H12393   9.705   0.788   5.516  3.7371 -1.2359 -0.6591
   92MOL0     H12394   9.702   0.520   5.408 -0.2228  0.9228  2.3695
   92MOL0     H12395   9.722   0.676   5.314  3.3381 -0.9318 -1.8241
   92MOL0     H12396   9.904   0.583   5.547  3.8357  1.2998  0.1180
   92MOL0     H12397   9.933   0.728   5.449  1.1723  0.3271 -1.8588
   92MOL0     H12398   9.936   0.448   5.346  0.9846  0.1261  0.5221
   92MOL0     H12399   9.964   0.588   5.245 -0.2678 -2.0940 -1.4543
   92MOL0     H12400   9.029   0.870   5.870 -0.6321 -0.1439  0.5873
   92MOL0     H12401   8.849   0.997   5.955  1.3914  1.7331 -0.0793
   92MOL0     H12402   8.423   1.217   5.816  1.1079  2.1961 -1.5672
   92MOL0     H12403   8.217   1.305   5.897  0.3729 -0.4891  0.7408
   92MOL0     H12404   7.262   1.793   5.197 -2.5222  0.2846 -0.1920
   92MOL0     H12405   7.065   1.900   5.161  2.1806  1.0055  3.0589
   92MOL0     H12406   6.805   2.257   4.676  0.7509 -1.2122  0.8157
   92MOL0     H12407   6.567   2.277   4.585 -1.1418  1.6171 -0.1326
   92MOL0     H12408   6.264   2.091   4.892 -1.5554 -1.6163  0.9940
   92MOL0     H12409   6.256   1.979   4.752 -0.1354  1.4162 -1.1670
   92MOL0     H12410   6.091   2.103   4.658 -3.2444 -0.2327  1.1080
   92MOL0     H12411   6.133   2.246   4.766  0.0470  0.1053  1.8957
   92MOL0     H12412   6.027   1.968   4.850 -0.5018  0.2813 -0.4349
   92MOL0     H12413   5.922   2.100   4.812  1.3421  0.3176 -2.3165
   92MOL0     H12414   6.128   2.071   5.046  0.3956  0.3662  2.6984
   92MOL0     H12415   6.049   2.217   4.997  0.7064 -0.5616 -1.5797
   92MOL0     H12416   5.708   1.969   5.138  2.0945 -1.7042  2.2045
   92MOL0     H12417   6.467   2.016   4.924 -1.7448  2.3737  0.2900
   92MOL0     H12418   6.599   1.943   5.069 -0.1633 -1.7045 -0.1821
   92MOL0     H12419   6.732   1.863   4.979  2.6819  0.0539  0.1540
   92MOL0     H12420   6.762   2.010   5.078  1.6126  0.4432 -2.7006
   93MOL0     O12421   4.321   6.590   5.452  0.1646 -0.4575 -0.3171
   93MOL0     C12422   4.214   6.593   5.395 -0.3133 -0.3150  0.2315
   93MOL0     O12423   4.196   6.649   5.268  0.3163 -0.5943 -0.3342
   93MOL0     C12424   4.294   6.693   5.188 -0.4315  0.1952  0.7508
   93MOL0     C12425   4.287   6.817   5.118  0.2794  0.1036 -0.1709
   93MOL0     C12426   4.390   6.882   5.059 -0.0005 -0.4181  0.4069
   93MOL0     C12427   4.509   6.818   5.045 -0.3142  0.4044 -0.4043
   93MOL0     O12428   4.612   6.861   4.965 -0.2294  0.2906  0.3036
   93MOL0     C12429   4.580   6.953   4.857 -0.3640  0.0818 -0.2372
   93MOL0     C12430   4.699   6.949   4.772  0.5178 -0.8403  1.1409
   93MOL0     C12431   4.835   6.958   4.835 -0.1610  0.5232 -0.0996
   93MOL0     C12432   4.938   7.025   4.742  0.4725  0.2332  0.1435
   93MOL0     C12433   5.080   6.988   4.786 -0.0549 -1.0602 -0.6259
   93MOL0     C12434   5.122   7.062   4.918  0.0690 -0.1958  0.1046
   93MOL0     C12435   5.268   7.040   4.965  0.0134  1.0032  0.7507
   93MOL0     C12436   5.369   7.088   4.857 -0.1627 -0.4420  0.8673
   93MOL0     N12437   5.453   7.204   4.903  0.0361 -0.1081 -0.7164
   93MOL0     C12438   5.572   7.202   4.972 -0.0224  0.0502 -0.9520
   93MOL0     C12439   5.606   7.328   4.985  0.1226 -0.1949  0.0232
   93MOL0     C12440   5.730   7.368   5.069  0.5836  0.4150  0.5264
   93MOL0     C12441   5.832   7.434   4.977 -0.6435 -0.4131  0.4787
   93MOL0     C12442   5.924   7.341   4.893 -0.5688 -0.5059 -0.7917
   93MOL0     C12443   6.018   7.264   4.991 -0.3180 -0.6663 -0.6479
   93MOL0     O12444   6.105   7.180   4.908  0.4489  0.2899 -0.5781
   93MOL0     C12445   6.239   7.159   4.948  0.8121 -0.4532 -0.1466
   93MOL0     C12446   6.274   7.194   5.081 -0.2124 -0.4071  1.2393
   93MOL0     C12447   6.411   7.178   5.119  0.5387  0.3611  0.1373
   93MOL0     C12448   6.512   7.139   5.029 -0.0348 -0.1989  1.0420
   93MOL0     C12449   6.654   7.134   5.073 -0.3092 -0.7549 -0.2645
   93MOL0     O12450   6.748   7.173   4.980 -0.4883 -0.5053 -0.2890
   93MOL0     C12451   6.875   7.138   4.969 -0.5560  0.0982 -0.7634
   93MOL0     C12452   6.938   7.162   4.846  0.0128 -0.1980 -0.0129
   93MOL0     C12453   7.079   7.147   4.829 -0.0771 -0.5304 -0.2154
   93MOL0     C12454   7.155   7.083   4.933 -0.2221 -0.5292  0.5530
   93MOL0     O12455   7.293   7.062   4.918 -0.4071  0.5397 -0.4672
   93MOL0     C12456   7.352   7.031   4.795  0.2613 -0.0690 -0.5450
   93MOL0     C12457   7.502   6.998   4.816  0.5110 -0.0614  0.4844
   93MOL0     C12458   7.579   7.131   4.844  0.0921  0.0913 -0.6796
   93MOL0     C12459   7.723   7.107   4.898  0.9358  0.4304 -0.2310
   93MOL0     C12460   7.781   7.225   4.972  0.1960  0.6747  0.8482
   93MOL0     C12461   7.727   7.236   5.118 -0.2092  1.0702  0.0178
   93MOL0     C12462   7.820   7.325   5.197 -0.1999  0.5083 -1.2214
   93MOL0     C12463   7.823   7.466   5.152  0.3075  0.5449 -0.1479
   93MOL0    Cl12464   7.911   7.568   5.279  0.0859  0.0587  0.0374
   93MOL0     C12465   7.094   7.059   5.056 -0.3428 -0.8715  0.2936
   93MOL0     C12466   6.956   7.082   5.068  0.4085  0.3480  0.2938
   93MOL0     O12467   6.678   7.105   5.193  0.0796 -0.1465  0.0733
   93MOL0     C12468   6.470   7.118   4.901 -0.1544  0.0626 -0.4132
   93MOL0     C12469   6.336   7.117   4.868 -0.3137 -0.1967  0.3037
   93MOL0     N12470   5.527   7.409   4.909  0.7639 -0.6429  0.1717
   93MOL0     N12471   5.432   7.332   4.862  0.9375  0.4617 -0.5481
   93MOL0     C12472   4.521   6.690   5.104  0.0807  0.1149  0.6015
   93MOL0     C12473   4.415   6.628   5.176 -0.2069  1.1051  0.3230
   93MOL0     C12474   4.092   6.547   5.473  0.6836 -0.1740 -0.1892
   93MOL0     C12475   4.109   6.498   5.610 -0.5785 -0.0707  0.2240
   93MOL0     C12476   4.001   6.430   5.678 -0.1210  0.1276  0.2819
   93MOL0     C12477   3.883   6.411   5.614  1.2276  0.1860 -0.2365
   93MOL0     O12478   3.777   6.348   5.669  0.4927 -0.0384  0.8217
   93MOL0     C12479   3.801   6.263   5.782 -0.2714 -0.5680 -0.5837
   93MOL0     C12480   3.689   6.163   5.804 -0.3367 -0.1413  0.5386
   93MOL0     C12481   3.573   6.222   5.887  0.7503  0.9892  0.2896
   93MOL0     C12482   3.467   6.121   5.928 -0.0640 -0.6285  0.1262
   93MOL0     C12483   3.516   6.042   6.036  0.4001 -0.2952  0.2665
   93MOL0     C12484   3.559   5.980   6.135 -1.0964  0.3956  0.9532
   93MOL0     C12485   3.863   6.462   5.489  0.4361  0.0728 -0.0695
   93MOL0     C12486   3.965   6.530   5.414  0.5415 -0.0360  0.4201
   93MOL0     C12487   3.925   6.566   5.272 -0.2709  0.5002  0.1561
   93MOL0     H12488   4.197   6.877   5.118  0.5247  0.4850  0.3097
   93MOL0     H12489   4.386   6.982   5.016  0.0894 -0.1219  1.0744
   93MOL0     H12490   4.492   6.926   4.798 -2.5344  1.2138  2.2543
   93MOL0     H12491   4.568   7.053   4.898 -0.4369 -0.1718  0.3720
   93MOL0     H12492   4.695   7.030   4.699  0.5273 -1.3751  0.5365
   93MOL0     H12493   4.690   6.862   4.706  0.0176 -0.1422  0.2646
   93MOL0     H12494   4.868   6.859   4.869 -0.8005  0.2574 -0.2421
   93MOL0     H12495   4.814   7.007   4.930 -0.9108  5.0116 -2.2950
   93MOL0     H12496   4.930   6.980   4.643  0.4395  2.2037 -0.7852
   93MOL0     H12497   4.912   7.131   4.742 -0.2874  0.0580  0.6735
   93MOL0     H12498   5.100   6.881   4.792  1.0972 -0.7866  2.5382
   93MOL0     H12499   5.147   7.024   4.708  0.4941 -3.7294 -1.5025
   93MOL0     H12500   5.117   7.171   4.911  1.3625 -0.2125 -1.9312
   93MOL0     H12501   5.043   7.042   4.990 -2.7908  0.9105 -2.5064
   93MOL0     H12502   5.293   6.936   4.990  0.1769 -0.1824 -3.5694
   93MOL0     H12503   5.288   7.091   5.059  0.4597 -0.1628  1.3189
   93MOL0     H12504   5.430   7.010   4.809 -1.9107 -0.9024 -0.7265
   93MOL0     H12505   5.299   7.126   4.782 -2.7118 -2.2968  2.1444
   93MOL0     H12506   5.631   7.121   5.015  2.9830  1.4411 -2.1527
   93MOL0     H12507   5.704   7.437   5.149  0.0601 -1.2515  1.8471
   93MOL0     H12508   5.771   7.279   5.116 -1.6050 -1.6920 -1.2807
   93MOL0     H12509   5.792   7.507   4.905  2.5223 -1.7836 -2.9977
   93MOL0     H12510   5.905   7.489   5.036  1.0383 -0.3941 -1.5171
   93MOL0     H12511   5.991   7.382   4.818  0.1747 -1.3815 -0.6230
   93MOL0     H12512   5.854   7.275   4.840 -1.1356 -2.0823  1.7544
   93MOL0     H12513   5.957   7.202   5.057  1.2896  1.3924  3.0802
   93MOL0     H12514   6.080   7.341   5.039  0.8372 -0.4318 -2.3961
   93MOL0     H12515   6.201   7.232   5.152 -1.5649  0.0061 -0.3258
   93MOL0     H12516   6.436   7.195   5.223  0.4428  0.2252  0.1835
   93MOL0     H12517   6.884   7.204   4.762 -2.8075 -2.1200  0.6681
   93MOL0     H12518   7.128   7.181   4.738 -1.0367  1.9291  0.1233
   93MOL0     H12519   7.299   6.944   4.754 -0.0431 -0.2023  0.1116
   93MOL0     H12520   7.341   7.111   4.721  2.8205 -0.3692 -1.3553
   93MOL0     H12521   7.503   6.932   4.903 -0.6961  0.4760  0.9276
   93MOL0     H12522   7.545   6.947   4.729 -0.5467 -0.2294  0.0406
   93MOL0     H12523   7.591   7.195   4.756  1.8100  0.0321 -0.5274
   93MOL0     H12524   7.518   7.182   4.918 -2.8770 -2.0012 -1.5005
   93MOL0     H12525   7.791   7.091   4.814  0.6259  0.0741 -0.4196
   93MOL0     H12526   7.722   7.012   4.953  2.2946  1.4389  1.6425
   93MOL0     H12527   7.772   7.320   4.919  0.5625  0.0389 -0.3782
   93MOL0     H12528   7.886   7.195   4.974  0.1953  0.6395  0.3365
   93MOL0     H12529   7.626   7.278   5.112 -0.2241  0.8152 -3.2839
   93MOL0     H12530   7.723   7.133   5.155 -3.2435  0.1379 -2.4707
   93MOL0     H12531   7.923   7.290   5.194  0.3469  0.4264  5.0947
   93MOL0     H12532   7.801   7.327   5.305 -0.2293  0.4231 -1.2251
   93MOL0     H12533   7.864   7.479   5.051 -1.6295  3.1889 -0.7043
   93MOL0     H12534   7.724   7.511   5.149  0.4089  0.8201  0.4534
   93MOL0     H12535   7.149   7.020   5.141  0.5049  2.0940  1.2230
   93MOL0     H12536   6.916   7.048   5.163  3.1792  1.8040  2.1377
   93MOL0     H12537   6.552   7.099   4.833 -1.0227  1.3908 -1.9101
   93MOL0     H12538   6.297   7.103   4.768 -1.5538 -1.4350  0.9327
   93MOL0     H12539   4.620   6.646   5.096  0.3823  1.1333 -2.5459
   93MOL0     H12540   4.435   6.529   5.217 -0.2599  0.2764 -1.5633
   93MOL0     H12541   4.209   6.511   5.650  0.5274 -0.0674 -2.3312
   93MOL0     H12542   4.019   6.394   5.779 -0.9890 -1.7359 -0.1914
   93MOL0     H12543   3.819   6.313   5.877  0.8974  3.4264 -2.7146
   93MOL0     H12544   3.896   6.214   5.756 -0.6553 -1.1038 -1.0021
   93MOL0     H12545   3.743   6.085   5.859  1.3574  1.6424  1.5398
   93MOL0     H12546   3.650   6.113   5.714 -2.1463 -2.9126  2.6666
   93MOL0     H12547   3.529   6.293   5.816  1.1580 -1.6388 -2.7957
   93MOL0     H12548   3.605   6.270   5.980  3.3980 -2.6422  1.4623
   93MOL0     H12549   3.388   6.184   5.971  1.1554 -0.2974  2.0169
   93MOL0     H12550   3.446   6.049   5.849 -0.1620 -1.7582  1.1556
   93MOL0     H12551   3.587   5.922   6.220 -3.4855 -2.7672 -0.2291
   93MOL0     H12552   3.770   6.443   5.437  0.3749  1.2931 -0.4413
   93MOL0     H12553   3.817   6.556   5.257 -0.1522  1.6776 -1.9671
   93MOL0     H12554   3.938   6.670   5.241 -3.0414  0.0147 -3.2507
   93MOL0     H12555   3.970   6.504   5.194 -0.0489 -0.0696  0.7327
   94MOL0     O12556   9.780   1.837   7.360 -0.7247 -0.6604  0.2483
   94MOL0     C12557   9.873   1.895   7.297  0.4821 -1.0161  0.7856
   94MOL0     O12558   9.851   1.980   7.195  0.1490 -0.6468 -0.6438
   94MOL0     C12559   9.737   2.053   7.178  0.5416  0.6187 -0.0684
   94MOL0     C12560   9.673   2.046   7.050 -0.0250 -0.1015 -0.0966
   94MOL0     C12561   9.569   2.132   7.019  0.0682  0.2763  0.0201
   94MOL0     C12562   9.526   2.229   7.118 -0.1540 -1.2233  0.1147
   94MOL0     O12563   9.438   2.331   7.110  0.2735  0.5321  0.4178
   94MOL0     C12564   9.366   2.342   6.983  0.3580  1.2618 -0.2124
   94MOL0     C12565   9.444   2.428   6.880 -0.7301  0.9639 -0.3635
   94MOL0     C12566   9.340   2.486   6.777 -0.2606 -0.3719  0.2061
   94MOL0     C12567   9.404   2.597   6.690  0.6615  0.1396 -0.2709
   94MOL0     C12568   9.305   2.669   6.593 -0.1770  0.2229 -0.6695
   94MOL0     C12569   9.360   2.751   6.483 -0.0340 -0.1192 -0.1520
   94MOL0     C12570   9.247   2.842   6.434  0.0175  1.2561 -0.5949
   94MOL0     C12571   9.208   2.961   6.528  0.1196  0.1778  0.5447
   94MOL0     N12572   9.310   3.070   6.524 -0.3639  0.1971  0.1695
   94MOL0     C12573   9.416   3.088   6.619 -0.1270  0.2557  0.5033
   94MOL0     C12574   9.481   3.195   6.569 -0.6484 -0.4227 -0.1332
   94MOL0     C12575   9.594   3.260   6.651  1.3741 -0.2538  0.3183
   94MOL0     C12576   9.711   3.166   6.700  0.0764 -0.6370  0.1230
   94MOL0     C12577   9.771   3.093   6.577 -0.6904  0.6862  0.3011
   94MOL0     C12578   9.871   2.983   6.614  0.5598  0.4825  0.3406
   94MOL0     O12579   9.977   3.040   6.680  0.0035 -0.6276  0.2645
   94MOL0     C12580  10.075   2.945   6.714 -0.1328 -0.2106 -0.5025
   94MOL0     C12581  10.205   2.979   6.686 -1.1678  0.2397  0.4379
   94MOL0     C12582  10.313   2.904   6.742 -0.9419 -0.6046 -1.0408
   94MOL0     C12583  10.288   2.808   6.834 -0.0472 -0.1461  0.5721
   94MOL0     C12584  10.397   2.744   6.911 -0.8990 -0.6353 -1.0087
   94MOL0     O12585  10.355   2.661   7.013 -0.0642 -0.1933  0.2781
   94MOL0     C12586  10.425   2.616   7.122 -0.1651 -0.7507 -0.3753
   94MOL0     C12587  10.374   2.634   7.250  0.5910  0.9763  0.9860
   94MOL0     C12588  10.448   2.595   7.366 -0.0243  0.7193  1.5609
   94MOL0     C12589  10.586   2.565   7.358 -1.1156 -0.9015 -0.1011
   94MOL0     O12590  10.667   2.541   7.466 -0.0616 -0.1883 -0.3259
   94MOL0     C12591  10.653   2.608   7.591  0.5313  0.0728  0.5463
   94MOL0     C12592  10.780   2.581   7.672  0.4568 -0.2695 -0.2558
   94MOL0     C12593  10.814   2.695   7.777 -0.0279  0.2918 -0.4948
   94MOL0     C12594  10.840   2.632   7.904  0.1189  0.0577 -0.1374
   94MOL0     C12595  10.908   2.736   7.998  0.5349 -1.0288 -0.3687
   94MOL0     C12596  10.912   2.681   8.144 -0.4885  0.2792  0.2401
   94MOL0     C12597  10.982   2.765   8.238  0.4269 -0.0783 -0.5475
   94MOL0     C12598  10.975   2.715   8.386 -0.0773 -0.7698  0.2881
   94MOL0    Cl12599  10.804   2.742   8.445  0.2813 -0.0683  0.2694
   94MOL0     C12600  10.644   2.547   7.227 -0.1092 -0.0672  0.4072
   94MOL0     C12601  10.564   2.574   7.112  0.5161  0.9168  0.2137
   94MOL0     O12602  10.516   2.793   6.897 -0.3802 -0.0228 -0.7301
   94MOL0     C12603  10.152   2.769   6.861  0.3171 -0.1260 -1.1737
   94MOL0     C12604  10.049   2.835   6.805 -0.4166 -0.2549 -0.0871
   94MOL0     N12605   9.431   3.236   6.442 -0.7049  0.1608 -0.7218
   94MOL0     N12606   9.331   3.155   6.422  0.5063 -0.1447 -0.5273
   94MOL0     C12607   9.589   2.238   7.245 -0.2835  0.1281  0.0003
   94MOL0     C12608   9.691   2.144   7.278 -1.2240 -0.2173  0.9276
   94MOL0     C12609  10.018   1.868   7.333  0.7779  0.7184  0.5168
   94MOL0     C12610  10.035   1.783   7.445 -0.5753  0.4005  0.1208
   94MOL0     C12611  10.157   1.743   7.494 -1.0193 -1.2097 -0.0805
   94MOL0     C12612  10.269   1.803   7.428  1.2324 -0.0281 -0.5003
   94MOL0     O12613  10.398   1.759   7.455 -0.1225 -0.2796 -0.0746
   94MOL0     C12614  10.440   1.678   7.570  0.4801 -0.2046  0.1770
   94MOL0     C12615  10.455   1.745   7.703  0.4323 -0.3825  0.8400
   94MOL0     C12616  10.469   1.640   7.806 -1.1537  0.5183  0.8517
   94MOL0     C12617  10.523   1.702   7.941  0.1427  0.5243  0.0168
   94MOL0     C12618  10.669   1.663   7.973 -0.5059 -0.2623  0.0078
   94MOL0     C12619  10.791   1.637   7.984  0.0863 -0.7204 -0.0747
   94MOL0     C12620  10.260   1.887   7.315  0.4414  0.5794 -0.2530
   94MOL0     C12621  10.128   1.918   7.260 -0.2205 -0.9407 -1.2522
   94MOL0     C12622  10.133   2.017   7.145 -0.1707  0.2138 -0.2811
   94MOL0     H12623   9.698   1.973   6.974  2.0984  1.2666 -0.8008
   94MOL0     H12624   9.519   2.112   6.924  1.6874 -3.1644 -0.2652
   94MOL0     H12625   9.349   2.242   6.942 -0.5728  0.1121  2.7605
   94MOL0     H12626   9.269   2.391   6.997  0.0480 -0.1437  3.8414
   94MOL0     H12627   9.531   2.378   6.837  0.5758  0.4378  2.6460
   94MOL0     H12628   9.480   2.517   6.933 -1.0099  0.9401 -0.1335
   94MOL0     H12629   9.264   2.533   6.840  1.8632  2.3171  0.9711
   94MOL0     H12630   9.299   2.409   6.712 -0.8349 -0.9527  1.2350
   94MOL0     H12631   9.455   2.676   6.747 -0.2977  1.3922 -1.0960
   94MOL0     H12632   9.481   2.545   6.632 -0.3809 -1.1243 -0.5657
   94MOL0     H12633   9.225   2.600   6.563  0.8493 -0.5882 -1.6111
   94MOL0     H12634   9.233   2.726   6.654 -2.6100 -0.9625 -2.2662
   94MOL0     H12635   9.443   2.813   6.519  2.1080 -2.8850  0.0332
   94MOL0     H12636   9.403   2.707   6.393 -1.3799 -0.3170 -0.7300
   94MOL0     H12637   9.159   2.784   6.404  2.5274 -2.1762 -2.0388
   94MOL0     H12638   9.289   2.887   6.343  0.2768  0.4352 -0.8884
   94MOL0     H12639   9.121   3.018   6.494  0.9977  1.0338 -0.3627
   94MOL0     H12640   9.198   2.939   6.635 -0.2191  0.4473  0.5704
   94MOL0     H12641   9.434   3.056   6.721 -0.7845  4.2271  2.0273
   94MOL0     H12642   9.639   3.338   6.589  3.1056 -1.5226 -0.0911
   94MOL0     H12643   9.551   3.308   6.740 -0.3637 -0.3045 -0.4551
   94MOL0     H12644   9.774   3.225   6.767 -1.1452 -0.1752  0.9068
   94MOL0     H12645   9.676   3.088   6.769 -0.8146  0.4831  0.9858
   94MOL0     H12646   9.804   3.164   6.501  0.4420 -0.8435 -0.6716
   94MOL0     H12647   9.699   3.029   6.526  0.4992  0.8754 -1.6884
   94MOL0     H12648   9.916   2.938   6.525  1.6913  1.0609  0.5998
   94MOL0     H12649   9.820   2.899   6.662  1.0404  0.2852  0.5160
   94MOL0     H12650  10.224   3.052   6.608 -2.7131 -1.9693 -2.1902
   94MOL0     H12651  10.415   2.923   6.709 -1.0339 -0.0757 -1.0312
   94MOL0     H12652  10.277   2.682   7.257 -0.4541 -0.8442 -0.1251
   94MOL0     H12653  10.396   2.594   7.462  1.1099 -7.0491  2.7203
   94MOL0     H12654  10.624   2.713   7.580  0.0233  0.1001  2.0020
   94MOL0     H12655  10.573   2.560   7.648 -1.5134  2.5858 -0.0120
   94MOL0     H12656  10.750   2.497   7.735 -2.9320  0.1857 -1.0419
   94MOL0     H12657  10.867   2.548   7.615  0.6646 -1.5786  0.7710
   94MOL0     H12658  10.905   2.737   7.732  1.1482 -1.8195 -0.2331
   94MOL0     H12659  10.732   2.767   7.782  1.7038  2.3796 -0.3927
   94MOL0     H12660  10.901   2.542   7.904 -1.4723 -1.0604 -1.2019
   94MOL0     H12661  10.745   2.600   7.948  1.0885 -0.1635  1.9263
   94MOL0     H12662  10.857   2.833   8.007  1.1569 -0.5842 -1.3994
   94MOL0     H12663  11.007   2.755   7.953 -0.7560  0.0329 -2.9728
   94MOL0     H12664  10.821   2.650   8.195  0.5577 -3.9193 -0.1122
   94MOL0     H12665  10.959   2.582   8.140 -2.3079 -0.7490  2.3991
   94MOL0     H12666  10.928   2.860   8.234  0.1646 -0.2599 -1.6285
   94MOL0     H12667  11.080   2.801   8.209  0.2078  1.0979  0.1175
   94MOL0     H12668  10.992   2.607   8.390 -0.6923 -1.0081 -1.9510
   94MOL0     H12669  11.050   2.773   8.440 -0.7253  1.1111 -0.7388
   94MOL0     H12670  10.746   2.511   7.231 -0.2434 -0.9602 -2.3267
   94MOL0     H12671  10.588   2.575   7.006 -4.3738 -1.0240 -1.2249
   94MOL0     H12672  10.135   2.686   6.929 -1.9168  0.3707 -1.0367
   94MOL0     H12673   9.946   2.831   6.839 -0.8840 -0.4508 -1.4830
   94MOL0     H12674   9.555   2.316   7.312 -3.5299 -1.0420 -0.1030
   94MOL0     H12675   9.744   2.156   7.372 -1.7037  0.8419  1.0767
   94MOL0     H12676   9.953   1.749   7.507 -0.4831  1.2802  0.7429
   94MOL0     H12677  10.167   1.673   7.576 -3.7281 -3.9837 -1.9265
   94MOL0     H12678  10.539   1.635   7.548 -0.2051 -0.6000 -2.5393
   94MOL0     H12679  10.372   1.594   7.587 -1.7022  1.8836  2.5510
   94MOL0     H12680  10.368   1.808   7.722  0.3217 -0.2813  0.0521
   94MOL0     H12681  10.549   1.800   7.694 -0.4398  0.9891 -0.2705
   94MOL0     H12682  10.546   1.572   7.769  0.4464  1.4605  2.2451
   94MOL0     H12683  10.383   1.580   7.838 -0.1788  0.4373  3.6024
   94MOL0     H12684  10.520   1.811   7.928 -2.5801  0.2439 -3.0569
   94MOL0     H12685  10.469   1.655   8.024 -0.1298  0.6804 -0.0711
   94MOL0     H12686  10.897   1.628   7.976  0.2316  1.0506 -0.4727
   94MOL0     H12687  10.351   1.925   7.271 -0.3716 -1.0272 -3.6888
   94MOL0     H12688  10.228   2.008   7.092  1.6537 -0.9833  2.9052
   94MOL0     H12689  10.054   2.004   7.071 -1.1162  0.8265  0.5816
   94MOL0     H12690  10.128   2.122   7.176  1.1397  0.2652 -0.2105
   95MOL0     O12691   5.679   9.883   6.648  0.1667 -0.3688 -0.1737
   95MOL0     C12692   5.670   9.860   6.768  0.5778  0.5463  0.8246
   95MOL0     O12693   5.774   9.803   6.838 -0.1787 -1.0562  0.1896
   95MOL0     C12694   5.879   9.757   6.772  0.3942  0.7183  0.3547
   95MOL0     C12695   5.999   9.815   6.805  0.2444 -0.3072 -0.6195
   95MOL0     C12696   6.114   9.771   6.737  0.2946 -0.5823 -0.6116
   95MOL0     C12697   6.108   9.669   6.638  0.8829  0.1785 -0.2023
   95MOL0     O12698   6.229   9.637   6.589 -0.0661 -0.0251  0.1736
   95MOL0     C12699   6.237   9.602   6.455 -0.1882 -0.0351  0.3878
   95MOL0     C12700   6.365   9.509   6.466  0.3851  0.3132 -1.0281
   95MOL0     C12701   6.487   9.591   6.496 -0.1500 -0.1246  0.0903
   95MOL0     C12702   6.606   9.504   6.527 -1.4477 -0.2551 -0.9848
   95MOL0     C12703   6.672   9.441   6.406 -0.0558 -0.9519  0.1937
   95MOL0     C12704   6.791   9.359   6.439 -0.5735 -0.1074 -0.2226
   95MOL0     C12705   6.827   9.264   6.325  0.1322 -0.5921  0.2472
   95MOL0     C12706   6.982   9.234   6.319  0.1301 -0.4423 -0.9960
   95MOL0     N12707   7.060   9.355   6.274  0.7343  0.2366  0.5555
   95MOL0     C12708   7.181   9.392   6.329  0.6695  0.3182 -0.9006
   95MOL0     C12709   7.237   9.471   6.238 -0.6482  0.4224 -0.1332
   95MOL0     C12710   7.377   9.516   6.237 -0.1021  0.2639 -0.1823
   95MOL0     C12711   7.456   9.504   6.113 -0.3604  0.5268  1.2964
   95MOL0     C12712   7.522   9.370   6.098  0.7000  0.0173  0.0127
   95MOL0     C12713   7.587   9.343   5.961 -1.1615 -0.1374 -0.6831
   95MOL0     O12714   7.642   9.468   5.903  0.1696  0.2233 -0.3013
   95MOL0     C12715   7.769   9.469   5.862  0.7667 -0.2864  0.0360
   95MOL0     C12716   7.828   9.358   5.797 -0.1290 -1.1481  0.2950
   95MOL0     C12717   7.964   9.374   5.753  0.2566  0.3889  1.0177
   95MOL0     C12718   8.038   9.488   5.773  0.5446 -0.3653  0.6816
   95MOL0     C12719   8.178   9.489   5.735 -0.2339 -0.3976 -0.0235
   95MOL0     O12720   8.240   9.600   5.789  0.3023 -0.6510  0.4900
   95MOL0     C12721   8.371   9.595   5.772 -0.5198 -0.3277 -0.3648
   95MOL0     C12722   8.460   9.591   5.874  0.2816  0.1656 -0.5658
   95MOL0     C12723   8.599   9.589   5.861  0.2354  0.5429 -0.4468
   95MOL0     C12724   8.659   9.589   5.732  0.7033 -0.2876  0.3748
   95MOL0     O12725   8.795   9.584   5.712  0.6756 -0.7495  0.7159
   95MOL0     C12726   8.863   9.466   5.756  0.9457  0.1457 -0.4619
   95MOL0     C12727   8.963   9.422   5.654  0.2753 -0.4513  0.1326
   95MOL0     C12728   9.074   9.365   5.732 -0.2678  0.1717  1.1325
   95MOL0     C12729   9.192   9.335   5.641 -0.0987 -0.5059 -0.4791
   95MOL0     C12730   9.331   9.328   5.733  0.4385 -0.2209  0.5474
   95MOL0     C12731   9.381   9.189   5.759  0.3990 -0.0248  0.1670
   95MOL0     C12732   9.303   9.099   5.858 -0.1713  1.0195  0.6130
   95MOL0     C12733   9.386   8.973   5.907 -0.4597 -0.1545 -0.0762
   95MOL0    Cl12734   9.440   8.882   5.766 -0.2919  0.2366 -0.0599
   95MOL0     C12735   8.570   9.606   5.622 -0.3624 -0.5409 -0.0787
   95MOL0     C12736   8.431   9.612   5.641  0.5354  0.7000  0.2162
   95MOL0     O12737   8.228   9.402   5.662  0.6713 -0.0693  0.6236
   95MOL0     C12738   7.973   9.599   5.823 -0.3924 -0.1546  0.4069
   95MOL0     C12739   7.840   9.586   5.866  1.0895 -0.2982  0.2030
   95MOL0     N12740   7.164   9.473   6.121  0.7521  0.4205 -0.8828
   95MOL0     N12741   7.052   9.403   6.142  0.1018 -0.7821  0.8256
   95MOL0     C12742   5.986   9.609   6.607  0.0116  0.2926  0.0948
   95MOL0     C12743   5.872   9.659   6.668  0.6117 -0.3651 -1.1381
   95MOL0     C12744   5.541   9.883   6.844  0.8294 -0.6496  0.2411
   95MOL0     C12745   5.541   9.867   6.983 -0.8962 -0.0868  0.5659
   95MOL0     C12746   5.428   9.900   7.054  0.7959  0.2928 -0.5318
   95MOL0     C12747   5.307   9.937   6.997 -0.1288  0.0548  0.3172
   95MOL0     O12748   5.187   9.941   7.058 -0.4401 -0.1747  0.0673
   95MOL0     C12749   5.179   9.946   7.208 -0.0689 -0.4769  1.0994
   95MOL0     C12750   5.037   9.987   7.232 -0.1512  0.1204  0.4671
   95MOL0     C12751   4.944   9.877   7.186  0.5370 -0.6631 -0.0641
   95MOL0     C12752   4.865   9.805   7.292  0.5506 -0.1474  0.7145
   95MOL0     C12753   4.944   9.756   7.397 -0.2046  0.8190 -0.3225
   95MOL0     C12754   5.002   9.678   7.474  0.2291 -0.3564  0.2067
   95MOL0     C12755   5.300   9.939   6.858 -0.3123 -0.2388  0.2128
   95MOL0     C12756   5.414   9.910   6.778  0.3963  0.6214  0.2674
   95MOL0     C12757   5.383   9.912   6.629  0.2319 -0.9276  0.5257
   95MOL0     H12758   5.994   9.894   6.880  0.2082 -1.2980  0.4415
   95MOL0     H12759   6.205   9.830   6.749  0.1661 -0.2637 -1.1619
   95MOL0     H12760   6.156   9.538   6.420 -1.2600  1.7026 -0.3757
   95MOL0     H12761   6.247   9.685   6.385  1.1224  1.3648  2.1205
   95MOL0     H12762   6.379   9.446   6.377 -0.3933 -1.8505  0.2881
   95MOL0     H12763   6.340   9.437   6.544 -2.9419  1.5040 -0.8394
   95MOL0     H12764   6.469   9.653   6.584  2.1329  2.0970 -0.8633
   95MOL0     H12765   6.497   9.652   6.405 -0.1292  0.1131  0.2519
   95MOL0     H12766   6.682   9.567   6.573 -1.2124 -2.3426  1.7037
   95MOL0     H12767   6.581   9.429   6.603 -0.2439  0.5164  0.2218
   95MOL0     H12768   6.592   9.381   6.361 -1.9426  2.3724 -1.2064
   95MOL0     H12769   6.690   9.524   6.337 -2.6644 -0.9130 -0.5332
   95MOL0     H12770   6.880   9.415   6.467  0.5332 -1.9642  0.1281
   95MOL0     H12771   6.775   9.295   6.526  1.0610  0.1108  0.2689
   95MOL0     H12772   6.799   9.309   6.229  3.8603 -2.2660 -1.8287
   95MOL0     H12773   6.774   9.170   6.344  0.7626 -0.3732  3.9003
   95MOL0     H12774   7.008   9.216   6.423  0.2912  1.3745 -0.6876
   95MOL0     H12775   6.999   9.143   6.261  1.3923 -0.4521 -0.6198
   95MOL0     H12776   7.217   9.362   6.427  0.2334  0.6560 -0.6367
   95MOL0     H12777   7.389   9.622   6.263  0.3209  0.2715 -0.4038
   95MOL0     H12778   7.435   9.457   6.309 -0.4414 -1.8796 -1.5811
   95MOL0     H12779   7.394   9.527   6.026  2.9786  2.2972 -0.8380
   95MOL0     H12780   7.541   9.573   6.111  0.4262 -0.4248  0.6145
   95MOL0     H12781   7.441   9.297   6.110 -0.2358  0.8321 -1.1133
   95MOL0     H12782   7.596   9.356   6.177 -0.7760  0.5972  1.5788
   95MOL0     H12783   7.514   9.288   5.902 -1.0285 -0.7483 -0.2960
   95MOL0     H12784   7.661   9.264   5.975 -1.0416  0.2983  1.6624
   95MOL0     H12785   7.774   9.267   5.777 -4.9799  1.8138 -1.7165
   95MOL0     H12786   8.008   9.283   5.714  2.3082  1.7809 -0.0940
   95MOL0     H12787   8.422   9.614   5.973 -0.4806 -2.2934 -0.2247
   95MOL0     H12788   8.666   9.594   5.946  0.1623  0.2094 -0.3665
   95MOL0     H12789   8.909   9.483   5.854 -1.0960  2.4359  0.2266
   95MOL0     H12790   8.786   9.391   5.776  1.8271 -0.9878 -1.1961
   95MOL0     H12791   8.915   9.356   5.582  0.1234  0.9623 -1.1114
   95MOL0     H12792   8.998   9.514   5.607  0.1254  0.8054  2.3132
   95MOL0     H12793   9.107   9.440   5.804 -1.0398  0.3068  1.3438
   95MOL0     H12794   9.055   9.266   5.775  0.7367 -0.2256  0.7004
   95MOL0     H12795   9.205   9.415   5.566 -0.3251 -0.9753 -1.0303
   95MOL0     H12796   9.190   9.241   5.585  0.4913  1.4794 -4.1886
   95MOL0     H12797   9.319   9.372   5.832 -2.5622 -2.6449  1.4308
   95MOL0     H12798   9.403   9.382   5.671 -1.7945  2.4153  0.0363
   95MOL0     H12799   9.384   9.144   5.659 -1.1877  4.2070 -2.0349
   95MOL0     H12800   9.483   9.177   5.798 -0.9950 -2.0075  3.6585
   95MOL0     H12801   9.216   9.077   5.795  1.0482  0.5412 -0.9807
   95MOL0     H12802   9.263   9.151   5.945 -0.3036  2.4119 -0.2504
   95MOL0     H12803   9.477   9.004   5.959  0.4600 -1.3721 -0.8984
   95MOL0     H12804   9.319   8.915   5.970  0.8663  0.9646  2.4986
   95MOL0     H12805   8.608   9.619   5.522 -1.7014  2.4538 -0.2977
   95MOL0     H12806   8.377   9.621   5.548  2.3330 -1.2906 -1.1047
   95MOL0     H12807   8.017   9.696   5.843 -0.1094 -0.3978  0.9867
   95MOL0     H12808   7.796   9.662   5.930 -1.0903 -1.5874  0.3438
   95MOL0     H12809   5.969   9.539   6.526 -0.5777  0.1765  0.3190
   95MOL0     H12810   5.774   9.617   6.646  0.3960  0.0099 -0.9098
   95MOL0     H12811   5.629   9.824   7.031 -0.9960 -1.2585 -0.2518
   95MOL0     H12812   5.436   9.887   7.162 -0.6861  0.2273 -0.4211
   95MOL0     H12813   5.239  10.028   7.249  0.7936 -0.5892  0.0973
   95MOL0     H12814   5.219   9.849   7.238  1.1645 -0.1481  0.5843
   95MOL0     H12815   5.002  10.083   7.192  1.3762  0.5581  0.1016
   95MOL0     H12816   5.023   9.999   7.339 -0.7497  1.5896  0.2423
   95MOL0     H12817   4.997   9.799   7.132  1.2928 -0.3983  0.2759
   95MOL0     H12818   4.886   9.911   7.099  2.2531 -1.0010 -1.3883
   95MOL0     H12819   4.786   9.872   7.325  0.3454 -0.5142  0.9747
   95MOL0     H12820   4.814   9.713   7.260  1.4076 -0.0967 -0.9169
   95MOL0     H12821   5.043   9.608   7.543  3.2465  1.5653  0.5520
   95MOL0     H12822   5.202   9.962   6.819  0.3220 -0.6289 -1.7104
   95MOL0     H12823   5.415  10.011   6.596 -0.1262 -1.3409 -1.1608
   95MOL0     H12824   5.436   9.835   6.573 -3.1655 -2.5126 -0.7757
   95MOL0     H12825   5.276   9.908   6.607  0.3379 -0.6420 -0.0754
   96MOL0     O12826   0.471   8.729   2.439  0.4431  0.1581  1.1102
   96MOL0     C12827   0.449   8.666   2.537  0.0319 -1.0732  0.0095
   96MOL0     O12828   0.488   8.534   2.556  0.0084 -0.5721 -0.1533
   96MOL0     C12829   0.527   8.458   2.452 -1.1464 -0.3735 -0.1223
   96MOL0     C12830   0.433   8.391   2.364 -0.4844  0.0785  0.0188
   96MOL0     C12831   0.473   8.316   2.254 -0.6604 -0.0367 -0.1072
   96MOL0     C12832   0.608   8.284   2.244  0.5289  0.1351 -0.2299
   96MOL0     O12833   0.663   8.202   2.140 -0.4894  0.2239 -0.2682
   96MOL0     C12834   0.588   8.083   2.124 -0.6136 -0.3619 -0.0936
   96MOL0     C12835   0.643   8.004   2.016  0.2989 -0.3419 -0.0577
   96MOL0     C12836   0.583   7.875   1.993  0.3508 -0.3063 -0.0462
   96MOL0     C12837   0.669   7.788   1.893 -0.1957 -0.1372  0.4523
   96MOL0     C12838   0.603   7.655   1.861 -0.1682 -0.7831 -0.8114
   96MOL0     C12839   0.677   7.564   1.761 -0.6183 -0.2618  0.4543
   96MOL0     C12840   0.778   7.472   1.822  0.0206  0.2770  0.6762
   96MOL0     C12841   0.835   7.368   1.720  0.0573  0.2664  0.0065
   96MOL0     N12842   0.737   7.266   1.671  0.4176  0.2065  0.0728
   96MOL0     C12843   0.643   7.200   1.738  0.5269 -0.0421  0.1216
   96MOL0     C12844   0.602   7.099   1.661 -0.2639  0.3051 -0.2202
   96MOL0     C12845   0.517   6.993   1.701  0.0252  0.3660 -0.3084
   96MOL0     C12846   0.579   6.857   1.705 -0.5685  0.8575  0.3979
   96MOL0     C12847   0.490   6.766   1.803 -0.2602  0.0995  1.0145
   96MOL0     C12848   0.516   6.618   1.780  0.3324 -0.8523 -0.4419
   96MOL0     O12849   0.448   6.583   1.661 -0.3508  0.2419  0.3422
   96MOL0     C12850   0.440   6.445   1.647 -0.0040 -0.3665  0.5964
   96MOL0     C12851   0.375   6.398   1.529  0.7726  0.4888  0.5887
   96MOL0     C12852   0.350   6.262   1.512 -0.0555 -0.1858 -0.2804
   96MOL0     C12853   0.397   6.168   1.611  0.0810  0.9455  0.2145
   96MOL0     C12854   0.360   6.029   1.579 -0.4498 -0.2751 -0.3467
   96MOL0     O12855   0.446   5.937   1.617  0.6390 -0.2596  0.1573
   96MOL0     C12856   0.446   5.810   1.575  0.6105 -0.1199 -0.1229
   96MOL0     C12857   0.572   5.753   1.557 -0.7199 -0.6450 -0.5991
   96MOL0     C12858   0.591   5.625   1.507 -0.0961 -0.1514 -0.2733
   96MOL0     C12859   0.484   5.547   1.471  0.2903 -0.1151 -0.0697
   96MOL0     O12860   0.510   5.419   1.422  0.9147 -0.6552  0.4796
   96MOL0     C12861   0.404   5.316   1.438  0.1249  0.4132 -0.0373
   96MOL0     C12862   0.442   5.218   1.325  0.7681  0.1622 -0.4264
   96MOL0     C12863   0.362   5.083   1.336  1.3055  0.9292 -0.2293
   96MOL0     C12864   0.234   5.087   1.245 -0.4321 -0.5333 -0.4220
   96MOL0     C12865   0.132   4.974   1.276  0.8369 -0.5247 -0.3523
   96MOL0     C12866   0.007   4.992   1.182  0.1127  0.2672 -0.2062
   96MOL0     C12867   0.033   4.946   1.039 -0.2794  0.1788 -0.8317
   96MOL0     C12868  -0.095   4.921   0.960 -0.6467  0.4048 -0.0643
   96MOL0    Cl12869  -0.173   4.777   1.008  0.1614 -0.1017  0.1374
   96MOL0     C12870   0.354   5.607   1.484 -0.2874  0.1027 -0.5463
   96MOL0     C12871   0.336   5.731   1.536  0.4443  0.3842 -0.9953
   96MOL0     O12872   0.254   6.002   1.518  0.0537  0.4901  0.2271
   96MOL0     C12873   0.490   6.209   1.701 -0.2737 -1.0409  0.2994
   96MOL0     C12874   0.494   6.346   1.730  0.4124  0.3495 -0.3079
   96MOL0     N12875   0.672   7.112   1.542 -0.4141 -0.0007  0.3127
   96MOL0     N12876   0.743   7.219   1.544 -0.2451  0.5390  0.3112
   96MOL0     C12877   0.697   8.332   2.341  0.2535  0.5706  1.0908
   96MOL0     C12878   0.658   8.425   2.435  0.2188  0.1033 -0.4649
   96MOL0     C12879   0.380   8.743   2.645  0.4342  0.1473 -0.8349
   96MOL0     C12880   0.317   8.869   2.609 -0.3903 -0.3351 -0.3516
   96MOL0     C12881   0.250   8.942   2.703  0.4827  0.2517 -0.4254
   96MOL0     C12882   0.241   8.909   2.843 -0.3173  0.3514  0.5604
   96MOL0     O12883   0.178   8.995   2.921  0.0888 -0.0919  0.7506
   96MOL0     C12884   0.075   8.965   3.008  0.6518  0.7803  0.0239
   96MOL0     C12885  -0.049   8.906   2.937 -0.1343  0.1337 -0.7242
   96MOL0     C12886  -0.126   9.000   2.844 -0.2508 -0.1951 -0.7961
   96MOL0     C12887  -0.228   8.919   2.767 -0.2902  0.0197 -0.5032
   96MOL0     C12888  -0.177   8.859   2.645 -0.1585 -0.3095  1.1396
   96MOL0     C12889  -0.139   8.826   2.537  0.0587 -0.5797 -0.0499
   96MOL0     C12890   0.303   8.784   2.877  0.1083 -0.4589  0.5585
   96MOL0     C12891   0.381   8.710   2.781 -1.0786  0.6426  0.5219
   96MOL0     C12892   0.457   8.587   2.826  0.4148  0.6297 -0.5187
   96MOL0     H12893   0.325   8.399   2.364 -0.6129 -0.6891 -2.5972
   96MOL0     H12894   0.394   8.302   2.181  0.7123 -3.3413 -1.1120
   96MOL0     H12895   0.597   8.029   2.219  1.7675  0.2709  0.0940
   96MOL0     H12896   0.483   8.101   2.097 -0.5587  0.7657  0.3922
   96MOL0     H12897   0.752   8.003   2.024  0.2137  1.0447  2.2062
   96MOL0     H12898   0.624   8.048   1.917  2.5008 -1.2003 -0.9448
   96MOL0     H12899   0.483   7.884   1.951 -1.1246 -1.7426  2.8208
   96MOL0     H12900   0.595   7.822   2.088  0.7744 -0.0826  0.0295
   96MOL0     H12901   0.666   7.849   1.802 -3.2924 -1.1913 -0.2607
   96MOL0     H12902   0.772   7.770   1.923  0.2017 -1.6844 -1.6103
   96MOL0     H12903   0.579   7.595   1.950 -2.3468 -0.4435 -1.1026
   96MOL0     H12904   0.509   7.690   1.816  0.8344  1.2802 -1.3955
   96MOL0     H12905   0.610   7.501   1.701 -0.5815 -0.9533  1.1232
   96MOL0     H12906   0.726   7.627   1.687 -1.0383 -1.2508 -0.7037
   96MOL0     H12907   0.741   7.419   1.911 -0.1433 -1.1865 -0.2300
   96MOL0     H12908   0.856   7.539   1.859 -0.9109  1.0314  1.3182
   96MOL0     H12909   0.858   7.414   1.623 -1.5554 -1.1591 -1.1197
   96MOL0     H12910   0.919   7.318   1.770  0.1361 -0.5742 -0.9285
   96MOL0     H12911   0.627   7.229   1.841 -0.0048  3.6529 -0.8587
   96MOL0     H12912   0.484   7.014   1.803  0.4754 -1.6881  0.3104
   96MOL0     H12913   0.424   6.978   1.646 -0.2662  0.2089  0.2253
   96MOL0     H12914   0.577   6.794   1.615 -2.1542 -1.1185  1.7345
   96MOL0     H12915   0.681   6.861   1.743  0.5854  1.5150 -2.4955
   96MOL0     H12916   0.382   6.776   1.788  0.0074  1.3877 -0.2294
   96MOL0     H12917   0.532   6.782   1.902  3.0364 -2.3883  0.2038
   96MOL0     H12918   0.468   6.581   1.871 -0.3007  2.1987  0.6029
   96MOL0     H12919   0.618   6.577   1.779 -0.3369 -2.5613 -0.7011
   96MOL0     H12920   0.324   6.457   1.454 -2.7823 -1.2061  1.4760
   96MOL0     H12921   0.298   6.232   1.422 -2.2077  1.1925  0.4477
   96MOL0     H12922   0.660   5.817   1.565 -0.9641 -0.4747  1.0450
   96MOL0     H12923   0.692   5.585   1.505 -0.1274 -0.2394 -2.8931
   96MOL0     H12924   0.407   5.259   1.532 -2.4657 -3.1040 -1.8504
   96MOL0     H12925   0.306   5.359   1.419  0.3817  0.5213 -1.1701
   96MOL0     H12926   0.441   5.254   1.222 -3.4986  2.3452  0.1823
   96MOL0     H12927   0.547   5.192   1.345  1.2248  0.3783 -2.3984
   96MOL0     H12928   0.414   4.989   1.318 -0.1152  0.3447 -1.5923
   96MOL0     H12929   0.324   5.089   1.438 -0.0571  4.7756 -0.7728
   96MOL0     H12930   0.265   5.062   1.144 -0.8972  0.4533 -0.8280
   96MOL0     H12931   0.197   5.190   1.244  1.6677  0.2909  0.3164
   96MOL0     H12932   0.113   4.998   1.381 -1.6171  0.3715 -0.9216
   96MOL0     H12933   0.185   4.879   1.265 -3.7875 -3.0619 -6.0268
   96MOL0     H12934  -0.083   4.941   1.218 -0.0287  1.2879  0.9704
   96MOL0     H12935  -0.024   5.097   1.194 -0.2750  0.1227  0.0881
   96MOL0     H12936   0.102   4.861   1.035  0.7930  1.0603 -2.9881
   96MOL0     H12937   0.096   5.023   0.992  3.2362 -0.0383  2.9870
   96MOL0     H12938  -0.160   5.007   0.978  0.6757  1.2482  0.8869
   96MOL0     H12939  -0.071   4.916   0.853 -1.2962 -1.8934 -0.1610
   96MOL0     H12940   0.273   5.546   1.446 -1.0538  1.8671 -1.8651
   96MOL0     H12941   0.237   5.772   1.555  0.8767  0.6010  1.0492
   96MOL0     H12942   0.538   6.146   1.775 -0.8024 -2.3026 -0.3940
   96MOL0     H12943   0.557   6.379   1.812  0.2873 -2.5559  1.0924
   96MOL0     H12944   0.803   8.309   2.338  0.8013  2.8856  0.2389
   96MOL0     H12945   0.732   8.469   2.501 -0.7185  0.4126  0.4151
   96MOL0     H12946   0.317   8.908   2.507  2.3195 -0.1284 -0.3604
   96MOL0     H12947   0.205   9.039   2.684  1.1460  0.7015  0.2181
   96MOL0     H12948   0.053   9.060   3.059  2.6976 -0.2515  3.1897
   96MOL0     H12949   0.110   8.893   3.082  0.1573 -1.3177 -1.7014
   96MOL0     H12950  -0.120   8.874   3.013  0.9433 -1.1043 -0.1924
   96MOL0     H12951  -0.016   8.826   2.870 -2.2249  1.1289 -3.1158
   96MOL0     H12952  -0.062   9.034   2.763 -1.0448 -2.8756 -2.7022
   96MOL0     H12953  -0.168   9.087   2.894 -0.2529 -0.7339  0.1743
   96MOL0     H12954  -0.273   8.846   2.835 -0.9817 -0.8717 -1.8616
   96MOL0     H12955  -0.307   8.984   2.729 -0.2046 -0.2978 -1.2473
   96MOL0     H12956  -0.121   8.798   2.435 -1.0399 -0.4756 -0.2884
   96MOL0     H12957   0.295   8.778   2.985 -1.5759  1.6667  0.6227
   96MOL0     H12958   0.452   8.584   2.935  0.0769  4.5218 -0.3093
   96MOL0     H12959   0.411   8.497   2.783 -0.2338  0.5674  0.2791
   96MOL0     H12960   0.564   8.585   2.805  1.2024  0.7758  2.8398
   97MOL0     O12961  10.329  10.169   8.764 -0.4072 -0.1104 -0.1841
   97MOL0     C12962  10.248  10.225   8.692  0.3900  0.5380  0.6817
   97MOL0     O12963  10.268  10.322   8.602 -0.3432 -0.0469 -0.3803
   97MOL0     C12964  10.395  10.346   8.572 -0.3506  0.2938  0.3014
   97MOL0     C12965  10.441  10.321   8.447 -0.4122  0.4252  0.5356
   97MOL0     C12966  10.576  10.340   8.420  0.9308  0.5512  0.0043
   97MOL0     C12967  10.675  10.363   8.514  0.4967 -0.7436 -0.2000
   97MOL0     O12968  10.808  10.374   8.493  0.2032  0.0127  0.0547
   97MOL0     C12969  10.871  10.301   8.383 -0.0452  0.4169 -0.4266
   97MOL0     C12970  11.020  10.314   8.405 -0.4192 -0.1412  0.2922
   97MOL0     C12971  11.065  10.458   8.384 -0.6960  0.1219  0.5956
   97MOL0     C12972  11.216  10.443   8.387  0.3234 -0.0717  0.2456
   97MOL0     C12973  11.270  10.580   8.344 -0.2956  0.0091  0.2466
   97MOL0     C12974  11.431  10.570   8.339  0.7014  0.1292 -0.0501
   97MOL0     C12975  11.493  10.709   8.297 -0.2174  0.4832 -0.9704
   97MOL0     C12976  11.636  10.734   8.369  0.0684  0.4490 -0.1562
   97MOL0     N12977  11.745  10.738   8.267  0.2279  0.3105  0.1718
   97MOL0     C12978  11.744  10.813   8.153 -0.8060  1.3146 -0.0009
   97MOL0     C12979  11.851  10.777   8.087 -0.1024 -0.1940 -0.4185
   97MOL0     C12980  11.910  10.827   7.957  0.9601 -0.3724 -0.7211
   97MOL0     C12981  11.798  10.866   7.854  0.1251  0.3371 -0.9119
   97MOL0     C12982  11.860  10.922   7.730  0.0068  0.1882  0.5356
   97MOL0     C12983  11.915  11.059   7.746  0.4512 -0.2160  0.6802
   97MOL0     O12984  11.984  11.091   7.623 -0.3826 -1.2097 -0.7339
   97MOL0     C12985  12.124  11.101   7.638 -1.0574  0.5766  0.2428
   97MOL0     C12986  12.197  11.160   7.534 -0.5422 -0.3755  0.3522
   97MOL0     C12987  12.338  11.149   7.535  0.0336 -0.2214  0.9426
   97MOL0     C12988  12.411  11.088   7.639 -0.2792 -1.1668  0.4963
   97MOL0     C12989  12.562  11.088   7.634 -0.5829  0.1256 -0.1046
   97MOL0     O12990  12.633  11.055   7.750  0.5991  0.1900 -0.6107
   97MOL0     C12991  12.769  11.082   7.768  0.2849 -0.3100  0.6144
   97MOL0     C12992  12.839  11.001   7.853 -0.3984 -0.4316 -0.9908
   97MOL0     C12993  12.967  11.018   7.864  0.5511 -0.2842 -1.1603
   97MOL0     C12994  13.045  11.122   7.807  0.0524  0.2195  0.9140
   97MOL0     O12995  13.183  11.142   7.830  0.4569 -0.4714 -0.4559
   97MOL0     C12996  13.250  11.025   7.863 -0.2336  0.2196 -0.5869
   97MOL0     C12997  13.404  11.044   7.859  0.7338 -0.1827 -0.3198
   97MOL0     C12998  13.490  10.948   7.940  0.4647 -0.1029 -0.7200
   97MOL0     C12999  13.562  10.840   7.861  0.3200 -0.5848  0.5462
   97MOL0     C13000  13.682  10.768   7.919  0.4401  0.1886  0.5725
   97MOL0     C13001  13.662  10.684   8.043 -0.2600  0.2049 -0.1889
   97MOL0     C13002  13.544  10.576   8.027 -0.0365 -0.6806 -0.8510
   97MOL0     C13003  13.532  10.478   8.140  0.4660  1.2703  0.3171
   97MOL0    Cl13004  13.425  10.334   8.106  0.5397  0.0372  0.2572
   97MOL0     C13005  12.973  11.206   7.722 -0.1410 -0.5103  0.4386
   97MOL0     C13006  12.835  11.186   7.698  0.2259  0.3959 -0.0591
   97MOL0     O13007  12.616  11.124   7.533 -0.8249 -0.2052 -0.7439
   97MOL0     C13008  12.340  11.027   7.749  0.1145 -0.9784  0.4192
   97MOL0     C13009  12.199  11.027   7.738 -0.4317 -0.4195 -0.3052
   97MOL0     N13010  11.922  10.680   8.156  0.8421  0.6579  0.9964
   97MOL0     N13011  11.859  10.667   8.262  0.7417 -0.2753 -0.1766
   97MOL0     C13012  10.622  10.395   8.637 -0.5900 -0.8730 -0.1073
   97MOL0     C13013  10.487  10.400   8.667  0.4652  0.1049 -0.9461
   97MOL0     C13014  10.125  10.160   8.704  0.4036 -0.8997  0.7342
   97MOL0     C13015  10.076  10.125   8.831 -0.3607 -1.0320 -0.2780
   97MOL0     C13016   9.943  10.091   8.844 -0.5067 -0.1879  0.5418
   97MOL0     C13017   9.863  10.085   8.734  0.6398  0.2956 -0.3790
   97MOL0     O13018   9.726  10.062   8.737 -0.4692  0.3965  0.0537
   97MOL0     C13019   9.650  10.066   8.858  0.0306  0.1426  0.7707
   97MOL0     C13020   9.505  10.090   8.850  1.0518  0.4527  0.6011
   97MOL0     C13021   9.435   9.999   8.749  0.6405  0.7402 -0.1504
   97MOL0     C13022   9.268  10.015   8.750 -1.1478  1.8115  0.5127
   97MOL0     C13023   9.219   9.997   8.882  0.2682  0.0660 -0.4009
   97MOL0     C13024   9.170   9.989   8.997  0.4951 -0.8535  0.2008
   97MOL0     C13025   9.911  10.094   8.608 -0.0077  0.1908  0.3328
   97MOL0     C13026  10.044  10.129   8.587 -0.2464 -1.0904  0.3527
   97MOL0     C13027  10.105  10.118   8.451  0.7539 -0.6252 -0.2205
   97MOL0     H13028  10.377  10.298   8.362  2.4704  1.5440 -2.1226
   97MOL0     H13029  10.617  10.325   8.321 -0.9991  3.2348 -1.3424
   97MOL0     H13030  10.848  10.195   8.395 -1.0769  0.6160 -0.5448
   97MOL0     H13031  10.835  10.335   8.286  1.3313  1.6650 -0.5385
   97MOL0     H13032  11.066  10.244   8.334 -0.0220  0.1432  0.2626
   97MOL0     H13033  11.045  10.296   8.510 -1.4235  1.8628  0.9225
   97MOL0     H13034  11.021  10.522   8.462  0.1911  1.9040 -0.3051
   97MOL0     H13035  11.022  10.484   8.287 -0.0162 -0.2742  0.1858
   97MOL0     H13036  11.255  10.415   8.485 -4.6449 -1.8572  2.0130
   97MOL0     H13037  11.246  10.368   8.314  2.1806 -0.0836  0.9543
   97MOL0     H13038  11.219  10.606   8.251  0.9388 -0.5734 -0.6338
   97MOL0     H13039  11.236  10.655   8.416 -2.6642 -0.8932  0.1579
   97MOL0     H13040  11.469  10.547   8.439 -1.7395 -2.6025  0.3835
   97MOL0     H13041  11.456  10.494   8.265 -3.1476  1.8567 -3.5568
   97MOL0     H13042  11.425  10.790   8.324  0.8879  1.4059 -0.9245
   97MOL0     H13043  11.504  10.730   8.191  1.8940  1.0288 -0.6857
   97MOL0     H13044  11.636  10.834   8.414  0.9803  1.2875 -1.9138
   97MOL0     H13045  11.658  10.659   8.446 -2.7273  0.1228  0.4365
   97MOL0     H13046  11.667  10.887   8.140 -0.6018  1.2038 -2.4410
   97MOL0     H13047  11.985  10.902   7.985  0.3559 -0.4363  1.1631
   97MOL0     H13048  11.981  10.760   7.907  1.9258  1.4837 -1.9865
   97MOL0     H13049  11.743  10.771   7.846 -0.1857  0.3006  1.0124
   97MOL0     H13050  11.722  10.929   7.902  0.8451  0.3003  0.3305
   97MOL0     H13051  11.783  10.933   7.653  3.9962  4.3452 -3.4476
   97MOL0     H13052  11.931  10.852   7.686  2.1789  1.7732  1.3550
   97MOL0     H13053  11.959  11.081   7.843 -2.0812  2.7509  1.3355
   97MOL0     H13054  11.831  11.128   7.761 -0.8143 -1.1550 -1.5346
   97MOL0     H13055  12.149  11.206   7.448  1.6343 -0.1214 -0.8155
   97MOL0     H13056  12.395  11.182   7.448  1.8520 -1.7553  1.4784
   97MOL0     H13057  12.788  10.931   7.918  2.1260 -1.9495 -0.5149
   97MOL0     H13058  13.017  10.965   7.944 -1.7919  0.8829  1.2517
   97MOL0     H13059  13.228  10.992   7.965 -1.7034  2.5015 -0.0918
   97MOL0     H13060  13.223  10.948   7.791  1.1749  0.0957 -1.0263
   97MOL0     H13061  13.427  11.053   7.753 -2.0865 -3.5674 -1.3856
   97MOL0     H13062  13.405  11.145   7.902 -1.7214 -1.0662  2.0571
   97MOL0     H13063  13.561  11.012   7.994  0.4365  0.5222 -1.4063
   97MOL0     H13064  13.435  10.898   8.020 -0.7964 -0.4842 -1.7805
   97MOL0     H13065  13.587  10.893   7.769  0.5021  1.3581  1.6531
   97MOL0     H13066  13.486  10.769   7.827  0.8138 -1.7377  1.7966
   97MOL0     H13067  13.762  10.841   7.937 -1.1271  1.8116  1.3069
   97MOL0     H13068  13.722  10.698   7.845 -0.3077  0.0848  0.2616
   97MOL0     H13069  13.753  10.625   8.056 -0.3448 -0.1234 -1.0121
   97MOL0     H13070  13.642  10.756   8.122  5.2105  1.2859  0.5936
   97MOL0     H13071  13.558  10.520   7.934  4.3968  3.0684 -2.8362
   97MOL0     H13072  13.449  10.629   8.017 -0.0861 -0.1894  1.6384
   97MOL0     H13073  13.629  10.431   8.157  0.6003  0.8709 -1.3852
   97MOL0     H13074  13.506  10.526   8.234  0.3978  1.0534  0.4088
   97MOL0     H13075  13.015  11.294   7.675 -0.2050 -0.9803 -0.5172
   97MOL0     H13076  12.784  11.262   7.640 -1.5380 -0.5931  0.1086
   97MOL0     H13077  12.384  10.983   7.839 -2.6378  0.0226  2.3738
   97MOL0     H13078  12.151  10.967   7.815 -0.1251  1.9037  1.8214
   97MOL0     H13079  10.698  10.415   8.711 -0.3946 -0.7700 -0.3330
   97MOL0     H13080  10.450  10.425   8.766 -2.5829 -3.1346 -1.0571
   97MOL0     H13081  10.139  10.151   8.916 -0.1244  1.1294 -1.0580
   97MOL0     H13082   9.904  10.081   8.945 -1.1690  1.1708  0.4344
   97MOL0     H13083   9.676  10.140   8.934 -1.9352  0.3704  1.2631
   97MOL0     H13084   9.667   9.966   8.898 -0.4986 -0.6133 -0.8019
   97MOL0     H13085   9.478  10.188   8.809 -0.9661  0.1585  1.1400
   97MOL0     H13086   9.473  10.077   8.954  2.0017  2.7515  1.2682
   97MOL0     H13087   9.459   9.894   8.768  1.7396  0.2239 -3.6835
   97MOL0     H13088   9.471  10.029   8.651 -0.0500  0.4100 -0.5104
   97MOL0     H13089   9.248  10.116   8.713 -0.0148  1.5658 -0.8562
   97MOL0     H13090   9.218   9.943   8.685  0.5331  1.5995 -0.5875
   97MOL0     H13091   9.142  10.005   9.099  0.3447 -0.0106  0.0297
   97MOL0     H13092   9.839  10.070   8.531 -1.1659  1.0213  1.1301
   97MOL0     H13093  10.082  10.019   8.409  0.6593 -0.4479 -0.5940
   97MOL0     H13094  10.068  10.197   8.385  1.6836  0.2269  0.2386
   97MOL0     H13095  10.215  10.118   8.450  0.8426 -2.8332 -2.9774
   98MOL0     O13096   7.826   4.420   3.307  0.6799 -1.0076  0.1149
   98MOL0     C13097   7.705   4.402   3.313  0.0118  0.4329 -1.1391
   98MOL0     O13098   7.615   4.439   3.216  0.1596 -0.6481  0.1627
   98MOL0     C13099   7.673   4.465   3.095  0.3378  0.4110  0.0499
   98MOL0     C13100   7.685   4.361   3.002  0.1396  0.5624  0.1843
   98MOL0     C13101   7.748   4.384   2.883 -0.4002  0.7080  0.0416
   98MOL0     C13102   7.808   4.505   2.852  0.8705 -0.8493 -0.8586
   98MOL0     O13103   7.864   4.537   2.731  0.0266 -0.6483  0.0148
   98MOL0     C13104   7.763   4.571   2.640  0.8263 -0.2209  0.8834
   98MOL0     C13105   7.808   4.599   2.487 -0.1154  0.9909  0.3669
   98MOL0     C13106   7.941   4.690   2.471  0.4217 -0.2512 -0.1145
   98MOL0     C13107   7.910   4.840   2.522  0.5756  1.0586 -0.6473
   98MOL0     C13108   8.034   4.936   2.502  0.9026  0.7591 -0.8953
   98MOL0     C13109   8.077   4.964   2.364 -0.8962 -0.4781  0.2118
   98MOL0     C13110   8.152   5.096   2.348  0.5222 -0.0566  0.5571
   98MOL0     C13111   8.300   5.078   2.399  0.7833  0.0983  0.2001
   98MOL0     N13112   8.374   4.969   2.340  0.2429  0.5636 -0.3663
   98MOL0     C13113   8.401   4.845   2.401 -0.2982  0.2182  0.0195
   98MOL0     C13114   8.475   4.767   2.309  0.4228  0.1649  0.3477
   98MOL0     C13115   8.540   4.628   2.314 -0.2668  0.0017  0.3374
   98MOL0     C13116   8.596   4.591   2.453 -1.0674 -0.8536 -0.1978
   98MOL0     C13117   8.647   4.448   2.472  1.0706  0.4884 -0.1167
   98MOL0     C13118   8.667   4.403   2.613 -0.6299 -0.3066 -0.1808
   98MOL0     O13119   8.670   4.262   2.613  0.5914 -0.3388 -0.0532
   98MOL0     C13120   8.629   4.182   2.716  0.3492 -0.4293  0.4545
   98MOL0     C13121   8.614   4.052   2.677  0.2228  1.2015 -0.4460
   98MOL0     C13122   8.567   3.959   2.765  0.6195  0.7540  0.4661
   98MOL0     C13123   8.527   3.996   2.894  0.8661  0.8698  0.7219
   98MOL0     C13124   8.481   3.899   2.994 -0.9849  0.1338 -1.0879
   98MOL0     O13125   8.423   3.949   3.105 -0.6312 -0.1446  0.8286
   98MOL0     C13126   8.429   3.890   3.232 -0.3329 -0.1774 -0.2895
   98MOL0     C13127   8.388   3.761   3.248  0.0869 -1.0722  0.5321
   98MOL0     C13128   8.404   3.705   3.375  0.6319  0.1692 -0.0853
   98MOL0     C13129   8.457   3.776   3.485  0.8689  0.0254 -0.5528
   98MOL0     O13130   8.471   3.718   3.601  0.0494 -0.0866  0.1466
   98MOL0     C13131   8.510   3.791   3.719  0.2507  0.7666 -0.2126
   98MOL0     C13132   8.545   3.694   3.833  0.0891  0.6137 -0.2429
   98MOL0     C13133   8.417   3.616   3.883 -0.1063  0.9285  0.4863
   98MOL0     C13134   8.457   3.532   4.011  0.1569 -0.0973  0.3356
   98MOL0     C13135   8.347   3.428   4.044  0.3147  0.0487  0.3803
   98MOL0     C13136   8.383   3.332   4.164  0.3708 -0.1163 -0.4548
   98MOL0     C13137   8.297   3.206   4.150  0.1932  0.0326 -0.1316
   98MOL0     C13138   8.293   3.115   4.272 -0.2234 -0.5259  0.6853
   98MOL0    Cl13139   8.164   2.993   4.240  0.7955 -0.2133 -0.1762
   98MOL0     C13140   8.491   3.911   3.461 -0.0669 -0.2872 -0.4979
   98MOL0     C13141   8.479   3.969   3.338 -0.2614  0.0424 -0.3530
   98MOL0     O13142   8.495   3.781   2.970  0.0011  0.9281 -0.2212
   98MOL0     C13143   8.538   4.126   2.935 -0.7195 -0.2265  0.3497
   98MOL0     C13144   8.590   4.223   2.840 -0.8962 -0.0408  0.3144
   98MOL0     N13145   8.468   4.830   2.193  0.2211 -1.2878  0.3168
   98MOL0     N13146   8.425   4.946   2.208  0.4714 -0.0104  0.1136
   98MOL0     C13147   7.795   4.610   2.940  0.3561  0.6548 -0.9500
   98MOL0     C13148   7.725   4.594   3.064 -0.2831 -0.7115  0.4733
   98MOL0     C13149   7.642   4.340   3.437  0.9938 -0.3988 -0.3953
   98MOL0     C13150   7.726   4.257   3.517 -0.7858  0.2355 -0.5686
   98MOL0     C13151   7.676   4.168   3.616 -0.0288 -0.6701 -0.7268
   98MOL0     C13152   7.536   4.162   3.634  0.2953  0.9375 -0.0184
   98MOL0     O13153   7.489   4.065   3.713  0.5628  0.6788  0.0460
   98MOL0     C13154   7.372   3.985   3.674  1.2549  0.6633 -0.1425
   98MOL0     C13155   7.374   3.921   3.535 -0.2718 -0.5265  1.3613
   98MOL0     C13156   7.481   3.810   3.507  0.5830  0.4025  0.3955
   98MOL0     C13157   7.490   3.788   3.354 -0.4518  0.4494  0.0042
   98MOL0     C13158   7.567   3.893   3.298 -0.0676 -0.7889  0.0088
   98MOL0     C13159   7.632   3.985   3.243  0.4633 -0.3189 -0.0452
   98MOL0     C13160   7.449   4.235   3.553 -0.5087  0.2034 -0.6757
   98MOL0     C13161   7.487   4.331   3.460 -0.9882  0.2761  0.2346
   98MOL0     C13162   7.388   4.429   3.407  0.7162 -0.2090  0.3348
   98MOL0     H13163   7.645   4.264   3.029  2.0650 -0.4666 -0.5383
   98MOL0     H13164   7.740   4.315   2.799 -0.0898  2.9046 -1.8633
   98MOL0     H13165   7.702   4.482   2.622  1.8696 -0.2242 -4.0995
   98MOL0     H13166   7.719   4.667   2.670  0.8056  1.5096 -3.7702
   98MOL0     H13167   7.725   4.639   2.427  1.2410  2.2186 -0.7668
   98MOL0     H13168   7.826   4.505   2.436  0.9689  2.1001 -1.3933
   98MOL0     H13169   7.982   4.684   2.370 -0.0501  1.3734 -0.4363
   98MOL0     H13170   8.021   4.636   2.522 -1.2511 -2.4757  0.3151
   98MOL0     H13171   7.825   4.874   2.462 -2.2566 -2.7494  0.7697
   98MOL0     H13172   7.887   4.834   2.629  1.8732 -1.0903 -0.4260
   98MOL0     H13173   8.015   5.021   2.568 -1.0735 -0.2914 -0.0009
   98MOL0     H13174   8.109   4.877   2.556 -1.3442 -2.1182 -0.6180
   98MOL0     H13175   8.127   4.875   2.327 -0.7856 -0.6484  0.7613
   98MOL0     H13176   7.992   4.976   2.296  0.7296  0.0352 -1.8264
   98MOL0     H13177   8.103   5.193   2.363 -0.5190 -0.3675 -0.6646
   98MOL0     H13178   8.166   5.108   2.240 -3.0776 -3.1669 -0.4902
   98MOL0     H13179   8.348   5.167   2.356 -0.0237  1.1944  1.4799
   98MOL0     H13180   8.301   5.081   2.509 -0.3538 -0.5108  0.2457
   98MOL0     H13181   8.376   4.821   2.504  4.0493 -4.0440  0.4334
   98MOL0     H13182   8.464   4.554   2.285  0.4052 -0.6560  0.2339
   98MOL0     H13183   8.626   4.627   2.246  1.1665  0.8834  2.0615
   98MOL0     H13184   8.681   4.655   2.480  0.2461 -3.1558  1.5734
   98MOL0     H13185   8.512   4.607   2.522  0.7162  0.9466  1.7155
   98MOL0     H13186   8.738   4.435   2.413  1.5366  4.9612 -0.6809
   98MOL0     H13187   8.573   4.381   2.426  3.3307 -1.3193 -1.3198
   98MOL0     H13188   8.577   4.440   2.663 -0.1099  2.5119 -1.1254
   98MOL0     H13189   8.756   4.457   2.647 -1.4635  0.6704  0.5125
   98MOL0     H13190   8.643   4.009   2.581 -1.9785 -1.3117 -0.1193
   98MOL0     H13191   8.569   3.855   2.735 -0.6741 -0.0031  2.6969
   98MOL0     H13192   8.343   3.690   3.179  0.2705 -0.1706 -0.5433
   98MOL0     H13193   8.370   3.604   3.394  0.1442  0.8767  3.6817
   98MOL0     H13194   8.607   3.835   3.695  2.3573 -3.6031 -0.7159
   98MOL0     H13195   8.436   3.865   3.749  0.0315 -0.1639  1.6585
   98MOL0     H13196   8.618   3.625   3.789 -0.7595 -1.0849  0.9340
   98MOL0     H13197   8.602   3.743   3.913  1.5860 -2.2215  0.5613
   98MOL0     H13198   8.344   3.694   3.906 -0.4177  1.0953 -1.0093
   98MOL0     H13199   8.360   3.558   3.810 -2.1554  1.5360  1.5280
   98MOL0     H13200   8.477   3.592   4.101  0.9088  1.8149 -1.0532
   98MOL0     H13201   8.555   3.490   3.989 -0.2019 -0.2468 -1.0602
   98MOL0     H13202   8.327   3.368   3.954  1.5409  0.3098 -0.0811
   98MOL0     H13203   8.253   3.480   4.066 -1.8358 -3.4468  0.1067
   98MOL0     H13204   8.482   3.299   4.133  1.2098  0.9466  0.9751
   98MOL0     H13205   8.378   3.378   4.263 -1.7594 -0.5845 -0.2827
   98MOL0     H13206   8.339   3.140   4.073 -0.1496 -0.7574  0.3448
   98MOL0     H13207   8.195   3.236   4.125  0.0861 -1.7031 -2.1152
   98MOL0     H13208   8.392   3.075   4.291 -0.1399 -0.5173  0.2690
   98MOL0     H13209   8.262   3.175   4.358  0.9366  0.7936  0.2223
   98MOL0     H13210   8.528   3.965   3.548  1.0763  1.1506 -1.8135
   98MOL0     H13211   8.509   4.073   3.326  1.0751 -0.3762 -0.8595
   98MOL0     H13212   8.499   4.164   3.028  0.0383  1.1789  0.1177
   98MOL0     H13213   8.581   4.329   2.860 -0.0930  0.0399  0.2670
   98MOL0     H13214   7.850   4.702   2.920  0.0861  0.6390 -1.7628
   98MOL0     H13215   7.713   4.674   3.136 -0.4895  0.0798 -0.4200
   98MOL0     H13216   7.831   4.266   3.492 -0.2285  3.1529  2.2014
   98MOL0     H13217   7.737   4.099   3.673  0.7244  0.8725  0.4010
   98MOL0     H13218   7.278   4.041   3.679 -0.0941 -1.3553 -1.4042
   98MOL0     H13219   7.367   3.902   3.744  1.4103  1.8085  1.2713
   98MOL0     H13220   7.388   3.995   3.455  3.0858  0.4594  2.7067
   98MOL0     H13221   7.275   3.878   3.515  0.5761 -1.0519 -2.5217
   98MOL0     H13222   7.434   3.715   3.536 -0.3893  1.0216  0.8713
   98MOL0     H13223   7.579   3.833   3.549 -0.3289  0.7205  2.4760
   98MOL0     H13224   7.525   3.687   3.331 -2.3160 -0.0988 -0.5702
   98MOL0     H13225   7.393   3.785   3.304 -0.2829 -2.6434 -0.3474
   98MOL0     H13226   7.686   4.061   3.190  0.2389 -0.5702 -0.6486
   98MOL0     H13227   7.345   4.216   3.576  0.6719 -4.0663  2.5836
   98MOL0     H13228   7.304   4.383   3.353  0.9199  2.2308 -2.3328
   98MOL0     H13229   7.332   4.467   3.493  0.2350 -2.5064  1.1071
   98MOL0     H13230   7.425   4.518   3.355 -2.0035  1.8710  1.6948
   99MOL0     O13231   0.136   8.757   0.564 -0.3950 -0.1948 -0.8315
   99MOL0     C13232   0.184   8.867   0.525  0.0731  0.0121 -0.1381
   99MOL0     O13233   0.111   8.967   0.467  0.0423 -0.0704  0.7248
   99MOL0     C13234  -0.019   8.952   0.432  0.4522  0.4919 -0.9039
   99MOL0     C13235  -0.101   9.060   0.482  0.8383  0.6481 -0.5941
   99MOL0     C13236  -0.233   9.071   0.437  0.4563  0.8417 -0.8273
   99MOL0     C13237  -0.297   8.970   0.367  0.8619  0.4054 -0.2079
   99MOL0     O13238  -0.427   8.962   0.316 -0.4824 -0.4121 -0.1945
   99MOL0     C13239  -0.494   9.085   0.333  0.1852 -0.3502  0.1410
   99MOL0     C13240  -0.636   9.086   0.264  0.2213  0.1946 -1.3245
   99MOL0     C13241  -0.707   8.968   0.323  0.7306  1.1495 -0.8674
   99MOL0     C13242  -0.857   8.982   0.300 -0.1853  0.6819  0.9339
   99MOL0     C13243  -0.914   9.095   0.389  0.1092 -0.6237  0.5277
   99MOL0     C13244  -1.062   9.084   0.387  0.5601  0.0878 -0.1010
   99MOL0     C13245  -1.136   9.096   0.252 -0.0801  0.6148 -0.1855
   99MOL0     C13246  -1.109   9.224   0.176  0.2379  0.2332  0.1726
   99MOL0     N13247  -1.138   9.333   0.263 -0.9142 -0.5567  0.2577
   99MOL0     C13248  -1.250   9.370   0.340 -0.2889  0.5736 -0.7076
   99MOL0     C13249  -1.223   9.489   0.406  0.6876  0.9706  0.0396
   99MOL0     C13250  -1.308   9.559   0.513  0.1290 -0.5166  0.5115
   99MOL0     C13251  -1.256   9.549   0.655 -0.1920  0.4845 -1.6830
   99MOL0     C13252  -1.211   9.403   0.696 -0.0753 -0.5018  0.4745
   99MOL0     C13253  -1.113   9.391   0.815  0.3689  0.7906  0.3305
   99MOL0     O13254  -1.006   9.486   0.841 -0.0987 -0.1926 -0.2819
   99MOL0     C13255  -0.900   9.475   0.761 -0.1111  0.1370 -0.3483
   99MOL0     C13256  -0.883   9.392   0.648 -0.9318 -0.0201 -0.0171
   99MOL0     C13257  -0.759   9.393   0.577  0.4067 -0.0633  0.7997
   99MOL0     C13258  -0.651   9.470   0.627  0.6495 -1.5264 -0.2059
   99MOL0     C13259  -0.516   9.463   0.556 -0.3653  0.1928  1.0116
   99MOL0     O13260  -0.453   9.579   0.550  0.3635  0.3474  0.0762
   99MOL0     C13261  -0.323   9.590   0.497 -0.1212 -0.1730  0.2463
   99MOL0     C13262  -0.283   9.723   0.465 -0.0932 -0.5102  0.3210
   99MOL0     C13263  -0.163   9.749   0.399 -0.7158 -0.1247  1.2915
   99MOL0     C13264  -0.076   9.641   0.375  0.3227  0.8691  0.4586
   99MOL0     O13265   0.053   9.655   0.325 -0.1794  0.7604 -0.3900
   99MOL0     C13266   0.121   9.785   0.296 -0.0802 -0.0012 -0.9890
   99MOL0     C13267   0.206   9.844   0.410  0.6913 -0.6646 -0.0896
   99MOL0     C13268   0.326   9.748   0.447 -0.6191  0.6389  0.3025
   99MOL0     C13269   0.435   9.747   0.344  0.1287  0.0192  0.0064
   99MOL0     C13270   0.559   9.681   0.401 -0.3342  0.9579  0.3523
   99MOL0     C13271   0.678   9.695   0.309 -0.3468  1.1488  0.1778
   99MOL0     C13272   0.803   9.698   0.389 -0.0271  0.3257 -0.4174
   99MOL0     C13273   0.839   9.569   0.467  0.4844 -0.3267 -0.5387
   99MOL0    Cl13274   0.883   9.438   0.350  0.3253  0.0033  0.3595
   99MOL0     C13275  -0.103   9.511   0.433  0.5094 -0.1171 -1.0124
   99MOL0     C13276  -0.222   9.493   0.492 -0.0799 -0.0619  0.1350
   99MOL0     O13277  -0.473   9.353   0.512  0.1335 -0.5692  0.1385
   99MOL0     C13278  -0.672   9.557   0.729 -0.1523 -0.9298  0.4481
   99MOL0     C13279  -0.792   9.554   0.798 -0.3534  0.5813  0.4081
   99MOL0     N13280  -1.084   9.499   0.388  0.0387 -0.7489 -0.9099
   99MOL0     N13281  -1.038   9.414   0.305 -0.0325 -0.6929 -0.8558
   99MOL0     C13282  -0.221   8.867   0.325 -0.2327 -0.2359 -0.7693
   99MOL0     C13283  -0.083   8.847   0.364 -0.1802  0.1614  0.7903
   99MOL0     C13284   0.327   8.891   0.509 -0.0565  0.5407 -0.7088
   99MOL0     C13285   0.379   9.021   0.525 -0.9660 -0.3284  0.1691
   99MOL0     C13286   0.516   9.041   0.534 -0.0175 -0.1239 -0.2026
   99MOL0     C13287   0.608   8.941   0.523 -0.3320  0.7140 -0.0990
   99MOL0     O13288   0.749   8.941   0.512 -0.0342 -0.4733 -0.2845
   99MOL0     C13289   0.803   9.072   0.489 -0.7063  0.2138 -1.1219
   99MOL0     C13290   0.950   9.067   0.516  0.2227 -0.1634 -0.2543
   99MOL0     C13291   1.035   8.984   0.415  0.1300  0.2449 -0.2405
   99MOL0     C13292   1.050   9.073   0.291  0.4225  0.7188 -0.1052
   99MOL0     C13293   1.153   9.175   0.324 -0.1632 -0.1802 -0.6338
   99MOL0     C13294   1.254   9.244   0.347  0.3911 -0.1687 -1.1215
   99MOL0     C13295   0.562   8.813   0.512  0.3162 -0.0333  0.2665
   99MOL0     C13296   0.421   8.786   0.498  0.0054  0.1896 -0.3228
   99MOL0     C13297   0.375   8.645   0.461  0.8038  0.4114 -0.3635
   99MOL0     H13298  -0.059   9.139   0.542  2.0264 -0.8012  0.5691
   99MOL0     H13299  -0.277   9.168   0.458  0.6086  0.4175  1.8506
   99MOL0     H13300  -0.499   9.101   0.441  0.8871  0.1970  0.1074
   99MOL0     H13301  -0.428   9.155   0.280  1.7204 -0.3821  1.8668
   99MOL0     H13302  -0.625   9.083   0.155 -0.6958  2.3602 -1.5224
   99MOL0     H13303  -0.683   9.181   0.291 -0.1762 -0.6396  1.2492
   99MOL0     H13304  -0.688   8.953   0.430  0.8790 -0.3386 -1.0848
   99MOL0     H13305  -0.660   8.883   0.273 -0.9318 -1.0310  1.0465
   99MOL0     H13306  -0.862   9.008   0.194 -0.4506 -1.2461  0.4409
   99MOL0     H13307  -0.910   8.887   0.307  2.9970 -1.5009 -1.5897
   99MOL0     H13308  -0.872   9.079   0.489  1.6322  2.4891  0.4846
   99MOL0     H13309  -0.896   9.201   0.370 -2.2772 -0.4403 -1.2424
   99MOL0     H13310  -1.074   8.985   0.433 -1.6723 -0.1299 -1.0162
   99MOL0     H13311  -1.107   9.156   0.456 -2.5799 -0.9863 -0.8667
   99MOL0     H13312  -1.242   9.081   0.276  0.0676  0.2219  0.2465
   99MOL0     H13313  -1.108   9.006   0.195 -0.0170 -0.5378  1.5710
   99MOL0     H13314  -1.011   9.221   0.128  0.1124 -3.3548 -0.1922
   99MOL0     H13315  -1.178   9.241   0.092 -1.8991  0.6801  1.9218
   99MOL0     H13316  -1.338   9.307   0.341 -2.4667  3.3701  2.1134
   99MOL0     H13317  -1.318   9.665   0.491 -0.3579 -1.2359 -3.4940
   99MOL0     H13318  -1.407   9.511   0.513 -1.5935  2.6096  2.8276
   99MOL0     H13319  -1.175   9.622   0.668 -0.2790  0.0523  4.1731
   99MOL0     H13320  -1.328   9.587   0.728  0.7999  0.1542 -0.4956
   99MOL0     H13321  -1.179   9.353   0.604  0.4694  3.7819 -1.9572
   99MOL0     H13322  -1.300   9.347   0.724 -0.2640  0.7280  2.5406
   99MOL0     H13323  -1.064   9.294   0.802 -0.3434  0.3843  0.6190
   99MOL0     H13324  -1.177   9.380   0.903 -0.2538 -3.9047 -0.4413
   99MOL0     H13325  -0.961   9.325   0.612 -0.7948 -2.1863  3.1843
   99MOL0     H13326  -0.756   9.335   0.485  2.7065  0.1496  0.6711
   99MOL0     H13327  -0.354   9.804   0.475 -0.0554 -0.7000  2.7553
   99MOL0     H13328  -0.134   9.851   0.373  2.9949 -1.0316  1.3271
   99MOL0     H13329   0.181   9.772   0.205  0.7407 -1.4771 -0.2729
   99MOL0     H13330   0.045   9.856   0.261  1.8150  2.8492  0.2953
   99MOL0     H13331   0.244   9.946   0.399  0.2157 -0.4910 -0.1358
   99MOL0     H13332   0.131   9.848   0.490 -3.0655 -2.2317 -3.2382
   99MOL0     H13333   0.359   9.777   0.547  1.6300  3.8595 -1.1624
   99MOL0     H13334   0.291   9.646   0.464 -0.9759  0.4361 -1.4045
   99MOL0     H13335   0.455   9.852   0.323 -1.6298  0.3975  0.0810
   99MOL0     H13336   0.401   9.691   0.257 -0.5949  0.4244  0.0198
   99MOL0     H13337   0.535   9.578   0.429 -1.2572  1.3453  1.0616
   99MOL0     H13338   0.577   9.728   0.499  0.4946  2.6127 -0.5599
   99MOL0     H13339   0.691   9.622   0.228  1.4407 -1.6681  2.7701
   99MOL0     H13340   0.661   9.789   0.256  0.6150  0.4079 -1.5191
   99MOL0     H13341   0.785   9.777   0.463  2.3189 -2.1247  3.0848
   99MOL0     H13342   0.889   9.714   0.324  0.8907  1.5375  1.0160
   99MOL0     H13343   0.918   9.561   0.543  0.7423 -2.8455 -0.9952
   99MOL0     H13344   0.747   9.540   0.519  1.8752 -4.0123  0.1827
   99MOL0     H13345  -0.031   9.431   0.440  3.4303  2.3276 -0.7513
   99MOL0     H13346  -0.241   9.396   0.536  3.5003 -1.0769 -0.2594
   99MOL0     H13347  -0.594   9.621   0.768 -0.7643  0.8228 -1.1016
   99MOL0     H13348  -0.795   9.603   0.895 -1.2697  0.2213  0.5724
   99MOL0     H13349  -0.275   8.793   0.266 -1.2802 -0.3560  0.3149
   99MOL0     H13350  -0.010   8.771   0.338  1.9088  1.1456  3.2692
   99MOL0     H13351   0.308   9.102   0.518 -0.3203  0.0975 -3.7779
   99MOL0     H13352   0.557   9.142   0.531  3.5329 -1.3912  0.7081
   99MOL0     H13353   0.758   9.144   0.559  1.4809 -0.6269  1.2770
   99MOL0     H13354   0.798   9.103   0.384  1.8935 -2.4234 -2.1484
   99MOL0     H13355   0.950   9.017   0.614 -0.2463 -0.4035 -0.3736
   99MOL0     H13356   1.000   9.163   0.528  3.3088 -1.5311 -1.2103
   99MOL0     H13357   0.978   8.894   0.388  1.0773  0.3383 -2.8826
   99MOL0     H13358   1.130   8.958   0.463 -0.8572  1.5188  2.5888
   99MOL0     H13359   1.088   9.003   0.216 -2.3256 -1.2478  0.1662
   99MOL0     H13360   0.957   9.121   0.258  0.1153  0.8650  0.9412
   99MOL0     H13361   1.324   9.322   0.368  1.4764 -1.0074 -1.5812
   99MOL0     H13362   0.633   8.731   0.518  3.0104  2.1789  0.4037
   99MOL0     H13363   0.333   8.589   0.544 -0.4626 -1.1159 -1.9635
   99MOL0     H13364   0.313   8.648   0.370  0.3389  0.8897 -0.0398
   99MOL0     H13365   0.459   8.581   0.433  1.2744  0.3156  1.2171
  100MOL0     O13366   5.423   1.281   3.816 -0.7217 -0.4558 -0.5030
  100MOL0     C13367   5.545   1.308   3.810 -0.1386  0.2702  1.1190
  100MOL0     O13368   5.647   1.215   3.800  0.1193  0.0630 -0.0292
  100MOL0     C13369   5.645   1.085   3.830 -0.8170 -0.4832  0.0486
  100MOL0     C13370   5.533   1.007   3.837  0.2531 -0.6203  0.2499
  100MOL0     C13371   5.553   0.870   3.854  0.7483 -0.3123  0.2472
  100MOL0     C13372   5.677   0.812   3.870 -0.2802 -0.8509 -0.9312
  100MOL0     O13373   5.683   0.682   3.882 -0.3472  0.2127  0.0432
  100MOL0     C13374   5.740   0.641   4.007 -0.4343  0.4501  0.0088
  100MOL0     C13375   5.760   0.489   4.003  0.0300 -0.2077  0.3222
  100MOL0     C13376   5.619   0.431   3.983  0.8459  0.2409 -0.0763
  100MOL0     C13377   5.541   0.427   4.117 -0.1169 -0.7268 -1.0668
  100MOL0     C13378   5.407   0.357   4.101 -0.0630  0.9755 -0.1858
  100MOL0     C13379   5.404   0.213   4.065  0.3885  0.1689  0.7636
  100MOL0     C13380   5.252   0.175   4.062  0.8385  0.3781  0.4859
  100MOL0     C13381   5.226   0.022   4.039 -0.3151  0.2407  0.0397
  100MOL0     N13382   5.085  -0.010   4.054 -0.3337 -0.6456 -0.2955
  100MOL0     C13383   5.026  -0.120   4.000 -0.2236  0.8888 -0.1791
  100MOL0     C13384   4.901  -0.132   4.052  0.2590 -0.4702 -0.4943
  100MOL0     C13385   4.790  -0.234   4.040 -0.6747  0.2237 -0.0016
  100MOL0     C13386   4.810  -0.355   4.135  0.8358  0.0068 -0.3535
  100MOL0     C13387   4.687  -0.436   4.174  0.1091  0.1495  0.5524
  100MOL0     C13388   4.601  -0.476   4.056  0.5837 -0.0293  0.1298
  100MOL0     O13389   4.551  -0.612   4.082 -0.2950  0.2677  0.2471
  100MOL0     C13390   4.462  -0.658   3.990 -0.2137 -0.2701  0.2564
  100MOL0     C13391   4.393  -0.579   3.893  0.6276  0.5966  0.2994
  100MOL0     C13392   4.298  -0.645   3.815  0.7878 -1.1179  0.4600
  100MOL0     C13393   4.250  -0.780   3.825  0.2139 -0.8634 -0.0911
  100MOL0     C13394   4.131  -0.830   3.753 -1.1774 -0.2155  0.5618
  100MOL0     O13395   4.057  -0.927   3.807 -0.5937 -0.6977 -0.4295
  100MOL0     C13396   3.950  -0.996   3.742 -0.0726 -0.2387  0.4181
  100MOL0     C13397   3.952  -1.023   3.602 -0.0864 -0.6067  0.2004
  100MOL0     C13398   3.830  -1.073   3.545 -1.6664  0.0466 -0.0996
  100MOL0     C13399   3.715  -1.096   3.623  0.2140  0.2269 -0.2169
  100MOL0     O13400   3.597  -1.144   3.571  0.7417  0.1984 -0.8008
  100MOL0     C13401   3.555  -1.115   3.427  0.2185  0.2371 -0.2016
  100MOL0     C13402   3.427  -1.174   3.397  1.1436  0.4984  0.6081
  100MOL0     C13403   3.370  -1.159   3.256  0.2140 -0.3539  0.4011
  100MOL0     C13404   3.234  -1.213   3.225  0.6106 -0.2170 -0.8406
  100MOL0     C13405   3.194  -1.192   3.087 -0.4535  0.2210 -0.5636
  100MOL0     C13406   3.171  -1.054   3.034  0.3102  0.2045  0.6319
  100MOL0     C13407   3.108  -1.059   2.891  0.2273 -0.1241  1.0637
  100MOL0     C13408   3.203  -1.105   2.784 -0.6075  0.2656 -0.1436
  100MOL0    Cl13409   3.211  -1.280   2.755 -0.2835  0.1755 -0.6149
  100MOL0     C13410   3.722  -1.081   3.763 -0.3323 -0.5505 -0.0364
  100MOL0     C13411   3.843  -1.031   3.820  0.5687 -0.3616  0.3988
  100MOL0     O13412   4.095  -0.761   3.653 -0.0093  0.6700 -0.1877
  100MOL0     C13413   4.308  -0.845   3.939  0.1811 -0.1403  0.0110
  100MOL0     C13414   4.416  -0.785   4.015 -1.5173 -0.1640  0.3736
  100MOL0     N13415   4.893  -0.036   4.152  1.1405  0.9589 -0.6747
  100MOL0     N13416   4.993   0.042   4.148  0.0065 -0.0945 -0.1302
  100MOL0     C13417   5.787   0.900   3.872  0.6131  0.1699  0.8516
  100MOL0     C13418   5.772   1.034   3.844  0.1834  0.2961 -1.0707
  100MOL0     C13419   5.586   1.445   3.823  0.6964 -0.2433  0.2131
  100MOL0     C13420   5.719   1.472   3.800  0.1933  0.4183  0.1339
  100MOL0     C13421   5.776   1.605   3.819 -0.5374  1.1976 -0.2294
  100MOL0     C13422   5.696   1.708   3.857 -0.2390  0.5815  0.0089
  100MOL0     O13423   5.742   1.841   3.888  0.0900 -0.0993 -0.7641
  100MOL0     C13424   5.728   1.860   4.025 -0.2198 -0.1769 -1.1811
  100MOL0     C13425   5.856   1.826   4.099  0.3039  0.2098  1.1322
  100MOL0     C13426   5.855   1.859   4.243  0.5389 -0.6423 -0.2637
  100MOL0     C13427   5.978   1.796   4.312  0.1443 -0.8670  0.1393
  100MOL0     C13428   5.985   1.823   4.461  0.6891 -0.5689  0.9799
  100MOL0     C13429   5.993   1.821   4.579  0.1751  0.5187  0.8502
  100MOL0     C13430   5.550   1.683   3.868  0.5232 -0.6221  0.5189
  100MOL0     C13431   5.501   1.556   3.852  0.1514  0.1823 -1.1276
  100MOL0     C13432   5.357   1.537   3.867  0.1866  0.2010  0.5313
  100MOL0     H13433   5.433   1.047   3.826  0.4462 -0.3347 -0.5599
  100MOL0     H13434   5.463   0.811   3.868  0.5644  0.5610  3.5717
  100MOL0     H13435   5.843   0.676   4.007 -0.2710  0.0885 -1.8823
  100MOL0     H13436   5.679   0.671   4.092 -0.1308  1.1235 -0.0118
  100MOL0     H13437   5.799   0.465   4.102 -1.4762  1.9710  1.5385
  100MOL0     H13438   5.836   0.459   3.931  2.5191  0.3890  2.5586
  100MOL0     H13439   5.626   0.325   3.958 -0.0764  0.6555 -2.2594
  100MOL0     H13440   5.556   0.480   3.909 -0.2416 -2.0192 -0.7354
  100MOL0     H13441   5.598   0.382   4.199  1.1630  0.2307 -1.4106
  100MOL0     H13442   5.518   0.531   4.144 -0.1359 -1.1614  0.7609
  100MOL0     H13443   5.356   0.375   4.197  0.7815 -0.6231  0.6024
  100MOL0     H13444   5.346   0.416   4.031 -2.7647  0.7891  1.8186
  100MOL0     H13445   5.458   0.199   3.971 -1.9225 -2.3020 -0.3076
  100MOL0     H13446   5.458   0.153   4.139 -1.0456 -0.8167  1.0416
  100MOL0     H13447   5.192   0.239   3.997 -1.6911  0.8746  3.0721
  100MOL0     H13448   5.218   0.187   4.166 -0.2514  1.8196 -0.0113
  100MOL0     H13449   5.257  -0.004   3.937 -2.1535 -0.5566 -0.3583
  100MOL0     H13450   5.291  -0.030   4.110 -0.5112 -0.4052 -0.2517
  100MOL0     H13451   5.088  -0.181   3.934  2.2257  0.6693  2.1515
  100MOL0     H13452   4.699  -0.177   4.062  0.5658  1.7849  1.4049
  100MOL0     H13453   4.776  -0.258   3.934 -1.1804  0.2839  0.0515
  100MOL0     H13454   4.883  -0.425   4.092 -2.0473 -1.6108 -3.0592
  100MOL0     H13455   4.862  -0.319   4.224 -2.1449  1.9708  0.7362
  100MOL0     H13456   4.625  -0.376   4.241  2.4130 -0.3827  3.3695
  100MOL0     H13457   4.703  -0.524   4.237  0.7833 -0.6283 -0.6775
  100MOL0     H13458   4.669  -0.482   3.971 -1.5568  0.1220 -1.6657
  100MOL0     H13459   4.524  -0.401   4.035 -0.3133  0.3875  4.0805
  100MOL0     H13460   4.409  -0.474   3.870 -0.6790  1.3519  2.5643
  100MOL0     H13461   4.235  -0.591   3.744  0.2576 -1.2319  0.8341
  100MOL0     H13462   4.041  -0.993   3.549  1.2695  0.1501  2.7136
  100MOL0     H13463   3.819  -1.103   3.441 -1.2143 -0.5830  0.0255
  100MOL0     H13464   3.548  -1.007   3.413 -0.7191  0.3289  0.8390
  100MOL0     H13465   3.635  -1.165   3.373  1.8810 -0.2543  2.5148
  100MOL0     H13466   3.434  -1.282   3.414  3.0936  0.0247 -2.4216
  100MOL0     H13467   3.357  -1.145   3.476 -1.2645 -2.2692 -0.3269
  100MOL0     H13468   3.362  -1.050   3.242  0.4870 -0.1958  1.4023
  100MOL0     H13469   3.452  -1.193   3.191  0.1891 -0.4339  0.4115
  100MOL0     H13470   3.163  -1.155   3.285  0.9665  1.7674 -2.2350
  100MOL0     H13471   3.232  -1.315   3.264  3.0186  0.4634  1.3118
  100MOL0     H13472   3.107  -1.254   3.066  2.2090 -3.4936 -1.5956
  100MOL0     H13473   3.282  -1.233   3.035 -1.3820 -1.2634 -0.9936
  100MOL0     H13474   3.103  -1.000   3.100  0.9882  0.9337  0.7407
  100MOL0     H13475   3.270  -1.009   3.038 -0.6441  2.3352  3.0969
  100MOL0     H13476   3.079  -0.958   2.860  2.4681 -0.2075 -1.6909
  100MOL0     H13477   3.024  -1.129   2.886 -0.0627  0.1112  2.2929
  100MOL0     H13478   3.185  -1.062   2.685 -0.9747 -1.7806 -1.0073
  100MOL0     H13479   3.297  -1.066   2.825 -2.1078  1.8923  2.0266
  100MOL0     H13480   3.637  -1.109   3.823 -0.0136  2.0066  1.7973
  100MOL0     H13481   3.843  -1.015   3.928 -0.2370  0.0108  0.3462
  100MOL0     H13482   4.272  -0.945   3.958  1.5785 -0.4410  1.2598
  100MOL0     H13483   4.448  -0.842   4.101 -1.9075  1.0079  1.3141
  100MOL0     H13484   5.886   0.859   3.891  0.0170 -0.2876  3.4220
  100MOL0     H13485   5.859   1.099   3.844  0.7298 -0.3985 -0.3031
  100MOL0     H13486   5.791   1.402   3.760  1.3266  2.1543 -0.9603
  100MOL0     H13487   5.880   1.630   3.802 -0.0149 -0.3015  0.5785
  100MOL0     H13488   5.651   1.798   4.072  0.0366  0.7081  0.4855
  100MOL0     H13489   5.720   1.967   4.046  2.2772  0.1294 -1.4149
  100MOL0     H13490   5.933   1.890   4.054 -2.1055  0.7062 -2.8117
  100MOL0     H13491   5.882   1.721   4.079  0.5436  0.1373  1.7871
  100MOL0     H13492   5.777   1.811   4.303  1.3780  0.9701  2.2807
  100MOL0     H13493   5.846   1.968   4.253  1.6607 -0.4626 -1.0520
  100MOL0     H13494   5.990   1.689   4.289  0.6601 -0.0000 -4.8302
  100MOL0     H13495   6.064   1.843   4.264 -0.5423  2.6777  2.0876
  100MOL0     H13496   5.986   1.821   4.686 -0.7384 -0.6108  0.8184
  100MOL0     H13497   5.481   1.760   3.902  0.0425 -1.4664  1.4935
  100MOL0     H13498   5.306   1.632   3.885 -0.7386 -0.3407  0.8026
  100MOL0     H13499   5.316   1.513   3.768 -0.8754  0.5936  0.8666
  100MOL0     H13500   5.320   1.462   3.937  2.4837 -2.7529 -1.1578
  101MOL0     O13501   5.447   7.461   8.661  0.0816 -0.3759 -0.1268
  101MOL0     C13502   5.537   7.542   8.670  0.5749 -0.0985 -0.4483
  101MOL0     O13503   5.656   7.541   8.597  0.5057 -0.0515  0.6433
  101MOL0     C13504   5.683   7.425   8.527 -0.9743 -0.1114  0.9678
  101MOL0     C13505   5.816   7.373   8.513  0.2774 -0.5882  0.1654
  101MOL0     C13506   5.842   7.263   8.432  0.2835  0.6384 -0.7198
  101MOL0     C13507   5.751   7.195   8.364 -0.7589 -0.1016  0.4686
  101MOL0     O13508   5.773   7.076   8.295  0.7449 -0.1365 -0.0161
  101MOL0     C13509   5.895   7.006   8.337  0.3110 -0.3280 -0.2954
  101MOL0     C13510   5.874   6.866   8.282  0.0036 -0.6517  0.5866
  101MOL0     C13511   6.002   6.780   8.287 -0.4922  0.2530  0.8087
  101MOL0     C13512   6.103   6.820   8.179 -0.1309  0.4713  0.5113
  101MOL0     C13513   6.223   6.723   8.159 -0.3158 -0.0673 -0.2455
  101MOL0     C13514   6.332   6.779   8.074  0.3766 -0.3068  0.0620
  101MOL0     C13515   6.422   6.666   8.030  0.0469 -0.0526  0.1850
  101MOL0     C13516   6.524   6.724   7.928  0.0375 -0.1233 -0.2017
  101MOL0     N13517   6.656   6.747   7.999  0.6809  0.2565  0.4030
  101MOL0     C13518   6.684   6.854   8.085 -1.2058  0.3399  0.1966
  101MOL0     C13519   6.801   6.819   8.144  0.0048 -0.1475  0.0691
  101MOL0     C13520   6.866   6.897   8.264  0.1599  1.3425  0.9902
  101MOL0     C13521   6.960   7.006   8.214  0.2403  0.2849  0.9127
  101MOL0     C13522   7.047   7.059   8.320  0.3737 -0.6913 -0.7671
  101MOL0     C13523   7.137   7.178   8.284  0.7424  0.3687 -0.7207
  101MOL0     O13524   7.246   7.122   8.210  0.0381 -0.0614  0.1062
  101MOL0     C13525   7.367   7.083   8.274  0.1600 -1.0193  0.4254
  101MOL0     C13526   7.375   7.045   8.412 -0.3947  0.5664 -0.0040
  101MOL0     C13527   7.491   6.993   8.465  0.0202  0.7915 -0.9005
  101MOL0     C13528   7.610   6.985   8.391  0.0715 -0.3098 -0.7245
  101MOL0     C13529   7.741   6.949   8.455  0.4142 -0.5664  0.0574
  101MOL0     O13530   7.860   6.972   8.394  0.4052 -0.2061  0.8513
  101MOL0     C13531   7.980   7.009   8.448 -0.0725  1.1757 -0.3290
  101MOL0     C13532   8.084   7.037   8.364 -0.6042  0.6640  0.1630
  101MOL0     C13533   8.204   7.090   8.403  0.3621 -0.7431  0.4159
  101MOL0     C13534   8.231   7.113   8.543 -0.1892 -0.1373  0.5292
  101MOL0     O13535   8.338   7.179   8.587 -0.3523  0.0544 -0.3231
  101MOL0     C13536   8.461   7.187   8.509  0.7816 -0.2340 -0.2551
  101MOL0     C13537   8.575   7.238   8.599 -0.0608  0.5602  0.2104
  101MOL0     C13538   8.577   7.389   8.617  0.5625 -0.5874  0.9525
  101MOL0     C13539   8.697   7.433   8.699 -1.0057 -0.4220 -0.1641
  101MOL0     C13540   8.712   7.583   8.718  0.1140  0.0937  0.9651
  101MOL0     C13541   8.578   7.664   8.745  0.2355  0.4379  0.7146
  101MOL0     C13542   8.481   7.695   8.617  0.6708 -0.1793 -0.3686
  101MOL0     C13543   8.331   7.672   8.649 -0.0183  0.0708 -0.0924
  101MOL0    Cl13544   8.276   7.745   8.794 -0.2661 -0.1404  0.3171
  101MOL0     C13545   8.124   7.087   8.635 -0.1419  0.7612  1.1044
  101MOL0     C13546   8.002   7.032   8.591  0.2843 -0.6106  0.1180
  101MOL0     O13547   7.739   6.906   8.568  0.4019 -0.8573  0.0307
  101MOL0     C13548   7.604   7.031   8.263  0.3593 -0.7575 -0.6190
  101MOL0     C13549   7.487   7.079   8.197 -0.3239  0.7870  0.2522
  101MOL0     N13550   6.846   6.696   8.090  0.4635 -0.2759 -0.4241
  101MOL0     N13551   6.755   6.660   8.003 -0.1713  0.6495  0.4684
  101MOL0     C13552   5.618   7.246   8.367 -0.9350 -0.0024 -0.3166
  101MOL0     C13553   5.594   7.364   8.442  0.4829 -0.2529  0.1481
  101MOL0     C13554   5.499   7.668   8.734 -0.4153 -0.9451 -1.0931
  101MOL0     C13555   5.586   7.777   8.714  0.5526  0.0790  0.0794
  101MOL0     C13556   5.560   7.905   8.759  0.0279 -0.0967 -0.3522
  101MOL0     C13557   5.444   7.931   8.823 -0.0839 -0.3861 -0.0859
  101MOL0     O13558   5.390   8.050   8.842 -0.5816  0.9845  0.3083
  101MOL0     C13559   5.364   8.133   8.722 -0.8535  0.2533  0.2370
  101MOL0     C13560   5.399   8.271   8.774  0.0168  0.6871 -0.4233
  101MOL0     C13561   5.334   8.375   8.673 -1.0982 -0.1612  0.2040
  101MOL0     C13562   5.389   8.521   8.696  0.3834  0.0795  0.4769
  101MOL0     C13563   5.533   8.527   8.672 -0.6692  0.4964  0.7093
  101MOL0     C13564   5.654   8.546   8.662 -0.1468  1.4081 -0.1319
  101MOL0     C13565   5.359   7.829   8.863 -0.9649  0.8082 -0.3005
  101MOL0     C13566   5.391   7.694   8.829  0.6707 -0.0129 -0.2439
  101MOL0     C13567   5.321   7.578   8.900  0.1295  1.0213 -0.3703
  101MOL0     H13568   5.892   7.436   8.560 -1.0495  1.5747 -0.4613
  101MOL0     H13569   5.949   7.248   8.430  0.0638 -2.1937  1.5390
  101MOL0     H13570   5.982   7.054   8.291  0.0728  0.1089 -0.2881
  101MOL0     H13571   5.909   6.997   8.445  3.4046 -1.8895 -0.7028
  101MOL0     H13572   5.833   6.872   8.181 -1.3841 -0.6106  1.1214
  101MOL0     H13573   5.802   6.804   8.336 -0.3359 -0.3396  0.4983
  101MOL0     H13574   5.960   6.681   8.270 -1.9760  0.8708  0.6865
  101MOL0     H13575   6.050   6.789   8.385 -0.0494 -1.9613  0.8436
  101MOL0     H13576   6.041   6.831   8.090 -1.2697 -0.4341  1.1675
  101MOL0     H13577   6.136   6.919   8.212  2.4418  0.7064 -2.3019
  101MOL0     H13578   6.267   6.695   8.256  0.8421  0.3738 -0.6236
  101MOL0     H13579   6.169   6.642   8.109 -2.3942  1.4598 -0.5668
  101MOL0     H13580   6.293   6.820   7.981  3.3485  0.6007 -0.9035
  101MOL0     H13581   6.388   6.858   8.127 -2.5795  1.3742  0.9292
  101MOL0     H13582   6.356   6.591   7.984 -1.4297  0.2870  1.6488
  101MOL0     H13583   6.458   6.608   8.116 -4.8963 -0.8219  2.0472
  101MOL0     H13584   6.550   6.643   7.859  1.9633 -0.0395  0.3552
  101MOL0     H13585   6.494   6.804   7.861  1.5066 -0.9516 -1.9435
  101MOL0     H13586   6.626   6.941   8.112 -0.6581  0.5840  0.6186
  101MOL0     H13587   6.786   6.937   8.327  0.4360  3.9904 -0.2219
  101MOL0     H13588   6.929   6.830   8.323  0.8375  0.5561 -0.5476
  101MOL0     H13589   7.004   6.975   8.119 -0.0361 -0.9761  1.1796
  101MOL0     H13590   6.904   7.096   8.187  0.9621  0.6133  0.4929
  101MOL0     H13591   7.112   6.992   8.376  1.1433  0.5031 -0.1773
  101MOL0     H13592   6.973   7.091   8.394  0.6289  3.9795 -2.1924
  101MOL0     H13593   7.182   7.231   8.368  1.2900 -2.3028  0.7838
  101MOL0     H13594   7.085   7.253   8.224  1.2810  1.2701 -0.0859
  101MOL0     H13595   7.304   7.077   8.487  0.7791  2.0621  0.5235
  101MOL0     H13596   7.496   6.948   8.564 -0.6306  1.3007 -0.6297
  101MOL0     H13597   8.062   7.007   8.262 -2.2709  2.1662  0.0316
  101MOL0     H13598   8.280   7.120   8.331 -1.8521  2.3240 -0.8855
  101MOL0     H13599   8.487   7.089   8.467 -0.1569  1.2295 -4.7680
  101MOL0     H13600   8.451   7.247   8.418  0.6848 -1.3657 -1.0277
  101MOL0     H13601   8.572   7.187   8.695 -0.5808  0.0234 -0.0854
  101MOL0     H13602   8.671   7.207   8.555 -1.4217 -3.4022 -0.3032
  101MOL0     H13603   8.589   7.441   8.522 -2.7222 -3.2458 -1.1146
  101MOL0     H13604   8.490   7.428   8.671  3.0195  1.6489  3.6635
  101MOL0     H13605   8.794   7.400   8.662 -1.3479 -1.7209  0.0426
  101MOL0     H13606   8.688   7.393   8.800 -1.6210  1.4939  0.5737
  101MOL0     H13607   8.757   7.625   8.627 -0.8426 -0.7186  0.0825
  101MOL0     H13608   8.786   7.604   8.795 -0.0816  0.2626  1.1043
  101MOL0     H13609   8.521   7.609   8.820  0.5418 -2.4886 -1.0322
  101MOL0     H13610   8.602   7.756   8.799  1.7128 -1.3672  3.3548
  101MOL0     H13611   8.497   7.638   8.525  0.5072  2.0858 -1.8776
  101MOL0     H13612   8.482   7.800   8.585 -1.4158 -0.2227 -0.7297
  101MOL0     H13613   8.268   7.716   8.572 -2.9993 -1.0528  1.5394
  101MOL0     H13614   8.322   7.563   8.653  2.5135 -0.6187 -5.0279
  101MOL0     H13615   8.130   7.117   8.739 -3.2203 -0.2679  1.6853
  101MOL0     H13616   7.922   7.010   8.661  0.1126 -2.8127 -0.6957
  101MOL0     H13617   7.699   7.031   8.211  1.3218  3.4277  0.7161
  101MOL0     H13618   7.485   7.120   8.096  2.6568 -1.2241 -0.7948
  101MOL0     H13619   5.544   7.193   8.307  0.1555 -2.7717  0.6021
  101MOL0     H13620   5.493   7.401   8.427  0.1594 -1.2945 -0.4076
  101MOL0     H13621   5.669   7.755   8.648 -0.8675 -1.0062 -1.4141
  101MOL0     H13622   5.630   7.987   8.745 -0.5974  0.3475 -0.9652
  101MOL0     H13623   5.259   8.123   8.692 -1.0844 -1.0568  1.3452
  101MOL0     H13624   5.408   8.103   8.627 -0.1203 -3.6724  1.6070
  101MOL0     H13625   5.508   8.262   8.775 -0.1222 -1.5708  0.5467
  101MOL0     H13626   5.360   8.282   8.875  0.2124  1.1890 -0.4028
  101MOL0     H13627   5.225   8.368   8.676 -1.4414  0.3205 -4.2270
  101MOL0     H13628   5.354   8.341   8.571 -1.3377 -3.2369  1.0521
  101MOL0     H13629   5.336   8.588   8.627  1.8321  2.0090  1.1488
  101MOL0     H13630   5.376   8.555   8.799 -0.2163  0.1636  0.3728
  101MOL0     H13631   5.756   8.574   8.647 -0.7120  3.4267 -0.4650
  101MOL0     H13632   5.270   7.840   8.924 -0.8139 -0.3342  0.1472
  101MOL0     H13633   5.402   7.507   8.921 -0.7581  0.0264 -0.2034
  101MOL0     H13634   5.274   7.604   8.995  1.2856  1.9114 -0.0194
  101MOL0     H13635   5.245   7.532   8.837  0.2054  0.5686 -0.1367
  102MOL0     O13636   1.961   9.716   0.152 -0.3977 -0.2899  0.6900
  102MOL0     C13637   1.845   9.692   0.149  0.3139 -0.6145 -0.5387
  102MOL0     O13638   1.780   9.636   0.043 -0.3928 -0.2174 -0.3430
  102MOL0     C13639   1.857   9.579  -0.049  1.1011 -0.4742  0.3046
  102MOL0     C13640   1.883   9.639  -0.164 -0.0944  0.1311  0.3590
  102MOL0     C13641   1.954   9.583  -0.268  0.5442  0.6279 -0.0631
  102MOL0     C13642   1.995   9.446  -0.260 -0.8321 -2.1280 -0.1832
  102MOL0     O13643   2.046   9.389  -0.372 -0.5472  0.4780  0.8500
  102MOL0     C13644   2.159   9.303  -0.349 -0.0323 -0.0102  0.2011
  102MOL0     C13645   2.241   9.286  -0.472 -0.3926  0.5081 -0.0743
  102MOL0     C13646   2.274   9.423  -0.537  0.7690 -0.3612  0.4588
  102MOL0     C13647   2.407   9.416  -0.607 -0.5562  0.0343 -0.6288
  102MOL0     C13648   2.437   9.551  -0.677  0.0895 -0.6981 -0.1066
  102MOL0     C13649   2.561   9.558  -0.764  0.0900  0.0124  1.1558
  102MOL0     C13650   2.551   9.467  -0.887  0.8395 -0.3849 -0.3223
  102MOL0     C13651   2.671   9.477  -0.976  0.4106  0.2221 -0.3925
  102MOL0     N13652   2.702   9.355  -1.049  1.0415 -0.6753 -0.5264
  102MOL0     C13653   2.738   9.240  -0.988 -0.2155 -0.8124 -0.2770
  102MOL0     C13654   2.735   9.149  -1.091  0.4340  0.1846 -0.5438
  102MOL0     C13655   2.767   9.000  -1.090 -0.9247 -0.0940 -0.1877
  102MOL0     C13656   2.911   8.964  -1.066  0.2386  0.1626 -0.4550
  102MOL0     C13657   2.954   8.996  -0.928  0.6325 -0.3660 -0.0589
  102MOL0     C13658   3.097   8.940  -0.901  0.5015 -0.6482 -0.0343
  102MOL0     O13659   3.186   8.955  -1.002  0.1865  0.1560 -0.2700
  102MOL0     C13660   3.232   8.853  -1.085 -0.5994  0.0378  0.6525
  102MOL0     C13661   3.331   8.891  -1.178 -0.6280  0.9360 -0.3283
  102MOL0     C13662   3.386   8.797  -1.261 -0.5463  0.5839  0.2471
  102MOL0     C13663   3.346   8.663  -1.260 -0.1648  0.4086 -1.1730
  102MOL0     C13664   3.420   8.574  -1.341 -0.6365 -0.8021  0.2033
  102MOL0     O13665   3.357   8.457  -1.386 -0.4634  0.0169  0.5774
  102MOL0     C13666   3.438   8.356  -1.437  0.1252 -1.0091  0.4063
  102MOL0     C13667   3.462   8.238  -1.365  0.1011 -0.6241  0.3140
  102MOL0     C13668   3.521   8.129  -1.416  1.2598 -0.7365  0.2955
  102MOL0     C13669   3.571   8.134  -1.547  0.6078 -0.8269  0.7995
  102MOL0     O13670   3.605   8.024  -1.617  0.4388 -0.1124  0.4935
  102MOL0     C13671   3.691   7.940  -1.532 -0.3078  0.7559  0.2546
  102MOL0     C13672   3.749   7.838  -1.624  1.2637 -0.3023  0.3084
  102MOL0     C13673   3.857   7.902  -1.717  0.1712 -0.2846 -0.4167
  102MOL0     C13674   4.000   7.871  -1.660 -1.4034 -0.3752  0.0501
  102MOL0     C13675   4.021   7.724  -1.701 -0.2288  0.0038  0.4733
  102MOL0     C13676   4.164   7.675  -1.699  0.3496  0.0973 -0.1663
  102MOL0     C13677   4.253   7.724  -1.582 -0.0254 -0.3407  0.2212
  102MOL0     C13678   4.384   7.650  -1.586  0.8068  0.6170 -0.1860
  102MOL0    Cl13679   4.489   7.697  -1.466  0.2033 -0.0954  0.1851
  102MOL0     C13680   3.554   8.254  -1.625  0.4283 -0.7498 -0.2724
  102MOL0     C13681   3.493   8.364  -1.567 -0.3275  0.3737 -0.1792
  102MOL0     O13682   3.541   8.599  -1.361 -0.4672 -0.3964  1.4194
  102MOL0     C13683   3.244   8.626  -1.178 -1.0847 -0.5326  0.3303
  102MOL0     C13684   3.183   8.718  -1.094 -0.4701 -0.2055  0.4283
  102MOL0     N13685   2.681   9.220  -1.200 -0.0725  0.0552 -0.2761
  102MOL0     N13686   2.679   9.347  -1.183  0.3575 -1.3113 -1.2075
  102MOL0     C13687   1.962   9.385  -0.140  1.4026 -0.0811  0.2786
  102MOL0     C13688   1.892   9.449  -0.036 -0.3377  0.6248  0.1924
  102MOL0     C13689   1.771   9.709   0.278  0.2940 -0.4579  0.4579
  102MOL0     C13690   1.807   9.799   0.377 -0.1461 -0.2246  0.0860
  102MOL0     C13691   1.746   9.819   0.501 -0.3236  0.6959  0.0359
  102MOL0     C13692   1.639   9.734   0.533 -0.1993 -0.5824 -0.2344
  102MOL0     O13693   1.577   9.757   0.647  0.8970  0.6560 -0.1008
  102MOL0     C13694   1.456   9.688   0.697 -0.2916 -0.3312  0.6727
  102MOL0     C13695   1.501   9.573   0.775 -0.0676  0.6365  0.6702
  102MOL0     C13696   1.617   9.619   0.869 -0.4961  0.4132  0.3696
  102MOL0     C13697   1.656   9.514   0.965 -0.8610 -0.2924  0.0848
  102MOL0     C13698   1.546   9.479   1.057  0.4401 -0.4855  0.9812
  102MOL0     C13699   1.443   9.482   1.128 -0.7817 -0.2971  0.9377
  102MOL0     C13700   1.604   9.636   0.438  0.4579 -0.1235 -0.4449
  102MOL0     C13701   1.655   9.633   0.313 -0.1611 -0.4404  0.8029
  102MOL0     C13702   1.599   9.519   0.231  0.5785  0.5436  0.3399
  102MOL0     H13703   1.836   9.736  -0.180 -0.2676  0.4805  2.7213
  102MOL0     H13704   1.973   9.640  -0.359  3.1317  2.0580  1.2554
  102MOL0     H13705   2.227   9.342  -0.273  2.0828 -0.2803 -1.4618
  102MOL0     H13706   2.140   9.200  -0.318  1.5823 -0.1979  0.6261
  102MOL0     H13707   2.175   9.224  -0.533  1.4050 -3.1104  1.3719
  102MOL0     H13708   2.337   9.236  -0.457  0.2651  1.2022 -1.7206
  102MOL0     H13709   2.270   9.505  -0.464 -0.9706 -1.6747  1.9335
  102MOL0     H13710   2.201   9.444  -0.616  2.8324 -0.3826 -1.5657
  102MOL0     H13711   2.494   9.401  -0.543 -0.5409 -2.7823 -1.1989
  102MOL0     H13712   2.413   9.333  -0.677 -0.7096 -0.2743 -0.2800
  102MOL0     H13713   2.355   9.567  -0.748 -0.5601 -1.2882  0.4937
  102MOL0     H13714   2.452   9.626  -0.600 -3.7990 -2.1346  2.3932
  102MOL0     H13715   2.572   9.661  -0.801  0.0482 -0.3307  0.1542
  102MOL0     H13716   2.654   9.526  -0.718  1.9921 -2.1563 -3.5243
  102MOL0     H13717   2.461   9.498  -0.941  1.1347  3.0551  0.9143
  102MOL0     H13718   2.545   9.367  -0.844  0.7608  0.2212  1.1660
  102MOL0     H13719   2.645   9.548  -1.055  0.5327 -0.4959 -1.0967
  102MOL0     H13720   2.762   9.516  -0.930  0.5023 -0.5028  0.0529
  102MOL0     H13721   2.765   9.233  -0.883 -1.7456  1.2686  0.3311
  102MOL0     H13722   2.697   8.960  -1.017 -1.1526  0.3447 -0.1660
  102MOL0     H13723   2.752   8.944  -1.182 -2.6448 -0.6977  0.4282
  102MOL0     H13724   2.920   8.857  -1.083 -2.2924 -0.2849  0.5242
  102MOL0     H13725   2.967   9.020  -1.141 -0.3666 -0.2143 -1.1977
  102MOL0     H13726   2.881   8.938  -0.872  1.7140 -2.0471 -0.3354
  102MOL0     H13727   2.953   9.102  -0.900  1.6084 -0.1761 -0.6976
  102MOL0     H13728   3.099   8.839  -0.859  0.8739  0.4381  2.8022
  102MOL0     H13729   3.144   8.988  -0.814  2.0647  0.2074 -1.2963
  102MOL0     H13730   3.380   8.987  -1.190  0.4811  0.2526 -1.6903
  102MOL0     H13731   3.475   8.828  -1.315 -0.3850  1.5803  1.0441
  102MOL0     H13732   3.406   8.241  -1.271  0.4245 -1.1078  0.5231
  102MOL0     H13733   3.530   8.040  -1.353 -0.1847 -0.1712  1.3597
  102MOL0     H13734   3.768   8.002  -1.486  0.9792  0.0572 -0.8713
  102MOL0     H13735   3.634   7.883  -1.458 -0.0932  1.1910  0.7595
  102MOL0     H13736   3.786   7.752  -1.568  1.4491 -0.0820  0.5242
  102MOL0     H13737   3.663   7.797  -1.678  1.3574  0.2531 -0.2847
  102MOL0     H13738   3.839   7.873  -1.821 -0.2495 -0.4997 -0.2850
  102MOL0     H13739   3.850   8.011  -1.723  1.5625 -0.0385  1.6059
  102MOL0     H13740   4.005   7.870  -1.550 -0.0558 -1.4884  0.0063
  102MOL0     H13741   4.076   7.937  -1.703 -2.7916 -0.3413 -2.4894
  102MOL0     H13742   3.973   7.705  -1.797 -1.4125  1.7096  0.6939
  102MOL0     H13743   3.975   7.664  -1.621  0.5347 -1.7803 -0.3645
  102MOL0     H13744   4.170   7.566  -1.701 -0.5443  0.0530 -1.6201
  102MOL0     H13745   4.208   7.720  -1.789 -0.2164  1.9390  0.4320
  102MOL0     H13746   4.192   7.720  -1.491 -0.8874  1.3734 -0.2330
  102MOL0     H13747   4.277   7.830  -1.596 -1.3722 -0.3764 -3.2506
  102MOL0     H13748   4.354   7.546  -1.569 -0.6708  0.4111 -3.4688
  102MOL0     H13749   4.435   7.642  -1.682  0.1107 -0.1094 -0.5070
  102MOL0     H13750   3.617   8.250  -1.713  0.4264 -3.3479 -0.2359
  102MOL0     H13751   3.504   8.465  -1.605  1.2486  0.9082  1.5756
  102MOL0     H13752   3.211   8.523  -1.181 -1.1578 -0.4919 -0.5573
  102MOL0     H13753   3.107   8.680  -1.027  0.4839  1.5497  2.6112
  102MOL0     H13754   1.980   9.279  -0.127  1.1703 -0.5058 -2.3970
  102MOL0     H13755   1.858   9.396   0.052  1.3540  0.0337  0.5421
  102MOL0     H13756   1.891   9.866   0.362 -0.8309  0.3309 -1.5269
  102MOL0     H13757   1.784   9.902   0.560  0.5156  0.5471 -0.2801
  102MOL0     H13758   1.385   9.664   0.617  2.1733 -0.1794 -1.7394
  102MOL0     H13759   1.405   9.762   0.759  2.4269  4.4662 -2.1262
  102MOL0     H13760   1.534   9.490   0.711  1.2096  0.6360  1.2999
  102MOL0     H13761   1.413   9.524   0.818  0.7575 -1.5291  0.0174
  102MOL0     H13762   1.595   9.717   0.913  4.5082  2.4481 -0.8852
  102MOL0     H13763   1.700   9.658   0.809 -0.7939  2.6403  1.2904
  102MOL0     H13764   1.713   9.438   0.911  0.7750 -0.5213  2.0481
  102MOL0     H13765   1.733   9.562   1.026  1.6692 -1.8743 -1.6585
  102MOL0     H13766   1.370   9.462   1.204 -0.0178 -0.9030  1.5444
  102MOL0     H13767   1.522   9.571   0.468  1.1968 -0.1086  1.7475
  102MOL0     H13768   1.551   9.449   0.299 -1.0047  0.2842 -0.9822
  102MOL0     H13769   1.542   9.569   0.152  0.4548 -0.1720 -0.0326
  102MOL0     H13770   1.678   9.472   0.172  0.5163  3.6754 -2.5395
  103MOL0     O13771   9.404   1.431   7.098 -0.1341 -0.3634 -0.3632
  103MOL0     C13772   9.492   1.394   7.016  0.4939  0.0479 -0.5134
  103MOL0     O13773   9.482   1.269   6.955  0.4765 -0.2775 -0.9688
  103MOL0     C13774   9.370   1.194   6.992 -0.6239 -0.5627 -0.0050
  103MOL0     C13775   9.362   1.148   7.120 -0.8578  1.0220 -0.0475
  103MOL0     C13776   9.259   1.062   7.154  0.8619 -0.3838 -0.1958
  103MOL0     C13777   9.157   1.013   7.061  0.1599  1.0034 -0.4721
  103MOL0     O13778   9.057   0.920   7.085  0.4074 -0.6320 -0.1835
  103MOL0     C13779   9.032   0.882   7.221  0.0732 -0.0766  0.7000
  103MOL0     C13780   8.906   0.800   7.218 -0.4451 -0.7910 -0.4989
  103MOL0     C13781   8.813   0.819   7.342  0.3500  0.5055  0.7802
  103MOL0     C13782   8.720   0.940   7.331 -0.2546  0.2114  0.1593
  103MOL0     C13783   8.629   0.946   7.448 -0.3689 -0.5115  0.1816
  103MOL0     C13784   8.582   1.095   7.497 -0.2961  0.1582 -0.0141
  103MOL0     C13785   8.531   1.189   7.383 -0.9786 -0.6918  0.4547
  103MOL0     C13786   8.440   1.305   7.434 -0.8720 -0.6971 -0.3291
  103MOL0     N13787   8.508   1.399   7.532 -0.7852 -0.2458  0.8112
  103MOL0     C13788   8.641   1.423   7.539 -0.4708 -0.2984  1.0559
  103MOL0     C13789   8.655   1.515   7.643  0.4296  1.2068  0.1892
  103MOL0     C13790   8.788   1.544   7.710  0.6575 -0.8829 -1.1597
  103MOL0     C13791   8.901   1.560   7.614  0.3813 -0.3572  0.2297
  103MOL0     C13792   9.049   1.587   7.664  0.0916  0.0904 -0.0146
  103MOL0     C13793   9.123   1.472   7.745  0.3684 -0.1957  0.1431
  103MOL0     O13794   9.043   1.458   7.862 -0.4193 -0.5080 -0.3559
  103MOL0     C13795   9.064   1.364   7.961  0.1213  0.1846 -0.3756
  103MOL0     C13796   9.170   1.264   7.945  0.4128 -0.3080 -1.2758
  103MOL0     C13797   9.188   1.156   8.029  0.6959 -0.4501 -1.1919
  103MOL0     C13798   9.090   1.156   8.139  0.2587 -0.2426  0.8481
  103MOL0     C13799   9.072   1.041   8.234  0.5892 -0.0517 -0.5169
  103MOL0     O13800   8.960   1.033   8.308  0.0191  0.8410  0.1087
  103MOL0     C13801   8.916   0.925   8.388  0.1096 -0.1588 -0.3491
  103MOL0     C13802   8.998   0.858   8.470 -0.2419  0.0737 -0.3422
  103MOL0     C13803   8.953   0.768   8.563 -0.0516  0.1321  0.2056
  103MOL0     C13804   8.812   0.747   8.572 -0.0789 -0.0970  0.1813
  103MOL0     O13805   8.748   0.667   8.661 -0.8692 -0.3386 -0.1638
  103MOL0     C13806   8.826   0.581   8.745 -0.8027  1.2592 -0.2108
  103MOL0     C13807   8.748   0.480   8.818 -0.4032 -0.2412 -0.2876
  103MOL0     C13808   8.631   0.542   8.900 -0.5016  0.5591  0.3009
  103MOL0     C13809   8.677   0.660   8.985 -0.8913 -0.4550  0.1759
  103MOL0     C13810   8.565   0.707   9.078  0.3334 -0.4811  0.9783
  103MOL0     C13811   8.610   0.815   9.171  0.2142  0.5957 -0.3748
  103MOL0     C13812   8.500   0.836   9.285  0.0152  0.8258  0.4614
  103MOL0     C13813   8.544   0.958   9.369 -0.6078  0.0496 -0.5695
  103MOL0    Cl13814   8.444   0.961   9.520  0.3883  0.1539 -0.5541
  103MOL0     C13815   8.728   0.830   8.496 -0.3786  0.1200 -0.6861
  103MOL0     C13816   8.779   0.917   8.407 -0.1667  0.6589 -0.4529
  103MOL0     O13817   9.159   0.951   8.224 -0.3503 -0.1993  0.1365
  103MOL0     C13818   8.995   1.259   8.157  0.8331 -0.7559  0.3465
  103MOL0     C13819   8.977   1.359   8.068 -0.7356  0.4860  0.1870
  103MOL0     N13820   8.526   1.546   7.692 -0.3623  0.0052 -0.3304
  103MOL0     N13821   8.445   1.474   7.625  0.2531 -0.1395  0.5132
  103MOL0     C13822   9.169   1.059   6.935  0.1027 -0.0106  0.4789
  103MOL0     C13823   9.273   1.154   6.901 -0.2780 -0.6231  0.1614
  103MOL0     C13824   9.592   1.487   6.953 -0.2163  1.5177 -0.3894
  103MOL0     C13825   9.662   1.444   6.830  0.5176  0.4534 -0.8521
  103MOL0     C13826   9.760   1.517   6.766  0.0583 -0.8114 -0.4195
  103MOL0     C13827   9.811   1.638   6.826  0.3216  0.0623 -0.4842
  103MOL0     O13828   9.920   1.696   6.766  0.0707  0.1717  0.3319
  103MOL0     C13829   9.929   1.837   6.782  0.2363 -0.9149  0.1928
  103MOL0     C13830  10.043   1.873   6.693  0.5511  0.5471 -0.5625
  103MOL0     C13831  10.097   2.016   6.726  0.7391 -0.2165  1.0218
  103MOL0     C13832  10.033   2.119   6.644 -0.7240 -0.5928  0.5194
  103MOL0     C13833   9.895   2.138   6.696  0.1922  0.0923  0.0038
  103MOL0     C13834   9.782   2.150   6.735  0.7584 -0.0239  0.8505
  103MOL0     C13835   9.741   1.680   6.948 -0.1233  0.7768  0.4645
  103MOL0     C13836   9.637   1.607   7.003  1.0497 -0.5495 -0.0642
  103MOL0     C13837   9.574   1.662   7.123  0.5607 -0.0102 -0.0944
  103MOL0     H13838   9.435   1.177   7.194 -1.5195  1.3941  0.4732
  103MOL0     H13839   9.257   1.018   7.253  1.1176 -2.0811 -0.9152
  103MOL0     H13840   9.118   0.822   7.254  0.9494  0.9281  0.2988
  103MOL0     H13841   9.030   0.971   7.283  1.1710 -0.1529  0.8697
  103MOL0     H13842   8.940   0.697   7.218  2.3764 -0.0117  2.0839
  103MOL0     H13843   8.846   0.834   7.133  0.3031  3.1820  0.3193
  103MOL0     H13844   8.877   0.821   7.431  1.0742 -2.0382  0.4079
  103MOL0     H13845   8.757   0.725   7.350 -0.5129  0.9335 -0.1517
  103MOL0     H13846   8.781   1.030   7.333  0.9464 -0.5761  0.5215
  103MOL0     H13847   8.665   0.933   7.237  0.0423 -4.2958  0.0822
  103MOL0     H13848   8.539   0.885   7.441 -0.0847 -1.1501  1.8241
  103MOL0     H13849   8.681   0.898   7.531 -0.9167  0.9707  1.4409
  103MOL0     H13850   8.503   1.089   7.571 -2.0851  2.1929 -1.6261
  103MOL0     H13851   8.668   1.141   7.547  0.0307 -1.4276  0.9614
  103MOL0     H13852   8.470   1.122   7.321  0.8549 -0.8514 -1.2846
  103MOL0     H13853   8.612   1.218   7.316 -1.7165  0.4570  0.0321
  103MOL0     H13854   8.401   1.364   7.351 -2.0549  1.4081  1.5765
  103MOL0     H13855   8.345   1.264   7.469  0.2618 -1.7652  1.6867
  103MOL0     H13856   8.720   1.380   7.479 -1.1164  2.2245 -1.8268
  103MOL0     H13857   8.772   1.634   7.770  1.5518 -1.0099 -0.7009
  103MOL0     H13858   8.822   1.467   7.780  0.3058  1.0206  1.2408
  103MOL0     H13859   8.910   1.472   7.550 -2.4729 -2.4075  2.3943
  103MOL0     H13860   8.857   1.634   7.546 -3.9002 -2.0435  0.8009
  103MOL0     H13861   9.045   1.677   7.727  0.5273  1.2366 -1.5458
  103MOL0     H13862   9.101   1.619   7.573 -2.2847 -4.3387 -3.2969
  103MOL0     H13863   9.224   1.506   7.770 -0.2582 -0.7543  4.1484
  103MOL0     H13864   9.123   1.382   7.683 -0.6137 -0.5220  0.5947
  103MOL0     H13865   9.240   1.291   7.868  1.5427  2.9305  0.6588
  103MOL0     H13866   9.268   1.088   8.005  1.4110 -0.4858  1.1323
  103MOL0     H13867   9.105   0.877   8.469 -0.0366 -0.6264  2.4629
  103MOL0     H13868   9.019   0.711   8.628 -2.1388  0.2650  2.6046
  103MOL0     H13869   8.894   0.517   8.688 -2.0504 -1.1533  0.8909
  103MOL0     H13870   8.888   0.643   8.811  1.5298 -0.2259 -0.8651
  103MOL0     H13871   8.713   0.403   8.750  0.8507 -1.1087  0.0225
  103MOL0     H13872   8.804   0.419   8.889  1.2107 -0.6630 -1.8627
  103MOL0     H13873   8.550   0.573   8.833  0.1193  0.4372 -0.5143
  103MOL0     H13874   8.590   0.461   8.962 -1.3683  1.6223  1.1517
  103MOL0     H13875   8.713   0.742   8.922  0.3089 -2.2252 -1.5456
  103MOL0     H13876   8.758   0.622   9.047 -0.6480  0.3095  0.3388
  103MOL0     H13877   8.527   0.623   9.138 -1.2440  1.0312  2.1849
  103MOL0     H13878   8.473   0.735   9.026  0.9008  0.8993  0.6777
  103MOL0     H13879   8.704   0.794   9.223 -1.3556 -0.2178  2.3783
  103MOL0     H13880   8.615   0.910   9.118 -1.7271  1.3304  0.6608
  103MOL0     H13881   8.491   0.743   9.341 -0.0890 -0.0225 -0.9195
  103MOL0     H13882   8.399   0.849   9.244 -1.3418 -2.3020  2.4832
  103MOL0     H13883   8.649   0.935   9.387 -0.7862 -0.8287 -0.5877
  103MOL0     H13884   8.539   1.048   9.307 -0.8194 -1.3322 -2.6837
  103MOL0     H13885   8.620   0.822   8.506 -0.3520  0.3814 -0.1305
  103MOL0     H13886   8.714   0.984   8.351  1.3644  1.6092 -1.1579
  103MOL0     H13887   8.935   1.273   8.246  1.8849 -2.2472  1.3372
  103MOL0     H13888   8.896   1.431   8.067 -0.6506  0.7380 -3.6721
  103MOL0     H13889   9.092   1.033   6.863  1.5446  1.9181 -1.9222
  103MOL0     H13890   9.281   1.174   6.794  1.7344 -2.0427 -0.0104
  103MOL0     H13891   9.629   1.349   6.791  0.3215  0.6042 -1.0520
  103MOL0     H13892   9.807   1.470   6.681  0.2766  1.2393 -1.5051
  103MOL0     H13893   9.943   1.856   6.889  0.2427  1.3551 -0.1688
  103MOL0     H13894   9.838   1.879   6.739  1.4568  0.1972 -1.4256
  103MOL0     H13895  10.024   1.851   6.587 -1.1424  2.9441 -0.8254
  103MOL0     H13896  10.125   1.807   6.725  0.1916 -1.2513 -2.9673
  103MOL0     H13897  10.198   2.019   6.685 -0.4069  0.6512 -1.9638
  103MOL0     H13898  10.092   2.036   6.834 -0.7544 -0.3870  0.9983
  103MOL0     H13899  10.082   2.217   6.654 -0.2180 -0.3838 -2.7989
  103MOL0     H13900  10.037   2.092   6.538 -1.1784  0.6486  0.1642
  103MOL0     H13901   9.681   2.143   6.771  0.0337  1.3339 -0.7937
  103MOL0     H13902   9.768   1.764   7.012 -0.5325  1.2784 -0.0016
  103MOL0     H13903   9.577   1.584   7.199 -1.9951 -0.2543 -0.1643
  103MOL0     H13904   9.622   1.755   7.156 -2.9366  3.1973 -3.0798
  103MOL0     H13905   9.467   1.679   7.111  0.3797 -0.4344  0.8224
  104MOL0     O13906  11.427   9.554   5.187 -0.3436  0.8751  0.1931
  104MOL0     C13907  11.320   9.522   5.146  0.1594  0.1158  0.5411
  104MOL0     O13908  11.253   9.587   5.043  0.4211 -0.5694 -0.1012
  104MOL0     C13909  11.287   9.722   5.011 -0.4077 -0.5715  1.4644
  104MOL0     C13910  11.364   9.814   5.086  0.3003  0.1293  0.8735
  104MOL0     C13911  11.382   9.946   5.044  0.3427 -0.0364  0.3593
  104MOL0     C13912  11.330   9.992   4.921  0.4267  0.2119 -0.2358
  104MOL0     O13913  11.364  10.120   4.899 -0.0041 -0.1030  0.4284
  104MOL0     C13914  11.312  10.186   4.777  0.1436  0.4374 -0.1366
  104MOL0     C13915  11.334  10.337   4.781 -0.2976  0.8526  0.1559
  104MOL0     C13916  11.476  10.377   4.772 -0.2341 -0.5819 -0.0235
  104MOL0     C13917  11.502  10.525   4.778  0.1386  0.1959  0.1718
  104MOL0     C13918  11.652  10.557   4.753  0.0264 -0.5500 -0.3149
  104MOL0     C13919  11.665  10.707   4.746 -0.2994  0.2061  0.5502
  104MOL0     C13920  11.805  10.752   4.689  0.1205 -0.0123 -0.6222
  104MOL0     C13921  11.773  10.794   4.541  0.3765 -0.2980 -0.3528
  104MOL0     N13922  11.707  10.923   4.532  0.5263  0.2785 -0.5831
  104MOL0     C13923  11.600  10.967   4.457  0.8271  0.7043 -0.4524
  104MOL0     C13924  11.613  11.099   4.452  0.5372 -0.5519 -0.1900
  104MOL0     C13925  11.546  11.212   4.366  0.8244  0.4518  0.0915
  104MOL0     C13926  11.460  11.320   4.442  0.3994  0.1465  0.7751
  104MOL0     C13927  11.356  11.258   4.537 -0.1351 -0.6216 -0.5394
  104MOL0     C13928  11.234  11.195   4.480  0.1398 -0.5651  0.7621
  104MOL0     O13929  11.260  11.077   4.405 -0.2855  0.5065 -0.2835
  104MOL0     C13930  11.146  11.004   4.368 -0.7955  0.7700  0.1508
  104MOL0     C13931  11.013  11.025   4.400  0.2826 -0.2345  0.7365
  104MOL0     C13932  10.904  10.937   4.374  0.0736 -0.9580  0.3713
  104MOL0     C13933  10.918  10.830   4.291 -0.3161  0.0962  0.4585
  104MOL0     C13934  10.795  10.743   4.264  0.2368  0.3691 -0.0676
  104MOL0     O13935  10.677  10.768   4.326 -0.3313  0.3060  0.3820
  104MOL0     C13936  10.586  10.664   4.315 -0.3923 -0.1636 -0.5137
  104MOL0     C13937  10.607  10.529   4.356  0.4537 -0.0805  0.5798
  104MOL0     C13938  10.496  10.445   4.334  0.1774 -0.1009  0.5903
  104MOL0     C13939  10.375  10.492   4.287  0.6981  0.2462 -0.0008
  104MOL0     O13940  10.255  10.419   4.302  0.2295 -0.4866 -0.1033
  104MOL0     C13941  10.238  10.349   4.425  0.1195 -0.0707  0.7270
  104MOL0     C13942  10.115  10.254   4.424  0.4031 -0.1127  0.4466
  104MOL0     C13943  10.091  10.175   4.555 -0.0670 -0.6302 -0.1011
  104MOL0     C13944  10.214  10.085   4.608  0.6013 -0.7153 -0.3706
  104MOL0     C13945  10.265   9.976   4.511  0.4035 -0.3956  0.0546
  104MOL0     C13946  10.163   9.866   4.463  0.0795 -0.1171 -0.0018
  104MOL0     C13947  10.097   9.788   4.578 -0.2352  0.3374 -0.8299
  104MOL0     C13948   9.996   9.674   4.522  0.0546 -0.1023 -0.6345
  104MOL0    Cl13949   9.977   9.568   4.674 -0.1964  0.2086 -0.1742
  104MOL0     C13950  10.362  10.623   4.238  0.9090  0.7494  0.9729
  104MOL0     C13951  10.472  10.702   4.252 -0.0272 -0.4308 -0.4930
  104MOL0     O13952  10.822  10.649   4.189  0.2186  0.2858  0.1777
  104MOL0     C13953  11.056  10.809   4.242 -0.5656  0.4472  0.3785
  104MOL0     C13954  11.165  10.895   4.283  0.0435  0.1053 -0.3889
  104MOL0     N13955  11.720  11.130   4.535 -0.1820  0.1111 -0.5070
  104MOL0     N13956  11.778  11.024   4.573 -0.3348  0.1118  0.1042
  104MOL0     C13957  11.244   9.898   4.844 -0.1178  0.0514 -0.3449
  104MOL0     C13958  11.243   9.760   4.881  0.1721 -0.1383  0.1607
  104MOL0     C13959  11.251   9.415   5.218 -0.4093  0.5775 -0.5116
  104MOL0     C13960  11.153   9.354   5.138  1.1668  0.3863  0.4422
  104MOL0     C13961  11.061   9.260   5.195 -1.2694  0.2408  0.6777
  104MOL0     C13962  11.071   9.228   5.325 -0.0714 -0.4382 -0.4401
  104MOL0     O13963  10.971   9.144   5.381 -0.4758 -0.6797  0.6536
  104MOL0     C13964  10.989   9.077   5.501 -0.7396 -0.1657 -0.0354
  104MOL0     C13965  10.899   8.956   5.495  0.4640  0.1917  1.0120
  104MOL0     C13966  10.745   8.998   5.509  0.3077 -0.1146  0.0596
  104MOL0     C13967  10.647   8.883   5.477  0.3082  0.6151 -0.9123
  104MOL0     C13968  10.534   8.894   5.573 -0.2142 -1.4584  0.6565
  104MOL0     C13969  10.437   8.916   5.654  0.1983  1.3414 -0.0003
  104MOL0     C13970  11.176   9.277   5.400 -0.3773  1.0330  0.1741
  104MOL0     C13971  11.262   9.377   5.354 -0.2205  0.1592  0.7427
  104MOL0     C13972  11.370   9.435   5.444 -0.4238  0.3162  0.8860
  104MOL0     H13973  11.401   9.789   5.185 -1.0295 -1.4910  1.0195
  104MOL0     H13974  11.441  10.011   5.107 -0.6179  0.2561  0.9765
  104MOL0     H13975  11.360  10.146   4.687 -1.6485  1.2285 -1.5155
  104MOL0     H13976  11.204  10.168   4.780 -0.1260  1.9890  1.6700
  104MOL0     H13977  11.290  10.380   4.871 -1.3224  1.4932 -0.6285
  104MOL0     H13978  11.288  10.374   4.689  1.4823 -1.7546 -1.9407
  104MOL0     H13979  11.518  10.351   4.674  0.5598 -1.9591  0.6465
  104MOL0     H13980  11.547  10.328   4.839 -1.0103  0.4956  1.6551
  104MOL0     H13981  11.447  10.571   4.694  1.1817 -2.8197 -2.3563
  104MOL0     H13982  11.474  10.562   4.877 -0.5816  0.2879 -0.0582
  104MOL0     H13983  11.719  10.540   4.838  0.4911  4.0257  0.4940
  104MOL0     H13984  11.693  10.518   4.659 -0.0730 -0.4141 -0.4145
  104MOL0     H13985  11.590  10.758   4.685  0.1165 -0.5249 -0.6050
  104MOL0     H13986  11.659  10.745   4.849  0.2364 -0.0785  0.6870
  104MOL0     H13987  11.873  10.666   4.682 -1.1123 -1.1545  0.6792
  104MOL0     H13988  11.852  10.840   4.733  0.3895 -0.4090 -0.0954
  104MOL0     H13989  11.874  10.806   4.499 -0.5334  2.2148 -2.0820
  104MOL0     H13990  11.721  10.712   4.492 -0.9234  2.3258 -3.8196
  104MOL0     H13991  11.535  10.910   4.391  0.5769 -1.3006  1.4170
  104MOL0     H13992  11.629  11.259   4.313  1.2477  0.6767  0.9352
  104MOL0     H13993  11.480  11.164   4.293  0.0630  0.0506  1.0239
  104MOL0     H13994  11.536  11.381   4.493  1.2451 -1.7445  1.8688
  104MOL0     H13995  11.411  11.394   4.378  1.0793  0.4268  0.5620
  104MOL0     H13996  11.323  11.340   4.601  1.2914  0.1002 -0.6766
  104MOL0     H13997  11.398  11.182   4.603 -4.0153 -3.5200 -1.0731
  104MOL0     H13998  11.179  11.266   4.418  2.4896 -0.0362 -0.8488
  104MOL0     H13999  11.177  11.173   4.572  0.4682 -1.1074  0.8400
  104MOL0     H14000  10.976  11.105   4.464 -0.3909 -0.9994  1.3290
  104MOL0     H14001  10.807  10.963   4.415 -0.7613  0.0614 -2.0727
  104MOL0     H14002  10.703  10.502   4.401  0.8406  0.2818 -0.0133
  104MOL0     H14003  10.516  10.342   4.360 -0.7559 -0.7351 -1.0160
  104MOL0     H14004  10.322  10.284   4.450 -0.5985 -0.4769  2.2114
  104MOL0     H14005  10.237  10.427   4.501 -1.7710 -1.0408  1.7861
  104MOL0     H14006  10.024  10.313   4.416  0.6375  0.0256 -1.7740
  104MOL0     H14007  10.124  10.180   4.343  1.0423  0.1628  0.2556
  104MOL0     H14008  10.064  10.241   4.637 -0.9329  0.5263 -1.2781
  104MOL0     H14009  10.003  10.112   4.544 -1.1599  0.7616  0.4760
  104MOL0     H14010  10.193  10.030   4.700  0.9551 -4.7521 -2.4829
  104MOL0     H14011  10.301  10.148   4.629 -1.1116  1.1112  1.8534
  104MOL0     H14012  10.347   9.918   4.554  0.3569  0.2507  1.0625
  104MOL0     H14013  10.301  10.036   4.427 -0.2114  1.2107  0.8888
  104MOL0     H14014  10.089   9.921   4.405  0.6948  2.1208  1.2370
  104MOL0     H14015  10.201   9.781   4.406 -1.5038 -0.7977 -0.0854
  104MOL0     H14016  10.046   9.858   4.646  3.3708  1.9580  0.4674
  104MOL0     H14017  10.176   9.736   4.633  0.8166  0.1939 -2.4098
  104MOL0     H14018   9.895   9.708   4.499 -0.5959 -1.6543 -0.2141
  104MOL0     H14019  10.040   9.623   4.436 -0.7778  1.5458 -2.0956
  104MOL0     H14020  10.268  10.654   4.194  0.8882 -0.6906 -0.0475
  104MOL0     H14021  10.484  10.806   4.221  0.8655 -0.3245  0.1586
  104MOL0     H14022  11.076  10.719   4.185 -1.3163 -1.0304  2.3764
  104MOL0     H14023  11.269  10.883   4.255 -0.2451 -3.1599 -0.5220
  104MOL0     H14024  11.192   9.949   4.764  0.1515  2.9413  1.1864
  104MOL0     H14025  11.181   9.702   4.814 -0.1520 -0.2338  0.5425
  104MOL0     H14026  11.148   9.376   5.032  0.5656 -1.4468  0.0648
  104MOL0     H14027  10.994   9.203   5.132  0.5854 -2.7579  1.2442
  104MOL0     H14028  10.966   9.142   5.587  0.9977 -3.7848  3.5092
  104MOL0     H14029  11.092   9.050   5.526 -0.8801  2.7485  5.2790
  104MOL0     H14030  10.927   8.908   5.589  0.9369 -0.3997  0.5752
  104MOL0     H14031  10.908   8.899   5.403 -1.2010  3.1281 -1.1660
  104MOL0     H14032  10.715   9.080   5.444 -0.3683 -1.0748 -0.8759
  104MOL0     H14033  10.732   9.038   5.610  0.7097 -0.8471  0.4191
  104MOL0     H14034  10.610   8.900   5.375 -1.9634  2.4727  0.1517
  104MOL0     H14035  10.680   8.780   5.493 -1.8991 -0.1269 -0.8117
  104MOL0     H14036  10.351   8.920   5.717  0.8270 -3.1816  1.4437
  104MOL0     H14037  11.172   9.254   5.506 -4.6100 -1.3463 -0.2417
  104MOL0     H14038  11.374   9.389   5.543  0.8683 -1.2478  0.1542
  104MOL0     H14039  11.469   9.404   5.409 -1.0416 -1.1447  0.3396
  104MOL0     H14040  11.369   9.544   5.458  1.3065  0.7110 -1.3443
  105MOL0     O14041   8.481   9.885   0.028 -0.1219 -0.5517 -0.3551
  105MOL0     C14042   8.504   9.788  -0.031  0.0539  0.7881  0.0082
  105MOL0     O14043   8.410   9.713  -0.100  0.2139  0.0107 -0.2458
  105MOL0     C14044   8.289   9.769  -0.108  0.2460  1.0409  1.3786
  105MOL0     C14045   8.186   9.743  -0.017 -0.4518 -0.4281 -0.0671
  105MOL0     C14046   8.057   9.797  -0.012  0.8271  0.0217 -0.0564
  105MOL0     C14047   8.029   9.880  -0.121  0.4406  0.2583 -0.1917
  105MOL0     O14048   7.912   9.951  -0.134  0.2944  0.2515  0.2544
  105MOL0     C14049   7.793   9.898  -0.075  0.1161  0.2529 -0.6194
  105MOL0     C14050   7.767   9.956   0.055 -0.5430  0.2060  0.2576
  105MOL0     C14051   7.719  10.101   0.050 -0.2069 -0.3838  0.3428
  105MOL0     C14052   7.648  10.126   0.182 -0.2110 -0.5605  0.3445
  105MOL0     C14053   7.634  10.277   0.208 -0.3048 -0.2035  0.1876
  105MOL0     C14054   7.585  10.308   0.346  0.2524  0.1486  0.2802
  105MOL0     C14055   7.585  10.463   0.401 -0.0006  0.2790  0.0005
  105MOL0     C14056   7.520  10.551   0.294 -0.0952 -0.4182  0.3680
  105MOL0     N14057   7.374  10.510   0.269 -0.7778 -0.3611 -0.0578
  105MOL0     C14058   7.267  10.584   0.311 -0.1064  0.8740  0.6543
  105MOL0     C14059   7.150  10.526   0.254  0.1130  0.7843  0.2183
  105MOL0     C14060   7.011  10.576   0.264 -0.0182  0.4166 -0.0228
  105MOL0     C14061   6.920  10.484   0.331 -1.0045  0.1152 -0.1700
  105MOL0     C14062   6.960  10.463   0.476 -0.1469 -0.7059 -1.0790
  105MOL0     C14063   6.914  10.571   0.579 -0.5680 -0.3747 -0.7317
  105MOL0     O14064   7.003  10.687   0.563  0.1557 -0.6580  0.4273
  105MOL0     C14065   6.999  10.804   0.647  0.6921 -0.2484  0.2377
  105MOL0     C14066   6.902  10.818   0.749 -0.2655 -0.3136  0.3330
  105MOL0     C14067   6.901  10.929   0.841  0.3647  0.3900 -0.1010
  105MOL0     C14068   6.982  11.032   0.817 -1.4589 -0.5511 -1.4032
  105MOL0     C14069   6.968  11.159   0.904  0.2473  0.5112 -0.2306
  105MOL0     O14070   6.847  11.191   0.963  0.6448  0.5409 -0.2100
  105MOL0     C14071   6.856  11.283   1.063 -0.1500  0.7046  0.0804
  105MOL0     C14072   6.888  11.412   1.040  0.4778 -0.2054  0.3402
  105MOL0     C14073   6.881  11.498   1.151  0.1300  0.1502  0.2997
  105MOL0     C14074   6.842  11.457   1.279 -0.3284  0.5867 -0.7946
  105MOL0     O14075   6.829  11.530   1.393  0.0415  0.0681  0.2327
  105MOL0     C14076   6.895  11.655   1.418 -0.0314  0.4545 -0.3957
  105MOL0     C14077   6.801  11.754   1.504  0.7606  0.8205  0.1014
  105MOL0     C14078   6.754  11.706   1.640  0.4628 -0.0923  0.0311
  105MOL0     C14079   6.609  11.743   1.656 -0.9737 -0.7505 -0.4065
  105MOL0     C14080   6.549  11.702   1.795  0.6635  0.7411 -0.7604
  105MOL0     C14081   6.391  11.721   1.794 -0.2983 -0.3785  0.3547
  105MOL0     C14082   6.321  11.724   1.924  0.5895 -0.3076 -0.0883
  105MOL0     C14083   6.188  11.803   1.912 -0.8550  0.3646  0.6998
  105MOL0    Cl14084   6.099  11.775   2.063  0.1727 -0.0807  0.1003
  105MOL0     C14085   6.784  11.337   1.294 -1.0127  0.3206 -0.2021
  105MOL0     C14086   6.794  11.252   1.186  0.1991  0.6418 -0.8022
  105MOL0     O14087   7.072  11.227   0.915  0.2252 -0.4324  0.2241
  105MOL0     C14088   7.083  11.020   0.716  0.2092  0.6118  0.3549
  105MOL0     C14089   7.089  10.904   0.636  0.3320 -0.5729 -0.8513
  105MOL0     N14090   7.194  10.409   0.190 -1.2452  0.8534 -1.0539
  105MOL0     N14091   7.323  10.402   0.199  0.6159  0.0286  0.0120
  105MOL0     C14092   8.123   9.907  -0.226 -0.6757 -0.4476 -0.5005
  105MOL0     C14093   8.255   9.850  -0.210  0.1523  0.2194 -0.0739
  105MOL0     C14094   8.634   9.716  -0.018  0.3088  0.1784  0.3061
  105MOL0     C14095   8.677   9.637  -0.123  0.2351 -0.1551  0.4960
  105MOL0     C14096   8.795   9.572  -0.128 -0.6373 -0.8242  0.0662
  105MOL0     C14097   8.892   9.594  -0.029  0.4137  1.1299  0.0477
  105MOL0     O14098   9.021   9.545  -0.028 -0.3259  0.6243  0.5894
  105MOL0     C14099   9.054   9.413  -0.088 -0.0878  1.0515 -0.1646
  105MOL0     C14100   9.082   9.421  -0.242 -0.4338  0.1544  0.1052
  105MOL0     C14101   9.080   9.291  -0.326 -0.4949 -0.4440  0.4485
  105MOL0     C14102   9.017   9.299  -0.470  0.7559 -0.9242  0.5465
  105MOL0     C14103   9.083   9.371  -0.569 -1.3339 -0.9152 -0.1781
  105MOL0     C14104   9.151   9.443  -0.643  0.3814 -0.0948  0.4156
  105MOL0     C14105   8.852   9.674   0.081  0.1757  0.3235  0.0277
  105MOL0     C14106   8.732   9.736   0.087 -0.5690 -0.4253 -0.2656
  105MOL0     C14107   8.702   9.817   0.215  0.3453  0.8112  0.9597
  105MOL0     H14108   8.203   9.670   0.062  0.6567  1.4309  1.4812
  105MOL0     H14109   7.986   9.768   0.065 -0.8955  1.4119 -1.0539
  105MOL0     H14110   7.708   9.924  -0.139 -0.8357  0.1364  0.5598
  105MOL0     H14111   7.803   9.790  -0.064  1.1173  0.5261  1.7299
  105MOL0     H14112   7.846   9.927   0.125 -2.9010 -2.4628  2.0191
  105MOL0     H14113   7.683   9.900   0.097 -0.7681  1.0945  1.0376
  105MOL0     H14114   7.652  10.123  -0.034 -0.7309 -1.5363  0.4415
  105MOL0     H14115   7.804  10.169   0.060 -0.6866  0.1598  0.7489
  105MOL0     H14116   7.550  10.077   0.177 -0.6399  0.2811  0.3658
  105MOL0     H14117   7.697  10.073   0.265 -2.4520 -2.4506  0.5937
  105MOL0     H14118   7.733  10.323   0.196 -1.5084  3.5547  2.8800
  105MOL0     H14119   7.571  10.331   0.137  0.6855 -1.6513 -1.9063
  105MOL0     H14120   7.485  10.264   0.349 -0.2120  1.1701  0.1269
  105MOL0     H14121   7.637  10.247   0.421 -1.3887 -0.3274  1.0902
  105MOL0     H14122   7.688  10.494   0.420 -0.2444  0.4998  0.9916
  105MOL0     H14123   7.531  10.473   0.496  1.7289 -2.8760  1.4910
  105MOL0     H14124   7.531  10.658   0.314 -2.1204  0.1271 -1.0981
  105MOL0     H14125   7.571  10.528   0.200 -0.2141  0.3220  0.1192
  105MOL0     H14126   7.268  10.675   0.369  0.6294 -0.1416  2.2982
  105MOL0     H14127   7.022  10.669   0.321  3.4479 -0.1407  0.4097
  105MOL0     H14128   6.976  10.599   0.163  0.6904  3.1587  0.2581
  105MOL0     H14129   6.819  10.524   0.337 -1.6850 -1.6138  0.6574
  105MOL0     H14130   6.929  10.388   0.280  3.2662 -0.4622  1.2442
  105MOL0     H14131   7.067  10.440   0.488 -0.2415 -1.0799 -0.9270
  105MOL0     H14132   6.913  10.370   0.511  0.3726  0.2583  2.6187
  105MOL0     H14133   6.928  10.530   0.679  1.5359  1.1710 -0.3247
  105MOL0     H14134   6.807  10.594   0.565 -0.0592  1.7600 -1.6883
  105MOL0     H14135   6.831  10.737   0.760  0.6214 -0.7874  3.2267
  105MOL0     H14136   6.816  10.939   0.907 -1.2260  0.6191 -2.0711
  105MOL0     H14137   6.908  11.458   0.944 -2.2999 -2.8520 -1.7274
  105MOL0     H14138   6.921  11.597   1.130 -0.3295 -0.0505 -1.7450
  105MOL0     H14139   6.983  11.624   1.476  0.0947 -0.5576 -1.1051
  105MOL0     H14140   6.921  11.703   1.324 -3.2860  0.1279 -1.5778
  105MOL0     H14141   6.839  11.856   1.520 -0.6156  1.1548  1.5215
  105MOL0     H14142   6.710  11.775   1.447 -0.1252  5.0345  2.6439
  105MOL0     H14143   6.764  11.598   1.628 -0.1248 -0.9636  5.1879
  105MOL0     H14144   6.835  11.725   1.711  0.0429 -0.6477  0.6735
  105MOL0     H14145   6.556  11.692   1.575 -2.6481 -0.1332  0.2566
  105MOL0     H14146   6.616  11.850   1.635  0.1428 -0.7593 -0.1041
  105MOL0     H14147   6.588  11.764   1.877 -3.5395  0.4093  1.8268
  105MOL0     H14148   6.577  11.599   1.819  1.3230  1.0788 -0.0242
  105MOL0     H14149   6.381  11.808   1.728  4.3428 -1.2497 -1.8779
  105MOL0     H14150   6.341  11.635   1.750 -2.0512  0.0962  1.3226
  105MOL0     H14151   6.382  11.765   2.005  2.0740 -2.0035 -0.2825
  105MOL0     H14152   6.303  11.619   1.950  0.3807  0.4074  3.0810
  105MOL0     H14153   6.201  11.910   1.895  2.2686  0.1033  0.6828
  105MOL0     H14154   6.141  11.760   1.824 -1.3366  2.7906 -0.2980
  105MOL0     H14155   6.744  11.297   1.387  3.3110 -2.1954  0.8737
  105MOL0     H14156   6.744  11.157   1.197  1.7597  0.0263  1.7987
  105MOL0     H14157   7.162  11.091   0.697 -0.1226  0.3994 -2.0824
  105MOL0     H14158   7.170  10.901   0.564 -0.2304 -3.1425 -1.4632
  105MOL0     H14159   8.101   9.954  -0.321  4.2527 -0.5213 -1.8976
  105MOL0     H14160   8.329   9.870  -0.286  0.0943 -0.0506 -0.2057
  105MOL0     H14161   8.605   9.626  -0.204  0.6684 -5.1639  0.4262
  105MOL0     H14162   8.827   9.520  -0.218 -1.6935 -1.8434  0.2670
  105MOL0     H14163   8.978   9.335  -0.073  3.2542 -2.0308  2.2570
  105MOL0     H14164   9.143   9.382  -0.033 -0.0882  0.9998 -0.1930
  105MOL0     H14165   9.176   9.469  -0.267  0.3466 -0.9164  0.8846
  105MOL0     H14166   9.000   9.486  -0.275  1.5811  1.4067 -2.8744
  105MOL0     H14167   9.009   9.246  -0.257  0.6803  2.9512  4.2469
  105MOL0     H14168   9.175   9.237  -0.320 -2.1062 -3.4271  1.2441
  105MOL0     H14169   8.990   9.195  -0.493  0.3807 -1.0974  1.7206
  105MOL0     H14170   8.927   9.357  -0.449  1.8183  0.2460  2.0858
  105MOL0     H14171   9.212   9.498  -0.712  0.0080  2.0900  1.7217
  105MOL0     H14172   8.927   9.685   0.159  0.3311 -2.1095  0.2894
  105MOL0     H14173   8.773   9.810   0.298  0.9033  2.1745  0.6176
  105MOL0     H14174   8.684   9.920   0.184  2.7276  0.5450 -1.7054
  105MOL0     H14175   8.607   9.774   0.248 -0.4188  1.0262 -0.8808
  106MOL0     O14176  10.034   2.565  10.875 -0.5777 -0.0722 -0.4245
  106MOL0     C14177   9.959   2.618  10.792 -0.7176  0.2584 -0.5275
  106MOL0     O14178   9.862   2.549  10.717 -0.4628  0.3434 -0.5024
  106MOL0     C14179   9.895   2.423  10.707  0.6757  1.0185  0.0006
  106MOL0     C14180   9.878   2.340  10.812  0.3698 -0.4249 -0.2322
  106MOL0     C14181   9.920   2.209  10.815 -0.4821 -0.6343 -0.5627
  106MOL0     C14182   9.979   2.151  10.700  0.7111 -1.5256  0.3176
  106MOL0     O14183  10.005   2.020  10.688  0.2663  0.4200  0.0721
  106MOL0     C14184   9.932   1.922  10.765 -0.7183  0.4287  0.3307
  106MOL0     C14185  10.022   1.802  10.791 -0.2673  0.8215  0.0712
  106MOL0     C14186  10.132   1.808  10.892 -0.8169 -0.0845  0.1685
  106MOL0     C14187  10.202   1.683  10.923  0.3817 -0.5624 -0.2717
  106MOL0     C14188  10.298   1.695  11.040 -1.0301 -0.3583 -1.0483
  106MOL0     C14189  10.250   1.676  11.180  0.5171  0.2400  0.7738
  106MOL0     C14190  10.361   1.708  11.285  0.1110  0.9021 -1.0826
  106MOL0     C14191  10.309   1.654  11.414  0.3640 -0.1783 -1.2886
  106MOL0     N14192  10.419   1.665  11.517 -0.5878  0.9715 -0.3373
  106MOL0     C14193  10.505   1.767  11.540 -0.3556  0.7757 -0.4436
  106MOL0     C14194  10.592   1.710  11.625  0.6945  0.5915  0.0440
  106MOL0     C14195  10.726   1.780  11.661 -0.2075 -0.6475 -0.0559
  106MOL0     C14196  10.850   1.735  11.593 -0.5139  0.3526 -0.0728
  106MOL0     C14197  10.819   1.728  11.447 -0.0544  0.4094  0.0543
  106MOL0     C14198  10.945   1.718  11.357  0.2194  0.4603 -0.8099
  106MOL0     O14199  11.037   1.616  11.392  0.3142  0.2063 -0.0430
  106MOL0     C14200  11.146   1.602  11.311 -0.7803  0.1458  0.2071
  106MOL0     C14201  11.183   1.673  11.191 -0.0062  0.1817  0.3668
  106MOL0     C14202  11.309   1.648  11.120  0.4557  0.2576  0.0674
  106MOL0     C14203  11.404   1.557  11.163  0.1660  0.1240 -0.0429
  106MOL0     C14204  11.540   1.541  11.104  0.7932  0.0044  0.3632
  106MOL0     O14205  11.628   1.445  11.148  0.2151 -0.8386  0.3153
  106MOL0     C14206  11.755   1.422  11.104  0.2329 -0.1457  0.0363
  106MOL0     C14207  11.812   1.485  11.001  0.9840 -0.0688  0.0080
  106MOL0     C14208  11.930   1.453  10.948  0.3805 -0.5571 -0.7020
  106MOL0     C14209  12.004   1.347  11.009 -0.0301  0.4614  0.1753
  106MOL0     O14210  12.129   1.307  10.974  0.6152 -0.2159 -0.2309
  106MOL0     C14211  12.146   1.287  10.837  0.0385  0.1715  0.5718
  106MOL0     C14212  12.256   1.376  10.773  0.2785  0.1633  0.2441
  106MOL0     C14213  12.393   1.346  10.841 -0.1998 -0.4255 -0.0046
  106MOL0     C14214  12.469   1.483  10.860  0.1409  0.3272  0.0312
  106MOL0     C14215  12.583   1.462  10.951  0.3014  0.4084 -0.0724
  106MOL0     C14216  12.666   1.583  10.991  0.2231 -0.0403 -0.1407
  106MOL0     C14217  12.726   1.574  11.138  0.4815  0.7463  0.1227
  106MOL0     C14218  12.845   1.665  11.156  0.4641 -0.0859 -0.0738
  106MOL0    Cl14219  12.790   1.830  11.120 -0.1352  0.3208  0.0214
  106MOL0     C14220  11.957   1.291  11.131 -0.9325 -0.4310 -0.0817
  106MOL0     C14221  11.828   1.330  11.174 -0.2165 -0.5177  1.2294
  106MOL0     O14222  11.548   1.604  11.004  0.1353  0.1762  0.1604
  106MOL0     C14223  11.359   1.475  11.272  0.5403  0.4440  0.1905
  106MOL0     C14224  11.232   1.497  11.338  0.6709 -0.5452 -0.1895
  106MOL0     N14225  10.544   1.590  11.671  0.0366 -0.1631 -0.3223
  106MOL0     N14226  10.443   1.555  11.604  0.4196  0.0722  0.0002
  106MOL0     C14227   9.986   2.234  10.588 -0.1144  0.3179  0.5715
  106MOL0     C14228   9.954   2.366  10.591 -1.4621  0.5630 -0.8700
  106MOL0     C14229   9.973   2.759  10.785  0.7289 -1.1017  0.0516
  106MOL0     C14230  10.061   2.828  10.881  0.1530 -0.1535  0.6011
  106MOL0     C14231  10.073   2.965  10.873  0.2448  0.0769  0.3091
  106MOL0     C14232   9.990   3.040  10.795  0.2055 -0.1577  0.1710
  106MOL0     O14233   9.997   3.176  10.791  0.0178  0.0159  0.2226
  106MOL0     C14234   9.888   3.250  10.750  0.2676 -0.3331 -0.2779
  106MOL0     C14235   9.864   3.378  10.825 -0.3491  0.4823  0.6358
  106MOL0     C14236   9.893   3.371  10.971  0.5576 -0.4152  0.2063
  106MOL0     C14237   9.815   3.263  11.057  0.2557  0.4835  0.0577
  106MOL0     C14238   9.827   3.294  11.196 -0.3797 -0.0996 -0.5349
  106MOL0     C14239   9.838   3.306  11.310  0.1986 -0.3430  0.1643
  106MOL0     C14240   9.893   2.971  10.717  0.1087  0.5778  1.0793
  106MOL0     C14241   9.888   2.833  10.707 -0.2744 -0.6307  1.1855
  106MOL0     C14242   9.799   2.779  10.586  0.1482  0.4850 -0.3847
  106MOL0     H14243   9.832   2.382  10.900  1.1504  1.7841 -0.8230
  106MOL0     H14244   9.908   2.154  10.908 -1.2805  1.6423  0.7502
  106MOL0     H14245   9.906   1.963  10.862  0.7438  0.6117  0.6718
  106MOL0     H14246   9.845   1.887  10.709  1.5433 -3.9848 -1.0023
  106MOL0     H14247  10.069   1.768  10.699  1.2348  1.6935  0.4790
  106MOL0     H14248   9.953   1.721  10.817 -1.0606  2.2645  2.9397
  106MOL0     H14249  10.096   1.851  10.986  1.7377  3.1023 -0.1439
  106MOL0     H14250  10.207   1.878  10.855 -1.0426  0.8184  1.3407
  106MOL0     H14251  10.119   1.614  10.943 -1.3095  1.5097  0.3174
  106MOL0     H14252  10.246   1.657  10.827  0.1590 -4.8868  0.6262
  106MOL0     H14253  10.370   1.613  11.029  0.0320  0.5084 -0.6972
  106MOL0     H14254  10.358   1.786  11.047 -2.0176  0.1698  1.8330
  106MOL0     H14255  10.174   1.755  11.194  1.3691  0.8059  2.4792
  106MOL0     H14256  10.203   1.578  11.180  1.5073 -0.2580 -0.6197
  106MOL0     H14257  10.392   1.812  11.279  2.7945  0.1066 -2.3811
  106MOL0     H14258  10.450   1.646  11.269 -0.1441  0.6022 -1.3586
  106MOL0     H14259  10.225   1.717  11.446  0.2128 -0.5180 -1.0086
  106MOL0     H14260  10.278   1.549  11.412  0.4409 -0.4003  2.3702
  106MOL0     H14261  10.502   1.865  11.492 -1.4448  0.8141 -0.3271
  106MOL0     H14262  10.718   1.888  11.646  0.8405 -0.2551  1.9439
  106MOL0     H14263  10.746   1.765  11.767  2.3152 -0.5468 -0.4398
  106MOL0     H14264  10.928   1.806  11.622 -1.1606  0.0641  2.6546
  106MOL0     H14265  10.871   1.636  11.635 -0.4982 -0.2107 -1.3725
  106MOL0     H14266  10.763   1.817  11.417 -1.0210 -0.2300 -0.0983
  106MOL0     H14267  10.762   1.634  11.438  1.4814 -0.3559 -3.2357
  106MOL0     H14268  10.997   1.812  11.374  1.5205 -0.8397  3.5535
  106MOL0     H14269  10.901   1.709  11.257  0.8981  2.6714 -1.3566
  106MOL0     H14270  11.116   1.752  11.161  0.1013  1.3218  2.8662
  106MOL0     H14271  11.331   1.712  11.035  1.7077  3.6244  2.7004
  106MOL0     H14272  11.740   1.552  10.956 -1.6511 -2.5942  0.1852
  106MOL0     H14273  11.965   1.514  10.865 -3.4864  0.6735 -1.6518
  106MOL0     H14274  12.178   1.183  10.823  1.7060  0.8470 -1.1583
  106MOL0     H14275  12.055   1.298  10.778  0.9156 -1.1170 -1.1243
  106MOL0     H14276  12.262   1.363  10.665  0.3819  2.4036 -0.0718
  106MOL0     H14277  12.232   1.482  10.789 -1.3998  0.2927 -2.4505
  106MOL0     H14278  12.396   1.283  10.931 -0.3696  1.0904  1.0877
  106MOL0     H14279  12.453   1.287  10.771 -1.0319 -0.2487 -0.8880
  106MOL0     H14280  12.409   1.567  10.895  2.1068  2.0453 -0.5370
  106MOL0     H14281  12.511   1.512  10.763 -1.5549  0.6929 -0.6318
  106MOL0     H14282  12.648   1.379  10.919  3.3609  2.3310  0.7299
  106MOL0     H14283  12.535   1.442  11.047  0.9225  0.0472  0.1743
  106MOL0     H14284  12.738   1.608  10.913 -0.7644 -0.4371 -1.2077
  106MOL0     H14285  12.603   1.671  10.982 -2.5977 -2.0815 -2.1364
  106MOL0     H14286  12.758   1.474  11.167 -0.2413 -0.4661 -2.9591
  106MOL0     H14287  12.645   1.612  11.200 -0.3303  1.0491 -1.0918
  106MOL0     H14288  12.866   1.671  11.263 -0.4961  2.6842  0.0322
  106MOL0     H14289  12.921   1.634  11.084 -0.5081 -1.3992 -0.5993
  106MOL0     H14290  12.003   1.216  11.194 -1.0219  0.4352  1.0494
  106MOL0     H14291  11.779   1.285  11.260  0.8098 -0.2256  1.9888
  106MOL0     H14292  11.423   1.389  11.293 -0.3007  0.4972  3.6217
  106MOL0     H14293  11.200   1.425  11.413 -0.1507  1.2053  1.1977
  106MOL0     H14294  10.024   2.186  10.499 -1.6432  1.2629 -0.6486
  106MOL0     H14295   9.967   2.421  10.498  1.4692 -2.0049 -2.1805
  106MOL0     H14296  10.122   2.768  10.948 -0.0612 -0.9665  0.0715
  106MOL0     H14297  10.139   3.009  10.948  0.4744 -0.9603  0.7325
  106MOL0     H14298   9.795   3.197  10.771 -0.4613  1.2523  0.7183
  106MOL0     H14299   9.882   3.265  10.642 -0.2475 -2.5109 -0.5908
  106MOL0     H14300   9.756   3.394  10.810 -0.3629  0.5412  0.8002
  106MOL0     H14301   9.919   3.462  10.781 -1.5731  0.7570 -0.4283
  106MOL0     H14302   9.869   3.468  11.016 -2.5033 -1.1214  0.2728
  106MOL0     H14303   9.997   3.362  11.005  0.1423  0.4402  1.8122
  106MOL0     H14304   9.710   3.253  11.027  0.7682 -2.2446 -1.1318
  106MOL0     H14305   9.856   3.163  11.039  2.0050  1.4756 -1.9792
  106MOL0     H14306   9.856   3.303  11.416  2.0159 -1.3652 -0.1298
  106MOL0     H14307   9.834   3.019  10.639 -0.9156 -2.3901 -0.0899
  106MOL0     H14308   9.860   2.722  10.515  0.0665 -2.8654  1.9906
  106MOL0     H14309   9.716   2.716  10.618  0.8812  0.5896  1.9409
  106MOL0     H14310   9.739   2.857  10.539 -0.0097 -0.7773 -2.3522
  107MOL0     O14311   2.468  10.193   3.166 -0.7530  0.0244 -0.3511
  107MOL0     C14312   2.587  10.182   3.127 -0.0057  0.1747 -0.0148
  107MOL0     O14313   2.629  10.189   3.002 -0.1073  0.1357 -0.7291
  107MOL0     C14314   2.546  10.215   2.906 -0.3424  0.3047  0.1395
  107MOL0     C14315   2.545  10.347   2.866 -0.5242 -0.2697 -1.1534
  107MOL0     C14316   2.488  10.382   2.744 -0.4145 -0.0141  0.1758
  107MOL0     C14317   2.418  10.280   2.668 -0.8274 -0.5487 -0.5074
  107MOL0     O14318   2.369  10.333   2.548  0.0133  0.5907  0.0259
  107MOL0     C14319   2.319  10.236   2.449 -0.5896 -0.1231 -0.3633
  107MOL0     C14320   2.278  10.297   2.320  0.7942  0.2499  0.0512
  107MOL0     C14321   2.382  10.391   2.276 -0.1298 -0.0394 -0.4776
  107MOL0     C14322   2.389  10.405   2.121 -0.2789  0.2240  0.5517
  107MOL0     C14323   2.286  10.494   2.048 -0.6054 -0.0870  0.4398
  107MOL0     C14324   2.301  10.644   2.055  1.2034  0.0026 -0.3201
  107MOL0     C14325   2.217  10.727   1.974 -0.5280 -0.2935  0.5128
  107MOL0     C14326   2.216  10.676   1.820 -0.5340  0.3188  0.4459
  107MOL0     N14327   2.348  10.691   1.749  0.2822  0.1124  0.9914
  107MOL0     C14328   2.406  10.808   1.719  0.1250  0.6328 -0.6650
  107MOL0     C14329   2.527  10.768   1.677  0.0043  1.0586  0.0876
  107MOL0     C14330   2.640  10.864   1.653 -0.7922  1.0673 -0.1461
  107MOL0     C14331   2.712  10.897   1.794 -0.0499  0.0402  0.2751
  107MOL0     C14332   2.783  10.774   1.862 -0.3025  0.0625  0.7741
  107MOL0     C14333   2.893  10.702   1.793  0.4193  0.3136  0.0964
  107MOL0     O14334   2.986  10.796   1.744 -0.3486 -0.4298 -0.9854
  107MOL0     C14335   3.078  10.865   1.821 -0.5450  0.6714 -0.2886
  107MOL0     C14336   3.101  10.832   1.958  1.3654 -0.4615 -0.5143
  107MOL0     C14337   3.191  10.907   2.044 -0.2393  0.4668  0.5722
  107MOL0     C14338   3.266  11.011   1.985 -0.5759  0.0069 -0.2557
  107MOL0     C14339   3.374  11.082   2.055 -0.4539 -0.8627 -0.7782
  107MOL0     O14340   3.441  11.023   2.157 -0.5779  0.5875 -0.8768
  107MOL0     C14341   3.555  11.074   2.197  0.0387 -0.6406  0.2923
  107MOL0     C14342   3.594  11.054   2.335 -0.3517 -0.2563  1.3201
  107MOL0     C14343   3.712  11.106   2.391  0.1196  0.3030 -0.1099
  107MOL0     C14344   3.800  11.177   2.315  0.2487  1.2170  0.0810
  107MOL0     O14345   3.911  11.227   2.379 -0.1568  0.5964  0.2013
  107MOL0     C14346   3.994  11.313   2.304 -1.2155  0.1818  0.5141
  107MOL0     C14347   4.106  11.359   2.398  0.0412  0.5792  0.1446
  107MOL0     C14348   4.223  11.438   2.335 -0.1141 -0.5364  0.1231
  107MOL0     C14349   4.332  11.480   2.435  0.1818  0.6441 -0.2269
  107MOL0     C14350   4.452  11.555   2.380  0.6662 -0.6517  0.6775
  107MOL0     C14351   4.542  11.468   2.287 -0.3301  0.6287 -0.0486
  107MOL0     C14352   4.604  11.353   2.373  0.1274 -0.7594  0.3041
  107MOL0     C14353   4.711  11.284   2.296 -0.6989 -0.3584  0.1509
  107MOL0    Cl14354   4.648  11.163   2.180  0.0603  0.5264  0.2424
  107MOL0     C14355   3.767  11.198   2.179  0.7901 -0.1929 -0.5309
  107MOL0     C14356   3.649  11.136   2.122 -0.8402  0.3916 -0.1470
  107MOL0     O14357   3.395  11.200   2.025  0.4202  0.3214  0.0452
  107MOL0     C14358   3.237  11.044   1.851  0.0515  0.3011  0.3768
  107MOL0     C14359   3.149  10.965   1.767  0.6903 -0.0693  0.8031
  107MOL0     N14360   2.540  10.628   1.672  0.6572 -0.7418 -0.0520
  107MOL0     N14361   2.428  10.576   1.722 -0.1335  0.1794  0.2757
  107MOL0     C14362   2.413  10.149   2.711  0.1652 -0.3664  0.4533
  107MOL0     C14363   2.474  10.115   2.836 -0.2719  0.5035  1.1445
  107MOL0     C14364   2.693  10.149   3.231  0.4624 -0.2204 -0.5737
  107MOL0     C14365   2.773  10.041   3.212  0.0366 -0.5230  0.7757
  107MOL0     C14366   2.862  10.011   3.308 -0.7859  0.2858 -0.9223
  107MOL0     C14367   2.888  10.085   3.422 -0.4619 -0.4184  0.0869
  107MOL0     O14368   3.002  10.044   3.492  0.4741 -0.7149 -0.5771
  107MOL0     C14369   3.009  10.077   3.632 -0.5430 -0.1926  0.0960
  107MOL0     C14370   3.150  10.062   3.672 -0.5645 -0.0482  0.9551
  107MOL0     C14371   3.191   9.912   3.669 -0.1474 -0.4575 -0.1837
  107MOL0     C14372   3.327   9.896   3.598 -0.6272  0.7178  1.3823
  107MOL0     C14373   3.430   9.964   3.676 -0.4367 -0.4752  1.2594
  107MOL0     C14374   3.504  10.017   3.759 -0.6671 -0.0612 -0.2177
  107MOL0     C14375   2.815  10.201   3.439 -0.3484  0.2196 -0.8010
  107MOL0     C14376   2.717  10.235   3.348  1.2737  0.0751 -0.3170
  107MOL0     C14377   2.639  10.362   3.369  0.2258 -0.9235  1.0571
  107MOL0     H14378   2.603  10.417   2.926 -0.1429 -1.1558 -0.4498
  107MOL0     H14379   2.489  10.484   2.707 -2.8688  0.0130 -0.0155
  107MOL0     H14380   2.401  10.166   2.429 -1.1339 -0.9866  0.3653
  107MOL0     H14381   2.231  10.184   2.488 -0.2412  2.7981  5.2311
  107MOL0     H14382   2.185  10.348   2.343  0.0566  0.5886 -3.1763
  107MOL0     H14383   2.248  10.221   2.246  0.2945  0.3812  0.1209
  107MOL0     H14384   2.483  10.375   2.314 -0.1871  0.4000 -0.1395
  107MOL0     H14385   2.365  10.491   2.317 -1.5738 -1.2306  2.0387
  107MOL0     H14386   2.488  10.439   2.088  0.5569 -2.3943  0.1347
  107MOL0     H14387   2.384  10.301   2.088  0.1572 -0.1184  1.5456
  107MOL0     H14388   2.305  10.464   1.945 -2.9067 -1.4775  0.3502
  107MOL0     H14389   2.188  10.459   2.080 -0.5877 -0.4371  0.1133
  107MOL0     H14390   2.285  10.663   2.161  1.1476 -2.5014  0.1893
  107MOL0     H14391   2.407  10.664   2.037  1.1079 -0.6592 -1.8186
  107MOL0     H14392   2.245  10.832   1.981  0.1648 -0.4509  0.1664
  107MOL0     H14393   2.118  10.734   2.020 -0.2236  2.5389  0.9051
  107MOL0     H14394   2.166  10.579   1.819 -0.5241  0.3089 -1.4555
  107MOL0     H14395   2.160  10.744   1.755  1.0052 -1.1902 -2.6710
  107MOL0     H14396   2.364  10.908   1.730  1.2603  0.9364  1.6293
  107MOL0     H14397   2.719  10.828   1.586 -2.4127  1.5515 -2.4424
  107MOL0     H14398   2.598  10.955   1.610  0.8642  1.7954 -0.3248
  107MOL0     H14399   2.784  10.974   1.767  1.0830 -1.5620 -1.5253
  107MOL0     H14400   2.645  10.932   1.872 -0.4305 -2.2293  1.0417
  107MOL0     H14401   2.715  10.691   1.883  0.1329 -1.1831 -2.3199
  107MOL0     H14402   2.829  10.806   1.956 -0.7972 -2.8537  2.1226
  107MOL0     H14403   2.857  10.653   1.702 -4.6885  0.9730  1.4537
  107MOL0     H14404   2.940  10.632   1.863 -0.7035  1.2927  1.8898
  107MOL0     H14405   3.041  10.759   2.010  1.9823  0.4292  1.5580
  107MOL0     H14406   3.212  10.885   2.149  1.5003  0.7745  0.3289
  107MOL0     H14407   3.531  10.987   2.392 -1.2922  0.1225  0.7541
  107MOL0     H14408   3.739  11.069   2.489 -1.8486  0.3379  0.4821
  107MOL0     H14409   4.042  11.270   2.215 -1.0194  0.2380  0.5923
  107MOL0     H14410   3.948  11.397   2.251 -3.1665 -1.6442 -0.8842
  107MOL0     H14411   4.055  11.420   2.473 -0.1138 -0.6438  1.0806
  107MOL0     H14412   4.152  11.275   2.452 -0.7621 -0.1429 -0.2708
  107MOL0     H14413   4.280  11.369   2.272 -0.5759 -1.3777  0.5991
  107MOL0     H14414   4.185  11.521   2.275  1.3513  2.0102  2.4729
  107MOL0     H14415   4.361  11.383   2.477 -2.3207  0.3748  1.1046
  107MOL0     H14416   4.290  11.544   2.512 -1.8524  0.9599 -1.5182
  107MOL0     H14417   4.519  11.601   2.453 -0.7617  5.2066 -1.1352
  107MOL0     H14418   4.429  11.638   2.313  3.3708 -1.5775 -1.6155
  107MOL0     H14419   4.493  11.420   2.201  3.5485  1.0252 -2.7129
  107MOL0     H14420   4.621  11.537   2.257 -0.8321  1.9720  1.5835
  107MOL0     H14421   4.527  11.276   2.385 -0.1642 -1.0285 -2.5341
  107MOL0     H14422   4.636  11.386   2.472  0.1568  1.5691 -0.4223
  107MOL0     H14423   4.762  11.360   2.235 -0.4192  0.4781  1.3826
  107MOL0     H14424   4.792  11.240   2.355  0.3951 -0.0512 -1.0586
  107MOL0     H14425   3.829  11.270   2.126 -0.5666  1.7815  0.4154
  107MOL0     H14426   3.632  11.142   2.015  0.3979  0.1789 -0.3712
  107MOL0     H14427   3.290  11.122   1.798  2.3721 -2.0243 -0.9913
  107MOL0     H14428   3.116  10.998   1.669 -1.5734 -3.0646  0.4274
  107MOL0     H14429   2.375  10.077   2.639 -0.7559  1.0342 -0.4973
  107MOL0     H14430   2.480  10.016   2.880  2.9107  0.8673  1.8191
  107MOL0     H14431   2.757   9.973   3.130  0.8873  3.5690 -3.1804
  107MOL0     H14432   2.916   9.920   3.284 -2.2699 -0.2076 -2.6437
  107MOL0     H14433   2.947  10.008   3.690  1.2187 -1.1409  0.9605
  107MOL0     H14434   2.973  10.177   3.653  0.9877  0.6465 -1.0269
  107MOL0     H14435   3.182  10.107   3.766 -0.2389  1.7048  0.0549
  107MOL0     H14436   3.205  10.125   3.602  1.9468  0.6334  3.3895
  107MOL0     H14437   3.126   9.837   3.623 -1.1920 -0.7730  1.7037
  107MOL0     H14438   3.193   9.871   3.770  0.2214  1.0213  0.4369
  107MOL0     H14439   3.355   9.793   3.576 -1.1190  0.1403  3.3697
  107MOL0     H14440   3.311   9.935   3.496 -0.6693 -0.7255  0.8214
  107MOL0     H14441   3.576  10.060   3.826  1.7545 -2.0661 -1.3915
  107MOL0     H14442   2.821  10.255   3.533 -1.8505 -2.6577  1.0891
  107MOL0     H14443   2.693  10.421   3.444 -2.7266  1.0283  1.8516
  107MOL0     H14444   2.631  10.430   3.284 -0.1964 -0.2377  1.6340
  107MOL0     H14445   2.536  10.346   3.402 -0.8487  0.8982 -1.1730
  108MOL0     O14446   5.585   8.131   1.623 -0.6711 -0.2138  0.2483
  108MOL0     C14447   5.573   8.031   1.556  0.6814  0.6190 -0.7056
  108MOL0     O14448   5.458   7.983   1.508  0.2678  0.4954 -0.1432
  108MOL0     C14449   5.343   8.047   1.547 -0.1327  0.5906 -0.0369
  108MOL0     C14450   5.262   8.102   1.448  0.3398  0.2338 -1.1333
  108MOL0     C14451   5.144   8.171   1.469 -0.3577  0.8797 -0.5037
  108MOL0     C14452   5.100   8.188   1.603  0.1497  0.4863 -0.7068
  108MOL0     O14453   4.987   8.260   1.628 -0.5628 -0.4268  0.1574
  108MOL0     C14454   5.003   8.383   1.692  0.1984  0.2575 -0.3882
  108MOL0     C14455   4.890   8.422   1.786  1.0061  0.4742 -0.4063
  108MOL0     C14456   4.919   8.366   1.929 -0.7013  0.3906 -0.2068
  108MOL0     C14457   4.802   8.357   2.028 -0.8582  0.8694 -0.3478
  108MOL0     C14458   4.833   8.303   2.168  0.0453  0.0839 -0.8511
  108MOL0     C14459   4.921   8.404   2.245  0.2661 -0.9031 -0.1388
  108MOL0     C14460   4.837   8.519   2.306 -0.3169 -0.2859  0.5074
  108MOL0     C14461   4.925   8.650   2.298  0.6226  0.1309  0.3961
  108MOL0     N14462   4.850   8.775   2.332 -0.9372 -0.5329  0.5200
  108MOL0     C14463   4.842   8.837   2.457  0.3258  0.8395 -0.4699
  108MOL0     C14464   4.804   8.965   2.430 -0.2644  0.3585 -0.3028
  108MOL0     C14465   4.792   9.068   2.538  0.2157  0.3818 -0.6548
  108MOL0     C14466   4.859   9.190   2.496 -0.5754 -0.4892  0.1122
  108MOL0     C14467   4.847   9.296   2.601 -0.5738 -0.2842 -1.5097
  108MOL0     C14468   4.951   9.408   2.580 -0.4657  0.3155  0.2441
  108MOL0     O14469   4.925   9.487   2.466 -0.5900 -0.0359  0.1887
  108MOL0     C14470   5.017   9.577   2.414 -0.7187 -0.5643 -0.2751
  108MOL0     C14471   5.143   9.602   2.477  0.1632  0.0628  1.0546
  108MOL0     C14472   5.234   9.691   2.418  0.8981 -1.5385  0.0645
  108MOL0     C14473   5.199   9.762   2.302  0.4012  0.6972  0.4383
  108MOL0     C14474   5.303   9.841   2.233  0.1499 -0.5761 -0.0087
  108MOL0     O14475   5.277   9.902   2.116  0.0174 -0.5496 -0.4319
  108MOL0     C14476   5.365   9.979   2.059  0.2928 -0.4494  1.1020
  108MOL0     C14477   5.327  10.115   2.036  0.1459  0.0492 -0.1071
  108MOL0     C14478   5.417  10.203   1.974  1.4261  0.5306 -0.0574
  108MOL0     C14479   5.540  10.149   1.917 -0.1433  0.5105 -0.2455
  108MOL0     O14480   5.639  10.236   1.871 -0.4741  0.1296 -0.4440
  108MOL0     C14481   5.773  10.231   1.937  1.0643 -0.7918 -0.7204
  108MOL0     C14482   5.863  10.350   1.906  0.2071 -0.1095 -0.8649
  108MOL0     C14483   6.001  10.331   1.838 -0.2159 -0.0648  0.1827
  108MOL0     C14484   6.083  10.461   1.844 -0.4963 -1.4950  0.6083
  108MOL0     C14485   6.219  10.438   1.771  0.8876 -0.7597 -0.3669
  108MOL0     C14486   6.334  10.383   1.860 -0.1735 -0.0303 -0.8333
  108MOL0     C14487   6.458  10.321   1.780 -0.0618 -0.3385 -0.1698
  108MOL0     C14488   6.567  10.249   1.858  0.5408 -0.3023 -0.3813
  108MOL0    Cl14489   6.718  10.207   1.755  0.1002 -0.4630  0.0303
  108MOL0     C14490   5.571  10.007   1.938 -0.8078 -0.7897 -0.1626
  108MOL0     C14491   5.480   9.930   2.006  0.4713  0.2063  0.4347
  108MOL0     O14492   5.404   9.861   2.298 -0.4569  0.4357  0.5192
  108MOL0     C14493   5.070   9.749   2.248  0.2535  0.8233  0.0460
  108MOL0     C14494   4.988   9.652   2.297  0.2167  0.6120  0.6987
  108MOL0     N14495   4.780   8.981   2.297  0.3072 -0.0911  0.5743
  108MOL0     N14496   4.820   8.869   2.237  0.8909 -0.0560  0.1540
  108MOL0     C14497   5.186   8.146   1.701  0.7517 -0.0501  0.0182
  108MOL0     C14498   5.311   8.081   1.682  1.0379  0.3381 -0.7616
  108MOL0     C14499   5.690   7.951   1.529 -0.0639  0.4306 -0.2629
  108MOL0     C14500   5.773   7.926   1.639  0.4601 -1.6527 -0.2251
  108MOL0     C14501   5.887   7.851   1.625  0.3793  0.2437 -0.1444
  108MOL0     C14502   5.923   7.793   1.499  0.2697  0.5118  0.6245
  108MOL0     O14503   6.034   7.727   1.493  1.0343  0.1384  0.1685
  108MOL0     C14504   6.155   7.808   1.474  0.9969 -0.1702  0.6431
  108MOL0     C14505   6.184   7.881   1.348 -0.4312 -0.4285 -0.9737
  108MOL0     C14506   6.187   7.797   1.224  0.6198  0.1655  0.3300
  108MOL0     C14507   6.304   7.687   1.220  0.6755 -1.0829  0.0683
  108MOL0     C14508   6.439   7.742   1.211  0.2992  1.1595 -0.1502
  108MOL0     C14509   6.556   7.782   1.210 -0.1653  0.1015  0.1201
  108MOL0     C14510   5.838   7.812   1.386 -0.1589  0.4671 -0.9802
  108MOL0     C14511   5.724   7.892   1.402  0.2032  0.0109  0.8238
  108MOL0     C14512   5.642   7.906   1.277 -0.3478 -0.0412 -0.2872
  108MOL0     H14513   5.298   8.083   1.346 -0.4973 -0.5035 -1.3028
  108MOL0     H14514   5.089   8.198   1.379  0.5733  0.4656 -1.2112
  108MOL0     H14515   5.095   8.380   1.750  0.9491  1.2632 -1.4616
  108MOL0     H14516   5.010   8.450   1.605 -1.8165  2.2550  0.8883
  108MOL0     H14517   4.789   8.403   1.748  0.4818 -2.3509  2.0072
  108MOL0     H14518   4.898   8.531   1.792  3.2396  0.4048 -1.2665
  108MOL0     H14519   5.015   8.401   1.969 -0.3037  0.0827 -0.8724
  108MOL0     H14520   4.945   8.260   1.918 -1.3891  0.0589  1.1833
  108MOL0     H14521   4.756   8.455   2.023 -3.3912 -0.2376 -0.0454
  108MOL0     H14522   4.727   8.288   1.988 -2.5008  1.1951  1.9765
  108MOL0     H14523   4.737   8.281   2.216  0.3618 -0.9136 -0.6421
  108MOL0     H14524   4.886   8.207   2.168  0.7987  0.4909 -0.6868
  108MOL0     H14525   4.986   8.359   2.320  0.2745  2.3828  2.0301
  108MOL0     H14526   4.991   8.440   2.169 -1.5337  0.0490 -1.4178
  108MOL0     H14527   4.820   8.513   2.414 -0.8549  0.3339  0.4650
  108MOL0     H14528   4.747   8.550   2.251 -0.0645 -1.4599 -0.6007
  108MOL0     H14529   5.012   8.642   2.363  1.1510  0.3676 -0.2623
  108MOL0     H14530   4.967   8.671   2.199  1.4816 -1.4256  0.3931
  108MOL0     H14531   4.875   8.787   2.548  1.2569  3.0266  0.4635
  108MOL0     H14532   4.685   9.082   2.556  0.6340  1.2391  1.4459
  108MOL0     H14533   4.843   9.032   2.628 -0.6881 -1.6880 -0.9153
  108MOL0     H14534   4.965   9.167   2.483 -0.3817  0.7634 -0.7127
  108MOL0     H14535   4.823   9.227   2.399  2.7024 -1.7733 -1.7611
  108MOL0     H14536   4.872   9.263   2.702  1.9870  3.0116 -0.8913
  108MOL0     H14537   4.746   9.340   2.593 -1.3419 -2.0527 -1.9872
  108MOL0     H14538   5.050   9.361   2.576 -0.6797 -0.1978  0.7974
  108MOL0     H14539   4.944   9.474   2.667 -0.8119  0.2039  0.3021
  108MOL0     H14540   5.182   9.550   2.564 -1.3016  0.1429  1.7934
  108MOL0     H14541   5.331   9.704   2.464  0.8432 -4.6962  1.3197
  108MOL0     H14542   5.230  10.149   2.069 -2.0037 -4.2407 -1.2530
  108MOL0     H14543   5.382  10.304   1.960 -1.8907 -0.3266  1.0361
  108MOL0     H14544   5.765  10.215   2.045 -0.9333  2.7091 -0.2031
  108MOL0     H14545   5.835  10.150   1.897  3.1140 -0.2720  1.1961
  108MOL0     H14546   5.807  10.414   1.839 -1.9570  2.1604  2.7574
  108MOL0     H14547   5.891  10.391   2.004  0.3148 -2.4642  0.1813
  108MOL0     H14548   6.057  10.262   1.902 -0.8980 -0.2145  0.6242
  108MOL0     H14549   5.991  10.273   1.746 -1.0516  2.1745 -1.2345
  108MOL0     H14550   6.100  10.499   1.945  4.0030  1.5172 -0.9728
  108MOL0     H14551   6.023  10.534   1.789 -1.8291 -2.0478  1.3000
  108MOL0     H14552   6.250  10.510   1.695 -0.8655  1.4478  0.8786
  108MOL0     H14553   6.214  10.351   1.705  3.6942 -1.9102  0.7703
  108MOL0     H14554   6.379  10.464   1.919 -1.1118  0.1179 -0.3080
  108MOL0     H14555   6.282  10.319   1.932 -1.3146  2.1010  0.3427
  108MOL0     H14556   6.506  10.406   1.732 -0.0220  0.8774  1.8744
  108MOL0     H14557   6.416  10.249   1.710  3.0739 -4.0076  1.3441
  108MOL0     H14558   6.592  10.321   1.937 -0.0430  1.0774 -1.4054
  108MOL0     H14559   6.539  10.154   1.905  2.8365 -1.0234 -0.3529
  108MOL0     H14560   5.662   9.953   1.918 -1.3249 -2.2863  1.2833
  108MOL0     H14561   5.499   9.825   2.025 -1.4207 -0.4163 -0.8262
  108MOL0     H14562   5.044   9.822   2.172  0.2830  2.7431  1.7811
  108MOL0     H14563   4.892   9.638   2.249  1.8154  0.5446 -2.8132
  108MOL0     H14564   5.156   8.137   1.804  0.2015 -1.3752 -0.2355
  108MOL0     H14565   5.379   8.053   1.762 -2.0378 -2.2756  1.2100
  108MOL0     H14566   5.758   7.969   1.738  1.1821  0.0505 -0.8156
  108MOL0     H14567   5.956   7.832   1.707  1.0582 -2.8883 -1.3102
  108MOL0     H14568   6.238   7.737   1.487 -0.5427 -2.4331 -1.1471
  108MOL0     H14569   6.155   7.886   1.551 -0.6473  1.9209 -1.3221
  108MOL0     H14570   6.279   7.934   1.357 -1.4713  1.5232 -0.9519
  108MOL0     H14571   6.108   7.959   1.337  0.6414  0.3028 -4.6761
  108MOL0     H14572   6.197   7.863   1.138  0.7317 -0.7197 -0.3565
  108MOL0     H14573   6.087   7.757   1.202  0.3847  1.5974 -1.4202
  108MOL0     H14574   6.293   7.634   1.315 -1.3828  0.3170  0.6755
  108MOL0     H14575   6.289   7.612   1.141  1.5231 -1.4079  0.1991
  108MOL0     H14576   6.657   7.812   1.226 -1.3395  3.0807  3.4151
  108MOL0     H14577   5.862   7.757   1.295  2.0546 -1.2051  0.5301
  108MOL0     H14578   5.679   7.831   1.208  2.1903  1.5970 -0.8359
  108MOL0     H14579   5.535   7.888   1.288 -0.5062  1.2603  0.5222
  108MOL0     H14580   5.650   8.004   1.229 -1.4668  0.3241  0.2291
  109MOL0     O14581   2.633   2.938  10.393  0.0028  0.5403  0.2406
  109MOL0     C14582   2.527   2.995  10.376  0.7898  1.8031  0.7239
  109MOL0     O14583   2.404   2.952  10.422  0.2447 -0.2893 -0.2947
  109MOL0     C14584   2.393   2.819  10.470  0.6680 -0.1754  0.2178
  109MOL0     C14585   2.308   2.791  10.575 -0.5358 -0.8528 -0.0485
  109MOL0     C14586   2.300   2.659  10.619  0.4313  0.2483 -0.0486
  109MOL0     C14587   2.377   2.558  10.567  0.3794 -0.8199 -0.4706
  109MOL0     O14588   2.377   2.433  10.618  0.5745 -0.5813 -0.2652
  109MOL0     C14589   2.261   2.386  10.696 -0.6642 -0.1216  0.2748
  109MOL0     C14590   2.276   2.379  10.847  0.0766 -0.4917 -0.9779
  109MOL0     C14591   2.423   2.362  10.894  0.2757  0.2792  1.0060
  109MOL0     C14592   2.485   2.220  10.848 -1.4981  0.3138 -0.1126
  109MOL0     C14593   2.636   2.220  10.849 -0.3921 -0.3078 -0.5732
  109MOL0     C14594   2.688   2.316  10.746  0.0146 -0.7014  0.0566
  109MOL0     C14595   2.830   2.302  10.693 -0.2002 -0.9493 -0.2792
  109MOL0     C14596   2.846   2.356  10.553 -0.5673 -0.1645  0.0268
  109MOL0     N14597   2.976   2.321  10.487  0.1551  0.1730 -0.0194
  109MOL0     C14598   3.104   2.361  10.516 -0.1688 -0.7308  1.5686
  109MOL0     C14599   3.177   2.324  10.409 -0.1621  0.2074  0.4098
  109MOL0     C14600   3.318   2.386  10.386  0.9716  0.0464  0.3993
  109MOL0     C14601   3.403   2.369  10.508 -0.1241  0.1346  0.3461
  109MOL0     C14602   3.540   2.442  10.473  0.2762  0.2231  0.7089
  109MOL0     C14603   3.643   2.420  10.589  0.3755 -0.1440 -0.1900
  109MOL0     O14604   3.775   2.405  10.531 -0.5776 -0.0482  0.9817
  109MOL0     C14605   3.870   2.390  10.630 -0.3407 -0.1527  0.2905
  109MOL0     C14606   3.848   2.349  10.763  0.2526  0.0751  0.5961
  109MOL0     C14607   3.957   2.309  10.841  0.0800  0.3714 -0.2855
  109MOL0     C14608   4.092   2.325  10.790  0.7143  0.8589 -0.6851
  109MOL0     C14609   4.209   2.278  10.873  0.1476 -0.3037 -0.1828
  109MOL0     O14610   4.176   2.233  10.995 -0.1055  0.3649 -0.5112
  109MOL0     C14611   4.267   2.214  11.090 -0.1744 -0.3921 -0.0708
  109MOL0     C14612   4.364   2.115  11.076 -0.4794 -0.1103  0.1155
  109MOL0     C14613   4.444   2.075  11.176 -0.0215 -0.5647 -0.5530
  109MOL0     C14614   4.442   2.143  11.302 -0.2215 -0.3036  0.3233
  109MOL0     O14615   4.547   2.103  11.386 -0.2717 -0.8768 -0.9334
  109MOL0     C14616   4.559   2.168  11.510  0.7232 -0.5934 -0.4904
  109MOL0     C14617   4.668   2.075  11.568 -0.4462 -0.5110 -0.2617
  109MOL0     C14618   4.809   2.098  11.504 -0.4183 -0.3492  0.1019
  109MOL0     C14619   4.921   2.039  11.587  1.5759  0.4568 -0.5027
  109MOL0     C14620   5.055   2.085  11.558 -0.3739  0.4585  1.2882
  109MOL0     C14621   5.097   2.037  11.409 -0.5872 -0.4811  0.1276
  109MOL0     C14622   5.234   2.101  11.370  0.6252  0.0049  0.1022
  109MOL0     C14623   5.245   2.082  11.216  0.4634  0.0774  1.1940
  109MOL0    Cl14624   5.302   1.914  11.186 -0.6443 -0.1632  0.2545
  109MOL0     C14625   4.349   2.246  11.314  0.0854  0.2064 -0.8456
  109MOL0     C14626   4.264   2.280  11.211  1.4047  0.4554  0.0923
  109MOL0     O14627   4.323   2.279  10.824 -0.3098  0.4446 -0.0704
  109MOL0     C14628   4.111   2.368  10.663  0.6998  0.1458  0.4015
  109MOL0     C14629   3.999   2.409  10.588 -0.1511 -0.1266 -0.2934
  109MOL0     N14630   3.100   2.239  10.324 -0.4053 -0.6607 -0.4021
  109MOL0     N14631   2.984   2.238  10.385  1.0788 -0.3186 -0.5394
  109MOL0     C14632   2.459   2.587  10.460 -0.2279  0.0401 -0.3897
  109MOL0     C14633   2.464   2.717  10.411  0.0119  0.6070  0.0095
  109MOL0     C14634   2.535   3.101  10.270 -0.2043 -0.0659 -0.2427
  109MOL0     C14635   2.661   3.159  10.242 -0.8441  0.5426 -0.3262
  109MOL0     C14636   2.676   3.258  10.149 -0.5946 -0.0274 -0.1180
  109MOL0     C14637   2.571   3.305  10.076  0.2493 -0.9486  0.5259
  109MOL0     O14638   2.591   3.417  10.001 -0.2161  0.1501 -0.5462
  109MOL0     C14639   2.479   3.454   9.918 -0.6599  0.2091  0.3945
  109MOL0     C14640   2.521   3.566   9.827  0.3508 -0.4352 -0.0732
  109MOL0     C14641   2.405   3.624   9.745 -0.0333 -0.6119  0.2414
  109MOL0     C14642   2.469   3.727   9.649  0.4751 -0.4821 -1.6373
  109MOL0     C14643   2.470   3.869   9.689 -0.0655  0.2469  0.3137
  109MOL0     C14644   2.476   3.992   9.710 -0.0009 -0.0615  0.2950
  109MOL0     C14645   2.447   3.243  10.093 -0.0225  0.8180 -0.1632
  109MOL0     C14646   2.433   3.139  10.182  0.4287 -0.1282 -0.0754
  109MOL0     C14647   2.295   3.082  10.188 -1.1471  0.2644  0.2332
  109MOL0     H14648   2.254   2.872  10.623  3.1517  1.1604  1.0723
  109MOL0     H14649   2.220   2.633  10.687 -1.2010 -1.6395 -2.5067
  109MOL0     H14650   2.169   2.440  10.669 -0.5302  1.1170  2.0930
  109MOL0     H14651   2.251   2.282  10.665  3.8030 -1.5403  2.7951
  109MOL0     H14652   2.229   2.294  10.897  1.3917 -0.4268  0.4795
  109MOL0     H14653   2.236   2.469  10.894  1.6829 -1.6299  3.0000
  109MOL0     H14654   2.432   2.383  11.001 -2.1216  3.4596  0.7328
  109MOL0     H14655   2.481   2.440  10.844 -2.4673  1.6201 -0.2895
  109MOL0     H14656   2.456   2.148  10.926  1.0386 -1.4787 -0.6864
  109MOL0     H14657   2.447   2.187  10.751 -1.9853  0.4622  0.0225
  109MOL0     H14658   2.695   2.248  10.937 -1.0571 -1.0036  0.1024
  109MOL0     H14659   2.670   2.122  10.813  1.2823  0.2917 -0.7003
  109MOL0     H14660   2.615   2.309  10.664  1.2476  0.2285 -1.1738
  109MOL0     H14661   2.680   2.419  10.783  1.7544 -0.2302 -0.7469
  109MOL0     H14662   2.844   2.194  10.695 -0.8404 -1.0302  0.3895
  109MOL0     H14663   2.897   2.337  10.772  0.6817 -3.1887  0.0295
  109MOL0     H14664   2.760   2.322  10.495 -0.4486  1.5913 -1.2741
  109MOL0     H14665   2.841   2.465  10.562 -1.8085 -0.4012  3.7352
  109MOL0     H14666   3.121   2.440  10.588 -3.4794 -1.3338  3.2340
  109MOL0     H14667   3.361   2.345  10.294  0.5552 -0.7123  0.5289
  109MOL0     H14668   3.294   2.491  10.369 -2.9290 -0.5027  1.5254
  109MOL0     H14669   3.359   2.414  10.597  2.7167 -1.3386  2.6292
  109MOL0     H14670   3.419   2.264  10.535  1.6530  0.0721 -0.7598
  109MOL0     H14671   3.534   2.550  10.462 -0.0029  0.1965  0.6084
  109MOL0     H14672   3.567   2.395  10.378  0.6596 -1.2602  1.5080
  109MOL0     H14673   3.615   2.327  10.639  1.2361 -0.0737  0.4443
  109MOL0     H14674   3.649   2.505  10.657  0.3852  0.9829 -1.5565
  109MOL0     H14675   3.748   2.337  10.803 -0.1664 -3.3472 -1.0797
  109MOL0     H14676   3.942   2.277  10.943 -1.0338 -0.2924 -0.6433
  109MOL0     H14677   4.363   2.064  10.980  2.3160  2.1986 -1.3000
  109MOL0     H14678   4.522   2.006  11.145  1.0278  0.5125 -0.3728
  109MOL0     H14679   4.576   2.276  11.519  1.8792 -0.8527  0.8852
  109MOL0     H14680   4.473   2.137  11.570  0.9894 -2.2865 -0.9443
  109MOL0     H14681   4.677   2.095  11.675  0.7554  0.0131 -0.4434
  109MOL0     H14682   4.641   1.970  11.558 -0.7121 -0.6444  1.6405
  109MOL0     H14683   4.811   2.042  11.410  0.5041 -2.0324  1.0856
  109MOL0     H14684   4.823   2.206  11.495 -2.6530  0.1649  1.9589
  109MOL0     H14685   4.910   1.932  11.571  1.7026  0.4871 -0.7861
  109MOL0     H14686   4.899   2.057  11.693 -0.5572 -0.6446 -0.7007
  109MOL0     H14687   5.130   2.046  11.627 -1.0593 -1.3456  1.0793
  109MOL0     H14688   5.063   2.194  11.565  3.0093  0.7415 -2.9650
  109MOL0     H14689   5.103   1.929  11.393  0.1100 -0.4011 -0.1521
  109MOL0     H14690   5.021   2.063  11.335 -0.8886 -1.5801  0.0282
  109MOL0     H14691   5.316   2.056  11.429 -0.1553 -2.0475 -0.2974
  109MOL0     H14692   5.233   2.205  11.403 -1.7433 -0.6923  2.6432
  109MOL0     H14693   5.148   2.096  11.168  0.1668  1.0382  2.0424
  109MOL0     H14694   5.305   2.163  11.173 -0.9943  0.5220 -0.0926
  109MOL0     H14695   4.341   2.301  11.407 -0.7821 -0.1734 -0.6867
  109MOL0     H14696   4.183   2.350  11.229 -0.4876 -1.9186  1.3517
  109MOL0     H14697   4.203   2.380  10.607 -1.0673  1.5736 -2.4680
  109MOL0     H14698   3.997   2.448  10.487  1.3445 -1.7723 -1.0070
  109MOL0     H14699   2.506   2.496  10.424 -0.5654 -0.5543  0.6313
  109MOL0     H14700   2.525   2.740  10.324 -0.0596 -0.1024 -0.2368
  109MOL0     H14701   2.755   3.136  10.289 -0.8940 -0.4911 -0.7122
  109MOL0     H14702   2.768   3.315  10.138  0.7587 -2.2651 -1.0382
  109MOL0     H14703   2.406   3.493   9.989 -1.3953 -1.9785  0.9439
  109MOL0     H14704   2.445   3.364   9.865  1.1168  0.3307 -1.0461
  109MOL0     H14705   2.607   3.531   9.770  0.0533  0.1965 -0.9276
  109MOL0     H14706   2.550   3.642   9.901 -3.5779 -1.6225  3.0689
  109MOL0     H14707   2.335   3.669   9.815  1.8016  2.5184  0.2495
  109MOL0     H14708   2.370   3.542   9.681 -1.0660  0.3633 -0.4719
  109MOL0     H14709   2.570   3.698   9.618  0.5022  0.7278 -2.7968
  109MOL0     H14710   2.418   3.736   9.553 -0.1191  3.8918 -1.1328
  109MOL0     H14711   2.488   4.093   9.744  3.4274 -0.4129  0.4662
  109MOL0     H14712   2.358   3.264  10.034 -0.6439 -2.1519 -0.4458
  109MOL0     H14713   2.235   3.141  10.258  0.2695  1.2026  0.7002
  109MOL0     H14714   2.246   3.094  10.091 -1.3929 -0.1987  0.2983
  109MOL0     H14715   2.294   2.976  10.215  1.5228 -0.0863 -0.7279
  110MOL0     O14716   6.552   4.490   1.177 -0.8836 -0.2420 -0.6039
  110MOL0     C14717   6.435   4.471   1.220 -0.1814  0.2068  0.7546
  110MOL0     O14718   6.394   4.520   1.341 -0.6833 -0.8151 -0.0539
  110MOL0     C14719   6.488   4.597   1.408  0.7392  0.1012  0.0947
  110MOL0     C14720   6.499   4.732   1.390 -0.4516 -0.2211 -1.1477
  110MOL0     C14721   6.581   4.810   1.479 -0.0974 -0.2047  0.0506
  110MOL0     C14722   6.648   4.740   1.587  0.3663  0.3285 -0.4096
  110MOL0     O14723   6.727   4.821   1.669 -0.0724 -0.0954  0.2418
  110MOL0     C14724   6.784   4.776   1.788 -0.4815  0.3254 -0.5654
  110MOL0     C14725   6.842   4.907   1.847 -0.2641  0.1166  0.7761
  110MOL0     C14726   6.902   4.885   1.983 -0.5252  0.2306 -0.4416
  110MOL0     C14727   7.035   4.805   1.967 -0.1230 -0.9137  0.3326
  110MOL0     C14728   7.107   4.809   2.099  0.1369  0.6101  0.0750
  110MOL0     C14729   7.256   4.777   2.074  0.5212 -0.4842  0.2869
  110MOL0     C14730   7.337   4.901   2.017  0.3273 -0.4198  0.6250
  110MOL0     C14731   7.481   4.865   1.976 -0.5154  0.4474  0.1231
  110MOL0     N14732   7.560   4.989   1.928  0.8484  0.7915  0.3375
  110MOL0     C14733   7.549   5.058   1.809  0.1051  1.4982  0.4638
  110MOL0     C14734   7.674   5.106   1.775 -0.3399  0.4211 -1.0031
  110MOL0     C14735   7.695   5.192   1.668  0.7759 -0.8483  0.1331
  110MOL0     C14736   7.630   5.331   1.684  0.2149 -0.0699  0.3656
  110MOL0     C14737   7.665   5.418   1.571 -0.8287 -0.4737  0.3443
  110MOL0     C14738   7.572   5.544   1.560 -0.1224  0.1111 -0.0068
  110MOL0     O14739   7.459   5.516   1.481  0.3802 -0.1852  0.0915
  110MOL0     C14740   7.377   5.625   1.458 -0.4136  0.4117 -0.2202
  110MOL0     C14741   7.364   5.736   1.545 -0.5396  0.8841 -0.1083
  110MOL0     C14742   7.266   5.837   1.509 -1.2309  0.0182 -0.5260
  110MOL0     C14743   7.189   5.830   1.400 -0.8520 -0.4185  0.6330
  110MOL0     C14744   7.098   5.943   1.362 -0.4090  0.2402  0.4916
  110MOL0     O14745   7.027   5.925   1.245 -0.8106  1.0145 -0.1242
  110MOL0     C14746   6.922   6.003   1.216 -0.1733  0.1503  0.0351
  110MOL0     C14747   6.808   5.997   1.289  0.9366  0.5603 -0.2003
  110MOL0     C14748   6.704   6.097   1.266  0.4221  0.5979 -0.4267
  110MOL0     C14749   6.713   6.199   1.173  0.7021 -0.4039 -0.5394
  110MOL0     O14750   6.619   6.304   1.156 -0.6603 -0.0313 -0.0959
  110MOL0     C14751   6.514   6.333   1.254  0.5918 -1.4643 -0.4478
  110MOL0     C14752   6.438   6.470   1.227  0.4678  0.3631 -0.8885
  110MOL0     C14753   6.542   6.576   1.189  0.3423  0.7590 -0.2322
  110MOL0     C14754   6.458   6.687   1.109 -0.5302  0.8375  0.4002
  110MOL0     C14755   6.536   6.815   1.091 -0.4771 -0.0896  0.3202
  110MOL0     C14756   6.670   6.818   1.032 -0.3293  0.2698 -0.1101
  110MOL0     C14757   6.682   6.779   0.882 -0.4975 -0.3781 -0.1255
  110MOL0     C14758   6.835   6.807   0.832  0.8642 -0.6311  0.0782
  110MOL0    Cl14759   6.944   6.694   0.910 -0.5479  0.4808  0.5175
  110MOL0     C14760   6.831   6.197   1.091  0.1203 -0.0966 -0.1679
  110MOL0     C14761   6.931   6.094   1.110 -0.3811 -0.4753  0.7793
  110MOL0     O14762   7.090   6.044   1.435 -0.1235 -0.5172 -0.2844
  110MOL0     C14763   7.204   5.712   1.319 -1.1785 -1.1776  0.5482
  110MOL0     C14764   7.280   5.607   1.362 -0.1304  0.7919 -0.8902
  110MOL0     N14765   7.758   5.062   1.871  0.0812  0.5331 -0.8082
  110MOL0     N14766   7.691   5.006   1.965  0.8722  0.0057 -0.6007
  110MOL0     C14767   6.631   4.603   1.604 -0.2951 -0.3494  0.0036
  110MOL0     C14768   6.547   4.539   1.518  0.5625  0.2140 -0.1865
  110MOL0     C14769   6.343   4.392   1.139  0.6198 -0.0609  0.0202
  110MOL0     C14770   6.225   4.353   1.193  0.0359  0.1217 -0.5638
  110MOL0     C14771   6.139   4.263   1.130  0.4753  0.1074 -0.2270
  110MOL0     C14772   6.159   4.223   1.001 -0.0832 -0.2677  1.5856
  110MOL0     O14773   6.068   4.161   0.926 -0.4610 -0.3220 -0.1549
  110MOL0     C14774   5.943   4.111   0.983 -0.3165  0.1762 -0.2962
  110MOL0     C14775   5.885   4.005   0.888  0.5013  0.2829  0.1101
  110MOL0     C14776   5.762   3.938   0.941  0.2614 -0.2756 -0.4492
  110MOL0     C14777   5.775   3.887   1.086  0.0017  0.0288  0.6216
  110MOL0     C14778   5.665   3.805   1.134  0.2971  0.8443  0.4708
  110MOL0     C14779   5.561   3.749   1.172  0.0705  0.0135  1.1326
  110MOL0     C14780   6.278   4.259   0.940 -1.0452 -0.6810 -0.2647
  110MOL0     C14781   6.373   4.343   1.010  0.4719  0.4181  0.1637
  110MOL0     C14782   6.496   4.370   0.925  0.9805 -0.1837 -0.2480
  110MOL0     H14783   6.431   4.775   1.317 -0.4387 -2.7124 -2.7341
  110MOL0     H14784   6.571   4.917   1.463  0.2891 -0.3682 -1.3949
  110MOL0     H14785   6.703   4.744   1.853 -0.9888  0.0574 -1.3175
  110MOL0     H14786   6.873   4.713   1.777  2.0944  3.0282  2.6454
  110MOL0     H14787   6.766   4.985   1.861 -0.9891 -0.8116  2.2719
  110MOL0     H14788   6.909   4.948   1.772 -0.5017  1.9715  1.5063
  110MOL0     H14789   6.839   4.848   2.065 -0.1349 -0.0662 -0.2737
  110MOL0     H14790   6.918   4.988   2.018 -0.9721  0.9043 -2.1178
  110MOL0     H14791   7.032   4.698   1.947  2.3057 -1.4095  2.2296
  110MOL0     H14792   7.097   4.848   1.887 -0.1399  0.6841  1.1499
  110MOL0     H14793   7.098   4.908   2.145  0.4575  1.0055 -0.6962
  110MOL0     H14794   7.075   4.728   2.165  2.1516 -1.8304 -1.7381
  110MOL0     H14795   7.300   4.746   2.169 -1.4065 -0.3332  1.2891
  110MOL0     H14796   7.273   4.697   2.001  1.9993  0.6489 -0.6687
  110MOL0     H14797   7.332   4.982   2.091  0.5874  2.8180 -2.6035
  110MOL0     H14798   7.288   4.934   1.925  0.2495 -2.3225 -0.0487
  110MOL0     H14799   7.530   4.812   2.058 -2.0935 -2.8340 -0.8897
  110MOL0     H14800   7.485   4.795   1.892  1.5330  1.4091 -0.6615
  110MOL0     H14801   7.453   5.070   1.760 -0.1277  1.2019  0.8433
  110MOL0     H14802   7.804   5.202   1.659  0.7893 -2.0119 -1.3526
  110MOL0     H14803   7.644   5.155   1.579  0.3372 -1.6313  0.7038
  110MOL0     H14804   7.522   5.316   1.678  0.2952 -0.0254 -2.8858
  110MOL0     H14805   7.659   5.388   1.773  0.5911 -0.4097  0.4683
  110MOL0     H14806   7.656   5.364   1.476  1.0717 -0.7729  0.2948
  110MOL0     H14807   7.771   5.444   1.577 -0.8785 -0.5511  2.5639
  110MOL0     H14808   7.632   5.614   1.502  0.0293 -0.4057 -0.4872
  110MOL0     H14809   7.547   5.573   1.662 -4.3474 -0.6842 -0.5944
  110MOL0     H14810   7.431   5.752   1.630 -1.5354  1.4187  0.5975
  110MOL0     H14811   7.263   5.921   1.578  1.6914  2.6972 -3.2903
  110MOL0     H14812   6.804   5.920   1.366  0.7181  1.4069  0.6623
  110MOL0     H14813   6.614   6.098   1.326  0.4481 -1.0829 -0.3067
  110MOL0     H14814   6.436   6.257   1.247 -1.0156  0.0640  0.3091
  110MOL0     H14815   6.563   6.343   1.351 -1.7768 -0.4636  0.7060
  110MOL0     H14816   6.362   6.464   1.149 -0.1707  2.6267 -0.5268
  110MOL0     H14817   6.398   6.491   1.327 -1.1946  1.5726 -1.7554
  110MOL0     H14818   6.581   6.612   1.285 -0.0362  2.3810 -0.6652
  110MOL0     H14819   6.628   6.541   1.130 -1.0863 -1.2287 -1.2528
  110MOL0     H14820   6.370   6.701   1.172 -1.9127 -1.9779 -0.7352
  110MOL0     H14821   6.430   6.644   1.013 -1.7519  2.7853 -0.1640
  110MOL0     H14822   6.554   6.874   1.181  1.1162 -0.6171  0.3677
  110MOL0     H14823   6.465   6.871   1.029  0.5889 -0.6389 -1.4932
  110MOL0     H14824   6.716   6.917   1.040  0.7644 -0.3660  2.2738
  110MOL0     H14825   6.739   6.756   1.090 -0.4129 -2.6559 -2.8325
  110MOL0     H14826   6.604   6.831   0.825 -0.4145  1.9747  1.7375
  110MOL0     H14827   6.658   6.674   0.864  0.5875 -0.7059  0.2849
  110MOL0     H14828   6.846   6.800   0.723  0.2510 -0.5638  0.0126
  110MOL0     H14829   6.854   6.909   0.866  0.5794 -1.2699  2.2574
  110MOL0     H14830   6.840   6.280   1.022 -0.6094  0.8309  0.8340
  110MOL0     H14831   7.026   6.101   1.060 -1.9407  1.2268 -2.1986
  110MOL0     H14832   7.159   5.692   1.222  2.6851 -0.9121 -1.4782
  110MOL0     H14833   7.282   5.508   1.318  0.5885 -0.2500  1.3229
  110MOL0     H14834   6.678   4.555   1.689 -1.4177  1.0982  1.4945
  110MOL0     H14835   6.540   4.431   1.513  0.5226  0.2719 -2.2389
  110MOL0     H14836   6.190   4.399   1.285 -0.5011  0.4773 -0.9430
  110MOL0     H14837   6.044   4.236   1.176  0.8907 -1.8747 -0.4528
  110MOL0     H14838   5.862   4.178   1.015  0.4012  0.1714  1.7012
  110MOL0     H14839   5.970   4.062   1.077 -1.8371 -0.1159  0.0122
  110MOL0     H14840   5.943   3.915   0.872 -1.3035 -0.8733 -0.2568
  110MOL0     H14841   5.871   4.051   0.789  1.8717 -0.7769 -0.5990
  110MOL0     H14842   5.741   3.853   0.875 -0.9950  1.8184 -2.8982
  110MOL0     H14843   5.685   4.015   0.944 -1.6680 -2.0439 -1.4575
  110MOL0     H14844   5.865   3.828   1.106 -0.8203 -0.6776  2.5884
  110MOL0     H14845   5.767   3.967   1.161 -0.0174 -1.6627  2.5372
  110MOL0     H14846   5.473   3.713   1.222  0.2005  0.2318  1.5219
  110MOL0     H14847   6.288   4.244   0.833  0.2550 -0.4859 -0.1842
  110MOL0     H14848   6.514   4.477   0.940 -0.8642  0.0697  0.4016
  110MOL0     H14849   6.579   4.306   0.957 -0.3653 -2.1280 -0.4895
  110MOL0     H14850   6.468   4.344   0.822 -0.9226 -5.1141  1.2222
  111MOL0     O14851   9.780  10.992   9.915 -0.1055  0.4168 -0.6860
  111MOL0     C14852   9.810  10.965   9.792 -0.2697 -0.1345 -0.5030
  111MOL0     O14853   9.845  10.845   9.745  0.6082  0.3200 -0.4594
  111MOL0     C14854   9.893  10.753   9.829 -0.1967 -0.8471 -1.1111
  111MOL0     C14855  10.021  10.696   9.791  0.5324 -0.0949 -0.2880
  111MOL0     C14856  10.064  10.584   9.865  0.1796 -0.6659 -0.4852
  111MOL0     C14857   9.996  10.546   9.984  0.9915  0.0510  0.2004
  111MOL0     O14858  10.052  10.439  10.047 -0.0267  0.5456  0.6789
  111MOL0     C14859  10.045  10.440  10.190 -0.3215 -0.2315 -0.7861
  111MOL0     C14860  10.124  10.331  10.263 -0.3230  0.1064  0.4817
  111MOL0     C14861  10.263  10.369  10.254 -0.6474 -0.2065 -0.1723
  111MOL0     C14862  10.340  10.259  10.331 -0.4141  0.5828  0.3282
  111MOL0     C14863  10.490  10.278  10.341 -0.6134  1.5603 -0.1871
  111MOL0     C14864  10.567  10.155  10.406 -0.3018  0.5081  1.0357
  111MOL0     C14865  10.596  10.040  10.296 -0.0007 -0.6045 -0.9085
  111MOL0     C14866  10.697   9.937  10.335 -0.4756  0.4847  0.1456
  111MOL0     N14867  10.738   9.866  10.215  0.2824  0.1829 -0.3173
  111MOL0     C14868  10.747   9.917  10.088  0.9564 -0.6225 -0.1135
  111MOL0     C14869  10.728   9.813  10.001 -0.6054  0.3244 -0.2753
  111MOL0     C14870  10.737   9.832   9.857 -0.8989  0.3606  1.0163
  111MOL0     C14871  10.874   9.799   9.804 -0.4177 -0.6599  0.2316
  111MOL0     C14872  10.890   9.643   9.803 -0.9241  0.1490 -0.0454
  111MOL0     C14873  11.030   9.599   9.768 -0.5884 -0.1170 -0.2515
  111MOL0     O14874  11.054   9.465   9.813  0.5283 -0.9208 -0.4284
  111MOL0     C14875  11.177   9.412   9.772  0.5425 -0.5472  0.3951
  111MOL0     C14876  11.207   9.291   9.821  0.4966 -0.6577 -0.6761
  111MOL0     C14877  11.323   9.220   9.767  0.1282 -0.4229  0.1415
  111MOL0     C14878  11.406   9.280   9.670 -0.3973 -0.2366 -0.3028
  111MOL0     C14879  11.529   9.209   9.624 -0.3315  1.4288 -0.0321
  111MOL0     O14880  11.568   9.107   9.696 -0.5210 -0.8380  0.2530
  111MOL0     C14881  11.671   9.035   9.659  0.5716  0.4016  1.3392
  111MOL0     C14882  11.651   8.900   9.637  0.1734 -1.4295 -0.5497
  111MOL0     C14883  11.759   8.816   9.620  0.5577  0.3819 -0.1326
  111MOL0     C14884  11.891   8.867   9.617  0.7256  0.9775  0.0888
  111MOL0     O14885  11.990   8.777   9.617 -0.3702  0.2434  0.8269
  111MOL0     C14886  12.053   8.753   9.744  0.2123  0.2020  0.0611
  111MOL0     C14887  12.106   8.614   9.726  0.6745 -0.2586 -0.8244
  111MOL0     C14888  12.200   8.568   9.832  0.5489  0.6522 -0.7611
  111MOL0     C14889  12.224   8.413   9.810 -0.2785 -0.8055  0.5804
  111MOL0     C14890  12.269   8.364   9.948 -0.4656  0.3997 -0.7609
  111MOL0     C14891  12.415   8.405   9.975 -0.4415 -0.3192  0.0233
  111MOL0     C14892  12.463   8.333  10.109 -0.0586  0.0349 -0.0579
  111MOL0     C14893  12.611   8.358  10.151 -0.0842 -0.1117 -0.4737
  111MOL0    Cl14894  12.653   8.271  10.303 -0.2521 -0.6685 -0.0524
  111MOL0     C14895  11.908   9.006   9.637  0.3795  0.0977 -0.8271
  111MOL0     C14896  11.802   9.089   9.662  0.2986 -0.2594  0.3685
  111MOL0     O14897  11.589   9.252   9.530  0.3043  0.7214 -0.0581
  111MOL0     C14898  11.377   9.408   9.639 -0.2618 -0.6846  0.2283
  111MOL0     C14899  11.267   9.472   9.682 -0.2566 -0.7006 -0.1277
  111MOL0     N14900  10.689   9.697  10.074  0.6061  0.3870 -0.5704
  111MOL0     N14901  10.699   9.732  10.195 -0.3530 -1.1755 -1.0710
  111MOL0     C14902   9.871  10.605  10.007 -0.0442 -0.0624 -0.9540
  111MOL0     C14903   9.816  10.706   9.935 -0.8071  0.1103 -0.8495
  111MOL0     C14904   9.776  11.063   9.688 -0.4809 -0.0381 -0.9919
  111MOL0     C14905   9.687  11.015   9.588  0.6950  0.2080  0.0365
  111MOL0     C14906   9.662  11.089   9.469  0.6386  0.4437  0.0676
  111MOL0     C14907   9.721  11.209   9.453 -0.3684 -0.2646  0.8318
  111MOL0     O14908   9.706  11.288   9.342  0.3827 -0.6806 -0.4477
  111MOL0     C14909   9.601  11.246   9.240  0.1610 -0.0787 -0.3983
  111MOL0     C14910   9.444  11.265   9.279 -0.2542 -0.3421  0.0820
  111MOL0     C14911   9.349  11.214   9.168 -1.0348  0.6113 -1.0061
  111MOL0     C14912   9.209  11.258   9.197  0.2596  0.6105 -0.4446
  111MOL0     C14913   9.125  11.221   9.083 -0.2356  0.1776 -0.6119
  111MOL0     C14914   9.053  11.195   8.987  0.5715 -0.2703  0.1454
  111MOL0     C14915   9.790  11.268   9.550 -0.3453 -0.1223 -0.1438
  111MOL0     C14916   9.824  11.202   9.671 -0.5617  0.5242  0.2616
  111MOL0     C14917   9.905  11.278   9.771  0.5199 -0.0084 -0.9223
  111MOL0     H14918  10.066  10.724   9.696 -1.0999  0.3938 -0.9541
  111MOL0     H14919  10.156  10.530   9.843 -0.3031 -2.8187  2.2040
  111MOL0     H14920  10.058  10.542  10.227  1.1995 -1.3681  2.1749
  111MOL0     H14921   9.944  10.410  10.219 -0.2223 -0.1909 -0.3931
  111MOL0     H14922  10.097  10.232  10.225 -3.0204  0.2772  1.7192
  111MOL0     H14923  10.109  10.327  10.372  2.3039 -0.6106  0.9060
  111MOL0     H14924  10.286  10.473  10.278  0.5443  0.1715 -2.6037
  111MOL0     H14925  10.293  10.376  10.149 -0.0107 -1.1865 -0.0704
  111MOL0     H14926  10.309  10.253  10.436 -0.3482 -0.8515  0.2875
  111MOL0     H14927  10.333  10.162  10.280 -1.1014  1.0095 -0.4190
  111MOL0     H14928  10.546  10.290  10.247  1.4704 -3.2495  0.1885
  111MOL0     H14929  10.514  10.362  10.408 -0.3540 -0.1636  1.9755
  111MOL0     H14930  10.659  10.198  10.447 -1.4799  1.4037  2.8428
  111MOL0     H14931  10.519  10.113  10.495  1.1441 -1.5224  0.9362
  111MOL0     H14932  10.640  10.100  10.216  1.4384  2.8882  2.2272
  111MOL0     H14933  10.504   9.983  10.279 -2.1344  0.6504  4.5217
  111MOL0     H14934  10.784   9.991  10.375  0.1904 -0.0803 -0.5021
  111MOL0     H14935  10.659   9.869  10.412 -4.2642  1.5853 -0.5660
  111MOL0     H14936  10.785  10.018  10.077  1.4023 -0.3821  2.9133
  111MOL0     H14937  10.654   9.783   9.806  0.7111 -0.0337 -1.3417
  111MOL0     H14938  10.731   9.938   9.830  1.0413  0.2358 -0.0470
  111MOL0     H14939  10.885   9.834   9.701  0.4537 -1.3964  0.0558
  111MOL0     H14940  10.944   9.853   9.869 -1.1160 -1.3441  1.5834
  111MOL0     H14941  10.813   9.590   9.746  0.2225 -2.7402  0.9423
  111MOL0     H14942  10.870   9.597   9.900  0.3942 -0.4792 -0.0573
  111MOL0     H14943  11.102   9.673   9.802 -1.4266  1.2876 -1.4154
  111MOL0     H14944  11.035   9.590   9.659  2.5935 -3.5783 -0.0365
  111MOL0     H14945  11.133   9.246   9.887 -1.9660  0.9411 -2.1752
  111MOL0     H14946  11.337   9.114   9.785  0.4177 -0.6360 -1.2446
  111MOL0     H14947  11.545   8.875   9.638 -1.4431  3.9786 -1.4142
  111MOL0     H14948  11.746   8.710   9.598  1.9394 -0.1809  1.5424
  111MOL0     H14949  12.139   8.818   9.765  0.3482 -0.1603  0.6432
  111MOL0     H14950  11.972   8.778   9.814 -1.0618 -0.1803 -1.2181
  111MOL0     H14951  12.016   8.552   9.736  1.9307 -1.8086  2.9552
  111MOL0     H14952  12.146   8.605   9.625  3.7991  1.5235  0.1111
  111MOL0     H14953  12.294   8.623   9.836  1.3811 -0.7598  1.9606
  111MOL0     H14954  12.144   8.577   9.926  0.1709 -2.7102 -0.5188
  111MOL0     H14955  12.303   8.391   9.737  1.0452  0.8394  1.4145
  111MOL0     H14956  12.141   8.356   9.769  0.2668 -0.2158 -1.5063
  111MOL0     H14957  12.269   8.254   9.942  0.0479  0.0819  2.7399
  111MOL0     H14958  12.190   8.382  10.021  0.2353  0.6116 -0.0392
  111MOL0     H14959  12.480   8.395   9.887 -1.6262  2.0116 -1.2135
  111MOL0     H14960  12.405   8.511   9.999  3.3617  0.1860  0.0085
  111MOL0     H14961  12.449   8.225  10.104 -0.8396  0.1848 -2.8128
  111MOL0     H14962  12.415   8.384  10.193 -0.1155  0.3395 -0.2746
  111MOL0     H14963  12.675   8.319  10.071 -0.2442 -1.4174  0.0110
  111MOL0     H14964  12.633   8.464  10.167 -0.8131  0.1250 -0.9816
  111MOL0     H14965  12.002   9.053   9.663  0.8657 -0.4072 -1.6356
  111MOL0     H14966  11.824   9.192   9.687  1.3415 -0.2844 -0.3832
  111MOL0     H14967  11.452   9.470   9.592 -1.5660  0.9155  0.1907
  111MOL0     H14968  11.244   9.573   9.649 -0.9007  0.7925  4.2378
  111MOL0     H14969   9.817  10.574  10.096 -0.8639  2.2882 -0.5709
  111MOL0     H14970   9.718  10.750   9.951 -0.0641  1.9334 -1.0924
  111MOL0     H14971   9.643  10.918   9.607 -1.2096  1.3136  1.6683
  111MOL0     H14972   9.595  11.037   9.400  1.4495  0.1290 -0.5078
  111MOL0     H14973   9.609  11.140   9.213 -0.3650 -0.0053 -0.8608
  111MOL0     H14974   9.623  11.304   9.150 -1.7426 -0.0201 -0.8772
  111MOL0     H14975   9.420  11.372   9.288  0.7857  0.2734 -3.0068
  111MOL0     H14976   9.419  11.207   9.368 -1.7981 -3.3788 -2.1245
  111MOL0     H14977   9.345  11.105   9.172 -0.8661  0.6470  0.6279
  111MOL0     H14978   9.387  11.246   9.070 -0.4698 -0.6119 -1.1981
  111MOL0     H14979   9.173  11.220   9.293 -2.4375  0.2606 -1.4905
  111MOL0     H14980   9.208  11.367   9.202  0.0011  0.5584  1.1935
  111MOL0     H14981   8.992  11.163   8.904 -0.5356 -1.5622  1.4116
  111MOL0     H14982   9.836  11.366   9.540  0.7476 -0.6016  0.1604
  111MOL0     H14983   9.989  11.218   9.808  1.1104  0.1775 -1.9096
  111MOL0     H14984   9.943  11.373   9.731  0.3102  0.0907 -0.8868
  111MOL0     H14985   9.840  11.294   9.857  0.0418  0.8947 -1.4425
  112MOL0     O14986   4.940   8.772   1.690 -0.1440 -0.4600  0.2892
  112MOL0     C14987   4.893   8.887   1.688 -0.1022  0.0266  0.4726
  112MOL0     O14988   4.937   8.993   1.771 -0.0872  0.8838 -0.6254
  112MOL0     C14989   5.053   8.974   1.831 -0.7329 -0.2513  0.3885
  112MOL0     C14990   5.073   8.877   1.921 -0.4373  0.1990  0.6710
  112MOL0     C14991   5.196   8.850   1.975 -0.2303  0.3742  0.5445
  112MOL0     C14992   5.306   8.923   1.936 -0.8637  0.0553  0.3919
  112MOL0     O14993   5.432   8.905   1.993  0.4035  0.6120  0.4691
  112MOL0     C14994   5.519   9.021   1.998 -0.1548  0.3276  0.1478
  112MOL0     C14995   5.636   8.981   2.084 -0.4584  0.1365  0.5162
  112MOL0     C14996   5.735   9.096   2.099 -0.1837 -0.2733 -0.6179
  112MOL0     C14997   5.878   9.066   2.069  0.7141 -0.2895  0.2143
  112MOL0     C14998   5.965   9.188   2.042  0.3987 -0.2523  0.3245
  112MOL0     C14999   5.932   9.253   1.913 -0.5475 -1.0347  0.2991
  112MOL0     C15000   6.061   9.308   1.847 -0.1252  0.2847 -0.0545
  112MOL0     C15001   6.036   9.360   1.702  0.2970 -0.1156 -0.3708
  112MOL0     N15002   5.986   9.254   1.608  0.1451 -1.1062  0.9303
  112MOL0     C15003   6.041   9.134   1.582 -0.4885  1.4101 -0.2093
  112MOL0     C15004   5.944   9.063   1.521  0.1559  0.3402 -0.0483
  112MOL0     C15005   5.930   8.909   1.497 -0.4084 -1.7800 -0.5031
  112MOL0     C15006   5.826   8.845   1.595 -0.5551  0.9765 -0.4123
  112MOL0     C15007   5.888   8.845   1.739 -0.0184  0.2879  0.5481
  112MOL0     C15008   5.968   8.711   1.753 -0.2617 -0.4193  0.3123
  112MOL0     O15009   6.037   8.703   1.871 -0.4056  0.2139 -0.2396
  112MOL0     C15010   6.133   8.794   1.905  0.0398 -0.2223 -1.2678
  112MOL0     C15011   6.156   8.811   2.042 -0.8415  0.1542  0.0261
  112MOL0     C15012   6.243   8.904   2.100 -0.1039  0.8583 -0.3158
  112MOL0     C15013   6.318   8.988   2.011 -0.8393  0.2796 -0.6104
  112MOL0     C15014   6.421   9.089   2.061  0.5170  0.1706 -0.6841
  112MOL0     O15015   6.476   9.164   1.969 -0.7012 -0.1126  0.3615
  112MOL0     C15016   6.570   9.260   1.997 -1.1881  0.1060 -0.0232
  112MOL0     C15017   6.695   9.209   2.057 -0.1193 -0.4625 -0.3685
  112MOL0     C15018   6.802   9.289   2.079 -0.3061  0.4343  0.1167
  112MOL0     C15019   6.788   9.430   2.045 -0.1717  1.5936  0.1534
  112MOL0     O15020   6.889   9.515   2.065 -0.3024  0.2103 -0.2568
  112MOL0     C15021   7.009   9.472   1.999 -0.1278 -0.1561 -0.2152
  112MOL0     C15022   7.112   9.439   2.105  0.6751  0.8336 -0.2032
  112MOL0     C15023   7.240   9.393   2.035  0.5854  0.7009  0.4582
  112MOL0     C15024   7.308   9.499   1.947  0.0621 -0.0480  0.5592
  112MOL0     C15025   7.428   9.436   1.879 -0.4562  0.0495  0.4924
  112MOL0     C15026   7.455   9.526   1.755 -0.6665  0.5426 -0.3941
  112MOL0     C15027   7.601   9.493   1.712 -0.0515  0.9953 -0.8285
  112MOL0     C15028   7.593   9.443   1.573  0.1641 -0.7825  0.1268
  112MOL0    Cl15029   7.516   9.564   1.472 -0.0092  0.1620  0.1805
  112MOL0     C15030   6.666   9.479   1.999  0.7489 -0.0407 -0.4045
  112MOL0     C15031   6.559   9.388   1.963 -1.2420 -0.9565 -0.1972
  112MOL0     O15032   6.452   9.087   2.183  0.6081 -0.4914  0.0743
  112MOL0     C15033   6.284   8.981   1.873 -0.5991 -0.1038 -0.3839
  112MOL0     C15034   6.194   8.889   1.822 -0.4166  0.6103 -0.5709
  112MOL0     N15035   5.839   9.144   1.505  0.8404 -0.5991 -0.3589
  112MOL0     N15036   5.864   9.260   1.541  0.9105  0.0386 -0.0058
  112MOL0     C15037   5.286   9.011   1.828 -0.1275 -0.6278 -0.4503
  112MOL0     C15038   5.161   9.034   1.776  0.1273  0.8467  0.6424
  112MOL0     C15039   4.762   8.917   1.629 -0.5886  0.7382 -0.6902
  112MOL0     C15040   4.754   8.981   1.503 -1.1379  0.1566 -0.7652
  112MOL0     C15041   4.633   9.019   1.458 -0.1315 -0.5467  0.2100
  112MOL0     C15042   4.516   8.999   1.527  0.8741  0.1597  0.0779
  112MOL0     O15043   4.391   9.039   1.481 -0.1726  0.2637 -1.1167
  112MOL0     C15044   4.277   8.989   1.537  0.5103  0.5917  0.4248
  112MOL0     C15045   4.155   9.031   1.455  0.6493  0.4379  0.3316
  112MOL0     C15046   4.142   9.173   1.426 -0.1849  0.2122  0.4421
  112MOL0     C15047   4.006   9.211   1.368  0.0275 -0.1285 -1.0893
  112MOL0     C15048   3.927   9.110   1.307  0.1287  0.0202 -0.1778
  112MOL0     C15049   3.882   9.017   1.247  0.7039  0.5707  0.2668
  112MOL0     C15050   4.526   8.943   1.657 -0.3422  0.7513  0.7619
  112MOL0     C15051   4.648   8.882   1.705  0.0309 -0.3119 -0.4221
  112MOL0     C15052   4.664   8.817   1.843 -0.6496  0.0740  0.1844
  112MOL0     H15053   4.992   8.819   1.964  0.1936 -1.0241  0.2693
  112MOL0     H15054   5.213   8.766   2.042 -0.0526  1.0855  1.4124
  112MOL0     H15055   5.561   9.038   1.898 -0.3398 -0.2197 -0.0267
  112MOL0     H15056   5.468   9.111   2.034 -3.0618 -0.8793 -0.6267
  112MOL0     H15057   5.685   8.888   2.054 -1.4142 -2.6308  6.1015
  112MOL0     H15058   5.603   8.950   2.184  2.9807 -0.1495  1.6992
  112MOL0     H15059   5.721   9.152   2.193 -3.0626 -0.4281 -0.8558
  112MOL0     H15060   5.705   9.175   2.030 -1.5622 -1.2444 -1.1656
  112MOL0     H15061   5.920   9.008   2.151 -2.3161 -3.5877 -0.2835
  112MOL0     H15062   5.885   9.000   1.982  2.5023  0.4032 -0.2037
  112MOL0     H15063   5.945   9.258   2.124 -0.6846 -1.0006  0.7224
  112MOL0     H15064   6.068   9.153   2.038  0.3614 -0.2729 -0.6035
  112MOL0     H15065   5.908   9.172   1.843  0.9874 -0.3020 -1.1241
  112MOL0     H15066   5.859   9.334   1.922 -0.6854 -0.7338 -2.6461
  112MOL0     H15067   6.119   9.217   1.828 -0.7246 -0.1400  0.1206
  112MOL0     H15068   6.101   9.391   1.906 -0.7014 -0.5093  1.5057
  112MOL0     H15069   5.959   9.437   1.693 -1.9956 -2.0642  1.1079
  112MOL0     H15070   6.132   9.395   1.664  0.7488 -2.1677 -1.2571
  112MOL0     H15071   6.139   9.104   1.619 -1.3674 -0.0868  1.0130
  112MOL0     H15072   5.914   8.883   1.392 -1.4451  2.5907 -1.6475
  112MOL0     H15073   6.027   8.864   1.519  0.9363  0.9336 -0.4328
  112MOL0     H15074   5.735   8.905   1.592 -2.5313 -1.7164  0.9022
  112MOL0     H15075   5.798   8.744   1.562 -1.6866  0.4243  2.0021
  112MOL0     H15076   5.810   8.845   1.816  1.9044 -1.2229  2.5957
  112MOL0     H15077   5.951   8.931   1.761 -0.1705  1.1186 -1.9243
  112MOL0     H15078   6.041   8.700   1.672  1.9168  0.0855  2.1088
  112MOL0     H15079   5.901   8.625   1.742 -1.5246  0.2317  2.5065
  112MOL0     H15080   6.099   8.743   2.105 -2.3859  1.6640  0.3478
  112MOL0     H15081   6.263   8.891   2.206 -0.1340  0.7709 -0.3207
  112MOL0     H15082   6.700   9.101   2.070  0.9592 -0.3289  0.4063
  112MOL0     H15083   6.888   9.241   2.127 -2.6665 -0.1854  4.1993
  112MOL0     H15084   6.974   9.396   1.929 -1.7613  1.8433 -1.7005
  112MOL0     H15085   7.045   9.550   1.932  1.2195 -2.8229 -2.8051
  112MOL0     H15086   7.139   9.526   2.165 -0.7436  3.4677 -3.0973
  112MOL0     H15087   7.068   9.372   2.179 -1.1665  2.7466  0.5574
  112MOL0     H15088   7.318   9.378   2.110 -0.0498 -2.7982  0.5818
  112MOL0     H15089   7.224   9.301   1.978 -0.4396  0.0078  1.7953
  112MOL0     H15090   7.351   9.588   1.994 -0.8030 -0.4113  2.0851
  112MOL0     H15091   7.237   9.531   1.870 -2.2224 -1.2696  2.0697
  112MOL0     H15092   7.415   9.332   1.847  0.4856 -0.1495  0.7222
  112MOL0     H15093   7.510   9.431   1.951  1.8538  0.1918 -1.9327
  112MOL0     H15094   7.380   9.496   1.682 -0.1287  2.7851 -1.9696
  112MOL0     H15095   7.450   9.634   1.772 -0.8518  0.3434  0.8907
  112MOL0     H15096   7.663   9.430   1.776  1.1647  2.6682 -0.2788
  112MOL0     H15097   7.664   9.581   1.697  0.1872  0.7385 -1.3186
  112MOL0     H15098   7.695   9.437   1.535  1.2479  0.1062  2.6971
  112MOL0     H15099   7.560   9.339   1.557  0.5003 -0.5681 -2.5223
  112MOL0     H15100   6.665   9.582   1.964 -0.5416  0.3132  0.5954
  112MOL0     H15101   6.470   9.437   1.926  0.4344  3.3331  0.9315
  112MOL0     H15102   6.329   9.057   1.810 -1.9660 -0.1178 -1.4140
  112MOL0     H15103   6.164   8.890   1.718  0.1610  0.8359 -0.7351
  112MOL0     H15104   5.370   9.070   1.793 -0.9114  0.9216  0.1512
  112MOL0     H15105   5.143   9.117   1.708  0.3200  0.2636 -0.1362
  112MOL0     H15106   4.843   9.003   1.446 -0.5019 -4.7027 -2.1132
  112MOL0     H15107   4.633   9.072   1.363 -3.4779  2.7041  1.7753
  112MOL0     H15108   4.254   9.022   1.639 -3.2944 -1.0781  0.2879
  112MOL0     H15109   4.288   8.881   1.544  3.3862  0.7798  0.1491
  112MOL0     H15110   4.059   8.997   1.495 -0.2298 -0.9870 -2.6751
  112MOL0     H15111   4.174   8.984   1.358 -1.8471 -0.1584  0.0803
  112MOL0     H15112   4.218   9.200   1.351 -1.1298  0.7361 -0.3596
  112MOL0     H15113   4.167   9.220   1.521 -0.8903 -1.2204  1.3577
  112MOL0     H15114   3.947   9.251   1.451 -0.8586 -1.0983 -1.2188
  112MOL0     H15115   3.999   9.292   1.295 -2.7045  1.9629  1.2429
  112MOL0     H15116   3.846   8.927   1.201  1.8282 -0.3847  1.1758
  112MOL0     H15117   4.443   8.953   1.726  0.2823  2.3082  1.3514
  112MOL0     H15118   4.749   8.861   1.895  0.0097  1.6818 -2.1232
  112MOL0     H15119   4.576   8.843   1.902 -2.1454  2.0482 -2.6783
  112MOL0     H15120   4.691   8.713   1.820  2.8858  1.3461 -2.2014
  113MOL0     O15121   2.173   2.879   7.426 -0.2858  0.3428  0.3390
  113MOL0     C15122   2.181   2.810   7.322  0.5565 -0.3191  0.3925
  113MOL0     O15123   2.226   2.858   7.197 -0.1848 -0.2572 -0.4769
  113MOL0     C15124   2.300   2.972   7.200 -0.0552 -0.4758  0.3213
  113MOL0     C15125   2.443   2.965   7.187 -0.2804  0.4726  0.0134
  113MOL0     C15126   2.520   3.075   7.177  0.2072  0.8410  0.1988
  113MOL0     C15127   2.462   3.201   7.187  0.0487 -0.7155 -1.0193
  113MOL0     O15128   2.539   3.315   7.188 -0.4967  0.7463  0.2466
  113MOL0     C15129   2.551   3.367   7.323 -0.8387  0.2696 -1.2723
  113MOL0     C15130   2.687   3.434   7.324 -0.1783  0.3420 -0.2018
  113MOL0     C15131   2.694   3.559   7.408 -0.1827 -0.0897  0.7526
  113MOL0     C15132   2.839   3.597   7.440  0.5753 -0.0436 -1.0724
  113MOL0     C15133   2.844   3.726   7.525  0.3548  0.9735  0.3304
  113MOL0     C15134   2.980   3.772   7.591  0.3707  0.2783  0.3723
  113MOL0     C15135   3.062   3.661   7.665 -0.1714 -0.4813  0.5557
  113MOL0     C15136   3.160   3.599   7.561  0.3684 -0.0316 -0.1470
  113MOL0     N15137   3.238   3.498   7.621 -0.8688 -0.7281 -1.0040
  113MOL0     C15138   3.375   3.492   7.620 -0.6798  0.4650 -1.2930
  113MOL0     C15139   3.407   3.371   7.673  1.1538  0.4060 -0.8911
  113MOL0     C15140   3.549   3.333   7.702  0.6534 -0.2071  0.1662
  113MOL0     C15141   3.647   3.350   7.582 -0.0059  0.6296  0.3147
  113MOL0     C15142   3.640   3.246   7.473 -0.4452 -0.1850  0.1548
  113MOL0     C15143   3.647   3.109   7.537  0.0613 -0.1811  0.6513
  113MOL0     O15144   3.709   3.020   7.446 -0.3995  0.3186  0.2886
  113MOL0     C15145   3.633   2.923   7.378 -0.0153  0.2137 -0.1489
  113MOL0     C15146   3.514   2.870   7.426  0.3496  0.0009 -0.3253
  113MOL0     C15147   3.449   2.765   7.357  0.0473 -1.0370 -0.2789
  113MOL0     C15148   3.491   2.723   7.230  0.1680  0.0362 -0.3265
  113MOL0     C15149   3.412   2.621   7.160  0.2021 -0.0284  0.2835
  113MOL0     O15150   3.309   2.570   7.226  0.6015  0.3880 -0.3567
  113MOL0     C15151   3.238   2.458   7.183 -0.0245 -0.1488 -1.3587
  113MOL0     C15152   3.291   2.336   7.144 -0.0291 -0.4223  0.8926
  113MOL0     C15153   3.210   2.222   7.119 -0.6972  0.8786 -0.3204
  113MOL0     C15154   3.071   2.234   7.117 -1.7039 -0.2382  0.6011
  113MOL0     O15155   2.981   2.131   7.084 -0.4087  0.2261 -0.1860
  113MOL0     C15156   3.009   1.991   7.119 -0.5914 -0.4857  0.2953
  113MOL0     C15157   2.897   1.902   7.081 -0.2875  1.2924  0.1853
  113MOL0     C15158   2.806   1.903   7.207  0.7789 -0.4582 -0.1895
  113MOL0     C15159   2.704   1.790   7.179  0.9983 -0.0867 -0.3882
  113MOL0     C15160   2.602   1.793   7.292  0.2322 -0.2271 -0.4070
  113MOL0     C15161   2.480   1.702   7.291 -0.1948 -0.4246 -1.0191
  113MOL0     C15162   2.387   1.734   7.179  0.0966  0.6534 -0.2859
  113MOL0     C15163   2.280   1.622   7.165 -1.7855 -0.2403 -0.2740
  113MOL0    Cl15164   2.178   1.598   7.312  0.1613  0.1981 -0.1536
  113MOL0     C15165   3.023   2.359   7.156  0.3050  0.0841  0.9913
  113MOL0     C15166   3.103   2.469   7.196 -0.2754  0.3979  0.3850
  113MOL0     O15167   3.446   2.587   7.042 -0.1035  0.2403 -0.2527
  113MOL0     C15168   3.605   2.788   7.177  0.1166  0.5099 -0.9271
  113MOL0     C15169   3.676   2.880   7.250  0.2031 -0.1245 -0.2741
  113MOL0     N15170   3.291   3.301   7.698  0.3484  0.1988 -0.8921
  113MOL0     N15171   3.191   3.379   7.663 -0.2041 -0.3718 -0.0280
  113MOL0     C15172   2.322   3.215   7.194  0.1227  0.3445  0.1836
  113MOL0     C15173   2.245   3.106   7.196  0.0428 -0.0038  0.2610
  113MOL0     C15174   2.132   2.672   7.324 -0.5424 -0.0293  0.7454
  113MOL0     C15175   2.103   2.623   7.453 -0.2238  0.1732 -0.4915
  113MOL0     C15176   2.062   2.490   7.481 -0.7980  0.5907  0.7968
  113MOL0     C15177   2.035   2.407   7.372 -0.6218  0.2182 -0.3800
  113MOL0     O15178   1.992   2.273   7.392  0.0498 -0.7208  0.5567
  113MOL0     C15179   1.851   2.256   7.385 -1.1369 -0.0311 -1.0516
  113MOL0     C15180   1.799   2.123   7.433  0.6984  0.5893 -0.3058
  113MOL0     C15181   1.640   2.125   7.414  0.1577  0.7474 -0.1637
  113MOL0     C15182   1.582   2.004   7.475 -0.0253 -0.3642  0.0568
  113MOL0     C15183   1.444   1.987   7.420 -0.2926 -0.8414  0.2193
  113MOL0     C15184   1.332   1.963   7.384  0.2206  0.4872 -0.2211
  113MOL0     C15185   2.060   2.454   7.240  0.5452 -0.2513  0.4820
  113MOL0     C15186   2.107   2.587   7.208  1.3334  0.2403 -1.8881
  113MOL0     C15187   2.118   2.621   7.056  0.5888  0.2015 -0.8906
  113MOL0     H15188   2.489   2.866   7.184 -4.3138 -1.5910 -0.6456
  113MOL0     H15189   2.627   3.080   7.158  0.3187  3.3463  1.1345
  113MOL0     H15190   2.465   3.429   7.349 -1.8339 -2.1606  1.8553
  113MOL0     H15191   2.551   3.282   7.392 -0.8395 -0.8445 -2.6070
  113MOL0     H15192   2.730   3.458   7.226  2.6975  1.2498  1.1688
  113MOL0     H15193   2.759   3.363   7.367 -2.9104 -2.2914  0.4077
  113MOL0     H15194   2.636   3.549   7.500 -4.1148  2.5676 -1.1059
  113MOL0     H15195   2.660   3.645   7.348 -1.6903  0.7951  2.7692
  113MOL0     H15196   2.884   3.512   7.492  0.2079 -0.1898 -0.9847
  113MOL0     H15197   2.909   3.631   7.363  0.3987  1.0358 -0.7733
  113MOL0     H15198   2.815   3.816   7.470  0.8317  1.2282  0.4899
  113MOL0     H15199   2.772   3.722   7.607  0.3119  1.0380  0.2959
  113MOL0     H15200   3.040   3.826   7.517  4.5504 -4.0535  0.0561
  113MOL0     H15201   2.944   3.843   7.666  0.4551  1.4891 -0.7041
  113MOL0     H15202   2.989   3.590   7.705 -0.4489 -1.2481 -1.1996
  113MOL0     H15203   3.115   3.706   7.750  0.3756  0.5106 -0.2877
  113MOL0     H15204   3.103   3.555   7.479 -1.5914 -3.4660  2.8107
  113MOL0     H15205   3.221   3.681   7.520  1.6293 -0.5630  0.6104
  113MOL0     H15206   3.442   3.577   7.614  1.5269 -1.0051  0.6748
  113MOL0     H15207   3.569   3.408   7.779  1.3272  1.1484 -1.2701
  113MOL0     H15208   3.537   3.235   7.749 -1.0438 -0.8248 -1.4483
  113MOL0     H15209   3.625   3.446   7.534 -0.8746 -0.1772 -0.9707
  113MOL0     H15210   3.750   3.364   7.616  0.7183  0.3374 -1.6227
  113MOL0     H15211   3.731   3.251   7.414 -0.2245  1.3198  0.5730
  113MOL0     H15212   3.551   3.263   7.410 -0.0650 -2.6851 -1.1583
  113MOL0     H15213   3.548   3.080   7.573 -0.9337  3.7184  1.5384
  113MOL0     H15214   3.706   3.123   7.627 -0.4382  2.8921  0.6072
  113MOL0     H15215   3.480   2.895   7.526  2.9060  0.4727  0.4963
  113MOL0     H15216   3.372   2.712   7.411  2.9265 -1.0006  4.4466
  113MOL0     H15217   3.399   2.337   7.132 -0.1637 -2.5475 -1.3852
  113MOL0     H15218   3.253   2.127   7.090 -1.2268  1.0445 -1.6878
  113MOL0     H15219   3.100   1.958   7.068 -1.2559 -3.0365  0.6224
  113MOL0     H15220   3.032   1.993   7.226 -0.2708 -0.0499  0.2240
  113MOL0     H15221   2.860   1.933   6.983  0.1246 -4.0380 -1.9367
  113MOL0     H15222   2.932   1.801   7.060  2.5505  2.9348 -4.7134
  113MOL0     H15223   2.848   1.860   7.299  2.0358 -2.9816 -1.8169
  113MOL0     H15224   2.769   2.005   7.220  1.9940 -0.1737  1.4206
  113MOL0     H15225   2.767   1.702   7.163  2.4811  1.5698 -5.6170
  113MOL0     H15226   2.657   1.803   7.081  3.0705  3.1899 -1.0891
  113MOL0     H15227   2.569   1.897   7.304 -1.4428 -0.6933 -0.7037
  113MOL0     H15228   2.645   1.769   7.389  1.9888  0.9388 -0.8504
  113MOL0     H15229   2.513   1.599   7.283  1.0536 -0.1938  0.6810
  113MOL0     H15230   2.437   1.728   7.388  0.5414 -2.5490 -0.0793
  113MOL0     H15231   2.448   1.724   7.090 -1.4259 -0.6474 -1.2333
  113MOL0     H15232   2.340   1.831   7.197  0.1743  0.7424 -0.5673
  113MOL0     H15233   2.214   1.646   7.082 -0.9529 -5.2618 -2.7660
  113MOL0     H15234   2.317   1.524   7.132  1.4936  0.1497  1.7450
  113MOL0     H15235   2.915   2.372   7.156  0.0408 -1.5190 -1.3004
  113MOL0     H15236   3.065   2.563   7.235  2.9536  1.4607  1.2700
  113MOL0     H15237   3.643   2.757   7.080 -3.2716  1.8757 -2.8386
  113MOL0     H15238   3.761   2.912   7.190 -1.3490 -0.1847 -2.6295
  113MOL0     H15239   2.273   3.311   7.204  2.5378  1.5624  1.2709
  113MOL0     H15240   2.137   3.115   7.195 -0.0182  0.9530  3.7326
  113MOL0     H15241   2.111   2.681   7.545 -1.5847  0.4785 -0.5557
  113MOL0     H15242   2.045   2.460   7.584 -1.2018 -2.4817 -0.0807
  113MOL0     H15243   1.826   2.281   7.282 -1.1687 -1.6193 -1.4506
  113MOL0     H15244   1.806   2.328   7.454 -0.6435  0.3526 -1.1239
  113MOL0     H15245   1.818   2.111   7.540 -1.5529 -0.3160  0.0389
  113MOL0     H15246   1.846   2.051   7.365 -1.2457  0.7842 -1.9800
  113MOL0     H15247   1.634   2.130   7.304  2.5238  1.4187 -0.3167
  113MOL0     H15248   1.601   2.208   7.473  2.5670  2.3317 -0.6355
  113MOL0     H15249   1.642   1.926   7.428  0.5996  0.4374 -0.4930
  113MOL0     H15250   1.583   2.002   7.585  2.2462  0.9769  0.1270
  113MOL0     H15251   1.227   1.957   7.369  0.0262 -0.3110  1.2919
  113MOL0     H15252   2.035   2.378   7.167 -1.1133 -0.4700  1.2506
  113MOL0     H15253   2.070   2.537   7.005  1.5712  1.4924 -4.2034
  113MOL0     H15254   2.068   2.715   7.030  0.3532  1.0086  2.0129
  113MOL0     H15255   2.220   2.632   7.018  0.6269  3.4131 -0.1381
  114MOL0     O15256   4.394   5.598   2.087 -0.5322  0.9383 -0.2251
  114MOL0     C15257   4.326   5.653   2.174  0.4092 -0.1229 -0.0905
  114MOL0     O15258   4.370   5.754   2.253  0.9065  0.3938 -0.2243
  114MOL0     C15259   4.502   5.790   2.243  1.3617 -0.7211  0.2127
  114MOL0     C15260   4.535   5.890   2.143  1.3938 -0.2732 -1.0143
  114MOL0     C15261   4.663   5.924   2.109 -0.2680  0.0944 -1.4248
  114MOL0     C15262   4.769   5.873   2.190  0.0711 -0.5198  0.3101
  114MOL0     O15263   4.894   5.931   2.172  0.4833 -0.1852 -0.1002
  114MOL0     C15264   5.007   5.861   2.238  0.5288 -0.5563  0.5966
  114MOL0     C15265   5.135   5.932   2.190  0.4836  0.3495 -0.9572
  114MOL0     C15266   5.149   6.070   2.266 -0.5892  0.1769  0.2230
  114MOL0     C15267   5.276   6.147   2.235  0.5551  0.0943 -0.2654
  114MOL0     C15268   5.255   6.298   2.282 -1.3963 -0.2991  0.9274
  114MOL0     C15269   5.387   6.371   2.253 -0.4399  0.0681 -0.4482
  114MOL0     C15270   5.372   6.526   2.288  0.1785  0.1986  0.4306
  114MOL0     C15271   5.300   6.594   2.169 -0.1055 -0.2006 -0.0866
  114MOL0     N15272   5.331   6.733   2.165  0.5736 -0.0113 -0.6489
  114MOL0     C15273   5.297   6.818   2.270 -0.4578  0.4503  0.6985
  114MOL0     C15274   5.296   6.939   2.223 -0.3117  0.5358 -0.0772
  114MOL0     C15275   5.279   7.060   2.304 -0.2038 -0.7672 -0.4783
  114MOL0     C15276   5.140   7.068   2.374 -0.0712 -0.1300 -0.7593
  114MOL0     C15277   5.032   7.108   2.271 -0.7868  0.3244 -0.7724
  114MOL0     C15278   4.900   7.099   2.326  0.6752  0.0128 -0.0067
  114MOL0     O15279   4.874   7.211   2.420  0.0680 -0.2112 -0.9266
  114MOL0     C15280   4.746   7.223   2.469  0.6925  0.2773  0.1374
  114MOL0     C15281   4.638   7.157   2.412 -0.1429  0.4444  0.5750
  114MOL0     C15282   4.506   7.186   2.445  0.4340  0.1323 -0.1155
  114MOL0     C15283   4.478   7.284   2.550 -0.5503 -0.7103  0.7441
  114MOL0     C15284   4.344   7.319   2.585  0.8189  0.1832 -0.0445
  114MOL0     O15285   4.332   7.416   2.685  0.3751 -0.7990  0.2082
  114MOL0     C15286   4.209   7.430   2.757 -0.0819  0.6692  0.9233
  114MOL0     C15287   4.210   7.424   2.894 -0.0212  0.0738 -0.3534
  114MOL0     C15288   4.092   7.449   2.977  0.6050  0.4483  1.0463
  114MOL0     C15289   3.973   7.470   2.912 -0.0827 -0.2413  0.2145
  114MOL0     O15290   3.850   7.490   2.975 -0.6208  0.0160 -0.1110
  114MOL0     C15291   3.844   7.535   3.114  0.5720  0.0735 -0.6677
  114MOL0     C15292   3.694   7.537   3.157  0.6610  0.0085 -0.3319
  114MOL0     C15293   3.597   7.614   3.054 -0.3130  0.8544 -1.1203
  114MOL0     C15294   3.458   7.631   3.124  0.1278 -0.5004  0.0233
  114MOL0     C15295   3.374   7.743   3.041 -0.1122  0.3476 -0.0632
  114MOL0     C15296   3.240   7.788   3.097 -0.4784 -0.3898  0.2855
  114MOL0     C15297   3.134   7.669   3.116 -0.5239 -0.1702  0.1239
  114MOL0     C15298   3.086   7.617   2.976 -0.2807  0.2148  0.2618
  114MOL0    Cl15299   2.979   7.718   2.894  0.2668 -0.3199 -0.4602
  114MOL0     C15300   3.973   7.454   2.775 -0.0358  0.9822 -0.1449
  114MOL0     C15301   4.085   7.439   2.696 -0.0123  0.5069 -0.3569
  114MOL0     O15302   4.253   7.249   2.543 -0.0393 -0.5712  0.2371
  114MOL0     C15303   4.590   7.348   2.615  0.4461 -0.4505 -0.3555
  114MOL0     C15304   4.716   7.309   2.572 -0.1654  0.1844 -0.2405
  114MOL0     N15305   5.335   6.934   2.085 -0.4563 -0.4503 -1.1493
  114MOL0     N15306   5.350   6.811   2.054  0.9022 -0.6118  0.3874
  114MOL0     C15307   4.741   5.779   2.289 -0.2924 -0.2733 -0.1606
  114MOL0     C15308   4.608   5.745   2.320 -0.3353  0.2866 -0.3516
  114MOL0     C15309   4.192   5.591   2.205 -0.4272  0.1594  0.8676
  114MOL0     C15310   4.095   5.683   2.252 -0.5011  0.7762  0.2816
  114MOL0     C15311   3.967   5.637   2.274 -0.7419 -0.5870  0.4521
  114MOL0     C15312   3.930   5.503   2.257 -0.7098  0.0960 -0.2284
  114MOL0     O15313   3.794   5.473   2.287  0.3208  0.1835 -0.7530
  114MOL0     C15314   3.763   5.341   2.313 -0.9455  0.4827 -0.8314
  114MOL0     C15315   3.629   5.312   2.382 -0.1436 -0.6119  0.1020
  114MOL0     C15316   3.512   5.391   2.337  0.2397  0.3042 -0.5594
  114MOL0     C15317   3.396   5.387   2.440  0.0823 -0.6462  0.5926
  114MOL0     C15318   3.437   5.446   2.568 -0.4739 -0.4405  0.2828
  114MOL0     C15319   3.473   5.485   2.677 -0.2176  0.1154  0.1868
  114MOL0     C15320   4.027   5.407   2.217 -0.7876 -0.1621 -0.5813
  114MOL0     C15321   4.157   5.453   2.187 -0.0362 -0.4004  0.4116
  114MOL0     C15322   4.263   5.359   2.138 -0.1111 -0.3991  0.3190
  114MOL0     H15323   4.457   5.937   2.084  0.0326  1.5826  2.0272
  114MOL0     H15324   4.675   6.006   2.038 -0.1688  0.8631 -0.5423
  114MOL0     H15325   4.998   5.872   2.346 -0.0435 -1.3643  0.6374
  114MOL0     H15326   5.003   5.756   2.206  1.8498 -0.3989 -0.1384
  114MOL0     H15327   5.129   5.944   2.081 -0.0302  0.2434 -0.9391
  114MOL0     H15328   5.222   5.869   2.214  1.3261  1.1841 -1.7309
  114MOL0     H15329   5.157   6.058   2.375  0.4925 -0.7796  0.0574
  114MOL0     H15330   5.062   6.133   2.246 -2.0264 -1.2609  1.6001
  114MOL0     H15331   5.362   6.103   2.285  0.4538  0.5080  0.2814
  114MOL0     H15332   5.294   6.149   2.127 -2.6707  1.6958 -0.9005
  114MOL0     H15333   5.176   6.346   2.224 -2.7656 -0.3953  2.6446
  114MOL0     H15334   5.230   6.308   2.388 -0.7915 -3.2476  1.4306
  114MOL0     H15335   5.477   6.346   2.309  0.1275 -2.3280 -2.3002
  114MOL0     H15336   5.426   6.361   2.152 -0.7062 -2.5337 -0.3512
  114MOL0     H15337   5.471   6.567   2.308  0.4248 -1.4182  2.9260
  114MOL0     H15338   5.311   6.536   2.378  0.6265  3.3615  0.5095
  114MOL0     H15339   5.346   6.559   2.076  1.3734  0.3057  0.4385
  114MOL0     H15340   5.190   6.593   2.170 -0.1344  1.2350  0.4828
  114MOL0     H15341   5.264   6.783   2.367 -2.2244 -1.7895 -0.6268
  114MOL0     H15342   5.352   7.050   2.384 -0.9012  2.1068  0.6419
  114MOL0     H15343   5.297   7.159   2.260 -5.2165  0.5149 -0.2878
  114MOL0     H15344   5.118   6.967   2.411 -0.8942 -0.1097 -1.1627
  114MOL0     H15345   5.154   7.135   2.459 -0.7971 -1.2776  0.2890
  114MOL0     H15346   5.026   7.045   2.181 -1.8048 -0.5026 -0.1434
  114MOL0     H15347   5.045   7.210   2.235 -4.0323  1.4111  0.7848
  114MOL0     H15348   4.881   7.001   2.370  1.0363  0.7532  1.8987
  114MOL0     H15349   4.835   7.121   2.241  1.8640 -0.2006 -1.0048
  114MOL0     H15350   4.651   7.097   2.322 -0.4612  0.0883  0.7666
  114MOL0     H15351   4.427   7.119   2.413  1.1419 -0.1227 -1.3532
  114MOL0     H15352   4.307   7.416   2.942  1.0291 -1.1762 -2.5306
  114MOL0     H15353   4.104   7.448   3.085  1.5846 -1.6542  0.9538
  114MOL0     H15354   3.906   7.477   3.183  1.5416 -0.1494 -1.7006
  114MOL0     H15355   3.883   7.638   3.110 -0.8797  0.6425 -0.7874
  114MOL0     H15356   3.671   7.431   3.167 -2.0009  0.4100 -1.2344
  114MOL0     H15357   3.675   7.559   3.263 -3.4496 -1.3083 -0.6078
  114MOL0     H15358   3.633   7.712   3.023  0.0833  1.1434  0.1774
  114MOL0     H15359   3.592   7.551   2.964  3.5106  0.5475 -1.3214
  114MOL0     H15360   3.470   7.652   3.231  0.6163  0.3018 -0.1878
  114MOL0     H15361   3.398   7.541   3.108  0.4457 -0.0326 -5.8974
  114MOL0     H15362   3.359   7.705   2.940  0.7599 -1.9326  0.6049
  114MOL0     H15363   3.429   7.837   3.037 -0.7748  0.7706  0.6074
  114MOL0     H15364   3.262   7.834   3.194  0.5211  0.0200 -0.1242
  114MOL0     H15365   3.197   7.872   3.041 -4.4807  0.3510  3.9594
  114MOL0     H15366   3.047   7.711   3.166  0.7656  5.3004 -1.5010
  114MOL0     H15367   3.183   7.589   3.171  0.4005  0.3501  0.0838
  114MOL0     H15368   3.169   7.595   2.909 -0.8501  0.7526 -0.6443
  114MOL0     H15369   3.046   7.516   2.990  1.2752 -0.2274  1.8995
  114MOL0     H15370   3.878   7.455   2.722 -0.2210 -0.9700  0.0981
  114MOL0     H15371   4.066   7.447   2.589 -3.3242 -1.5652 -0.0514
  114MOL0     H15372   4.568   7.413   2.699  2.8375  1.9382 -1.4295
  114MOL0     H15373   4.797   7.364   2.619  0.7200 -0.2913 -1.1933
  114MOL0     H15374   4.827   5.737   2.340  1.0671  1.4181 -0.9548
  114MOL0     H15375   4.593   5.684   2.408 -1.2048 -0.4283 -0.9754
  114MOL0     H15376   4.125   5.787   2.259  1.0714  0.3874 -0.1388
  114MOL0     H15377   3.890   5.701   2.317 -1.1632 -0.4844 -0.4484
  114MOL0     H15378   3.845   5.309   2.379  0.4803  2.0555 -1.7582
  114MOL0     H15379   3.765   5.290   2.216 -0.2520 -0.3333 -0.4119
  114MOL0     H15380   3.655   5.345   2.483  3.3028  1.4913 -1.2645
  114MOL0     H15381   3.614   5.204   2.378  0.1629 -0.6367 -0.5974
  114MOL0     H15382   3.482   5.358   2.237  2.5690  1.6630 -1.7979
  114MOL0     H15383   3.553   5.493   2.336  0.1372  0.4377  2.2892
  114MOL0     H15384   3.316   5.448   2.398  1.1854  0.6620  0.2995
  114MOL0     H15385   3.348   5.292   2.464  2.8857 -2.4140 -0.2997
  114MOL0     H15386   3.494   5.541   2.766  0.6107  3.0873 -1.7358
  114MOL0     H15387   4.012   5.300   2.205  2.9305 -1.1776  2.0958
  114MOL0     H15388   4.359   5.370   2.189  0.0800  0.6927 -0.2484
  114MOL0     H15389   4.218   5.259   2.145 -2.5058  0.3366 -2.5671
  114MOL0     H15390   4.269   5.383   2.032 -2.8616 -0.1611  0.1408
  115MOL0     O15391   6.367   2.874  10.184  0.0064 -0.5393  0.5803
  115MOL0     C15392   6.407   2.962  10.107  0.1008  0.7976  0.0303
  115MOL0     O15393   6.373   3.094  10.109 -0.0441 -0.1735  0.6355
  115MOL0     C15394   6.244   3.140  10.132 -0.3487  0.2443  0.1576
  115MOL0     C15395   6.136   3.060  10.182  0.9749 -0.6882 -1.1912
  115MOL0     C15396   6.007   3.110  10.206  1.5932  0.0154 -0.3721
  115MOL0     C15397   5.980   3.243  10.189 -0.1315 -0.5804 -0.4660
  115MOL0     O15398   5.857   3.275  10.216  0.0826  1.1412 -0.4230
  115MOL0     C15399   5.781   3.355  10.126  0.0861 -0.5135  0.6173
  115MOL0     C15400   5.810   3.325   9.971 -0.2855 -0.2818 -0.7500
  115MOL0     C15401   5.685   3.332   9.879 -0.3878 -0.1635  0.1107
  115MOL0     C15402   5.606   3.197   9.867  0.2632  0.6091 -1.2800
  115MOL0     C15403   5.493   3.203   9.769 -0.2523  0.3171 -0.8148
  115MOL0     C15404   5.373   3.302   9.794  0.5120 -0.4504 -0.5351
  115MOL0     C15405   5.315   3.276   9.930 -0.2819  0.2490 -1.0220
  115MOL0     C15406   5.224   3.385   9.983  0.4531  0.5392  0.2510
  115MOL0     N15407   5.130   3.439   9.881 -0.2313 -1.1446 -0.0437
  115MOL0     C15408   5.034   3.371   9.809 -0.3853 -0.2317 -0.0327
  115MOL0     C15409   4.945   3.464   9.781 -0.4528 -0.3487  1.0510
  115MOL0     C15410   4.804   3.446   9.730 -0.0635 -0.3488  0.5873
  115MOL0     C15411   4.739   3.307   9.744 -0.1775  0.4398 -0.4666
  115MOL0     C15412   4.593   3.303   9.685 -0.2319 -0.0824 -0.4117
  115MOL0     C15413   4.533   3.163   9.697  0.0422  0.7757 -0.0810
  115MOL0     O15414   4.602   3.051   9.634 -0.6700 -0.1258  0.8017
  115MOL0     C15415   4.621   2.947   9.727 -0.8291 -0.2494  0.5741
  115MOL0     C15416   4.516   2.882   9.781 -0.0481  0.4616 -0.6102
  115MOL0     C15417   4.532   2.761   9.865  0.2081 -0.3931 -0.9845
  115MOL0     C15418   4.659   2.709   9.883 -0.8207 -0.3981 -0.3641
  115MOL0     C15419   4.686   2.584   9.965  0.1175 -0.5340  1.2607
  115MOL0     O15420   4.813   2.575  10.000  0.1840  0.1462 -1.1670
  115MOL0     C15421   4.844   2.476  10.087  0.7669  0.5364  0.1699
  115MOL0     C15422   4.837   2.344  10.061 -0.6887  0.0407  0.2556
  115MOL0     C15423   4.893   2.245  10.148  0.3078 -1.1524  0.0920
  115MOL0     C15424   4.965   2.279  10.270  0.0341  0.2577  0.5408
  115MOL0     O15425   5.015   2.178  10.347 -0.2567  0.2711 -0.1388
  115MOL0     C15426   5.114   2.210  10.444 -0.0472 -0.6662  0.7046
  115MOL0     C15427   5.192   2.088  10.496 -0.3606  0.1949 -0.0198
  115MOL0     C15428   5.310   2.136  10.574 -0.3066  0.5998  0.0690
  115MOL0     C15429   5.391   2.014  10.633 -0.2395  0.3428 -0.1000
  115MOL0     C15430   5.512   2.062  10.705 -0.6917 -0.6753  0.0235
  115MOL0     C15431   5.552   1.954  10.806 -0.9392 -0.7585 -1.0545
  115MOL0     C15432   5.612   1.827  10.746  0.6619  0.4962 -0.3036
  115MOL0     C15433   5.508   1.709  10.718 -0.1793 -0.2144 -0.3169
  115MOL0    Cl15434   5.497   1.674  10.545  0.1212 -0.3301  0.2089
  115MOL0     C15435   4.977   2.412  10.287 -0.1121 -0.9720 -0.6461
  115MOL0     C15436   4.925   2.506  10.198  0.2639  0.2054  0.2996
  115MOL0     O15437   4.592   2.511   9.992  0.1987  0.2540  0.0119
  115MOL0     C15438   4.763   2.776   9.817  0.6781 -1.0522 -0.3633
  115MOL0     C15439   4.747   2.893   9.740  0.3151  0.7859 -0.4427
  115MOL0     N15440   4.997   3.592   9.800 -0.3795 -0.2959 -0.7658
  115MOL0     N15441   5.111   3.578   9.861 -0.4420  0.1519 -0.2845
  115MOL0     C15442   6.084   3.322  10.151 -0.1387  0.1525  0.4762
  115MOL0     C15443   6.217   3.279  10.127 -0.5417  0.5098 -1.2468
  115MOL0     C15444   6.522   2.927  10.024  0.1250  0.6271 -0.1884
  115MOL0     C15445   6.623   2.840  10.072  0.8853  0.2776  0.3955
  115MOL0     C15446   6.743   2.820  10.001  0.0075 -0.2598 -0.7199
  115MOL0     C15447   6.757   2.882   9.882  0.8322 -0.2344  0.6523
  115MOL0     O15448   6.867   2.856   9.807 -0.4613  0.0421 -1.1863
  115MOL0     C15449   6.909   2.920   9.683  0.9796 -0.2294 -0.2383
  115MOL0     C15450   7.061   2.905   9.665 -0.7647 -0.3100 -0.5172
  115MOL0     C15451   7.104   2.981   9.536 -1.1362 -0.5519 -0.4156
  115MOL0     C15452   7.255   2.972   9.502 -0.7990  0.4974  0.0530
  115MOL0     C15453   7.289   2.858   9.419 -0.6237  0.5743  0.5302
  115MOL0     C15454   7.310   2.754   9.356  0.5669 -1.1234 -0.7005
  115MOL0     C15455   6.657   2.969   9.830  0.0921  0.4246 -0.0150
  115MOL0     C15456   6.538   2.980   9.896  0.8691  0.6425 -0.1217
  115MOL0     C15457   6.440   3.064   9.826 -0.0486  0.4066  0.5265
  115MOL0     H15458   6.140   2.955  10.210  0.0710  0.2265  2.9580
  115MOL0     H15459   5.928   3.037  10.224 -0.2613  1.2913 -2.7223
  115MOL0     H15460   5.675   3.334  10.147 -0.4616  2.2636  0.9417
  115MOL0     H15461   5.789   3.460  10.153 -0.1927 -0.4552  0.4781
  115MOL0     H15462   5.853   3.226   9.954  0.9920  0.1264  0.0188
  115MOL0     H15463   5.882   3.398   9.933 -0.7577  2.5229  3.1162
  115MOL0     H15464   5.709   3.363   9.777  2.1139 -1.6893  0.1541
  115MOL0     H15465   5.629   3.413   9.927 -0.8928 -0.4131 -0.0503
  115MOL0     H15466   5.677   3.119   9.838  1.0613  0.9227 -0.2371
  115MOL0     H15467   5.576   3.166   9.968  1.8653  2.1469 -0.2685
  115MOL0     H15468   5.541   3.223   9.673 -0.5137 -0.5432 -1.1346
  115MOL0     H15469   5.454   3.101   9.763 -4.6510  1.5952  1.3714
  115MOL0     H15470   5.405   3.406   9.788 -1.4895  0.3479  1.3316
  115MOL0     H15471   5.305   3.277   9.713 -1.5845  3.5668 -0.2304
  115MOL0     H15472   5.392   3.267  10.007  0.3276  1.5567 -1.4580
  115MOL0     H15473   5.273   3.176   9.918 -0.2153  0.3301 -2.0455
  115MOL0     H15474   5.176   3.337  10.069 -1.1353 -1.2338 -1.4962
  115MOL0     H15475   5.288   3.460  10.030 -2.8590  1.6108  3.5380
  115MOL0     H15476   5.022   3.264   9.795 -1.1240 -0.5603  2.6128
  115MOL0     H15477   4.729   3.512   9.775 -0.4126 -0.9446  0.8975
  115MOL0     H15478   4.800   3.469   9.623 -1.7584 -1.4439  0.3723
  115MOL0     H15479   4.790   3.238   9.675  0.5774  0.8246 -0.3017
  115MOL0     H15480   4.736   3.249   9.837  1.2466 -0.9738 -1.2495
  115MOL0     H15481   4.591   3.317   9.577  3.7718  1.3896 -0.4415
  115MOL0     H15482   4.521   3.372   9.731 -1.9293 -1.6354 -0.6287
  115MOL0     H15483   4.434   3.169   9.650 -0.4909 -2.0854  0.4808
  115MOL0     H15484   4.516   3.149   9.804  2.5181  0.8424  0.3577
  115MOL0     H15485   4.417   2.916   9.754 -1.6616 -1.2307  2.6101
  115MOL0     H15486   4.452   2.700   9.905  2.7142 -1.0373  3.7513
  115MOL0     H15487   4.794   2.315   9.965  1.1662 -0.7318 -0.3893
  115MOL0     H15488   4.878   2.141  10.120  1.5306 -0.6988 -2.4853
  115MOL0     H15489   5.189   2.278  10.402 -0.5333 -1.3323 -1.3580
  115MOL0     H15490   5.066   2.257  10.530 -0.6453 -1.9186  1.0896
  115MOL0     H15491   5.130   2.027  10.563 -0.5651 -0.1809 -0.5434
  115MOL0     H15492   5.229   2.017  10.421 -2.7723 -1.4910  0.2532
  115MOL0     H15493   5.380   2.202  10.522  0.5973  0.8247  1.4919
  115MOL0     H15494   5.292   2.202  10.659  2.2684  1.5195 -0.0111
  115MOL0     H15495   5.427   1.955  10.549  0.8928  1.7757 -0.6565
  115MOL0     H15496   5.318   1.957  10.693 -1.0301 -0.2449 -1.5528
  115MOL0     H15497   5.492   2.162  10.746 -2.9224 -0.5187 -1.2939
  115MOL0     H15498   5.598   2.075  10.639 -0.7077 -1.3131 -0.1266
  115MOL0     H15499   5.622   1.999  10.877 -4.3044  1.6860  1.0150
  115MOL0     H15500   5.460   1.930  10.859 -1.5019 -0.8199 -2.0253
  115MOL0     H15501   5.680   1.792  10.824 -1.0308  2.2017  2.0881
  115MOL0     H15502   5.670   1.858  10.659 -2.5081  2.3271 -1.9534
  115MOL0     H15503   5.532   1.613  10.765  1.8325  0.4273  0.0863
  115MOL0     H15504   5.406   1.743  10.738  0.4624  2.8137 -1.6338
  115MOL0     H15505   5.024   2.452  10.376 -2.0583  2.3785 -0.9364
  115MOL0     H15506   4.934   2.607  10.239 -0.1276 -0.7914  3.1013
  115MOL0     H15507   4.866   2.743   9.826  0.7898 -0.7917 -0.6662
  115MOL0     H15508   4.834   2.937   9.693 -0.5460 -0.2650 -3.2808
  115MOL0     H15509   6.060   3.427  10.142  1.0882  0.3269 -1.1855
  115MOL0     H15510   6.295   3.339  10.081 -0.4914 -0.8586 -3.0272
  115MOL0     H15511   6.619   2.785  10.166  2.5221 -1.1126 -0.2940
  115MOL0     H15512   6.829   2.763  10.034  0.1012  0.7539  0.8691
  115MOL0     H15513   6.880   3.025   9.676  0.5968 -0.4375 -2.3993
  115MOL0     H15514   6.849   2.877   9.602 -0.9798  1.0215  0.4763
  115MOL0     H15515   7.086   2.799   9.650  0.0449 -0.3413  0.8532
  115MOL0     H15516   7.104   2.944   9.758  1.1324 -0.6054 -1.2358
  115MOL0     H15517   7.083   3.087   9.551 -1.8139 -0.6184 -0.8393
  115MOL0     H15518   7.043   2.959   9.448 -3.1381  1.4392  0.3849
  115MOL0     H15519   7.274   3.059   9.439 -0.2580  0.3595  0.0242
  115MOL0     H15520   7.319   2.961   9.590 -0.1501 -0.1430 -0.4832
  115MOL0     H15521   7.336   2.666   9.301  2.4390 -1.7206  1.0113
  115MOL0     H15522   6.676   3.026   9.740 -0.1585  0.5913  0.0369
  115MOL0     H15523   6.340   3.022   9.807 -0.3687  2.4214 -3.1576
  115MOL0     H15524   6.426   3.161   9.875 -0.6760 -0.4279  2.0907
  115MOL0     H15525   6.475   3.091   9.726 -0.7802  3.3956  0.9937
  116MOL0     O15526   6.806   9.792   8.708  0.1001  0.4481  0.4212
  116MOL0     C15527   6.752   9.681   8.691  0.9518 -1.2223  0.0609
  116MOL0     O15528   6.696   9.636   8.573 -0.7257  0.4816 -0.7685
  116MOL0     C15529   6.701   9.707   8.456 -0.3597  0.5014 -0.1001
  116MOL0     C15530   6.788   9.673   8.352  0.4574  0.1505  0.7760
  116MOL0     C15531   6.777   9.730   8.221  0.0984  0.4768 -0.0256
  116MOL0     C15532   6.684   9.833   8.199 -0.7507  0.3588 -0.1024
  116MOL0     O15533   6.655   9.881   8.079 -0.3134 -0.3742  0.8619
  116MOL0     C15534   6.759   9.963   8.015 -0.2986  0.1554  0.2159
  116MOL0     C15535   6.697  10.064   7.910 -0.1099  0.2408  0.4055
  116MOL0     C15536   6.588  10.148   7.976  0.5001  0.3807  0.1474
  116MOL0     C15537   6.447  10.139   7.900  0.0049 -0.3317  0.3683
  116MOL0     C15538   6.337  10.224   7.974  0.8635  0.2506  0.0560
  116MOL0     C15539   6.207  10.224   7.898  0.0056  0.9354  0.2003
  116MOL0     C15540   6.103  10.324   7.958 -0.3903 -0.4633 -0.5343
  116MOL0     C15541   5.975  10.320   7.877 -0.8300 -0.8513  0.0551
  116MOL0     N15542   5.888  10.431   7.905  0.1530 -0.1209 -0.4186
  116MOL0     C15543   5.781  10.441   7.979 -0.7055  1.0615 -0.2122
  116MOL0     C15544   5.730  10.559   7.952  0.7738  0.1987  0.0974
  116MOL0     C15545   5.610  10.607   8.016 -0.9057 -0.9527  0.7823
  116MOL0     C15546   5.612  10.763   8.053  0.5516  0.0095  0.4103
  116MOL0     C15547   5.476  10.815   8.110  2.0798  0.6445 -0.1281
  116MOL0     C15548   5.367  10.841   8.001 -0.9624 -0.0801  0.2041
  116MOL0     O15549   5.290  10.945   8.033 -0.5634 -0.7587  0.6758
  116MOL0     C15550   5.180  10.966   7.953 -0.1871 -0.4010 -0.8797
  116MOL0     C15551   5.146  10.894   7.834 -0.4859 -0.0714 -0.3172
  116MOL0     C15552   5.026  10.929   7.781  0.3213  0.0753  0.2662
  116MOL0     C15553   4.926  11.010   7.840 -0.0614 -0.6927 -0.0991
  116MOL0     C15554   4.795  11.033   7.782 -0.4265  0.7401  0.1994
  116MOL0     O15555   4.767  10.957   7.674  0.4990  0.1144 -0.4413
  116MOL0     C15556   4.637  10.938   7.643  0.3628 -0.2773 -0.3612
  116MOL0     C15557   4.549  10.850   7.712  1.2069  0.2604  0.0405
  116MOL0     C15558   4.421  10.820   7.656 -0.4771  0.3560  0.5497
  116MOL0     C15559   4.375  10.888   7.540  0.5105  0.6124 -0.6534
  116MOL0     O15560   4.259  10.841   7.481  0.3655  0.0077 -0.4304
  116MOL0     C15561   4.278  10.768   7.357 -0.3213  0.1909  0.0031
  116MOL0     C15562   4.241  10.617   7.368 -0.2443 -0.8985  0.3711
  116MOL0     C15563   4.219  10.558   7.227  0.2642 -0.4631  0.5875
  116MOL0     C15564   4.235  10.410   7.199 -0.1920 -0.4780 -0.0221
  116MOL0     C15565   4.260  10.376   7.054  0.6777  0.2635 -0.7358
  116MOL0     C15566   4.288  10.223   7.040  0.3298  0.0402 -0.4531
  116MOL0     C15567   4.204  10.122   7.115  0.0579 -0.1854  1.0167
  116MOL0     C15568   4.237   9.986   7.045 -0.4437  0.2396 -0.0881
  116MOL0    Cl15569   4.114   9.873   7.114  0.4962 -0.1325  0.0817
  116MOL0     C15570   4.465  10.970   7.468  0.0153 -0.1821 -0.3027
  116MOL0     C15571   4.595  10.990   7.522  0.2880  0.8130  1.0056
  116MOL0     O15572   4.729  11.130   7.816  0.1954  0.8771 -0.1657
  116MOL0     C15573   4.965  11.085   7.953  0.3168  0.3246  0.4111
  116MOL0     C15574   5.099  11.070   7.998  0.0295 -0.5694  0.2302
  116MOL0     N15575   5.813  10.633   7.870 -0.3050  0.0033 -0.9719
  116MOL0     N15576   5.911  10.551   7.844  0.8351  0.2110 -0.1810
  116MOL0     C15577   6.600   9.873   8.309  0.0999 -0.4451  1.1043
  116MOL0     C15578   6.613   9.814   8.440  0.1673 -0.4738  0.3353
  116MOL0     C15579   6.722   9.599   8.805  0.1427 -0.0678 -0.1609
  116MOL0     C15580   6.593   9.594   8.856  1.1824  0.4577 -0.4563
  116MOL0     C15581   6.567   9.521   8.977 -0.0455 -0.3029 -0.3384
  116MOL0     C15582   6.673   9.454   9.043 -0.4727 -0.1821  0.5674
  116MOL0     O15583   6.653   9.373   9.153  0.1123 -0.0442 -0.4294
  116MOL0     C15584   6.653   9.457   9.267  0.2589  1.1578 -0.5458
  116MOL0     C15585   6.632   9.389   9.400 -0.6472  0.4955  0.3183
  116MOL0     C15586   6.764   9.356   9.463 -0.2796 -0.3808 -0.5802
  116MOL0     C15587   6.754   9.230   9.538 -0.2405 -0.4656  0.9843
  116MOL0     C15588   6.735   9.110   9.454 -0.6698 -0.6275  0.3743
  116MOL0     C15589   6.736   9.021   9.374  0.4489 -0.0698 -0.3465
  116MOL0     C15590   6.802   9.460   8.993  0.8812 -0.0274 -0.2399
  116MOL0     C15591   6.824   9.533   8.874 -0.0782 -0.3035 -0.5726
  116MOL0     C15592   6.967   9.533   8.832  1.0583  0.5885  1.0115
  116MOL0     H15593   6.857   9.591   8.367 -1.8913 -1.8716  1.2920
  116MOL0     H15594   6.831   9.691   8.135  0.8374 -1.7659  1.3836
  116MOL0     H15595   6.816  10.022   8.087 -0.6993  2.0225 -0.9302
  116MOL0     H15596   6.819   9.888   7.963 -1.1154 -0.8848  0.7475
  116MOL0     H15597   6.653  10.000   7.833 -0.4586  0.2060  0.6300
  116MOL0     H15598   6.771  10.133   7.869  0.5124 -0.9792 -0.6014
  116MOL0     H15599   6.617  10.253   7.990  1.2290  1.0098 -4.6270
  116MOL0     H15600   6.581  10.109   8.078  1.7520 -2.1890 -0.6712
  116MOL0     H15601   6.444  10.173   7.796 -0.5718 -1.5242 -0.0223
  116MOL0     H15602   6.428  10.031   7.901 -1.4445 -0.1052 -0.1523
  116MOL0     H15603   6.317  10.179   8.072  0.5488 -0.5627 -0.3664
  116MOL0     H15604   6.379  10.323   7.989  0.1747  0.2300  2.7864
  116MOL0     H15605   6.229  10.271   7.802 -1.3458  0.7635 -0.2062
  116MOL0     H15606   6.170  10.123   7.880 -1.9056  1.5299  0.5821
  116MOL0     H15607   6.147  10.424   7.952  1.9897 -1.4114 -0.3754
  116MOL0     H15608   6.080  10.310   8.064 -3.6294 -2.2320 -1.3657
  116MOL0     H15609   5.995  10.337   7.770  0.3833  2.0599  0.6626
  116MOL0     H15610   5.927  10.223   7.895 -1.5918 -0.2692  1.2385
  116MOL0     H15611   5.740  10.365   8.045 -5.8531  2.4964 -1.3494
  116MOL0     H15612   5.532  10.579   7.945 -0.1824 -2.6831  0.6263
  116MOL0     H15613   5.606  10.551   8.110  0.3853 -0.6704  1.0270
  116MOL0     H15614   5.681  10.784   8.136  1.5608  0.0514 -0.4263
  116MOL0     H15615   5.628  10.836   7.973 -2.7829  0.1623 -0.2288
  116MOL0     H15616   5.484  10.908   8.167 -0.3983  1.9818 -1.7949
  116MOL0     H15617   5.433  10.737   8.174 -0.2619  2.0877  0.1503
  116MOL0     H15618   5.302  10.755   7.985 -1.1081  0.2816 -1.2583
  116MOL0     H15619   5.422  10.858   7.908 -1.0419  0.4369  0.2465
  116MOL0     H15620   5.212  10.835   7.772  2.3315  2.0544  0.4771
  116MOL0     H15621   5.001  10.885   7.685 -0.5204  0.8872  0.1067
  116MOL0     H15622   4.559  10.784   7.797 -1.6934 -1.2059 -0.6166
  116MOL0     H15623   4.360  10.742   7.700 -1.8555  1.2347  0.2446
  116MOL0     H15624   4.222  10.821   7.280  0.8430  2.3398  0.5628
  116MOL0     H15625   4.375  10.777   7.306 -1.2069 -2.9054 -2.5520
  116MOL0     H15626   4.330  10.578   7.420 -0.0377 -1.0378 -0.0752
  116MOL0     H15627   4.151  10.598   7.427 -1.4415 -0.0016 -1.1087
  116MOL0     H15628   4.119  10.577   7.184  0.5374 -0.6516 -0.1485
  116MOL0     H15629   4.286  10.617   7.164  1.0069  3.1308  4.3300
  116MOL0     H15630   4.135  10.373   7.222 -1.1050  2.0696  0.4514
  116MOL0     H15631   4.309  10.358   7.260  1.1346  0.7252 -0.5313
  116MOL0     H15632   4.336  10.438   7.006  0.9325 -1.6536 -3.0631
  116MOL0     H15633   4.171  10.400   6.995  0.7257 -0.5913 -1.1753
  116MOL0     H15634   4.271  10.198   6.934 -2.6983 -1.4786  0.2796
  116MOL0     H15635   4.390  10.209   7.078 -0.9979 -1.8657  2.8174
  116MOL0     H15636   4.098  10.150   7.109 -0.3183 -1.4523  1.3917
  116MOL0     H15637   4.226  10.125   7.222 -2.6303  1.4822  1.6309
  116MOL0     H15638   4.231   9.982   6.936 -0.9673 -1.0320 -0.0217
  116MOL0     H15639   4.338   9.955   7.072 -0.3777  0.3345 -0.2200
  116MOL0     H15640   4.440  11.024   7.377  1.9024  1.1337 -0.0849
  116MOL0     H15641   4.674  11.042   7.469 -2.4281  1.7799 -2.4785
  116MOL0     H15642   4.894  11.155   7.996 -2.4267 -0.2432 -2.7595
  116MOL0     H15643   5.124  11.140   8.077 -2.8426  3.5638 -2.1272
  116MOL0     H15644   6.522   9.949   8.313  1.4634  1.0958 -0.2339
  116MOL0     H15645   6.563   9.846   8.530 -0.1001 -1.0464  0.3929
  116MOL0     H15646   6.514   9.636   8.795 -1.2395 -2.2620  0.6031
  116MOL0     H15647   6.463   9.528   9.004  0.5444 -0.3081  2.1080
  116MOL0     H15648   6.567   9.524   9.268 -0.7258 -0.0140  1.6249
  116MOL0     H15649   6.743   9.518   9.275 -0.0057  1.3510  1.6732
  116MOL0     H15650   6.572   9.302   9.375 -0.1713  0.2719 -0.0634
  116MOL0     H15651   6.578   9.454   9.470 -2.2711 -0.2212 -0.2392
  116MOL0     H15652   6.789   9.425   9.544  1.6384  0.6920 -1.9934
  116MOL0     H15653   6.840   9.350   9.384  0.0806 -1.2793 -0.1800
  116MOL0     H15654   6.851   9.216   9.585  1.7538  1.3109 -2.2033
  116MOL0     H15655   6.668   9.227   9.605  1.1556 -1.5390  2.8093
  116MOL0     H15656   6.701   8.942   9.311  0.1828 -1.6090  1.6197
  116MOL0     H15657   6.871   9.390   9.039 -2.1252 -1.8142  1.9473
  116MOL0     H15658   7.004   9.636   8.837  0.5111  0.7309  2.4358
  116MOL0     H15659   7.031   9.470   8.894  2.5285 -0.4791 -1.4564
  116MOL0     H15660   6.978   9.503   8.727  1.6288  0.9781  0.9486
  117MOL0     O15661   8.602  10.947   6.848  1.0372 -0.8031 -0.4856
  117MOL0     C15662   8.519  11.007   6.773  0.1640  0.0731 -0.2966
  117MOL0     O15663   8.551  11.065   6.655 -0.2872 -0.7095 -0.5918
  117MOL0     C15664   8.679  11.022   6.606 -0.8985 -1.0987  0.8034
  117MOL0     C15665   8.721  10.890   6.587 -0.2073 -0.4158  0.0059
  117MOL0     C15666   8.855  10.862   6.563  0.3158 -0.3156 -0.3728
  117MOL0     C15667   8.940  10.967   6.530 -0.8224 -0.5512 -0.1403
  117MOL0     O15668   9.065  10.942   6.482  1.0823 -0.2608  0.5881
  117MOL0     C15669   9.171  11.017   6.543  0.7526  0.5153  0.2312
  117MOL0     C15670   9.300  10.982   6.463 -0.5153 -0.7271 -0.3625
  117MOL0     C15671   9.304  11.045   6.322 -0.4256 -0.3043 -0.0418
  117MOL0     C15672   9.291  11.197   6.322 -0.2022  0.0322 -0.0411
  117MOL0     C15673   9.333  11.268   6.200 -0.3713 -0.3937  0.1752
  117MOL0     C15674   9.256  11.404   6.188  0.2779 -0.1908 -1.0970
  117MOL0     C15675   9.333  11.489   6.083 -0.6293 -0.0838 -0.5081
  117MOL0     C15676   9.249  11.616   6.058  0.4154 -0.7130  0.3923
  117MOL0     N15677   9.158  11.570   5.947  1.2293 -0.4761 -0.2432
  117MOL0     C15678   9.204  11.528   5.823 -0.0906 -0.0721 -1.1442
  117MOL0     C15679   9.092  11.506   5.749  0.6903  0.2351  0.3015
  117MOL0     C15680   9.077  11.454   5.603  0.1439  1.0721 -0.8827
  117MOL0     C15681   9.150  11.546   5.504 -0.7047  0.1112  0.2326
  117MOL0     C15682   9.098  11.517   5.363 -0.7281  0.0291  0.3928
  117MOL0     C15683   9.139  11.619   5.251 -0.3833  1.7296  0.4411
  117MOL0     O15684   9.281  11.619   5.237  0.5371  0.4988  0.2709
  117MOL0     C15685   9.349  11.712   5.167  0.2722  0.2866  0.5503
  117MOL0     C15686   9.446  11.663   5.072  0.2725 -1.6597 -0.6425
  117MOL0     C15687   9.538  11.741   5.003 -0.7654 -0.1153 -1.2415
  117MOL0     C15688   9.529  11.885   5.015  0.5172  1.0214 -0.2874
  117MOL0     C15689   9.623  11.978   4.947  0.2410  1.7033  0.9875
  117MOL0     O15690   9.691  11.937   4.834  0.4720  0.0210  0.2888
  117MOL0     C15691   9.739  12.035   4.747  0.8754 -1.1345 -0.0973
  117MOL0     C15692   9.839  12.000   4.659 -0.7374 -0.6237  0.2554
  117MOL0     C15693   9.884  12.096   4.560 -0.0814  0.5611 -0.4673
  117MOL0     C15694   9.820  12.217   4.546  1.2018 -0.5317 -0.3950
  117MOL0     O15695   9.874  12.299   4.447  0.6775 -0.1530 -0.0074
  117MOL0     C15696   9.780  12.398   4.391  0.4486  0.6211  0.4606
  117MOL0     C15697   9.657  12.333   4.325  0.0377  0.4172  0.2906
  117MOL0     C15698   9.714  12.245   4.205 -0.4196  0.2072 -0.2988
  117MOL0     C15699   9.594  12.200   4.126  0.0982 -0.5065 -0.0547
  117MOL0     C15700   9.622  12.136   4.000  0.6100 -0.1698  0.7254
  117MOL0     C15701   9.665  12.202   3.872 -0.2327 -0.1022  0.2196
  117MOL0     C15702   9.700  12.112   3.754  0.4719 -0.5937 -0.6557
  117MOL0     C15703   9.843  12.058   3.761 -1.0195 -0.4345  1.1455
  117MOL0    Cl15704   9.856  11.950   3.620  0.0813  0.2366  0.3944
  117MOL0     C15705   9.709  12.247   4.625  0.5054  0.9957  0.4956
  117MOL0     C15706   9.673  12.160   4.725 -0.9248 -0.6133 -0.0633
  117MOL0     O15707   9.629  12.091   5.005 -0.4451  0.5031  0.7446
  117MOL0     C15708   9.439  11.930   5.117  0.1458  0.6123 -0.3835
  117MOL0     C15709   9.352  11.851   5.193  0.4390 -0.1101  0.0225
  117MOL0     N15710   8.979  11.526   5.830 -0.1434 -0.5938 -0.1296
  117MOL0     N15711   9.024  11.558   5.948 -0.3629  1.0964 -0.4411
  117MOL0     C15712   8.896  11.100   6.529  0.0412  0.3544  0.0230
  117MOL0     C15713   8.771  11.128   6.574  0.4808  0.5271  0.0890
  117MOL0     C15714   8.383  11.043   6.818 -0.1887 -0.0681 -0.0514
  117MOL0     C15715   8.273  11.029   6.733 -0.0858 -0.0316  0.1084
  117MOL0     C15716   8.148  11.059   6.765  0.9228 -0.2189  0.3830
  117MOL0     C15717   8.121  11.097   6.895 -0.4491  0.0620  0.4100
  117MOL0     O15718   7.992  11.133   6.917  1.3246 -0.3903  0.5537
  117MOL0     C15719   7.958  11.178   7.046  0.3416  0.3053  0.5195
  117MOL0     C15720   7.980  11.327   7.062 -0.0900  0.1677  0.4533
  117MOL0     C15721   7.978  11.370   7.208  0.7240  0.9490 -1.2256
  117MOL0     C15722   8.082  11.478   7.236  0.4851  0.0919 -0.7813
  117MOL0     C15723   8.223  11.437   7.220  0.4335 -0.5434  0.2593
  117MOL0     C15724   8.332  11.400   7.186  0.5272 -0.9090 -0.7235
  117MOL0     C15725   8.222  11.099   6.986  0.1296 -0.5819  0.1819
  117MOL0     C15726   8.357  11.076   6.950 -0.5114 -0.5619  0.1163
  117MOL0     C15727   8.467  11.075   7.056  0.2938 -1.0070 -0.4210
  117MOL0     H15728   8.644  10.819   6.613  0.7087 -1.1710  0.7409
  117MOL0     H15729   8.886  10.759   6.545 -2.6897 -1.1887 -1.1762
  117MOL0     H15730   9.146  11.123   6.558 -0.1369  0.1753  1.2918
  117MOL0     H15731   9.193  10.979   6.643  0.9253 -1.9406 -0.6759
  117MOL0     H15732   9.311  10.873   6.461 -0.5622 -0.7202 -1.1335
  117MOL0     H15733   9.391  11.015   6.515 -1.3282  0.2393  0.4764
  117MOL0     H15734   9.220  10.998   6.268 -0.5415  0.2950 -0.3961
  117MOL0     H15735   9.395  11.009   6.274  0.9647  3.4109 -0.4831
  117MOL0     H15736   9.189  11.220   6.354 -0.7283 -0.2045 -1.4795
  117MOL0     H15737   9.345  11.242   6.405  4.2264 -2.3092 -1.2894
  117MOL0     H15738   9.442  11.274   6.202 -0.3648 -0.0883 -0.6921
  117MOL0     H15739   9.301  11.211   6.113 -0.4402  3.2055 -2.4180
  117MOL0     H15740   9.153  11.379   6.162 -0.7342  0.7692  1.5760
  117MOL0     H15741   9.262  11.461   6.281  1.1325 -1.2027 -0.5034
  117MOL0     H15742   9.368  11.436   5.995  1.8829  0.6495 -0.0332
  117MOL0     H15743   9.428  11.515   6.132 -1.2890 -0.1478  0.8341
  117MOL0     H15744   9.186  11.642   6.144 -1.4722 -0.3269 -1.0570
  117MOL0     H15745   9.301  11.704   6.018  1.7410 -0.9293  1.5571
  117MOL0     H15746   9.310  11.519   5.806  0.8544  1.2995  2.7838
  117MOL0     H15747   9.119  11.353   5.598  2.8039  2.0359 -0.0020
  117MOL0     H15748   8.974  11.462   5.569 -0.5025 -0.3454  0.6081
  117MOL0     H15749   9.146  11.652   5.530  0.5283 -0.2490  2.0856
  117MOL0     H15750   9.255  11.523   5.523 -1.2672 -0.5345  3.0654
  117MOL0     H15751   8.990  11.501   5.361 -0.9727  1.4185  1.3860
  117MOL0     H15752   9.155  11.428   5.332 -1.0619  0.4267 -1.4767
  117MOL0     H15753   9.093  11.717   5.270  0.9548  1.9686  2.7660
  117MOL0     H15754   9.092  11.580   5.160  4.3632 -0.8505 -1.2200
  117MOL0     H15755   9.447  11.555   5.065 -0.9438 -1.7970  0.7636
  117MOL0     H15756   9.609  11.690   4.939 -1.4792 -1.2614 -1.1472
  117MOL0     H15757   9.878  11.899   4.655 -1.6443 -0.9884 -3.6012
  117MOL0     H15758   9.971  12.072   4.501 -2.2318 -0.6460 -3.4191
  117MOL0     H15759   9.743  12.462   4.471 -2.7943 -1.7819  1.0635
  117MOL0     H15760   9.827  12.463   4.315  2.2981 -2.3121 -1.1102
  117MOL0     H15761   9.593  12.275   4.393 -3.8390  4.8938  0.9918
  117MOL0     H15762   9.594  12.417   4.294 -0.2895  0.4636  1.0680
  117MOL0     H15763   9.778  12.302   4.137  0.4247  0.6481  0.8156
  117MOL0     H15764   9.775  12.158   4.234  0.6462  1.0988  0.2048
  117MOL0     H15765   9.528  12.284   4.101 -0.7600 -0.3671  2.3901
  117MOL0     H15766   9.532  12.132   4.185  0.2995  1.1652  2.2110
  117MOL0     H15767   9.524  12.100   3.966  0.3098  3.6672 -3.3747
  117MOL0     H15768   9.685  12.048   4.017 -1.1951 -2.4435 -3.0009
  117MOL0     H15769   9.578  12.255   3.831 -0.6725 -1.4747 -0.7011
  117MOL0     H15770   9.750  12.268   3.888 -0.1717  0.1260 -0.9206
  117MOL0     H15771   9.684  12.155   3.655  0.7881 -0.5177 -0.6736
  117MOL0     H15772   9.628  12.030   3.767  1.0248 -1.0040 -0.1355
  117MOL0     H15773   9.908  12.143   3.742 -0.7600 -1.0946 -1.2867
  117MOL0     H15774   9.876  12.011   3.854 -1.4387  0.4255  1.7446
  117MOL0     H15775   9.656  12.341   4.627  1.3462  1.6631 -2.7079
  117MOL0     H15776   9.587  12.187   4.786  1.4923  1.5144  2.6403
  117MOL0     H15777   9.426  12.032   5.153  0.8676  0.2014  1.1819
  117MOL0     H15778   9.298  11.894   5.277 -0.5434  1.3308 -1.2941
  117MOL0     H15779   8.961  11.175   6.485 -0.4406  1.2664  0.8139
  117MOL0     H15780   8.754  11.235   6.582 -1.5263  0.1992  0.9276
  117MOL0     H15781   8.291  10.993   6.632  1.3049  2.2857 -0.5570
  117MOL0     H15782   8.074  11.032   6.691  0.0724 -1.5459  1.6507
  117MOL0     H15783   7.995  11.112   7.126  0.5309 -1.5597 -1.0436
  117MOL0     H15784   7.850  11.167   7.058  0.1187  1.1862 -0.5478
  117MOL0     H15785   7.914  11.375   6.990  0.3694  0.1486  0.0144
  117MOL0     H15786   8.078  11.343   7.015 -1.5130  2.2393 -2.0673
  117MOL0     H15787   7.985  11.280   7.270  1.5200  0.7529 -1.5848
  117MOL0     H15788   7.874  11.403   7.222  0.0221 -1.6954  0.6787
  117MOL0     H15789   8.066  11.563   7.169 -0.6350 -0.2122 -0.9146
  117MOL0     H15790   8.072  11.502   7.342  1.0751  0.5556 -0.8234
  117MOL0     H15791   8.430  11.371   7.154  0.7770  0.3916 -1.1728
  117MOL0     H15792   8.212  11.151   7.081  1.9974  0.3972 -0.0986
  117MOL0     H15793   8.497  10.973   7.078  0.9234 -0.6678  0.3203
  117MOL0     H15794   8.558  11.121   7.016 -1.6602  2.6954 -1.0840
  117MOL0     H15795   8.423  11.125   7.143  0.2084 -1.3880 -0.2473
  118MOL0     O15796   5.551   2.700   3.099 -0.2811 -0.0542  0.1295
  118MOL0     C15797   5.533   2.623   3.196  0.5549 -0.6962  0.2888
  118MOL0     O15798   5.632   2.526   3.237  0.3755  0.8775  1.0967
  118MOL0     C15799   5.766   2.546   3.207 -0.3227 -0.2811  0.1480
  118MOL0     C15800   5.827   2.668   3.218 -0.4381  0.0212 -0.5693
  118MOL0     C15801   5.955   2.688   3.168  0.5155  0.2314 -0.8435
  118MOL0     C15802   6.024   2.585   3.099  0.4628  0.7928  0.0348
  118MOL0     O15803   6.150   2.582   3.033 -0.2300 -0.2728  0.1750
  118MOL0     C15804   6.231   2.704   3.036  0.1996  0.1502 -0.5191
  118MOL0     C15805   6.193   2.803   2.924  0.0597  0.2261  0.5342
  118MOL0     C15806   6.192   2.732   2.790 -0.6640  0.1241 -0.1824
  118MOL0     C15807   6.118   2.819   2.698  0.3082 -0.0980  0.6820
  118MOL0     C15808   6.134   2.779   2.548  0.4313 -0.2387 -0.2966
  118MOL0     C15809   6.094   2.886   2.441  0.4603 -1.0027  0.1825
  118MOL0     C15810   6.103   2.826   2.292 -0.3111 -0.0211 -0.0346
  118MOL0     C15811   6.232   2.856   2.208  0.6355  0.7823  0.4311
  118MOL0     N15812   6.337   2.766   2.253  0.4494 -0.2252  0.2160
  118MOL0     C15813   6.370   2.646   2.184  0.0365  0.1712 -0.5182
  118MOL0     C15814   6.491   2.605   2.241 -0.1611  0.5698 -0.5651
  118MOL0     C15815   6.571   2.477   2.213  0.0498 -0.4152  0.1323
  118MOL0     C15816   6.625   2.484   2.076  0.1486 -0.2788  0.2382
  118MOL0     C15817   6.712   2.354   2.046  0.6435  0.0573 -0.3126
  118MOL0     C15818   6.748   2.357   1.899 -0.6510 -0.2089  0.3055
  118MOL0     O15819   6.827   2.475   1.882 -0.0830 -0.3315  0.4737
  118MOL0     C15820   6.937   2.487   1.792  0.2680  0.5869  0.0575
  118MOL0     C15821   7.036   2.586   1.827  0.2887 -0.4718 -0.0041
  118MOL0     C15822   7.155   2.593   1.754  0.3213 -0.3470  1.7032
  118MOL0     C15823   7.171   2.511   1.636  0.4640 -0.3356 -0.7147
  118MOL0     C15824   7.292   2.521   1.552  0.9139  0.6579  0.5678
  118MOL0     O15825   7.395   2.597   1.602 -0.3950 -0.1939 -0.5245
  118MOL0     C15826   7.502   2.650   1.536  0.0158 -0.9122 -0.2355
  118MOL0     C15827   7.567   2.760   1.586  1.2089  0.7373  0.9380
  118MOL0     C15828   7.676   2.817   1.525  0.7641 -0.0009  0.1663
  118MOL0     C15829   7.724   2.760   1.414 -1.0541 -0.0720  0.7241
  118MOL0     O15830   7.850   2.800   1.357 -0.0234  0.3130  0.2288
  118MOL0     C15831   7.917   2.907   1.418 -0.0156  0.0015  0.3708
  118MOL0     C15832   8.047   2.935   1.345 -0.6530 -0.1999 -0.2413
  118MOL0     C15833   8.129   3.049   1.427  0.7197  0.1885 -0.3058
  118MOL0     C15834   8.217   3.137   1.332 -0.3108 -0.5735  0.6313
  118MOL0     C15835   8.289   3.077   1.212  0.2044  0.3718  0.0811
  118MOL0     C15836   8.361   3.185   1.130 -0.4859  0.4540 -0.0328
  118MOL0     C15837   8.441   3.295   1.215  0.8136 -0.1788  0.4792
  118MOL0     C15838   8.506   3.393   1.126 -0.5719 -0.8234  0.4817
  118MOL0    Cl15839   8.681   3.354   1.089 -0.3590  0.1802 -0.4552
  118MOL0     C15840   7.672   2.648   1.360  0.3636 -0.6225 -0.6318
  118MOL0     C15841   7.556   2.595   1.416 -1.0808 -0.2616  0.1322
  118MOL0     O15842   7.300   2.454   1.451  0.1496 -0.4130  0.7023
  118MOL0     C15843   7.074   2.421   1.599 -0.0574  0.9329 -0.2884
  118MOL0     C15844   6.960   2.405   1.676 -0.2187 -0.4188  0.4086
  118MOL0     N15845   6.516   2.689   2.350  0.3540 -0.0663 -0.0303
  118MOL0     N15846   6.435   2.790   2.347  0.4457 -0.8102 -0.4913
  118MOL0     C15847   5.958   2.457   3.086  0.9251  0.2147  0.6994
  118MOL0     C15848   5.829   2.436   3.141  0.2944  0.0100  0.2450
  118MOL0     C15849   5.400   2.594   3.253 -0.6422 -0.0023  0.3230
  118MOL0     C15850   5.370   2.457   3.282  0.6551  0.5472 -0.4313
  118MOL0     C15851   5.242   2.420   3.311  0.6845  0.1276  0.3548
  118MOL0     C15852   5.139   2.515   3.314 -0.4572 -0.3021  0.6441
  118MOL0     O15853   5.010   2.478   3.356  0.1763 -0.8548  0.2263
  118MOL0     C15854   4.960   2.340   3.332  0.6806 -0.9367 -0.1865
  118MOL0     C15855   4.839   2.341   3.237  0.8072  0.4097 -0.9777
  118MOL0     C15856   4.725   2.242   3.286  0.0957 -0.3804  0.2668
  118MOL0     C15857   4.626   2.238   3.171 -0.3163  0.1092 -1.1039
  118MOL0     C15858   4.669   2.132   3.077  1.0028 -0.6241  0.7865
  118MOL0     C15859   4.703   2.051   2.995  0.5528 -0.0886  0.2617
  118MOL0     C15860   5.174   2.651   3.287 -0.4747  0.3140 -0.0330
  118MOL0     C15861   5.303   2.693   3.261 -0.5224  0.2024 -0.8953
  118MOL0     C15862   5.332   2.837   3.247  0.1606  1.5441  0.0384
  118MOL0     H15863   5.769   2.750   3.259 -0.3246  0.0124 -0.3897
  118MOL0     H15864   6.005   2.784   3.178 -0.5198  0.8025 -1.0395
  118MOL0     H15865   6.214   2.761   3.127 -0.1766  1.7367 -1.5430
  118MOL0     H15866   6.334   2.674   3.017 -0.1290 -2.8260  1.6678
  118MOL0     H15867   6.251   2.895   2.920  0.5800 -0.1359 -1.3631
  118MOL0     H15868   6.086   2.820   2.944 -0.0583 -0.3759  0.4356
  118MOL0     H15869   6.135   2.639   2.792 -0.1140 -0.2239 -0.5298
  118MOL0     H15870   6.295   2.710   2.761 -1.1270 -1.1908 -0.9045
  118MOL0     H15871   6.014   2.829   2.729  1.6575  0.2277  6.0062
  118MOL0     H15872   6.158   2.921   2.698  3.4509 -1.2244  1.2236
  118MOL0     H15873   6.238   2.754   2.528 -0.1368 -0.5916 -3.2968
  118MOL0     H15874   6.066   2.698   2.519 -1.1799  1.7993 -2.5701
  118MOL0     H15875   5.991   2.916   2.462 -0.6163 -2.7825 -2.0960
  118MOL0     H15876   6.160   2.972   2.456 -0.7965 -0.1946  1.3720
  118MOL0     H15877   6.019   2.867   2.236 -1.3817  0.0351  1.5594
  118MOL0     H15878   6.070   2.723   2.300 -3.6336  0.8242 -1.2986
  118MOL0     H15879   6.198   2.823   2.109  0.7056 -2.8650  1.4745
  118MOL0     H15880   6.262   2.960   2.199  2.0337  0.3526 -0.1926
  118MOL0     H15881   6.333   2.599   2.093  1.0112  1.3143 -1.5380
  118MOL0     H15882   6.644   2.475   2.294  1.3757  2.9692 -0.8177
  118MOL0     H15883   6.503   2.391   2.213 -2.1028  1.1747 -1.7124
  118MOL0     H15884   6.546   2.490   2.001  0.6408 -0.6078 -0.3128
  118MOL0     H15885   6.700   2.562   2.060 -0.2259  0.0253 -0.0286
  118MOL0     H15886   6.647   2.269   2.067  0.3584 -0.0132 -1.3967
  118MOL0     H15887   6.799   2.355   2.112  0.0131  0.6081  0.5241
  118MOL0     H15888   6.658   2.348   1.838 -0.0630 -0.1275 -0.5937
  118MOL0     H15889   6.804   2.275   1.853 -3.4654 -1.6563 -0.7288
  118MOL0     H15890   7.026   2.641   1.920  0.4308 -2.5994  1.3496
  118MOL0     H15891   7.219   2.679   1.773  1.7028 -1.2301  1.2644
  118MOL0     H15892   7.533   2.799   1.681 -3.1790 -2.5178  1.0343
  118MOL0     H15893   7.716   2.912   1.561  0.7597  0.2850 -0.5546
  118MOL0     H15894   7.848   2.991   1.420 -2.0446 -1.5962  0.1493
  118MOL0     H15895   7.929   2.892   1.526  0.8711  0.5990  0.3697
  118MOL0     H15896   8.111   2.846   1.342  0.4862  0.3341  3.3106
  118MOL0     H15897   8.028   2.963   1.241  2.9076 -0.8363 -1.1858
  118MOL0     H15898   8.056   3.120   1.468  1.4235  2.5656 -2.8822
  118MOL0     H15899   8.181   3.000   1.510 -0.3835 -0.7650 -0.1654
  118MOL0     H15900   8.288   3.193   1.393 -1.3675 -1.1025  2.4133
  118MOL0     H15901   8.154   3.218   1.293  0.4729 -0.4530 -0.4118
  118MOL0     H15902   8.217   3.014   1.159 -0.2277 -0.6121  1.7856
  118MOL0     H15903   8.356   3.004   1.258  3.8096  1.9286 -2.2354
  118MOL0     H15904   8.426   3.131   1.060 -2.8441 -2.1889 -0.3617
  118MOL0     H15905   8.280   3.236   1.077 -1.4269 -0.8006  0.1589
  118MOL0     H15906   8.506   3.251   1.291  2.4873  0.7483 -0.3514
  118MOL0     H15907   8.370   3.363   1.263 -0.9567 -1.9229  0.4218
  118MOL0     H15908   8.457   3.410   1.029 -2.1552  1.5046  1.5969
  118MOL0     H15909   8.502   3.488   1.180  0.5493 -0.0545 -0.7124
  118MOL0     H15910   7.720   2.603   1.274  0.0326  0.0695 -1.1886
  118MOL0     H15911   7.515   2.502   1.376 -0.3243 -1.0433  1.1177
  118MOL0     H15912   7.077   2.365   1.506 -0.2846  1.9895 -0.9539
  118MOL0     H15913   6.887   2.334   1.638 -0.4672  0.0278  0.0359
  118MOL0     H15914   6.002   2.381   3.023  0.9054  1.8715 -1.4511
  118MOL0     H15915   5.774   2.345   3.121 -0.2556 -0.1273  2.1495
  118MOL0     H15916   5.444   2.378   3.270 -0.9734 -1.0728 -0.2295
  118MOL0     H15917   5.224   2.321   3.349 -4.7246  1.5146  2.2819
  118MOL0     H15918   4.933   2.303   3.432  0.1978  1.4959  0.6542
  118MOL0     H15919   5.029   2.269   3.286 -2.6340 -3.1073 -2.2374
  118MOL0     H15920   4.878   2.320   3.137  0.8856 -3.9101 -0.2176
  118MOL0     H15921   4.797   2.442   3.245  1.0929  0.5204 -0.8798
  118MOL0     H15922   4.672   2.291   3.367 -0.5250 -0.2741 -0.1998
  118MOL0     H15923   4.755   2.150   3.336 -2.6413  0.5103  3.9179
  118MOL0     H15924   4.523   2.216   3.200 -0.3360 -1.5001 -2.2308
  118MOL0     H15925   4.624   2.335   3.121  1.7456  0.0686 -1.3489
  118MOL0     H15926   4.763   1.991   2.930  1.9504  3.3514 -1.9505
  118MOL0     H15927   5.095   2.724   3.301 -0.1849  1.2009 -2.5545
  118MOL0     H15928   5.263   2.902   3.302 -1.2963  0.7649 -0.8079
  118MOL0     H15929   5.431   2.864   3.285  1.6534 -3.6806  0.6736
  118MOL0     H15930   5.330   2.856   3.139  2.7159  1.5367 -0.0715
  119MOL0     O15931  10.688  11.351   5.145  0.2089  0.4286  0.1606
  119MOL0     C15932  10.729  11.453   5.215  0.3010 -0.5288  0.0619
  119MOL0     O15933  10.703  11.587   5.179 -0.1061  0.6894 -0.1799
  119MOL0     C15934  10.597  11.616   5.106  0.0069  0.3289  0.4406
  119MOL0     C15935  10.578  11.575   4.974 -0.7442  0.3486 -0.4222
  119MOL0     C15936  10.469  11.615   4.907  0.9056  0.0536 -0.6717
  119MOL0     C15937  10.377  11.718   4.952 -0.6115  0.3385  0.0881
  119MOL0     O15938  10.271  11.760   4.871 -0.1238  0.3890  0.6583
  119MOL0     C15939  10.167  11.665   4.839 -0.0682  0.2083 -0.1206
  119MOL0     C15940  10.046  11.735   4.768 -0.4819  0.0443  0.2865
  119MOL0     C15941   9.969  11.634   4.669 -0.3117 -0.0465 -0.9497
  119MOL0     C15942   9.901  11.513   4.739  0.3114  0.7672  0.4678
  119MOL0     C15943   9.888  11.405   4.624 -0.9624  0.1188  0.5692
  119MOL0     C15944   9.823  11.281   4.672  0.1642 -0.4173  1.0448
  119MOL0     C15945   9.843  11.179   4.564  0.6814 -0.2469 -0.1390
  119MOL0     C15946   9.726  11.076   4.595 -0.9475  0.2114 -0.6159
  119MOL0     N15947   9.723  10.969   4.494 -0.2381 -0.1810 -0.0302
  119MOL0     C15948   9.830  10.884   4.466  0.5655 -0.0126  0.3953
  119MOL0     C15949   9.785  10.809   4.358  0.1486 -0.3396  0.1859
  119MOL0     C15950   9.833  10.693   4.284 -0.0885 -0.9984  0.3128
  119MOL0     C15951   9.963  10.737   4.210 -0.0108 -0.4004 -0.2458
  119MOL0     C15952   9.940  10.852   4.114 -0.3233 -0.3436  0.5246
  119MOL0     C15953   9.974  10.986   4.178 -0.7914 -0.2383  0.5613
  119MOL0     O15954  10.111  10.997   4.222 -0.0206  0.3232  0.1242
  119MOL0     C15955  10.160  11.122   4.265  0.8241  0.0407  0.8057
  119MOL0     C15956  10.088  11.245   4.260 -0.2512  0.3764  0.0590
  119MOL0     C15957  10.156  11.356   4.306  0.0524 -0.1089 -0.5309
  119MOL0     C15958  10.297  11.358   4.337 -0.4884 -0.8131  0.5678
  119MOL0     C15959  10.355  11.489   4.377  0.9744 -0.1788  1.4202
  119MOL0     O15960  10.269  11.575   4.439 -0.2129  0.4013 -0.8777
  119MOL0     C15961  10.311  11.700   4.482 -0.3717  0.7242 -0.0873
  119MOL0     C15962  10.229  11.814   4.454 -0.3289  0.5437 -0.0163
  119MOL0     C15963  10.272  11.935   4.510 -0.0458  0.0037 -0.2668
  119MOL0     C15964  10.385  11.945   4.593 -0.4064  0.1417  0.9529
  119MOL0     O15965  10.424  12.056   4.648 -0.0332 -0.8361  0.4226
  119MOL0     C15966  10.334  12.166   4.689  0.3621  0.2930  0.2132
  119MOL0     C15967  10.251  12.124   4.808  0.3400  0.0184  0.0981
  119MOL0     C15968  10.186  12.239   4.886  0.0354 -0.9142  0.3660
  119MOL0     C15969  10.123  12.191   5.013  0.7645  0.6281 -0.2948
  119MOL0     C15970  10.110  12.308   5.110  0.5450 -0.4589  1.4613
  119MOL0     C15971  10.241  12.374   5.158 -0.0374 -0.4235  0.0328
  119MOL0     C15972  10.217  12.478   5.263  0.1614 -0.6955  0.0910
  119MOL0     C15973  10.309  12.457   5.383  0.1822 -0.6634 -0.0678
  119MOL0    Cl15974  10.299  12.312   5.480  0.0125  0.0250  0.1888
  119MOL0     C15975  10.474  11.831   4.607 -0.2441 -0.4104  0.2651
  119MOL0     C15976  10.430  11.715   4.555  0.5958 -0.7846  0.6903
  119MOL0     O15977  10.472  11.519   4.340 -0.7287  0.7315  0.1502
  119MOL0     C15978  10.369  11.233   4.334 -0.3150 -1.0870  0.3505
  119MOL0     C15979  10.297  11.117   4.297 -0.2080 -0.1731 -0.1031
  119MOL0     N15980   9.667  10.869   4.318 -0.6429 -0.3025  0.4626
  119MOL0     N15981   9.629  10.959   4.399  0.2226 -0.2806 -0.6016
  119MOL0     C15982  10.415  11.775   5.079  0.3847 -0.6417 -0.2252
  119MOL0     C15983  10.517  11.719   5.148 -1.0229  0.1017 -0.1488
  119MOL0     C15984  10.797  11.429   5.346  0.0935 -0.5996  0.6741
  119MOL0     C15985  10.769  11.520   5.454  0.3024 -0.4991 -0.4091
  119MOL0     C15986  10.836  11.503   5.572  0.6843  0.3347 -0.5019
  119MOL0     C15987  10.929  11.400   5.588 -0.8211  0.9934  0.6864
  119MOL0     O15988  11.005  11.415   5.700 -0.2255  0.0171 -0.4871
  119MOL0     C15989  11.056  11.292   5.757 -0.6672  1.3555 -1.1338
  119MOL0     C15990  11.214  11.285   5.730 -0.3818  1.1424  0.4194
  119MOL0     C15991  11.299  11.348   5.843 -1.2868 -0.0257  0.1222
  119MOL0     C15992  11.446  11.388   5.797  0.3076  0.8964 -0.4401
  119MOL0     C15993  11.519  11.267   5.762 -0.0794 -0.4524 -0.1489
  119MOL0     C15994  11.577  11.165   5.724 -0.6854 -0.3082  0.0760
  119MOL0     C15995  10.953  11.311   5.487  0.3472 -0.0998 -0.3700
  119MOL0     C15996  10.887  11.327   5.370  0.5171  0.3422  0.4822
  119MOL0     C15997  10.930  11.235   5.266  0.5427 -0.1192  0.1807
  119MOL0     H15998  10.634  11.491   4.935 -0.7356 -2.7177  5.0797
  119MOL0     H15999  10.456  11.579   4.805  1.2365 -1.0375 -0.3335
  119MOL0     H16000  10.203  11.587   4.772 -0.8603 -1.0850  0.9053
  119MOL0     H16001  10.132  11.624   4.935 -1.3083  0.6456 -0.3672
  119MOL0     H16002  10.081  11.823   4.714  2.1143 -2.6655 -2.7840
  119MOL0     H16003   9.971  11.755   4.846  2.4425  0.9529  3.0758
  119MOL0     H16004  10.040  11.592   4.597  0.5635 -2.8148  1.3397
  119MOL0     H16005   9.890  11.690   4.617 -0.5721  2.9824  2.3412
  119MOL0     H16006   9.961  11.462   4.814 -2.0508 -0.4086  1.6682
  119MOL0     H16007   9.803  11.535   4.781 -1.1646 -1.4850 -1.4603
  119MOL0     H16008   9.832  11.446   4.540 -0.1750  3.4386  1.5171
  119MOL0     H16009   9.989  11.381   4.589 -1.6388  1.5383 -2.7095
  119MOL0     H16010   9.868  11.241   4.763 -1.1377 -2.7768  0.7390
  119MOL0     H16011   9.719  11.305   4.696 -0.6733 -2.6283 -0.0924
  119MOL0     H16012   9.940  11.129   4.561  1.5908  1.1283  2.7937
  119MOL0     H16013   9.816  11.219   4.465  2.2317  0.6018 -0.2473
  119MOL0     H16014   9.741  11.038   4.696 -0.2730  2.4254  0.1746
  119MOL0     H16015   9.633  11.134   4.596 -1.1024  0.0264 -2.2321
  119MOL0     H16016   9.921  10.881   4.525  0.3655 -1.5612  0.6793
  119MOL0     H16017   9.861  10.612   4.351  3.0800 -1.1610 -1.0345
  119MOL0     H16018   9.750  10.663   4.219 -1.8426 -1.6599  2.7290
  119MOL0     H16019  10.035  10.761   4.289 -0.2337 -1.2289  0.2155
  119MOL0     H16020  10.005  10.641   4.180 -0.8496 -1.3740  1.5431
  119MOL0     H16021   9.837  10.858   4.079 -0.8322  0.8787  2.1085
  119MOL0     H16022  10.014  10.844   4.033 -0.3337  1.2262  0.3241
  119MOL0     H16023   9.918  11.016   4.267 -2.3573 -2.0312  0.2616
  119MOL0     H16024   9.950  11.061   4.102  0.2784  1.3252  1.7227
  119MOL0     H16025   9.988  11.254   4.219  0.3258 -1.7689 -2.0323
  119MOL0     H16026  10.092  11.444   4.303 -0.9954 -0.8801 -1.2574
  119MOL0     H16027  10.138  11.815   4.395  0.4300  0.8424 -1.2047
  119MOL0     H16028  10.220  12.028   4.489 -0.2812  0.1290  0.8058
  119MOL0     H16029  10.397  12.253   4.711  1.1605  0.6166 -2.8799
  119MOL0     H16030  10.270  12.215   4.615  1.3054  2.1365  0.5451
  119MOL0     H16031  10.176  12.051   4.777  0.6603  1.1121 -3.7094
  119MOL0     H16032  10.323  12.083   4.880  0.6088  2.4846  1.3192
  119MOL0     H16033  10.263  12.315   4.906 -0.2430  0.1926 -2.3887
  119MOL0     H16034  10.105  12.291   4.833  0.9089 -1.3263 -1.4562
  119MOL0     H16035  10.179  12.112   5.064  0.8612 -1.1286 -2.8957
  119MOL0     H16036  10.020  12.156   5.005  0.3734  1.3978  1.0857
  119MOL0     H16037  10.059  12.277   5.202 -2.0370  1.0885  0.6552
  119MOL0     H16038  10.043  12.378   5.061  1.4144 -0.7872 -0.2667
  119MOL0     H16039  10.321  12.302   5.177 -1.2067 -1.1061  2.9756
  119MOL0     H16040  10.275  12.433   5.072  0.5371  1.6130  1.5724
  119MOL0     H16041  10.117  12.469   5.306  0.2523 -0.6502  0.3183
  119MOL0     H16042  10.238  12.573   5.213 -1.0877 -1.5220 -2.1306
  119MOL0     H16043  10.408  12.453   5.337 -0.2904  0.2356 -1.1931
  119MOL0     H16044  10.299  12.552   5.438  0.2458  1.1833 -3.0326
  119MOL0     H16045  10.569  11.829   4.659  0.1119 -1.4483 -0.3912
  119MOL0     H16046  10.478  11.624   4.590 -0.7949 -1.0667  1.9461
  119MOL0     H16047  10.475  11.229   4.356 -0.4378  0.4927  1.4259
  119MOL0     H16048  10.364  11.031   4.286  2.4346  1.6803  0.4407
  119MOL0     H16049  10.359  11.852   5.130 -3.9597 -2.2997 -2.0019
  119MOL0     H16050  10.543  11.761   5.244 -0.8775 -0.0455 -0.1238
  119MOL0     H16051  10.701  11.604   5.446  1.3421  0.9213  3.5824
  119MOL0     H16052  10.820  11.573   5.654 -2.3073 -0.3340 -0.4309
  119MOL0     H16053  11.005  11.199   5.732  0.9438  0.1443 -0.1609
  119MOL0     H16054  11.040  11.290   5.865 -0.8723 -3.8550 -0.9821
  119MOL0     H16055  11.226  11.321   5.627 -3.3246  1.1060 -0.0004
  119MOL0     H16056  11.248  11.181   5.729 -0.4177  1.1272 -0.7317
  119MOL0     H16057  11.304  11.275   5.925 -1.4514  2.0224  2.0469
  119MOL0     H16058  11.251  11.436   5.887 -1.1202  0.3821 -0.5149
  119MOL0     H16059  11.443  11.448   5.706 -2.0722  1.5846  0.0323
  119MOL0     H16060  11.499  11.451   5.869  1.2115  1.1178 -1.2791
  119MOL0     H16061  11.629  11.073   5.704  0.2086 -0.1634  1.5362
  119MOL0     H16062  11.028  11.235   5.508  0.5729  0.1926 -0.1225
  119MOL0     H16063  10.842  11.185   5.225  0.0915  2.2297 -2.0129
  119MOL0     H16064  10.976  11.293   5.186 -0.4733 -1.3272 -1.3483
  119MOL0     H16065  11.004  11.164   5.303 -1.5538 -1.9509  1.1033
  120MOL0     O16066   3.681   5.466   7.327 -0.7786  0.3568 -0.5833
  120MOL0     C16067   3.703   5.422   7.213 -1.4365 -0.5824 -0.3032
  120MOL0     O16068   3.629   5.331   7.154 -0.0510  0.4731 -0.2853
  120MOL0     C16069   3.524   5.281   7.229  0.9702  0.0823 -0.2505
  120MOL0     C16070   3.537   5.196   7.341  0.6675  0.8501  0.5630
  120MOL0     C16071   3.417   5.161   7.420  0.1036 -0.5199  0.7243
  120MOL0     C16072   3.288   5.192   7.374 -0.1667  0.6340 -0.3380
  120MOL0     O16073   3.178   5.141   7.447 -0.7126 -0.3504 -0.7362
  120MOL0     C16074   3.059   5.217   7.431 -0.3454 -0.8512  0.0407
  120MOL0     C16075   2.959   5.181   7.553 -0.0133  0.6044  0.1802
  120MOL0     C16076   2.985   5.270   7.672  0.3360 -0.3400 -0.5818
  120MOL0     C16077   2.940   5.416   7.657 -0.5989 -0.0860  0.0419
  120MOL0     C16078   2.997   5.507   7.770  0.6870  0.2573  0.4120
  120MOL0     C16079   2.987   5.461   7.911 -0.0148 -0.3617 -1.1304
  120MOL0     C16080   3.057   5.557   8.009  0.8212  0.6004 -0.3812
  120MOL0     C16081   3.030   5.528   8.153  1.0610 -0.3057  0.4686
  120MOL0     N16082   3.080   5.398   8.201  0.2810  1.2536  0.3853
  120MOL0     C16083   3.023   5.269   8.172 -0.2909 -0.8905 -0.5718
  120MOL0     C16084   3.084   5.183   8.261  0.3670 -0.0122  0.3067
  120MOL0     C16085   3.068   5.028   8.281 -0.3945 -0.3839 -0.4452
  120MOL0     C16086   3.124   4.943   8.164  0.7052  0.0221  0.1691
  120MOL0     C16087   3.083   4.799   8.148 -0.0235  0.0356  0.0302
  120MOL0     C16088   3.158   4.699   8.247  0.7459 -0.3002  0.5707
  120MOL0     O16089   3.298   4.714   8.228 -0.2508  0.4182  0.0808
  120MOL0     C16090   3.394   4.773   8.317 -0.2140 -0.8604  0.3604
  120MOL0     C16091   3.510   4.836   8.265  0.2929  0.3539  0.4438
  120MOL0     C16092   3.613   4.886   8.346  0.5876  0.0874 -0.7570
  120MOL0     C16093   3.591   4.873   8.489  0.1402 -0.1260 -0.4574
  120MOL0     C16094   3.698   4.909   8.584  0.3629  1.0444 -0.5033
  120MOL0     O16095   3.715   4.847   8.706  0.2962 -0.9160 -0.2653
  120MOL0     C16096   3.790   4.918   8.795  0.2652 -0.1509 -0.9243
  120MOL0     C16097   3.737   4.953   8.921  0.9354  0.0288 -0.2312
  120MOL0     C16098   3.808   5.005   9.020  0.3171  1.0505 -0.9038
  120MOL0     C16099   3.942   5.026   9.008 -0.0274  0.3214 -0.7288
  120MOL0     O16100   4.024   5.074   9.112  0.6899 -0.4123 -0.0216
  120MOL0     C16101   3.968   5.081   9.249  0.1182  0.3151  0.0582
  120MOL0     C16102   4.089   5.076   9.349  0.9996  0.0553 -0.3917
  120MOL0     C16103   4.185   4.961   9.342  0.0127 -0.7685  0.4581
  120MOL0     C16104   4.109   4.828   9.372 -0.2987 -0.0254 -0.6471
  120MOL0     C16105   4.181   4.702   9.340 -0.2121  1.1305 -0.8024
  120MOL0     C16106   4.112   4.590   9.411  0.2341 -0.9499  0.6664
  120MOL0     C16107   4.194   4.462   9.409  0.1513  0.7612  0.1525
  120MOL0     C16108   4.325   4.474   9.471 -0.2196 -1.0090  0.0367
  120MOL0    Cl16109   4.411   4.320   9.512  0.0741  0.2332  0.2746
  120MOL0     C16110   4.003   4.988   8.889  0.4448  0.0112 -1.3546
  120MOL0     C16111   3.926   4.929   8.788  0.4633 -0.1372  0.6702
  120MOL0     O16112   3.776   4.990   8.543  0.3763 -0.0507  1.1342
  120MOL0     C16113   3.472   4.804   8.542  0.0814  1.1521  0.8550
  120MOL0     C16114   3.380   4.749   8.456  0.3880  0.9363 -0.6323
  120MOL0     N16115   3.168   5.259   8.343  0.1082  0.8217  0.5096
  120MOL0     N16116   3.162   5.378   8.306 -0.0520 -1.8093  0.0262
  120MOL0     C16117   3.279   5.267   7.260  0.3249 -0.7423  1.2239
  120MOL0     C16118   3.393   5.310   7.194  0.3230  0.4168 -0.5044
  120MOL0     C16119   3.820   5.463   7.118  0.4507  0.4037 -0.3372
  120MOL0     C16120   3.828   5.418   6.987  1.6403  0.5669 -0.4683
  120MOL0     C16121   3.930   5.460   6.899 -0.2058  1.0704 -0.6875
  120MOL0     C16122   4.027   5.551   6.946  0.1900 -0.7643  0.2917
  120MOL0     O16123   4.136   5.598   6.875  0.5596  0.8837 -0.0033
  120MOL0     C16124   4.171   5.552   6.748 -0.0098  1.1702 -0.0334
  120MOL0     C16125   4.244   5.415   6.757  0.5548  0.0993 -0.6433
  120MOL0     C16126   4.395   5.440   6.756 -0.1325 -1.0801  0.2554
  120MOL0     C16127   4.453   5.451   6.619  0.1124 -0.4340 -0.5936
  120MOL0     C16128   4.462   5.322   6.554 -0.2735 -0.1952 -0.1559
  120MOL0     C16129   4.449   5.210   6.518 -0.4840  0.0308 -0.2008
  120MOL0     C16130   4.019   5.600   7.074  0.4269  0.7948 -0.8489
  120MOL0     C16131   3.916   5.556   7.164  0.1591 -0.1735 -0.0114
  120MOL0     C16132   3.929   5.609   7.308  0.4074  0.8380  0.2117
  120MOL0     H16133   3.634   5.159   7.371 -0.6740 -3.3638  0.3101
  120MOL0     H16134   3.433   5.125   7.522  1.5510  2.0483  1.4877
  120MOL0     H16135   3.085   5.323   7.430  0.0668 -0.8706  2.4513
  120MOL0     H16136   3.025   5.184   7.333  1.6114 -1.4291 -0.4960
  120MOL0     H16137   2.975   5.073   7.562 -0.2980  0.4011 -1.4328
  120MOL0     H16138   2.856   5.192   7.518 -0.0238  0.2265  0.0876
  120MOL0     H16139   3.092   5.256   7.692 -0.4501 -6.3658  1.3628
  120MOL0     H16140   2.934   5.236   7.762  1.5250 -0.5217  0.0422
  120MOL0     H16141   2.974   5.447   7.558 -0.9962  2.1138  0.5302
  120MOL0     H16142   2.831   5.408   7.652 -0.6121 -0.1331  0.3776
  120MOL0     H16143   3.104   5.515   7.746  0.3561 -1.7491 -2.2670
  120MOL0     H16144   2.945   5.601   7.751 -0.3013 -0.5706 -1.2765
  120MOL0     H16145   2.879   5.456   7.932  0.0298  1.1012 -0.4133
  120MOL0     H16146   3.026   5.359   7.921  0.5288 -0.3797 -3.0513
  120MOL0     H16147   3.012   5.653   7.983  0.9845  0.2409 -2.0790
  120MOL0     H16148   3.162   5.557   7.979 -0.1862 -0.5168 -4.4653
  120MOL0     H16149   3.090   5.607   8.199  1.1163 -0.5775  0.8676
  120MOL0     H16150   2.924   5.541   8.176  0.4586 -0.5781 -1.8906
  120MOL0     H16151   2.949   5.246   8.097 -2.7206  1.6012  0.8995
  120MOL0     H16152   3.134   5.002   8.365 -0.0191 -2.7689 -1.4015
  120MOL0     H16153   2.966   4.993   8.302 -0.1500 -0.8083  0.0573
  120MOL0     H16154   3.088   4.993   8.074 -0.2992  1.6900  1.4455
  120MOL0     H16155   3.233   4.945   8.177  0.6264 -1.7786  1.3617
  120MOL0     H16156   3.115   4.772   8.047  5.1492 -0.5015  1.5221
  120MOL0     H16157   2.974   4.793   8.156 -0.0055  1.5624  3.9696
  120MOL0     H16158   3.132   4.595   8.228  0.5534 -0.1962  0.2386
  120MOL0     H16159   3.133   4.731   8.348  1.6994 -0.8845  1.0125
  120MOL0     H16160   3.517   4.852   8.157 -2.1801 -2.1075 -0.1855
  120MOL0     H16161   3.704   4.930   8.304 -0.6599  0.3396 -3.4069
  120MOL0     H16162   3.633   4.925   8.929  0.6073  0.5128 -2.2927
  120MOL0     H16163   3.751   5.018   9.112  1.0920 -0.1292 -0.2305
  120MOL0     H16164   3.917   5.177   9.265  1.6994  0.8860  2.1874
  120MOL0     H16165   3.894   5.003   9.269  0.9711 -1.4808 -3.1645
  120MOL0     H16166   4.145   5.170   9.342  0.6915  0.2369 -0.4141
  120MOL0     H16167   4.033   5.075   9.443  3.5706  2.3161  1.3074
  120MOL0     H16168   4.226   4.937   9.243  0.0885 -0.8087  0.4987
  120MOL0     H16169   4.268   4.979   9.411 -0.6892  1.7364  0.7177
  120MOL0     H16170   4.011   4.835   9.325  0.4204  2.2104 -1.9415
  120MOL0     H16171   4.096   4.840   9.480  2.4490  1.1650 -0.3636
  120MOL0     H16172   4.285   4.720   9.370 -0.9659  1.8603  1.6612
  120MOL0     H16173   4.182   4.672   9.235  1.2844 -0.7847 -0.3112
  120MOL0     H16174   4.109   4.621   9.516 -0.5323  0.3860  0.2794
  120MOL0     H16175   4.008   4.587   9.376 -0.3854  1.0119  2.1333
  120MOL0     H16176   4.209   4.423   9.308 -0.8571 -1.8364  0.9344
  120MOL0     H16177   4.134   4.387   9.461 -0.7244  0.6163 -1.0427
  120MOL0     H16178   4.382   4.524   9.392  0.3323  2.7491  2.5505
  120MOL0     H16179   4.324   4.545   9.555 -3.4212 -1.2625  0.3236
  120MOL0     H16180   4.111   4.998   8.877  0.4640  1.1840 -0.4108
  120MOL0     H16181   3.971   4.886   8.699 -0.7857 -0.8552  0.3678
  120MOL0     H16182   3.466   4.791   8.649  2.3291 -1.4209  0.7872
  120MOL0     H16183   3.302   4.686   8.497  1.1417  0.3289 -0.1071
  120MOL0     H16184   3.187   5.282   7.205  0.1598 -0.2762  1.6222
  120MOL0     H16185   3.373   5.363   7.102  1.1484  0.9697 -0.3825
  120MOL0     H16186   3.740   5.368   6.948 -0.1558  2.5456  0.8486
  120MOL0     H16187   3.917   5.437   6.794  0.9892  1.9117 -1.0423
  120MOL0     H16188   4.216   5.637   6.695 -0.1120  1.8352  0.9120
  120MOL0     H16189   4.082   5.533   6.686  0.8858 -2.7174 -0.3472
  120MOL0     H16190   4.221   5.356   6.668 -1.0438 -1.3012  0.6258
  120MOL0     H16191   4.208   5.356   6.842  0.4675  0.3255 -0.5233
  120MOL0     H16192   4.438   5.349   6.798 -0.2115 -2.5703 -2.6171
  120MOL0     H16193   4.421   5.531   6.810 -0.2956  0.2866 -1.8572
  120MOL0     H16194   4.408   5.528   6.555 -0.9840  1.3484  2.1480
  120MOL0     H16195   4.557   5.482   6.632  1.0886 -1.0656 -5.1212
  120MOL0     H16196   4.446   5.106   6.492  2.0182 -0.5792  1.5711
  120MOL0     H16197   4.096   5.668   7.110  1.7376 -0.7942 -0.5525
  120MOL0     H16198   4.016   5.674   7.324 -0.0745  1.1165  1.9035
  120MOL0     H16199   3.839   5.666   7.334 -0.4776  0.2514 -1.4245
  120MOL0     H16200   3.946   5.520   7.369 -0.0392 -0.8593 -2.0232
  121MOL0     O16201   1.772   2.352   2.511  0.6581 -0.1416  0.1636
  121MOL0     C16202   1.773   2.286   2.407  0.2706 -0.1752  0.2509
  121MOL0     O16203   1.868   2.286   2.318  0.4773  0.6187 -0.4847
  121MOL0     C16204   1.975   2.367   2.327  0.1626  0.2195  0.2263
  121MOL0     C16205   2.099   2.313   2.332  0.1188 -0.4247 -0.5902
  121MOL0     C16206   2.197   2.409   2.301  0.3089 -0.1769  0.8507
  121MOL0     C16207   2.172   2.551   2.297  0.1527  0.7914  0.5665
  121MOL0     O16208   2.265   2.644   2.261 -0.2439  0.2881 -0.8230
  121MOL0     C16209   2.396   2.608   2.307  0.0965 -0.6248 -0.8125
  121MOL0     C16210   2.478   2.730   2.339 -0.2959 -1.0208  0.1375
  121MOL0     C16211   2.627   2.698   2.338  0.4761  0.1227  0.3131
  121MOL0     C16212   2.711   2.816   2.393  0.7323 -0.0256  0.5836
  121MOL0     C16213   2.853   2.776   2.433 -0.4079 -0.9519 -0.6587
  121MOL0     C16214   2.950   2.892   2.434  0.5522  0.2675  0.6111
  121MOL0     C16215   3.088   2.874   2.503  0.8336 -0.0913  0.6304
  121MOL0     C16216   3.155   2.756   2.448 -0.7540  0.1497 -0.1016
  121MOL0     N16217   3.277   2.709   2.516 -0.4766 -0.3793 -0.1723
  121MOL0     C16218   3.314   2.579   2.537  0.4848  0.2844  0.1333
  121MOL0     C16219   3.435   2.586   2.602  0.7511  0.6705 -1.1239
  121MOL0     C16220   3.531   2.478   2.668  0.4341 -0.0673 -0.0094
  121MOL0     C16221   3.449   2.374   2.755  0.3465  0.0340  0.0078
  121MOL0     C16222   3.529   2.247   2.781 -0.3396  0.3640 -0.1979
  121MOL0     C16223   3.668   2.260   2.852  0.2564  0.1382  0.2252
  121MOL0     O16224   3.764   2.313   2.758  0.0400  0.0190  1.0958
  121MOL0     C16225   3.900   2.326   2.784  0.3799 -0.4444 -0.4904
  121MOL0     C16226   3.971   2.246   2.877  1.1315 -0.8165 -0.0923
  121MOL0     C16227   4.111   2.255   2.889  0.2475 -0.3622 -0.7325
  121MOL0     C16228   4.173   2.360   2.820 -0.4771  0.2812  0.4480
  121MOL0     C16229   4.324   2.368   2.818 -0.4232  1.3760 -0.0114
  121MOL0     O16230   4.384   2.476   2.767  0.6247  0.4021  0.4557
  121MOL0     C16231   4.525   2.475   2.771  0.8992 -0.3935  0.9652
  121MOL0     C16232   4.590   2.553   2.875 -0.6194 -0.8690  0.2454
  121MOL0     C16233   4.726   2.532   2.890 -0.3474  1.0168  0.5538
  121MOL0     C16234   4.805   2.457   2.797  1.0231 -0.3968 -0.7393
  121MOL0     O16235   4.939   2.451   2.806  0.4821  0.0589 -1.2066
  121MOL0     C16236   5.009   2.447   2.937 -0.5121 -0.3153  0.1923
  121MOL0     C16237   5.158   2.496   2.899  0.0234  0.9671  0.6752
  121MOL0     C16238   5.180   2.640   2.867 -0.3849 -0.7610 -1.2025
  121MOL0     C16239   5.203   2.672   2.721  0.2393  1.0332  0.2599
  121MOL0     C16240   5.200   2.823   2.681  0.0180 -0.5997  0.2579
  121MOL0     C16241   5.258   2.852   2.543  0.5177 -0.7641  0.6548
  121MOL0     C16242   5.176   2.784   2.430  0.6638 -0.7863  0.3634
  121MOL0     C16243   5.205   2.864   2.298  0.3570 -0.4065 -0.0058
  121MOL0    Cl16244   5.375   2.877   2.256  0.2564  0.8285  0.4412
  121MOL0     C16245   4.744   2.390   2.703  0.3052 -0.1262  0.5814
  121MOL0     C16246   4.600   2.391   2.678 -0.3182 -1.3394 -0.0409
  121MOL0     O16247   4.384   2.262   2.849  0.0644 -0.5505  0.1504
  121MOL0     C16248   4.094   2.454   2.738 -0.9348  0.4608 -0.2453
  121MOL0     C16249   3.956   2.432   2.721  0.4009  0.8044  0.7079
  121MOL0     N16250   3.475   2.720   2.615  0.0148  0.8931  0.3495
  121MOL0     N16251   3.384   2.790   2.552 -0.2751 -0.6715  0.2476
  121MOL0     C16252   2.043   2.600   2.309 -0.3969  0.1908  0.2367
  121MOL0     C16253   1.942   2.502   2.320 -0.9952  0.2202  0.4033
  121MOL0     C16254   1.648   2.210   2.384 -0.1636  0.0994  0.8667
  121MOL0     C16255   1.572   2.189   2.497 -0.1763  0.1773 -0.7939
  121MOL0     C16256   1.441   2.137   2.478 -0.1686  0.2116  0.2548
  121MOL0     C16257   1.403   2.075   2.358 -0.5642 -0.4710  0.6374
  121MOL0     O16258   1.288   2.006   2.336 -0.5762  0.5867 -1.0102
  121MOL0     C16259   1.185   2.027   2.434 -0.0164 -0.8975 -0.1557
  121MOL0     C16260   1.049   1.969   2.402  0.4337 -0.3133  0.8388
  121MOL0     C16261   0.986   2.038   2.283  1.1210  0.8046 -0.3873
  121MOL0     C16262   0.861   2.124   2.324 -0.0397 -0.5697 -0.9877
  121MOL0     C16263   0.755   2.045   2.366  0.2145  0.2390  0.3584
  121MOL0     C16264   0.665   1.966   2.413  0.5419 -0.7977 -1.1535
  121MOL0     C16265   1.490   2.081   2.246 -0.2400  0.3682 -0.5546
  121MOL0     C16266   1.611   2.156   2.260  0.6915 -0.0207  0.7198
  121MOL0     C16267   1.691   2.155   2.135  0.4984  0.1571  1.3196
  121MOL0     H16268   2.136   2.211   2.330  1.9523  0.1078  1.5593
  121MOL0     H16269   2.295   2.366   2.285  0.2560 -0.4061  1.1202
  121MOL0     H16270   2.391   2.548   2.398  1.1445  1.4418  0.6991
  121MOL0     H16271   2.444   2.568   2.217  2.4063  1.2699 -0.5076
  121MOL0     H16272   2.453   2.765   2.440  0.4065 -1.5576  0.5052
  121MOL0     H16273   2.460   2.812   2.269  0.5429 -1.4396 -0.5960
  121MOL0     H16274   2.659   2.683   2.234 -0.8749 -0.1137 -0.0796
  121MOL0     H16275   2.657   2.611   2.397 -1.7951 -1.8237 -1.2203
  121MOL0     H16276   2.714   2.891   2.313  2.4084  0.3654  0.9751
  121MOL0     H16277   2.667   2.865   2.481  1.0048 -1.1920  1.3825
  121MOL0     H16278   2.859   2.717   2.525 -0.4136 -1.2953 -0.8795
  121MOL0     H16279   2.886   2.710   2.352  0.1669  0.0690 -1.2785
  121MOL0     H16280   2.966   2.922   2.330 -0.9357  0.3706  0.3919
  121MOL0     H16281   2.900   2.975   2.484 -2.6949 -1.6433  0.8171
  121MOL0     H16282   3.088   2.859   2.611  0.3342 -0.3711  0.5898
  121MOL0     H16283   3.162   2.954   2.492  0.9571 -0.0039  1.9019
  121MOL0     H16284   3.084   2.673   2.434 -0.5583  0.2123 -1.7207
  121MOL0     H16285   3.176   2.786   2.345  0.7248  4.2197  1.2000
  121MOL0     H16286   3.271   2.482   2.515  1.0285  0.0398  0.1249
  121MOL0     H16287   3.578   2.430   2.581  1.8299  0.8554  0.1986
  121MOL0     H16288   3.608   2.529   2.727 -0.8711  2.7166 -0.5276
  121MOL0     H16289   3.420   2.426   2.846 -1.8050 -0.0994 -0.5425
  121MOL0     H16290   3.355   2.345   2.706  0.2979 -1.3143  0.8574
  121MOL0     H16291   3.545   2.195   2.686 -0.8297 -0.5837  0.2248
  121MOL0     H16292   3.470   2.175   2.839 -0.3461  1.1880  0.8514
  121MOL0     H16293   3.690   2.156   2.879  1.8631 -0.1978 -2.1542
  121MOL0     H16294   3.651   2.326   2.938  0.3736 -2.0262  1.9920
  121MOL0     H16295   3.920   2.158   2.916 -0.6300 -0.5237 -1.5945
  121MOL0     H16296   4.170   2.186   2.950 -0.6915 -0.9402 -0.4664
  121MOL0     H16297   4.541   2.624   2.941  0.1254  0.5750 -0.6975
  121MOL0     H16298   4.777   2.587   2.968 -1.5057  2.3637  0.4026
  121MOL0     H16299   4.969   2.498   3.025  1.0957 -0.1952  0.9011
  121MOL0     H16300   5.018   2.340   2.957  1.3293 -0.5000 -1.3162
  121MOL0     H16301   5.228   2.477   2.980  1.2686  1.8502 -0.1474
  121MOL0     H16302   5.197   2.445   2.810 -0.0347  4.1373 -1.3326
  121MOL0     H16303   5.091   2.693   2.901  1.4899  1.6033  0.3945
  121MOL0     H16304   5.264   2.676   2.928 -2.7394 -2.0762  3.2379
  121MOL0     H16305   5.124   2.623   2.662 -0.2181  0.6011  1.2000
  121MOL0     H16306   5.289   2.620   2.680 -1.0457  0.0825 -1.3467
  121MOL0     H16307   5.262   2.873   2.756  0.5217 -0.5467 -0.1877
  121MOL0     H16308   5.100   2.866   2.676  1.2104  2.5839  1.0675
  121MOL0     H16309   5.243   2.957   2.515  1.8077 -0.9174 -0.6832
  121MOL0     H16310   5.361   2.818   2.537 -0.4078 -3.7693 -0.2222
  121MOL0     H16311   5.071   2.790   2.459  0.5579 -2.9599  0.5971
  121MOL0     H16312   5.198   2.677   2.422 -2.0488 -1.2367 -2.6314
  121MOL0     H16313   5.152   2.822   2.212  0.7699 -1.0081  0.0241
  121MOL0     H16314   5.152   2.958   2.308 -2.2392 -1.6747 -0.9354
  121MOL0     H16315   4.797   2.355   2.615 -1.7152  1.1180 -1.2346
  121MOL0     H16316   4.557   2.341   2.592 -1.6354 -1.4364  0.6571
  121MOL0     H16317   4.156   2.531   2.694 -0.0923  0.6959  1.2601
  121MOL0     H16318   3.910   2.510   2.660  2.3023  2.1068  0.8186
  121MOL0     H16319   2.032   2.707   2.298 -2.3876 -0.0062 -0.0597
  121MOL0     H16320   1.839   2.535   2.310 -1.0868 -0.1280  0.1917
  121MOL0     H16321   1.604   2.210   2.599 -2.8547 -0.3049  0.2311
  121MOL0     H16322   1.377   2.136   2.566 -2.6806  1.4267 -1.4301
  121MOL0     H16323   1.168   2.131   2.460  1.2470 -0.8396  0.5269
  121MOL0     H16324   1.220   1.981   2.527 -2.4773 -0.8252  0.8908
  121MOL0     H16325   0.990   1.972   2.494 -0.8955 -2.6042  0.1330
  121MOL0     H16326   1.055   1.865   2.371 -1.0252  0.6914 -3.4580
  121MOL0     H16327   0.941   1.970   2.210 -0.7629  0.4925  0.9744
  121MOL0     H16328   1.056   2.105   2.232  0.3321 -0.6772 -3.6422
  121MOL0     H16329   0.887   2.190   2.408  2.4696  1.7128 -3.3334
  121MOL0     H16330   0.828   2.176   2.234 -0.0473 -0.9916 -1.2327
  121MOL0     H16331   0.595   1.901   2.462 -1.1596  1.9453  0.3146
  121MOL0     H16332   1.455   2.037   2.153 -0.3048 -0.5180 -0.1200
  121MOL0     H16333   1.775   2.085   2.135 -0.7428 -1.4168  0.5324
  121MOL0     H16334   1.626   2.128   2.051 -0.4675 -0.2807  2.1804
  121MOL0     H16335   1.727   2.256   2.115  1.3999 -0.3716  0.0958
  122MOL0     O16336   0.444  10.869   0.285  0.0021  0.0404  0.2056
  122MOL0     C16337   0.395  10.819   0.183  0.2940 -0.1816  0.3381
  122MOL0     O16338   0.263  10.766   0.170  0.1443  0.3916 -0.0880
  122MOL0     C16339   0.202  10.743   0.293  0.2244  0.6400 -0.1124
  122MOL0     C16340   0.147  10.620   0.329  0.5339 -0.1673 -0.8653
  122MOL0     C16341   0.070  10.600   0.450 -0.5376  0.1405  0.4815
  122MOL0     C16342   0.043  10.707   0.536 -0.6352 -0.0659  0.8158
  122MOL0     O16343  -0.035  10.713   0.648 -0.1694 -1.3791  1.1268
  122MOL0     C16344  -0.149  10.624   0.655 -0.1047  0.8317 -0.5824
  122MOL0     C16345  -0.275  10.703   0.609 -0.0229 -0.1960 -0.1385
  122MOL0     C16346  -0.402  10.613   0.624 -0.8087  0.2629  0.2389
  122MOL0     C16347  -0.441  10.594   0.766  1.2673 -0.4209 -1.2894
  122MOL0     C16348  -0.537  10.478   0.782  0.9523 -0.4924  0.2298
  122MOL0     C16349  -0.583  10.479   0.929  0.0819 -0.9079  0.1422
  122MOL0     C16350  -0.698  10.380   0.955  0.1597 -0.7625 -0.1541
  122MOL0     C16351  -0.784  10.404   1.083  0.4268 -0.4687  0.0107
  122MOL0     N16352  -0.915  10.334   1.070  0.0498  0.2281  0.5037
  122MOL0     C16353  -0.947  10.205   1.062 -0.3887 -0.3669  0.1941
  122MOL0     C16354  -1.084  10.194   1.072 -0.3278 -0.5825  0.0142
  122MOL0     C16355  -1.147  10.063   1.087  0.3789  0.5060  0.6500
  122MOL0     C16356  -1.133   9.967   0.967 -1.0221 -0.6838  0.4155
  122MOL0     C16357  -1.141   9.820   0.992 -0.1523  0.5434 -0.5440
  122MOL0     C16358  -1.291   9.787   0.976  0.3107 -0.5699 -0.5304
  122MOL0     O16359  -1.320   9.652   1.018 -1.0161  0.1168 -0.4658
  122MOL0     C16360  -1.440   9.636   1.088  0.0764 -0.5442  0.3677
  122MOL0     C16361  -1.544   9.729   1.091  0.5378 -0.2090  0.0949
  122MOL0     C16362  -1.660   9.698   1.165 -0.0621 -0.5416 -0.0295
  122MOL0     C16363  -1.668   9.581   1.236  0.4128  1.0926 -0.3503
  122MOL0     C16364  -1.795   9.560   1.320 -0.1696  0.3014 -0.5292
  122MOL0     O16365  -1.796   9.459   1.411 -0.4566  0.3528 -0.5466
  122MOL0     C16366  -1.911   9.425   1.490 -0.5445  0.4896 -0.2950
  122MOL0     C16367  -1.891   9.382   1.618 -0.0054  0.2409  0.3679
  122MOL0     C16368  -1.993   9.341   1.702 -0.2230  0.2461 -0.1574
  122MOL0     C16369  -2.128   9.366   1.660  0.3163  0.3110 -0.0674
  122MOL0     O16370  -2.248   9.343   1.731  0.1575 -0.7587  0.0784
  122MOL0     C16371  -2.265   9.447   1.824 -0.3071 -0.3058  0.2409
  122MOL0     C16372  -2.228   9.384   1.955  0.1820 -0.6595 -0.3862
  122MOL0     C16373  -2.302   9.472   2.064 -0.3761  0.2027  0.0042
  122MOL0     C16374  -2.295   9.386   2.196 -0.0549  0.1243  0.0038
  122MOL0     C16375  -2.372   9.455   2.318 -0.1744  0.2720 -0.6261
  122MOL0     C16376  -2.352   9.382   2.445 -0.3729 -0.2211 -0.0540
  122MOL0     C16377  -2.444   9.446   2.554  0.4482  0.2905 -0.7416
  122MOL0     C16378  -2.379   9.447   2.689 -0.0271 -0.1433 -0.2400
  122MOL0    Cl16379  -2.241   9.568   2.705 -0.3225  0.1679 -0.1122
  122MOL0     C16380  -2.154   9.421   1.536 -0.8089 -0.1858  0.5175
  122MOL0     C16381  -2.043   9.442   1.445  0.5219 -0.6610 -0.5203
  122MOL0     O16382  -1.888   9.642   1.299  0.1452 -0.5186  0.2595
  122MOL0     C16383  -1.566   9.500   1.241 -0.2846 -0.6014  0.4553
  122MOL0     C16384  -1.447   9.527   1.167  0.0538  0.3636  1.1275
  122MOL0     N16385  -1.128  10.324   1.091  0.2254  0.3785  0.4807
  122MOL0     N16386  -1.026  10.405   1.090 -0.0023 -1.1806  0.3571
  122MOL0     C16387   0.083  10.837   0.489 -0.3828 -0.5497  0.2088
  122MOL0     C16388   0.161  10.853   0.369 -0.8318 -0.2429  0.2706
  122MOL0     C16389   0.464  10.844   0.060 -0.6932 -0.4786  0.3784
  122MOL0     C16390   0.408  10.914  -0.052  0.7786  0.2186  0.9095
  122MOL0     C16391   0.483  10.933  -0.172 -0.0149  0.5543 -0.1171
  122MOL0     C16392   0.616  10.883  -0.181 -0.0973 -0.1418  0.7977
  122MOL0     O16393   0.681  10.882  -0.298 -0.0304 -0.1950  0.8170
  122MOL0     C16394   0.805  10.959  -0.321 -0.2707  0.8212  0.5610
  122MOL0     C16395   0.902  10.860  -0.392 -0.6856  0.5896  0.4675
  122MOL0     C16396   0.967  10.764  -0.295  0.5579 -0.1608 -0.6714
  122MOL0     C16397   1.050  10.822  -0.181  0.4725 -0.3074 -0.4626
  122MOL0     C16398   1.156  10.908  -0.216  0.1937 -0.7720 -0.0398
  122MOL0     C16399   1.252  10.972  -0.265  0.4665  0.8197  0.3477
  122MOL0     C16400   0.670  10.824  -0.068 -0.6631 -0.4909  1.0469
  122MOL0     C16401   0.594  10.801   0.047 -0.4286 -0.2049 -1.0479
  122MOL0     C16402   0.669  10.723   0.159  0.1892 -0.3934  0.7301
  122MOL0     H16403   0.160  10.533   0.266 -1.8271 -0.3778 -1.1367
  122MOL0     H16404   0.026  10.502   0.469  1.2366 -1.0405 -1.0634
  122MOL0     H16405  -0.144  10.540   0.586 -0.0313 -1.2464  1.8247
  122MOL0     H16406  -0.163  10.579   0.754  1.1289  3.2355  0.7758
  122MOL0     H16407  -0.276  10.744   0.508 -1.1659  0.6134  0.1762
  122MOL0     H16408  -0.282  10.793   0.671  1.3694 -0.6245  0.6913
  122MOL0     H16409  -0.378  10.520   0.571  2.1452  0.9641  0.1813
  122MOL0     H16410  -0.490  10.654   0.574  0.0038 -0.4265 -1.8755
  122MOL0     H16411  -0.353  10.568   0.826 -1.2066 -3.2080  1.5185
  122MOL0     H16412  -0.498  10.684   0.791  0.2641  0.0583 -4.7124
  122MOL0     H16413  -0.625  10.487   0.719  0.9687 -0.6833  0.1793
  122MOL0     H16414  -0.481  10.391   0.747 -2.2869 -2.2330 -1.0387
  122MOL0     H16415  -0.495  10.440   0.982 -0.6053 -3.3385 -0.3712
  122MOL0     H16416  -0.605  10.581   0.960  4.1292  0.8275 -1.9658
  122MOL0     H16417  -0.664  10.276   0.957 -3.9427 -2.2697  2.7873
  122MOL0     H16418  -0.762  10.395   0.867  0.9302 -0.2147 -0.6393
  122MOL0     H16419  -0.747  10.370   1.181 -2.2301 -1.7086  0.6552
  122MOL0     H16420  -0.797  10.511   1.106 -0.9583 -0.2751 -1.5670
  122MOL0     H16421  -0.874  10.124   1.058  2.0259  1.6986  0.0832
  122MOL0     H16422  -1.117  10.017   1.182  0.5254  0.2429  0.4769
  122MOL0     H16423  -1.251  10.093   1.099  0.3567  0.1558  1.4198
  122MOL0     H16424  -1.191   9.989   0.877  1.4866 -2.1767 -1.7198
  122MOL0     H16425  -1.032   9.985   0.931 -1.2846  1.0680  0.4949
  122MOL0     H16426  -1.104   9.784   1.088  2.2230 -0.6377 -1.8346
  122MOL0     H16427  -1.088   9.760   0.918  0.2823 -3.4988  2.6726
  122MOL0     H16428  -1.315   9.809   0.871 -0.0831  2.1629  0.0364
  122MOL0     H16429  -1.345   9.858   1.039  2.0393 -2.0523  2.8575
  122MOL0     H16430  -1.543   9.817   1.028  1.8123  0.7731  1.4427
  122MOL0     H16431  -1.739   9.772   1.163 -0.4706 -0.9504  0.5022
  122MOL0     H16432  -1.787   9.374   1.646  0.1853 -3.0198 -0.9031
  122MOL0     H16433  -1.969   9.318   1.805 -1.9714 -0.6153  0.1052
  122MOL0     H16434  -2.214   9.540   1.798  1.7963 -1.6325 -0.6384
  122MOL0     H16435  -2.372   9.471   1.826 -0.5899 -1.4725  0.1523
  122MOL0     H16436  -2.266   9.282   1.965 -2.4174  0.1701 -1.2520
  122MOL0     H16437  -2.119   9.389   1.966  0.0843 -1.1403  1.0165
  122MOL0     H16438  -2.262   9.573   2.073 -2.5452  1.0169  1.4310
  122MOL0     H16439  -2.409   9.485   2.047 -0.6100 -3.0316 -1.8658
  122MOL0     H16440  -2.190   9.371   2.225 -1.3498 -1.4923  4.6439
  122MOL0     H16441  -2.357   9.298   2.177 -0.8070 -0.6791  4.9279
  122MOL0     H16442  -2.477   9.454   2.286 -0.3863 -1.5850  0.0030
  122MOL0     H16443  -2.338   9.557   2.338 -2.7671  1.3749 -1.4981
  122MOL0     H16444  -2.375   9.276   2.435  0.8559 -0.5464  0.3704
  122MOL0     H16445  -2.248   9.400   2.476  0.5515 -3.3169 -1.0139
  122MOL0     H16446  -2.540   9.397   2.572  1.8181 -2.1207  0.4353
  122MOL0     H16447  -2.470   9.550   2.531  2.2408 -0.0471 -5.7021
  122MOL0     H16448  -2.457   9.471   2.761 -1.3910 -1.3987 -1.2322
  122MOL0     H16449  -2.344   9.349   2.722  0.9376  1.8337  5.9188
  122MOL0     H16450  -2.256   9.437   1.501 -1.0260  0.3884  1.3913
  122MOL0     H16451  -2.051   9.465   1.339  1.1320  1.7995 -0.1136
  122MOL0     H16452  -1.571   9.428   1.322 -0.7278 -1.0236  0.0558
  122MOL0     H16453  -1.364   9.459   1.186 -0.7898 -1.0686 -0.1223
  122MOL0     H16454   0.054  10.930   0.538  0.0184  1.6852 -3.3768
  122MOL0     H16455   0.197  10.949   0.332 -0.6149 -0.3079  0.3134
  122MOL0     H16456   0.302  10.940  -0.053  0.4319 -0.8467 -2.6291
  122MOL0     H16457   0.437  10.975  -0.261  1.1893 -1.0532 -1.5528
  122MOL0     H16458   0.841  10.995  -0.224 -2.3387  2.7445  0.7041
  122MOL0     H16459   0.786  11.051  -0.376 -0.7926  0.8630  0.8008
  122MOL0     H16460   0.977  10.917  -0.448 -2.2186  0.5870 -1.7064
  122MOL0     H16461   0.840  10.816  -0.470 -0.7202  4.6006 -2.0326
  122MOL0     H16462   1.018  10.684  -0.350 -1.9882 -3.8493  1.8205
  122MOL0     H16463   0.889  10.701  -0.250  2.9404 -3.3269 -0.6189
  122MOL0     H16464   0.984  10.889  -0.124 -2.2793 -3.6612  0.6443
  122MOL0     H16465   1.093  10.740  -0.123 -0.5848 -0.9309 -0.5433
  122MOL0     H16466   1.318  11.021  -0.334  1.6056 -0.3041  0.5922
  122MOL0     H16467   0.768  10.778  -0.066 -0.6628 -0.5711 -0.2392
  122MOL0     H16468   0.604  10.689   0.240 -3.1254 -3.8875 -2.9309
  122MOL0     H16469   0.711  10.634   0.111  0.2439 -0.0828  0.1937
  122MOL0     H16470   0.739  10.797   0.198 -0.4456 -0.1021  1.3386
  123MOL0     O16471   3.205   9.479   1.326  0.1324  0.9642 -0.4184
  123MOL0     C16472   3.262   9.517   1.226  0.4309  0.4323 -0.0398
  123MOL0     O16473   3.204   9.603   1.135 -0.1854 -0.2650 -0.3453
  123MOL0     C16474   3.075   9.655   1.146 -0.5706 -0.2428 -0.2965
  123MOL0     C16475   3.048   9.786   1.101 -0.1177  0.8416  0.6388
  123MOL0     C16476   2.913   9.837   1.104 -0.4569  0.2666  1.1608
  123MOL0     C16477   2.806   9.756   1.161 -0.3962  1.3327  0.4257
  123MOL0     O16478   2.682   9.804   1.174  0.0849 -0.0298 -0.0679
  123MOL0     C16479   2.639   9.930   1.124 -0.6596 -0.2103 -0.2294
  123MOL0     C16480   2.497   9.955   1.179 -0.1357 -0.0245  0.4842
  123MOL0     C16481   2.516  10.029   1.314 -0.1608 -0.1069  0.7763
  123MOL0     C16482   2.379  10.036   1.376  0.6272 -0.8272 -0.2079
  123MOL0     C16483   2.357  10.155   1.467 -0.0579  0.2292 -0.4638
  123MOL0     C16484   2.352  10.283   1.390  0.5355 -0.8369  0.3482
  123MOL0     C16485   2.306  10.408   1.458  0.5339 -0.2032 -0.3891
  123MOL0     C16486   2.346  10.535   1.378 -0.2483  0.3738  0.3572
  123MOL0     N16487   2.263  10.560   1.265 -0.4236 -0.3547  0.7055
  123MOL0     C16488   2.157  10.649   1.264 -0.1439 -0.4883  0.7362
  123MOL0     C16489   2.094  10.642   1.148  0.5871 -0.2491 -1.5593
  123MOL0     C16490   1.971  10.725   1.094 -0.2947 -0.3455  0.9683
  123MOL0     C16491   2.025  10.841   1.009 -0.3829  0.1902  0.4413
  123MOL0     C16492   1.907  10.924   0.955  1.1072  0.2204  0.4056
  123MOL0     C16493   1.942  11.043   0.870 -0.4513  0.2608  0.6412
  123MOL0     O16494   1.991  11.001   0.747  1.1336  0.1298  0.3941
  123MOL0     C16495   2.071  11.091   0.680 -0.5992  0.0724 -0.3075
  123MOL0     C16496   2.176  11.026   0.615  0.5097 -0.4506  0.0276
  123MOL0     C16497   2.285  11.087   0.550  0.2889 -0.0372 -0.1792
  123MOL0     C16498   2.282  11.225   0.542 -1.0265  1.0675 -0.1100
  123MOL0     C16499   2.393  11.295   0.470 -0.2954  0.4464  0.1614
  123MOL0     O16500   2.410  11.421   0.515 -0.1151  0.1468  0.0960
  123MOL0     C16501   2.423  11.518   0.417 -0.0734  0.3020  0.4835
  123MOL0     C16502   2.310  11.586   0.372  0.3315 -0.5804  0.3536
  123MOL0     C16503   2.324  11.695   0.287  0.0902  0.0986  1.0380
  123MOL0     C16504   2.445  11.731   0.238  0.1958 -0.0259 -0.3003
  123MOL0     O16505   2.459  11.819   0.138  0.4437 -0.2348 -0.1587
  123MOL0     C16506   2.358  11.838   0.042 -0.3067  0.0280  0.3699
  123MOL0     C16507   2.430  11.908  -0.081  0.0081 -0.4910 -0.5834
  123MOL0     C16508   2.332  11.923  -0.196 -0.4680  0.4599  0.0514
  123MOL0     C16509   2.387  12.018  -0.299  0.3035 -0.0688  0.9094
  123MOL0     C16510   2.303  12.034  -0.423  0.6785  0.4499  1.4102
  123MOL0     C16511   2.358  12.110  -0.541 -0.0638 -1.2196 -1.1610
  123MOL0     C16512   2.328  12.258  -0.513 -0.8213 -0.7956  0.5206
  123MOL0     C16513   2.339  12.324  -0.645 -0.0080  0.1376  0.8203
  123MOL0    Cl16514   2.207  12.263  -0.762  0.1451  0.6586 -0.5812
  123MOL0     C16515   2.561  11.661   0.284  0.1193 -0.0172  0.3202
  123MOL0     C16516   2.549  11.564   0.381  1.1288 -0.5673  0.5620
  123MOL0     O16517   2.460  11.243   0.382 -0.3210 -0.0471  0.4254
  123MOL0     C16518   2.189  11.303   0.617  0.3109  0.3697 -0.1603
  123MOL0     C16519   2.082  11.233   0.692  0.0718 -0.6340  0.5895
  123MOL0     N16520   2.164  10.549   1.077  0.1531  0.1379  0.1009
  123MOL0     N16521   2.271  10.505   1.144 -0.7018  0.3692 -0.4939
  123MOL0     C16522   2.840   9.619   1.202 -0.0116 -0.5890  0.4082
  123MOL0     C16523   2.966   9.576   1.191 -0.3617  0.4344  0.1910
  123MOL0     C16524   3.412   9.512   1.232 -0.2048 -0.6264 -0.3198
  123MOL0     C16525   3.487   9.610   1.143  0.1809  0.3420 -0.6820
  123MOL0     C16526   3.628   9.599   1.137  0.5490 -0.7884  0.2063
  123MOL0     C16527   3.699   9.498   1.203  1.0928  0.1057 -1.3585
  123MOL0     O16528   3.840   9.494   1.202  0.4320 -0.5001  0.6728
  123MOL0     C16529   3.920   9.609   1.176  0.3153 -1.0157 -0.1854
  123MOL0     C16530   4.076   9.584   1.180 -0.9206  0.4685  0.1300
  123MOL0     C16531   4.142   9.577   1.322 -0.5436  0.2336  0.7962
  123MOL0     C16532   4.287   9.624   1.313 -0.2204  0.2242 -0.5925
  123MOL0     C16533   4.362   9.588   1.201 -0.5489  0.5092 -0.1233
  123MOL0     C16534   4.429   9.560   1.104 -0.3755 -0.1486  0.2752
  123MOL0     C16535   3.623   9.399   1.263  0.3169 -0.5984 -1.0543
  123MOL0     C16536   3.486   9.406   1.292 -0.6373  0.5750 -0.9348
  123MOL0     C16537   3.436   9.288   1.362 -0.1148  0.1931 -0.3188
  123MOL0     H16538   3.127   9.850   1.063  0.3207 -0.0537  0.0208
  123MOL0     H16539   2.891   9.935   1.065 -1.0681  0.3003  1.5817
  123MOL0     H16540   2.700  10.017   1.150  0.6034 -0.6869 -1.4604
  123MOL0     H16541   2.636   9.925   1.014  3.7893  0.6235 -0.5581
  123MOL0     H16542   2.442   9.863   1.199  1.2118 -0.3093  3.4254
  123MOL0     H16543   2.439  10.011   1.105 -0.0162 -1.0743 -0.4320
  123MOL0     H16544   2.541  10.131   1.282 -2.1943 -0.0946 -0.9115
  123MOL0     H16545   2.587   9.984   1.385  1.2156  3.4660  1.8868
  123MOL0     H16546   2.295  10.020   1.308 -0.2360 -0.7869  0.8164
  123MOL0     H16547   2.357   9.942   1.427 -1.1497  0.5642  1.7849
  123MOL0     H16548   2.274  10.151   1.539 -2.3344  0.0791 -2.9572
  123MOL0     H16549   2.449  10.155   1.527 -0.4442 -1.7638  0.2221
  123MOL0     H16550   2.455  10.298   1.355  0.3797 -3.1753 -1.2806
  123MOL0     H16551   2.288  10.273   1.302  2.1987 -0.6594 -0.9294
  123MOL0     H16552   2.345  10.406   1.560 -0.9394 -0.7374  0.2010
  123MOL0     H16553   2.197  10.403   1.462  0.5678 -1.3707 -0.4856
  123MOL0     H16554   2.360  10.621   1.445  2.7092 -0.8226  1.4425
  123MOL0     H16555   2.445  10.518   1.333 -0.4166  1.0774 -0.3112
  123MOL0     H16556   2.134  10.715   1.347  0.5066  1.9914 -0.9520
  123MOL0     H16557   1.903  10.662   1.038 -0.6139  1.3986 -0.7115
  123MOL0     H16558   1.905  10.766   1.172 -3.6009 -3.6080  0.1486
  123MOL0     H16559   2.095  10.891   1.076  0.4891 -0.4134  0.0021
  123MOL0     H16560   2.079  10.799   0.924 -0.4878 -1.9317  1.3500
  123MOL0     H16561   1.853  10.978   1.033  1.4373  1.4671 -0.2100
  123MOL0     H16562   1.837  10.864   0.896 -1.1385 -0.3210  3.4145
  123MOL0     H16563   2.021  11.099   0.921  0.2078 -1.7712  1.9721
  123MOL0     H16564   1.860  11.113   0.850  1.1995  2.7844  2.1407
  123MOL0     H16565   2.169  10.918   0.614 -0.2377 -0.5261  3.0804
  123MOL0     H16566   2.371  11.033   0.511  0.4791 -0.0117  0.1910
  123MOL0     H16567   2.211  11.560   0.408  1.2794 -1.4300  2.5620
  123MOL0     H16568   2.236  11.750   0.254 -0.2434 -3.1475 -5.0606
  123MOL0     H16569   2.315  11.740   0.022 -1.8202  0.8923 -0.8721
  123MOL0     H16570   2.282  11.908   0.080  0.2235  0.6954  0.2202
  123MOL0     H16571   2.461  12.009  -0.050 -2.4257 -0.6034  2.8336
  123MOL0     H16572   2.522  11.851  -0.094 -1.6242 -2.9869 -1.8263
  123MOL0     H16573   2.302  11.832  -0.249 -4.4910 -0.0489  2.7401
  123MOL0     H16574   2.243  11.972  -0.155 -0.3611 -0.2700  1.1855
  123MOL0     H16575   2.490  11.991  -0.323  0.6043  1.2072  0.6774
  123MOL0     H16576   2.397  12.121  -0.263  1.0375 -0.4706  1.9153
  123MOL0     H16577   2.210  12.074  -0.382  1.6885 -0.0223  4.4282
  123MOL0     H16578   2.278  11.935  -0.463  2.7916  1.0987 -1.9092
  123MOL0     H16579   2.462  12.077  -0.548 -0.0075 -0.7044 -3.8471
  123MOL0     H16580   2.302  12.077  -0.630 -0.0038  2.6658 -2.8495
  123MOL0     H16581   2.400  12.296  -0.440 -1.2803 -1.1919  1.1838
  123MOL0     H16582   2.226  12.264  -0.474 -1.3531 -2.5274 -0.4981
  123MOL0     H16583   2.325  12.431  -0.627 -0.6043  0.4563 -1.2239
  123MOL0     H16584   2.441  12.312  -0.681  0.0122 -0.7418  1.1302
  123MOL0     H16585   2.659  11.699   0.255 -0.7012  2.4029  0.4526
  123MOL0     H16586   2.637  11.518   0.423  0.6307 -1.1881  0.9481
  123MOL0     H16587   2.187  11.411   0.615  1.8425  0.4569  1.0519
  123MOL0     H16588   2.027  11.289   0.766 -0.3965  1.3675 -1.1864
  123MOL0     H16589   2.761   9.558   1.242 -0.9309  0.4997  0.3068
  123MOL0     H16590   2.983   9.476   1.229  1.4132  0.2979 -0.8707
  123MOL0     H16591   3.444   9.696   1.093 -0.0885  1.6701  1.6945
  123MOL0     H16592   3.689   9.672   1.086  0.2272  0.4364  1.5026
  123MOL0     H16593   3.905   9.683   1.255  0.2708 -1.6610  0.4146
  123MOL0     H16594   3.902   9.646   1.074 -0.0582  0.2340  0.3182
  123MOL0     H16595   4.126   9.653   1.112 -2.2124  1.8070  0.4714
  123MOL0     H16596   4.089   9.488   1.130  2.3690  0.8000  0.1550
  123MOL0     H16597   4.131   9.473   1.354 -2.7704  0.3057  0.4406
  123MOL0     H16598   4.090   9.649   1.385 -1.1515  1.1309 -0.6812
  123MOL0     H16599   4.285   9.734   1.316  3.7484  0.4955 -1.4881
  123MOL0     H16600   4.340   9.589   1.403  1.3953 -1.5344 -2.1477
  123MOL0     H16601   4.483   9.541   1.013  1.0341  0.7575  0.8766
  123MOL0     H16602   3.686   9.328   1.315 -2.6769 -2.6398  0.0114
  123MOL0     H16603   3.360   9.242   1.297 -0.2963  2.1404 -1.5490
  123MOL0     H16604   3.507   9.212   1.395 -0.2565  0.5911  0.9313
  123MOL0     H16605   3.403   9.323   1.460  1.7072 -0.9984  0.7687
  124MOL0     O16606   3.421   0.374   4.684  0.2541  0.8540 -0.3926
  124MOL0     C16607   3.450   0.496   4.701  0.3858 -0.0749  0.4583
  124MOL0     O16608   3.526   0.571   4.616  0.1560  0.7581  0.5289
  124MOL0     C16609   3.562   0.523   4.497 -0.5383 -0.1232  0.3835
  124MOL0     C16610   3.570   0.619   4.391 -0.8951 -0.7210 -0.5507
  124MOL0     C16611   3.636   0.590   4.270  0.5353  0.1539  0.5724
  124MOL0     C16612   3.695   0.460   4.246  1.1987  0.5177 -0.4525
  124MOL0     O16613   3.752   0.418   4.128  0.4290 -0.1968 -0.3614
  124MOL0     C16614   3.735   0.487   4.003  0.7770 -0.7344  0.1564
  124MOL0     C16615   3.701   0.393   3.876  0.5951 -0.6631  0.3681
  124MOL0     C16616   3.809   0.296   3.839  0.3370 -0.2254  0.4187
  124MOL0     C16617   3.950   0.353   3.825 -0.9315  0.0546  1.2560
  124MOL0     C16618   4.052   0.259   3.747  0.1074  0.2798 -0.0617
  124MOL0     C16619   4.197   0.316   3.738  0.0079  0.0259 -0.3442
  124MOL0     C16620   4.283   0.217   3.641  0.2486  0.4282 -0.9698
  124MOL0     C16621   4.431   0.259   3.606  0.5519  1.0616 -0.7533
  124MOL0     N16622   4.488   0.162   3.512 -1.6495 -0.2495 -0.2288
  124MOL0     C16623   4.505   0.034   3.548  0.2844 -0.1130 -0.8340
  124MOL0     C16624   4.543  -0.027   3.434  0.5269  0.3352  0.2769
  124MOL0     C16625   4.594  -0.166   3.408 -0.3981 -0.4579 -0.7560
  124MOL0     C16626   4.532  -0.264   3.505 -0.5393 -0.4018 -0.4197
  124MOL0     C16627   4.591  -0.398   3.514 -0.7178  0.1012 -0.0088
  124MOL0     C16628   4.747  -0.398   3.536 -0.1773 -0.2897 -0.1733
  124MOL0     O16629   4.772  -0.334   3.663 -0.2763 -0.7600  0.2425
  124MOL0     C16630   4.880  -0.242   3.654  0.3486  0.5295  0.7949
  124MOL0     C16631   5.008  -0.286   3.627 -0.3983  0.1642  0.0151
  124MOL0     C16632   5.121  -0.198   3.624 -0.3171  0.5784 -0.3339
  124MOL0     C16633   5.100  -0.062   3.616 -0.7238  0.6040  0.0782
  124MOL0     C16634   5.207   0.047   3.606  0.2975  0.2170 -0.0855
  124MOL0     O16635   5.334  -0.005   3.619  0.2481 -0.0285  0.2924
  124MOL0     C16636   5.432   0.091   3.635  0.3587  0.9756  1.4575
  124MOL0     C16637   5.452   0.169   3.524 -0.4699  0.1822 -0.6046
  124MOL0     C16638   5.546   0.271   3.530  0.0969 -0.2120 -0.5727
  124MOL0     C16639   5.638   0.265   3.635 -0.1500 -0.0465  0.3788
  124MOL0     O16640   5.743   0.355   3.637  0.6024 -0.6171 -0.2958
  124MOL0     C16641   5.743   0.452   3.535 -0.9121 -0.1626 -0.1633
  124MOL0     C16642   5.868   0.547   3.553 -0.2633 -0.6342 -0.3188
  124MOL0     C16643   5.840   0.681   3.487  0.6142  0.2679 -0.2643
  124MOL0     C16644   5.956   0.775   3.484  0.8000  0.0744  0.0461
  124MOL0     C16645   5.901   0.916   3.474 -0.5103 -0.4368  0.6108
  124MOL0     C16646   6.023   1.004   3.465  0.6368  1.1011 -0.5676
  124MOL0     C16647   5.995   1.149   3.428  0.8523 -0.2793 -0.3304
  124MOL0     C16648   5.930   1.228   3.540 -0.4042 -0.6146 -0.8563
  124MOL0    Cl16649   5.931   1.404   3.502 -0.2854 -0.3408  0.0316
  124MOL0     C16650   5.620   0.182   3.742 -0.5553  0.7709 -0.7800
  124MOL0     C16651   5.515   0.096   3.743  0.0375  0.1386  0.0730
  124MOL0     O16652   5.169   0.168   3.616 -0.5874 -0.1612  0.6995
  124MOL0     C16653   4.967  -0.021   3.630  0.4513  0.2423 -0.5872
  124MOL0     C16654   4.862  -0.106   3.657 -0.4028 -0.2461 -0.5489
  124MOL0     N16655   4.540   0.066   3.328 -1.0393 -0.9189 -0.6380
  124MOL0     N16656   4.501   0.179   3.382 -0.7649  0.5716 -0.8598
  124MOL0     C16657   3.680   0.362   4.349 -0.4021 -0.7212  1.1579
  124MOL0     C16658   3.617   0.393   4.469 -0.6226 -0.4186 -0.0477
  124MOL0     C16659   3.396   0.574   4.810 -0.8145  0.3613 -0.6124
  124MOL0     C16660   3.476   0.684   4.853  0.1248  0.9037  0.3564
  124MOL0     C16661   3.448   0.749   4.967 -1.3049 -0.0500  0.7615
  124MOL0     C16662   3.318   0.719   5.032 -0.1202  0.5310 -0.0957
  124MOL0     O16663   3.275   0.789   5.148  0.1764  0.2647  0.1586
  124MOL0     C16664   3.344   0.910   5.179 -0.1780 -1.1148 -0.4120
  124MOL0     C16665   3.266   0.961   5.302  0.9633 -0.4938 -0.2658
  124MOL0     C16666   3.309   1.109   5.328  0.9218 -0.2653  0.5381
  124MOL0     C16667   3.194   1.178   5.406 -0.8125  0.3522  0.1209
  124MOL0     C16668   3.175   1.116   5.538  0.2874  0.2856  0.7121
  124MOL0     C16669   3.160   1.056   5.645  0.1994 -0.4466  0.7068
  124MOL0     C16670   3.239   0.618   4.990 -0.2097  0.7646  0.3103
  124MOL0     C16671   3.277   0.544   4.875  0.7504  0.1090 -0.5191
  124MOL0     C16672   3.182   0.433   4.842 -0.4233  0.3410  0.6568
  124MOL0     H16673   3.522   0.715   4.408  2.3648  0.7785  0.9110
  124MOL0     H16674   3.627   0.652   4.181 -0.3120 -0.5351  0.1619
  124MOL0     H16675   3.651   0.557   4.002  0.5984 -0.9239  0.9482
  124MOL0     H16676   3.822   0.553   3.989 -0.3565  0.2578 -2.9076
  124MOL0     H16677   3.679   0.456   3.790 -1.1204 -2.0984 -0.3171
  124MOL0     H16678   3.616   0.326   3.895 -0.9112  0.5218 -1.8278
  124MOL0     H16679   3.786   0.263   3.737  0.8403 -0.7102  0.4569
  124MOL0     H16680   3.802   0.208   3.903  0.0513 -0.0935  0.5704
  124MOL0     H16681   3.930   0.441   3.763 -3.1918 -1.0994  0.1914
  124MOL0     H16682   3.994   0.383   3.920 -0.0314  0.7516  0.6312
  124MOL0     H16683   4.060   0.167   3.805  2.6324 -0.1373 -0.9028
  124MOL0     H16684   4.006   0.247   3.648  0.3292  2.1393 -0.4221
  124MOL0     H16685   4.201   0.414   3.689 -0.2276 -0.7652 -2.0236
  124MOL0     H16686   4.239   0.331   3.838 -0.6313  0.0344 -0.0678
  124MOL0     H16687   4.234   0.191   3.547 -1.0221 -3.0617  0.5039
  124MOL0     H16688   4.292   0.123   3.697 -0.3482  2.3752  2.7134
  124MOL0     H16689   4.436   0.358   3.560  3.5444  0.9593 -0.8205
  124MOL0     H16690   4.488   0.251   3.698  0.6374 -1.9711 -0.9606
  124MOL0     H16691   4.499  -0.016   3.644 -1.9915 -1.1902 -1.4755
  124MOL0     H16692   4.560  -0.198   3.309 -0.7162 -1.4144 -0.3539
  124MOL0     H16693   4.702  -0.154   3.421 -0.2744 -1.0498 -1.1861
  124MOL0     H16694   4.532  -0.239   3.612  1.5559 -1.5923 -0.0905
  124MOL0     H16695   4.426  -0.276   3.477  0.2435 -0.0951 -3.9928
  124MOL0     H16696   4.583  -0.440   3.413  0.5082  0.3245 -0.2114
  124MOL0     H16697   4.549  -0.458   3.595 -0.7275  0.7117  0.4494
  124MOL0     H16698   4.809  -0.364   3.452  0.1775 -2.2162 -0.7287
  124MOL0     H16699   4.785  -0.500   3.536  3.0026  0.7662 -0.0500
  124MOL0     H16700   5.030  -0.392   3.624 -2.4728 -0.2910  0.0231
  124MOL0     H16701   5.222  -0.238   3.625 -0.3884  0.2916  2.1577
  124MOL0     H16702   5.389   0.166   3.436  0.3644  2.2369 -1.3297
  124MOL0     H16703   5.554   0.327   3.437  1.2047 -0.2947 -0.5421
  124MOL0     H16704   5.753   0.406   3.436  2.1244 -1.7487  0.7524
  124MOL0     H16705   5.649   0.507   3.536 -1.5451 -1.2294  0.4842
  124MOL0     H16706   5.877   0.575   3.659 -0.9853 -3.0642  0.4377
  124MOL0     H16707   5.949   0.492   3.504  0.0155  1.1014 -1.9268
  124MOL0     H16708   5.800   0.661   3.388  1.3377 -1.1293 -0.3000
  124MOL0     H16709   5.763   0.721   3.555  0.8427  0.0848  0.1082
  124MOL0     H16710   6.027   0.750   3.405 -0.2706  0.4094 -1.0416
  124MOL0     H16711   6.003   0.772   3.583  1.5474  0.4808 -0.2892
  124MOL0     H16712   5.838   0.947   3.558  0.1918 -1.9852  1.7602
  124MOL0     H16713   5.845   0.929   3.381  1.4592  1.7995 -0.3626
  124MOL0     H16714   6.073   0.990   3.562 -1.6317 -0.1335  0.4840
  124MOL0     H16715   6.105   0.974   3.400  0.8659 -0.2411  0.3042
  124MOL0     H16716   5.926   1.166   3.346  0.5032 -2.4974 -0.5561
  124MOL0     H16717   6.087   1.205   3.408 -0.9781  1.9675 -3.2878
  124MOL0     H16718   5.821   1.214   3.548 -0.1636 -2.4743 -0.2339
  124MOL0     H16719   5.983   1.203   3.633 -0.4385  1.7536 -0.1316
  124MOL0     H16720   5.696   0.172   3.819  1.1306 -2.5284 -2.6348
  124MOL0     H16721   5.489   0.030   3.826 -0.0265 -0.4906 -0.4376
  124MOL0     H16722   4.945   0.085   3.616 -1.1189  0.3005  1.7431
  124MOL0     H16723   4.764  -0.061   3.671  0.0088  0.2918  0.7449
  124MOL0     H16724   3.720   0.262   4.333 -1.0845 -1.0569  1.4966
  124MOL0     H16725   3.632   0.332   4.557  2.6480  1.3359  0.7857
  124MOL0     H16726   3.563   0.717   4.797 -0.2909  2.1152  0.3837
  124MOL0     H16727   3.520   0.816   5.013  0.7823 -2.3604  1.0506
  124MOL0     H16728   3.344   0.972   5.088 -0.3769 -0.1171  0.2484
  124MOL0     H16729   3.444   0.882   5.215  0.0966 -0.8645 -0.9548
  124MOL0     H16730   3.286   0.898   5.389 -1.2804 -1.1419 -0.1461
  124MOL0     H16731   3.158   0.952   5.284  0.8458  1.8599 -1.1755
  124MOL0     H16732   3.318   1.164   5.233  1.5714  0.7376  1.1625
  124MOL0     H16733   3.410   1.103   5.369  1.2082 -1.7597 -0.3233
  124MOL0     H16734   3.221   1.283   5.420 -0.3669  0.3224 -0.4848
  124MOL0     H16735   3.104   1.174   5.345  0.6179  1.5207 -2.2068
  124MOL0     H16736   3.147   1.042   5.750  0.2998  0.8220  0.9002
  124MOL0     H16737   3.143   0.594   5.035  0.6850  0.1400  1.9713
  124MOL0     H16738   3.194   0.422   4.733  0.0227  1.1208  0.6271
  124MOL0     H16739   3.210   0.337   4.886  1.5769 -0.3004 -1.7775
  124MOL0     H16740   3.075   0.454   4.849 -0.5166 -0.1260  0.7175
  125MOL0     O16741   2.060  10.288   3.665  1.1516  0.4400 -0.4456
  125MOL0     C16742   1.943  10.256   3.678 -0.4881  0.1378  0.7890
  125MOL0     O16743   1.893  10.157   3.756 -0.1348 -0.5824 -0.3345
  125MOL0     C16744   1.962  10.092   3.854  0.2848 -0.6762  0.0012
  125MOL0     C16745   2.053  10.148   3.939  0.5004 -0.3188  0.2800
  125MOL0     C16746   2.105  10.074   4.053  0.4564  0.0285 -0.2949
  125MOL0     C16747   2.051   9.953   4.087  0.0902 -0.0019  0.4511
  125MOL0     O16748   2.083   9.921   4.213  0.5232  0.2817  0.0040
  125MOL0     C16749   1.991   9.846   4.290 -0.8736  0.2653  0.4431
  125MOL0     C16750   2.027   9.871   4.438 -0.0153 -0.0612  0.3214
  125MOL0     C16751   1.939   9.797   4.531 -0.3055  0.3191 -0.2204
  125MOL0     C16752   2.009   9.769   4.668  0.6161 -0.1047  0.5644
  125MOL0     C16753   1.924   9.725   4.784  0.1280  0.4784 -1.4281
  125MOL0     C16754   1.880   9.577   4.780 -0.7077  0.5932  1.1027
  125MOL0     C16755   1.775   9.551   4.894 -0.3953 -0.6466  0.7588
  125MOL0     C16756   1.700   9.423   4.880 -0.4283 -0.0966  0.4792
  125MOL0     N16757   1.614   9.395   4.764  0.1116  0.7741 -0.7003
  125MOL0     C16758   1.476   9.405   4.763  0.2624  0.7472 -0.1037
  125MOL0     C16759   1.448   9.395   4.633  0.3161 -0.2093  1.0083
  125MOL0     C16760   1.306   9.393   4.570 -0.1105  0.0747 -0.5973
  125MOL0     C16761   1.274   9.263   4.491  0.3078  0.3741 -0.5794
  125MOL0     C16762   1.130   9.263   4.423  0.0312  0.4149 -0.0884
  125MOL0     C16763   1.096   9.398   4.335  0.0975 -0.3615 -0.0150
  125MOL0     O16764   1.001   9.370   4.236  0.6470  0.6021 -0.2015
  125MOL0     C16765   0.930   9.482   4.200 -0.1629  0.0882 -0.6278
  125MOL0     C16766   0.981   9.541   4.093 -0.2291 -0.2410 -0.0814
  125MOL0     C16767   0.924   9.654   4.044  0.2956 -0.6341 -0.1145
  125MOL0     C16768   0.808   9.707   4.107  0.6434  0.7563  0.9179
  125MOL0     C16769   0.761   9.838   4.071  0.6230 -0.2886 -0.2601
  125MOL0     O16770   0.822   9.891   3.960 -1.1966  0.9307  0.3685
  125MOL0     C16771   0.803  10.023   3.948  0.3775 -0.2434  0.0018
  125MOL0     C16772   0.858  10.117   4.037  0.6226  0.1615 -0.5641
  125MOL0     C16773   0.854  10.255   4.014  0.5239  0.0972  1.0815
  125MOL0     C16774   0.790  10.306   3.903  0.9226  0.6941  0.2919
  125MOL0     O16775   0.802  10.441   3.876 -0.2907  0.7316  0.2002
  125MOL0     C16776   0.688  10.508   3.927  0.1906 -0.1598  0.5131
  125MOL0     C16777   0.727  10.647   3.971  0.1071  0.3167  0.7928
  125MOL0     C16778   0.802  10.732   3.862 -0.3556  0.6181  0.5907
  125MOL0     C16779   0.715  10.780   3.740  0.4935  0.5312 -0.3488
  125MOL0     C16780   0.797  10.867   3.635 -0.6419 -0.0119 -0.2314
  125MOL0     C16781   0.820  11.014   3.687  0.1252  0.6030 -0.3886
  125MOL0     C16782   0.943  11.078   3.627  1.5030  0.5839 -0.4816
  125MOL0     C16783   0.984  11.212   3.680 -0.5932 -0.6927 -0.7131
  125MOL0    Cl16784   0.876  11.333   3.620 -0.3535  0.2384 -0.6441
  125MOL0     C16785   0.723  10.217   3.819  0.5852  0.3688  0.0597
  125MOL0     C16786   0.731  10.078   3.842  0.6889 -0.6794  0.6796
  125MOL0     O16787   0.675   9.885   4.139 -0.1277  0.5165  0.5060
  125MOL0     C16788   0.752   9.643   4.221  0.4648  0.3776 -0.3584
  125MOL0     C16789   0.815   9.528   4.267 -0.1440 -1.3667 -0.5649
  125MOL0     N16790   1.560   9.372   4.558  0.6823 -0.8122 -0.7147
  125MOL0     N16791   1.662   9.380   4.635 -0.3412  0.0124  0.2547
  125MOL0     C16792   1.967   9.886   3.997  0.0981  0.3672 -0.7444
  125MOL0     C16793   1.923   9.957   3.876 -0.8971  0.4100 -0.0737
  125MOL0     C16794   1.850  10.344   3.602 -0.7388  0.0104  0.6573
  125MOL0     C16795   1.893  10.394   3.472 -0.2158  0.1986 -0.1804
  125MOL0     C16796   1.806  10.456   3.383 -0.7576  0.4080 -0.4284
  125MOL0     C16797   1.681  10.488   3.425  0.5364 -0.3031 -0.2319
  125MOL0     O16798   1.595  10.563   3.351  0.0892  0.0186  0.2785
  125MOL0     C16799   1.599  10.526   3.209 -0.1345  0.5444 -1.1616
  125MOL0     C16800   1.485  10.585   3.135  0.3042  0.2166  0.0148
  125MOL0     C16801   1.356  10.488   3.153  0.8066 -0.1564 -0.1138
  125MOL0     C16802   1.222  10.550   3.105 -0.1871 -0.3340 -0.1644
  125MOL0     C16803   1.115  10.457   3.134  1.3258  0.3171 -0.3289
  125MOL0     C16804   1.012  10.397   3.159  0.6265  0.2291 -0.1070
  125MOL0     C16805   1.641  10.441   3.555  0.2765 -0.3755  0.5055
  125MOL0     C16806   1.721  10.372   3.640 -0.5761  0.2380 -0.3155
  125MOL0     C16807   1.665  10.331   3.782 -0.6024  0.8089 -0.4068
  125MOL0     H16808   2.078  10.253   3.931  0.5970 -0.2385  1.3631
  125MOL0     H16809   2.187  10.120   4.108  1.5328 -2.5668  0.4035
  125MOL0     H16810   1.886   9.876   4.280 -1.4633 -1.1158  2.0970
  125MOL0     H16811   1.987   9.739   4.268  3.2151 -0.3135  1.7293
  125MOL0     H16812   2.030   9.979   4.455  2.1510 -0.3959  2.7841
  125MOL0     H16813   2.132   9.842   4.446 -0.4073 -1.4142  0.9413
  125MOL0     H16814   1.902   9.709   4.478 -4.0019  1.1972  0.6325
  125MOL0     H16815   1.854   9.863   4.548 -2.6125 -1.9322 -2.1501
  125MOL0     H16816   2.083   9.690   4.651 -0.6011 -1.1832  0.0727
  125MOL0     H16817   2.058   9.861   4.700  0.5475  0.1267  0.0038
  125MOL0     H16818   1.984   9.732   4.876 -1.4480 -2.1131 -0.0656
  125MOL0     H16819   1.843   9.798   4.786  0.7475  1.1873 -1.5525
  125MOL0     H16820   1.859   9.554   4.676  0.0350 -1.0889  1.3031
  125MOL0     H16821   1.976   9.526   4.790 -0.3941  0.4027 -1.9856
  125MOL0     H16822   1.706   9.636   4.885 -0.8002 -1.1475 -1.5639
  125MOL0     H16823   1.823   9.550   4.992  3.6238 -0.8987 -1.0458
  125MOL0     H16824   1.768   9.341   4.905  0.1932  0.9734  2.5975
  125MOL0     H16825   1.629   9.434   4.963 -0.6517  1.7308  0.0803
  125MOL0     H16826   1.406   9.419   4.845 -0.3795 -2.3715  0.0077
  125MOL0     H16827   1.224   9.401   4.641 -1.4002  0.4811 -2.0693
  125MOL0     H16828   1.309   9.484   4.508  0.8175  0.2416 -0.3201
  125MOL0     H16829   1.346   9.258   4.408  0.5867  3.1050 -0.5845
  125MOL0     H16830   1.269   9.169   4.547 -2.8482  0.0055 -1.2939
  125MOL0     H16831   1.048   9.233   4.488 -0.6723 -3.0062 -2.2748
  125MOL0     H16832   1.135   9.178   4.355 -1.3555  0.5323 -0.3738
  125MOL0     H16833   1.187   9.433   4.286  1.7173 -0.6846  2.5436
  125MOL0     H16834   1.074   9.482   4.401  2.2295 -0.9011  1.5172
  125MOL0     H16835   1.066   9.499   4.041 -0.4313  0.8341 -1.3323
  125MOL0     H16836   0.976   9.695   3.959 -0.9791 -0.2605 -0.7223
  125MOL0     H16837   0.905  10.093   4.132 -1.8033 -0.6918  0.5018
  125MOL0     H16838   0.906  10.319   4.085 -0.9845  0.4003  1.9850
  125MOL0     H16839   0.617  10.511   3.845  0.5590  0.5497  0.2058
  125MOL0     H16840   0.652  10.457   4.017 -0.7143 -0.0978  0.1977
  125MOL0     H16841   0.630  10.692   3.991 -0.3146  0.6388 -1.7086
  125MOL0     H16842   0.783  10.645   4.066  0.3623  0.5966  0.6521
  125MOL0     H16843   0.849  10.821   3.905  0.8610  1.5821 -2.4717
  125MOL0     H16844   0.875  10.666   3.815 -0.3420  1.2462 -0.3046
  125MOL0     H16845   0.629  10.830   3.787 -1.0100 -3.1408  1.1672
  125MOL0     H16846   0.674  10.688   3.697 -3.3668  1.9800 -0.2113
  125MOL0     H16847   0.741  10.864   3.541 -2.4922  0.8279  0.7802
  125MOL0     H16848   0.889  10.812   3.615 -2.0614 -2.5974 -0.0221
  125MOL0     H16849   0.725  11.062   3.665 -1.0587 -2.8089 -3.7461
  125MOL0     H16850   0.827  11.010   3.796 -1.8547 -1.0902 -0.2498
  125MOL0     H16851   0.936  11.092   3.519  1.8686  0.3452 -0.5394
  125MOL0     H16852   1.025  11.010   3.651  1.0585 -0.6287 -2.1997
  125MOL0     H16853   0.981  11.208   3.789 -4.8007 -1.8727 -0.6827
  125MOL0     H16854   1.082  11.240   3.641 -1.2376 -0.6086 -2.3793
  125MOL0     H16855   0.672  10.258   3.732 -1.2310 -0.2145  0.8144
  125MOL0     H16856   0.690  10.020   3.759 -2.5015  3.3920 -0.9757
  125MOL0     H16857   0.658   9.681   4.260 -0.1815 -2.6235  1.2306
  125MOL0     H16858   0.779   9.482   4.358 -1.4094 -1.1768 -0.9603
  125MOL0     H16859   1.917   9.795   4.028  1.3758 -0.1786 -0.1778
  125MOL0     H16860   1.861   9.915   3.798 -0.5314  1.7832 -1.1604
  125MOL0     H16861   1.995  10.380   3.439 -0.6232 -1.1129 -0.9812
  125MOL0     H16862   1.849  10.481   3.287 -0.2833  0.6786 -0.1521
  125MOL0     H16863   1.591  10.418   3.192 -1.8645  0.5683 -0.6530
  125MOL0     H16864   1.691  10.572   3.170  0.6629 -0.4085 -0.4652
  125MOL0     H16865   1.496  10.609   3.029  0.7996  1.3440  0.3113
  125MOL0     H16866   1.462  10.680   3.184  1.2375  0.5375 -0.1402
  125MOL0     H16867   1.344  10.454   3.256  0.4204 -0.5440 -0.2837
  125MOL0     H16868   1.367  10.393   3.101  1.3748 -1.3555  2.0803
  125MOL0     H16869   1.199  10.645   3.153 -3.2708 -1.5615  1.0169
  125MOL0     H16870   1.225  10.564   2.996  1.2902 -2.0158 -0.3962
  125MOL0     H16871   0.913  10.356   3.165  0.1355  1.3277 -0.5893
  125MOL0     H16872   1.544  10.481   3.583  0.8060  0.0088  1.9052
  125MOL0     H16873   1.657  10.223   3.796  0.8728  0.4749 -1.9276
  125MOL0     H16874   1.726  10.364   3.867  0.3065 -1.3281 -0.1790
  125MOL0     H16875   1.563  10.368   3.795 -1.2387 -1.5455  2.4414
  126MOL0     O16876   9.179   2.056   3.664 -0.7849 -0.1699 -0.5445
  126MOL0     C16877   9.284   2.001   3.697  0.6528 -0.5897  0.1091
  126MOL0     O16878   9.303   1.955   3.824 -0.1746 -1.0758  0.2512
  126MOL0     C16879   9.203   1.968   3.916  0.2140  0.2886 -0.4183
  126MOL0     C16880   9.127   1.862   3.963  0.9670 -0.2547  0.6787
  126MOL0     C16881   9.027   1.880   4.062  0.1400 -0.8659  0.1148
  126MOL0     C16882   9.009   2.013   4.122 -0.3060 -0.3630 -0.0518
  126MOL0     O16883   8.914   2.035   4.224  0.2045 -0.4102  0.1393
  126MOL0     C16884   8.796   1.957   4.223 -0.0586  0.5523  0.4240
  126MOL0     C16885   8.679   2.042   4.275  0.0728  0.2973  0.0450
  126MOL0     C16886   8.627   2.136   4.169 -0.1911 -0.5397  0.2986
  126MOL0     C16887   8.527   2.231   4.231  0.5024 -0.1450  0.4525
  126MOL0     C16888   8.480   2.336   4.134  0.1498 -0.1130  0.3180
  126MOL0     C16889   8.561   2.465   4.147  0.6242  0.1333  0.8492
  126MOL0     C16890   8.535   2.550   4.013 -0.3211  0.5362 -0.2600
  126MOL0     C16891   8.644   2.520   3.905  0.1043 -0.5411  0.3192
  126MOL0     N16892   8.608   2.580   3.775  0.3823 -0.7639  0.5023
  126MOL0     C16893   8.653   2.706   3.735  0.1953 -0.6592  0.1768
  126MOL0     C16894   8.557   2.735   3.642 -1.3607  0.3334  0.1359
  126MOL0     C16895   8.546   2.863   3.570 -0.2719 -0.7464  0.0780
  126MOL0     C16896   8.643   2.877   3.448 -0.3635  0.0173 -0.4342
  126MOL0     C16897   8.622   3.018   3.396 -0.2280  0.7666  1.0677
  126MOL0     C16898   8.681   3.030   3.254  0.2157  0.1817 -0.2516
  126MOL0     O16899   8.817   2.999   3.254  0.1229  0.0922 -0.4364
  126MOL0     C16900   8.903   3.074   3.322 -0.2246 -0.9574 -1.7385
  126MOL0     C16901   8.909   3.215   3.331  0.7409 -0.7152  0.4529
  126MOL0     C16902   8.997   3.271   3.430 -0.2652  0.0581 -0.3876
  126MOL0     C16903   9.096   3.193   3.490 -0.4014  0.0152  0.5249
  126MOL0     C16904   9.205   3.259   3.569 -0.0846  0.2713 -0.0161
  126MOL0     O16905   9.302   3.183   3.611  0.7005 -0.5965  0.5349
  126MOL0     C16906   9.421   3.234   3.667 -0.0006 -0.6574 -0.1969
  126MOL0     C16907   9.402   3.293   3.791 -1.0184  1.1218  0.1056
  126MOL0     C16908   9.510   3.351   3.865  0.8728 -0.0635 -0.5225
  126MOL0     C16909   9.648   3.349   3.815 -0.2490 -0.5001 -0.1864
  126MOL0     O16910   9.761   3.401   3.873 -0.1426 -0.5039  0.1609
  126MOL0     C16911   9.778   3.379   4.016 -1.1748  0.3987 -0.2174
  126MOL0     C16912   9.926   3.410   4.043  0.3369 -0.6719  0.9789
  126MOL0     C16913   9.956   3.429   4.190 -0.1418 -0.0240 -0.4173
  126MOL0     C16914  10.113   3.453   4.208 -0.0480 -0.5592  0.2397
  126MOL0     C16915  10.145   3.482   4.357 -0.2308 -0.8636 -0.4960
  126MOL0     C16916  10.112   3.631   4.386  1.3827  0.1423  0.1931
  126MOL0     C16917  10.152   3.669   4.533 -1.3680 -0.3843  0.1354
  126MOL0     C16918  10.119   3.816   4.575  0.5224 -0.7548  0.4030
  126MOL0    Cl16919  10.038   3.825   4.735  0.2681  0.1565  0.0656
  126MOL0     C16920   9.657   3.291   3.682 -0.5447 -0.7499 -1.1507
  126MOL0     C16921   9.549   3.240   3.614  0.2872 -0.0176 -0.1446
  126MOL0     O16922   9.195   3.382   3.590  0.4827 -0.1641 -0.4212
  126MOL0     C16923   9.098   3.048   3.473  0.4874 -0.6524 -0.2333
  126MOL0     C16924   8.994   2.995   3.392 -0.2159  0.5347 -0.7089
  126MOL0     N16925   8.472   2.628   3.618 -0.2130  0.6366  0.6314
  126MOL0     N16926   8.502   2.536   3.700 -0.3982  0.2826 -0.2242
  126MOL0     C16927   9.091   2.119   4.089 -0.4614 -0.0513  2.0103
  126MOL0     C16928   9.180   2.096   3.976 -0.0847 -0.2745  0.1594
  126MOL0     C16929   9.385   1.994   3.589  0.2187  0.0937 -0.4890
  126MOL0     C16930   9.516   1.961   3.628 -0.3471 -0.4455 -0.0905
  126MOL0     C16931   9.626   1.932   3.545  0.0699 -0.7273 -0.3624
  126MOL0     C16932   9.608   1.942   3.408 -0.4468 -0.9123  0.2777
  126MOL0     O16933   9.713   1.916   3.317 -0.6138 -0.2403 -0.1540
  126MOL0     C16934   9.833   1.854   3.371 -0.5634 -0.6585  0.4816
  126MOL0     C16935   9.908   1.771   3.272  0.1707  0.5343 -0.6675
  126MOL0     C16936  10.053   1.737   3.310  0.1140  0.0860 -1.9666
  126MOL0     C16937  10.142   1.771   3.197 -0.7170  0.0703  0.5309
  126MOL0     C16938  10.278   1.762   3.246  0.3398 -0.4615  0.4054
  126MOL0     C16939  10.399   1.767   3.285 -0.3622  0.2816  1.1560
  126MOL0     C16940   9.481   1.979   3.355 -0.1255 -0.1412 -0.6276
  126MOL0     C16941   9.372   2.004   3.441  0.2064 -0.0481  0.8431
  126MOL0     C16942   9.259   2.036   3.346  0.5253 -0.9315  0.4274
  126MOL0     H16943   9.132   1.765   3.914 -2.7451 -1.7130  2.7929
  126MOL0     H16944   8.970   1.795   4.099 -0.0601  0.4486  3.1325
  126MOL0     H16945   8.775   1.912   4.126 -0.7545 -1.0678  1.2939
  126MOL0     H16946   8.815   1.868   4.283  2.7817 -1.7325 -3.4129
  126MOL0     H16947   8.703   2.093   4.369 -1.9442  3.0576 -0.8262
  126MOL0     H16948   8.597   1.975   4.303  0.0440  0.1120 -0.4735
  126MOL0     H16949   8.563   2.089   4.094 -0.9788  3.4225 -1.7699
  126MOL0     H16950   8.706   2.197   4.125 -2.7249  2.3290 -0.5871
  126MOL0     H16951   8.444   2.175   4.275  1.9653 -2.3421  0.6202
  126MOL0     H16952   8.576   2.269   4.321 -0.2429 -1.6677  1.5325
  126MOL0     H16953   8.471   2.296   4.033 -0.0425  0.1948  0.2097
  126MOL0     H16954   8.378   2.363   4.165  1.2111  1.6580  2.5909
  126MOL0     H16955   8.517   2.521   4.230 -1.4396 -2.6772  1.7773
  126MOL0     H16956   8.670   2.456   4.156  0.6447 -1.4152 -0.5648
  126MOL0     H16957   8.525   2.656   4.035 -4.7425  0.0593  0.9206
  126MOL0     H16958   8.437   2.533   3.968  0.0636 -0.9564 -0.5834
  126MOL0     H16959   8.729   2.570   3.950 -1.9244  2.4457  1.1199
  126MOL0     H16960   8.653   2.411   3.894  1.6588 -0.7699  3.0063
  126MOL0     H16961   8.726   2.770   3.785  0.7866 -1.9911  1.0706
  126MOL0     H16962   8.445   2.890   3.536  0.5075  1.2267 -0.8231
  126MOL0     H16963   8.571   2.941   3.642  0.6302 -1.2911  0.3649
  126MOL0     H16964   8.743   2.861   3.490 -0.9988 -1.6762  0.5560
  126MOL0     H16965   8.641   2.799   3.371  0.2537  0.2185 -0.6570
  126MOL0     H16966   8.675   3.094   3.454  2.5480  0.4320 -0.8097
  126MOL0     H16967   8.516   3.045   3.387 -0.5097 -0.3336  1.0051
  126MOL0     H16968   8.660   3.129   3.213 -0.1278  0.6235  0.9457
  126MOL0     H16969   8.638   2.953   3.190  2.2655 -1.8497  0.6813
  126MOL0     H16970   8.836   3.270   3.274  1.8517 -0.9596 -1.2647
  126MOL0     H16971   8.980   3.371   3.468 -0.0588  1.2032 -3.0915
  126MOL0     H16972   9.301   3.293   3.830 -2.4226 -1.8081 -3.0349
  126MOL0     H16973   9.492   3.385   3.966  1.1705 -1.3113 -0.0358
  126MOL0     H16974   9.720   3.452   4.073  2.3178  0.3531  3.9331
  126MOL0     H16975   9.751   3.277   4.045 -0.7356  0.4002  0.1963
  126MOL0     H16976   9.973   3.318   4.009  0.9639  0.6876 -2.2282
  126MOL0     H16977   9.953   3.501   3.988 -0.3791  0.3702  2.3041
  126MOL0     H16978   9.911   3.521   4.226  1.5989  1.2088 -1.2426
  126MOL0     H16979   9.930   3.338   4.245  1.2642  0.8449  1.8169
  126MOL0     H16980  10.163   3.527   4.146 -0.6258 -1.0739 -0.8730
  126MOL0     H16981  10.173   3.365   4.181 -0.8700 -0.9597 -0.3214
  126MOL0     H16982  10.246   3.456   4.391 -0.6780 -2.5504 -0.3901
  126MOL0     H16983  10.074   3.417   4.409 -1.8970  0.1280 -1.4476
  126MOL0     H16984  10.164   3.702   4.321  1.4568  2.2930  2.4589
  126MOL0     H16985  10.004   3.640   4.368  0.8882  0.3900  2.8781
  126MOL0     H16986  10.260   3.654   4.535 -1.1539  0.3143 -2.3752
  126MOL0     H16987  10.104   3.590   4.592  0.6363  0.7985  3.6451
  126MOL0     H16988  10.201   3.886   4.591 -0.9500  0.6422  2.3114
  126MOL0     H16989  10.065   3.867   4.495  1.1308  0.6851  0.8682
  126MOL0     H16990   9.745   3.310   3.621 -0.7136  1.2674 -0.8459
  126MOL0     H16991   9.569   3.190   3.520 -0.0929 -1.6767  0.6090
  126MOL0     H16992   9.159   2.980   3.531 -1.1732 -3.2237 -1.3153
  126MOL0     H16993   8.980   2.889   3.373  1.7566  0.5102 -2.4181
  126MOL0     H16994   9.074   2.213   4.140 -4.0810 -0.1449  1.2548
  126MOL0     H16995   9.240   2.181   3.945 -0.0860 -0.7288 -1.1577
  126MOL0     H16996   9.543   1.951   3.733 -0.1038  2.8621  0.2599
  126MOL0     H16997   9.714   1.905   3.604  0.5083 -2.5235 -1.7443
  126MOL0     H16998   9.792   1.789   3.449  0.4688  1.0681  2.5580
  126MOL0     H16999   9.892   1.938   3.409 -2.5666  0.4972  1.2046
  126MOL0     H17000   9.899   1.832   3.182 -1.2962  0.7361 -0.4179
  126MOL0     H17001   9.849   1.679   3.272 -1.7923  1.6259 -4.1615
  126MOL0     H17002  10.054   1.631   3.337 -1.0690  0.6433  0.6154
  126MOL0     H17003  10.079   1.788   3.403 -0.8954 -0.5076 -1.3291
  126MOL0     H17004  10.135   1.704   3.111  4.2905 -0.5169  0.2803
  126MOL0     H17005  10.126   1.868   3.150  1.5978 -1.3594 -3.6845
  126MOL0     H17006  10.499   1.780   3.320  0.0941  0.3536 -0.1045
  126MOL0     H17007   9.493   1.999   3.249 -0.5301 -1.1341 -0.8697
  126MOL0     H17008   9.243   1.948   3.284 -0.9863  0.1578 -0.7917
  126MOL0     H17009   9.164   2.054   3.398 -1.2687  1.8294 -3.3537
  126MOL0     H17010   9.273   2.132   3.295 -4.2011 -0.3589 -0.1972
  127MOL0     O17011   3.423  11.288   8.220 -0.1283  1.1217 -0.3138
  127MOL0     C17012   3.459  11.402   8.196  0.8332  0.7254 -0.0295
  127MOL0     O17013   3.490  11.490   8.290  0.5808  0.1703  0.4835
  127MOL0     C17014   3.499  11.461   8.422 -0.3712 -0.8334  0.8232
  127MOL0     C17015   3.594  11.535   8.498 -0.2522  0.9128 -0.6822
  127MOL0     C17016   3.598  11.526   8.640 -0.8394 -0.8388  0.2262
  127MOL0     C17017   3.514  11.450   8.710  0.4061 -0.3972 -0.4214
  127MOL0     O17018   3.486  11.453   8.845  0.0084  0.3928 -0.1437
  127MOL0     C17019   3.514  11.570   8.921 -0.1123 -0.3156 -1.2136
  127MOL0     C17020   3.482  11.517   9.061 -0.0057  0.2481 -0.0231
  127MOL0     C17021   3.552  11.604   9.165  0.0475 -0.2844  1.4100
  127MOL0     C17022   3.489  11.564   9.289 -0.5189  0.3867  0.1045
  127MOL0     C17023   3.577  11.612   9.406  0.3559  1.1820  0.0988
  127MOL0     C17024   3.694  11.518   9.429  0.0777  0.3507  0.1209
  127MOL0     C17025   3.770  11.556   9.551  0.5050 -0.2771 -0.6038
  127MOL0     C17026   3.700  11.516   9.681 -0.3626  0.3463  0.1326
  127MOL0     N17027   3.766  11.555   9.809 -0.2840 -0.4363 -0.0679
  127MOL0     C17028   3.895  11.522   9.856 -0.7622  0.1295  0.2335
  127MOL0     C17029   3.903  11.579   9.975 -0.1566 -1.4348  0.3896
  127MOL0     C17030   4.027  11.580  10.064  0.0465 -0.5793 -0.3161
  127MOL0     C17031   4.157  11.640  10.003 -0.3620 -0.8630  0.1445
  127MOL0     C17032   4.206  11.749  10.100  0.3390  0.0168  0.8337
  127MOL0     C17033   4.333  11.802  10.031 -0.1891 -0.2809 -0.0131
  127MOL0     O17034   4.444  11.715  10.013  0.6042  0.1100  0.2546
  127MOL0     C17035   4.512  11.670  10.126 -0.8441 -0.6486 -0.0978
  127MOL0     C17036   4.602  11.565  10.086 -0.6648  1.1100 -0.1829
  127MOL0     C17037   4.683  11.505  10.177 -0.5107 -0.9772  0.7466
  127MOL0     C17038   4.672  11.537  10.312  0.0031 -0.3996 -0.1682
  127MOL0     C17039   4.762  11.472  10.405  0.1257  0.4844  0.2182
  127MOL0     O17040   4.768  11.512  10.536  0.1099 -0.1137 -0.4662
  127MOL0     C17041   4.867  11.452  10.615 -0.1832  0.4527 -0.5893
  127MOL0     C17042   4.827  11.344  10.686  0.5803  1.4085  0.7684
  127MOL0     C17043   4.919  11.262  10.748  0.3115 -0.4646  0.1348
  127MOL0     C17044   5.052  11.294  10.738  0.0715 -0.3751 -0.0031
  127MOL0     O17045   5.153  11.233  10.800  0.3499  0.3397 -0.2587
  127MOL0     C17046   5.133  11.126  10.896  0.5182 -1.0081 -0.1378
  127MOL0     C17047   5.267  11.073  10.955 -0.0866 -0.7623 -0.7437
  127MOL0     C17048   5.337  11.163  11.053  0.1671  0.0389 -0.8459
  127MOL0     C17049   5.446  11.091  11.122  0.3114 -0.8605  0.3639
  127MOL0     C17050   5.571  11.171  11.168 -0.6791  0.2162 -0.8764
  127MOL0     C17051   5.542  11.219  11.302 -0.2612  0.0676  0.6048
  127MOL0     C17052   5.673  11.236  11.385 -0.3776  0.0928 -0.0386
  127MOL0     C17053   5.723  11.104  11.439 -0.2375 -0.8064  0.3223
  127MOL0    Cl17054   5.615  11.003  11.533 -0.1666  0.7309 -0.2315
  127MOL0     C17055   5.089  11.406  10.667  0.6712 -0.2072  1.1054
  127MOL0     C17056   4.999  11.484  10.604 -0.2314 -0.5113  0.1910
  127MOL0     O17057   4.837  11.385  10.354 -0.3225 -0.2173 -0.2388
  127MOL0     C17058   4.583  11.635  10.352  0.2188 -0.2379 -0.4448
  127MOL0     C17059   4.509  11.705  10.257  0.1418  0.2967  0.4430
  127MOL0     N17060   3.781  11.642  10.011 -0.0115  0.4675 -0.5991
  127MOL0     N17061   3.703  11.631   9.904 -0.8892  0.3563 -0.3655
  127MOL0     C17062   3.419  11.372   8.637 -0.2858 -0.7002 -1.4752
  127MOL0     C17063   3.408  11.378   8.498 -0.1772 -0.7340  0.7329
  127MOL0     C17064   3.439  11.456   8.063  0.3619 -0.0282 -0.1198
  127MOL0     C17065   3.323  11.416   7.998  0.5196 -0.3485 -0.4007
  127MOL0     C17066   3.284  11.468   7.878  0.1598 -0.2076  0.5297
  127MOL0     C17067   3.372  11.547   7.800 -0.0684  0.5203  0.3226
  127MOL0     O17068   3.323  11.588   7.679 -0.1113 -0.5652 -0.0515
  127MOL0     C17069   3.324  11.735   7.662 -1.3699  0.6002 -0.6765
  127MOL0     C17070   3.267  11.760   7.524 -0.7547 -0.7111  0.0617
  127MOL0     C17071   3.127  11.720   7.503  0.8471  0.3295  0.5483
  127MOL0     C17072   3.080  11.780   7.367 -0.8645 -0.7518 -0.4304
  127MOL0     C17073   2.951  11.724   7.335  0.2915 -0.3912  0.0297
  127MOL0     C17074   2.842  11.678   7.324 -0.2378  0.5064 -0.4109
  127MOL0     C17075   3.495  11.580   7.856 -0.1274  0.7865 -0.2371
  127MOL0     C17076   3.525  11.542   7.993 -0.8826 -0.8663  0.0093
  127MOL0     C17077   3.662  11.598   8.053 -0.0293  0.3379 -0.2580
  127MOL0     H17078   3.646  11.604   8.432  0.7923 -0.2178 -1.0922
  127MOL0     H17079   3.673  11.590   8.684 -1.8381  0.1607  0.5296
  127MOL0     H17080   3.616  11.608   8.914 -0.2552 -0.1178 -2.2375
  127MOL0     H17081   3.454  11.657   8.892  0.4710  0.7855  0.6785
  127MOL0     H17082   3.495  11.410   9.079 -1.6409  0.3492  2.1547
  127MOL0     H17083   3.373  11.524   9.066 -0.0049 -0.7088  2.7149
  127MOL0     H17084   3.546  11.711   9.146  1.6386 -0.3902  0.0074
  127MOL0     H17085   3.659  11.581   9.155 -0.0642 -0.6181  0.9837
  127MOL0     H17086   3.389  11.608   9.302 -1.9493 -2.6767  0.2828
  127MOL0     H17087   3.471  11.456   9.296  1.0330  0.0813 -0.3805
  127MOL0     H17088   3.607  11.715   9.385  0.8729  1.0324  0.0993
  127MOL0     H17089   3.518  11.635   9.495  0.0234  1.8014 -0.2725
  127MOL0     H17090   3.659  11.415   9.437  1.4792 -0.3572 -1.9167
  127MOL0     H17091   3.766  11.518   9.346  1.7552 -1.7937  1.4862
  127MOL0     H17092   3.782  11.664   9.541 -1.0462  0.0222  0.4807
  127MOL0     H17093   3.868  11.509   9.541  2.1792  2.5496  1.4732
  127MOL0     H17094   3.596  11.547   9.672 -1.2441 -2.5198 -0.5682
  127MOL0     H17095   3.697  11.407   9.686  0.1644  0.3351  0.2665
  127MOL0     H17096   3.985  11.480   9.811 -1.3996 -0.1732 -0.8022
  127MOL0     H17097   3.995  11.646  10.145  0.3301  2.9296 -2.8105
  127MOL0     H17098   4.043  11.479  10.102 -3.1202 -2.2123 -2.7529
  127MOL0     H17099   4.233  11.562   9.995 -0.6671 -1.3008  1.3321
  127MOL0     H17100   4.144  11.680   9.902  1.0796  0.6251  0.5131
  127MOL0     H17101   4.226  11.705  10.198 -1.3583 -0.4519  1.0080
  127MOL0     H17102   4.141  11.834  10.120  0.1779  0.2805 -0.6763
  127MOL0     H17103   4.349  11.893  10.089 -3.0012 -0.7465  1.6757
  127MOL0     H17104   4.300  11.830   9.930 -1.4308 -1.0535  0.1592
  127MOL0     H17105   4.601  11.532   9.982  0.2809  0.4338  0.0121
  127MOL0     H17106   4.754  11.448  10.118  1.3940  1.1825  0.8078
  127MOL0     H17107   4.724  11.311  10.689  0.5369  1.5378  0.6836
  127MOL0     H17108   4.877  11.178  10.802  2.3857 -1.0189  0.9890
  127MOL0     H17109   5.061  11.164  10.969  4.3279  1.5336  2.7295
  127MOL0     H17110   5.088  11.046  10.836 -2.5402  2.8746 -3.6817
  127MOL0     H17111   5.246  10.980  11.008  1.3502 -1.1245 -0.7699
  127MOL0     H17112   5.338  11.045  10.877 -1.0782  0.5563 -2.1861
  127MOL0     H17113   5.371  11.245  10.989 -1.3225 -0.4505 -2.3696
  127MOL0     H17114   5.272  11.201  11.132 -1.6774 -0.1051 -2.2165
  127MOL0     H17115   5.484  11.021  11.047  0.4212  0.4772 -0.8630
  127MOL0     H17116   5.402  11.030  11.202 -1.4919  0.4356  0.4220
  127MOL0     H17117   5.605  11.244  11.094  2.5641  0.0972  0.3174
  127MOL0     H17118   5.642  11.091  11.193 -1.5587 -1.0009 -2.1043
  127MOL0     H17119   5.486  11.313  11.301 -0.6884 -0.1879 -0.2447
  127MOL0     H17120   5.479  11.143  11.350 -2.0023  0.8210 -0.3982
  127MOL0     H17121   5.654  11.301  11.471  0.0095 -1.1474  1.0286
  127MOL0     H17122   5.754  11.274  11.322 -2.3429  0.2681 -2.6156
  127MOL0     H17123   5.767  11.044  11.358  0.3985  1.1655 -0.8491
  127MOL0     H17124   5.801  11.132  11.510 -0.9908  1.4906  0.2990
  127MOL0     H17125   5.194  11.428  10.649  0.4269  1.6414  1.7687
  127MOL0     H17126   5.024  11.561  10.531  1.2855 -0.6220  0.5534
  127MOL0     H17127   4.572  11.666  10.456 -1.7090 -1.3699 -0.2658
  127MOL0     H17128   4.444  11.786  10.288 -3.0757 -1.8223 -0.4037
  127MOL0     H17129   3.345  11.311   8.689 -0.1544 -1.3929 -2.0825
  127MOL0     H17130   3.333  11.321   8.443  1.3597 -0.9377 -1.2809
  127MOL0     H17131   3.252  11.358   8.056 -0.9987  2.6826  0.9686
  127MOL0     H17132   3.196  11.432   7.824  0.6582  2.1275 -2.0595
  127MOL0     H17133   3.424  11.777   7.672 -1.7863  1.4022  0.3131
  127MOL0     H17134   3.257  11.772   7.741  0.4379 -2.1727  2.3809
  127MOL0     H17135   3.335  11.719   7.448  1.2418  3.2955 -0.6107
  127MOL0     H17136   3.292  11.865   7.504  1.5279 -0.9331  1.4471
  127MOL0     H17137   3.063  11.758   7.583  3.2848  1.9308  1.8595
  127MOL0     H17138   3.123  11.612   7.513 -0.3491  0.5375  3.0164
  127MOL0     H17139   3.086  11.889   7.366  2.0042 -0.7570  2.0179
  127MOL0     H17140   3.134  11.747   7.278  1.7663  0.9481  0.4244
  127MOL0     H17141   2.738  11.653   7.320 -0.6275  0.7708  3.6941
  127MOL0     H17142   3.572  11.642   7.812  0.0188  2.4311  2.1107
  127MOL0     H17143   3.685  11.552   8.149 -3.5887 -2.0115 -0.3089
  127MOL0     H17144   3.741  11.601   7.977  1.1080  0.9468  0.9225
  127MOL0     H17145   3.665  11.706   8.066  2.4483  0.1067  1.9186
  128MOL0     O17146  10.920   1.451   4.680  0.7030 -0.0093 -0.3327
  128MOL0     C17147  10.810   1.430   4.722  0.0884 -0.4700 -1.3707
  128MOL0     O17148  10.731   1.320   4.702  0.1693  0.2216 -0.6564
  128MOL0     C17149  10.781   1.236   4.610  0.2602  0.8122 -0.4871
  128MOL0     C17150  10.730   1.240   4.479 -0.0468  0.8321  0.3338
  128MOL0     C17151  10.777   1.153   4.381 -0.0987  0.1214  0.0832
  128MOL0     C17152  10.871   1.056   4.409 -0.2019 -0.4927  0.1699
  128MOL0     O17153  10.900   0.961   4.319  0.3093  0.4287 -0.1814
  128MOL0     C17154  10.943   1.010   4.188  0.1873 -1.0577 -0.2390
  128MOL0     C17155  11.041   0.914   4.125  0.7728 -0.3748 -0.1448
  128MOL0     C17156  10.972   0.777   4.096 -0.0397 -0.2846  0.0725
  128MOL0     C17157  11.038   0.680   4.001 -0.6156 -0.0938  0.5455
  128MOL0     C17158  11.046   0.727   3.856 -0.6679 -0.5191  0.1030
  128MOL0     C17159  11.145   0.674   3.765 -0.3359 -0.7948 -0.7274
  128MOL0     C17160  11.140   0.528   3.736 -0.3913  0.5784 -0.2186
  128MOL0     C17161  11.011   0.472   3.676 -0.7147  0.4579 -0.3806
  128MOL0     N17162  10.999   0.328   3.683  0.1978  1.0315  0.3626
  128MOL0     C17163  11.034   0.240   3.784  0.1814 -1.0363  0.5669
  128MOL0     C17164  11.029   0.120   3.726 -0.2304  0.0349 -0.6378
  128MOL0     C17165  11.066  -0.012   3.786 -0.1503  1.2898  0.4358
  128MOL0     C17166  10.976  -0.122   3.716  0.6440  0.6825 -0.2586
  128MOL0     C17167  11.045  -0.187   3.599  0.6194  0.8315  0.5736
  128MOL0     C17168  10.962  -0.223   3.473  0.4516  0.2427  0.1318
  128MOL0     O17169  10.866  -0.318   3.523 -0.2186 -0.4914  0.2851
  128MOL0     C17170  10.737  -0.275   3.555 -0.3491  0.4634  0.4620
  128MOL0     C17171  10.667  -0.347   3.657 -0.6492 -0.0696  0.4285
  128MOL0     C17172  10.529  -0.308   3.688 -0.4974 -0.1707 -0.2875
  128MOL0     C17173  10.467  -0.197   3.623  0.0666  0.7552 -0.2575
  128MOL0     C17174  10.331  -0.172   3.659  0.3730  0.2696 -0.5125
  128MOL0     O17175  10.273  -0.209   3.778 -0.7467  0.2318 -0.3942
  128MOL0     C17176  10.149  -0.184   3.807  0.1463 -0.0501  0.1994
  128MOL0     C17177  10.102  -0.058   3.833 -0.3537 -0.7851 -0.7580
  128MOL0     C17178   9.974  -0.035   3.881  0.6424  0.9709 -0.2669
  128MOL0     C17179   9.880  -0.135   3.885  0.2107 -0.3112  0.6543
  128MOL0     O17180   9.752  -0.125   3.919  0.0531 -0.8207  1.0287
  128MOL0     C17181   9.706  -0.020   4.002  0.6155  0.4358  0.9034
  128MOL0     C17182   9.554  -0.019   4.010 -0.3537 -0.5196 -0.4212
  128MOL0     C17183   9.507  -0.137   4.102 -0.0479 -0.6691  0.2358
  128MOL0     C17184   9.559  -0.109   4.250  0.3987 -0.4356 -0.1937
  128MOL0     C17185   9.451  -0.149   4.357 -0.5966 -0.1012 -0.6500
  128MOL0     C17186   9.495  -0.098   4.493  0.5894 -0.0208 -0.2684
  128MOL0     C17187   9.400   0.009   4.543 -0.3836 -0.1100 -0.5448
  128MOL0     C17188   9.443   0.084   4.667  0.2634  0.1298  0.0558
  128MOL0    Cl17189   9.582   0.188   4.627 -0.2525  0.1753 -0.1743
  128MOL0     C17190   9.924  -0.264   3.849  0.3025 -0.2593 -0.2717
  128MOL0     C17191  10.061  -0.296   3.816 -0.3774  0.1759  0.0242
  128MOL0     O17192  10.280  -0.101   3.573 -0.3424 -0.4750  0.6113
  128MOL0     C17193  10.540  -0.126   3.532  0.6681 -0.2585 -0.3417
  128MOL0     C17194  10.670  -0.159   3.500  0.5224  0.2096  0.9332
  128MOL0     N17195  11.003   0.131   3.592  0.1958  0.2913  0.5109
  128MOL0     N17196  10.981   0.258   3.567 -0.2207 -0.3960  0.9665
  128MOL0     C17197  10.933   1.060   4.533  1.0099  0.1913  0.7372
  128MOL0     C17198  10.886   1.149   4.623  0.5434 -0.0993 -0.1046
  128MOL0     C17199  10.762   1.518   4.842 -0.8116 -0.6595 -0.5998
  128MOL0     C17200  10.707   1.449   4.955 -0.0108 -0.0626  0.8300
  128MOL0     C17201  10.661   1.528   5.062 -0.6527  0.9799 -0.0694
  128MOL0     C17202  10.668   1.673   5.060 -0.0461 -0.2027 -0.0866
  128MOL0     O17203  10.617   1.757   5.160  0.3717  0.4364  0.3899
  128MOL0     C17204  10.561   1.702   5.274 -0.4894  0.3437  0.7696
  128MOL0     C17205  10.502   1.794   5.377  0.4942  0.2662 -0.2211
  128MOL0     C17206  10.421   1.907   5.310 -0.6254  0.6823  0.4140
  128MOL0     C17207  10.499   2.026   5.284 -1.2989 -0.5437  0.4269
  128MOL0     C17208  10.412   2.129   5.223 -0.0366  0.8849 -0.5891
  128MOL0     C17209  10.339   2.215   5.182  0.7359 -0.2656 -0.5236
  128MOL0     C17210  10.735   1.728   4.956  0.2608 -0.6184  0.0382
  128MOL0     C17211  10.782   1.661   4.849 -0.8593 -0.6068  1.2812
  128MOL0     C17212  10.843   1.733   4.734  0.2812  0.1156  0.2176
  128MOL0     H17213  10.665   1.323   4.455 -0.5833  0.4789  0.5565
  128MOL0     H17214  10.736   1.160   4.281  0.6374 -3.6809 -0.6092
  128MOL0     H17215  10.855   1.011   4.123  1.2794 -1.1013 -1.7825
  128MOL0     H17216  10.998   1.105   4.194 -0.8887 -0.2416 -2.1832
  128MOL0     H17217  11.115   0.887   4.200  1.8131 -0.8542 -1.3066
  128MOL0     H17218  11.080   0.965   4.036  0.1870  2.0815  0.9430
  128MOL0     H17219  10.869   0.781   4.060 -0.5346 -0.4357  1.4358
  128MOL0     H17220  10.956   0.720   4.188 -1.0000 -3.0979 -1.7003
  128MOL0     H17221  11.139   0.665   4.042  0.5604  3.4824 -0.6415
  128MOL0     H17222  10.986   0.584   4.012 -0.0525 -0.3238  1.3640
  128MOL0     H17223  10.950   0.720   3.805  0.5512  0.8328 -2.5907
  128MOL0     H17224  11.067   0.834   3.863  0.5280 -0.7013 -0.3955
  128MOL0     H17225  11.132   0.733   3.673 -3.4075  0.7502  0.5444
  128MOL0     H17226  11.247   0.696   3.797  0.3088 -2.0966 -1.8095
  128MOL0     H17227  11.159   0.472   3.828  1.0753 -0.0529 -0.8749
  128MOL0     H17228  11.222   0.510   3.666 -2.0017  0.9374 -2.3067
  128MOL0     H17229  10.929   0.506   3.740  1.3077  1.8270  1.6352
  128MOL0     H17230  11.004   0.515   3.575  0.8378  1.9493  0.0963
  128MOL0     H17231  11.051   0.257   3.890  0.8115 -1.1932  0.4958
  128MOL0     H17232  11.171  -0.024   3.759 -0.1447 -2.0872  1.5021
  128MOL0     H17233  11.064  -0.019   3.895 -0.2696 -0.7743  0.3361
  128MOL0     H17234  10.961  -0.208   3.781  0.0490  0.7336 -0.3260
  128MOL0     H17235  10.878  -0.082   3.689  0.4206 -1.4369 -3.0654
  128MOL0     H17236  11.091  -0.281   3.630  1.9153  1.9431  2.1832
  128MOL0     H17237  11.125  -0.123   3.560  0.5533  0.6611  0.1507
  128MOL0     H17238  11.003  -0.272   3.385 -2.4036  1.8993 -2.3261
  128MOL0     H17239  10.911  -0.133   3.437 -1.3549 -0.4710  0.7690
  128MOL0     H17240  10.702  -0.425   3.724  2.6295  2.4769  1.9934
  128MOL0     H17241  10.472  -0.371   3.756  0.2998 -1.7569 -1.0173
  128MOL0     H17242  10.177   0.020   3.829 -2.1581  1.2101  1.3289
  128MOL0     H17243   9.942   0.064   3.914 -1.8769  0.3201 -0.5661
  128MOL0     H17244   9.762  -0.016   4.096  1.3677 -0.7932  0.5313
  128MOL0     H17245   9.741   0.074   3.958 -1.3342  1.6652  1.8507
  128MOL0     H17246   9.508   0.066   4.062 -0.2936 -0.5316 -0.3455
  128MOL0     H17247   9.512  -0.035   3.911 -0.5310 -1.4647 -0.2005
  128MOL0     H17248   9.398  -0.134   4.092  0.0602  1.4332 -0.8389
  128MOL0     H17249   9.540  -0.233   4.063  0.7375 -0.5789  0.6787
  128MOL0     H17250   9.586  -0.004   4.257  2.1299 -0.8581 -0.2093
  128MOL0     H17251   9.650  -0.168   4.267  0.8058  0.4818  0.8828
  128MOL0     H17252   9.453  -0.258   4.364  1.4090 -0.0547  0.0404
  128MOL0     H17253   9.348  -0.117   4.339 -0.6221  2.5637  3.1339
  128MOL0     H17254   9.484  -0.181   4.563  0.3497 -1.9951 -2.4946
  128MOL0     H17255   9.601  -0.078   4.475  0.2996  1.6993 -0.2318
  128MOL0     H17256   9.300  -0.026   4.573  0.0687 -0.1167  1.0354
  128MOL0     H17257   9.383   0.074   4.456  1.2050  1.2754  0.1475
  128MOL0     H17258   9.360   0.146   4.701 -0.4434  0.3110 -1.8987
  128MOL0     H17259   9.479   0.013   4.743  2.0613  2.3644  1.4093
  128MOL0     H17260   9.849  -0.342   3.849 -0.7911  0.7509  0.8071
  128MOL0     H17261  10.102  -0.396   3.806  1.4657  0.9795 -0.9095
  128MOL0     H17262  10.486  -0.043   3.487  0.0994 -0.3699  0.1123
  128MOL0     H17263  10.710  -0.102   3.417 -0.6441  0.1749  0.3216
  128MOL0     H17264  11.013   0.986   4.541  0.1991 -0.5030  3.9604
  128MOL0     H17265  10.931   1.156   4.721  2.1072  0.7193 -0.8439
  128MOL0     H17266  10.693   1.343   4.935 -0.7513  0.4532 -1.7612
  128MOL0     H17267  10.618   1.476   5.147 -2.4206 -0.0680 -1.5463
  128MOL0     H17268  10.637   1.648   5.331 -1.7394 -2.2548  0.0989
  128MOL0     H17269  10.485   1.626   5.254 -1.9484  1.2689  2.4433
  128MOL0     H17270  10.585   1.845   5.428  0.4889 -0.1528  0.2145
  128MOL0     H17271  10.449   1.744   5.458  1.1840  2.4543  1.7144
  128MOL0     H17272  10.345   1.933   5.384  0.1464  0.6482  1.2443
  128MOL0     H17273  10.367   1.875   5.221 -0.5129 -1.6173  1.1057
  128MOL0     H17274  10.556   2.072   5.366  2.4219 -0.9360 -1.7498
  128MOL0     H17275  10.579   2.004   5.213  1.0235 -0.7652  2.9275
  128MOL0     H17276  10.287   2.307   5.166 -1.4472 -1.4399 -0.6203
  128MOL0     H17277  10.751   1.836   4.953  0.9463 -0.7130  0.2316
  128MOL0     H17278  10.950   1.719   4.753  0.2021 -1.4080 -0.2678
  128MOL0     H17279  10.839   1.681   4.638  0.2503  0.8397 -0.1724
  128MOL0     H17280  10.831   1.841   4.732  0.4668  0.1532 -2.4894
  129MOL0     O17281   4.376   0.641   5.922 -0.1342  0.5643  0.6627
  129MOL0     C17282   4.343   0.700   5.814 -0.1267  0.0436 -0.1266
  129MOL0     O17283   4.424   0.728   5.708 -1.0725 -0.0708 -0.4855
  129MOL0     C17284   4.546   0.666   5.702 -0.0308  0.1558 -0.5325
  129MOL0     C17285   4.549   0.529   5.679 -0.1671 -0.5708  0.2977
  129MOL0     C17286   4.666   0.450   5.655 -0.0584 -0.6773 -0.7823
  129MOL0     C17287   4.785   0.515   5.655 -0.1819  0.7784  0.3170
  129MOL0     O17288   4.893   0.444   5.600  0.0681 -0.5949  0.3665
  129MOL0     C17289   5.017   0.514   5.584 -0.1403 -1.2280  0.3963
  129MOL0     C17290   5.008   0.591   5.447  0.3422  0.9593 -0.5064
  129MOL0     C17291   5.128   0.562   5.366  0.5514 -0.6726 -0.5868
  129MOL0     C17292   5.247   0.626   5.444 -0.5277 -0.7025 -0.2143
  129MOL0     C17293   5.372   0.624   5.353 -0.4288  0.5772  0.1605
  129MOL0     C17294   5.478   0.722   5.404 -0.4136  0.5252 -0.3140
  129MOL0     C17295   5.598   0.707   5.310 -0.3178 -0.1448  0.0197
  129MOL0     C17296   5.690   0.827   5.341  0.0613 -0.3145  0.0788
  129MOL0     N17297   5.651   0.961   5.289  0.0953 -1.4419 -0.2933
  129MOL0     C17298   5.726   1.079   5.276 -0.0521 -0.9750  0.6192
  129MOL0     C17299   5.659   1.171   5.201  0.5471 -0.0965  0.1859
  129MOL0     C17300   5.700   1.308   5.171  0.3072 -0.7763 -0.7121
  129MOL0     C17301   5.706   1.396   5.295 -0.8944 -0.2640 -0.6077
  129MOL0     C17302   5.561   1.431   5.343  0.3470 -0.3326 -0.0839
  129MOL0     C17303   5.571   1.572   5.415  0.1723 -0.7112 -0.1364
  129MOL0     O17304   5.445   1.639   5.442  0.2349  0.4987  0.4700
  129MOL0     C17305   5.456   1.755   5.516 -0.1006 -0.4281 -0.2997
  129MOL0     C17306   5.557   1.847   5.519 -0.6607  0.1671 -0.3587
  129MOL0     C17307   5.559   1.961   5.606  0.6241  0.0355  0.2462
  129MOL0     C17308   5.448   1.984   5.691  0.3604  0.4045 -0.7414
  129MOL0     C17309   5.429   2.098   5.785 -0.1271 -1.2937 -0.8604
  129MOL0     O17310   5.340   2.100   5.886 -0.5547  1.3176 -0.3121
  129MOL0     C17311   5.334   2.200   5.979 -0.0352  0.7075  0.2823
  129MOL0     C17312   5.365   2.328   5.950 -0.0386 -0.4378 -0.2732
  129MOL0     C17313   5.356   2.427   6.055 -1.2405  0.8794 -0.3712
  129MOL0     C17314   5.317   2.392   6.182  0.1784 -0.4571  0.1400
  129MOL0     O17315   5.314   2.486   6.277 -0.4778 -0.3185 -0.4223
  129MOL0     C17316   5.307   2.458   6.419  0.2750 -0.4573  0.0870
  129MOL0     C17317   5.348   2.574   6.502  0.9120  0.0109 -0.1908
  129MOL0     C17318   5.496   2.600   6.479 -0.2123 -0.3394 -0.1596
  129MOL0     C17319   5.549   2.683   6.591 -0.4178 -0.4522  0.2407
  129MOL0     C17320   5.700   2.670   6.614  0.0683  0.8168  0.2247
  129MOL0     C17321   5.733   2.724   6.755 -0.4248 -0.7334 -0.2942
  129MOL0     C17322   5.883   2.720   6.772  0.4666  0.1470  0.0450
  129MOL0     C17323   5.921   2.775   6.910  0.1432  0.0989  0.0939
  129MOL0    Cl17324   5.872   2.949   6.947 -0.3063  0.0659 -0.2839
  129MOL0     C17325   5.267   2.262   6.203  0.3657  0.4761  0.1043
  129MOL0     C17326   5.280   2.172   6.102  0.0453  0.6400 -0.1056
  129MOL0     O17327   5.514   2.187   5.760  0.0596 -0.5043 -0.6019
  129MOL0     C17328   5.338   1.892   5.685  1.1652  0.0877 -0.3391
  129MOL0     C17329   5.347   1.774   5.608 -0.7933  0.6217  0.5120
  129MOL0     N17330   5.540   1.112   5.156 -0.5422 -0.8856 -0.2910
  129MOL0     N17331   5.533   0.992   5.215  0.3537 -0.2598 -0.2708
  129MOL0     C17332   4.786   0.659   5.688 -0.2237 -0.0114 -0.3489
  129MOL0     C17333   4.663   0.737   5.710  0.0008 -0.3302 -0.4612
  129MOL0     C17334   4.205   0.753   5.822 -0.4882 -0.3847 -1.3137
  129MOL0     C17335   4.106   0.657   5.856 -1.2660 -0.0730 -0.6791
  129MOL0     C17336   3.978   0.720   5.873 -0.1925 -0.2461 -0.7644
  129MOL0     C17337   3.945   0.864   5.846  0.6853 -0.0682  0.2778
  129MOL0     O17338   3.821   0.910   5.887 -0.3130  0.6148 -0.0139
  129MOL0     C17339   3.779   1.034   5.833 -0.4478  0.6196  1.0628
  129MOL0     C17340   3.636   1.058   5.879 -0.2452  0.4614  0.0283
  129MOL0     C17341   3.542   0.938   5.874 -0.0576 -0.1629  0.0444
  129MOL0     C17342   3.396   0.981   5.877  0.2988  0.5525  0.3490
  129MOL0     C17343   3.380   1.043   6.005  0.2202  0.2256 -0.2656
  129MOL0     C17344   3.345   1.088   6.122 -0.4712 -1.0500  0.5042
  129MOL0     C17345   4.047   0.940   5.790 -0.1558  0.1026  0.4069
  129MOL0     C17346   4.180   0.890   5.777 -0.3244 -0.6133 -0.1132
  129MOL0     C17347   4.286   0.990   5.747 -0.7991 -0.4957 -1.0000
  129MOL0     H17348   4.461   0.465   5.679  0.1885 -1.0773  1.4250
  129MOL0     H17349   4.661   0.343   5.637 -2.4546 -1.0286  1.3009
  129MOL0     H17350   5.052   0.586   5.658 -0.1325 -1.0339  0.2067
  129MOL0     H17351   5.093   0.437   5.579 -0.3726 -1.6641  2.7026
  129MOL0     H17352   4.996   0.698   5.468 -3.7959  0.5434  0.0142
  129MOL0     H17353   4.924   0.563   5.384  1.6817  0.1512 -2.0172
  129MOL0     H17354   5.111   0.611   5.269 -4.9913 -0.8012  0.0027
  129MOL0     H17355   5.143   0.456   5.344 -0.6781 -0.7115 -1.3548
  129MOL0     H17356   5.221   0.731   5.462 -1.2743 -0.6551 -1.4905
  129MOL0     H17357   5.263   0.585   5.544 -1.0075 -0.9249 -0.2250
  129MOL0     H17358   5.409   0.523   5.337  0.1490  1.3117 -5.2370
  129MOL0     H17359   5.344   0.649   5.250 -1.0867 -1.8984 -0.3132
  129MOL0     H17360   5.438   0.824   5.405 -0.0057  0.6903 -0.6142
  129MOL0     H17361   5.506   0.688   5.504 -2.1458  0.6513  0.2480
  129MOL0     H17362   5.571   0.694   5.204  1.7058 -0.7161 -0.4800
  129MOL0     H17363   5.653   0.616   5.334 -1.2494 -1.3569 -2.0885
  129MOL0     H17364   5.703   0.827   5.449 -1.8411 -0.6136  0.3334
  129MOL0     H17365   5.779   0.790   5.288 -1.7394 -1.8841 -2.0532
  129MOL0     H17366   5.824   1.089   5.322  1.2508 -2.1896 -1.7102
  129MOL0     H17367   5.805   1.291   5.146  0.4601 -0.8086 -0.0626
  129MOL0     H17368   5.645   1.352   5.087 -0.8517 -0.9923 -0.0835
  129MOL0     H17369   5.760   1.346   5.376 -1.3802 -2.4088 -1.5333
  129MOL0     H17370   5.774   1.473   5.259  0.9758 -1.8131 -0.5509
  129MOL0     H17371   5.520   1.364   5.419 -1.8546  2.0932  1.0080
  129MOL0     H17372   5.493   1.458   5.262 -0.9579  3.5010  2.0164
  129MOL0     H17373   5.614   1.632   5.334 -1.2245 -1.3181 -1.3755
  129MOL0     H17374   5.631   1.567   5.506  1.9883  3.2477 -0.9220
  129MOL0     H17375   5.645   1.830   5.458  0.4598  2.8726  0.3250
  129MOL0     H17376   5.637   2.036   5.604  0.7682 -0.0637  1.4318
  129MOL0     H17377   5.397   2.363   5.852 -1.0510  0.8607 -0.1710
  129MOL0     H17378   5.375   2.532   6.037  1.5782  0.1773 -2.1229
  129MOL0     H17379   5.204   2.430   6.444 -0.3471  2.7188  1.5898
  129MOL0     H17380   5.379   2.382   6.450  0.9507 -0.3418 -1.1502
  129MOL0     H17381   5.288   2.660   6.471  3.9804  2.5800  0.5179
  129MOL0     H17382   5.324   2.549   6.606  0.5240 -3.4598 -0.9702
  129MOL0     H17383   5.554   2.508   6.475  2.5031  1.2955 -1.3254
  129MOL0     H17384   5.514   2.655   6.386  1.0904 -1.8536 -0.8551
  129MOL0     H17385   5.496   2.670   6.686 -3.6172  1.4392 -1.1155
  129MOL0     H17386   5.530   2.785   6.555 -0.6814 -1.0069 -1.2198
  129MOL0     H17387   5.756   2.724   6.538  1.5794 -2.5798 -1.2790
  129MOL0     H17388   5.730   2.566   6.603  1.6097  1.4149 -1.8467
  129MOL0     H17389   5.691   2.824   6.770 -0.8073 -0.4042 -2.9746
  129MOL0     H17390   5.689   2.644   6.815  2.0923 -0.4691  2.0938
  129MOL0     H17391   5.934   2.781   6.698 -2.1416  4.0617  1.1636
  129MOL0     H17392   5.921   2.617   6.767  2.7555  0.7453  2.7228
  129MOL0     H17393   5.871   2.706   6.977 -2.5465  0.1035 -1.7418
  129MOL0     H17394   6.030   2.774   6.920 -0.0682 -0.7215  3.1150
  129MOL0     H17395   5.218   2.227   6.293 -1.2660  2.5895  0.1335
  129MOL0     H17396   5.228   2.078   6.117 -0.3145  0.9501  0.6954
  129MOL0     H17397   5.252   1.903   5.750  0.0694 -1.1068 -1.5268
  129MOL0     H17398   5.283   1.688   5.596  0.1740  0.0473 -0.9103
  129MOL0     H17399   4.875   0.719   5.676  1.6145 -2.4750  0.1618
  129MOL0     H17400   4.666   0.845   5.710  2.3275 -0.2638  2.2968
  129MOL0     H17401   4.133   0.553   5.868 -2.8173 -0.4144 -0.0319
  129MOL0     H17402   3.894   0.655   5.895 -0.5913  0.1722 -1.0257
  129MOL0     H17403   3.778   1.023   5.724 -0.5452 -1.7684  1.2442
  129MOL0     H17404   3.853   1.110   5.857  1.0013 -0.4212  0.0584
  129MOL0     H17405   3.598   1.141   5.818 -1.0817 -0.2609 -0.4606
  129MOL0     H17406   3.642   1.093   5.982  2.3960 -0.3589  0.2090
  129MOL0     H17407   3.561   0.871   5.959 -0.3637 -0.2751  0.0273
  129MOL0     H17408   3.546   0.868   5.790 -2.3948 -0.1834 -0.1392
  129MOL0     H17409   3.377   1.058   5.802 -1.5775  2.4114  2.5942
  129MOL0     H17410   3.322   0.900   5.872 -0.1507  0.9492  0.5770
  129MOL0     H17411   3.309   1.135   6.212 -2.0031  0.4059 -0.7985
  129MOL0     H17412   4.028   1.043   5.761  1.3910  1.6008  4.0927
  129MOL0     H17413   4.257   1.096   5.749 -2.6427 -0.9688  0.0525
  129MOL0     H17414   4.373   0.978   5.813 -1.5796 -0.3497  0.0972
  129MOL0     H17415   4.324   0.971   5.647 -0.9493 -2.5759 -0.7064
  130MOL0     O17416   1.246   3.006  10.053 -0.0741  0.5307 -0.5415
  130MOL0     C17417   1.350   3.066  10.075  0.2882 -0.5748 -0.2312
  130MOL0     O17418   1.475   3.023  10.047 -0.0016 -0.0826  0.1611
  130MOL0     C17419   1.504   2.905   9.971  0.3061 -0.8137  0.0213
  130MOL0     C17420   1.427   2.785   9.961 -0.2546 -0.5022  0.2635
  130MOL0     C17421   1.492   2.665   9.904  0.3706 -0.4600 -0.9256
  130MOL0     C17422   1.631   2.662   9.870  0.9322  0.8758 -1.1847
  130MOL0     O17423   1.698   2.555   9.822 -0.2817 -0.2304  0.4733
  130MOL0     C17424   1.618   2.441   9.788 -0.4105 -0.5024  0.4520
  130MOL0     C17425   1.719   2.328   9.734 -0.3296  0.1985 -0.2028
  130MOL0     C17426   1.827   2.298   9.838  0.4691 -0.5162 -0.2274
  130MOL0     C17427   1.918   2.197   9.779 -0.5954  0.9464  0.1136
  130MOL0     C17428   2.063   2.204   9.838  0.7993 -0.5725  0.4281
  130MOL0     C17429   2.130   2.081   9.767  0.1953  0.5130 -0.8648
  130MOL0     C17430   2.274   2.083   9.810 -0.9555 -0.1106 -0.4568
  130MOL0     C17431   2.357   1.970   9.757 -0.6086  0.2622  1.2697
  130MOL0     N17432   2.479   1.943   9.834 -0.1835 -0.3229  1.0972
  130MOL0     C17433   2.596   1.898   9.787  0.0796  0.0777 -0.3070
  130MOL0     C17434   2.661   1.846   9.894  0.2100 -0.9379  0.7776
  130MOL0     C17435   2.793   1.769   9.909  0.4549  0.5200  0.7039
  130MOL0     C17436   2.905   1.870   9.936  0.0884  0.3764 -0.5800
  130MOL0     C17437   3.032   1.801   9.971  0.1721  0.2496  0.0990
  130MOL0     C17438   3.114   1.876  10.071  0.5287  1.0206 -0.2967
  130MOL0     O17439   3.228   1.792  10.105 -0.3167 -0.2334  0.1415
  130MOL0     C17440   3.337   1.846  10.167 -1.2130 -0.5571 -0.5346
  130MOL0     C17441   3.343   1.973  10.232  0.0218  0.5378  0.8446
  130MOL0     C17442   3.465   2.011  10.309 -0.1827  0.6951 -0.1598
  130MOL0     C17443   3.570   1.918  10.315 -1.2233  1.2187 -0.0610
  130MOL0     C17444   3.689   1.943  10.403  0.3360  0.2314 -0.0585
  130MOL0     O17445   3.771   1.841  10.411 -0.0865 -0.6081 -0.9674
  130MOL0     C17446   3.896   1.860  10.467  1.4750  0.2468  0.1555
  130MOL0     C17447   3.970   1.977  10.440  0.3562 -0.4892  0.0959
  130MOL0     C17448   4.102   1.987  10.483  0.1342 -0.9193 -0.1334
  130MOL0     C17449   4.163   1.876  10.532 -0.6525  1.0330  0.4667
  130MOL0     O17450   4.294   1.877  10.579  0.9259 -0.2264  0.0708
  130MOL0     C17451   4.328   1.988  10.664 -0.4101 -0.3010  0.1576
  130MOL0     C17452   4.476   1.979  10.711  0.4177  1.2208 -0.1333
  130MOL0     C17453   4.583   2.010  10.609  0.0769  0.9173 -0.7607
  130MOL0     C17454   4.638   1.883  10.544  0.6445 -0.3794 -0.1465
  130MOL0     C17455   4.715   1.927  10.430 -0.3347 -0.2794  0.1830
  130MOL0     C17456   4.795   1.797  10.384  0.4584  0.0696  0.3041
  130MOL0     C17457   4.884   1.835  10.257 -0.1978 -0.0538 -0.2125
  130MOL0     C17458   5.036   1.833  10.295  1.6140 -0.3661  0.1669
  130MOL0    Cl17459   5.103   1.666  10.299  0.6537  0.0852 -0.0315
  130MOL0     C17460   4.096   1.760  10.553 -0.5575  0.2282  0.5623
  130MOL0     C17461   3.959   1.752  10.535  0.4618 -0.5655 -0.1751
  130MOL0     O17462   3.700   2.052  10.464  0.1678 -0.0443  0.1194
  130MOL0     C17463   3.556   1.792  10.253  0.2807  0.2534  1.2097
  130MOL0     C17464   3.439   1.755  10.176 -1.0584  0.3781  0.3139
  130MOL0     N17465   2.576   1.849   9.998 -0.7283 -1.1362 -0.2004
  130MOL0     N17466   2.472   1.916   9.967 -0.3957 -0.8606 -0.7117
  130MOL0     C17467   1.705   2.784   9.892  0.6630 -0.0528 -0.5409
  130MOL0     C17468   1.643   2.901   9.944  0.5238 -0.2533  0.8042
  130MOL0     C17469   1.343   3.188  10.150  0.1235 -1.6572 -0.3791
  130MOL0     C17470   1.216   3.242  10.185  0.3736  0.0019  0.6595
  130MOL0     C17471   1.189   3.365  10.239 -1.1756 -0.3051  0.1717
  130MOL0     C17472   1.301   3.449  10.258 -0.0146 -0.4023 -1.0435
  130MOL0     O17473   1.293   3.564  10.328  0.1125 -0.0489  0.1991
  130MOL0     C17474   1.161   3.618  10.354 -0.1983 -0.4092  0.4381
  130MOL0     C17475   1.166   3.766  10.397  0.6226  1.2176 -0.5434
  130MOL0     C17476   1.140   3.877  10.293  0.9074 -1.0553  0.1514
  130MOL0     C17477   1.250   3.883  10.186  0.0716 -0.3984  1.2939
  130MOL0     C17478   1.247   3.777  10.083 -0.1739 -0.0532 -0.3148
  130MOL0     C17479   1.248   3.693   9.999  0.1604  0.6367  0.0097
  130MOL0     C17480   1.434   3.403  10.227 -1.1742  0.1744 -0.1897
  130MOL0     C17481   1.459   3.274  10.173  0.1552 -0.0127 -0.0082
  130MOL0     C17482   1.605   3.241  10.150 -0.0889  0.0510  1.1138
  130MOL0     H17483   1.325   2.779   9.998  0.0040 -0.6772  0.9716
  130MOL0     H17484   1.434   2.579   9.872  1.6164 -1.5433 -0.3601
  130MOL0     H17485   1.574   2.404   9.881  4.0009 -0.0198  3.0299
  130MOL0     H17486   1.554   2.456   9.700  3.3440  1.3470 -2.2310
  130MOL0     H17487   1.756   2.350   9.633 -1.2644 -0.0495 -0.6103
  130MOL0     H17488   1.665   2.236   9.714  2.3506 -1.5849  0.2011
  130MOL0     H17489   1.776   2.255   9.925  0.8865  2.1639  1.4524
  130MOL0     H17490   1.882   2.388   9.868 -0.3158 -0.3369  0.7097
  130MOL0     H17491   1.881   2.094   9.780 -0.1120  0.7121 -1.8946
  130MOL0     H17492   1.936   2.230   9.677  1.7502  0.7019  0.3827
  130MOL0     H17493   2.122   2.290   9.805  1.2085 -1.0251 -0.0473
  130MOL0     H17494   2.068   2.205   9.947  0.9335  1.1685  0.4424
  130MOL0     H17495   2.078   1.991   9.801 -1.9494  1.5645 -1.1677
  130MOL0     H17496   2.118   2.079   9.659 -1.1622  0.4484 -0.7334
  130MOL0     H17497   2.277   2.069   9.918  3.5486 -2.6108 -0.6806
  130MOL0     H17498   2.320   2.178   9.779 -2.4148  0.9862  0.5909
  130MOL0     H17499   2.303   1.875   9.762 -1.9066  1.0426  3.0383
  130MOL0     H17500   2.387   1.983   9.652 -0.5572 -1.7500  0.9870
  130MOL0     H17501   2.629   1.898   9.683  1.6132  1.0623  0.1483
  130MOL0     H17502   2.784   1.694   9.988  1.8474  1.2724  1.6178
  130MOL0     H17503   2.808   1.730   9.808  3.8612 -0.0502  1.3244
  130MOL0     H17504   2.914   1.931   9.846  1.4287 -1.1192 -1.5116
  130MOL0     H17505   2.889   1.930  10.026  2.4846  1.3924 -0.7645
  130MOL0     H17506   3.088   1.788   9.877  0.6418  2.1929  0.0719
  130MOL0     H17507   3.015   1.700  10.008 -1.7341  0.7924  0.8039
  130MOL0     H17508   3.056   1.897  10.162  1.3841 -0.7997  0.7264
  130MOL0     H17509   3.141   1.975  10.033  0.9690  2.1830  2.7061
  130MOL0     H17510   3.260   2.043  10.226  0.7045  1.2653 -0.5655
  130MOL0     H17511   3.477   2.103  10.365  1.1306  0.0055  0.7317
  130MOL0     H17512   3.931   2.055  10.374 -0.8944 -1.9575 -0.9803
  130MOL0     H17513   4.158   2.077  10.458 -1.7461  0.4890  0.4445
  130MOL0     H17514   4.322   2.087  10.617 -1.7953 -0.3228  0.2473
  130MOL0     H17515   4.247   1.992  10.737 -1.1638  1.0093 -0.7034
  130MOL0     H17516   4.504   2.045  10.793  1.7040  2.8964 -1.8301
  130MOL0     H17517   4.489   1.880  10.756 -3.2672  0.7003  0.0782
  130MOL0     H17518   4.536   2.062  10.525  1.1701 -0.5918 -2.3722
  130MOL0     H17519   4.663   2.062  10.662  1.8850 -2.5043  0.2025
  130MOL0     H17520   4.555   1.820  10.513 -1.4876  2.5474 -0.7793
  130MOL0     H17521   4.700   1.833  10.620 -2.4914 -1.5639  1.8288
  130MOL0     H17522   4.784   2.006  10.464 -1.9828  0.8102  1.1888
  130MOL0     H17523   4.656   1.955  10.342 -0.5344  0.8143  0.6434
  130MOL0     H17524   4.862   1.753  10.457 -0.3203 -2.2170 -0.2856
  130MOL0     H17525   4.728   1.714  10.363  0.5814  0.1321 -0.3437
  130MOL0     H17526   4.860   1.936  10.224  2.9533  2.1789  3.5967
  130MOL0     H17527   4.859   1.756  10.185  2.0551 -1.4240  0.4092
  130MOL0     H17528   5.085   1.898  10.222 -2.4213  1.5527 -1.0924
  130MOL0     H17529   5.042   1.883  10.392  1.5951  2.4078 -1.1571
  130MOL0     H17530   4.148   1.686  10.613 -0.4928 -0.1456  0.0453
  130MOL0     H17531   3.918   1.655  10.560 -0.1077  0.2063  2.1212
  130MOL0     H17532   3.637   1.720  10.252 -2.0338 -2.5655  2.5960
  130MOL0     H17533   3.437   1.662  10.121  1.0112  1.1324 -1.1869
  130MOL0     H17534   1.812   2.776   9.875  0.8247  1.5782 -0.4404
  130MOL0     H17535   1.700   2.989   9.971 -0.4790  0.6137  0.1809
  130MOL0     H17536   1.130   3.181  10.158 -1.1230  1.1870  2.4970
  130MOL0     H17537   1.088   3.392  10.268 -0.3862  1.3489  1.5332
  130MOL0     H17538   1.110   3.565  10.435  0.8274  1.6954  2.5786
  130MOL0     H17539   1.101   3.612  10.262 -3.0931  2.8677  1.8707
  130MOL0     H17540   1.268   3.772  10.436  0.8792 -1.1953 -0.6869
  130MOL0     H17541   1.098   3.794  10.478  0.4459  1.7408 -0.8657
  130MOL0     H17542   1.142   3.974  10.343  0.9577 -1.3716  0.7627
  130MOL0     H17543   1.044   3.864  10.242  0.9921 -2.5399  0.3296
  130MOL0     H17544   1.243   3.982  10.140 -0.2506 -0.3852  1.3683
  130MOL0     H17545   1.347   3.877  10.236  0.0550 -0.2733  1.3430
  130MOL0     H17546   1.239   3.608   9.935 -0.1103  1.4015 -0.9978
  130MOL0     H17547   1.522   3.456  10.264 -0.3224 -1.8491  0.8123
  130MOL0     H17548   1.632   3.251  10.044  1.9948 -0.6708  1.5257
  130MOL0     H17549   1.684   3.305  10.192  1.4066  0.0842 -1.4963
  130MOL0     H17550   1.633   3.148  10.200  0.9312 -0.8402 -0.9651
  131MOL0     O17551   7.908   6.089   9.668  0.7319 -0.6948  0.6175
  131MOL0     C17552   7.948   6.002   9.741 -0.8550  0.2484  0.2573
  131MOL0     O17553   7.873   5.903   9.808 -0.2053 -0.2550 -0.6459
  131MOL0     C17554   7.744   5.891   9.787 -0.2572 -1.1737  0.3539
  131MOL0     C17555   7.686   5.877   9.655 -0.9268 -0.3913  0.4905
  131MOL0     C17556   7.550   5.846   9.641 -0.5268  0.5393  0.0807
  131MOL0     C17557   7.476   5.823   9.759  0.5096  0.3636 -0.4490
  131MOL0     O17558   7.334   5.805   9.759  0.8206 -1.0445  0.1262
  131MOL0     C17559   7.261   5.728   9.656 -0.3142  0.0702  0.4944
  131MOL0     C17560   7.115   5.765   9.667 -0.1038 -0.1538 -0.2275
  131MOL0     C17561   7.063   5.740   9.812 -0.4502 -0.2414  0.7468
  131MOL0     C17562   6.921   5.800   9.820  0.2315 -0.5952 -0.4857
  131MOL0     C17563   6.856   5.770   9.957 -1.1446  0.2664 -1.0295
  131MOL0     C17564   6.706   5.812   9.962 -0.2333 -0.6005 -0.9144
  131MOL0     C17565   6.651   5.747  10.094 -0.1481  0.1285 -0.2829
  131MOL0     C17566   6.494   5.757  10.093 -0.3479 -0.5380 -0.0489
  131MOL0     N17567   6.416   5.635  10.053  0.5854 -0.1880 -0.1834
  131MOL0     C17568   6.441   5.559   9.938 -0.0708  0.0703  0.1463
  131MOL0     C17569   6.338   5.465   9.960  0.0192 -0.7519  0.7183
  131MOL0     C17570   6.312   5.351   9.857  0.4501 -0.1658 -0.0628
  131MOL0     C17571   6.284   5.389   9.708 -0.2682 -0.2360 -0.0126
  131MOL0     C17572   6.234   5.272   9.610 -0.3999  0.3072  0.3422
  131MOL0     C17573   6.091   5.240   9.625  0.9922 -0.2067  0.5345
  131MOL0     O17574   6.014   5.366   9.608 -0.0892  0.5663  0.1520
  131MOL0     C17575   5.885   5.375   9.641 -0.3026  1.3998  0.3533
  131MOL0     C17576   5.845   5.506   9.653  0.0165 -0.5417  0.1468
  131MOL0     C17577   5.710   5.525   9.680 -0.0316  0.0931  1.3511
  131MOL0     C17578   5.626   5.416   9.714 -0.3060  1.0857  0.5676
  131MOL0     C17579   5.488   5.440   9.763 -0.1507 -0.7318 -0.1219
  131MOL0     O17580   5.395   5.340   9.749  0.5047 -0.0987  1.6287
  131MOL0     C17581   5.273   5.320   9.809 -0.4548 -0.0351  1.0518
  131MOL0     C17582   5.201   5.204   9.759  0.4289  0.2516  0.9533
  131MOL0     C17583   5.073   5.193   9.811 -1.5388 -0.2092  0.1755
  131MOL0     C17584   5.025   5.284   9.909 -1.2299 -0.0709  0.8074
  131MOL0     O17585   4.891   5.269   9.936 -0.7206 -0.1867  0.2654
  131MOL0     C17586   4.836   5.345  10.041 -0.0677  0.5271 -1.2785
  131MOL0     C17587   4.686   5.310  10.062 -0.2456  0.1413 -0.7704
  131MOL0     C17588   4.588   5.351   9.951  0.3314  0.3246  0.4373
  131MOL0     C17589   4.542   5.228   9.860 -0.7116  0.3495  0.9926
  131MOL0     C17590   4.494   5.277   9.720  0.6610  0.5325  1.0118
  131MOL0     C17591   4.341   5.314   9.715  0.3608  0.0262  0.5366
  131MOL0     C17592   4.280   5.343   9.571  0.2603  0.5602 -0.1542
  131MOL0     C17593   4.369   5.432   9.484  1.4112  0.4680 -0.2580
  131MOL0    Cl17594   4.423   5.590   9.574 -0.3603 -0.0453  0.1625
  131MOL0     C17595   5.100   5.387   9.966 -0.1265 -1.1959 -0.0112
  131MOL0     C17596   5.229   5.409   9.915  0.4213 -0.8396 -0.0890
  131MOL0     O17597   5.463   5.548   9.813 -0.2626 -0.8516  1.0109
  131MOL0     C17598   5.676   5.282   9.704  0.2726 -0.1305 -0.2998
  131MOL0     C17599   5.807   5.261   9.665 -0.3944  0.2415 -0.4941
  131MOL0     N17600   6.265   5.480  10.077  0.5730 -0.6108  1.0198
  131MOL0     N17601   6.316   5.586  10.130  0.4956  0.6513 -0.3325
  131MOL0     C17602   7.533   5.844   9.884 -0.4547 -0.2752  0.7807
  131MOL0     C17603   7.674   5.865   9.907  0.2921  0.0315  0.8752
  131MOL0     C17604   8.100   5.981   9.749 -0.5215  0.2254 -0.9625
  131MOL0     C17605   8.140   5.853   9.771 -0.4594  0.5326 -0.8936
  131MOL0     C17606   8.272   5.818   9.775  0.8649  0.6387 -0.2317
  131MOL0     C17607   8.373   5.918   9.750  0.0526 -0.2887 -0.0546
  131MOL0     O17608   8.506   5.870   9.775 -0.3624 -0.2830  0.4817
  131MOL0     C17609   8.602   5.959   9.832 -0.1289 -0.7860 -0.3121
  131MOL0     C17610   8.624   5.943   9.978 -0.5709 -0.1672 -0.3829
  131MOL0     C17611   8.498   5.930  10.060  0.1379 -0.2153  0.1439
  131MOL0     C17612   8.518   5.877  10.203  0.3447  0.1406  0.3944
  131MOL0     C17613   8.643   5.916  10.273  0.5614  1.0464 -0.2241
  131MOL0     C17614   8.748   5.949  10.327 -0.1312  0.5539 -0.1988
  131MOL0     C17615   8.341   6.048   9.724 -0.1663 -0.3437 -0.0070
  131MOL0     C17616   8.206   6.082   9.732 -0.3070  0.3695  0.2854
  131MOL0     C17617   8.167   6.223   9.726  0.3569 -0.9003 -0.9879
  131MOL0     H17618   7.753   5.881   9.570 -0.6976 -2.6134  0.5180
  131MOL0     H17619   7.512   5.828   9.541  1.5962 -0.2301 -0.6494
  131MOL0     H17620   7.303   5.740   9.556 -2.2239  3.1752 -0.0731
  131MOL0     H17621   7.268   5.621   9.678  2.3997  0.3223  1.2047
  131MOL0     H17622   7.059   5.704   9.595  0.0654 -1.5094  0.7554
  131MOL0     H17623   7.093   5.870   9.647 -1.0838 -0.4724 -0.9218
  131MOL0     H17624   7.122   5.774   9.898  3.3191 -2.7041 -0.6288
  131MOL0     H17625   7.061   5.632   9.823  4.0476 -0.3146  3.4408
  131MOL0     H17626   6.933   5.907   9.804  3.7518 -1.1143 -2.0603
  131MOL0     H17627   6.855   5.749   9.748  0.5543  0.0108 -1.2122
  131MOL0     H17628   6.858   5.662   9.973 -2.0917  0.2760 -0.7555
  131MOL0     H17629   6.913   5.817  10.037  0.1645 -2.7050 -0.0545
  131MOL0     H17630   6.704   5.921   9.964  3.4269 -0.3440  3.8012
  131MOL0     H17631   6.652   5.770   9.876  0.0687 -0.7219 -1.0487
  131MOL0     H17632   6.692   5.798  10.182  3.5929  0.0677 -1.7848
  131MOL0     H17633   6.690   5.646  10.106  2.0475  0.8428 -0.8213
  131MOL0     H17634   6.467   5.784  10.196  0.7238 -3.2945  1.0747
  131MOL0     H17635   6.472   5.840  10.026  1.1692  0.4371  0.6232
  131MOL0     H17636   6.493   5.571   9.844  0.8232  1.1757  0.7528
  131MOL0     H17637   6.385   5.270   9.862 -1.5705 -2.1093 -0.3054
  131MOL0     H17638   6.226   5.292   9.889  1.6350 -0.8285  2.0612
  131MOL0     H17639   6.201   5.459   9.703 -1.7992 -2.0550 -3.4539
  131MOL0     H17640   6.375   5.434   9.667  2.0872 -2.3901  2.3943
  131MOL0     H17641   6.305   5.191   9.631  0.2656 -0.2684 -3.5354
  131MOL0     H17642   6.258   5.296   9.507  0.2253 -2.4561 -0.2392
  131MOL0     H17643   6.074   5.192   9.722 -0.5988  0.1418  0.4524
  131MOL0     H17644   6.054   5.168   9.551 -1.2436  0.8235  0.5927
  131MOL0     H17645   5.913   5.589   9.639 -0.2085 -0.4978 -0.7618
  131MOL0     H17646   5.658   5.620   9.682 -1.8150 -0.7511 -0.6867
  131MOL0     H17647   5.250   5.148   9.681  1.4049  1.4436  0.6694
  131MOL0     H17648   5.006   5.119   9.769 -1.8629 -0.2062  0.6813
  131MOL0     H17649   4.878   5.300  10.132  1.3659  1.0638 -1.6459
  131MOL0     H17650   4.857   5.452  10.033  0.8783  0.4206 -0.4773
  131MOL0     H17651   4.675   5.203  10.086  1.7230 -0.2011 -1.2581
  131MOL0     H17652   4.637   5.364  10.143 -2.3237 -2.1336 -0.3688
  131MOL0     H17653   4.505   5.392  10.009  0.7692  1.5604  0.2194
  131MOL0     H17654   4.631   5.428   9.887 -1.7667  0.2421 -1.2090
  131MOL0     H17655   4.465   5.173   9.914 -1.3397  0.2614  0.0437
  131MOL0     H17656   4.628   5.165   9.841 -1.8016 -1.1664  0.9271
  131MOL0     H17657   4.512   5.188   9.659  0.0407  1.3802 -0.4552
  131MOL0     H17658   4.555   5.363   9.691 -0.6572  1.8312  1.9227
  131MOL0     H17659   4.290   5.225   9.754  0.0057 -0.7799 -1.6171
  131MOL0     H17660   4.321   5.408   9.767  0.4719  0.7444 -0.6716
  131MOL0     H17661   4.185   5.391   9.594  0.6304  1.3000 -0.1613
  131MOL0     H17662   4.261   5.250   9.516  0.7510 -0.2472  0.9873
  131MOL0     H17663   4.454   5.385   9.434 -0.1457 -1.6709 -1.0555
  131MOL0     H17664   4.308   5.478   9.406  1.1179  1.0630  0.3124
  131MOL0     H17665   5.072   5.461  10.041  2.3287  1.5784 -1.6265
  131MOL0     H17666   5.286   5.480   9.975 -1.3126 -0.4161  1.1565
  131MOL0     H17667   5.617   5.194   9.728  1.0044 -0.3820  0.6688
  131MOL0     H17668   5.842   5.159   9.653 -1.0391 -0.0259 -0.1785
  131MOL0     H17669   7.473   5.847   9.974  2.9508  0.3757  3.2663
  131MOL0     H17670   7.723   5.865  10.003  0.1564  1.7223  0.9833
  131MOL0     H17671   8.065   5.777   9.787 -3.1072  3.6841  4.4260
  131MOL0     H17672   8.299   5.715   9.797 -0.3141 -0.1732 -2.2350
  131MOL0     H17673   8.581   6.064   9.810  0.6329 -0.7759 -1.0547
  131MOL0     H17674   8.693   5.928   9.779  1.1440  2.5851 -0.3841
  131MOL0     H17675   8.683   6.026  10.016 -2.4988  0.6677  0.9300
  131MOL0     H17676   8.683   5.851   9.991 -1.6488 -0.8270 -0.0132
  131MOL0     H17677   8.432   5.859  10.009  1.3170  0.0532 -1.8462
  131MOL0     H17678   8.440   6.023  10.063 -0.4106 -0.5738  1.0162
  131MOL0     H17679   8.427   5.897  10.261 -0.4050  0.7324 -0.9541
  131MOL0     H17680   8.533   5.769  10.201  1.1914  0.2179  1.4361
  131MOL0     H17681   8.840   5.989  10.364  0.0860  1.2697 -1.4421
  131MOL0     H17682   8.413   6.129   9.715  0.9708 -0.7639  3.6190
  131MOL0     H17683   8.129   6.257   9.823 -1.5058  1.4160 -2.4183
  131MOL0     H17684   8.253   6.282   9.693  1.4498 -2.5908 -1.2416
  131MOL0     H17685   8.088   6.246   9.654  0.4682  1.4131 -0.4754
  132MOL0     O17686   4.334   2.897  10.499 -0.3913 -0.2573 -0.4600
  132MOL0     C17687   4.360   2.780  10.518  0.3585  0.2217  0.7502
  132MOL0     O17688   4.349   2.676  10.425 -0.5264 -0.0158 -0.2522
  132MOL0     C17689   4.271   2.695  10.320  0.2715 -0.2688  1.2269
  132MOL0     C17690   4.320   2.647  10.205  0.1177  0.2484 -0.0801
  132MOL0     C17691   4.252   2.651  10.084  1.3144  0.0566 -0.1784
  132MOL0     C17692   4.116   2.705  10.078  0.2278 -1.0954 -1.5174
  132MOL0     O17693   4.030   2.717   9.977  0.6118 -0.3213  0.0787
  132MOL0     C17694   4.067   2.663   9.851  0.8786  0.6448 -0.1182
  132MOL0     C17695   4.100   2.769   9.743 -0.0787 -0.0137 -0.3853
  132MOL0     C17696   4.061   2.734   9.604 -0.6917 -0.4591 -0.4011
  132MOL0     C17697   4.154   2.627   9.538 -1.0955 -0.3817 -0.5266
  132MOL0     C17698   4.114   2.581   9.398 -0.3953 -0.0674  0.3331
  132MOL0     C17699   4.165   2.447   9.344 -0.0758  0.2058 -0.5240
  132MOL0     C17700   4.314   2.419   9.366 -0.5219  0.2417 -0.9082
  132MOL0     C17701   4.360   2.302   9.278  0.1243  0.7155  0.4158
  132MOL0     N17702   4.470   2.221   9.340  1.0363 -0.1187  0.1715
  132MOL0     C17703   4.597   2.267   9.366  0.0936  0.6047  0.8101
  132MOL0     C17704   4.660   2.164   9.429 -0.9743  0.1914  0.3675
  132MOL0     C17705   4.804   2.169   9.487  0.2025 -0.0636 -0.9348
  132MOL0     C17706   4.799   2.223   9.629 -0.8779 -0.0694 -0.7180
  132MOL0     C17707   4.793   2.379   9.631 -0.1149 -0.6530  0.8996
  132MOL0     C17708   4.915   2.464   9.594 -0.0988  0.2414 -1.4973
  132MOL0     O17709   4.926   2.485   9.453  0.3214  0.1857 -0.2970
  132MOL0     C17710   4.839   2.579   9.394 -0.9406  0.2917 -0.8373
  132MOL0     C17711   4.836   2.590   9.255 -0.2598  0.2963 -0.4445
  132MOL0     C17712   4.753   2.690   9.197  0.4712  0.1097  0.3871
  132MOL0     C17713   4.674   2.779   9.275 -0.7291  0.4541  0.5637
  132MOL0     C17714   4.608   2.894   9.212 -0.3224  0.2230 -0.0142
  132MOL0     O17715   4.516   2.956   9.295  0.0390  0.3203  0.2709
  132MOL0     C17716   4.436   3.060   9.251 -0.0315  0.1622 -0.3014
  132MOL0     C17717   4.359   3.055   9.131 -0.2115  1.1463  0.2763
  132MOL0     C17718   4.274   3.164   9.095  0.6545 -0.5586  0.2144
  132MOL0     C17719   4.256   3.276   9.181  0.0664  0.0306  0.0806
  132MOL0     O17720   4.173   3.372   9.131  0.3637 -0.6474  0.3366
  132MOL0     C17721   4.152   3.489   9.211 -0.0653  0.0733  0.0746
  132MOL0     C17722   4.100   3.600   9.125 -0.3041  0.9565 -0.3217
  132MOL0     C17723   3.978   3.556   9.033 -0.3448 -0.7215  0.3545
  132MOL0     C17724   3.916   3.666   8.955 -0.2291  0.3606 -0.3191
  132MOL0     C17725   3.829   3.601   8.846  0.7522  0.1413 -0.8292
  132MOL0     C17726   3.776   3.711   8.752  0.2343  0.0344  0.5563
  132MOL0     C17727   3.712   3.827   8.827  0.9050  0.2927  0.2816
  132MOL0     C17728   3.597   3.886   8.738  0.0528 -0.2646  0.5608
  132MOL0    Cl17729   3.535   4.040   8.806 -0.0188  0.4076  0.1531
  132MOL0     C17730   4.326   3.278   9.302  0.7107  0.6594  0.8855
  132MOL0     C17731   4.413   3.168   9.341  0.8911 -0.5822  1.0831
  132MOL0     O17732   4.636   2.925   9.095 -0.3762  0.1203 -0.4880
  132MOL0     C17733   4.683   2.761   9.414  0.4383  0.6269 -0.2002
  132MOL0     C17734   4.760   2.665   9.470 -0.0082  1.0460 -0.3213
  132MOL0     N17735   4.581   2.053   9.417  0.0681 -0.2653 -0.4204
  132MOL0     N17736   4.473   2.090   9.363  0.5157 -0.4208  1.0907
  132MOL0     C17737   4.076   2.764  10.200  0.6528 -0.9563  0.8511
  132MOL0     C17738   4.148   2.759  10.320  0.2121 -0.6223 -0.2651
  132MOL0     C17739   4.413   2.738  10.657 -0.2656  0.7184  0.1376
  132MOL0     C17740   4.394   2.607  10.709 -0.3198  0.5546  0.3053
  132MOL0     C17741   4.442   2.578  10.832 -0.1390 -0.0066  0.5347
  132MOL0     C17742   4.510   2.663  10.914 -0.0807 -0.8372  0.3617
  132MOL0     O17743   4.559   2.633  11.038 -0.3178  0.1911 -0.2609
  132MOL0     C17744   4.578   2.504  11.082 -0.1245  0.6295  0.2679
  132MOL0     C17745   4.700   2.448  11.015 -0.5615 -0.0326  0.1993
  132MOL0     C17746   4.735   2.310  11.069 -0.0362  0.3518  0.6659
  132MOL0     C17747   4.882   2.259  11.048 -0.5204  0.3315  0.2226
  132MOL0     C17748   4.966   2.323  11.155  0.5445  0.0736  0.0737
  132MOL0     C17749   5.027   2.379  11.246 -0.2314 -0.5461 -0.1202
  132MOL0     C17750   4.533   2.794  10.870 -0.3494  0.7712  0.2951
  132MOL0     C17751   4.484   2.830  10.735 -0.4471 -0.4608 -0.0045
  132MOL0     C17752   4.509   2.974  10.696 -1.0199  0.5349  0.3809
  132MOL0     H17753   4.413   2.594  10.220 -0.8699 -0.9018  2.4901
  132MOL0     H17754   4.292   2.589  10.004  0.9943  0.2795 -0.5137
  132MOL0     H17755   4.133   2.577   9.842 -1.1381 -0.7580 -4.5677
  132MOL0     H17756   3.977   2.612   9.816  0.8213  1.6727 -1.5755
  132MOL0     H17757   4.204   2.803   9.739  0.3345 -1.3027 -3.8694
  132MOL0     H17758   4.040   2.855   9.774  0.6075 -0.3344  2.0918
  132MOL0     H17759   4.083   2.825   9.548  3.6664 -0.8768  0.3295
  132MOL0     H17760   3.953   2.716   9.607 -1.1134  1.8317  0.3295
  132MOL0     H17761   4.256   2.662   9.517 -0.7347 -0.8822  0.3176
  132MOL0     H17762   4.168   2.548   9.612 -2.7936 -0.0853  0.1485
  132MOL0     H17763   4.005   2.576   9.388 -0.3294 -1.2937  0.0805
  132MOL0     H17764   4.152   2.661   9.334 -1.0279 -0.9968 -1.2706
  132MOL0     H17765   4.108   2.366   9.389  0.4871 -1.5488 -2.8323
  132MOL0     H17766   4.155   2.456   9.236 -2.6645 -0.9608 -0.4434
  132MOL0     H17767   4.331   2.402   9.473  2.0531  0.9575 -1.1474
  132MOL0     H17768   4.372   2.502   9.325 -2.4737  1.0268 -2.2478
  132MOL0     H17769   4.271   2.239   9.266  0.7386 -0.2799  0.9365
  132MOL0     H17770   4.396   2.333   9.179  2.2146 -1.9941  0.2142
  132MOL0     H17771   4.634   2.364   9.336  0.6259  0.9583  2.5060
  132MOL0     H17772   4.849   2.070   9.485  0.1167 -0.1966  1.3419
  132MOL0     H17773   4.860   2.232   9.417  2.5707 -0.4971  0.4704
  132MOL0     H17774   4.720   2.173   9.686  2.9120 -3.1646  2.4420
  132MOL0     H17775   4.893   2.208   9.683 -1.0969  0.5660 -0.1519
  132MOL0     H17776   4.758   2.409   9.731 -3.7999  0.4715 -0.5242
  132MOL0     H17777   4.705   2.409   9.573  1.6573 -0.2950 -1.7790
  132MOL0     H17778   5.000   2.413   9.638 -0.2115  0.4208 -1.0647
  132MOL0     H17779   4.910   2.559   9.648 -3.3330 -1.6105  1.9327
  132MOL0     H17780   4.879   2.517   9.188  1.4940  0.2206  0.7155
  132MOL0     H17781   4.772   2.710   9.092 -0.8851  0.3802  0.1790
  132MOL0     H17782   4.361   2.963   9.072  1.4834  1.9504 -0.9945
  132MOL0     H17783   4.219   3.166   9.001  1.5209 -1.3855 -0.3300
  132MOL0     H17784   4.085   3.457   9.291 -0.2802  0.0985 -0.0941
  132MOL0     H17785   4.248   3.525   9.248  0.7694  0.3341 -2.1964
  132MOL0     H17786   4.072   3.680   9.193  0.3545 -0.4405  1.6777
  132MOL0     H17787   4.176   3.649   9.063 -0.0083  1.2122  0.2404
  132MOL0     H17788   4.012   3.481   8.961  2.6504  0.4559  0.4119
  132MOL0     H17789   3.911   3.508   9.105  0.7214  0.2661  2.0820
  132MOL0     H17790   3.977   3.748   8.915 -0.4765  1.4649  1.4779
  132MOL0     H17791   3.851   3.716   9.026 -0.1331  1.3010 -0.8705
  132MOL0     H17792   3.743   3.544   8.883  2.7351 -3.0054 -0.6618
  132MOL0     H17793   3.890   3.533   8.786 -0.3836  0.4244 -2.3884
  132MOL0     H17794   3.852   3.749   8.683 -1.4103 -2.0756 -2.6943
  132MOL0     H17795   3.700   3.671   8.685  0.2528  0.6364  0.1631
  132MOL0     H17796   3.789   3.904   8.839  0.1053  0.7939  2.6503
  132MOL0     H17797   3.672   3.784   8.919 -0.9923  0.5389 -0.3825
  132MOL0     H17798   3.634   3.906   8.637  0.9513 -1.2978  0.6683
  132MOL0     H17799   3.512   3.817   8.730  1.2741 -1.6440 -1.6518
  132MOL0     H17800   4.308   3.356   9.375  0.1233  2.5510 -1.1457
  132MOL0     H17801   4.471   3.169   9.432  1.1518 -0.1417  0.9175
  132MOL0     H17802   4.628   2.829   9.479  1.2284  0.3216  0.8071
  132MOL0     H17803   4.750   2.660   9.578 -0.7537  0.0481 -0.4250
  132MOL0     H17804   3.984   2.822  10.212  0.6675 -0.5070 -0.8968
  132MOL0     H17805   4.108   2.805  10.410  2.5172  1.3157 -0.1251
  132MOL0     H17806   4.331   2.534  10.660  0.0106 -1.2783  2.4381
  132MOL0     H17807   4.418   2.486  10.884 -1.0903  0.2121  0.4988
  132MOL0     H17808   4.491   2.438  11.077 -0.0703  0.4892  1.1511
  132MOL0     H17809   4.598   2.524  11.187  0.8253  1.7037 -0.0960
  132MOL0     H17810   4.784   2.517  11.026 -2.8395  2.7378  1.8886
  132MOL0     H17811   4.675   2.430  10.910 -0.5058 -2.8611  0.5959
  132MOL0     H17812   4.665   2.238  11.025 -1.8719  2.1512  0.4787
  132MOL0     H17813   4.723   2.309  11.177  4.1377  1.2592  1.3338
  132MOL0     H17814   4.878   2.151  11.066  0.0224  0.0843 -1.0365
  132MOL0     H17815   4.933   2.274  10.953  4.1724 -2.2754  1.9621
  132MOL0     H17816   5.077   2.432  11.325 -3.6882 -0.9166  2.5607
  132MOL0     H17817   4.598   2.859  10.927  3.7808 -2.5246 -0.1692
  132MOL0     H17818   4.589   3.029  10.746 -2.2430  2.0643  0.7345
  132MOL0     H17819   4.550   2.971  10.595 -1.6656 -0.8136  0.1390
  132MOL0     H17820   4.422   3.039  10.703 -0.9215  0.7716 -0.5545
  133MOL0     O17821   4.809   2.592   6.960 -0.2068 -0.0427  0.4366
  133MOL0     C17822   4.691   2.552   6.962 -0.4012  0.1904 -0.7393
  133MOL0     O17823   4.617   2.532   6.855  0.0487  0.1903 -0.6638
  133MOL0     C17824   4.648   2.556   6.724  0.7120 -0.5700  0.1980
  133MOL0     C17825   4.562   2.631   6.649  0.6019 -0.1695  0.5024
  133MOL0     C17826   4.597   2.669   6.516 -0.4141 -0.2258  0.1966
  133MOL0     C17827   4.710   2.606   6.453  0.0273 -0.6634  0.0728
  133MOL0     O17828   4.732   2.639   6.324  0.1574  0.0829 -0.2456
  133MOL0     C17829   4.814   2.551   6.253  0.0606  0.0974 -0.2483
  133MOL0     C17830   4.786   2.577   6.099  0.2721 -0.1936 -0.5606
  133MOL0     C17831   4.921   2.527   6.040 -0.7224  0.8109  0.6641
  133MOL0     C17832   4.938   2.574   5.900 -0.1081 -1.6497  0.2999
  133MOL0     C17833   5.085   2.545   5.864 -0.1608 -0.7698 -0.5891
  133MOL0     C17834   5.126   2.599   5.725 -0.3590  0.0876 -0.4377
  133MOL0     C17835   5.257   2.545   5.679  1.2648  0.8584 -0.4231
  133MOL0     C17836   5.262   2.548   5.522 -0.0618  0.1974 -0.4887
  133MOL0     N17837   5.396   2.515   5.462  0.5124 -0.6107  0.5713
  133MOL0     C17838   5.462   2.396   5.471  0.2943 -0.1307 -1.3471
  133MOL0     C17839   5.578   2.424   5.398  0.6223  0.5957  0.2942
  133MOL0     C17840   5.699   2.329   5.377  0.6550 -0.6293 -0.7752
  133MOL0     C17841   5.773   2.314   5.511  0.6494 -0.4035  0.0368
  133MOL0     C17842   5.867   2.437   5.525  0.5644  0.4138  0.8493
  133MOL0     C17843   5.943   2.417   5.658 -0.0031  0.6798 -0.3550
  133MOL0     O17844   6.054   2.512   5.668  0.4219 -0.4893  0.1947
  133MOL0     C17845   6.173   2.478   5.724  0.4213  0.0628 -0.8544
  133MOL0     C17846   6.229   2.591   5.781 -0.0517  0.5386 -0.1736
  133MOL0     C17847   6.358   2.578   5.842  0.2339 -0.1664 -0.1199
  133MOL0     C17848   6.417   2.451   5.870  1.0104 -0.1910 -0.4635
  133MOL0     C17849   6.537   2.441   5.945 -0.0349  0.5024 -1.0418
  133MOL0     O17850   6.576   2.567   5.994 -0.7347  0.6682  0.8752
  133MOL0     C17851   6.690   2.561   6.065  0.0272  0.8013 -0.0798
  133MOL0     C17852   6.808   2.615   6.005 -0.0595 -0.2072  0.7299
  133MOL0     C17853   6.925   2.611   6.066 -0.8350 -0.0448  0.2757
  133MOL0     C17854   6.942   2.542   6.192  0.5811 -0.6761 -1.0616
  133MOL0     O17855   7.062   2.536   6.269  0.7520 -0.7841  0.0948
  133MOL0     C17856   7.187   2.552   6.207 -0.4510 -0.4382  0.5668
  133MOL0     C17857   7.298   2.525   6.311  0.0041 -0.8855 -0.6083
  133MOL0     C17858   7.273   2.403   6.407 -0.8314  0.2478 -0.2993
  133MOL0     C17859   7.283   2.272   6.331 -0.0104  0.1036 -0.3118
  133MOL0     C17860   7.248   2.142   6.412 -0.5791 -0.7347 -1.1964
  133MOL0     C17861   7.100   2.140   6.461 -0.6418  0.2163 -0.0562
  133MOL0     C17862   7.006   2.107   6.345  0.0161 -0.4842 -0.2561
  133MOL0     C17863   6.865   2.136   6.389  0.5707 -0.4583  1.5930
  133MOL0    Cl17864   6.747   2.120   6.246 -0.0696 -0.1941  0.3764
  133MOL0     C17865   6.826   2.484   6.248  0.0919 -0.8140 -0.1030
  133MOL0     C17866   6.701   2.493   6.185 -0.0316 -0.2084 -0.8184
  133MOL0     O17867   6.580   2.329   5.973 -0.7040  0.0426 -0.0781
  133MOL0     C17868   6.349   2.342   5.813  0.2076 -0.2604  0.4894
  133MOL0     C17869   6.235   2.353   5.731 -0.3944 -1.0013 -0.3839
  133MOL0     N17870   5.569   2.536   5.338  0.0067  0.7564  0.5377
  133MOL0     N17871   5.466   2.601   5.378  0.1866  0.9215  0.1612
  133MOL0     C17872   4.796   2.521   6.530  0.3627  0.2943  1.0603
  133MOL0     C17873   4.764   2.497   6.666 -0.2571 -0.0806 -0.7232
  133MOL0     C17874   4.640   2.503   7.082 -0.2711  0.4773 -0.0572
  133MOL0     C17875   4.523   2.562   7.128  0.1395  0.6934  1.0379
  133MOL0     C17876   4.480   2.535   7.261 -0.0411  0.0504 -0.6521
  133MOL0     C17877   4.542   2.432   7.334  0.3768 -0.6016  0.1615
  133MOL0     O17878   4.502   2.395   7.459  0.7298  0.6188 -0.0775
  133MOL0     C17879   4.425   2.500   7.528  0.2307  0.0721  0.1692
  133MOL0     C17880   4.389   2.445   7.665  0.1643 -1.1264  0.1561
  133MOL0     C17881   4.246   2.386   7.672  0.6828 -0.0712  0.5929
  133MOL0     C17882   4.242   2.261   7.761 -1.3240 -0.1977 -0.0248
  133MOL0     C17883   4.106   2.209   7.775  0.3122 -1.2634  0.3538
  133MOL0     C17884   4.002   2.157   7.768  0.2555 -0.4266  0.4273
  133MOL0     C17885   4.651   2.364   7.276 -0.0400 -0.0572 -0.7307
  133MOL0     C17886   4.712   2.402   7.157  0.9042  0.1571 -0.0442
  133MOL0     C17887   4.851   2.337   7.112 -0.0376  0.2289  0.4091
  133MOL0     H17888   4.473   2.669   6.696  0.5578 -0.3337  0.5532
  133MOL0     H17889   4.520   2.726   6.465 -2.4760 -1.2706  1.9523
  133MOL0     H17890   4.916   2.566   6.291 -0.7714 -1.1757  2.8138
  133MOL0     H17891   4.785   2.450   6.281 -0.9745  0.9865  2.2282
  133MOL0     H17892   4.777   2.683   6.071  0.6656  0.6939  2.3301
  133MOL0     H17893   4.699   2.516   6.074 -0.8900 -0.1767  2.9020
  133MOL0     H17894   4.919   2.418   6.044  0.5137  0.8174  2.2099
  133MOL0     H17895   5.008   2.558   6.098  2.0141 -0.4717 -2.3956
  133MOL0     H17896   4.866   2.534   5.828  2.3569  0.5815 -3.7616
  133MOL0     H17897   4.920   2.681   5.891  1.2334 -1.5005 -0.8204
  133MOL0     H17898   5.145   2.590   5.943  1.0364 -1.4829 -1.0657
  133MOL0     H17899   5.104   2.438   5.854  0.9270 -0.7491  0.8861
  133MOL0     H17900   5.045   2.583   5.654 -0.2035  1.2426 -0.8898
  133MOL0     H17901   5.126   2.708   5.738  0.6475 -0.2458  5.8571
  133MOL0     H17902   5.258   2.438   5.700 -3.1576  0.3951 -1.5696
  133MOL0     H17903   5.333   2.615   5.716  0.8590 -0.1922  2.6562
  133MOL0     H17904   5.188   2.477   5.484  0.3099  0.5077 -1.8242
  133MOL0     H17905   5.238   2.651   5.494  3.9578  2.1948  2.3871
  133MOL0     H17906   5.427   2.303   5.516  0.2582  0.0710 -0.9596
  133MOL0     H17907   5.647   2.238   5.345 -2.9333  0.7203  0.6684
  133MOL0     H17908   5.776   2.357   5.305  2.2075 -3.3176 -0.3063
  133MOL0     H17909   5.699   2.314   5.592 -0.8319 -0.0456 -1.2600
  133MOL0     H17910   5.828   2.221   5.527  1.3174 -0.6396 -3.0036
  133MOL0     H17911   5.815   2.533   5.535  2.3861  1.4118  1.4609
  133MOL0     H17912   5.944   2.439   5.447  3.4315 -3.9269  3.1096
  133MOL0     H17913   5.975   2.313   5.670  0.2076  0.6840 -0.8376
  133MOL0     H17914   5.871   2.442   5.736  1.5252  3.0817  0.4093
  133MOL0     H17915   6.182   2.688   5.768 -2.0347 -0.1234  1.4568
  133MOL0     H17916   6.395   2.671   5.883  0.2074  0.2841 -1.0922
  133MOL0     H17917   6.786   2.665   5.912 -1.9539  1.3165  1.9149
  133MOL0     H17918   7.004   2.659   6.008 -0.0709 -0.8280  0.6353
  133MOL0     H17919   7.196   2.479   6.125  0.1942 -0.1180  0.3392
  133MOL0     H17920   7.201   2.656   6.175  3.8566 -0.0790  2.8052
  133MOL0     H17921   7.397   2.519   6.264 -0.0106  0.3058 -0.8316
  133MOL0     H17922   7.297   2.608   6.382 -0.5170  0.5434 -2.2151
  133MOL0     H17923   7.349   2.405   6.486 -1.6577 -1.9665  0.6277
  133MOL0     H17924   7.183   2.411   6.467 -0.3772  3.3065  0.1293
  133MOL0     H17925   7.382   2.263   6.286  0.6210 -0.7990  1.1953
  133MOL0     H17926   7.210   2.278   6.250  0.6224  3.8935 -0.7825
  133MOL0     H17927   7.310   2.151   6.502  0.3307 -2.8164 -1.5434
  133MOL0     H17928   7.282   2.059   6.349 -1.6593  0.1221 -2.9795
  133MOL0     H17929   7.095   2.068   6.543  2.3110  0.2318  0.2493
  133MOL0     H17930   7.074   2.236   6.508  0.7504 -0.4480  2.2200
  133MOL0     H17931   7.015   2.001   6.317  2.7479 -0.6628  0.9913
  133MOL0     H17932   7.023   2.168   6.256  1.7403 -2.0335 -1.0593
  133MOL0     H17933   6.835   2.050   6.451 -3.0064 -2.0201 -1.8684
  133MOL0     H17934   6.856   2.233   6.438 -0.4078  0.0821  0.3858
  133MOL0     H17935   6.831   2.439   6.346 -0.4783  0.0670  0.3400
  133MOL0     H17936   6.608   2.451   6.223 -0.0752  2.3002  2.3009
  133MOL0     H17937   6.392   2.242   5.815 -1.1144 -0.9006 -1.1220
  133MOL0     H17938   6.196   2.262   5.685 -0.6593 -2.1821  2.0105
  133MOL0     H17939   4.875   2.464   6.484 -0.2882  0.9656 -0.9810
  133MOL0     H17940   4.820   2.434   6.734 -2.4704 -0.6152  0.7314
  133MOL0     H17941   4.470   2.636   7.069  0.0176 -0.9670 -1.0061
  133MOL0     H17942   4.401   2.596   7.303  1.6943  2.6802 -0.9713
  133MOL0     H17943   4.332   2.533   7.479  0.1534 -0.5168 -0.0889
  133MOL0     H17944   4.492   2.586   7.531 -1.7791  1.7151  0.8004
  133MOL0     H17945   4.382   2.522   7.742 -2.8522 -0.3597 -0.7268
  133MOL0     H17946   4.465   2.372   7.695  0.2846 -1.0807 -0.0349
  133MOL0     H17947   4.204   2.353   7.577 -0.6897 -0.5516  1.3467
  133MOL0     H17948   4.182   2.463   7.716  2.6181  1.5031  0.8141
  133MOL0     H17949   4.317   2.194   7.719  0.6144  0.7958  1.7080
  133MOL0     H17950   4.281   2.297   7.857  0.3533  0.6841 -1.0005
  133MOL0     H17951   3.905   2.112   7.762 -0.5163  1.1783  0.4160
  133MOL0     H17952   4.690   2.277   7.329 -0.2483  2.4002  3.9443
  133MOL0     H17953   4.830   2.235   7.146 -0.0557 -0.3635 -1.3120
  133MOL0     H17954   4.863   2.330   7.004  0.5629  2.4568  0.2752
  133MOL0     H17955   4.939   2.385   7.157 -1.2851  2.7780  0.2989
  134MOL0     O17956   8.327  11.124   8.524 -0.3472 -0.4946  0.2341
  134MOL0     C17957   8.267  11.019   8.494  0.1155 -0.8057 -1.1780
  134MOL0     O17958   8.325  10.907   8.444 -0.1307 -0.4919 -0.4904
  134MOL0     C17959   8.455  10.901   8.391  0.5113  0.0229  0.3302
  134MOL0     C17960   8.557  10.999   8.375  0.0731  0.5370 -0.1210
  134MOL0     C17961   8.679  10.971   8.311 -0.1402  0.2853 -0.0086
  134MOL0     C17962   8.694  10.841   8.251 -1.7537 -0.3186 -0.8306
  134MOL0     O17963   8.807  10.836   8.183 -0.3629 -0.4720 -0.1148
  134MOL0     C17964   8.823  10.733   8.087 -0.3236 -0.4219 -0.2748
  134MOL0     C17965   8.933  10.754   7.985  0.2488  0.9423 -0.2397
  134MOL0     C17966   9.067  10.693   8.027  0.4704  1.0248 -0.2584
  134MOL0     C17967   9.136  10.617   7.911  0.1115  0.2970 -0.1527
  134MOL0     C17968   9.205  10.485   7.958  0.6783 -0.5387 -1.2610
  134MOL0     C17969   9.245  10.408   7.821  0.4038  0.1947  0.1062
  134MOL0     C17970   9.343  10.287   7.836 -0.6698  0.0161 -0.4610
  134MOL0     C17971   9.438  10.261   7.720 -0.8611 -0.1863  0.0877
  134MOL0     N17972   9.377  10.183   7.611 -0.7823 -0.2046 -0.1196
  134MOL0     C17973   9.258  10.215   7.538  0.9688 -0.0913 -0.2418
  134MOL0     C17974   9.247  10.112   7.451  0.1443 -0.1503 -1.0458
  134MOL0     C17975   9.158  10.106   7.337  0.4416  0.5778  0.8297
  134MOL0     C17976   9.007  10.074   7.384 -0.1660 -0.2069 -0.0148
  134MOL0     C17977   8.937  10.210   7.421 -0.0921 -1.0154  0.4309
  134MOL0     C17978   8.912  10.220   7.573  1.0655  0.2006  0.1042
  134MOL0     O17979   8.861  10.349   7.611 -0.2913 -0.8005 -0.2725
  134MOL0     C17980   8.786  10.368   7.719  0.1101 -0.0275 -0.5260
  134MOL0     C17981   8.796  10.305   7.836 -0.7710  0.6615  0.1338
  134MOL0     C17982   8.711  10.342   7.944  0.1391  0.3557 -0.5394
  134MOL0     C17983   8.620  10.453   7.926 -0.6198 -0.0456 -0.4963
  134MOL0     C17984   8.526  10.488   8.036  0.7925  0.1103  0.4907
  134MOL0     O17985   8.424  10.562   7.994  0.3150  0.6036  0.2760
  134MOL0     C17986   8.308  10.524   8.055 -0.4436 -0.2472  1.1695
  134MOL0     C17987   8.258  10.621   8.147  0.4927  0.0630 -0.8347
  134MOL0     C17988   8.132  10.608   8.202 -0.3062 -0.1828  0.7287
  134MOL0     C17989   8.054  10.493   8.168 -0.4007  0.1337 -1.2130
  134MOL0     O17990   7.926  10.494   8.221 -0.4128  0.2512 -0.0254
  134MOL0     C17991   7.837  10.386   8.200 -0.0619  0.5862 -0.2895
  134MOL0     C17992   7.719  10.403   8.294 -0.5668  0.1227 -0.5274
  134MOL0     C17993   7.757  10.455   8.440 -0.6536 -0.4030 -0.2575
  134MOL0     C17994   7.656  10.436   8.550 -0.3273 -0.1964 -0.6259
  134MOL0     C17995   7.676  10.530   8.662 -0.3971  0.1244 -0.6782
  134MOL0     C17996   7.570  10.505   8.777  0.8861 -0.4188 -0.3687
  134MOL0     C17997   7.567  10.630   8.880 -0.3452  1.0270  0.1727
  134MOL0     C17998   7.471  10.746   8.838  0.2918 -0.0389  0.0193
  134MOL0    Cl17999   7.491  10.861   8.966 -0.6298  0.2560  0.0636
  134MOL0     C18000   8.101  10.406   8.069 -0.3237  0.6263  0.1867
  134MOL0     C18001   8.228  10.416   8.012 -0.2031 -0.0193 -0.3452
  134MOL0     O18002   8.543  10.446   8.148  0.0256 -0.7779 -0.3129
  134MOL0     C18003   8.618  10.516   7.804  0.0601 -0.4297  0.4514
  134MOL0     C18004   8.705  10.472   7.708  0.9810  0.6608 -0.2425
  134MOL0     N18005   9.357  10.034   7.460  0.2105 -0.0526  0.5649
  134MOL0     N18006   9.430  10.065   7.566 -0.0296 -0.7009  0.4359
  134MOL0     C18007   8.597  10.748   8.269  0.5442  0.0221 -0.0300
  134MOL0     C18008   8.478  10.774   8.339  0.4476  0.0461 -0.5913
  134MOL0     C18009   8.119  11.007   8.520 -0.5182 -0.2896 -0.6084
  134MOL0     C18010   8.058  10.887   8.481  0.3716 -1.6986  0.2414
  134MOL0     C18011   7.928  10.857   8.501 -0.1855  0.2278 -0.2190
  134MOL0     C18012   7.842  10.955   8.546 -0.1708 -0.1860 -0.9761
  134MOL0     O18013   7.713  10.931   8.539  0.1275 -0.1483 -0.7998
  134MOL0     C18014   7.626  11.035   8.583 -0.6148 -0.3784 -0.5224
  134MOL0     C18015   7.480  10.999   8.525 -0.1496 -0.1156 -0.0556
  134MOL0     C18016   7.389  11.123   8.566 -0.5136 -0.4354  0.5868
  134MOL0     C18017   7.237  11.092   8.570  0.2688  0.0868  0.2565
  134MOL0     C18018   7.192  11.048   8.708  0.7111 -1.0249  0.8908
  134MOL0     C18019   7.144  11.020   8.817  0.7954  0.6844  0.9647
  134MOL0     C18020   7.904  11.077   8.589 -0.5452 -0.8329 -0.3006
  134MOL0     C18021   8.041  11.107   8.586  0.1125  0.4327  0.1649
  134MOL0     C18022   8.083  11.240   8.643  0.8949 -0.3950  0.5058
  134MOL0     H18023   8.532  11.096   8.416  1.5180  0.3480  1.2674
  134MOL0     H18024   8.756  11.047   8.296 -0.4544  0.2664 -1.9990
  134MOL0     H18025   8.845  10.643   8.146  1.4521  2.3469  3.7722
  134MOL0     H18026   8.732  10.728   8.026 -0.4430  0.3477 -0.1753
  134MOL0     H18027   8.956  10.861   7.980  0.4966  0.9538  0.9992
  134MOL0     H18028   8.887  10.715   7.893  1.0067 -0.6301  0.0201
  134MOL0     H18029   9.055  10.623   8.109  1.9676  0.4253 -0.5169
  134MOL0     H18030   9.126  10.776   8.066 -0.8340  2.2905 -0.9178
  134MOL0     H18031   9.064  10.603   7.829 -0.5935  0.9625  0.3288
  134MOL0     H18032   9.215  10.675   7.863 -0.2050  2.9373  2.2891
  134MOL0     H18033   9.300  10.503   8.010  0.2564 -2.4274  0.2820
  134MOL0     H18034   9.139  10.428   8.024  1.4430 -0.2124 -0.1923
  134MOL0     H18035   9.149  10.380   7.776  1.0816 -0.0657 -1.2282
  134MOL0     H18036   9.279  10.476   7.742 -0.5690  0.6861  0.1018
  134MOL0     H18037   9.292  10.192   7.857 -0.5800 -0.3204 -1.6966
  134MOL0     H18038   9.398  10.318   7.925 -1.7248  4.5733 -1.1497
  134MOL0     H18039   9.475  10.355   7.680 -1.7039 -0.8997 -2.5720
  134MOL0     H18040   9.516  10.194   7.757 -1.8788 -1.1414  0.5802
  134MOL0     H18041   9.206  10.310   7.534 -1.5733 -1.3802 -0.0664
  134MOL0     H18042   9.153  10.201   7.283 -2.0192  1.3357  2.2162
  134MOL0     H18043   9.186  10.023   7.271  0.5627  0.5500  0.9161
  134MOL0     H18044   8.952  10.017   7.309 -0.9669  0.8885 -0.2990
  134MOL0     H18045   9.018  10.000   7.463  0.4231 -2.2698 -1.9218
  134MOL0     H18046   8.836  10.212   7.378 -1.0228  2.4212  2.4377
  134MOL0     H18047   9.000  10.289   7.382 -0.5421 -1.6622 -1.7237
  134MOL0     H18048   9.007  10.202   7.625  1.7057  1.3875 -0.5985
  134MOL0     H18049   8.840  10.145   7.605  1.3311  0.1336  0.5620
  134MOL0     H18050   8.867  10.226   7.856 -1.1628  0.7747  2.2318
  134MOL0     H18051   8.712  10.283   8.035  1.5717  0.7121 -0.3044
  134MOL0     H18052   8.328  10.702   8.166 -1.0617  1.7549 -1.9430
  134MOL0     H18053   8.114  10.675   8.285  1.1084  1.7689 -0.4514
  134MOL0     H18054   7.784  10.392   8.105  0.7259 -0.4841 -0.8091
  134MOL0     H18055   7.881  10.286   8.206  3.3086  2.0061  0.8341
  134MOL0     H18056   7.648  10.469   8.243  1.0798  0.8073 -2.0098
  134MOL0     H18057   7.660  10.311   8.296  1.7966 -1.5388 -2.1889
  134MOL0     H18058   7.850  10.405   8.466 -0.0423  1.6843  1.9297
  134MOL0     H18059   7.785  10.561   8.437 -2.1888  0.1173  1.6247
  134MOL0     H18060   7.655  10.338   8.597  1.5604  0.9448  2.0828
  134MOL0     H18061   7.558  10.457   8.507 -1.6177 -2.2021  1.1510
  134MOL0     H18062   7.656  10.627   8.615  1.5465  0.3488 -1.1094
  134MOL0     H18063   7.770  10.527   8.718 -3.0836 -1.1138  4.3923
  134MOL0     H18064   7.476  10.475   8.729  1.2955 -1.0499 -0.7905
  134MOL0     H18065   7.595  10.413   8.830 -0.0042 -1.1336 -1.1501
  134MOL0     H18066   7.667  10.674   8.879 -0.3552  1.0439 -0.5720
  134MOL0     H18067   7.538  10.601   8.981  1.2720  2.9512  1.2569
  134MOL0     H18068   7.510  10.794   8.748 -2.9698  2.2315 -0.3830
  134MOL0     H18069   7.370  10.709   8.856  0.9919 -1.1473  2.0094
  134MOL0     H18070   8.031  10.332   8.031 -1.8111  1.4296  1.2826
  134MOL0     H18071   8.269  10.352   7.935 -0.0623  0.9778 -1.1150
  134MOL0     H18072   8.561  10.605   7.778  0.7024 -0.7058 -2.2138
  134MOL0     H18073   8.703  10.534   7.619  0.7714  3.1550  1.4156
  134MOL0     H18074   8.627  10.649   8.236  1.0810 -0.3659  1.5582
  134MOL0     H18075   8.418  10.684   8.348  2.7907 -1.7566 -1.9036
  134MOL0     H18076   8.120  10.805   8.445  1.2618 -0.8277 -0.2497
  134MOL0     H18077   7.899  10.754   8.485  0.0816  0.1724 -0.3386
  134MOL0     H18078   7.659  11.126   8.533 -0.6797 -0.3350 -0.4856
  134MOL0     H18079   7.624  11.050   8.692 -1.5440 -0.3433 -0.5360
  134MOL0     H18080   7.457  10.902   8.569 -0.5362 -0.6175 -1.3095
  134MOL0     H18081   7.464  10.986   8.417  0.7992 -0.8872 -0.1169
  134MOL0     H18082   7.401  11.209   8.500 -3.0820 -0.3793  0.0869
  134MOL0     H18083   7.426  11.157   8.663  0.7560  1.5564 -0.5173
  134MOL0     H18084   7.183  11.180   8.533  0.2984  1.3489  2.9912
  134MOL0     H18085   7.211  11.013   8.499  1.8569 -1.7428  1.6019
  134MOL0     H18086   7.087  11.003   8.906 -1.4711  2.3724 -0.0632
  134MOL0     H18087   7.849  11.167   8.615 -0.2412  0.5598 -3.8946
  134MOL0     H18088   8.083  11.233   8.752  0.7014  2.5488  0.7530
  134MOL0     H18089   8.180  11.280   8.614  0.0066  0.8856 -0.8348
  134MOL0     H18090   8.011  11.321   8.626  1.5174 -0.0966 -0.8213
  135MOL0     O18091   0.865   2.312   5.349 -0.8780 -0.2096  0.0095
  135MOL0     C18092   0.763   2.269   5.298 -1.0703  0.3527 -0.7631
  135MOL0     O18093   0.730   2.135   5.276 -0.3407 -0.1724 -0.6027
  135MOL0     C18094   0.816   2.036   5.311  0.9379  0.7305 -0.6364
  135MOL0     C18095   0.941   2.012   5.254  0.0273  0.0200  0.2370
  135MOL0     C18096   1.013   1.899   5.289  0.3469  0.2745 -0.1293
  135MOL0     C18097   0.959   1.805   5.372  0.0651 -0.4121 -0.9719
  135MOL0     O18098   1.023   1.685   5.400  0.7203  0.4669  0.1348
  135MOL0     C18099   0.989   1.599   5.504  0.0076  1.0849  0.5543
  135MOL0     C18100   1.121   1.565   5.580 -0.8393 -0.0412 -0.2461
  135MOL0     C18101   1.229   1.515   5.488  0.1542  0.6729  0.2906
  135MOL0     C18102   1.333   1.427   5.562  1.0531 -0.5376 -0.0061
  135MOL0     C18103   1.414   1.339   5.475  0.3017 -0.3079 -0.7703
  135MOL0     C18104   1.485   1.224   5.552  0.1870  0.0183  0.4610
  135MOL0     C18105   1.593   1.277   5.651  0.0478 -0.3097 -0.7792
  135MOL0     C18106   1.709   1.182   5.677 -0.6927  0.8225  0.0406
  135MOL0     N18107   1.802   1.258   5.755  0.4177 -0.2204  0.0771
  135MOL0     C18108   1.798   1.280   5.886  0.2900 -0.3769 -1.2850
  135MOL0     C18109   1.920   1.315   5.914 -0.5115  0.2066  0.4564
  135MOL0     C18110   1.973   1.347   6.052 -0.2915  0.4623 -0.6563
  135MOL0     C18111   1.996   1.491   6.059  0.2081 -0.1802  0.0424
  135MOL0     C18112   2.014   1.538   6.209  0.6689  0.5984  0.9074
  135MOL0     C18113   2.063   1.687   6.221 -0.3847  0.1851  0.4489
  135MOL0     O18114   1.996   1.781   6.133  0.1777  0.8586  0.6831
  135MOL0     C18115   2.052   1.906   6.134 -0.4655  0.4700  0.8962
  135MOL0     C18116   2.187   1.942   6.152  0.3369 -0.1102  0.1302
  135MOL0     C18117   2.225   2.075   6.154 -0.7956  0.5632  0.6942
  135MOL0     C18118   2.135   2.173   6.119 -0.6722  0.2246 -0.4673
  135MOL0     C18119   2.190   2.311   6.132 -0.4960  0.0140  0.0804
  135MOL0     O18120   2.322   2.321   6.154  0.6322  0.3090 -0.5174
  135MOL0     C18121   2.386   2.432   6.115 -0.2079  0.1576  1.1370
  135MOL0     C18122   2.357   2.497   5.986 -0.3254 -0.4724  0.0271
  135MOL0     C18123   2.437   2.603   5.939 -0.5225 -0.0318  0.4696
  135MOL0     C18124   2.551   2.641   6.015  0.6622  0.2503 -0.0010
  135MOL0     O18125   2.631   2.739   5.965 -0.0206 -0.5944 -0.9291
  135MOL0     C18126   2.779   2.710   5.970 -0.2178 -0.9571  0.0026
  135MOL0     C18127   2.865   2.831   5.941  0.6240 -0.9312  0.3810
  135MOL0     C18128   3.014   2.799   5.921 -0.4699 -0.3626  0.4833
  135MOL0     C18129   3.090   2.929   5.888 -1.1000  0.1835  0.1717
  135MOL0     C18130   3.246   2.912   5.876 -0.0182 -0.1649  0.4462
  135MOL0     C18131   3.325   2.886   6.008  0.8221  1.1598 -0.0926
  135MOL0     C18132   3.329   3.008   6.100  0.0521  0.1879  0.4004
  135MOL0     C18133   3.253   2.981   6.226 -0.1532  1.3703 -0.5289
  135MOL0    Cl18134   3.342   2.877   6.344 -0.1596  0.1639  0.0015
  135MOL0     C18135   2.569   2.576   6.143  0.4062 -0.4077  0.5607
  135MOL0     C18136   2.500   2.473   6.176 -0.5628 -0.7963  0.5512
  135MOL0     O18137   2.106   2.404   6.111 -0.1042  0.3926 -0.3470
  135MOL0     C18138   2.011   2.130   6.071 -0.6133 -0.4159 -0.5162
  135MOL0     C18139   1.973   2.003   6.079  0.2208  0.1950  0.0044
  135MOL0     N18140   2.002   1.301   5.796  1.3088 -0.2309 -0.0299
  135MOL0     N18141   1.932   1.265   5.707  0.2811 -0.5275  1.1956
  135MOL0     C18142   0.830   1.831   5.429  0.3994 -0.2485 -0.0391
  135MOL0     C18143   0.752   1.936   5.390 -0.3510 -0.2198  0.5368
  135MOL0     C18144   0.663   2.377   5.270  0.6372  0.6755  0.7180
  135MOL0     C18145   0.529   2.331   5.246 -0.6830  0.1120 -0.1060
  135MOL0     C18146   0.421   2.424   5.232 -0.5894  0.2681 -0.3412
  135MOL0     C18147   0.437   2.561   5.234 -0.8307  1.0651  0.2734
  135MOL0     O18148   0.321   2.633   5.226  0.2683  0.7826  0.2008
  135MOL0     C18149   0.332   2.773   5.200 -0.1977 -0.4156 -1.0350
  135MOL0     C18150   0.343   2.847   5.341 -0.2674 -0.1602  0.9651
  135MOL0     C18151   0.340   3.001   5.323  0.6782  0.1570  0.2846
  135MOL0     C18152   0.335   3.065   5.466  0.2486 -0.2629  0.0397
  135MOL0     C18153   0.201   3.048   5.523  0.5063 -0.2948 -0.1004
  135MOL0     C18154   0.083   3.030   5.558  0.2481  0.4891  0.4132
  135MOL0     C18155   0.567   2.605   5.248 -0.9992 -0.3528 -0.8433
  135MOL0     C18156   0.679   2.515   5.266  0.6346 -0.7586 -0.3183
  135MOL0     C18157   0.811   2.587   5.262  0.0979  0.2351  0.2937
  135MOL0     H18158   0.991   2.090   5.197  0.4684 -1.4935 -1.5208
  135MOL0     H18159   1.112   1.884   5.249  0.3779 -2.2226  0.7487
  135MOL0     H18160   0.920   1.648   5.573 -4.1778 -2.8290 -0.3211
  135MOL0     H18161   0.937   1.512   5.461 -0.9808  2.6073 -1.4653
  135MOL0     H18162   1.099   1.502   5.666 -1.3221 -0.4490 -0.6558
  135MOL0     H18163   1.155   1.655   5.631  2.1408 -1.8729  1.2185
  135MOL0     H18164   1.273   1.594   5.427 -0.9250 -0.4816 -2.1277
  135MOL0     H18165   1.175   1.454   5.415  0.4742  0.3354  0.3314
  135MOL0     H18166   1.404   1.495   5.610 -0.2187 -1.3315  3.2834
  135MOL0     H18167   1.274   1.365   5.630  3.4218 -1.2116  1.5562
  135MOL0     H18168   1.360   1.290   5.394  1.5153 -0.3036 -1.6182
  135MOL0     H18169   1.493   1.405   5.438  2.6551 -1.2426  2.1155
  135MOL0     H18170   1.407   1.174   5.610  1.4559 -2.4575  0.1510
  135MOL0     H18171   1.526   1.149   5.484 -2.4560 -2.6985  1.6239
  135MOL0     H18172   1.538   1.303   5.742 -2.3846 -0.8312 -2.0120
  135MOL0     H18173   1.636   1.366   5.604  2.2454  0.9407  3.0940
  135MOL0     H18174   1.684   1.091   5.733 -1.0888  1.2929  0.6398
  135MOL0     H18175   1.750   1.156   5.580 -3.6628 -1.7111 -0.6937
  135MOL0     H18176   1.722   1.290   5.964  1.5764 -0.4412  0.0225
  135MOL0     H18177   1.910   1.302   6.130  1.5737  0.1019  0.7275
  135MOL0     H18178   2.066   1.292   6.071  0.1240  1.7742  1.4479
  135MOL0     H18179   2.089   1.519   6.008  0.1600 -0.3227 -0.1218
  135MOL0     H18180   1.916   1.553   6.019  0.8303  2.2389  2.2279
  135MOL0     H18181   2.085   1.468   6.254 -0.2627 -1.6497 -0.9030
  135MOL0     H18182   1.921   1.528   6.265 -2.3150  3.8242 -2.8745
  135MOL0     H18183   2.170   1.690   6.199 -0.0174 -3.5630  0.9719
  135MOL0     H18184   2.044   1.723   6.322 -3.3595 -3.3045  1.3479
  135MOL0     H18185   2.259   1.875   6.198 -0.1336  1.3431  3.2977
  135MOL0     H18186   2.315   2.091   6.213 -0.1027 -1.3951  0.2419
  135MOL0     H18187   2.280   2.462   5.919  0.0196 -3.0879  0.8748
  135MOL0     H18188   2.410   2.666   5.855 -1.8913  1.4544  1.9616
  135MOL0     H18189   2.821   2.672   6.064  1.3139 -1.7103 -0.9452
  135MOL0     H18190   2.805   2.644   5.886 -0.5978 -0.0104 -0.8835
  135MOL0     H18191   2.827   2.875   5.848  0.9972 -2.3172 -0.4707
  135MOL0     H18192   2.849   2.907   6.017 -2.0149  1.0004 -1.8992
  135MOL0     H18193   3.059   2.754   6.010 -1.0611  0.5367  1.2582
  135MOL0     H18194   3.036   2.735   5.836 -2.5205  0.2009 -0.5406
  135MOL0     H18195   3.054   3.000   5.964  2.1003  1.7148  0.3996
  135MOL0     H18196   3.054   2.965   5.791 -1.4139  0.3748  0.3576
  135MOL0     H18197   3.290   3.005   5.839 -0.7990  0.3458  0.7652
  135MOL0     H18198   3.274   2.837   5.801  1.5611 -1.7533  2.5003
  135MOL0     H18199   3.275   2.802   6.058 -2.1044  1.1765 -2.7252
  135MOL0     H18200   3.424   2.847   5.981  0.2928  2.1820 -4.2122
  135MOL0     H18201   3.285   3.092   6.047  2.8451 -0.0888 -2.7015
  135MOL0     H18202   3.433   3.036   6.121  0.1406 -0.1657  0.4421
  135MOL0     H18203   3.260   3.078   6.276  4.1662 -0.2496  2.6905
  135MOL0     H18204   3.153   2.938   6.226 -1.4014  3.8030  2.8200
  135MOL0     H18205   2.658   2.607   6.197  0.0437  2.3280 -0.2543
  135MOL0     H18206   2.524   2.426   6.271  3.0337 -1.7658 -0.6709
  135MOL0     H18207   1.939   2.202   6.033  0.0333 -0.5265 -1.9990
  135MOL0     H18208   1.882   1.976   6.025  0.3272  0.6119 -0.3892
  135MOL0     H18209   0.772   1.754   5.479  0.0157  1.1986  1.8546
  135MOL0     H18210   0.647   1.943   5.417  0.4813  0.4659  4.2082
  135MOL0     H18211   0.518   2.224   5.237  0.5118 -0.1199  0.7950
  135MOL0     H18212   0.317   2.400   5.213 -1.2304 -0.3876  3.1906
  135MOL0     H18213   0.246   2.811   5.143  0.1996  1.2289 -0.5794
  135MOL0     H18214   0.424   2.794   5.146  0.7339 -3.8937 -1.0656
  135MOL0     H18215   0.436   2.816   5.389 -0.1173 -1.5980 -0.1824
  135MOL0     H18216   0.262   2.810   5.404 -0.6515 -1.5817 -0.3062
  135MOL0     H18217   0.251   3.034   5.269 -0.5627 -1.3752  1.3333
  135MOL0     H18218   0.426   3.044   5.271  0.7727 -0.3762 -0.0059
  135MOL0     H18219   0.408   3.021   5.534 -1.1917  2.6145  3.8226
  135MOL0     H18220   0.368   3.169   5.459  1.0492 -0.5533 -0.6508
  135MOL0     H18221  -0.014   3.001   5.591  0.5434  2.0100  2.9494
  135MOL0     H18222   0.588   2.712   5.249  0.2930 -0.5902  0.2300
  135MOL0     H18223   0.875   2.544   5.184  2.6388  0.3654  2.1916
  135MOL0     H18224   0.798   2.694   5.243 -2.0144 -0.0994 -0.4489
  135MOL0     H18225   0.871   2.572   5.352 -0.4368  3.3814  1.2862
  136MOL0     O18226   6.422  10.232   4.890 -0.6442 -0.6278  0.1790
  136MOL0     C18227   6.372  10.128   4.842  0.6216  0.1897  0.1611
  136MOL0     O18228   6.390  10.087   4.714  0.8597  0.1461 -0.6008
  136MOL0     C18229   6.488  10.155   4.646 -0.4633 -0.1705  0.3346
  136MOL0     C18230   6.611  10.104   4.637 -0.8769 -0.2228  0.7226
  136MOL0     C18231   6.710  10.178   4.565  0.1947 -0.3526  0.2874
  136MOL0     C18232   6.674  10.302   4.511 -1.2046 -0.1502 -0.3447
  136MOL0     O18233   6.772  10.358   4.433  0.5531  0.2130 -0.3539
  136MOL0     C18234   6.737  10.435   4.318 -1.4638 -0.2255 -0.7220
  136MOL0     C18235   6.796  10.381   4.183 -0.1165  0.7331 -0.1391
  136MOL0     C18236   6.950  10.421   4.169 -0.1698 -0.7680  0.2513
  136MOL0     C18237   7.008  10.361   4.034 -0.1493 -0.0169 -0.6929
  136MOL0     C18238   7.162  10.359   4.030 -0.3420  0.2173  0.6750
  136MOL0     C18239   7.216  10.501   4.030 -0.1814 -1.0441 -0.5472
  136MOL0     C18240   7.147  10.593   3.931 -0.1691 -0.1998  0.6296
  136MOL0     C18241   7.151  10.544   3.783 -0.7640  0.2569  0.8679
  136MOL0     N18242   7.089  10.651   3.698 -0.0694 -0.1852 -0.7677
  136MOL0     C18243   6.965  10.705   3.710 -0.0793 -0.5150  0.1258
  136MOL0     C18244   6.968  10.813   3.629 -0.0314 -0.1510  0.5846
  136MOL0     C18245   6.854  10.908   3.608 -0.1255 -0.2853  0.2222
  136MOL0     C18246   6.722  10.837   3.637  0.5177 -0.2380  0.9787
  136MOL0     C18247   6.591  10.903   3.580  0.5931 -0.1382  0.0458
  136MOL0     C18248   6.475  10.809   3.555 -0.0204 -0.6083 -1.0129
  136MOL0     O18249   6.346  10.868   3.542  0.3028 -0.4466  0.7812
  136MOL0     C18250   6.225  10.811   3.570  0.5687 -0.3597  0.6201
  136MOL0     C18251   6.117  10.888   3.611  0.3102  0.1315 -0.0076
  136MOL0     C18252   5.998  10.830   3.654  0.3478 -0.3693 -0.7023
  136MOL0     C18253   5.993  10.695   3.681  0.3465 -0.0698 -0.2371
  136MOL0     C18254   5.872  10.632   3.751 -0.0629 -0.0093 -0.2729
  136MOL0     O18255   5.782  10.708   3.820 -0.4218 -0.3029 -0.0015
  136MOL0     C18256   5.657  10.663   3.845 -0.2551  0.0869  0.1514
  136MOL0     C18257   5.549  10.702   3.768 -0.6513 -0.3024  0.4705
  136MOL0     C18258   5.426  10.660   3.795  0.8839  0.3429  0.5580
  136MOL0     C18259   5.398  10.582   3.908 -0.5772 -0.0657 -1.0981
  136MOL0     O18260   5.285  10.533   3.967 -0.0474 -0.0430  0.1623
  136MOL0     C18261   5.157  10.558   3.908 -1.4188  0.3240 -0.1541
  136MOL0     C18262   5.115  10.689   3.964 -0.0236  0.6686 -0.4333
  136MOL0     C18263   4.962  10.705   3.950  0.1038 -0.0150 -0.5015
  136MOL0     C18264   4.898  10.688   3.815 -0.3375 -0.4461  0.2874
  136MOL0     C18265   4.746  10.671   3.825 -1.3486 -0.1057  0.1890
  136MOL0     C18266   4.675  10.635   3.692  0.0617 -0.3581  0.6617
  136MOL0     C18267   4.714  10.498   3.632  0.0364 -0.6244 -0.5982
  136MOL0     C18268   4.630  10.391   3.697  0.6902  0.3978 -0.1416
  136MOL0    Cl18269   4.454  10.420   3.675  0.4538 -0.6252  0.1228
  136MOL0     C18270   5.502  10.543   3.985 -0.1801 -0.8153  0.0814
  136MOL0     C18271   5.632  10.584   3.955  0.4661  0.0055  0.1594
  136MOL0     O18272   5.871  10.511   3.742  0.2760  0.3035 -0.1698
  136MOL0     C18273   6.101  10.616   3.644 -0.0567 -0.2654  0.1886
  136MOL0     C18274   6.216  10.675   3.593  0.8089  0.4081  0.4726
  136MOL0     N18275   7.082  10.812   3.555  0.5996 -0.5867 -0.1235
  136MOL0     N18276   7.153  10.717   3.596 -0.0704 -0.0401  0.3377
  136MOL0     C18277   6.543  10.351   4.514 -1.2095 -0.7051 -0.2049
  136MOL0     C18278   6.452  10.275   4.592  1.1923 -0.8985  0.3490
  136MOL0     C18279   6.292  10.046   4.941 -0.2808  0.3719 -0.3936
  136MOL0     C18280   6.323  10.056   5.080  0.8293 -0.8621  0.2096
  136MOL0     C18281   6.252   9.990   5.177  0.2100 -0.4614 -0.6219
  136MOL0     C18282   6.137   9.908   5.139  0.0445 -0.2834 -0.5040
  136MOL0     O18283   6.064   9.851   5.238  0.4027  0.1976  0.4197
  136MOL0     C18284   5.926   9.865   5.219  0.0334  0.4168  0.2543
  136MOL0     C18285   5.872   9.871   5.367  0.1916  0.6596  0.3409
  136MOL0     C18286   5.726   9.838   5.381  0.0902  0.1403  0.1854
  136MOL0     C18287   5.625   9.925   5.309  0.5201  0.5414  0.4479
  136MOL0     C18288   5.491   9.861   5.313  0.3659  0.5595 -0.9651
  136MOL0     C18289   5.384   9.812   5.331  1.0503  0.1168 -0.2771
  136MOL0     C18290   6.108   9.900   5.003  0.3322  0.4022  0.5133
  136MOL0     C18291   6.188   9.952   4.904 -0.1298 -0.0343 -0.0128
  136MOL0     C18292   6.153   9.898   4.757 -0.5975 -0.0492  0.5590
  136MOL0     H18293   6.644  10.011   4.683  0.5762 -1.7059 -2.9127
  136MOL0     H18294   6.816  10.162   4.554  1.5325  5.5682  1.0759
  136MOL0     H18295   6.630  10.452   4.303 -1.3269 -0.3690 -1.9543
  136MOL0     H18296   6.781  10.534   4.331 -3.1905  0.7304 -1.7858
  136MOL0     H18297   6.734  10.429   4.106  0.9511  2.6326  0.1463
  136MOL0     H18298   6.785  10.272   4.186  1.3282  0.5589 -0.6396
  136MOL0     H18299   7.010  10.390   4.255 -1.7765 -0.5187  1.5176
  136MOL0     H18300   6.956  10.530   4.168  0.0689 -0.7677  1.0572
  136MOL0     H18301   6.967  10.260   4.024 -0.0829 -0.1039 -0.1408
  136MOL0     H18302   6.973  10.413   3.945 -2.1743 -0.7454 -0.3785
  136MOL0     H18303   7.197  10.307   4.119 -0.7647  0.7313  1.1474
  136MOL0     H18304   7.192  10.302   3.941 -2.3523  0.8775 -0.5060
  136MOL0     H18305   7.193  10.555   4.123 -1.1199 -0.2182 -1.2450
  136MOL0     H18306   7.325  10.504   4.015  0.4327  1.0052  3.0847
  136MOL0     H18307   7.192  10.692   3.944 -1.2033  0.7058 -2.0006
  136MOL0     H18308   7.041  10.596   3.954 -0.2445 -1.8478  0.6430
  136MOL0     H18309   7.255  10.537   3.752 -0.9522  2.6273 -0.5796
  136MOL0     H18310   7.105  10.445   3.775  0.2488 -0.5819  3.8203
  136MOL0     H18311   6.878  10.673   3.768 -0.4913  2.3837  1.2806
  136MOL0     H18312   6.867  10.998   3.670 -1.1414  2.6989 -3.5199
  136MOL0     H18313   6.862  10.943   3.505 -0.3527 -0.6298  0.0890
  136MOL0     H18314   6.732  10.735   3.601  1.8268  0.6604 -1.4419
  136MOL0     H18315   6.700  10.821   3.743  0.1888 -1.9063  0.6780
  136MOL0     H18316   6.615  10.971   3.498 -0.0985  1.2923  0.9663
  136MOL0     H18317   6.555  10.971   3.659 -0.3300 -1.9764  1.2840
  136MOL0     H18318   6.465  10.742   3.642 -0.9141 -1.2360 -1.5749
  136MOL0     H18319   6.508  10.749   3.470  5.1160 -0.2067  0.3900
  136MOL0     H18320   6.117  10.996   3.624  0.9683 -0.0295  1.6147
  136MOL0     H18321   5.910  10.890   3.677  1.1488 -0.5898  3.9382
  136MOL0     H18322   5.577  10.780   3.698  2.7919 -0.0361  1.9174
  136MOL0     H18323   5.338  10.681   3.735  2.1588 -0.9473 -1.9027
  136MOL0     H18324   5.157  10.557   3.799  1.2908 -2.2306 -0.2524
  136MOL0     H18325   5.089  10.480   3.944 -0.8173  0.3077  0.9859
  136MOL0     H18326   5.138  10.703   4.070  1.3229 -1.4835 -0.3728
  136MOL0     H18327   5.155  10.770   3.902 -2.4994  0.6559 -2.2173
  136MOL0     H18328   4.924  10.627   4.016  1.6219 -0.3611  0.0006
  136MOL0     H18329   4.927  10.802   3.986  1.4813 -0.2642  1.7021
  136MOL0     H18330   4.945  10.601   3.767  1.0211  0.4156 -0.0029
  136MOL0     H18331   4.912  10.766   3.740 -2.9844 -0.7028 -0.5599
  136MOL0     H18332   4.700  10.764   3.860 -1.1715  0.4407 -0.9777
  136MOL0     H18333   4.711  10.596   3.898  0.1354 -3.8385 -2.6084
  136MOL0     H18334   4.568  10.653   3.701  0.5253  3.1124  0.6619
  136MOL0     H18335   4.697  10.710   3.615 -1.7310 -1.4355 -0.9879
  136MOL0     H18336   4.819  10.476   3.649  0.3040  1.6218  1.0908
  136MOL0     H18337   4.692  10.482   3.526 -2.5024  0.6439 -0.3442
  136MOL0     H18338   4.655  10.294   3.653  1.7077  0.0467  1.1494
  136MOL0     H18339   4.656  10.393   3.803  0.6147  4.0952 -0.0696
  136MOL0     H18340   5.495  10.498   4.084 -2.1455 -1.4598 -0.3117
  136MOL0     H18341   5.710  10.548   4.022 -1.9075 -0.1735  3.0367
  136MOL0     H18342   6.103  10.508   3.655  1.9945 -0.2408  0.4308
  136MOL0     H18343   6.300  10.610   3.571  0.1871 -0.3763  0.3657
  136MOL0     H18344   6.505  10.436   4.457 -1.2063 -2.2156 -2.6011
  136MOL0     H18345   6.347  10.302   4.598  1.4633 -0.1520  2.8315
  136MOL0     H18346   6.392  10.129   5.121 -0.6157  0.5597  0.2058
  136MOL0     H18347   6.283   9.986   5.281 -3.5195 -0.1019  0.6820
  136MOL0     H18348   5.877   9.773   5.185  1.7335 -1.7275  3.0434
  136MOL0     H18349   5.894   9.943   5.151 -3.3947 -0.1983  0.9808
  136MOL0     H18350   5.905   9.961   5.420  2.0251  0.0029  0.3759
  136MOL0     H18351   5.918   9.789   5.423  1.1868  1.9183  1.4240
  136MOL0     H18352   5.680   9.851   5.479 -2.8860  1.9133 -1.2907
  136MOL0     H18353   5.706   9.735   5.350  0.3658  0.3801 -0.8374
  136MOL0     H18354   5.630  10.025   5.353 -1.3952  1.3805 -1.0784
  136MOL0     H18355   5.648   9.922   5.202 -0.8851 -0.2785  0.1425
  136MOL0     H18356   5.285   9.776   5.352  0.8941 -0.0051 -1.1761
  136MOL0     H18357   6.017   9.846   4.977 -0.3224  1.6770  0.0501
  136MOL0     H18358   6.066   9.953   4.720 -1.4403 -0.9952  1.1040
  136MOL0     H18359   6.232   9.920   4.685  0.4184 -0.8379  1.3956
  136MOL0     H18360   6.149   9.789   4.765 -2.5796 -0.0716 -0.3205
  137MOL0     O18361   8.097  10.211   8.763 -0.5501 -0.7963 -0.7132
  137MOL0     C18362   8.024  10.224   8.860 -0.1945 -0.1896  0.3284
  137MOL0     O18363   7.939  10.324   8.872 -0.9303  0.5137 -0.4617
  137MOL0     C18364   7.839  10.336   8.969  0.3606 -0.3311 -0.8038
  137MOL0     C18365   7.843  10.460   9.037 -1.3630 -0.4954 -0.3811
  137MOL0     C18366   7.773  10.477   9.152  0.2454  0.0020  0.4058
  137MOL0     C18367   7.672  10.386   9.186  1.2174  1.1513  0.1214
  137MOL0     O18368   7.577  10.395   9.290  0.6304  0.3070  0.4822
  137MOL0     C18369   7.619  10.464   9.408 -0.6945  0.1382  0.1089
  137MOL0     C18370   7.560  10.611   9.404  0.0956  0.2075  0.3995
  137MOL0     C18371   7.624  10.685   9.521 -0.1423  0.6772 -0.1003
  137MOL0     C18372   7.605  10.838   9.513 -0.4055  0.2263  1.5460
  137MOL0     C18373   7.630  10.919   9.632 -0.3399  0.0549  0.3878
  137MOL0     C18374   7.785  10.907   9.662  0.6266 -0.3172 -1.7412
  137MOL0     C18375   7.869  10.995   9.562 -0.6526 -0.5743  0.0441
  137MOL0     C18376   8.013  11.015   9.600 -0.6793 -0.6094  0.0172
  137MOL0     N18377   8.093  11.090   9.505 -0.1592 -0.0696  1.0883
  137MOL0     C18378   8.096  11.223   9.489  0.3840 -0.0742 -0.1573
  137MOL0     C18379   8.172  11.249   9.387  0.0317  0.3071 -0.1355
  137MOL0     C18380   8.205  11.388   9.335  0.2771  0.4915  0.4623
  137MOL0     C18381   8.340  11.394   9.282 -1.2084 -0.6364  0.4215
  137MOL0     C18382   8.369  11.539   9.219 -0.0364 -0.2324 -0.0711
  137MOL0     C18383   8.505  11.537   9.152 -0.8123  0.0156  0.3165
  137MOL0     O18384   8.530  11.680   9.120 -0.6210  0.9224  0.8555
  137MOL0     C18385   8.659  11.717   9.149  0.2278  0.4975 -1.0838
  137MOL0     C18386   8.774  11.653   9.106  0.2070 -0.2693  0.2746
  137MOL0     C18387   8.902  11.690   9.138  0.5683 -0.3964  0.0969
  137MOL0     C18388   8.922  11.796   9.231 -0.0423  0.4602 -0.0675
  137MOL0     C18389   9.045  11.839   9.279  0.1041 -0.0641 -0.3068
  137MOL0     O18390   9.150  11.757   9.247  0.0856  0.1091  0.2632
  137MOL0     C18391   9.281  11.794   9.264  0.1454  0.4736 -0.1546
  137MOL0     C18392   9.373  11.681   9.266  0.5666 -0.0510  0.0338
  137MOL0     C18393   9.515  11.696   9.281  0.4936 -0.1246  0.4299
  137MOL0     C18394   9.567  11.832   9.287  0.3086  0.1516 -0.3967
  137MOL0     O18395   9.699  11.840   9.254 -0.6691 -0.8408  0.3093
  137MOL0     C18396   9.739  11.954   9.167  0.6666  0.2714  0.0390
  137MOL0     C18397   9.714  11.928   9.013 -0.0502 -0.0344 -0.9241
  137MOL0     C18398   9.776  12.050   8.936  0.5325 -0.0454 -0.6462
  137MOL0     C18399   9.755  12.041   8.784  0.6456  0.6982 -0.0210
  137MOL0     C18400   9.815  12.153   8.702  0.9792  0.7759  0.1156
  137MOL0     C18401   9.791  12.289   8.761  0.1551  0.2729 -0.1084
  137MOL0     C18402   9.858  12.398   8.676  0.0239 -0.5958  0.8181
  137MOL0     C18403  10.007  12.401   8.673  0.7877 -0.1074  0.6296
  137MOL0    Cl18404  10.046  12.525   8.553  0.2337  0.1341 -0.1046
  137MOL0     C18405   9.482  11.935   9.294  0.0049  0.1648  1.1267
  137MOL0     C18406   9.343  11.920   9.278 -0.3137 -0.0800 -0.1529
  137MOL0     O18407   9.058  11.943   9.335 -0.9632 -0.8948 -0.5351
  137MOL0     C18408   8.808  11.874   9.275 -0.4555  0.0497 -0.2147
  137MOL0     C18409   8.678  11.832   9.231 -0.1195 -0.2977  0.1775
  137MOL0     N18410   8.234  11.128   9.351 -0.0803  0.2775  0.5724
  137MOL0     N18411   8.176  11.031   9.421 -0.4565  0.6195 -0.6208
  137MOL0     C18412   7.661  10.270   9.112 -0.4309  0.8503  0.5021
  137MOL0     C18413   7.744  10.238   9.009 -0.2602 -0.3971 -0.4305
  137MOL0     C18414   8.027  10.123   8.973 -0.0652  0.1385  0.7048
  137MOL0     C18415   8.071  10.159   9.102  0.3690  0.6282  0.1179
  137MOL0     C18416   8.065  10.053   9.204  0.7336 -0.2140 -0.4107
  137MOL0     C18417   8.015   9.929   9.174  0.8899  0.9613 -0.6666
  137MOL0     O18418   7.992   9.819   9.263  0.0669  0.1270 -0.0002
  137MOL0     C18419   7.862   9.807   9.322 -0.8146  0.0012  0.0785
  137MOL0     C18420   7.746   9.751   9.239  0.1062 -0.1763 -0.3524
  137MOL0     C18421   7.774   9.604   9.216  0.0943 -0.0656 -0.0692
  137MOL0     C18422   7.657   9.538   9.137  0.2476 -0.1641  0.2902
  137MOL0     C18423   7.641   9.564   8.994 -1.2548  0.1559  0.0088
  137MOL0     C18424   7.654   9.571   8.871 -0.1966  0.2471  0.3190
  137MOL0     C18425   7.985   9.895   9.045  0.9715 -0.1127  0.7031
  137MOL0     C18426   7.999   9.987   8.936 -0.3236 -0.0751  0.0339
  137MOL0     C18427   7.970   9.937   8.794  0.1182 -0.3071 -0.1967
  137MOL0     H18428   7.920  10.533   9.019 -1.6391  0.6418  2.4927
  137MOL0     H18429   7.779  10.577   9.194  1.5184  0.5204 -0.9265
  137MOL0     H18430   7.586  10.410   9.497 -2.5840  0.4851 -0.3495
  137MOL0     H18431   7.728  10.463   9.397 -0.7545 -2.7744 -1.2666
  137MOL0     H18432   7.452  10.596   9.407 -0.3940  2.2998 -2.6713
  137MOL0     H18433   7.595  10.642   9.306  1.4583 -1.2559  0.3797
  137MOL0     H18434   7.731  10.664   9.521 -0.3730 -0.7806  1.9865
  137MOL0     H18435   7.586  10.644   9.615  0.7265  0.5284  0.1996
  137MOL0     H18436   7.669  10.859   9.426 -2.4334 -2.5648 -0.8167
  137MOL0     H18437   7.507  10.850   9.466  1.2559 -0.5227 -2.5838
  137MOL0     H18438   7.597  11.022   9.622  0.6069  0.5449  2.0741
  137MOL0     H18439   7.590  10.876   9.724  2.4549  0.3070  1.8325
  137MOL0     H18440   7.794  10.950   9.762  0.2909 -1.9456 -0.9892
  137MOL0     H18441   7.821  10.804   9.671  2.2372  0.3369  0.1082
  137MOL0     H18442   7.836  11.099   9.559  1.1017 -0.0074 -1.9602
  137MOL0     H18443   7.863  10.948   9.463  1.0396 -0.6015 -0.0690
  137MOL0     H18444   8.031  11.078   9.687 -1.9641  0.0760 -0.1857
  137MOL0     H18445   8.054  10.916   9.617 -0.5035 -0.1306  2.8456
  137MOL0     H18446   8.046  11.302   9.545 -2.0667 -0.2368 -2.0042
  137MOL0     H18447   8.143  11.414   9.249  2.4672 -0.8277 -1.6551
  137MOL0     H18448   8.187  11.466   9.410  0.5647  0.6244  0.3963
  137MOL0     H18449   8.420  11.379   9.355 -2.7230  2.2289  2.9114
  137MOL0     H18450   8.348  11.321   9.201  1.5979  0.6844 -0.6396
  137MOL0     H18451   8.357  11.618   9.295  2.3395  2.4092 -2.2220
  137MOL0     H18452   8.293  11.557   9.143  1.1334  2.8810 -0.6408
  137MOL0     H18453   8.484  11.492   9.054 -2.2494  0.2120  0.5146
  137MOL0     H18454   8.579  11.485   9.213  0.6479  1.1473 -0.4156
  137MOL0     H18455   8.758  11.572   9.035  0.6562  1.1619 -1.5018
  137MOL0     H18456   8.989  11.634   9.106  0.7790  0.0614 -0.1496
  137MOL0     H18457   9.329  11.583   9.245  0.6157 -0.7809  2.9716
  137MOL0     H18458   9.590  11.620   9.265  0.5872  0.0801 -0.0983
  137MOL0     H18459   9.690  12.048   9.195  1.0661  0.2941  0.6688
  137MOL0     H18460   9.846  11.959   9.187  0.5362 -1.3775  1.4321
  137MOL0     H18461   9.760  11.832   8.988 -1.2449 -0.5588 -1.1880
  137MOL0     H18462   9.609  11.916   8.985 -0.3416  1.4318 -0.5185
  137MOL0     H18463   9.727  12.134   8.984  1.6838 -0.7814  2.0118
  137MOL0     H18464   9.883  12.055   8.959  0.5571 -0.7586 -0.5696
  137MOL0     H18465   9.648  12.038   8.765  0.0017  1.1943  3.0005
  137MOL0     H18466   9.794  11.943   8.754  1.6146  1.0185  0.1321
  137MOL0     H18467   9.775  12.148   8.600  0.8806 -0.0245  0.1881
  137MOL0     H18468   9.921  12.124   8.696  0.5932 -0.9910  1.1228
  137MOL0     H18469   9.685  12.317   8.756 -0.3341 -1.3019  0.8140
  137MOL0     H18470   9.831  12.282   8.863 -0.1163 -1.7617 -0.1025
  137MOL0     H18471   9.818  12.491   8.717 -0.1902 -0.1627 -0.3298
  137MOL0     H18472   9.810  12.399   8.578 -1.7162  0.6462  1.6313
  137MOL0     H18473  10.062  12.423   8.764  0.4388 -0.3777  0.9043
  137MOL0     H18474  10.031  12.309   8.619 -1.0427 -0.9533  1.1904
  137MOL0     H18475   9.537  12.026   9.315  1.3186 -0.9573  2.8596
  137MOL0     H18476   9.284  12.011   9.287  0.2180  0.0531  3.4164
  137MOL0     H18477   8.822  11.960   9.338  1.8547  0.9593 -1.8382
  137MOL0     H18478   8.593  11.893   9.260 -1.6227 -1.6420 -1.1941
  137MOL0     H18479   7.574  10.210   9.137 -1.0240  1.9357  1.1710
  137MOL0     H18480   7.737  10.147   8.950 -3.2116  0.0642 -0.9365
  137MOL0     H18481   8.110  10.258   9.123 -1.4329  0.9541  2.3211
  137MOL0     H18482   8.095  10.074   9.306  0.5554  1.1223 -0.6135
  137MOL0     H18483   7.829   9.908   9.345 -0.5027 -0.2134  1.5596
  137MOL0     H18484   7.866   9.757   9.419  4.0696  0.1844  0.2261
  137MOL0     H18485   7.735   9.813   9.150  3.1204 -0.0523 -0.7229
  137MOL0     H18486   7.655   9.760   9.299  0.4952  0.3423  0.1765
  137MOL0     H18487   7.780   9.541   9.306 -0.3920 -1.3271 -0.8995
  137MOL0     H18488   7.872   9.591   9.169  1.7667  0.6875  2.9337
  137MOL0     H18489   7.673   9.432   9.161 -2.8978 -0.2314  2.9156
  137MOL0     H18490   7.556   9.562   9.172 -0.3043 -0.2889 -1.1546
  137MOL0     H18491   7.674   9.581   8.766  1.5742  0.6044  0.6553
  137MOL0     H18492   7.957   9.791   9.032  0.7114 -0.1931  1.7746
  137MOL0     H18493   7.974   9.828   8.798  3.0437 -0.3122  4.0082
  137MOL0     H18494   7.877   9.979   8.757  0.8807  1.2022 -0.4869
  137MOL0     H18495   8.035   9.973   8.713 -0.6068 -0.6579 -0.9445
  138MOL0     O18496   7.143   1.505   7.156 -0.1414  0.2888 -0.1258
  138MOL0     C18497   7.131   1.489   7.030  0.8701 -0.5704  0.4581
  138MOL0     O18498   7.017   1.465   6.954  0.2275 -0.3927  0.2970
  138MOL0     C18499   6.880   1.480   6.995 -0.5708  1.3690  0.1733
  138MOL0     C18500   6.831   1.528   7.118  0.1832 -0.1930 -0.8382
  138MOL0     C18501   6.693   1.522   7.155 -0.1938  1.4472  0.3150
  138MOL0     C18502   6.597   1.468   7.064 -0.0397 -0.2418 -1.3136
  138MOL0     O18503   6.466   1.453   7.100  0.1619  0.2888 -0.3434
  138MOL0     C18504   6.398   1.559   7.166 -0.1041 -0.3425 -0.3682
  138MOL0     C18505   6.264   1.605   7.106  0.0209  0.2588  0.4738
  138MOL0     C18506   6.162   1.488   7.098 -0.2345 -0.9253  0.0558
  138MOL0     C18507   6.046   1.542   7.016 -0.0981  0.4138 -0.2332
  138MOL0     C18508   5.940   1.431   6.990  0.7455 -0.1433  0.4703
  138MOL0     C18509   5.815   1.471   6.901  0.2174 -0.6486  0.1317
  138MOL0     C18510   5.727   1.576   6.971 -0.1854 -0.3222 -0.2207
  138MOL0     C18511   5.586   1.569   6.925  0.2122  0.1233  0.2033
  138MOL0     N18512   5.569   1.623   6.786 -0.1388 -0.9946 -0.2623
  138MOL0     C18513   5.559   1.559   6.667 -0.1295 -0.5764 -0.4003
  138MOL0     C18514   5.572   1.660   6.580 -0.5938 -0.0312 -0.1514
  138MOL0     C18515   5.596   1.637   6.432 -0.2325  0.0231  0.1238
  138MOL0     C18516   5.507   1.737   6.346 -0.3575  0.1313 -0.6429
  138MOL0     C18517   5.553   1.710   6.203  0.1465  0.6651 -0.0628
  138MOL0     C18518   5.483   1.801   6.102  0.0779 -0.9745  0.9931
  138MOL0     O18519   5.338   1.764   6.093  0.2049 -0.6892 -0.3063
  138MOL0     C18520   5.302   1.674   5.996 -0.2659  0.4247 -0.1381
  138MOL0     C18521   5.381   1.570   5.934 -0.2635 -0.4957 -0.7084
  138MOL0     C18522   5.319   1.483   5.850 -0.1045 -0.7221 -0.1660
  138MOL0     C18523   5.188   1.494   5.812 -0.0222 -0.2404 -0.0971
  138MOL0     C18524   5.130   1.402   5.706 -0.5908  0.4181  0.7109
  138MOL0     O18525   5.157   1.271   5.706 -1.3883  0.8609  0.4825
  138MOL0     C18526   5.114   1.198   5.597 -0.5449  0.5761 -0.0973
  138MOL0     C18527   5.191   1.217   5.480 -0.2902  0.8490 -0.2610
  138MOL0     C18528   5.179   1.115   5.382  0.0276 -0.6349 -0.1758
  138MOL0     C18529   5.090   1.003   5.399 -0.5191 -0.3332 -0.0963
  138MOL0     O18530   5.084   0.909   5.302 -0.6231  0.0280 -0.0069
  138MOL0     C18531   5.108   0.951   5.167 -0.3370 -0.6594  0.1643
  138MOL0     C18532   5.088   0.842   5.062  0.0030  0.4812  0.8287
  138MOL0     C18533   4.947   0.786   5.064  0.5177  0.5016 -0.3847
  138MOL0     C18534   4.921   0.692   4.941 -0.7411  0.3027  0.1345
  138MOL0     C18535   4.790   0.612   4.955 -0.1577 -0.2108 -0.2269
  138MOL0     C18536   4.770   0.535   4.830  0.3798  0.4581  0.0469
  138MOL0     C18537   4.645   0.447   4.844  0.2052  0.1430  0.6866
  138MOL0     C18538   4.523   0.506   4.767  1.0492 -0.1983  0.3960
  138MOL0    Cl18539   4.370   0.495   4.851 -0.2058  0.4936 -0.5080
  138MOL0     C18540   5.014   0.993   5.513 -0.0344 -0.2232  0.1387
  138MOL0     C18541   5.036   1.084   5.620  0.6912  0.2200 -0.2918
  138MOL0     O18542   5.076   1.460   5.615  0.0985  0.2087  0.2200
  138MOL0     C18543   5.116   1.595   5.863  0.3403 -0.1831  0.3632
  138MOL0     C18544   5.173   1.690   5.957 -0.9255  0.5415 -0.5692
  138MOL0     N18545   5.584   1.782   6.637 -0.2665  0.1171 -0.5851
  138MOL0     N18546   5.580   1.761   6.764  0.5035  1.0670  0.2458
  138MOL0     C18547   6.644   1.410   6.938 -0.3550 -0.2674 -0.3040
  138MOL0     C18548   6.781   1.417   6.908  0.0644  0.6056  0.4602
  138MOL0     C18549   7.258   1.499   6.952 -0.5031  0.1834  0.7782
  138MOL0     C18550   7.378   1.448   7.004 -0.2780  0.2569  1.0232
  138MOL0     C18551   7.509   1.461   6.936 -0.6790  0.5568 -0.2737
  138MOL0     C18552   7.521   1.532   6.818 -0.0679 -0.7192  0.5688
  138MOL0     O18553   7.635   1.544   6.747  0.0117 -0.1417 -0.3132
  138MOL0     C18554   7.743   1.605   6.822  0.1475 -0.3047 -0.3641
  138MOL0     C18555   7.875   1.523   6.828  0.5248  0.7791 -0.1993
  138MOL0     C18556   7.942   1.535   6.689 -0.7490 -0.2303  0.0677
  138MOL0     C18557   8.047   1.423   6.670  0.3634 -0.5177 -0.3515
  138MOL0     C18558   8.183   1.465   6.710 -0.3921  0.7554  0.8084
  138MOL0     C18559   8.293   1.513   6.736  0.6659  0.8430  0.5836
  138MOL0     C18560   7.393   1.587   6.775  0.2047 -0.8915  0.4128
  138MOL0     C18561   7.267   1.577   6.831  0.1737 -0.8766 -0.8345
  138MOL0     C18562   7.147   1.644   6.768 -0.4299 -0.5061  0.7438
  138MOL0     H18563   6.915   1.552   7.182  0.6549 -1.4461 -0.9450
  138MOL0     H18564   6.665   1.540   7.258  1.7738 -2.0409  1.6405
  138MOL0     H18565   6.376   1.528   7.269 -0.4063 -2.5455 -1.0349
  138MOL0     H18566   6.463   1.646   7.168  1.5324 -1.5297 -0.2397
  138MOL0     H18567   6.296   1.634   7.005  1.8799 -3.3228 -0.1418
  138MOL0     H18568   6.229   1.692   7.163 -0.1703  0.4590  0.0548
  138MOL0     H18569   6.137   1.446   7.196 -0.5881  0.4694  0.5857
  138MOL0     H18570   6.213   1.409   7.042  0.8434  0.1595 -0.5691
  138MOL0     H18571   6.006   1.627   7.071 -1.4983 -0.8308  0.7502
  138MOL0     H18572   6.069   1.576   6.915 -2.0239 -1.9805 -1.5880
  138MOL0     H18573   5.980   1.345   6.936  0.1605  0.1823 -0.5102
  138MOL0     H18574   5.901   1.402   7.088 -0.0232 -0.2570  0.1376
  138MOL0     H18575   5.853   1.505   6.804 -1.2055 -0.7418 -0.4770
  138MOL0     H18576   5.752   1.384   6.878 -1.2516  0.2008  0.8641
  138MOL0     H18577   5.751   1.681   6.951  1.1110 -0.2476  1.5299
  138MOL0     H18578   5.738   1.557   7.078  2.5706  2.6979  0.1911
  138MOL0     H18579   5.535   1.473   6.932  1.2615 -0.4305  0.3673
  138MOL0     H18580   5.535   1.636   6.995  0.0499 -0.7317  0.9189
  138MOL0     H18581   5.586   1.454   6.660  2.9795 -0.2066  3.1776
  138MOL0     H18582   5.700   1.649   6.402 -0.2788 -0.9151 -0.4471
  138MOL0     H18583   5.565   1.536   6.404  0.9180 -1.3610  3.3427
  138MOL0     H18584   5.401   1.734   6.373  0.2524  2.1642  2.5787
  138MOL0     H18585   5.537   1.839   6.371 -0.8575 -0.3213  2.2514
  138MOL0     H18586   5.559   1.604   6.177  2.1734  0.8612 -0.5823
  138MOL0     H18587   5.652   1.751   6.180 -0.2332  2.4226  1.1764
  138MOL0     H18588   5.534   1.785   6.006 -0.5226  1.2261  0.2338
  138MOL0     H18589   5.493   1.907   6.128  0.7359 -0.7944  0.0513
  138MOL0     H18590   5.486   1.552   5.950 -0.3293 -1.1344 -0.9791
  138MOL0     H18591   5.391   1.415   5.804  0.3658 -1.7841  2.0298
  138MOL0     H18592   5.275   1.285   5.472  2.3611 -2.0497  0.9356
  138MOL0     H18593   5.245   1.124   5.296  1.1256  1.9396  0.8145
  138MOL0     H18594   5.043   1.036   5.145  1.1615  0.3831 -0.4289
  138MOL0     H18595   5.214   0.970   5.145 -0.8473 -0.4950 -2.3905
  138MOL0     H18596   5.099   0.894   4.967  1.4274 -1.5031 -0.1511
  138MOL0     H18597   5.169   0.769   5.060 -0.5734 -0.1608  0.5040
  138MOL0     H18598   4.927   0.734   5.157 -1.0369 -0.7946 -1.3866
  138MOL0     H18599   4.871   0.864   5.063 -0.2184 -0.2019 -0.6580
  138MOL0     H18600   5.011   0.633   4.921 -0.6252  0.1926  0.9416
  138MOL0     H18601   4.917   0.753   4.850 -1.5836 -0.3534 -0.2715
  138MOL0     H18602   4.705   0.679   4.968  0.5705  1.2100 -2.2488
  138MOL0     H18603   4.790   0.552   5.046  0.9715  1.9527  1.2967
  138MOL0     H18604   4.780   0.602   4.744  1.4268 -0.5285 -0.6280
  138MOL0     H18605   4.860   0.473   4.823 -0.5546 -0.8651 -0.5116
  138MOL0     H18606   4.613   0.426   4.947  0.1990 -1.7476  0.3358
  138MOL0     H18607   4.662   0.346   4.806 -2.5008 -0.8376  1.7870
  138MOL0     H18608   4.552   0.611   4.752  0.6601 -0.3209 -1.3980
  138MOL0     H18609   4.518   0.456   4.670 -2.5893 -0.2354  0.4682
  138MOL0     H18610   4.944   0.911   5.527 -3.7892  2.6968 -0.0614
  138MOL0     H18611   4.989   1.063   5.716  1.5259 -0.6851 -0.0632
  138MOL0     H18612   5.013   1.612   5.833 -0.3897 -1.0894  2.1914
  138MOL0     H18613   5.098   1.765   5.982 -1.0980  0.3770 -0.5944
  138MOL0     H18614   6.575   1.359   6.872 -1.8447  1.0646  0.1823
  138MOL0     H18615   6.829   1.380   6.818  1.5554  0.7037  1.1784
  138MOL0     H18616   7.374   1.392   7.097  1.0263 -0.1305  0.8733
  138MOL0     H18617   7.597   1.421   6.985 -1.1840 -0.6512 -0.3208
  138MOL0     H18618   7.721   1.626   6.927  1.2456 -3.2638  0.5819
  138MOL0     H18619   7.767   1.696   6.766 -2.4593  1.2587  0.8746
  138MOL0     H18620   7.844   1.420   6.844  1.2555  0.3830 -1.2007
  138MOL0     H18621   7.945   1.561   6.903  2.8117  2.4844 -2.9627
  138MOL0     H18622   7.981   1.635   6.670  0.7127 -0.8785 -0.4291
  138MOL0     H18623   7.859   1.522   6.618 -0.9786 -1.4139  0.5153
  138MOL0     H18624   8.013   1.328   6.713  0.1971  0.8859  2.9414
  138MOL0     H18625   8.050   1.408   6.562  1.8674  0.5707 -0.4902
  138MOL0     H18626   8.388   1.562   6.740  0.1401  1.8263  1.5182
  138MOL0     H18627   7.391   1.640   6.681 -1.1033  0.0618  0.9388
  138MOL0     H18628   7.118   1.578   6.686 -1.0828 -0.3557  0.8490
  138MOL0     H18629   7.059   1.644   6.832  2.5584  0.7104  5.3367
  138MOL0     H18630   7.157   1.751   6.744 -0.3663 -0.3856  1.2993
  139MOL0     O18631   2.560   8.172  10.386 -0.6128 -0.8746 -0.2315
  139MOL0     C18632   2.568   8.278  10.458  0.4906 -0.4321  0.9751
  139MOL0     O18633   2.597   8.279  10.588 -0.4976  0.9527  0.1125
  139MOL0     C18634   2.624   8.168  10.664 -0.8358  0.1772 -0.4170
  139MOL0     C18635   2.635   8.033  10.642 -0.1479  0.1467 -0.4449
  139MOL0     C18636   2.638   7.940  10.746 -0.1177  0.9746 -0.3693
  139MOL0     C18637   2.661   7.980  10.879 -0.5127 -0.2153  0.7798
  139MOL0     O18638   2.680   7.901  10.984  0.2703 -0.0467 -0.6606
  139MOL0     C18639   2.659   7.757  10.980  0.1299 -0.5590  0.2528
  139MOL0     C18640   2.756   7.663  10.909  0.3771  0.2501  0.2999
  139MOL0     C18641   2.899   7.695  10.969  0.8596  0.1865 -0.2237
  139MOL0     C18642   3.004   7.589  10.936  1.1044  0.3282 -0.9342
  139MOL0     C18643   3.149   7.641  10.973  1.3198 -0.4072  0.7399
  139MOL0     C18644   3.219   7.540  11.064  0.3257  0.2354 -0.0404
  139MOL0     C18645   3.318   7.618  11.153 -0.8686  0.1203  0.1230
  139MOL0     C18646   3.451   7.650  11.083 -0.0202 -0.4869  0.1461
  139MOL0     N18647   3.521   7.732  11.176  0.2953 -0.7758  0.5073
  139MOL0     C18648   3.594   7.682  11.287  0.5540 -0.4201 -0.2114
  139MOL0     C18649   3.668   7.788  11.326  1.0509 -0.5272 -0.7550
  139MOL0     C18650   3.763   7.778  11.439 -0.5974  0.3385  0.5548
  139MOL0     C18651   3.890   7.849  11.408  0.7288  0.4436  0.3015
  139MOL0     C18652   3.997   7.799  11.496 -0.6630  1.3408 -1.0590
  139MOL0     C18653   4.133   7.856  11.458  0.5746  0.6396 -0.1879
  139MOL0     O18654   4.176   7.838  11.323  0.6840 -0.2837  0.1437
  139MOL0     C18655   4.269   7.736  11.295 -0.3125  0.0090  0.1625
  139MOL0     C18656   4.298   7.624  11.387  0.7090  0.5035  0.3456
  139MOL0     C18657   4.393   7.532  11.367  0.4916  0.3447 -0.9226
  139MOL0     C18658   4.460   7.528  11.249 -0.4283 -0.0915 -1.2398
  139MOL0     C18659   4.553   7.413  11.228  1.0152 -0.0065  0.3265
  139MOL0     O18660   4.558   7.307  11.313 -0.5787  0.1960  0.2047
  139MOL0     C18661   4.652   7.208  11.297 -0.7571 -0.2685  0.4247
  139MOL0     C18662   4.620   7.089  11.236  0.2369  0.1487 -0.7738
  139MOL0     C18663   4.721   6.993  11.222 -0.8174  0.0656 -0.2177
  139MOL0     C18664   4.847   7.013  11.271 -1.1570 -1.0612  0.4742
  139MOL0     O18665   4.957   6.926  11.277  0.1478  0.2703  0.4229
  139MOL0     C18666   4.957   6.809  11.184 -0.2947  0.0316 -0.0855
  139MOL0     C18667   5.088   6.740  11.189 -0.4820  1.2437 -0.0181
  139MOL0     C18668   5.105   6.660  11.312 -0.9217 -0.3209  0.5276
  139MOL0     C18669   5.223   6.569  11.301 -0.5504  0.4645 -0.2465
  139MOL0     C18670   5.250   6.486  11.431 -0.1328  0.7949 -0.5966
  139MOL0     C18671   5.146   6.366  11.438  0.4609 -0.6888  0.1979
  139MOL0     C18672   5.166   6.264  11.547 -0.3721 -0.0499 -0.4913
  139MOL0     C18673   5.051   6.173  11.579  0.1075 -0.3249  0.3628
  139MOL0    Cl18674   5.113   6.060  11.700  0.0203 -0.1867 -0.0666
  139MOL0     C18675   4.880   7.137  11.321  0.2100  1.2307  0.3109
  139MOL0     C18676   4.783   7.232  11.339  0.5345 -0.1652  0.0640
  139MOL0     O18677   4.610   7.415  11.120  0.0294 -0.1720  0.2373
  139MOL0     C18678   4.430   7.630  11.153  0.2314 -0.0119  0.0557
  139MOL0     C18679   4.337   7.733  11.175  0.1527 -0.1096  0.3498
  139MOL0     N18680   3.634   7.902  11.256 -0.1692  0.0706 -0.4745
  139MOL0     N18681   3.548   7.866  11.159  0.0159  0.1000  1.0840
  139MOL0     C18682   2.666   8.119  10.898  0.5904  0.6070  0.0343
  139MOL0     C18683   2.641   8.215  10.797 -0.3593 -0.2064 -0.1960
  139MOL0     C18684   2.539   8.404  10.392  0.1374  0.1543 -0.3550
  139MOL0     C18685   2.414   8.414  10.332 -0.0652  0.5408  0.1543
  139MOL0     C18686   2.364   8.539  10.295 -0.2728 -0.4286  0.5200
  139MOL0     C18687   2.455   8.656  10.300 -0.2352  0.3494  0.1554
  139MOL0     O18688   2.417   8.776  10.246  0.1613 -0.1153 -0.3025
  139MOL0     C18689   2.414   8.805  10.112  1.2151 -0.4676  0.0243
  139MOL0     C18690   2.482   8.945  10.094  0.5474  0.4686 -1.0371
  139MOL0     C18691   2.516   8.981   9.955 -0.2632 -1.0632  0.1504
  139MOL0     C18692   2.502   9.126   9.905  0.5920 -0.9882  0.3587
  139MOL0     C18693   2.555   9.141   9.771 -0.2763 -0.0834 -0.5526
  139MOL0     C18694   2.595   9.136   9.654 -0.6712 -0.0782  0.2247
  139MOL0     C18695   2.586   8.647  10.340 -0.3611  0.6924 -0.5446
  139MOL0     C18696   2.624   8.516  10.393  0.1094  0.3194 -0.2556
  139MOL0     C18697   2.772   8.511  10.457  1.3585  0.3776  0.7889
  139MOL0     H18698   2.636   7.993  10.540 -2.1658  0.6056 -0.6723
  139MOL0     H18699   2.629   7.833  10.728 -0.2548  0.9134  0.0522
  139MOL0     H18700   2.641   7.711  11.078 -1.9940 -2.5325 -0.9753
  139MOL0     H18701   2.561   7.752  10.931 -0.3339 -2.5677  1.2871
  139MOL0     H18702   2.764   7.675  10.801 -3.2561  1.6861  0.0537
  139MOL0     H18703   2.721   7.561  10.929  0.8861  0.1555  0.7345
  139MOL0     H18704   2.887   7.712  11.076  0.7625  2.5424 -0.5466
  139MOL0     H18705   2.940   7.791  10.935  1.9216 -0.4310 -0.7300
  139MOL0     H18706   2.975   7.496  10.987 -2.6831  1.4544 -0.7725
  139MOL0     H18707   3.005   7.559  10.831  1.7456  2.3116 -1.5299
  139MOL0     H18708   3.209   7.650  10.882 -3.0116 -2.9799 -2.7374
  139MOL0     H18709   3.143   7.741  11.017  0.2801 -0.2466  0.2472
  139MOL0     H18710   3.154   7.477  11.126  1.2510 -0.9181 -0.2108
  139MOL0     H18711   3.275   7.471  11.000 -2.4651 -1.1030 -1.1921
  139MOL0     H18712   3.333   7.533  11.220 -2.3403 -1.3428 -1.2980
  139MOL0     H18713   3.277   7.710  11.194  2.6547  3.0605 -2.3294
  139MOL0     H18714   3.514   7.568  11.049 -0.5023 -1.3164  1.2071
  139MOL0     H18715   3.432   7.707  10.992 -2.0252 -1.1491  0.1146
  139MOL0     H18716   3.602   7.584  11.333 -0.4692 -1.9713 -3.0771
  139MOL0     H18717   3.725   7.822  11.531 -0.1887  2.4288 -0.2079
  139MOL0     H18718   3.784   7.671  11.451 -1.3199 -0.3261 -3.0379
  139MOL0     H18719   3.929   7.820  11.309  3.4770 -3.2538  2.2009
  139MOL0     H18720   3.869   7.955  11.421 -5.3462 -0.4603  0.9592
  139MOL0     H18721   4.005   7.691  11.488  1.4512  1.5507 -2.6858
  139MOL0     H18722   3.978   7.834  11.598 -0.6394 -0.3516 -0.4437
  139MOL0     H18723   4.205   7.816  11.530  0.4138  0.3468 -0.1880
  139MOL0     H18724   4.127   7.961  11.487  0.0679 -0.3471  3.8991
  139MOL0     H18725   4.241   7.612  11.478  2.2691  0.7163  1.3927
  139MOL0     H18726   4.410   7.462  11.448  1.8287  2.2779  0.5527
  139MOL0     H18727   4.515   7.071  11.212 -0.8520 -2.2340  4.2510
  139MOL0     H18728   4.701   6.889  11.198  2.3235 -1.1407  1.7731
  139MOL0     H18729   4.876   6.735  11.183  1.2961 -1.7973 -0.5766
  139MOL0     H18730   4.948   6.853  11.085 -1.3487  0.0025 -0.0159
  139MOL0     H18731   5.096   6.677  11.100  0.2312  0.4598  0.5843
  139MOL0     H18732   5.167   6.816  11.185  1.4441 -0.3679  3.0671
  139MOL0     H18733   5.127   6.735  11.389 -2.3318  1.9528 -1.1263
  139MOL0     H18734   5.022   6.592  11.329  0.1444 -2.0750 -0.9559
  139MOL0     H18735   5.306   6.637  11.279 -1.9934  2.3153 -0.2559
  139MOL0     H18736   5.219   6.505  11.212 -0.8192  1.7015 -1.1478
  139MOL0     H18737   5.236   6.548  11.520  1.6314  1.1089 -0.4918
  139MOL0     H18738   5.350   6.442  11.445 -0.9160 -1.0646 -0.5389
  139MOL0     H18739   5.051   6.420  11.442  0.1097 -1.1563 -1.2413
  139MOL0     H18740   5.152   6.315  11.342  1.2836  0.0140 -0.1321
  139MOL0     H18741   5.192   6.316  11.639  0.8115 -1.9821  0.3194
  139MOL0     H18742   5.251   6.200  11.522  1.2309  2.0537 -0.6300
  139MOL0     H18743   4.963   6.228  11.613  0.1421 -0.7613  1.1736
  139MOL0     H18744   5.022   6.119  11.488  0.6256  0.1954 -0.1251
  139MOL0     H18745   4.982   7.147  11.356 -0.0130 -0.3037  1.5293
  139MOL0     H18746   4.811   7.333  11.366  0.9498  0.1232 -1.3513
  139MOL0     H18747   4.491   7.621  11.063 -0.9157 -1.7715 -0.6020
  139MOL0     H18748   4.308   7.807  11.101 -0.0280 -0.5950 -0.0703
  139MOL0     H18749   2.693   8.168  10.991  2.4571  1.3179 -0.8332
  139MOL0     H18750   2.644   8.323  10.813 -1.6144 -0.0617 -0.8059
  139MOL0     H18751   2.343   8.334  10.348 -1.3668  1.4142 -1.0969
  139MOL0     H18752   2.260   8.555  10.269  0.2667  0.6987 -1.1362
  139MOL0     H18753   2.315   8.790  10.068 -0.2550 -3.8035  3.9110
  139MOL0     H18754   2.480   8.744  10.050  2.0138  0.6151 -0.2325
  139MOL0     H18755   2.584   8.930  10.131  0.1664 -1.2753 -0.5890
  139MOL0     H18756   2.426   9.026  10.143 -0.4167 -0.8972  0.2066
  139MOL0     H18757   2.454   8.920   9.888  0.6675 -2.6352  0.6508
  139MOL0     H18758   2.622   8.957   9.944  0.3518  0.4893  2.1995
  139MOL0     H18759   2.402   9.170   9.896  1.0858 -0.1820 -1.7224
  139MOL0     H18760   2.550   9.190   9.979  0.0666 -1.8627  1.5008
  139MOL0     H18761   2.629   9.143   9.553 -0.5908  3.4675  0.3730
  139MOL0     H18762   2.661   8.725  10.335  0.4984 -0.0756 -0.0260
  139MOL0     H18763   2.841   8.532  10.375 -2.7398 -1.0936 -3.4557
  139MOL0     H18764   2.780   8.583  10.539 -0.7171  1.5450  0.0365
  139MOL0     H18765   2.803   8.414  10.498 -3.0479  0.1741  4.5082
  140MOL0     O18766   9.992   3.323   2.620 -0.0532  0.4910 -0.0121
  140MOL0     C18767   9.938   3.391   2.701 -0.0454 -0.8715 -1.3563
  140MOL0     O18768  10.002   3.428   2.824  0.0498 -0.2049  0.6376
  140MOL0     C18769  10.136   3.414   2.858 -0.1160 -0.8535 -0.8171
  140MOL0     C18770  10.239   3.362   2.774 -0.9177  0.2711 -0.6861
  140MOL0     C18771  10.378   3.377   2.803 -1.0129  0.0868 -0.4009
  140MOL0     C18772  10.411   3.442   2.926  0.2287 -0.0256 -0.0895
  140MOL0     O18773  10.543   3.462   2.935  0.4395 -0.3822  0.2830
  140MOL0     C18774  10.578   3.578   3.014 -0.2650  0.6687 -1.2858
  140MOL0     C18775  10.725   3.618   3.014 -0.0692  0.2224  0.6330
  140MOL0     C18776  10.817   3.540   3.099  0.8105  0.3740 -0.6132
  140MOL0     C18777  10.942   3.618   3.128 -0.0892 -0.1486  1.1473
  140MOL0     C18778  11.040   3.600   3.005 -0.2671 -0.2067 -0.1869
  140MOL0     C18779  11.186   3.616   3.041 -0.2504 -0.8441 -0.3183
  140MOL0     C18780  11.273   3.674   2.934  0.5585  0.4190  0.1223
  140MOL0     C18781  11.403   3.734   2.977 -0.2677  0.7706  0.1862
  140MOL0     N18782  11.470   3.799   2.865  0.2497  0.0489  0.2718
  140MOL0     C18783  11.556   3.742   2.781  0.1142 -0.4329  0.6355
  140MOL0     C18784  11.572   3.834   2.683  0.1414  0.2900  0.4641
  140MOL0     C18785  11.667   3.822   2.569  0.5629  0.5595  0.4629
  140MOL0     C18786  11.585   3.833   2.443  0.1064  0.2888  0.3264
  140MOL0     C18787  11.480   3.732   2.415  0.7996 -0.0235 -0.3185
  140MOL0     C18788  11.545   3.592   2.405  0.3503  0.0268  0.5170
  140MOL0     O18789  11.616   3.577   2.281 -0.3362  0.1557 -0.3993
  140MOL0     C18790  11.542   3.530   2.183  1.2523 -0.4457  0.3060
  140MOL0     C18791  11.606   3.532   2.060  0.2076  0.0629 -0.1702
  140MOL0     C18792  11.537   3.494   1.945 -0.6829 -1.2934  0.3680
  140MOL0     C18793  11.416   3.425   1.952 -0.2432 -0.5206  0.3840
  140MOL0     C18794  11.349   3.361   1.841  0.6771 -0.0210  0.0962
  140MOL0     O18795  11.428   3.315   1.734 -0.0186 -1.0784  0.0563
  140MOL0     C18796  11.374   3.229   1.649 -0.1916  0.1903 -0.3962
  140MOL0     C18797  11.434   3.098   1.647  0.5073  0.7843 -0.2890
  140MOL0     C18798  11.388   3.006   1.555  0.2846  0.3406 -0.1511
  140MOL0     C18799  11.286   3.035   1.463  0.4959 -1.0549 -0.0107
  140MOL0     O18800  11.259   2.958   1.349 -0.1854 -0.8469 -0.2675
  140MOL0     C18801  11.236   2.821   1.371 -0.0446  0.6242  0.4517
  140MOL0     C18802  11.116   2.782   1.466  0.0270 -1.1420 -0.2918
  140MOL0     C18803  11.106   2.629   1.499 -0.1476 -1.2528 -0.2694
  140MOL0     C18804  11.218   2.557   1.576 -0.5262  0.1033  0.6137
  140MOL0     C18805  11.263   2.625   1.703  0.3549 -0.7339 -0.5584
  140MOL0     C18806  11.364   2.537   1.781  0.3131  0.4264 -0.7177
  140MOL0     C18807  11.440   2.619   1.895 -0.4078  0.4638  1.1030
  140MOL0     C18808  11.552   2.540   1.970  0.1580 -0.0263  0.0743
  140MOL0    Cl18809  11.629   2.670   2.071 -0.0467  0.4780  0.4231
  140MOL0     C18810  11.233   3.173   1.465  0.1784  0.7643 -0.0022
  140MOL0     C18811  11.286   3.269   1.546  0.3949  0.2208 -0.5641
  140MOL0     O18812  11.230   3.334   1.848  0.6915 -0.5335 -0.0344
  140MOL0     C18813  11.345   3.431   2.073 -0.3004  0.6655  0.3236
  140MOL0     C18814  11.402   3.487   2.183 -0.5228 -1.4183 -0.3180
  140MOL0     N18815  11.487   3.936   2.704  0.2605 -0.2741  0.3352
  140MOL0     N18816  11.429   3.919   2.815 -0.0751 -0.2195  0.7629
  140MOL0     C18817  10.308   3.495   3.004  0.1138  1.3617  0.1460
  140MOL0     C18818  10.173   3.478   2.976 -0.7926 -0.5596 -0.6565
  140MOL0     C18819   9.801   3.441   2.672 -0.3193 -0.5534  0.0156
  140MOL0     C18820   9.744   3.521   2.778  0.5284  1.2922 -0.0609
  140MOL0     C18821   9.616   3.556   2.773  0.3120  0.4752  1.0511
  140MOL0     C18822   9.535   3.545   2.658 -0.6033 -1.0256 -0.3229
  140MOL0     O18823   9.417   3.610   2.638  0.4783 -0.1348  0.6886
  140MOL0     C18824   9.369   3.682   2.756 -0.3735  0.1032  0.7725
  140MOL0     C18825   9.237   3.737   2.732  0.1128 -0.7327 -0.6042
  140MOL0     C18826   9.207   3.829   2.855  0.7438 -0.5571  0.4575
  140MOL0     C18827   9.081   3.904   2.858 -0.0890 -0.5000  0.0120
  140MOL0     C18828   8.960   3.814   2.881 -1.0370 -0.1049  0.5098
  140MOL0     C18829   8.861   3.747   2.891  0.1159  0.4875 -0.5995
  140MOL0     C18830   9.592   3.482   2.553 -0.5628 -0.1583  0.0732
  140MOL0     C18831   9.721   3.419   2.552  0.3130  0.6081 -0.0376
  140MOL0     C18832   9.774   3.342   2.435 -0.2698  0.3947  0.9655
  140MOL0     H18833  10.215   3.312   2.681  0.2089  2.1996 -2.0995
  140MOL0     H18834  10.457   3.351   2.733 -2.9640 -1.9413 -2.0082
  140MOL0     H18835  10.515   3.663   2.989  0.3818  1.2780 -0.9056
  140MOL0     H18836  10.550   3.556   3.118 -1.9870 -0.1065 -1.8880
  140MOL0     H18837  10.728   3.720   3.053  0.2836 -0.9646  3.9925
  140MOL0     H18838  10.759   3.614   2.910 -1.3324  3.8078 -0.0532
  140MOL0     H18839  10.840   3.446   3.047 -2.0751 -2.0198  1.9909
  140MOL0     H18840  10.767   3.516   3.194  1.6783  1.1450  0.0507
  140MOL0     H18841  10.920   3.723   3.150 -1.2690 -0.2829  0.6725
  140MOL0     H18842  10.979   3.572   3.220 -1.6588  2.0341  2.9801
  140MOL0     H18843  11.044   3.500   2.961  2.7271 -0.4563  0.4710
  140MOL0     H18844  11.007   3.662   2.921  2.8008  1.6079 -0.1701
  140MOL0     H18845  11.185   3.691   3.120  0.9054 -1.2124  0.0804
  140MOL0     H18846  11.247   3.532   3.078 -2.0573 -2.2477 -0.4100
  140MOL0     H18847  11.216   3.762   2.904  0.7116  0.4676 -0.0285
  140MOL0     H18848  11.284   3.599   2.855 -2.3610 -1.3582  1.2523
  140MOL0     H18849  11.398   3.809   3.056  2.3639 -0.2449  1.4231
  140MOL0     H18850  11.472   3.655   3.008 -1.1665  0.4486  1.4398
  140MOL0     H18851  11.625   3.658   2.787  0.5953 -0.0515  0.5410
  140MOL0     H18852  11.737   3.906   2.575 -0.0597  1.0908  0.4148
  140MOL0     H18853  11.730   3.733   2.575  2.0545  0.9327 -4.6030
  140MOL0     H18854  11.525   3.924   2.449 -1.5706 -0.7844  0.6401
  140MOL0     H18855  11.660   3.831   2.364 -0.2310  0.0073  0.0161
  140MOL0     H18856  11.438   3.760   2.318  1.5920 -0.8432 -0.9158
  140MOL0     H18857  11.399   3.724   2.488 -0.4000  0.3182 -1.5635
  140MOL0     H18858  11.467   3.522   2.435  0.1717  0.5248  1.2532
  140MOL0     H18859  11.624   3.577   2.480 -0.2871 -0.0906  1.1788
  140MOL0     H18860  11.708   3.565   2.045 -0.2067  1.3498 -0.3102
  140MOL0     H18861  11.596   3.504   1.854  0.5661  0.3152  1.3086
  140MOL0     H18862  11.512   3.084   1.721  1.1660  2.2714 -0.6772
  140MOL0     H18863  11.427   2.905   1.561 -2.5204 -0.7560  2.5331
  140MOL0     H18864  11.206   2.772   1.278 -1.6710 -0.8071  1.6520
  140MOL0     H18865  11.329   2.778   1.409  0.4730  0.0202 -1.4083
  140MOL0     H18866  11.133   2.829   1.563 -0.9988 -2.2012  0.4126
  140MOL0     H18867  11.021   2.815   1.423 -1.1920 -5.1820 -1.1338
  140MOL0     H18868  11.006   2.622   1.543 -0.5846 -1.0678 -1.1956
  140MOL0     H18869  11.099   2.571   1.406  2.7808 -2.8333  0.3732
  140MOL0     H18870  11.307   2.555   1.512 -0.4006  0.4031  0.7791
  140MOL0     H18871  11.183   2.454   1.583  0.9446 -0.5060 -0.3549
  140MOL0     H18872  11.180   2.653   1.768 -0.2714  0.5740 -1.8582
  140MOL0     H18873  11.314   2.720   1.683 -0.6665  0.5106  2.3039
  140MOL0     H18874  11.315   2.449   1.823  0.4075 -1.0779 -3.5384
  140MOL0     H18875  11.435   2.498   1.707  1.0778 -1.3001  0.8520
  140MOL0     H18876  11.361   2.658   1.960  0.2158 -0.5465  2.5114
  140MOL0     H18877  11.490   2.706   1.851  3.5151 -3.1687 -2.6229
  140MOL0     H18878  11.510   2.458   2.029  0.9797 -1.6504 -1.5081
  140MOL0     H18879  11.640   2.514   1.910  0.5064  5.9568 -2.6601
  140MOL0     H18880  11.170   3.221   1.390 -0.1635 -2.5345 -2.0415
  140MOL0     H18881  11.251   3.371   1.543 -0.7327  0.0531  2.6824
  140MOL0     H18882  11.248   3.384   2.084  0.2944 -0.5722  0.3990
  140MOL0     H18883  11.340   3.504   2.270  1.3336 -1.2936  1.0291
  140MOL0     H18884  10.336   3.557   3.088 -0.7539 -1.9108  3.0810
  140MOL0     H18885  10.097   3.538   3.025 -0.3798  0.8622 -1.6854
  140MOL0     H18886   9.809   3.538   2.863  0.1361  1.5092  0.1976
  140MOL0     H18887   9.588   3.616   2.859 -1.7582  0.1964  0.6305
  140MOL0     H18888   9.425   3.772   2.783 -2.8801  2.8096 -2.3389
  140MOL0     H18889   9.363   3.616   2.843  0.3441  1.0483  1.5588
  140MOL0     H18890   9.157   3.663   2.723 -0.8490  0.2362 -0.1652
  140MOL0     H18891   9.240   3.791   2.637 -1.5323  1.1252  0.3304
  140MOL0     H18892   9.280   3.909   2.860 -0.2818  0.3339  3.8832
  140MOL0     H18893   9.208   3.771   2.948  0.0043 -0.5073  0.5074
  140MOL0     H18894   9.073   3.978   2.939 -0.3998  0.7056 -1.0807
  140MOL0     H18895   9.070   3.973   2.774 -0.7361 -0.0913  0.4229
  140MOL0     H18896   8.780   3.686   2.925 -0.9686  0.3826 -3.1744
  140MOL0     H18897   9.520   3.462   2.475  1.4230 -1.8846 -1.4488
  140MOL0     H18898   9.799   3.243   2.475  0.2466  0.1287  0.0193
  140MOL0     H18899   9.702   3.338   2.352 -1.3664  3.0933  1.6740
  140MOL0     H18900   9.864   3.384   2.388 -0.3605  0.7150  1.0768
  141MOL0     O18901   6.718  11.105   6.450  0.1996  0.4711 -0.0398
  141MOL0     C18902   6.624  11.100   6.364 -0.3767  0.0334 -0.0963
  141MOL0     O18903   6.642  11.139   6.230  1.0624 -0.0961 -0.0681
  141MOL0     C18904   6.769  11.174   6.194  0.2253  0.0414 -0.1420
  141MOL0     C18905   6.839  11.088   6.111  0.4150  0.0315  0.5616
  141MOL0     C18906   6.973  11.106   6.084 -0.1521 -0.1444 -0.4672
  141MOL0     C18907   7.042  11.223   6.141 -0.0016 -0.2559  0.7037
  141MOL0     O18908   7.175  11.238   6.136 -0.5774 -0.1810  0.7213
  141MOL0     C18909   7.226  11.225   6.000  0.3964 -0.4616  0.2266
  141MOL0     C18910   7.365  11.279   5.969  0.8033  0.5446  0.6346
  141MOL0     C18911   7.392  11.415   6.031 -0.8357  0.6795 -0.8265
  141MOL0     C18912   7.524  11.475   5.984  1.5469 -0.8621  0.1972
  141MOL0     C18913   7.566  11.584   6.082 -0.2629  0.7651 -0.2899
  141MOL0     C18914   7.471  11.708   6.080 -0.3972 -0.4674  0.1808
  141MOL0     C18915   7.543  11.829   6.137 -0.8731 -0.2528 -0.4910
  141MOL0     C18916   7.632  11.894   6.032  0.4826 -0.3729  0.2241
  141MOL0     N18917   7.647  12.034   6.062  0.4499 -0.3431 -0.2390
  141MOL0     C18918   7.546  12.128   6.078 -0.2411 -0.2480  0.5751
  141MOL0     C18919   7.612  12.248   6.068  0.8529 -0.2952  0.1947
  141MOL0     C18920   7.552  12.388   6.046  0.6792 -0.3245  0.3253
  141MOL0     C18921   7.528  12.392   5.892 -0.2178 -0.5365 -0.3384
  141MOL0     C18922   7.446  12.513   5.846  0.0035 -1.0240 -0.3663
  141MOL0     C18923   7.453  12.542   5.696  0.6871  0.0082 -0.0997
  141MOL0     O18924   7.587  12.536   5.649 -0.1320 -0.3500 -0.4048
  141MOL0     C18925   7.625  12.627   5.553  0.6713 -0.9794 -0.4186
  141MOL0     C18926   7.634  12.765   5.586 -0.6265 -0.3784 -0.6702
  141MOL0     C18927   7.678  12.862   5.494  0.8132  0.1680 -0.6364
  141MOL0     C18928   7.723  12.825   5.370 -0.2804  0.1271 -0.2298
  141MOL0     C18929   7.797  12.913   5.288 -0.5156 -0.2307  0.1763
  141MOL0     O18930   7.849  13.028   5.338  0.0379  0.5550 -0.0143
  141MOL0     C18931   7.956  13.085   5.287  0.0605 -0.0861 -0.4014
  141MOL0     C18932   7.961  13.224   5.263 -0.5546 -1.2202  0.1281
  141MOL0     C18933   8.077  13.292   5.216  0.4369 -0.2535 -0.9878
  141MOL0     C18934   8.178  13.212   5.177  0.1533  0.8668  0.5686
  141MOL0     O18935   8.291  13.283   5.143  0.3110  0.4562 -0.1870
  141MOL0     C18936   8.399  13.275   5.230  0.1274 -0.8031 -0.2882
  141MOL0     C18937   8.373  13.338   5.362  0.4058  0.4285 -0.2566
  141MOL0     C18938   8.381  13.501   5.351 -0.1092 -0.1407 -0.3523
  141MOL0     C18939   8.425  13.555   5.488 -0.4852  0.2426  0.6046
  141MOL0     C18940   8.444  13.711   5.487 -0.5803  0.9106 -0.0018
  141MOL0     C18941   8.338  13.794   5.428 -0.6687  0.3593  0.3573
  141MOL0     C18942   8.368  13.944   5.455  0.4037  1.3321 -0.3119
  141MOL0     C18943   8.260  14.034   5.392  0.7730 -0.8334 -0.1947
  141MOL0    Cl18944   8.106  13.988   5.464  0.5681  0.3295  0.3175
  141MOL0     C18945   8.172  13.077   5.193  0.3958  0.1657  0.4657
  141MOL0     C18946   8.064  13.005   5.252  0.4193  0.0102  0.3175
  141MOL0     O18947   7.816  12.885   5.170 -0.1406  0.0077 -0.7458
  141MOL0     C18948   7.722  12.689   5.337 -0.3987 -1.0061 -0.7959
  141MOL0     C18949   7.672  12.594   5.418 -0.5356 -0.0938 -0.3298
  141MOL0     N18950   7.739  12.227   6.051 -0.3535 -0.2908  0.4461
  141MOL0     N18951   7.763  12.104   6.053  0.3345 -0.5669  0.4808
  141MOL0     C18952   6.967  11.303   6.226 -0.3522  0.4597 -0.0429
  141MOL0     C18953   6.835  11.282   6.249  0.1201  0.3553 -0.0050
  141MOL0     C18954   6.494  11.050   6.406  0.2282  0.0634 -0.9972
  141MOL0     C18955   6.480  11.009   6.543  0.4643  0.9771  0.4229
  141MOL0     C18956   6.351  10.990   6.594  0.3207  0.1804  0.0798
  141MOL0     C18957   6.238  11.016   6.516 -0.6137 -0.3931 -0.5762
  141MOL0     O18958   6.113  10.993   6.575 -1.0499  0.0791  0.3134
  141MOL0     C18959   6.092  11.040   6.705  0.3576 -0.3501 -0.2696
  141MOL0     C18960   5.960  11.106   6.737  0.1901  0.2798  0.5168
  141MOL0     C18961   5.834  11.026   6.683  0.1137  0.1833  0.5854
  141MOL0     C18962   5.806  11.041   6.523  0.5925 -0.3931 -0.5011
  141MOL0     C18963   5.668  11.003   6.502  0.2709  0.2232 -0.2339
  141MOL0     C18964   5.566  10.945   6.494 -0.6408  0.9193 -1.2290
  141MOL0     C18965   6.251  11.040   6.384  0.4660  0.2447  1.1189
  141MOL0     C18966   6.374  11.064   6.326 -0.3510 -0.3264 -0.5019
  141MOL0     C18967   6.381  11.087   6.176  0.5166 -0.4935 -0.5998
  141MOL0     H18968   6.784  11.005   6.067  0.0026  1.9000 -2.7542
  141MOL0     H18969   7.026  11.018   6.049  1.7403 -1.2723  4.4533
  141MOL0     H18970   7.229  11.120   5.969 -1.4782 -0.3790 -0.3959
  141MOL0     H18971   7.164  11.283   5.931  1.0814  1.1767  0.9332
  141MOL0     H18972   7.360  11.279   5.859  0.7855 -1.4152  0.5954
  141MOL0     H18973   7.450  11.217   5.997 -0.1325 -0.2358  1.8421
  141MOL0     H18974   7.393  11.409   6.140 -0.1480 -1.1461 -0.9022
  141MOL0     H18975   7.314  11.488   6.007 -1.0584  0.2486 -1.4419
  141MOL0     H18976   7.606  11.403   5.984  3.5699  1.2871 -0.2709
  141MOL0     H18977   7.500  11.518   5.886 -0.8066 -0.0866  1.0416
  141MOL0     H18978   7.571  11.545   6.184 -1.0512 -0.1368 -0.5910
  141MOL0     H18979   7.665  11.623   6.056 -0.3968 -0.1203 -2.3180
  141MOL0     H18980   7.449  11.727   5.975 -1.2650 -2.0082  0.0579
  141MOL0     H18981   7.375  11.689   6.129  0.3673  0.1769  2.0497
  141MOL0     H18982   7.596  11.801   6.228  1.0337  0.8028 -1.2271
  141MOL0     H18983   7.452  11.887   6.159  0.7765  1.9624  0.9825
  141MOL0     H18984   7.721  11.831   6.037  0.8100  0.1727  1.5233
  141MOL0     H18985   7.585  11.887   5.933 -4.0283 -0.0408  2.0859
  141MOL0     H18986   7.438  12.113   6.081 -0.8381  2.8005 -1.4799
  141MOL0     H18987   7.453  12.392   6.093  0.4089 -1.5839 -0.0835
  141MOL0     H18988   7.613  12.474   6.073  0.5199 -0.5726  1.5234
  141MOL0     H18989   7.628  12.411   5.852 -1.2396  0.0562 -2.8084
  141MOL0     H18990   7.476  12.300   5.866 -3.4458  0.4644  1.9301
  141MOL0     H18991   7.484  12.605   5.891 -0.7449  0.0681 -1.8807
  141MOL0     H18992   7.341  12.496   5.875  0.2705 -0.9771  0.6650
  141MOL0     H18993   7.420  12.645   5.682  2.2447  0.4666 -0.5628
  141MOL0     H18994   7.386  12.469   5.648 -2.9356  1.8388  1.7721
  141MOL0     H18995   7.597  12.803   5.680 -3.0684  1.3684 -2.2013
  141MOL0     H18996   7.680  12.964   5.529  0.9505  0.3043 -1.0294
  141MOL0     H18997   7.867  13.276   5.280  0.6102  0.9690  0.1789
  141MOL0     H18998   8.084  13.399   5.197 -2.4008  0.2134  0.0743
  141MOL0     H18999   8.438  13.173   5.244  0.5833 -0.3932  1.6456
  141MOL0     H19000   8.476  13.338   5.185 -0.6796  1.3266  1.1884
  141MOL0     H19001   8.274  13.308   5.398  0.7461 -1.0529 -0.4798
  141MOL0     H19002   8.461  13.308   5.420  0.3237 -3.0970 -1.6846
  141MOL0     H19003   8.458  13.532   5.280  1.7651  0.1967  1.7084
  141MOL0     H19004   8.287  13.547   5.318 -0.3247 -0.0461  0.3747
  141MOL0     H19005   8.525  13.517   5.510 -0.5912  0.7508  2.1508
  141MOL0     H19006   8.362  13.518   5.569  0.5636 -0.3218  1.1856
  141MOL0     H19007   8.541  13.734   5.442 -0.3195  1.2165  0.6935
  141MOL0     H19008   8.466  13.750   5.587  1.8392  2.4757 -1.0491
  141MOL0     H19009   8.336  13.761   5.323 -1.1126 -4.9194  1.7459
  141MOL0     H19010   8.247  13.756   5.474  0.2276 -3.2141 -0.4936
  141MOL0     H19011   8.466  13.970   5.413  1.2298 -1.9750 -0.7567
  141MOL0     H19012   8.369  13.958   5.563 -0.0935 -0.9272  0.0447
  141MOL0     H19013   8.290  14.136   5.418  1.3225 -1.5168  2.0142
  141MOL0     H19014   8.252  14.025   5.283 -0.7397  1.1893 -0.3232
  141MOL0     H19015   8.255  13.011   5.170 -2.0947 -1.5359 -5.5368
  141MOL0     H19016   8.080  12.899   5.270 -1.0566 -0.5550 -1.3912
  141MOL0     H19017   7.760  12.673   5.236  1.4016 -1.1301 -0.1275
  141MOL0     H19018   7.650  12.494   5.382 -1.4118  0.2953 -0.8993
  141MOL0     H19019   7.002  11.399   6.262  1.2592 -1.1069  2.9616
  141MOL0     H19020   6.779  11.352   6.309 -0.0069  1.1316 -0.9955
  141MOL0     H19021   6.569  11.001   6.605  2.9776  1.1731 -2.8774
  141MOL0     H19022   6.339  10.941   6.690  0.8544 -0.4516 -0.1745
  141MOL0     H19023   6.174  11.105   6.739  1.4183 -0.1096 -3.0465
  141MOL0     H19024   6.098  10.956   6.774 -0.4401  0.9386  1.4703
  141MOL0     H19025   5.963  11.207   6.697 -0.0597  0.1895  0.2632
  141MOL0     H19026   5.952  11.120   6.845 -0.5556  2.3852  0.2367
  141MOL0     H19027   5.748  11.057   6.743 -0.7006  0.9323 -0.9197
  141MOL0     H19028   5.842  10.921   6.713 -0.1969  0.1201  0.4528
  141MOL0     H19029   5.817  11.141   6.481 -2.4339  0.3426  0.1972
  141MOL0     H19030   5.872  10.978   6.463 -0.4630  0.8776 -3.1843
  141MOL0     H19031   5.469  10.904   6.473  0.3640 -3.6397  1.7231
  141MOL0     H19032   6.167  11.038   6.315  0.3391 -1.4977  1.2935
  141MOL0     H19033   6.422  11.187   6.158 -1.8068  0.0597 -3.6824
  141MOL0     H19034   6.434  11.010   6.119  1.4290  0.5052 -1.1383
  141MOL0     H19035   6.277  11.092   6.144 -0.1794 -0.5810  1.5045
  142MOL0     O19036   7.216   9.265   6.749 -0.4395 -0.1677 -0.1589
  142MOL0     C19037   7.288   9.323   6.833 -0.2901  0.0623  0.3472
  142MOL0     O19038   7.282   9.460   6.862  0.0558  0.2333  0.8025
  142MOL0     C19039   7.199   9.539   6.785  0.8525  0.1137  1.0683
  142MOL0     C19040   7.064   9.561   6.818 -0.8654  0.2584  0.6535
  142MOL0     C19041   6.992   9.667   6.767  0.5810  0.1807  0.7433
  142MOL0     C19042   7.046   9.741   6.666  0.0378 -0.0794 -0.0101
  142MOL0     O19043   6.960   9.828   6.601  0.7024  0.7918 -0.1269
  142MOL0     C19044   6.998   9.966   6.611  0.1979  0.1437  0.0379
  142MOL0     C19045   6.985  10.027   6.737  0.5990 -0.6581 -0.1882
  142MOL0     C19046   6.839  10.053   6.758 -0.4745 -1.1935  0.7050
  142MOL0     C19047   6.825  10.107   6.902  0.5591  0.0886  0.2733
  142MOL0     C19048   6.678  10.102   6.955  0.6920 -0.3727  0.6294
  142MOL0     C19049   6.653   9.982   7.038  0.0405  0.6381 -0.4191
  142MOL0     C19050   6.505   9.994   7.074  0.0689  0.2729  0.3664
  142MOL0     C19051   6.403   9.962   6.963 -0.1548 -0.3865 -0.0610
  142MOL0     N19052   6.262   9.947   7.005 -0.3505  0.0689  0.1273
  142MOL0     C19053   6.192  10.048   7.065 -0.2038  0.5024 -0.3790
  142MOL0     C19054   6.092   9.994   7.135 -0.4850  0.6638  0.5195
  142MOL0     C19055   5.985  10.082   7.186 -0.7340 -0.7639 -0.4797
  142MOL0     C19056   5.857  10.008   7.188  0.8649 -0.3710 -0.1646
  142MOL0     C19057   5.742  10.097   7.234  0.2540 -0.5399 -1.0175
  142MOL0     C19058   5.765  10.136   7.383 -0.2842 -0.1021 -0.0838
  142MOL0     O19059   5.640  10.196   7.420 -0.2525  0.1828  0.3755
  142MOL0     C19060   5.600  10.209   7.549 -0.4157  0.0823  0.6660
  142MOL0     C19061   5.467  10.227   7.572  0.3967 -0.3875  0.5600
  142MOL0     C19062   5.411  10.248   7.698 -0.3429  0.3376  0.5084
  142MOL0     C19063   5.489  10.235   7.815  0.8018  0.1096 -0.7098
  142MOL0     C19064   5.422  10.256   7.955  1.0909 -0.5644  0.1444
  142MOL0     O19065   5.295  10.294   7.950  1.1253  0.1186  0.3229
  142MOL0     C19066   5.224  10.317   8.062  0.4628 -0.2043 -0.2677
  142MOL0     C19067   5.270  10.421   8.150  0.3562  0.8487  0.1416
  142MOL0     C19068   5.204  10.452   8.264  0.3783  0.4337 -0.5021
  142MOL0     C19069   5.081  10.376   8.293  0.3073  0.8743  0.4775
  142MOL0     O19070   5.001  10.412   8.400 -1.2804 -0.1467  0.8488
  142MOL0     C19071   5.069  10.447   8.520  0.2219  0.0054  0.0832
  142MOL0     C19072   4.984  10.440   8.643 -0.6460 -0.5944 -0.7051
  142MOL0     C19073   4.967  10.291   8.691  0.1595 -0.2595  1.1334
  142MOL0     C19074   4.909  10.271   8.831  0.8592 -1.2184  0.3686
  142MOL0     C19075   4.926  10.116   8.883  0.6390  0.1184  0.0177
  142MOL0     C19076   4.805  10.046   8.947  0.1656  0.0185 -0.5973
  142MOL0     C19077   4.747  10.100   9.080 -0.4556  0.1376 -0.3912
  142MOL0     C19078   4.716   9.989   9.178 -0.7170 -0.1449  0.1326
  142MOL0    Cl19079   4.575   9.893   9.124 -0.1622 -0.5187  0.0339
  142MOL0     C19080   5.033  10.285   8.206  0.0011 -0.5592 -0.0587
  142MOL0     C19081   5.102  10.254   8.089  0.7349  0.3485 -0.9564
  142MOL0     O19082   5.492  10.244   8.058  0.0726 -0.1465  0.3315
  142MOL0     C19083   5.627  10.203   7.805  1.0766 -0.7314  0.6516
  142MOL0     C19084   5.679  10.196   7.669  0.4838 -0.8063  0.4473
  142MOL0     N19085   6.106   9.855   7.144 -0.0653  0.2887  0.2981
  142MOL0     N19086   6.205   9.837   7.058  0.1603  0.3536 -0.1104
  142MOL0     C19087   7.168   9.713   6.618 -0.2492 -0.1598  0.8031
  142MOL0     C19088   7.241   9.610   6.670 -0.0776 -0.2907 -0.4347
  142MOL0     C19089   7.383   9.248   6.919  0.5618  0.6733 -0.0037
  142MOL0     C19090   7.466   9.328   6.999 -0.0885  0.0554 -0.2673
  142MOL0     C19091   7.537   9.265   7.111 -1.3565 -0.3911 -0.1207
  142MOL0     C19092   7.533   9.129   7.131  0.2381  0.2646 -0.0034
  142MOL0     O19093   7.621   9.077   7.219  0.1674 -0.1552  0.5975
  142MOL0     C19094   7.759   9.084   7.188  0.7102 -0.1775  0.2201
  142MOL0     C19095   7.834   9.189   7.276  0.1136 -0.3230 -0.1402
  142MOL0     C19096   7.992   9.185   7.265  0.7713  0.2815  0.1900
  142MOL0     C19097   8.046   9.158   7.127 -0.9157  0.1917  0.1805
  142MOL0     C19098   8.180   9.227   7.103 -0.1223  0.9415 -0.7802
  142MOL0     C19099   8.276   9.297   7.106 -0.6069 -0.6095  0.4525
  142MOL0     C19100   7.454   9.047   7.045  0.0912 -0.1284  1.4202
  142MOL0     C19101   7.379   9.107   6.944 -0.6753 -0.2121 -0.1870
  142MOL0     C19102   7.292   9.005   6.873 -0.1383  0.2216  0.5692
  142MOL0     H19103   7.032   9.498   6.900  2.6035 -1.0846  1.1553
  142MOL0     H19104   6.893   9.688   6.808  0.9564  0.4821  1.5205
  142MOL0     H19105   7.103   9.977   6.585  0.4381 -0.1193  0.8515
  142MOL0     H19106   6.938  10.021   6.538  3.0179  2.4871 -0.6804
  142MOL0     H19107   7.037  10.124   6.735 -1.2686  0.3666 -1.8258
  142MOL0     H19108   7.033   9.969   6.817  1.3394  1.7692  1.2427
  142MOL0     H19109   6.793   9.955   6.741  1.3791 -1.8146 -1.2259
  142MOL0     H19110   6.795  10.133   6.699 -0.0327 -0.2212  1.6515
  142MOL0     H19111   6.897  10.068   6.975  0.5763 -0.2394  0.0850
  142MOL0     H19112   6.846  10.214   6.907 -2.6174  0.8347 -0.3188
  142MOL0     H19113   6.664  10.191   7.017 -0.9738 -1.5477  2.0412
  142MOL0     H19114   6.610  10.117   6.871  1.1418 -2.4697 -0.1702
  142MOL0     H19115   6.690   9.897   6.981 -2.0522  0.2214 -1.2573
  142MOL0     H19116   6.714   9.998   7.127  0.1023 -0.6054 -0.2327
  142MOL0     H19117   6.496  10.095   7.114  3.1341  0.8342 -0.0628
  142MOL0     H19118   6.492   9.920   7.153  1.5547 -2.0344 -1.4020
  142MOL0     H19119   6.416  10.041   6.889  1.1972 -0.0973  0.4523
  142MOL0     H19120   6.431   9.869   6.913 -0.7751 -0.9253  0.5778
  142MOL0     H19121   6.208  10.155   7.055  0.9422  0.3345 -0.4737
  142MOL0     H19122   6.006  10.123   7.286 -0.5039  1.4482 -1.3790
  142MOL0     H19123   5.978  10.165   7.115  2.8448 -0.5795 -0.8261
  142MOL0     H19124   5.831   9.972   7.088 -2.8179 -0.2165  0.5944
  142MOL0     H19125   5.869   9.918   7.250  1.0985 -1.6286 -1.9432
  142MOL0     H19126   5.657  10.031   7.217  1.2543 -1.1208 -4.7807
  142MOL0     H19127   5.727  10.185   7.169 -3.8744 -0.2822  0.0044
  142MOL0     H19128   5.849  10.206   7.391 -0.9221  0.4343  3.5061
  142MOL0     H19129   5.777  10.047   7.446 -0.7506  0.5045  0.8854
  142MOL0     H19130   5.397  10.212   7.490 -0.0569  1.3165  0.5822
  142MOL0     H19131   5.305  10.269   7.710 -0.5888  0.8124 -2.0162
  142MOL0     H19132   5.361  10.475   8.129 -0.0408  2.1074  1.5023
  142MOL0     H19133   5.255  10.527   8.323  2.6553 -1.9305  0.7214
  142MOL0     H19134   5.158  10.383   8.528  0.9402  0.9007 -0.5005
  142MOL0     H19135   5.105  10.550   8.513  3.1134 -0.8904  0.4998
  142MOL0     H19136   5.036  10.492   8.724 -1.9222  0.9683 -0.8494
  142MOL0     H19137   4.885  10.479   8.618  0.1446  1.0956 -1.3291
  142MOL0     H19138   4.918  10.222   8.621  3.5852 -0.6363 -1.1334
  142MOL0     H19139   5.068  10.251   8.678  1.3456  1.5430  3.9012
  142MOL0     H19140   4.801  10.289   8.827  0.7632 -1.8989 -2.0008
  142MOL0     H19141   4.941  10.358   8.890 -2.1899  0.0182  0.3843
  142MOL0     H19142   5.010  10.109   8.952  1.1298 -1.4501 -0.6777
  142MOL0     H19143   4.942  10.052   8.795 -0.9355 -0.4105  0.0721
  142MOL0     H19144   4.722  10.021   8.881  0.5136 -1.4303 -0.5229
  142MOL0     H19145   4.844   9.947   8.974  1.9125  1.1998  1.6028
  142MOL0     H19146   4.662  10.163   9.054  1.2352  3.4003  1.3279
  142MOL0     H19147   4.817  10.167   9.130  1.2207 -2.5992  1.1532
  142MOL0     H19148   4.807   9.929   9.175 -1.4773 -1.3324  0.0698
  142MOL0     H19149   4.704  10.020   9.282  0.8738  1.0501 -0.0003
  142MOL0     H19150   4.936  10.246   8.234 -0.8507  1.7620  0.4836
  142MOL0     H19151   5.052  10.185   8.023  1.5207 -3.3080  1.9267
  142MOL0     H19152   5.689  10.195   7.894 -0.3609  3.6749  2.2950
  142MOL0     H19153   5.787  10.186   7.659  0.9612  2.8679  0.4609
  142MOL0     H19154   7.205   9.779   6.540 -1.4284 -1.8121 -1.3003
  142MOL0     H19155   7.345   9.594   6.644  1.5001  1.3983  3.9043
  142MOL0     H19156   7.493   9.433   6.991  3.2409 -0.6136  0.4721
  142MOL0     H19157   7.597   9.327   7.177  0.2115 -0.8869 -1.0443
  142MOL0     H19158   7.760   9.122   7.085 -1.9861 -1.2423 -0.2777
  142MOL0     H19159   7.814   8.990   7.197 -0.2571 -0.6421  1.4820
  142MOL0     H19160   7.808   9.175   7.381  0.1091 -1.7250 -0.3106
  142MOL0     H19161   7.806   9.287   7.236 -0.3434 -0.4018 -0.0214
  142MOL0     H19162   8.028   9.101   7.326 -0.3397  1.1413  2.1503
  142MOL0     H19163   8.042   9.271   7.311 -1.1148  0.4577  2.0912
  142MOL0     H19164   8.061   9.055   7.096  1.4491  0.7941 -0.9000
  142MOL0     H19165   7.978   9.218   7.066 -2.2062 -2.6942 -1.4014
  142MOL0     H19166   8.357   9.365   7.117  0.3139 -1.8706  1.8395
  142MOL0     H19167   7.454   8.939   7.054 -1.3849 -0.5121 -1.7573
  142MOL0     H19168   7.322   9.000   6.768  1.0326 -1.8928  0.9500
  142MOL0     H19169   7.292   8.899   6.899 -0.0484 -0.6074 -2.5054
  142MOL0     H19170   7.193   9.048   6.893 -0.1829  1.1657 -1.4725
  143MOL0     O19171   7.394   9.617   4.747  0.0520 -0.2628  0.4451
  143MOL0     C19172   7.425   9.497   4.718  0.2557 -0.6931 -0.1562
  143MOL0     O19173   7.353   9.390   4.739 -0.2954 -0.0509  0.8973
  143MOL0     C19174   7.222   9.391   4.786  0.0121 -0.2807  0.9515
  143MOL0     C19175   7.139   9.501   4.804 -0.1168  0.2501  0.5071
  143MOL0     C19176   7.005   9.485   4.840  0.7794  0.3373 -0.1900
  143MOL0     C19177   6.943   9.359   4.861  0.5454 -0.9636  0.0338
  143MOL0     O19178   6.807   9.348   4.883  0.0062  0.1167  0.0714
  143MOL0     C19179   6.758   9.225   4.929  0.6411  0.2964 -0.1653
  143MOL0     C19180   6.671   9.153   4.824 -0.7768 -0.8558 -0.2712
  143MOL0     C19181   6.548   9.233   4.783 -0.4532  0.1081 -0.2089
  143MOL0     C19182   6.514   9.197   4.645 -0.4958  0.1990 -0.0701
  143MOL0     C19183   6.391   9.264   4.590 -0.0041 -0.0812  0.3231
  143MOL0     C19184   6.366   9.229   4.443  1.1597  0.9664 -0.2100
  143MOL0     C19185   6.218   9.241   4.399 -0.3031  0.5443  0.2558
  143MOL0     C19186   6.121   9.137   4.459  0.2160 -0.4130 -0.6718
  143MOL0     N19187   6.124   9.003   4.409 -0.3716  0.6045 -0.4917
  143MOL0     C19188   6.107   8.981   4.271 -0.4236 -0.4304  0.1683
  143MOL0     C19189   6.150   8.858   4.251  0.1070  0.0639  0.3543
  143MOL0     C19190   6.194   8.797   4.117 -1.0370 -0.5662  0.3915
  143MOL0     C19191   6.348   8.832   4.098 -0.4471  0.0411  0.5019
  143MOL0     C19192   6.392   8.979   4.059 -0.4136 -0.0118  0.2685
  143MOL0     C19193   6.531   8.984   3.999 -0.3387 -0.2074  0.3121
  143MOL0     O19194   6.628   8.997   4.111 -0.0912 -0.0168 -0.3434
  143MOL0     C19195   6.738   9.049   4.061 -0.3463  0.4122 -0.6967
  143MOL0     C19196   6.820   8.979   3.974 -0.6622  0.3574  0.0751
  143MOL0     C19197   6.944   9.035   3.934  0.1417 -0.5179 -0.0063
  143MOL0     C19198   6.977   9.167   3.967 -0.3100 -0.9161 -0.0069
  143MOL0     C19199   7.103   9.229   3.910 -0.0649  0.0442 -0.1087
  143MOL0     O19200   7.164   9.179   3.800 -0.3648 -0.0005 -0.0016
  143MOL0     C19201   7.273   9.233   3.736 -0.0353 -0.4263 -0.1117
  143MOL0     C19202   7.338   9.145   3.649  0.3464  0.8619 -0.2429
  143MOL0     C19203   7.442   9.187   3.567  0.5721  0.4001 -0.9647
  143MOL0     C19204   7.482   9.326   3.570  0.1255 -0.1280  0.1780
  143MOL0     O19205   7.575   9.363   3.481  0.5458 -0.2370  0.1201
  143MOL0     C19206   7.656   9.480   3.506 -0.2621 -0.5553  0.4901
  143MOL0     C19207   7.770   9.474   3.409  0.4028 -1.0197 -1.0304
  143MOL0     C19208   7.864   9.356   3.446 -0.0052 -0.6817 -0.0077
  143MOL0     C19209   7.917   9.268   3.336 -0.4369  0.5808 -0.0735
  143MOL0     C19210   7.831   9.169   3.265 -0.1531  0.9037  0.1426
  143MOL0     C19211   7.837   9.036   3.334  0.4645 -0.0025  0.0563
  143MOL0     C19212   7.764   8.929   3.242 -0.6516 -0.3716 -0.5300
  143MOL0     C19213   7.815   8.793   3.261 -0.2702  0.9033 -0.3307
  143MOL0    Cl19214   7.750   8.730   3.414  0.3726 -0.3437 -0.5276
  143MOL0     C19215   7.416   9.413   3.657 -0.2304  0.2948  0.4598
  143MOL0     C19216   7.320   9.359   3.750 -0.8890  0.3679  0.0494
  143MOL0     O19217   7.135   9.334   3.965  0.3864 -0.2951  0.0463
  143MOL0     C19218   6.880   9.240   4.045 -0.8414 -0.4552 -0.4715
  143MOL0     C19219   6.763   9.185   4.090  0.3377  0.1678  0.0052
  143MOL0     N19220   6.193   8.806   4.372 -0.5189 -0.5035  1.0057
  143MOL0     N19221   6.185   8.895   4.462 -0.2293 -0.0630 -0.1841
  143MOL0     C19222   7.027   9.244   4.838 -0.7405  0.1728 -0.3281
  143MOL0     C19223   7.161   9.260   4.804 -0.1941  0.9218  0.5110
  143MOL0     C19224   7.554   9.461   4.657 -0.2953  0.3179 -0.9865
  143MOL0     C19225   7.561   9.408   4.524 -0.3515  0.3371 -0.6794
  143MOL0     C19226   7.690   9.381   4.468  0.1074 -0.0763 -0.6012
  143MOL0     C19227   7.812   9.410   4.543  0.1647 -0.5881  0.9902
  143MOL0     O19228   7.933   9.371   4.490 -0.4564 -0.1646 -0.3268
  143MOL0     C19229   8.031   9.478   4.497  0.0957 -0.4796 -0.1923
  143MOL0     C19230   8.123   9.459   4.375  0.7588  0.7162  0.0799
  143MOL0     C19231   8.046   9.499   4.242  0.0862 -0.3994 -0.1914
  143MOL0     C19232   8.029   9.650   4.223  0.4813  0.2528 -0.3009
  143MOL0     C19233   8.152   9.723   4.233  0.3486  0.5881 -0.5584
  143MOL0     C19234   8.241   9.798   4.236 -0.1496 -0.1857  0.7565
  143MOL0     C19235   7.791   9.451   4.672  0.1044 -0.9100 -0.3733
  143MOL0     C19236   7.672   9.478   4.730 -0.2218 -0.2403  0.4611
  143MOL0     C19237   7.673   9.549   4.855 -0.1329 -0.0186 -0.4028
  143MOL0     H19238   7.175   9.602   4.795  3.0171 -0.6938  1.2028
  143MOL0     H19239   6.952   9.577   4.861  0.9352  0.1465  1.0935
  143MOL0     H19240   6.834   9.155   4.965 -0.5444 -2.0040 -1.7906
  143MOL0     H19241   6.698   9.244   5.018  2.9213 -0.6943  1.6875
  143MOL0     H19242   6.638   9.055   4.860  2.4272 -2.2118 -0.7246
  143MOL0     H19243   6.743   9.125   4.747  0.5378  0.0417  0.5948
  143MOL0     H19244   6.576   9.338   4.792 -0.7201  0.0743  1.2326
  143MOL0     H19245   6.469   9.227   4.858 -0.5572  1.4729 -0.1906
  143MOL0     H19246   6.599   9.230   4.585  0.7402  3.9093  3.2700
  143MOL0     H19247   6.501   9.089   4.647 -1.2747  0.2883  0.9703
  143MOL0     H19248   6.304   9.246   4.654 -0.4633 -1.1997 -0.5717
  143MOL0     H19249   6.409   9.372   4.593 -1.2842  0.1342  2.6311
  143MOL0     H19250   6.424   9.290   4.373 -0.8287 -0.4115 -3.2744
  143MOL0     H19251   6.394   9.125   4.425 -0.0943  0.3719  1.1219
  143MOL0     H19252   6.208   9.215   4.293 -0.6707  1.5538  0.0311
  143MOL0     H19253   6.185   9.345   4.409 -1.4082  0.1033  1.6756
  143MOL0     H19254   6.145   9.125   4.565 -1.0274  0.4262 -0.2786
  143MOL0     H19255   6.017   9.169   4.469 -0.0848 -1.8141  1.5598
  143MOL0     H19256   6.097   9.056   4.193  3.0127  2.8292  2.5274
  143MOL0     H19257   6.195   8.688   4.108  3.9840 -0.7213 -0.0720
  143MOL0     H19258   6.140   8.838   4.031 -1.6078  1.8320  1.8067
  143MOL0     H19259   6.400   8.812   4.192  0.1340  3.8159  1.1419
  143MOL0     H19260   6.404   8.762   4.035 -0.6914  1.0878 -0.9648
  143MOL0     H19261   6.398   9.024   4.159 -0.0911 -0.3558  0.4057
  143MOL0     H19262   6.316   9.032   4.000  0.0543  0.1545 -0.1888
  143MOL0     H19263   6.546   9.069   3.931 -0.6320 -1.0804 -0.8718
  143MOL0     H19264   6.565   8.903   3.935  1.9773  1.0525 -0.1929
  143MOL0     H19265   6.782   8.886   3.932  0.3374 -0.0660  0.0754
  143MOL0     H19266   7.006   8.985   3.861  1.0079  0.3547  0.1217
  143MOL0     H19267   7.309   9.041   3.640 -0.1865  0.9930 -0.0723
  143MOL0     H19268   7.490   9.114   3.504 -2.8305 -1.7586 -1.3002
  143MOL0     H19269   7.585   9.562   3.492 -0.0146  0.0539  2.5905
  143MOL0     H19270   7.704   9.498   3.602 -0.3414  2.4164  0.0720
  143MOL0     H19271   7.727   9.449   3.311 -2.5784  1.1264 -0.3963
  143MOL0     H19272   7.830   9.565   3.405  0.4390 -0.9968 -0.1674
  143MOL0     H19273   7.953   9.391   3.500 -0.1648 -3.4489  2.2529
  143MOL0     H19274   7.811   9.283   3.507  0.9485  0.2787  2.0697
  143MOL0     H19275   8.011   9.218   3.365  1.3129  2.3562 -2.2855
  143MOL0     H19276   7.948   9.334   3.254 -0.4595 -0.8789 -1.3173
  143MOL0     H19277   7.862   9.161   3.161 -2.4323 -4.1307 -0.4393
  143MOL0     H19278   7.725   9.194   3.253  0.2126  1.7411 -1.5674
  143MOL0     H19279   7.943   9.012   3.347  0.3097  0.4363  2.7671
  143MOL0     H19280   7.787   9.048   3.431  1.8735 -1.3537  0.9916
  143MOL0     H19281   7.787   8.963   3.140  3.0814  4.5252  1.5392
  143MOL0     H19282   7.657   8.928   3.263 -0.3248 -2.0042  1.3625
  143MOL0     H19283   7.763   8.734   3.184  0.8139  0.1663 -0.5150
  143MOL0     H19284   7.924   8.783   3.259 -0.2256  1.3856 -0.3758
  143MOL0     H19285   7.441   9.519   3.661  0.4417  0.1228  0.9295
  143MOL0     H19286   7.288   9.444   3.810 -2.7448  0.8239 -1.4662
  143MOL0     H19287   6.916   9.337   4.078  3.3367 -0.4316 -4.2862
  143MOL0     H19288   6.691   9.237   4.153 -0.5277  1.9371 -2.2849
  143MOL0     H19289   6.998   9.140   4.838  1.1848 -0.3966  0.5097
  143MOL0     H19290   7.221   9.170   4.795 -1.4093  0.1735 -0.3136
  143MOL0     H19291   7.473   9.391   4.463  0.2539 -2.5202 -0.8962
  143MOL0     H19292   7.684   9.347   4.365 -1.4083  0.2524 -0.6531
  143MOL0     H19293   8.092   9.473   4.588 -0.2978  1.0630  0.1697
  143MOL0     H19294   7.999   9.582   4.501  0.0882 -0.5270  1.7664
  143MOL0     H19295   8.145   9.352   4.368  3.1117  1.1601 -0.0589
  143MOL0     H19296   8.214   9.515   4.397 -0.2247  2.1229  0.7271
  143MOL0     H19297   7.943   9.463   4.247 -1.5216  3.4390 -2.0301
  143MOL0     H19298   8.099   9.439   4.167  0.6797 -0.6287  0.4008
  143MOL0     H19299   7.979   9.675   4.129  0.4816  1.4157 -0.0157
  143MOL0     H19300   7.960   9.677   4.304 -0.5674  1.3582 -1.5237
  143MOL0     H19301   8.332   9.855   4.233 -0.8894  0.9954 -0.7015
  143MOL0     H19302   7.882   9.468   4.728  1.5446 -2.7512 -2.0218
  143MOL0     H19303   7.708   9.651   4.838 -0.1871 -0.3331 -2.7280
  143MOL0     H19304   7.581   9.563   4.912  1.5207  0.9249  2.2194
  143MOL0     H19305   7.732   9.497   4.931  0.4172 -2.2461 -2.2238
  144MOL0     O19306   1.209  10.451   0.685  0.1516  0.2158 -0.0077
  144MOL0     C19307   1.182  10.551   0.612  0.1095  0.4004  1.0658
  144MOL0     O19308   1.135  10.668   0.661  0.4868 -0.5917 -0.6073
  144MOL0     C19309   1.071  10.672   0.784 -0.3268  0.1790 -0.2097
  144MOL0     C19310   0.943  10.608   0.807  0.0944  0.5198  0.3527
  144MOL0     C19311   0.877  10.614   0.931  0.1689  0.8917  0.4250
  144MOL0     C19312   0.935  10.681   1.034  0.5250 -0.3952  0.6289
  144MOL0     O19313   0.868  10.694   1.154  0.6672 -0.0027 -0.1454
  144MOL0     C19314   0.755  10.614   1.201  1.1522 -0.2504  0.8662
  144MOL0     C19315   0.692  10.705   1.312 -0.3410 -0.7014  0.5863
  144MOL0     C19316   0.769  10.689   1.444 -0.0421  1.4287 -0.2948
  144MOL0     C19317   0.690  10.766   1.550  0.2049  0.0541  0.2828
  144MOL0     C19318   0.746  10.911   1.542 -0.1034  0.1339  0.1948
  144MOL0     C19319   0.661  11.020   1.611  0.6736  0.7757  0.1485
  144MOL0     C19320   0.750  11.147   1.616 -0.6749  0.2966  0.0370
  144MOL0     C19321   0.773  11.218   1.477  0.8752 -0.3707  0.5343
  144MOL0     N19322   0.847  11.345   1.483  0.5434 -0.0527 -0.4978
  144MOL0     C19323   0.953  11.379   1.549 -0.7358 -0.7186 -0.4694
  144MOL0     C19324   0.954  11.514   1.535  0.3068 -0.6281  1.1605
  144MOL0     C19325   1.055  11.602   1.605 -0.7499 -1.5673  0.6135
  144MOL0     C19326   1.202  11.578   1.557  0.5265 -0.0212  0.3705
  144MOL0     C19327   1.229  11.654   1.422  0.4510 -0.6522 -0.1724
  144MOL0     C19328   1.301  11.785   1.440  0.4683 -0.5176  1.0618
  144MOL0     O19329   1.442  11.767   1.476 -0.0965  0.2993  0.2654
  144MOL0     C19330   1.495  11.814   1.597 -0.0387 -0.5321  0.7206
  144MOL0     C19331   1.430  11.869   1.705  0.5338 -0.3947 -0.2424
  144MOL0     C19332   1.505  11.887   1.821 -0.1158  0.4653 -0.7990
  144MOL0     C19333   1.638  11.848   1.834 -0.1473  0.4356 -0.4297
  144MOL0     C19334   1.722  11.895   1.944 -0.0549 -0.5194 -0.3938
  144MOL0     O19335   1.851  11.922   1.908 -0.0444 -0.2540 -0.1208
  144MOL0     C19336   1.925  12.014   1.977 -0.1752 -0.7881 -0.8228
  144MOL0     C19337   1.888  12.114   2.068 -0.1113 -0.6022  0.7231
  144MOL0     C19338   1.980  12.208   2.119  0.6105  0.4167 -0.5585
  144MOL0     C19339   2.113  12.199   2.090  0.1386 -0.2909 -0.3439
  144MOL0     O19340   2.197  12.300   2.133  0.5797  0.3426 -0.4995
  144MOL0     C19341   2.295  12.267   2.234 -0.5573  0.1360 -0.4704
  144MOL0     C19342   2.401  12.386   2.239  0.7713  0.1750  0.2298
  144MOL0     C19343   2.330  12.522   2.231  0.6566  0.3698 -0.8296
  144MOL0     C19344   2.441  12.641   2.226  0.2191  0.2747  0.1420
  144MOL0     C19345   2.503  12.667   2.364 -0.7725 -0.3597  0.5459
  144MOL0     C19346   2.653  12.685   2.357 -0.5268 -0.1649 -0.2881
  144MOL0     C19347   2.706  12.709   2.502 -0.1323  0.2737 -0.2227
  144MOL0     C19348   2.852  12.666   2.507  0.2918 -0.0195  1.2594
  144MOL0    Cl19349   2.844  12.489   2.526 -0.2130  0.1100 -0.1993
  144MOL0     C19350   2.154  12.089   2.006  0.2807  0.3548  1.2147
  144MOL0     C19351   2.066  12.007   1.942  0.5331 -0.4747  0.7502
  144MOL0     O19352   1.670  11.907   2.057 -0.2190 -1.1172  0.5280
  144MOL0     C19353   1.706  11.801   1.721  0.4369  0.2949  0.1440
  144MOL0     C19354   1.630  11.786   1.603 -0.5906  0.2776  0.0119
  144MOL0     N19355   0.851  11.565   1.455  0.4455  0.1550  0.0061
  144MOL0     N19356   0.791  11.461   1.432  0.0994 -0.4658  0.0867
  144MOL0     C19357   1.062  10.741   1.012  0.7109 -0.9882  0.6328
  144MOL0     C19358   1.129  10.744   0.888 -0.0073  0.3996 -0.6873
  144MOL0     C19359   1.189  10.522   0.461 -0.8484  0.2450  0.2207
  144MOL0     C19360   1.253  10.404   0.409 -0.4380  0.3163 -1.0707
  144MOL0     C19361   1.266  10.392   0.276 -0.0178 -0.2705 -0.3814
  144MOL0     C19362   1.203  10.472   0.179 -0.1434 -0.3471 -0.2805
  144MOL0     O19363   1.213  10.462   0.046  0.2452 -0.6599  0.6531
  144MOL0     C19364   1.332  10.413  -0.015  0.0596 -0.0049  0.7157
  144MOL0     C19365   1.323  10.411  -0.177 -0.4956 -0.0096  0.5457
  144MOL0     C19366   1.239  10.294  -0.227  0.2884 -0.0741  0.7194
  144MOL0     C19367   1.251  10.286  -0.376 -0.3238  0.2967 -1.0816
  144MOL0     C19368   1.155  10.192  -0.420  0.0327  0.5769  0.7066
  144MOL0     C19369   1.072  10.107  -0.447  0.4801 -0.4313  0.1647
  144MOL0     C19370   1.134  10.579   0.228  0.2250 -0.9094  0.3059
  144MOL0     C19371   1.129  10.607   0.366  0.1261 -0.4074 -0.2803
  144MOL0     C19372   1.041  10.732   0.394 -0.6834  0.2687 -0.1245
  144MOL0     H19373   0.898  10.549   0.728 -0.6772 -0.1720  1.2846
  144MOL0     H19374   0.780  10.565   0.931 -0.9094  2.8802 -0.7870
  144MOL0     H19375   0.681  10.590   1.124 -0.4308  2.0999  1.5321
  144MOL0     H19376   0.804  10.524   1.239  1.4643  0.8029  3.1022
  144MOL0     H19377   0.590  10.674   1.340 -1.4666  1.2379 -1.0891
  144MOL0     H19378   0.693  10.812   1.287 -0.7495  0.1330  3.6242
  144MOL0     H19379   0.874  10.718   1.429 -0.2120  1.4289 -1.5967
  144MOL0     H19380   0.769  10.584   1.475 -0.6352 -0.0363 -4.5094
  144MOL0     H19381   0.581  10.756   1.541  0.3810 -2.2533  0.1195
  144MOL0     H19382   0.705  10.713   1.644  0.2418 -1.8785 -0.7597
  144MOL0     H19383   0.846  10.918   1.586  0.2878  0.2894 -0.6805
  144MOL0     H19384   0.769  10.938   1.438  2.2113  3.7314  1.4129
  144MOL0     H19385   0.569  11.037   1.554 -0.3355 -0.7558  1.2030
  144MOL0     H19386   0.632  10.991   1.713  0.8953 -2.8208 -0.6705
  144MOL0     H19387   0.849  11.117   1.652  0.1603  1.2813 -1.3539
  144MOL0     H19388   0.711  11.217   1.691 -1.3018 -1.9699  1.9223
  144MOL0     H19389   0.811  11.141   1.410  1.3134 -0.4678  0.8841
  144MOL0     H19390   0.677  11.240   1.431 -0.2285  1.3054  3.3860
  144MOL0     H19391   1.021  11.324   1.613 -1.2063  0.8152  1.4552
  144MOL0     H19392   1.034  11.709   1.604 -0.0063 -1.4192 -0.5831
  144MOL0     H19393   1.052  11.576   1.712  2.2836  1.8795  1.7450
  144MOL0     H19394   1.263  11.616   1.639  1.6935  0.6361 -0.7756
  144MOL0     H19395   1.224  11.471   1.551  0.8242  0.0967 -0.7976
  144MOL0     H19396   1.131  11.680   1.381 -0.5694 -2.4291  0.9650
  144MOL0     H19397   1.291  11.598   1.352 -0.5405 -4.7578  1.9033
  144MOL0     H19398   1.250  11.843   1.518 -1.2291 -0.4300 -0.0619
  144MOL0     H19399   1.285  11.853   1.356 -0.0912 -0.8005  0.9356
  144MOL0     H19400   1.327  11.904   1.706 -0.8068 -3.9620  0.6234
  144MOL0     H19401   1.477  11.943   1.910  2.1777  1.2874 -0.5295
  144MOL0     H19402   1.782  12.119   2.090 -0.2702 -0.1546 -0.0847
  144MOL0     H19403   1.939  12.289   2.179  2.4552 -0.0912  1.4905
  144MOL0     H19404   2.242  12.249   2.328  0.0333  0.2333 -0.1137
  144MOL0     H19405   2.364  12.187   2.203  0.2939  0.2061  1.0884
  144MOL0     H19406   2.456  12.374   2.332 -1.0925  0.7836  1.4544
  144MOL0     H19407   2.465  12.371   2.151  0.2815 -1.5134  0.1429
  144MOL0     H19408   2.268  12.533   2.141  2.9080  0.2022 -2.4846
  144MOL0     H19409   2.267  12.536   2.320  0.6596 -1.2853 -0.5517
  144MOL0     H19410   2.395  12.729   2.180 -2.3268 -1.0555 -0.0697
  144MOL0     H19411   2.518  12.608   2.156 -0.3385 -0.0715 -0.3244
  144MOL0     H19412   2.490  12.577   2.426  0.6791 -1.1589 -0.2273
  144MOL0     H19413   2.454  12.749   2.417 -0.5656  0.1087  0.0216
  144MOL0     H19414   2.697  12.593   2.318  1.8778  1.2663 -1.1760
  144MOL0     H19415   2.682  12.769   2.293 -2.1218  0.5592 -0.0960
  144MOL0     H19416   2.642  12.659   2.575 -2.5153  0.3431 -2.1572
  144MOL0     H19417   2.697  12.815   2.527  2.5070  0.5250  0.0036
  144MOL0     H19418   2.919  12.699   2.427 -1.2115  1.7020  0.6221
  144MOL0     H19419   2.896  12.719   2.592  1.2023  0.7309  0.3347
  144MOL0     H19420   2.256  12.081   1.970 -0.1948  0.3559 -0.1834
  144MOL0     H19421   2.103  11.953   1.855 -0.6212  2.5707 -1.8489
  144MOL0     H19422   1.809  11.768   1.715  0.8376  1.7687 -3.1163
  144MOL0     H19423   1.675  11.743   1.515  1.6944 -1.9139  2.1115
  144MOL0     H19424   1.103  10.792   1.098 -0.5575 -1.8524  1.7943
  144MOL0     H19425   1.221  10.799   0.870  1.5969  0.0123  4.6162
  144MOL0     H19426   1.303  10.336   0.476  0.4507  3.2807  1.5191
  144MOL0     H19427   1.336  10.317   0.241  1.8574 -0.1905  2.8689
  144MOL0     H19428   1.359  10.314   0.025  0.9818  0.3106  0.8983
  144MOL0     H19429   1.417  10.470   0.025 -0.3881  2.1814 -1.2465
  144MOL0     H19430   1.428  10.400  -0.208 -0.5667 -0.8496  0.5732
  144MOL0     H19431   1.286  10.506  -0.215  1.5960  0.4529 -0.4736
  144MOL0     H19432   1.135  10.322  -0.212 -0.6432 -2.1101 -1.3576
  144MOL0     H19433   1.265  10.200  -0.177  4.0678  0.4016 -0.0428
  144MOL0     H19434   1.245  10.388  -0.416  1.6951  0.6508 -0.5947
  144MOL0     H19435   1.351  10.246  -0.391  0.2764 -0.0042  2.5851
  144MOL0     H19436   0.998  10.036  -0.479  0.1775  0.9472 -2.4822
  144MOL0     H19437   1.081  10.652   0.167 -0.3462  1.8445  3.7497
  144MOL0     H19438   1.098  10.820   0.424  0.7810 -0.7963  0.2945
  144MOL0     H19439   0.980  10.759   0.307 -0.5543  2.3439  0.3784
  144MOL0     H19440   0.970  10.712   0.475 -1.1247 -0.0317 -0.5779
  145MOL0     O19441   5.994   2.257   8.191 -0.7410  0.0469  0.8554
  145MOL0     C19442   6.044   2.276   8.079  0.3715  0.1321 -1.2900
  145MOL0     O19443   5.979   2.305   7.970  0.3324 -0.0442  0.2370
  145MOL0     C19444   5.844   2.295   7.962 -0.0179 -0.2732  0.1004
  145MOL0     C19445   5.757   2.400   7.924 -1.3597 -0.1579  0.4564
  145MOL0     C19446   5.622   2.386   7.905  0.6749 -0.0334  0.2569
  145MOL0     C19447   5.565   2.258   7.904 -0.3177  0.3320  0.5001
  145MOL0     O19448   5.427   2.243   7.881  0.0510 -0.2469  0.1570
  145MOL0     C19449   5.358   2.177   7.996  0.2496 -0.3546  0.1292
  145MOL0     C19450   5.212   2.189   7.988  0.3882  0.6902  0.1259
  145MOL0     C19451   5.144   2.084   8.081  0.1659  0.2862  0.0298
  145MOL0     C19452   4.994   2.100   8.073 -1.1019  0.3543  0.2106
  145MOL0     C19453   4.931   1.975   8.129  0.2505 -0.4663  0.3731
  145MOL0     C19454   4.785   1.993   8.147  0.1165  0.5147  0.0743
  145MOL0     C19455   4.714   1.873   8.202  0.6039 -0.2081 -0.6286
  145MOL0     C19456   4.563   1.897   8.235 -0.4960 -0.6174  0.9297
  145MOL0     N19457   4.499   1.915   8.096 -0.4361  1.4745 -0.7190
  145MOL0     C19458   4.435   1.820   8.030 -0.6851  0.0765 -0.1304
  145MOL0     C19459   4.372   1.871   7.925 -0.0686  0.9973  0.2535
  145MOL0     C19460   4.286   1.789   7.829  0.8863  0.3199  0.4209
  145MOL0     C19461   4.263   1.874   7.703  0.3510  0.1292  0.3246
  145MOL0     C19462   4.189   1.809   7.585  0.5036  0.2157 -0.0418
  145MOL0     C19463   4.070   1.728   7.635 -0.0280 -0.4029  0.3047
  145MOL0     O19464   3.964   1.815   7.700 -0.1991 -0.1770  0.2830
  145MOL0     C19465   3.856   1.760   7.763 -0.4915 -0.2304  0.3015
  145MOL0     C19466   3.815   1.626   7.743  0.5390 -0.0066  0.0888
  145MOL0     C19467   3.713   1.576   7.814  0.4446  0.2517 -0.6167
  145MOL0     C19468   3.644   1.653   7.912  0.7084  0.5727 -0.5457
  145MOL0     C19469   3.542   1.591   7.996  0.0387 -0.5427 -0.5306
  145MOL0     O19470   3.436   1.672   8.022 -0.5834 -1.0099 -0.1105
  145MOL0     C19471   3.331   1.650   8.114 -0.2131 -0.3209  0.6888
  145MOL0     C19472   3.239   1.756   8.131 -0.2214 -0.5814  0.1271
  145MOL0     C19473   3.131   1.749   8.219 -0.4735  0.1928 -1.0106
  145MOL0     C19474   3.093   1.630   8.281  0.4923 -1.2757  0.9141
  145MOL0     O19475   2.968   1.617   8.339 -0.0616  0.5328 -0.8617
  145MOL0     C19476   2.865   1.549   8.267  0.5523  0.3416 -0.0245
  145MOL0     C19477   2.747   1.528   8.358  0.6199  0.6492  0.3366
  145MOL0     C19478   2.635   1.446   8.301 -0.2529 -0.6498  0.3581
  145MOL0     C19479   2.592   1.511   8.173 -0.0212  0.2622  0.8408
  145MOL0     C19480   2.526   1.657   8.179 -0.5629 -0.1320  0.3467
  145MOL0     C19481   2.457   1.707   8.056 -0.3892 -0.4391 -1.4165
  145MOL0     C19482   2.537   1.695   7.929 -0.5403 -0.8306  0.4472
  145MOL0     C19483   2.471   1.772   7.816  0.0403  0.3353  0.4227
  145MOL0    Cl19484   2.581   1.776   7.693 -0.1825  0.1787  0.1159
  145MOL0     C19485   3.184   1.531   8.263  0.0906 -0.2524  0.5054
  145MOL0     C19486   3.304   1.533   8.195 -0.1120  0.1224  1.2718
  145MOL0     O19487   3.558   1.480   8.046 -0.0773  0.4567  0.0926
  145MOL0     C19488   3.673   1.788   7.924 -0.3769  0.6481 -0.4439
  145MOL0     C19489   3.780   1.834   7.854 -0.0698  0.0174 -0.1238
  145MOL0     N19490   4.375   2.003   7.947  0.2080  0.0840  0.2392
  145MOL0     N19491   4.457   2.029   8.047 -0.5400 -0.6419  0.7188
  145MOL0     C19492   5.648   2.148   7.933 -0.3135 -0.8189 -0.6801
  145MOL0     C19493   5.774   2.168   7.964 -0.2097  0.1016 -0.7920
  145MOL0     C19494   6.187   2.269   8.064  0.0927  0.4275 -0.4830
  145MOL0     C19495   6.243   2.346   7.961 -0.3448  0.2789 -0.4607
  145MOL0     C19496   6.382   2.351   7.943 -0.2521 -0.0772  0.2753
  145MOL0     C19497   6.463   2.268   8.027  0.3125 -0.2223 -0.0299
  145MOL0     O19498   6.593   2.269   8.021 -0.3236  0.8381  0.8501
  145MOL0     C19499   6.663   2.392   8.048 -0.1612 -0.0433 -0.7517
  145MOL0     C19500   6.776   2.441   7.944  1.2397  0.0329 -0.4724
  145MOL0     C19501   6.856   2.312   7.893  0.1966 -0.0205 -0.3668
  145MOL0     C19502   6.947   2.264   8.002  0.4246 -0.2393  0.2211
  145MOL0     C19503   7.048   2.157   7.967  0.3381 -0.4793 -0.8094
  145MOL0     C19504   7.129   2.073   7.943 -0.0483  0.4271  0.4686
  145MOL0     C19505   6.405   2.202   8.136 -0.2806  0.0333  0.0182
  145MOL0     C19506   6.267   2.188   8.151 -0.4396 -0.1264  0.3819
  145MOL0     C19507   6.208   2.090   8.256  0.5135 -0.6085 -0.3198
  145MOL0     H19508   5.796   2.499   7.901 -2.1805  0.3442  1.1882
  145MOL0     H19509   5.556   2.467   7.874  2.0568  0.2670 -2.0749
  145MOL0     H19510   5.373   2.069   7.986  0.4843 -0.1750 -1.9658
  145MOL0     H19511   5.390   2.213   8.094 -1.0876  3.8262 -0.7844
  145MOL0     H19512   5.172   2.185   7.886 -0.9688  1.2698  0.6072
  145MOL0     H19513   5.188   2.292   8.015  3.0523  1.6599 -0.9567
  145MOL0     H19514   5.171   2.116   8.182 -1.3138  2.0671 -0.0861
  145MOL0     H19515   5.172   1.981   8.059 -0.2878  0.0381  0.5748
  145MOL0     H19516   4.967   2.196   8.119 -0.6326  0.8438 -0.5045
  145MOL0     H19517   4.975   2.109   7.965  4.9561  0.8284 -1.1575
  145MOL0     H19518   4.941   1.890   8.061 -4.8437 -0.9780 -0.1060
  145MOL0     H19519   4.979   1.963   8.227 -0.6947  0.2431  0.9411
  145MOL0     H19520   4.766   2.081   8.208 -1.1420  0.7191 -0.5685
  145MOL0     H19521   4.748   2.007   8.045  1.3947 -0.9981 -0.6513
  145MOL0     H19522   4.761   1.847   8.297 -2.4772  1.4739  1.5616
  145MOL0     H19523   4.725   1.787   8.136  1.4339  0.8269 -1.8731
  145MOL0     H19524   4.518   1.813   8.289  0.9875 -2.4691 -0.5789
  145MOL0     H19525   4.547   1.989   8.293 -1.9170 -1.2480  1.5605
  145MOL0     H19526   4.429   1.719   8.071  0.5666  0.7912  1.9103
  145MOL0     H19527   4.331   1.693   7.803  0.1496  0.1232 -0.1833
  145MOL0     H19528   4.191   1.767   7.880  0.8955 -0.6700  0.0269
  145MOL0     H19529   4.204   1.956   7.744 -0.5195 -0.9252  1.2741
  145MOL0     H19530   4.359   1.911   7.665 -1.5497  4.3934 -0.8849
  145MOL0     H19531   4.250   1.741   7.525 -0.2698 -1.5707  1.1277
  145MOL0     H19532   4.152   1.892   7.524  0.3524  2.0844  2.4542
  145MOL0     H19533   4.103   1.642   7.693 -0.1266 -0.0810  0.8367
  145MOL0     H19534   4.036   1.683   7.541  0.0536  0.2862 -0.0604
  145MOL0     H19535   3.860   1.558   7.671  3.0134 -0.0897  1.5856
  145MOL0     H19536   3.687   1.474   7.790 -0.8772  0.5236 -0.4574
  145MOL0     H19537   3.268   1.849   8.083  0.7958 -2.5461 -3.3720
  145MOL0     H19538   3.074   1.839   8.238 -1.9131 -0.8488 -0.1885
  145MOL0     H19539   2.840   1.617   8.186  0.8589  1.2943  0.6606
  145MOL0     H19540   2.908   1.461   8.218 -0.6517 -1.4019  1.8595
  145MOL0     H19541   2.777   1.498   8.459  0.5532  1.5064  0.6224
  145MOL0     H19542   2.704   1.628   8.372  0.7250  0.7256  0.1036
  145MOL0     H19543   2.679   1.346   8.287  1.2276 -0.2886  1.9686
  145MOL0     H19544   2.556   1.439   8.376 -0.6692  1.0053  0.0940
  145MOL0     H19545   2.509   1.447   8.139  1.2715 -0.1653 -1.7832
  145MOL0     H19546   2.669   1.500   8.096 -0.7113  0.2616  0.1294
  145MOL0     H19547   2.612   1.718   8.207 -0.3744  0.1921 -0.8548
  145MOL0     H19548   2.449   1.657   8.256 -0.2548 -2.3726  0.7286
  145MOL0     H19549   2.363   1.652   8.042 -1.4407  1.5854 -2.8887
  145MOL0     H19550   2.422   1.809   8.070 -0.9842 -1.0476  2.6365
  145MOL0     H19551   2.556   1.590   7.905  2.7977 -1.2735  4.0285
  145MOL0     H19552   2.636   1.733   7.956 -1.1918  0.7924  0.6874
  145MOL0     H19553   2.377   1.735   7.773  0.5028  1.6267 -1.8561
  145MOL0     H19554   2.444   1.875   7.841  3.4180  1.1527  1.1553
  145MOL0     H19555   3.143   1.440   8.307 -1.7342 -1.1034 -2.6507
  145MOL0     H19556   3.371   1.448   8.201  1.5584  1.3937  1.6566
  145MOL0     H19557   3.618   1.855   7.989  0.6564  1.2543 -0.1712
  145MOL0     H19558   3.811   1.938   7.859 -0.7912  0.4496 -2.8436
  145MOL0     H19559   5.607   2.047   7.924  1.3414 -1.5362 -0.5060
  145MOL0     H19560   5.839   2.082   7.978  2.9785  2.5975  1.1766
  145MOL0     H19561   6.179   2.406   7.897 -0.0169 -0.9719 -2.0302
  145MOL0     H19562   6.429   2.414   7.869  0.3659  2.8873  2.9616
  145MOL0     H19563   6.709   2.384   8.146 -2.5542  2.5215  0.7320
  145MOL0     H19564   6.590   2.472   8.065  3.2447  3.0772  0.7800
  145MOL0     H19565   6.846   2.509   7.993 -0.5485  2.4549 -1.1315
  145MOL0     H19566   6.734   2.499   7.862 -0.3256 -0.9810 -0.4278
  145MOL0     H19567   6.917   2.333   7.804 -0.9779  2.0651 -0.7453
  145MOL0     H19568   6.793   2.233   7.850  0.8805 -0.9404  0.2898
  145MOL0     H19569   7.006   2.347   8.042  0.0302 -0.8845  2.2662
  145MOL0     H19570   6.887   2.224   8.085  0.8121 -0.6264  0.3210
  145MOL0     H19571   7.220   2.019   7.923  0.4434  0.4000  2.5030
  145MOL0     H19572   6.477   2.151   8.199  2.2015  1.1947 -1.7322
  145MOL0     H19573   6.231   2.116   8.359  1.9562  3.8528 -1.5106
  145MOL0     H19574   6.109   2.051   8.230  0.6736 -0.3287 -1.4431
  145MOL0     H19575   6.271   2.003   8.236 -0.1601 -1.0533 -0.5204
  146MOL0     O19576  11.417   1.366   3.513  0.3610 -1.0622 -0.2554
  146MOL0     C19577  11.335   1.381   3.602  0.2152  0.2701  0.3145
  146MOL0     O19578  11.315   1.295   3.702 -0.3419  0.1224  0.5585
  146MOL0     C19579  11.369   1.173   3.731 -0.2390 -0.0349 -0.1383
  146MOL0     C19580  11.339   1.114   3.853 -0.0821  0.3128 -0.2588
  146MOL0     C19581  11.372   0.981   3.894  0.5146 -0.7996  0.1025
  146MOL0     C19582  11.460   0.904   3.810 -0.5528 -0.5572  0.3784
  146MOL0     O19583  11.500   0.782   3.844 -0.3801 -0.1353  0.2227
  146MOL0     C19584  11.637   0.780   3.903 -0.7201  0.1505 -0.4988
  146MOL0     C19585  11.696   0.636   3.903 -0.3400  0.6602  0.2039
  146MOL0     C19586  11.652   0.577   3.767  0.1050  0.8411 -0.2254
  146MOL0     C19587  11.716   0.437   3.748  0.8472  0.5068  0.0895
  146MOL0     C19588  11.655   0.334   3.846 -0.3744  0.6490  0.7663
  146MOL0     C19589  11.510   0.274   3.814  0.0856  0.3878 -1.1388
  146MOL0     C19590  11.518   0.216   3.673 -0.2561  0.7478  0.7896
  146MOL0     C19591  11.381   0.163   3.634 -0.5003  0.9436 -0.6853
  146MOL0     N19592  11.367   0.077   3.506  0.3131 -0.2984 -0.0806
  146MOL0     C19593  11.372   0.131   3.375 -0.6999  0.8908 -0.3137
  146MOL0     C19594  11.394   0.020   3.306 -0.3539 -0.8312  0.0892
  146MOL0     C19595  11.401   0.014   3.159  0.5026 -0.1147 -0.2560
  146MOL0     C19596  11.268  -0.048   3.110  0.2920  0.0901  0.7730
  146MOL0     C19597  11.248  -0.069   2.964  0.5934 -0.6933  0.6309
  146MOL0     C19598  11.357  -0.156   2.901 -0.0077  0.9396  0.4181
  146MOL0     O19599  11.484  -0.096   2.893  1.0871 -0.8001 -0.6954
  146MOL0     C19600  11.578  -0.183   2.875  0.0750  0.7844 -0.2328
  146MOL0     C19601  11.646  -0.235   2.985 -0.1634 -0.9120 -0.3343
  146MOL0     C19602  11.733  -0.345   2.962  0.6847  0.3509  0.5632
  146MOL0     C19603  11.752  -0.402   2.832 -0.1082  0.1358 -0.0139
  146MOL0     C19604  11.831  -0.521   2.824 -1.0276  0.0237 -0.4789
  146MOL0     O19605  11.836  -0.609   2.939  0.7340  0.4505  0.0094
  146MOL0     C19606  11.885  -0.738   2.923  1.0543 -0.4577  0.7051
  146MOL0     C19607  11.801  -0.842   2.960  0.1482  0.6613  0.0311
  146MOL0     C19608  11.851  -0.979   2.942  0.3202  0.0774 -0.2114
  146MOL0     C19609  11.982  -1.000   2.903  0.4240  0.4829 -0.8874
  146MOL0     O19610  12.028  -1.131   2.920  0.0175 -0.1031 -0.0656
  146MOL0     C19611  12.155  -1.166   2.860  0.1300 -0.4993  0.1975
  146MOL0     C19612  12.163  -1.316   2.868 -0.1591 -0.7946 -0.2942
  146MOL0     C19613  12.183  -1.377   3.014 -1.1439 -0.2390 -0.2051
  146MOL0     C19614  12.116  -1.525   3.015  0.4610 -0.5009  0.2081
  146MOL0     C19615  12.189  -1.624   2.943 -0.7304  0.2424  0.5571
  146MOL0     C19616  12.139  -1.768   2.955  0.1758 -0.5186 -0.3644
  146MOL0     C19617  12.242  -1.878   2.921 -1.0442 -0.3228 -0.4552
  146MOL0     C19618  12.196  -2.022   2.896 -0.2658 -0.6276  0.6460
  146MOL0    Cl19619  12.051  -2.060   2.997 -0.0418 -0.5662 -0.0864
  146MOL0     C19620  12.066  -0.889   2.866 -0.0633 -0.0161  0.1596
  146MOL0     C19621  12.018  -0.766   2.871  0.0467 -1.1953  0.2848
  146MOL0     O19622  11.871  -0.543   2.718  0.5652  0.3256  0.3660
  146MOL0     C19623  11.691  -0.338   2.720 -0.8134  0.0026  0.0415
  146MOL0     C19624  11.609  -0.225   2.744 -0.4671 -0.2626 -0.2131
  146MOL0     N19625  11.397  -0.088   3.388  0.0082  0.0511 -0.0846
  146MOL0     N19626  11.368  -0.058   3.510 -0.0720 -0.3225 -0.2472
  146MOL0     C19627  11.507   0.975   3.691  0.9267 -0.5844  0.1031
  146MOL0     C19628  11.453   1.098   3.648  0.3550 -1.0368  0.0881
  146MOL0     C19629  11.287   1.518   3.628 -0.7626  0.7301  0.1286
  146MOL0     C19630  11.235   1.549   3.760 -1.1006 -0.8232 -0.6540
  146MOL0     C19631  11.177   1.675   3.787  0.3513 -0.0982 -0.3141
  146MOL0     C19632  11.171   1.775   3.687 -0.4460 -0.1758  0.3666
  146MOL0     O19633  11.108   1.894   3.721 -0.2721  0.7319  1.0831
  146MOL0     C19634  11.105   2.003   3.628 -0.5044  0.6331 -0.1618
  146MOL0     C19635  11.233   2.084   3.635 -0.3527  0.8666 -0.2870
  146MOL0     C19636  11.254   2.159   3.773  0.9351 -0.4148 -0.1764
  146MOL0     C19637  11.306   2.067   3.877  0.3879  0.8042  0.2254
  146MOL0     C19638  11.378   2.140   3.983 -0.0468 -0.0284 -0.2878
  146MOL0     C19639  11.446   2.189   4.069 -0.6503 -0.0490  0.3703
  146MOL0     C19640  11.228   1.746   3.567 -0.8438 -0.3455  0.1795
  146MOL0     C19641  11.273   1.619   3.535 -1.3922  0.8494  0.3424
  146MOL0     C19642  11.318   1.591   3.388  0.2701 -0.0637  0.3507
  146MOL0     H19643  11.276   1.184   3.906  0.6382  0.5405  0.3175
  146MOL0     H19644  11.325   0.947   3.986 -1.1512  1.5708  0.2273
  146MOL0     H19645  11.696   0.860   3.856  1.3632 -0.1861  1.3748
  146MOL0     H19646  11.632   0.812   4.007 -0.3367  0.4706 -0.5750
  146MOL0     H19647  11.661   0.577   3.988 -1.5221  1.8150  0.5671
  146MOL0     H19648  11.803   0.656   3.911 -0.3268  1.6858 -1.7960
  146MOL0     H19649  11.680   0.635   3.678  0.8136 -4.1230 -3.6863
  146MOL0     H19650  11.544   0.563   3.762  0.1117  1.0787 -1.3117
  146MOL0     H19651  11.702   0.405   3.645 -2.3166  1.9981 -0.0708
  146MOL0     H19652  11.822   0.442   3.774  1.8200 -1.7960 -2.8773
  146MOL0     H19653  11.729   0.257   3.826 -1.6698 -0.1759 -1.1343
  146MOL0     H19654  11.659   0.370   3.949  3.0690 -0.3240  1.0773
  146MOL0     H19655  11.487   0.199   3.890 -0.3186 -0.1371 -1.7727
  146MOL0     H19656  11.442   0.359   3.822  0.5201  0.8729 -2.3931
  146MOL0     H19657  11.604   0.150   3.659  0.6318  2.2921 -1.5589
  146MOL0     H19658  11.533   0.292   3.595  3.5856 -0.6670 -0.0985
  146MOL0     H19659  11.353   0.090   3.710  0.7591 -0.0658 -1.1529
  146MOL0     H19660  11.315   0.251   3.626 -1.8518 -0.0142 -0.3479
  146MOL0     H19661  11.376   0.237   3.351  0.2548  1.2914  1.4509
  146MOL0     H19662  11.414   0.115   3.117  2.5346  1.3086  3.3991
  146MOL0     H19663  11.483  -0.050   3.126 -0.4584 -0.0711 -3.0036
  146MOL0     H19664  11.270  -0.149   3.151  0.7404  0.2678  1.1930
  146MOL0     H19665  11.183   0.005   3.154  0.0383  0.0086  0.3823
  146MOL0     H19666  11.246   0.025   2.907  2.9414  0.7414  2.6976
  146MOL0     H19667  11.160  -0.129   2.942 -0.0172 -0.6225  2.6768
  146MOL0     H19668  11.326  -0.172   2.798 -0.2014 -0.1242  0.6304
  146MOL0     H19669  11.356  -0.251   2.956 -0.9032 -1.6755 -3.6820
  146MOL0     H19670  11.629  -0.188   3.081  0.2993 -1.8652  0.2321
  146MOL0     H19671  11.807  -0.381   3.033  0.4406  0.1377  0.7087
  146MOL0     H19672  11.711  -0.825   3.017 -0.3908 -0.0283 -0.5967
  146MOL0     H19673  11.787  -1.063   2.965 -1.3960  1.5646  0.7787
  146MOL0     H19674  12.153  -1.148   2.752 -1.9293 -4.7880 -0.7143
  146MOL0     H19675  12.240  -1.110   2.899 -1.4116  1.7584  0.4681
  146MOL0     H19676  12.075  -1.357   2.818 -0.0834 -2.0353  0.5373
  146MOL0     H19677  12.245  -1.356   2.807  0.5177 -0.9724  0.7166
  146MOL0     H19678  12.289  -1.388   3.037 -1.3685 -0.2808  0.8995
  146MOL0     H19679  12.134  -1.310   3.085  0.0215  1.9693 -1.3926
  146MOL0     H19680  12.017  -1.519   2.968  0.5884 -2.5364 -0.4398
  146MOL0     H19681  12.092  -1.559   3.116 -2.6668 -0.1816 -0.3180
  146MOL0     H19682  12.291  -1.619   2.981 -0.8914 -1.7227  1.3595
  146MOL0     H19683  12.189  -1.588   2.840  2.6168 -0.8299  0.0514
  146MOL0     H19684  12.113  -1.787   3.059 -0.4923 -2.8325 -0.8894
  146MOL0     H19685  12.051  -1.793   2.895 -0.2364  0.5366 -0.2164
  146MOL0     H19686  12.303  -1.884   3.011  0.0055 -0.3922 -1.1498
  146MOL0     H19687  12.318  -1.852   2.847 -1.2419  1.2112 -0.1381
  146MOL0     H19688  12.162  -2.030   2.792 -0.1043 -1.8612  0.6700
  146MOL0     H19689  12.276  -2.095   2.909  0.5646 -0.6888 -3.5494
  146MOL0     H19690  12.170  -0.916   2.846  0.1174  0.9813 -0.3127
  146MOL0     H19691  12.085  -0.687   2.838  0.8630 -2.4930 -1.2923
  146MOL0     H19692  11.702  -0.387   2.624 -0.1543 -0.1561  0.1913
  146MOL0     H19693  11.557  -0.181   2.659 -2.4591 -0.4412  0.8537
  146MOL0     H19694  11.573   0.926   3.621 -0.6350 -1.6467 -0.6903
  146MOL0     H19695  11.500   1.130   3.555  1.2341 -0.1434  0.8187
  146MOL0     H19696  11.254   1.477   3.838  0.3250  0.2082  0.0054
  146MOL0     H19697  11.131   1.693   3.883  2.0705  0.3326  0.4813
  146MOL0     H19698  11.019   2.065   3.655 -0.8573 -1.1497  3.3737
  146MOL0     H19699  11.097   1.974   3.522 -0.4392 -0.1562  0.0408
  146MOL0     H19700  11.224   2.163   3.560  0.9801  1.9033  0.5867
  146MOL0     H19701  11.315   2.015   3.617 -0.1297  1.2921 -0.9203
  146MOL0     H19702  11.154   2.192   3.801  0.7689 -1.6599  0.8252
  146MOL0     H19703  11.323   2.243   3.769 -0.6534  1.0494  1.4416
  146MOL0     H19704  11.232   1.995   3.914  1.8868 -1.9608 -1.7420
  146MOL0     H19705  11.388   2.009   3.833 -0.6945 -1.7854  1.3669
  146MOL0     H19706  11.508   2.259   4.121  0.5645 -1.1254  0.4114
  146MOL0     H19707  11.242   1.825   3.494  2.1098 -1.3949 -0.5100
  146MOL0     H19708  11.285   1.669   3.318 -1.7628 -2.5981 -1.7298
  146MOL0     H19709  11.426   1.573   3.391 -0.0861 -2.4362  0.6616
  146MOL0     H19710  11.267   1.501   3.353  1.1839 -1.2677  1.9932
  147MOL0     O19711   8.634  11.371   8.865 -0.1929 -0.4427 -0.0117
  147MOL0     C19712   8.586  11.442   8.779  0.7306  0.3972 -0.6959
  147MOL0     O19713   8.654  11.514   8.691 -0.4715 -0.3731  0.1336
  147MOL0     C19714   8.796  11.483   8.670  0.5998  0.3916 -0.0172
  147MOL0     C19715   8.827  11.388   8.582  0.6858 -0.0948  0.5197
  147MOL0     C19716   8.969  11.367   8.561  0.2274 -1.0231  1.0363
  147MOL0     C19717   9.070  11.421   8.644  0.4243 -0.2865 -0.4558
  147MOL0     O19718   9.199  11.380   8.626  0.7340  0.0017 -0.3326
  147MOL0     C19719   9.271  11.357   8.745  0.4401 -0.3708  0.4260
  147MOL0     C19720   9.373  11.252   8.724 -0.2979 -0.3347 -0.7096
  147MOL0     C19721   9.486  11.276   8.622  1.4215 -0.7457  0.0945
  147MOL0     C19722   9.449  11.235   8.468 -0.0679  0.6818 -0.0065
  147MOL0     C19723   9.565  11.231   8.369  0.1780 -0.3672 -0.0435
  147MOL0     C19724   9.671  11.124   8.412  0.2319 -0.3081 -0.6168
  147MOL0     C19725   9.753  11.104   8.290  0.3290 -0.9086 -0.5492
  147MOL0     C19726   9.867  11.008   8.307 -0.5703 -0.2603 -0.2254
  147MOL0     N19727   9.989  11.075   8.332 -0.0985  0.4833 -0.0288
  147MOL0     C19728  10.061  11.062   8.445  0.1290  0.0513 -0.2302
  147MOL0     C19729  10.184  11.097   8.421  0.9714 -0.1966 -0.2891
  147MOL0     C19730  10.303  11.099   8.521  0.3436 -0.8803  0.3258
  147MOL0     C19731  10.274  11.164   8.659  0.2931 -0.1554 -1.1470
  147MOL0     C19732  10.215  11.308   8.660  0.3499  0.5387  0.3098
  147MOL0     C19733  10.283  11.403   8.576  0.6123  0.3905  0.3470
  147MOL0     O19734  10.214  11.527   8.606 -0.2706 -0.3757  0.5043
  147MOL0     C19735  10.239  11.638   8.531 -0.2279 -0.1167  0.0374
  147MOL0     C19736  10.352  11.647   8.452 -0.1103  0.0625 -0.2003
  147MOL0     C19737  10.390  11.755   8.371  0.0873 -0.1544 -0.0116
  147MOL0     C19738  10.304  11.865   8.364  0.1342 -1.2359  0.9868
  147MOL0     C19739  10.346  12.001   8.317 -0.0056  0.3961 -0.3297
  147MOL0     O19740  10.472  12.021   8.262  1.0276 -0.0615  0.5662
  147MOL0     C19741  10.499  12.154   8.219  0.1404  0.2179  0.3870
  147MOL0     C19742  10.536  12.186   8.090  0.9041 -0.6423  0.1235
  147MOL0     C19743  10.549  12.325   8.057  0.0130  0.2520 -0.0391
  147MOL0     C19744  10.515  12.420   8.139  0.5656 -0.2189  0.0669
  147MOL0     O19745  10.512  12.556   8.102 -0.1095 -0.0178 -0.2026
  147MOL0     C19746  10.449  12.649   8.195 -0.3132 -0.0537 -0.6765
  147MOL0     C19747  10.377  12.757   8.116 -0.0798  0.8804  0.1254
  147MOL0     C19748  10.237  12.721   8.074  0.3704  0.2019  0.0974
  147MOL0     C19749  10.141  12.682   8.185 -0.7699 -0.5175  0.4947
  147MOL0     C19750  10.008  12.664   8.138  1.3860 -1.0211 -0.2610
  147MOL0     C19751   9.908  12.635   8.246  0.3274  0.2379 -0.1689
  147MOL0     C19752   9.763  12.640   8.197  0.2142  0.5476  0.2697
  147MOL0     C19753   9.651  12.550   8.268 -1.1539 -1.1557 -0.4276
  147MOL0    Cl19754   9.500  12.576   8.183 -0.1020  0.9547 -0.0943
  147MOL0     C19755  10.502  12.379   8.277  1.0285 -0.4921  0.9451
  147MOL0     C19756  10.500  12.254   8.319 -1.0933  0.3481  0.2120
  147MOL0     O19757  10.258  12.081   8.314  0.1729 -0.1486  0.3579
  147MOL0     C19758  10.191  11.858   8.450  0.2234  0.1503 -0.9955
  147MOL0     C19759  10.151  11.742   8.522 -0.2373  0.4260  0.6281
  147MOL0     N19760  10.190  11.123   8.289 -0.3691  0.1876  0.7735
  147MOL0     N19761  10.073  11.104   8.231  0.2641  0.5281 -0.5498
  147MOL0     C19762   9.021  11.490   8.753  0.6186  0.2293 -0.0479
  147MOL0     C19763   8.890  11.533   8.758  0.0663 -0.6181 -0.7712
  147MOL0     C19764   8.442  11.487   8.807 -0.7892  0.3141  0.2756
  147MOL0     C19765   8.419  11.625   8.800  0.4026 -0.6593 -0.5114
  147MOL0     C19766   8.288  11.671   8.846  0.7881  0.1197  0.6551
  147MOL0     C19767   8.184  11.574   8.888 -0.0634 -0.5852 -0.7901
  147MOL0     O19768   8.082  11.649   8.945  0.2820 -0.6851  0.8693
  147MOL0     C19769   7.971  11.570   8.996 -0.4024 -0.9800 -0.1274
  147MOL0     C19770   7.879  11.507   8.885  0.4381  0.4572 -0.4292
  147MOL0     C19771   7.746  11.441   8.941 -0.3899 -0.3431  0.2217
  147MOL0     C19772   7.622  11.434   8.856 -0.3118  0.6038 -1.2503
  147MOL0     C19773   7.575  11.569   8.830  0.4259 -0.1013  0.5103
  147MOL0     C19774   7.562  11.688   8.801 -0.1150 -0.2045 -0.7039
  147MOL0     C19775   8.210  11.437   8.885  0.2264  0.3968  0.0986
  147MOL0     C19776   8.337  11.397   8.842 -0.7477  0.4600  1.2305
  147MOL0     C19777   8.365  11.245   8.850  0.0561  0.3368 -0.6712
  147MOL0     H19778   8.757  11.343   8.512 -0.7560  1.7528  0.7107
  147MOL0     H19779   8.998  11.297   8.483 -0.6374 -2.0578  1.6224
  147MOL0     H19780   9.319  11.447   8.783  1.1072 -1.4391  2.2388
  147MOL0     H19781   9.201  11.326   8.823 -0.6627 -1.0760 -0.7944
  147MOL0     H19782   9.315  11.162   8.705 -2.2030  1.0140 -1.6012
  147MOL0     H19783   9.422  11.244   8.821  1.1733  0.2459 -1.3599
  147MOL0     H19784   9.573  11.219   8.657  0.8753 -0.1983  2.5473
  147MOL0     H19785   9.505  11.383   8.628  1.0132 -0.7257  1.3373
  147MOL0     H19786   9.396  11.140   8.463 -0.3637  0.8666 -0.4786
  147MOL0     H19787   9.369  11.298   8.428 -1.4789 -2.0816 -1.8766
  147MOL0     H19788   9.517  11.210   8.273 -0.3198 -0.1093  0.1491
  147MOL0     H19789   9.598  11.335   8.380 -1.8108  0.1689  1.2484
  147MOL0     H19790   9.735  11.165   8.491 -0.0869  0.2345 -0.6313
  147MOL0     H19791   9.624  11.032   8.449  3.0881 -1.3036  0.7794
  147MOL0     H19792   9.800  11.200   8.265  1.0946 -0.3971  2.4724
  147MOL0     H19793   9.695  11.073   8.203 -1.3665  0.0211  0.1990
  147MOL0     H19794   9.842  10.930   8.379  1.0130 -0.4287  0.1841
  147MOL0     H19795   9.874  10.953   8.214 -0.1279 -2.3655  0.9954
  147MOL0     H19796  10.029  11.018   8.540  2.0739  0.1612  0.5378
  147MOL0     H19797  10.339  10.996   8.533  1.8060 -0.3512  0.7018
  147MOL0     H19798  10.382  11.152   8.467 -1.2028  0.0680 -1.0717
  147MOL0     H19799  10.207  11.101   8.717  0.0641  1.7058  0.7702
  147MOL0     H19800  10.364  11.168   8.722  0.4837 -1.7137 -1.2968
  147MOL0     H19801  10.207  11.337   8.765 -1.7481  1.6778 -0.0981
  147MOL0     H19802  10.108  11.303   8.639 -0.1772  2.0958  2.2645
  147MOL0     H19803  10.270  11.389   8.468  2.4797 -0.0947  0.1344
  147MOL0     H19804  10.391  11.409   8.594  1.1850  2.0582 -2.8905
  147MOL0     H19805  10.436  11.581   8.467 -0.4952 -0.4061 -0.0992
  147MOL0     H19806  10.492  11.762   8.334 -0.2102  1.5738 -0.5750
  147MOL0     H19807  10.545  12.112   8.011  3.7248 -0.9375  0.6187
  147MOL0     H19808  10.569  12.360   7.956  0.1104  1.3168  0.3396
  147MOL0     H19809  10.382  12.589   8.259 -1.1350 -1.3904 -2.6963
  147MOL0     H19810  10.521  12.705   8.255  0.3274  0.2782 -1.7357
  147MOL0     H19811  10.388  12.849   8.174 -0.2596  1.8079 -1.2857
  147MOL0     H19812  10.431  12.793   8.028  0.8893 -0.1514  0.2793
  147MOL0     H19813  10.204  12.808   8.017  2.8547  2.5461  1.9538
  147MOL0     H19814  10.236  12.639   8.001  2.8104 -0.7901  1.0801
  147MOL0     H19815  10.145  12.757   8.264  2.3814  0.1290 -0.1496
  147MOL0     H19816  10.177  12.585   8.220 -1.2312 -1.6945 -2.0549
  147MOL0     H19817  10.010  12.580   8.068  0.7630 -0.2859 -1.1773
  147MOL0     H19818   9.976  12.753   8.083 -0.1633 -1.5933 -0.3411
  147MOL0     H19819   9.925  12.534   8.284  1.3906  0.1128 -0.9254
  147MOL0     H19820   9.933  12.692   8.336  2.1419 -0.3848 -0.2547
  147MOL0     H19821   9.761  12.609   8.092 -1.6976  1.7332 -0.1020
  147MOL0     H19822   9.731  12.744   8.206 -2.5896 -0.3717  2.4861
  147MOL0     H19823   9.685  12.446   8.275 -2.8844 -1.7576 -0.5807
  147MOL0     H19824   9.646  12.562   8.376  2.5136 -0.6459 -0.1636
  147MOL0     H19825  10.468  12.447   8.354 -1.1890 -1.2889  0.7396
  147MOL0     H19826  10.492  12.218   8.421 -1.6881  1.1724  0.4643
  147MOL0     H19827  10.139  11.951   8.472 -4.1301 -1.8956 -1.5384
  147MOL0     H19828  10.073  11.749   8.597  1.8617 -0.4994  3.0784
  147MOL0     H19829   9.102  11.521   8.818  2.2278 -2.1619 -0.7358
  147MOL0     H19830   8.867  11.589   8.849  1.1833  0.1414 -0.9390
  147MOL0     H19831   8.495  11.701   8.787 -1.0244  0.9366  0.2097
  147MOL0     H19832   8.259  11.773   8.824 -1.1092 -0.7176 -1.1541
  147MOL0     H19833   7.917  11.643   9.057  1.4679 -0.3890  0.8748
  147MOL0     H19834   8.016  11.501   9.067 -1.8165 -1.7979  0.0092
  147MOL0     H19835   7.916  11.417   8.834 -0.7831 -0.3664  0.0931
  147MOL0     H19836   7.862  11.585   8.811  0.9594 -0.6509 -1.7708
  147MOL0     H19837   7.718  11.501   9.028 -0.1452  1.1926 -0.7197
  147MOL0     H19838   7.771  11.343   8.983 -0.8513 -0.8074 -0.5496
  147MOL0     H19839   7.627  11.362   8.773 -1.1675  0.3065 -1.0466
  147MOL0     H19840   7.540  11.395   8.917  0.4434 -0.1300 -0.6786
  147MOL0     H19841   7.522  11.787   8.788 -0.9726  0.2859  3.9562
  147MOL0     H19842   8.137  11.371   8.931 -1.2204  0.9506 -1.3137
  147MOL0     H19843   8.412  11.199   8.763 -2.3714  1.1170 -2.5226
  147MOL0     H19844   8.433  11.223   8.933  1.4868  1.5105 -1.4800
  147MOL0     H19845   8.269  11.195   8.869 -0.1680  0.7216 -0.7847
  148MOL0     O19846   6.265   4.653  10.870  0.1420  0.5618 -0.2861
  148MOL0     C19847   6.260   4.717  10.768 -0.3941  0.1976 -0.1564
  148MOL0     O19848   6.173   4.691  10.666  0.1709 -0.0879 -0.0467
  148MOL0     C19849   6.081   4.589  10.682  0.6502  0.2966  0.5924
  148MOL0     C19850   6.128   4.457  10.671  1.0147  1.4268  0.9216
  148MOL0     C19851   6.035   4.348  10.679 -0.1638  0.0299  0.0449
  148MOL0     C19852   5.896   4.378  10.677 -0.2754 -1.2367 -0.2610
  148MOL0     O19853   5.802   4.288  10.656  0.6396  0.0797 -0.1018
  148MOL0     C19854   5.692   4.284  10.745 -0.2935 -0.0511  0.4851
  148MOL0     C19855   5.558   4.252  10.678 -0.2198 -0.4126  0.7079
  148MOL0     C19856   5.504   4.352  10.574 -0.0148  0.0969 -0.0909
  148MOL0     C19857   5.456   4.481  10.633  0.1367 -0.0016 -0.0942
  148MOL0     C19858   5.406   4.571  10.524  0.2319 -1.7912  0.0868
  148MOL0     C19859   5.509   4.668  10.465 -1.1698 -0.5609 -0.7288
  148MOL0     C19860   5.449   4.769  10.369 -0.2046  0.5530 -0.5662
  148MOL0     C19861   5.571   4.827  10.279  0.1906  0.5672 -0.1939
  148MOL0     N19862   5.670   4.909  10.356  0.6949  0.2210 -0.5984
  148MOL0     C19863   5.648   5.026  10.424 -0.8421  0.2087  0.3953
  148MOL0     C19864   5.747   5.051  10.512 -0.5479  0.3060 -0.9806
  148MOL0     C19865   5.756   5.148  10.630  0.0859 -0.9139 -0.8742
  148MOL0     C19866   5.677   5.279  10.600  1.1187 -0.0959 -0.3540
  148MOL0     C19867   5.671   5.378  10.711  0.2557  0.8978  0.1187
  148MOL0     C19868   5.644   5.527  10.668 -0.8614 -0.3349  0.1417
  148MOL0     O19869   5.666   5.609  10.785  0.2055 -0.3492 -0.2926
  148MOL0     C19870   5.776   5.691  10.798  0.0831 -0.7086 -0.3060
  148MOL0     C19871   5.760   5.821  10.848 -0.3204  0.1234  0.3258
  148MOL0     C19872   5.865   5.907  10.873  0.6627  0.4394  0.1672
  148MOL0     C19873   5.994   5.864  10.840  0.0523 -0.4945 -0.5959
  148MOL0     C19874   6.113   5.948  10.864 -0.2110 -0.0958 -0.1192
  148MOL0     O19875   6.126   6.068  10.818  0.7474  0.8889 -0.4074
  148MOL0     C19876   6.229   6.148  10.861  0.2154 -0.4140 -0.1586
  148MOL0     C19877   6.251   6.197  10.989 -0.0269 -0.1331 -1.2566
  148MOL0     C19878   6.354   6.287  11.008  0.1410 -0.8695 -0.3568
  148MOL0     C19879   6.430   6.341  10.906  0.6789 -0.5631  0.8372
  148MOL0     O19880   6.527   6.443  10.911 -0.3278  0.5012 -0.3766
  148MOL0     C19881   6.555   6.504  11.034  0.0470 -0.1905 -1.3697
  148MOL0     C19882   6.461   6.625  11.035  0.0497  0.7306 -0.6477
  148MOL0     C19883   6.505   6.735  10.931  0.4332  0.4827 -0.7748
  148MOL0     C19884   6.395   6.839  10.925  0.0429  0.0614  0.6990
  148MOL0     C19885   6.443   6.954  10.833  0.1844  0.9371 -0.4791
  148MOL0     C19886   6.358   7.079  10.824 -0.3616 -0.0673  0.8537
  148MOL0     C19887   6.435   7.202  10.768 -0.5518  0.9060 -0.6772
  148MOL0     C19888   6.359   7.332  10.728  0.1844  0.3178  0.1245
  148MOL0    Cl19889   6.469   7.454  10.660  0.0451  0.0511 -0.4030
  148MOL0     C19890   6.392   6.299  10.775 -0.1712 -0.4182  0.9012
  148MOL0     C19891   6.287   6.214  10.756 -0.1991 -0.3493 -0.1460
  148MOL0     O19892   6.202   5.895  10.937  0.1617  1.1922  0.1990
  148MOL0     C19893   6.008   5.737  10.787 -0.0577  0.3096  0.1348
  148MOL0     C19894   5.901   5.648  10.768 -0.0510  0.5283 -0.8638
  148MOL0     N19895   5.819   4.937  10.499  0.4575 -0.2136 -0.0597
  148MOL0     N19896   5.789   4.860  10.396  0.1557  0.6952 -0.7199
  148MOL0     C19897   5.855   4.515  10.671  0.5203  0.8529 -0.1574
  148MOL0     C19898   5.943   4.616  10.674  0.2118 -0.1815 -0.6865
  148MOL0     C19899   6.350   4.837  10.759 -0.2087 -0.8872 -0.1174
  148MOL0     C19900   6.301   4.938  10.671  0.9307 -0.3235 -0.5460
  148MOL0     C19901   6.375   5.054  10.653 -0.5182 -0.3275  0.2022
  148MOL0     C19902   6.500   5.078  10.723 -0.1752  0.3062  0.4638
  148MOL0     O19903   6.565   5.200  10.694 -0.4156 -0.0341  0.0512
  148MOL0     C19904   6.702   5.217  10.706 -0.5915  0.2136 -0.6659
  148MOL0     C19905   6.738   5.257  10.852  1.1863  0.8136  0.0536
  148MOL0     C19906   6.742   5.402  10.884  0.1092  0.3380 -0.0022
  148MOL0     C19907   6.878   5.461  10.850 -0.1741 -0.9746  0.2547
  148MOL0     C19908   6.886   5.603  10.890  0.0270  0.0020 -0.0366
  148MOL0     C19909   6.908   5.722  10.908 -0.1175  0.2555 -0.7848
  148MOL0     C19910   6.542   4.973  10.809  0.3991  0.3293 -0.6224
  148MOL0     C19911   6.472   4.856  10.828 -0.1375 -0.3180 -0.5093
  148MOL0     C19912   6.530   4.746  10.922  0.4248 -0.1678  0.0743
  148MOL0     H19913   6.236   4.445  10.671  1.0489  1.3400  2.8626
  148MOL0     H19914   6.066   4.246  10.663 -3.7035 -1.4668  1.5344
  148MOL0     H19915   5.712   4.196  10.806 -1.2558 -2.9814 -3.0372
  148MOL0     H19916   5.678   4.370  10.811  1.6931  1.9345 -1.5077
  148MOL0     H19917   5.477   4.243  10.752 -1.2350 -5.4791 -0.6699
  148MOL0     H19918   5.563   4.153  10.632  2.3022  0.1568 -0.3659
  148MOL0     H19919   5.423   4.298  10.526  0.3447  0.8584 -1.6255
  148MOL0     H19920   5.581   4.374  10.500  0.1463  0.6536  0.2272
  148MOL0     H19921   5.368   4.457  10.693 -0.8235 -2.1099 -2.2066
  148MOL0     H19922   5.537   4.529  10.689 -0.0016  2.1473 -1.6181
  148MOL0     H19923   5.366   4.502  10.450 -1.4525 -1.0175  0.2430
  148MOL0     H19924   5.326   4.636  10.559  2.4857  1.3411 -0.1168
  148MOL0     H19925   5.555   4.722  10.548 -0.6348 -1.6616 -0.2933
  148MOL0     H19926   5.584   4.608  10.412  0.0409  1.0456 -0.9276
  148MOL0     H19927   5.396   4.844  10.427 -2.2088 -1.0241 -0.2527
  148MOL0     H19928   5.376   4.715  10.307 -0.6417  0.9985 -0.4449
  148MOL0     H19929   5.635   4.753  10.230  2.4412  1.2142  1.5689
  148MOL0     H19930   5.530   4.895  10.204  0.6688  2.8974  1.5559
  148MOL0     H19931   5.559   5.089  10.421 -0.7538  0.3105 -0.3383
  148MOL0     H19932   5.733   5.107  10.729 -0.2646  1.2623 -0.0121
  148MOL0     H19933   5.864   5.165  10.632  0.1140 -1.1808  0.5354
  148MOL0     H19934   5.730   5.321  10.514 -0.6394 -1.4165 -2.2054
  148MOL0     H19935   5.576   5.252  10.567  0.5558 -0.0078  1.2077
  148MOL0     H19936   5.765   5.363  10.764  0.4980 -0.6151 -0.7019
  148MOL0     H19937   5.582   5.346  10.766 -0.5183  0.6423 -1.2295
  148MOL0     H19938   5.542   5.537  10.630 -1.4158  2.3874  2.0633
  148MOL0     H19939   5.719   5.549  10.592  0.7798 -0.3035  1.6839
  148MOL0     H19940   5.659   5.858  10.862 -1.3978 -1.8257 -1.6372
  148MOL0     H19941   5.844   6.004  10.916 -3.7351  0.7368 -2.0685
  148MOL0     H19942   6.196   6.166  11.076  3.6508  1.8191  2.1123
  148MOL0     H19943   6.393   6.309  11.107 -1.3023  1.3936 -0.2269
  148MOL0     H19944   6.543   6.437  11.119  0.6834 -0.2850 -1.3483
  148MOL0     H19945   6.659   6.537  11.049  1.2619 -3.9157 -0.6310
  148MOL0     H19946   6.366   6.582  11.003  1.2590 -1.9785 -0.9072
  148MOL0     H19947   6.459   6.671  11.134 -3.7388 -1.4736  0.4826
  148MOL0     H19948   6.587   6.780  10.987 -0.1081 -2.9402  3.2276
  148MOL0     H19949   6.541   6.693  10.837 -0.1088 -1.8009 -0.0128
  148MOL0     H19950   6.359   6.874  11.023  1.1341 -1.1019  1.5534
  148MOL0     H19951   6.304   6.804  10.876 -0.5136 -0.7165  2.1997
  148MOL0     H19952   6.452   6.912  10.732 -0.4898  0.5155 -0.3665
  148MOL0     H19953   6.537   6.995  10.873  1.4018 -5.1695  4.4254
  148MOL0     H19954   6.278   7.066  10.750  1.5729  1.7333 -1.6943
  148MOL0     H19955   6.321   7.103  10.924 -2.1298  2.7079 -0.3448
  148MOL0     H19956   6.500   7.162  10.689  1.6878  0.8659  1.0502
  148MOL0     H19957   6.501   7.229  10.851 -0.9555 -0.4281  0.1257
  148MOL0     H19958   6.286   7.307  10.651  2.9828  1.6900 -3.2692
  148MOL0     H19959   6.300   7.384  10.804 -0.3648  2.1009 -1.4556
  148MOL0     H19960   6.438   6.357  10.695 -1.3706 -0.6966 -0.0203
  148MOL0     H19961   6.256   6.191  10.654  0.3850  1.9452 -0.9123
  148MOL0     H19962   6.111   5.706  10.791  0.6268  1.7003 -3.0561
  148MOL0     H19963   5.912   5.547  10.730 -2.2082  0.2860 -0.9952
  148MOL0     H19964   5.754   4.536  10.636  0.6570 -0.2738 -1.2833
  148MOL0     H19965   5.914   4.717  10.647  1.2103 -0.3865 -2.7380
  148MOL0     H19966   6.209   4.929  10.614  0.6420  0.4850 -0.2129
  148MOL0     H19967   6.344   5.116  10.570 -2.0154 -1.3757 -0.0410
  148MOL0     H19968   6.738   5.296  10.639  2.1939 -0.0267  0.4209
  148MOL0     H19969   6.744   5.127  10.660 -2.7227 -1.0787 -0.2310
  148MOL0     H19970   6.832   5.207  10.876  0.0921 -0.2778  2.2837
  148MOL0     H19971   6.668   5.209  10.920  2.6876  0.9950  1.8242
  148MOL0     H19972   6.738   5.413  10.992  3.6609 -0.4323  0.3207
  148MOL0     H19973   6.670   5.462  10.827  0.9091  0.4541 -0.9243
  148MOL0     H19974   6.959   5.408  10.901  0.4370  0.1002  0.4462
  148MOL0     H19975   6.872   5.455  10.740 -0.6950  3.1799 -0.0906
  148MOL0     H19976   6.933   5.824  10.932 -0.0698 -0.0848  0.6859
  148MOL0     H19977   6.631   4.998  10.866 -0.2715 -0.8043  1.0082
  148MOL0     H19978   6.640   4.745  10.919  0.5728 -1.9321  2.7514
  148MOL0     H19979   6.504   4.760  11.027  0.7879  0.0580  0.1363
  148MOL0     H19980   6.494   4.656  10.872 -1.6243  0.2515  0.6985
  149MOL0     O19981   0.419  10.996   9.667  0.1578 -0.0764  0.7363
  149MOL0     C19982   0.446  11.117   9.682  0.2273  0.7093 -0.6421
  149MOL0     O19983   0.543  11.169   9.756  0.5256  0.7103  0.4756
  149MOL0     C19984   0.617  11.089   9.827 -0.1184  0.5667  0.2919
  149MOL0     C19985   0.741  11.037   9.786 -1.3107 -0.8655 -0.8565
  149MOL0     C19986   0.821  10.949   9.866 -0.6600 -0.1374 -0.0602
  149MOL0     C19987   0.787  10.927   9.997  0.5394 -0.3180 -0.7491
  149MOL0     O19988   0.869  10.839  10.069  0.5405 -1.1806 -0.0343
  149MOL0     C19989   0.860  10.849  10.216 -0.0795  1.1145  1.4487
  149MOL0     C19990   0.967  10.759  10.271  1.2139 -0.1882  1.3422
  149MOL0     C19991   0.969  10.759  10.420  0.2355 -0.1965  0.7661
  149MOL0     C19992   1.089  10.687  10.470 -0.4070  0.2320  0.3393
  149MOL0     C19993   1.065  10.688  10.624  0.0949  0.5917  1.0099
  149MOL0     C19994   1.204  10.641  10.693  0.6007  0.5407  0.3301
  149MOL0     C19995   1.200  10.669  10.847 -0.6477  0.6177 -0.4571
  149MOL0     C19996   1.337  10.688  10.906 -0.1568  0.3776 -0.0272
  149MOL0     N19997   1.442  10.601  10.855  0.1119  0.4646 -0.4020
  149MOL0     C19998   1.557  10.649  10.798 -0.2446  0.0897  0.9682
  149MOL0     C19999   1.615  10.536  10.741 -0.5620 -0.4045  0.6016
  149MOL0     C20000   1.708  10.537  10.623 -0.6723  0.1403 -1.4379
  149MOL0     C20001   1.857  10.577  10.641  0.1641  0.0440  0.1789
  149MOL0     C20002   1.951  10.540  10.528 -0.2384 -0.1298 -0.1555
  149MOL0     C20003   2.079  10.629  10.531 -0.1000  0.6942 -0.5847
  149MOL0     O20004   2.056  10.763  10.472 -0.3235  0.4635 -0.1301
  149MOL0     C20005   2.166  10.835  10.437  0.8028 -0.2037 -0.0655
  149MOL0     C20006   2.173  10.881  10.309  0.8196  0.5509  0.4803
  149MOL0     C20007   2.279  10.967  10.274 -0.1180  0.2987  0.0076
  149MOL0     C20008   2.370  11.019  10.373 -0.8357 -0.2802  0.1746
  149MOL0     C20009   2.480  11.107  10.336  0.6641  0.1679 -1.0453
  149MOL0     O20010   2.477  11.148  10.208 -0.8019 -0.1352  0.5349
  149MOL0     C20011   2.565  11.248  10.172  0.2343 -0.3932  0.0450
  149MOL0     C20012   2.667  11.207  10.095 -0.0160 -0.1045  0.4813
  149MOL0     C20013   2.753  11.296  10.027 -0.9896 -0.6642 -0.3416
  149MOL0     C20014   2.743  11.440  10.043 -0.0051  0.4430 -0.4958
  149MOL0     O20015   2.833  11.517   9.974 -0.7452 -0.1986  0.1260
  149MOL0     C20016   2.836  11.659   9.982  0.5678  0.9682 -0.5002
  149MOL0     C20017   2.960  11.696   9.896  0.2912  0.0573 -0.7557
  149MOL0     C20018   2.927  11.735   9.757  0.1402 -1.1631 -0.5192
  149MOL0     C20019   3.040  11.732   9.663  0.0856 -0.2150  0.4433
  149MOL0     C20020   2.993  11.754   9.518 -0.0780  0.4700  0.0227
  149MOL0     C20021   3.124  11.776   9.447 -0.5774  0.1032  0.3153
  149MOL0     C20022   3.107  11.791   9.294 -0.5218 -0.6687 -0.2849
  149MOL0     C20023   3.051  11.924   9.249 -0.0164 -0.5985  0.1367
  149MOL0    Cl20024   3.144  12.062   9.322 -0.1484 -0.5166  0.1680
  149MOL0     C20025   2.633  11.480  10.123  0.0125 -0.3432 -0.4353
  149MOL0     C20026   2.546  11.387  10.190  0.6793  0.2966  0.0467
  149MOL0     O20027   2.552  11.159  10.425 -0.5025  0.4579  0.5155
  149MOL0     C20028   2.357  10.974  10.499 -0.0614 -0.0162 -0.6287
  149MOL0     C20029   2.265  10.873  10.535 -0.3298  0.7139 -0.2550
  149MOL0     N20030   1.554  10.426  10.793  0.0563 -0.4009  0.8272
  149MOL0     N20031   1.450  10.466  10.862  0.5714  0.2084  0.0831
  149MOL0     C20032   0.665  10.985  10.045 -1.0220  1.1860  0.2021
  149MOL0     C20033   0.578  11.059   9.953  0.3603 -0.2533  0.3380
  149MOL0     C20034   0.355  11.210   9.606  0.5642  0.1358 -0.3848
  149MOL0     C20035   0.299  11.321   9.670 -0.9106 -0.3072  0.1532
  149MOL0     C20036   0.200  11.403   9.613 -0.3210  0.4792  0.3217
  149MOL0     C20037   0.159  11.370   9.482  0.0776 -0.1429  0.1452
  149MOL0     O20038   0.057  11.438   9.428  0.3098 -0.3159 -0.0714
  149MOL0     C20039  -0.068  11.456   9.502 -0.5919  0.2773  0.6181
  149MOL0     C20040  -0.177  11.460   9.393 -0.6300  0.4291  1.0377
  149MOL0     C20041  -0.150  11.577   9.305 -0.8805 -0.4773  0.5031
  149MOL0     C20042  -0.281  11.641   9.256  0.6559  1.2945  0.0993
  149MOL0     C20043  -0.339  11.565   9.142 -0.7316 -0.7677 -0.4335
  149MOL0     C20044  -0.390  11.512   9.044 -0.2148 -0.2298 -0.5798
  149MOL0     C20045   0.212  11.263   9.410 -0.3711  0.0542 -0.4454
  149MOL0     C20046   0.315  11.186   9.471  0.5307  1.5322 -0.1563
  149MOL0     C20047   0.364  11.058   9.400  0.5251 -1.4778  1.0111
  149MOL0     H20048   0.766  11.051   9.681  0.7989 -1.2395 -0.4493
  149MOL0     H20049   0.921  10.920   9.835 -1.8193 -4.2380 -0.6198
  149MOL0     H20050   0.878  10.952  10.248 -0.1627  0.3887  4.0680
  149MOL0     H20051   0.760  10.812  10.241  0.0028  1.4537  2.2855
  149MOL0     H20052   1.060  10.797  10.228  1.1829  0.2451  1.6448
  149MOL0     H20053   0.953  10.663  10.221  0.7580 -0.7122  2.4398
  149MOL0     H20054   0.875  10.714  10.453 -0.6852  0.5159 -0.7832
  149MOL0     H20055   0.968  10.861  10.460 -1.0448 -1.2277  3.7013
  149MOL0     H20056   1.102  10.584  10.435  0.0200  1.0617 -2.2030
  149MOL0     H20057   1.174  10.749  10.440 -0.0946 -0.7348 -0.8329
  149MOL0     H20058   1.052  10.790  10.661  2.6031  1.6318 -0.7191
  149MOL0     H20059   0.977  10.625  10.634  1.0120 -2.1059 -4.1399
  149MOL0     H20060   1.204  10.534  10.666  0.2527  1.3422 -3.5095
  149MOL0     H20061   1.289  10.685  10.640  0.9253 -1.7384 -1.2064
  149MOL0     H20062   1.142  10.598  10.906 -1.9986 -0.3894 -2.8978
  149MOL0     H20063   1.151  10.766  10.856 -0.1161  0.8326  0.2815
  149MOL0     H20064   1.371  10.789  10.883  1.3460 -0.6201 -2.6546
  149MOL0     H20065   1.330  10.682  11.015 -0.8102 -0.1198 -0.0885
  149MOL0     H20066   1.587  10.751  10.776 -1.3215  0.0542 -0.9781
  149MOL0     H20067   1.704  10.438  10.575 -0.7645 -0.5237 -0.0982
  149MOL0     H20068   1.665  10.602  10.546 -0.7635  1.7250 -0.1004
  149MOL0     H20069   1.854  10.686  10.647 -0.4346  0.0735 -0.5180
  149MOL0     H20070   1.889  10.523  10.730  0.5321 -2.3528 -1.3028
  149MOL0     H20071   1.906  10.549  10.429 -1.4846  0.1846  0.4199
  149MOL0     H20072   1.985  10.439  10.552  2.0638  0.6790  0.2181
  149MOL0     H20073   2.166  10.576  10.490  0.1713 -2.9063  3.9048
  149MOL0     H20074   2.117  10.648  10.632 -2.3843 -0.1898  0.5039
  149MOL0     H20075   2.108  10.844  10.229  1.4911  0.1798  0.0937
  149MOL0     H20076   2.294  10.997  10.171 -0.0873  0.1636 -0.0268
  149MOL0     H20077   2.686  11.101  10.080 -0.7323 -0.3358  1.1158
  149MOL0     H20078   2.828  11.264   9.955 -0.6654  1.3879 -0.9586
  149MOL0     H20079   2.741  11.710   9.961  1.4618  2.0555 -2.1463
  149MOL0     H20080   2.861  11.679  10.086 -1.5593 -2.4160  0.8326
  149MOL0     H20081   3.005  11.780   9.948 -0.2569 -0.0757 -0.0474
  149MOL0     H20082   3.039  11.621   9.891 -0.0605 -0.2571 -1.8068
  149MOL0     H20083   2.850  11.667   9.720 -3.1435  2.6160 -1.3007
  149MOL0     H20084   2.888  11.838   9.761  0.1016 -1.1808 -0.4410
  149MOL0     H20085   3.089  11.635   9.670 -0.1096 -0.4454 -1.1199
  149MOL0     H20086   3.105  11.818   9.684 -1.3883  0.9520  0.4349
  149MOL0     H20087   2.927  11.838   9.495 -0.4078  0.0856 -0.4734
  149MOL0     H20088   2.953  11.663   9.472  0.5006  1.4677 -2.6377
  149MOL0     H20089   3.168  11.868   9.486 -3.5950  1.4863  0.7518
  149MOL0     H20090   3.194  11.692   9.454  0.0031  0.5677  0.2017
  149MOL0     H20091   3.043  11.712   9.252 -2.6881  1.9003 -2.1617
  149MOL0     H20092   3.207  11.774   9.253 -0.6445  1.0076 -1.3417
  149MOL0     H20093   3.051  11.928   9.140  1.0525 -0.5133  0.1291
  149MOL0     H20094   2.946  11.926   9.279  0.0976  1.2907  0.5247
  149MOL0     H20095   2.625  11.588  10.122  1.1170 -0.2276  0.5647
  149MOL0     H20096   2.461  11.426  10.245 -2.6074  2.8637 -5.8514
  149MOL0     H20097   2.434  10.999  10.571  0.3535 -0.7322 -0.8131
  149MOL0     H20098   2.264  10.826  10.633  2.5873 -0.3887 -0.6644
  149MOL0     H20099   0.634  10.957  10.145  0.9402  1.3919  0.9043
  149MOL0     H20100   0.479  11.095   9.977  0.6969  2.0174 -1.4163
  149MOL0     H20101   0.332  11.357   9.767  1.4429  0.7559 -0.9664
  149MOL0     H20102   0.163  11.501   9.643 -2.1398  0.4407 -1.5081
  149MOL0     H20103  -0.074  11.548   9.562 -1.1907 -0.7485  2.1960
  149MOL0     H20104  -0.094  11.365   9.556 -0.3123 -1.1210 -1.5065
  149MOL0     H20105  -0.269  11.476   9.451  1.0919  3.4192  3.2325
  149MOL0     H20106  -0.188  11.370   9.332 -2.8165  2.2528 -1.5034
  149MOL0     H20107  -0.081  11.554   9.223 -1.1361 -1.1839  0.4878
  149MOL0     H20108  -0.102  11.651   9.370 -0.9811  0.1237 -0.0967
  149MOL0     H20109  -0.341  11.673   9.343  2.1648  1.6480  1.0476
  149MOL0     H20110  -0.251  11.738   9.215  1.9186 -0.0998 -2.5296
  149MOL0     H20111  -0.420  11.459   8.956 -1.3648 -0.1015 -0.2710
  149MOL0     H20112   0.166  11.222   9.320  2.8860  0.2756 -2.3626
  149MOL0     H20113   0.470  11.065   9.374  0.1706  3.2783 -0.0415
  149MOL0     H20114   0.326  10.970   9.454 -3.5323  0.1384  1.1514
  149MOL0     H20115   0.316  11.045   9.303  2.1567 -2.6583  0.3161
  150MOL0     O20116   3.170   2.941   0.042  0.0818 -0.3376 -0.8318
  150MOL0     C20117   3.131   2.986   0.153 -0.5835  0.1739 -0.0670
  150MOL0     O20118   3.112   2.903   0.267 -0.4017 -0.4765  0.3904
  150MOL0     C20119   3.119   2.764   0.247 -1.0639 -0.6996  1.2453
  150MOL0     C20120   3.224   2.686   0.294  0.6081  0.3496  0.0527
  150MOL0     C20121   3.206   2.539   0.286 -0.8711  0.3519 -0.7837
  150MOL0     C20122   3.092   2.472   0.218 -0.1821 -0.8190 -0.5018
  150MOL0     O20123   3.082   2.329   0.208 -0.3014  0.2007  0.0602
  150MOL0     C20124   3.014   2.282   0.099  0.0160 -0.8974  0.2889
  150MOL0     C20125   3.042   2.136   0.079 -0.5724 -0.7950  0.0802
  150MOL0     C20126   3.009   2.060  -0.049 -0.0129  0.2033  0.9931
  150MOL0     C20127   3.046   2.153  -0.165  0.2759 -0.1362  0.5491
  150MOL0     C20128   3.041   2.080  -0.303 -0.1745 -0.0587 -0.1781
  150MOL0     C20129   3.038   2.173  -0.423 -0.8289 -0.0435 -0.2477
  150MOL0     C20130   3.177   2.221  -0.456 -0.5369  0.6765 -1.0117
  150MOL0     C20131   3.168   2.332  -0.565  0.1836  0.9182  0.5446
  150MOL0     N20132   3.303   2.392  -0.575  0.2406  0.3412  0.2067
  150MOL0     C20133   3.317   2.524  -0.586 -0.6906  0.2791 -0.0149
  150MOL0     C20134   3.452   2.548  -0.576  0.1635  0.6263 -0.7483
  150MOL0     C20135   3.501   2.679  -0.567 -0.3453  0.2255  0.1435
  150MOL0     C20136   3.589   2.696  -0.437  0.2979  0.4820 -0.4294
  150MOL0     C20137   3.739   2.672  -0.455  0.1514  0.6991  0.7998
  150MOL0     C20138   3.814   2.729  -0.334  0.1249  0.3648  0.3366
  150MOL0     O20139   3.950   2.690  -0.371 -0.2474  0.3082 -0.9021
  150MOL0     C20140   4.038   2.689  -0.261 -0.8432  0.0158  1.0344
  150MOL0     C20141   4.153   2.618  -0.284  0.3848  0.1019  0.1151
  150MOL0     C20142   4.248   2.618  -0.185  0.3210 -0.1238  0.6403
  150MOL0     C20143   4.225   2.662  -0.049 -0.7948 -0.4708 -0.5353
  150MOL0     C20144   4.332   2.659   0.054  0.4918  0.3502 -0.2377
  150MOL0     O20145   4.445   2.602   0.022  0.3647  0.4501  0.1010
  150MOL0     C20146   4.544   2.586   0.105  0.4667 -0.0122  1.3944
  150MOL0     C20147   4.656   2.523   0.042  0.5148 -0.2848  0.2163
  150MOL0     C20148   4.770   2.482   0.115 -0.4836  0.2953  0.1511
  150MOL0     C20149   4.778   2.508   0.253  0.5623  0.3895  1.5912
  150MOL0     O20150   4.899   2.482   0.318 -0.4751 -1.3554  1.1439
  150MOL0     C20151   4.912   2.477   0.461 -0.0880 -0.5497  0.6410
  150MOL0     C20152   5.056   2.450   0.495 -0.1196 -0.1336  0.3992
  150MOL0     C20153   5.098   2.316   0.469  0.2199  0.1582 -0.0718
  150MOL0     C20154   5.127   2.263   0.601  0.6171 -0.1568 -1.0450
  150MOL0     C20155   5.210   2.136   0.604 -0.1631  0.8407 -0.1641
  150MOL0     C20156   5.167   2.047   0.720 -0.0671 -0.0679 -0.1843
  150MOL0     C20157   5.233   1.913   0.732  1.0001 -0.9706 -0.0613
  150MOL0     C20158   5.374   1.908   0.772 -0.4871  0.2047  0.6501
  150MOL0    Cl20159   5.453   1.749   0.736  0.5312  0.1179 -0.1628
  150MOL0     C20160   4.669   2.579   0.312  0.0190  0.0349  0.1168
  150MOL0     C20161   4.555   2.610   0.242 -0.6554  0.5522  0.1387
  150MOL0     O20162   4.314   2.731   0.149  0.2603  0.0901 -0.3754
  150MOL0     C20163   4.101   2.730  -0.027  0.0931  0.6804  1.9099
  150MOL0     C20164   4.011   2.746  -0.137 -0.0471  0.0749 -1.1584
  150MOL0     N20165   3.519   2.427  -0.558  0.2996 -0.1984  0.3524
  150MOL0     N20166   3.429   2.337  -0.558  0.3503 -0.7357  0.2014
  150MOL0     C20167   2.996   2.567   0.163 -0.3363 -0.0373 -0.3718
  150MOL0     C20168   3.008   2.702   0.183  0.0510 -0.4952 -0.1557
  150MOL0     C20169   3.122   3.131   0.172 -0.8169  0.1072  0.2254
  150MOL0     C20170   3.161   3.175   0.299  0.6793  0.3618 -0.5366
  150MOL0     C20171   3.150   3.303   0.325 -0.2935 -0.9506 -0.3766
  150MOL0     C20172   3.108   3.400   0.241  0.1666 -0.6125  0.4024
  150MOL0     O20173   3.095   3.527   0.290  0.3999 -0.5092 -0.2039
  150MOL0     C20174   3.079   3.642   0.198 -1.1837  0.3635  0.1716
  150MOL0     C20175   3.086   3.765   0.273  0.5576 -0.3522 -0.5395
  150MOL0     C20176   3.052   3.898   0.202 -0.1404  0.3222  0.5829
  150MOL0     C20177   3.117   4.016   0.271  1.2697 -0.9395 -0.4182
  150MOL0     C20178   3.082   4.146   0.210  0.8785  0.5391 -0.9281
  150MOL0     C20179   3.071   4.259   0.174 -0.5235  0.1426  0.9286
  150MOL0     C20180   3.071   3.362   0.111 -0.6852  0.4740 -0.3464
  150MOL0     C20181   3.097   3.230   0.070  0.6884  0.7665 -0.6533
  150MOL0     C20182   3.068   3.188  -0.070  0.1806  0.0633 -0.8927
  150MOL0     H20183   3.322   2.719   0.329  1.2148 -0.8539 -0.4405
  150MOL0     H20184   3.280   2.467   0.320 -2.7570 -2.1262 -1.6028
  150MOL0     H20185   2.906   2.293   0.115  0.5483  2.2706  2.9587
  150MOL0     H20186   3.052   2.346   0.019  1.1184 -2.8553 -0.8097
  150MOL0     H20187   2.984   2.087   0.157  0.6749 -0.8454  1.0098
  150MOL0     H20188   3.143   2.114   0.116 -1.5852  1.4367  4.9824
  150MOL0     H20189   2.904   2.030  -0.052  0.2398 -0.9930 -3.5001
  150MOL0     H20190   3.071   1.970  -0.046 -0.1296 -0.0170 -1.4288
  150MOL0     H20191   2.971   2.231  -0.164  0.5265  0.2083 -1.8185
  150MOL0     H20192   3.145   2.200  -0.156  0.8193 -1.0568 -0.3038
  150MOL0     H20193   3.120   2.007  -0.325 -0.2644 -0.2949  0.2782
  150MOL0     H20194   2.947   2.024  -0.304 -1.0598  1.3461  0.3761
  150MOL0     H20195   2.992   2.125  -0.510 -0.0593  0.7883 -1.1414
  150MOL0     H20196   2.975   2.262  -0.409  0.2234  0.8575 -1.0158
  150MOL0     H20197   3.239   2.134  -0.479 -0.3806  0.3499  0.4889
  150MOL0     H20198   3.221   2.261  -0.364  2.3421 -1.9967 -1.0552
  150MOL0     H20199   3.134   2.278  -0.653 -0.2792  0.3172  1.0762
  150MOL0     H20200   3.099   2.410  -0.532 -1.2499 -0.2259  0.3626
  150MOL0     H20201   3.234   2.591  -0.607 -0.0612  0.9696 -0.3217
  150MOL0     H20202   3.568   2.686  -0.654 -0.0986  2.5860  0.4668
  150MOL0     H20203   3.419   2.751  -0.566 -1.8013 -1.3634  2.2291
  150MOL0     H20204   3.578   2.799  -0.402  1.6403 -0.4004  2.9881
  150MOL0     H20205   3.548   2.630  -0.360 -0.7793 -0.0757 -1.4494
  150MOL0     H20206   3.775   2.702  -0.554  0.7866  1.5130  1.2640
  150MOL0     H20207   3.761   2.565  -0.468 -1.9763  0.4528 -1.5077
  150MOL0     H20208   3.780   2.680  -0.242 -0.4576 -0.9779 -0.5482
  150MOL0     H20209   3.801   2.837  -0.335  0.0396  0.3733 -1.4665
  150MOL0     H20210   4.168   2.579  -0.384 -0.4952 -0.3645  0.1545
  150MOL0     H20211   4.349   2.581  -0.200  0.4125  1.0459 -2.2865
  150MOL0     H20212   4.656   2.503  -0.065  0.0662 -0.9409  0.3336
  150MOL0     H20213   4.855   2.427   0.077  1.1621 -0.4254  4.3457
  150MOL0     H20214   4.890   2.574   0.506  0.0020  0.8215 -2.0488
  150MOL0     H20215   4.850   2.399   0.507  2.1754 -3.6495 -1.1438
  150MOL0     H20216   5.111   2.517   0.428  0.0980  3.1772  3.5707
  150MOL0     H20217   5.063   2.484   0.598 -1.4379 -3.3266  1.6697
  150MOL0     H20218   5.026   2.245   0.428 -0.6810  0.3908  1.0814
  150MOL0     H20219   5.193   2.316   0.414  0.9174  2.0616  1.0269
  150MOL0     H20220   5.035   2.245   0.658  1.5884  0.5140  0.8197
  150MOL0     H20221   5.188   2.336   0.654 -0.9215  0.4363 -0.0198
  150MOL0     H20222   5.319   2.150   0.607 -0.0463  0.1302 -0.7556
  150MOL0     H20223   5.201   2.083   0.509 -0.6457 -1.5519  1.1480
  150MOL0     H20224   5.180   2.099   0.816  0.7555 -1.1203  0.2969
  150MOL0     H20225   5.062   2.042   0.690  0.2679 -2.5381 -1.1483
  150MOL0     H20226   5.237   1.860   0.637 -0.5176 -1.7399  0.2819
  150MOL0     H20227   5.182   1.843   0.799  3.5780 -4.3315 -1.3019
  150MOL0     H20228   5.422   1.994   0.724 -1.2766  2.2633  3.2786
  150MOL0     H20229   5.389   1.936   0.877  0.5514  1.6801  0.1417
  150MOL0     H20230   4.670   2.610   0.416 -0.7507  0.9790 -0.1450
  150MOL0     H20231   4.480   2.662   0.301 -1.6167  1.4259 -1.7571
  150MOL0     H20232   4.070   2.775   0.067 -1.3045 -0.3252  1.9613
  150MOL0     H20233   3.926   2.814  -0.132 -1.0729 -1.0061 -2.7465
  150MOL0     H20234   2.911   2.528   0.107  1.0222 -3.2198 -0.4394
  150MOL0     H20235   2.927   2.768   0.152 -0.4603 -0.3529  1.4083
  150MOL0     H20236   3.190   3.112   0.382 -1.1551 -0.3222 -0.3719
  150MOL0     H20237   3.163   3.332   0.429 -0.0244 -1.1638 -0.3511
  150MOL0     H20238   2.992   3.634   0.132 -2.4367  2.6917  1.4352
  150MOL0     H20239   3.164   3.641   0.129 -1.0338  2.5893  0.2656
  150MOL0     H20240   3.190   3.767   0.307 -0.5086 -0.3132  3.1715
  150MOL0     H20241   3.016   3.756   0.357  1.9177 -1.2842  0.5388
  150MOL0     H20242   2.944   3.900   0.181 -0.1227  0.8483  0.5303
  150MOL0     H20243   3.097   3.897   0.102 -2.4171 -0.3894 -0.5188
  150MOL0     H20244   3.074   4.015   0.372 -1.6160 -0.5758 -1.5456
  150MOL0     H20245   3.227   4.014   0.270  1.3600  1.1810 -0.8249
  150MOL0     H20246   3.084   4.365   0.162  3.3725 -0.4386 -1.9174
  150MOL0     H20247   3.037   3.429   0.033 -0.6200 -0.6625 -1.3834
  150MOL0     H20248   2.985   3.117  -0.067  0.9406 -0.8513  2.0213
  150MOL0     H20249   3.042   3.271  -0.136  0.3603 -0.8784 -2.1809
  150MOL0     H20250   3.157   3.145  -0.116  0.7375  1.7947 -1.5138
  151MOL0     O20251   4.994   0.645  10.925 -0.3654  0.1441 -0.3853
  151MOL0     C20252   5.070   0.573  10.861  0.6010 -0.4542 -1.1709
  151MOL0     O20253   5.033   0.495  10.753  0.5304 -0.3961 -0.2893
  151MOL0     C20254   4.899   0.507  10.709  0.3349 -0.4232 -0.3757
  151MOL0     C20255   4.826   0.386  10.723 -0.4770  0.1230 -0.1883
  151MOL0     C20256   4.695   0.371  10.667  0.6267 -0.0682 -0.2783
  151MOL0     C20257   4.626   0.486  10.620 -0.2996  0.1452  0.3863
  151MOL0     O20258   4.489   0.463  10.592  0.4260  0.1846  0.5170
  151MOL0     C20259   4.417   0.574  10.528 -0.3085  0.6192  0.1850
  151MOL0     C20260   4.281   0.514  10.496 -0.3809 -0.1402 -0.4531
  151MOL0     C20261   4.186   0.591  10.403 -0.2985 -0.6018  0.3716
  151MOL0     C20262   4.041   0.532  10.404 -0.0547 -0.1005 -0.0006
  151MOL0     C20263   3.932   0.632  10.348  0.1985  0.1698 -0.3861
  151MOL0     C20264   3.949   0.638  10.198  0.7626 -0.4459  0.0066
  151MOL0     C20265   3.865   0.522  10.127 -0.5116  0.2055 -0.8831
  151MOL0     C20266   3.841   0.568   9.982  0.3088  0.5546  0.2483
  151MOL0     N20267   3.959   0.522   9.897  0.2345  0.2121  0.3674
  151MOL0     C20268   3.939   0.432   9.792  0.0311 -0.1253  0.7337
  151MOL0     C20269   4.058   0.412   9.724 -0.4028  0.3942 -1.3866
  151MOL0     C20270   4.085   0.311   9.613  0.2203  0.8969 -0.2287
  151MOL0     C20271   4.083   0.342   9.468 -0.3063  0.7430  0.2386
  151MOL0     C20272   4.113   0.229   9.370  0.4068 -0.0702  0.7828
  151MOL0     C20273   4.125   0.275   9.222  0.2785 -0.1240  0.1669
  151MOL0     O20274   3.994   0.304   9.171 -0.7475  0.1772 -0.1476
  151MOL0     C20275   3.969   0.329   9.040  0.0403 -0.3784 -0.0053
  151MOL0     C20276   4.052   0.355   8.938 -0.4604  0.7430 -0.2960
  151MOL0     C20277   4.014   0.379   8.813  1.1610 -0.9495  0.4098
  151MOL0     C20278   3.879   0.408   8.789  0.5083 -0.0359  0.8336
  151MOL0     C20279   3.833   0.459   8.655  0.0754  0.0839 -0.8948
  151MOL0     O20280   3.930   0.495   8.558  0.3980  0.2876 -0.6997
  151MOL0     C20281   3.884   0.520   8.429 -0.7299 -1.0248  0.1765
  151MOL0     C20282   3.828   0.643   8.400 -0.6913  0.0063 -0.3251
  151MOL0     C20283   3.770   0.677   8.279  0.5967  1.0532  0.0528
  151MOL0     C20284   3.786   0.589   8.171 -0.9844  0.7506  0.0094
  151MOL0     O20285   3.740   0.633   8.045  0.2332 -0.1449  0.3221
  151MOL0     C20286   3.697   0.549   7.939 -0.2984  0.5140  0.3061
  151MOL0     C20287   3.670   0.640   7.813  0.4111  0.5876  0.3908
  151MOL0     C20288   3.655   0.572   7.686 -0.6924  0.0594 -0.1868
  151MOL0     C20289   3.626   0.656   7.570  0.1099  0.6952 -0.1928
  151MOL0     C20290   3.615   0.561   7.444 -0.2726  0.5637  0.2094
  151MOL0     C20291   3.548   0.631   7.321  0.8688  0.3984 -0.1297
  151MOL0     C20292   3.533   0.535   7.205  0.3085 -0.4887  0.3265
  151MOL0     C20293   3.407   0.550   7.122 -0.6885 -0.4895  0.7422
  151MOL0    Cl20294   3.384   0.393   7.020  0.3788 -0.2831  0.2363
  151MOL0     C20295   3.847   0.460   8.193 -0.1636  0.5872 -0.1566
  151MOL0     C20296   3.894   0.427   8.324 -0.4770 -0.1654 -0.5717
  151MOL0     O20297   3.717   0.433   8.631 -0.3611 -0.3465 -1.0496
  151MOL0     C20298   3.787   0.409   8.897  0.3793 -0.7133  0.1057
  151MOL0     C20299   3.834   0.356   9.013  0.4487  0.1594 -0.0073
  151MOL0     N20300   4.153   0.489   9.787  0.4219 -0.2335 -0.0640
  151MOL0     N20301   4.092   0.549   9.885 -0.2663  0.1193  0.1604
  151MOL0     C20302   4.702   0.601  10.597  0.4494 -0.3428  0.3956
  151MOL0     C20303   4.841   0.616  10.645 -0.4722 -0.8640  0.1622
  151MOL0     C20304   5.216   0.561  10.903  0.0867 -0.8622  0.2400
  151MOL0     C20305   5.308   0.568  10.797  0.2334 -0.4038 -0.1548
  151MOL0     C20306   5.446   0.551  10.832 -0.1855 -0.1082  0.0697
  151MOL0     C20307   5.495   0.515  10.956  0.0691  0.4298 -0.2252
  151MOL0     O20308   5.623   0.485  10.962  0.4703  0.5507 -0.5338
  151MOL0     C20309   5.669   0.411  11.079  0.7174  0.0347  0.7662
  151MOL0     C20310   5.618   0.267  11.055  0.0807 -0.1701 -0.0514
  151MOL0     C20311   5.658   0.209  10.915 -0.5174 -1.1406 -0.8183
  151MOL0     C20312   5.685   0.064  10.935 -0.1238 -0.2358  0.3753
  151MOL0     C20313   5.786   0.029  10.827  0.6647  0.4046 -0.4993
  151MOL0     C20314   5.858  -0.018  10.739  0.0461  0.3218  0.3800
  151MOL0     C20315   5.401   0.514  11.062 -0.0488 -0.0897 -0.6921
  151MOL0     C20316   5.263   0.534  11.037  0.2556  0.0751 -0.3101
  151MOL0     C20317   5.165   0.520  11.153  0.5952 -0.2090  0.1980
  151MOL0     H20318   4.879   0.299  10.761 -0.4580 -0.0831 -0.6763
  151MOL0     H20319   4.637   0.282  10.691 -0.4570  1.3316  2.7485
  151MOL0     H20320   4.394   0.665  10.585 -2.5964  3.4106 -4.5967
  151MOL0     H20321   4.465   0.607  10.436 -0.9085 -0.5488 -0.5842
  151MOL0     H20322   4.227   0.512  10.591 -0.5214 -2.2797 -0.5277
  151MOL0     H20323   4.282   0.411  10.461  0.1091 -0.2499 -0.1196
  151MOL0     H20324   4.226   0.598  10.301 -0.7771 -0.3802  0.1938
  151MOL0     H20325   4.178   0.696  10.435 -2.2781 -0.2026 -1.2171
  151MOL0     H20326   4.045   0.434  10.356 -0.1419 -0.5202  0.8334
  151MOL0     H20327   4.016   0.511  10.509  1.2019  4.0536  1.3291
  151MOL0     H20328   3.828   0.601  10.364  1.0337 -2.4701  0.5214
  151MOL0     H20329   3.949   0.735  10.383  2.5138  1.2227 -4.0729
  151MOL0     H20330   3.900   0.732  10.170 -1.1596 -1.7375 -1.2044
  151MOL0     H20331   4.053   0.640  10.163  0.7901 -0.5739  0.0841
  151MOL0     H20332   3.774   0.496  10.182  1.3817 -2.6387  1.2291
  151MOL0     H20333   3.915   0.424  10.122 -1.8892 -0.4750 -2.3668
  151MOL0     H20334   3.753   0.511   9.949  1.8007 -3.9090  3.0811
  151MOL0     H20335   3.814   0.674   9.976 -2.1791 -0.0803 -1.6802
  151MOL0     H20336   3.847   0.378   9.773  0.0545  0.7075 -2.2419
  151MOL0     H20337   4.176   0.260   9.647 -0.5449  0.7162  1.6384
  151MOL0     H20338   4.010   0.231   9.610  0.8752  0.2116  1.1054
  151MOL0     H20339   3.984   0.381   9.442 -0.0496  0.2589 -1.5764
  151MOL0     H20340   4.155   0.422   9.449  1.9835 -0.9050  1.5520
  151MOL0     H20341   4.040   0.149   9.383 -0.5141  0.2221 -1.9337
  151MOL0     H20342   4.210   0.186   9.396  2.5641  3.1349 -1.2694
  151MOL0     H20343   4.169   0.194   9.162 -0.2440 -0.1236 -0.2210
  151MOL0     H20344   4.194   0.359   9.207 -1.2640  1.0409 -0.6848
  151MOL0     H20345   4.160   0.348   8.948 -0.5561  0.2304  0.4868
  151MOL0     H20346   4.085   0.386   8.732 -0.7829 -1.0126 -1.3857
  151MOL0     H20347   3.848   0.715   8.479  0.3175  1.4988 -1.8887
  151MOL0     H20348   3.731   0.777   8.265 -1.7219  0.2081  0.0692
  151MOL0     H20349   3.779   0.486   7.904  0.3208  2.3558 -1.7809
  151MOL0     H20350   3.614   0.489   7.978  0.4349  0.1000  1.2758
  151MOL0     H20351   3.579   0.701   7.820  0.3838  0.7367 -1.0363
  151MOL0     H20352   3.747   0.717   7.801 -1.3000  3.1714  3.9404
  151MOL0     H20353   3.754   0.524   7.679  0.8400  2.7227  1.3705
  151MOL0     H20354   3.579   0.493   7.687 -0.3863 -0.2405  0.4370
  151MOL0     H20355   3.688   0.745   7.552  0.8425 -0.4408 -4.3074
  151MOL0     H20356   3.524   0.693   7.581 -0.7839 -0.4678 -3.4854
  151MOL0     H20357   3.558   0.472   7.471  0.8488  0.2594  1.7309
  151MOL0     H20358   3.718   0.531   7.419 -0.4386 -0.2593  0.4811
  151MOL0     H20359   3.455   0.678   7.355 -1.4122 -1.4141 -3.3659
  151MOL0     H20360   3.617   0.708   7.285 -1.1407  0.2340 -5.0754
  151MOL0     H20361   3.520   0.434   7.246  0.4663 -0.2701  0.9223
  151MOL0     H20362   3.617   0.563   7.142 -1.0900  1.9740 -0.5672
  151MOL0     H20363   3.325   0.560   7.194  1.0635  4.2714  2.4983
  151MOL0     H20364   3.417   0.636   7.055 -1.5585 -0.6894  0.3374
  151MOL0     H20365   3.857   0.391   8.110  0.9837 -0.0313  0.4772
  151MOL0     H20366   3.932   0.330   8.353 -2.2109 -0.5282  0.6554
  151MOL0     H20367   3.689   0.456   8.901 -0.3685 -2.3059  2.4111
  151MOL0     H20368   3.759   0.359   9.092 -2.0025  1.2991 -2.2183
  151MOL0     H20369   4.650   0.680  10.544 -0.0846 -2.0962 -1.8353
  151MOL0     H20370   4.905   0.703  10.637  0.4120 -1.3407  1.7253
  151MOL0     H20371   5.275   0.598  10.698 -4.5659 -1.0218  1.0406
  151MOL0     H20372   5.513   0.554  10.746 -1.5393  1.6137 -0.9797
  151MOL0     H20373   5.626   0.454  11.170  0.4562 -0.0812  0.6973
  151MOL0     H20374   5.776   0.435  11.088  0.0704  3.1090  1.5823
  151MOL0     H20375   5.509   0.262  11.064  0.2087 -0.6420  1.5175
  151MOL0     H20376   5.655   0.203  11.135  0.2945  1.8211  1.5126
  151MOL0     H20377   5.745   0.262  10.877 -0.2394  1.1627  2.6238
  151MOL0     H20378   5.574   0.214  10.844  0.2430 -3.7376 -2.0209
  151MOL0     H20379   5.726   0.049  11.036  0.0361  1.8387  0.6493
  151MOL0     H20380   5.591   0.009  10.927  0.3630 -0.7590 -2.8477
  151MOL0     H20381   5.926  -0.046  10.661  0.1228 -0.5892  0.7629
  151MOL0     H20382   5.432   0.489  11.163 -0.3300  0.2699 -0.5153
  151MOL0     H20383   5.149   0.613  11.208  0.3639  0.6842 -1.3234
  151MOL0     H20384   5.069   0.488  11.113  1.2301  0.8145 -2.3266
  151MOL0     H20385   5.195   0.440  11.221  1.3279 -0.9258 -0.9355
  152MOL0     O20386   6.597  10.515   6.873  0.0962 -1.1770 -0.2983
  152MOL0     C20387   6.516  10.528   6.786  0.1576  0.9437 -0.1797
  152MOL0     O20388   6.541  10.519   6.654  0.1857 -0.5649  0.1874
  152MOL0     C20389   6.654  10.467   6.604 -0.1177  0.3092  1.1317
  152MOL0     C20390   6.780  10.501   6.639 -0.0240  0.0274  0.0521
  152MOL0     C20391   6.887  10.431   6.590  0.1747  0.1311 -0.4765
  152MOL0     C20392   6.875  10.335   6.477  0.5707  0.3220 -0.5995
  152MOL0     O20393   6.968  10.270   6.402 -0.1076  0.0064 -0.0190
  152MOL0     C20394   7.105  10.281   6.440 -0.4875  0.0438  0.2573
  152MOL0     C20395   7.157  10.408   6.373 -0.2602 -0.0534  0.0738
  152MOL0     C20396   7.310  10.446   6.401  0.4644  0.8818 -0.7776
  152MOL0     C20397   7.417  10.351   6.346  0.0061 -0.3084 -0.6663
  152MOL0     C20398   7.431  10.341   6.187  0.7566 -0.4221  0.7114
  152MOL0     C20399   7.516  10.220   6.138 -0.0142 -0.2198  0.3281
  152MOL0     C20400   7.530  10.212   5.977  0.1966  0.4902 -1.0259
  152MOL0     C20401   7.651  10.288   5.918  1.2493  0.1955  0.8736
  152MOL0     N20402   7.776  10.215   5.935 -1.1660  0.1009  1.1784
  152MOL0     C20403   7.854  10.219   6.049 -0.5086  0.1513  0.0990
  152MOL0     C20404   7.963  10.144   6.023  0.4029  0.4628 -1.0665
  152MOL0     C20405   8.069  10.107   6.123  0.2218  0.6565  0.2620
  152MOL0     C20406   8.213  10.117   6.064  0.3613 -0.8680 -0.3865
  152MOL0     C20407   8.292  10.003   6.048 -0.3728  0.6237  0.2178
  152MOL0     C20408   8.446  10.014   6.047  0.6788 -0.4594 -0.7990
  152MOL0     O20409   8.490  10.116   5.963  0.5624 -0.2290 -0.6761
  152MOL0     C20410   8.514  10.084   5.824 -0.5617  0.1474 -0.6455
  152MOL0     C20411   8.501   9.964   5.762  0.5000  0.8025  0.3472
  152MOL0     C20412   8.565   9.947   5.635  0.5784  0.5260  0.6898
  152MOL0     C20413   8.646  10.044   5.583 -0.1209  0.4001 -0.4556
  152MOL0     C20414   8.728  10.005   5.466 -0.1693 -0.4932 -0.0701
  152MOL0     O20415   8.684   9.904   5.389 -0.1369  1.1014 -1.2017
  152MOL0     C20416   8.752   9.855   5.281 -0.8320  0.3530  0.9304
  152MOL0     C20417   8.895   9.840   5.279  0.1058 -0.2705  0.4161
  152MOL0     C20418   8.963   9.795   5.167  0.3451  1.4205  0.2941
  152MOL0     C20419   8.894   9.755   5.058 -0.0894 -0.0085  0.6738
  152MOL0     O20420   8.954   9.707   4.941  0.5273  0.1730 -0.0899
  152MOL0     C20421   9.091   9.666   4.936  0.6342  0.5825  0.4142
  152MOL0     C20422   9.113   9.582   4.803  1.0123 -0.3669 -0.2547
  152MOL0     C20423   9.067   9.667   4.680 -0.1444 -0.3582 -0.0466
  152MOL0     C20424   9.120   9.621   4.545  0.6076 -0.0490  0.6232
  152MOL0     C20425   9.102   9.737   4.441 -0.2276 -0.3306 -1.0335
  152MOL0     C20426   9.189   9.707   4.324  0.8802 -0.5397 -0.2564
  152MOL0     C20427   9.145   9.804   4.211  0.2523  0.1083 -0.1020
  152MOL0     C20428   9.262   9.790   4.112  0.2084 -0.3939 -0.3627
  152MOL0    Cl20429   9.214   9.832   3.966  0.2801  0.0072 -0.2652
  152MOL0     C20430   8.756   9.766   5.048 -0.1127 -0.3245 -0.6718
  152MOL0     C20431   8.685   9.812   5.164  0.1537 -0.0873  0.9530
  152MOL0     O20432   8.830  10.074   5.443 -0.3461  0.6466 -0.3609
  152MOL0     C20433   8.643  10.171   5.638  0.9997  0.3530  0.1602
  152MOL0     C20434   8.576  10.197   5.757  0.6754  0.1639 -1.7407
  152MOL0     N20435   7.941  10.089   5.903  0.1895  0.6329 -0.1724
  152MOL0     N20436   7.835  10.129   5.845  0.4831  0.5474  0.0121
  152MOL0     C20437   6.745  10.309   6.438  0.6131 -1.0046  0.5704
  152MOL0     C20438   6.634  10.374   6.496 -0.2472 -0.1352  0.2861
  152MOL0     C20439   6.380  10.580   6.818  0.4766  0.2757  0.1929
  152MOL0     C20440   6.288  10.631   6.721 -0.0938  0.0771  0.3882
  152MOL0     C20441   6.166  10.689   6.757  0.0113  1.6330 -1.2708
  152MOL0     C20442   6.130  10.707   6.893 -0.2402  0.5413 -0.0920
  152MOL0     O20443   6.003  10.763   6.917  0.3800 -0.1111 -0.3722
  152MOL0     C20444   5.957  10.771   7.065  0.8285  0.1017  0.8600
  152MOL0     C20445   5.827  10.860   7.050 -0.9129 -0.5327 -0.4169
  152MOL0     C20446   5.719  10.789   6.966  0.3633  0.2130  0.5542
  152MOL0     C20447   5.572  10.836   6.989  0.2534 -0.2272  0.0854
  152MOL0     C20448   5.515  10.803   7.119  0.4027 -0.9064 -0.6106
  152MOL0     C20449   5.450  10.765   7.216 -0.2361  0.3294  0.3308
  152MOL0     C20450   6.224  10.662   6.987  1.2374 -0.5344  0.2987
  152MOL0     C20451   6.341  10.600   6.953  0.4813  0.0650 -0.3563
  152MOL0     C20452   6.409  10.537   7.069 -0.4688 -0.8394 -0.8468
  152MOL0     H20453   6.796  10.581   6.710  0.8392  1.3246 -1.5511
  152MOL0     H20454   6.985  10.453   6.630  0.4537 -2.0767  0.2145
  152MOL0     H20455   7.120  10.305   6.545  2.7040 -0.4129  0.0112
  152MOL0     H20456   7.160  10.194   6.402  1.4731  1.5187 -0.4713
  152MOL0     H20457   7.088  10.489   6.398 -1.2001 -0.1560 -2.0109
  152MOL0     H20458   7.137  10.376   6.271 -1.0958 -2.6476  0.9801
  152MOL0     H20459   7.315  10.434   6.509  0.6542 -0.4017 -0.9097
  152MOL0     H20460   7.322  10.542   6.350 -3.8265  1.1819 -1.5608
  152MOL0     H20461   7.514  10.384   6.387 -1.7734  3.0850  1.2351
  152MOL0     H20462   7.404  10.247   6.378  0.2845  0.3511  1.8176
  152MOL0     H20463   7.333  10.349   6.139  1.4561  5.0714 -0.4951
  152MOL0     H20464   7.484  10.429   6.149  0.7034  0.1042  1.8166
  152MOL0     H20465   7.615  10.212   6.185  1.1846  0.9412 -1.8175
  152MOL0     H20466   7.457  10.132   6.165 -2.1078  0.4529 -1.6877
  152MOL0     H20467   7.442  10.260   5.932  0.7194  1.0609 -1.4623
  152MOL0     H20468   7.537  10.105   5.955  0.7941  0.9611 -3.4821
  152MOL0     H20469   7.640  10.288   5.809  4.8628 -1.5086  0.3508
  152MOL0     H20470   7.651  10.384   5.971  1.3343 -0.3098  1.8090
  152MOL0     H20471   7.837  10.285   6.134  0.3679  2.0656 -1.1237
  152MOL0     H20472   8.059  10.172   6.211 -1.8489 -0.1817  0.6993
  152MOL0     H20473   8.047  10.003   6.147  2.6895 -0.1159 -0.5208
  152MOL0     H20474   8.199  10.156   5.963 -0.3651 -1.0681 -0.3658
  152MOL0     H20475   8.259  10.200   6.121 -0.9844 -0.9466  0.8695
  152MOL0     H20476   8.263   9.942   5.961  0.7008 -0.4299  0.5644
  152MOL0     H20477   8.265   9.948   6.138 -3.4065  0.5497 -0.6357
  152MOL0     H20478   8.483   9.914   6.025 -0.5517 -0.9809 -0.5898
  152MOL0     H20479   8.473  10.046   6.148  3.6011  1.7917 -2.1441
  152MOL0     H20480   8.436   9.890   5.809  1.1869 -0.5341 -0.7188
  152MOL0     H20481   8.544   9.846   5.603 -0.1656 -0.0710  2.8846
  152MOL0     H20482   8.950   9.879   5.364 -0.8481  2.5630 -0.1690
  152MOL0     H20483   9.070   9.784   5.181 -0.0056 -0.7770  1.7253
  152MOL0     H20484   9.159   9.751   4.932 -0.6639  1.6373 -2.8383
  152MOL0     H20485   9.112   9.599   5.020  0.0121  0.4365  0.4611
  152MOL0     H20486   9.217   9.553   4.789  1.2818  0.9476 -1.2122
  152MOL0     H20487   9.047   9.495   4.808  0.7617 -0.5431 -4.1122
  152MOL0     H20488   8.957   9.664   4.682 -0.1054 -1.9211  1.0789
  152MOL0     H20489   9.101   9.769   4.697 -1.4860  0.0649  0.1972
  152MOL0     H20490   9.065   9.533   4.509 -0.0601 -0.0832  1.6956
  152MOL0     H20491   9.228   9.606   4.551  0.7808  1.5895  2.4665
  152MOL0     H20492   9.141   9.823   4.494  1.6703 -2.2960  0.9886
  152MOL0     H20493   8.999   9.757   4.411 -0.5226 -0.0547  0.1424
  152MOL0     H20494   9.293   9.716   4.356  0.4980  1.1532  0.6261
  152MOL0     H20495   9.152   9.607   4.296 -2.0404 -0.0060  1.2852
  152MOL0     H20496   9.121   9.905   4.245  0.4133 -0.4340  1.7405
  152MOL0     H20497   9.055   9.758   4.169 -0.5544 -1.0512  2.6402
  152MOL0     H20498   9.348   9.854   4.135 -0.4411  1.0845 -1.8682
  152MOL0     H20499   9.285   9.683   4.106 -0.6244 -0.5570 -0.7575
  152MOL0     H20500   8.696   9.742   4.960  0.4013  0.0930 -1.1459
  152MOL0     H20501   8.578   9.827   5.159  0.4335  1.8471 -2.0087
  152MOL0     H20502   8.696  10.255   5.595 -0.6655  1.6456  0.5569
  152MOL0     H20503   8.594  10.285   5.818  5.4243 -0.1442 -2.3689
  152MOL0     H20504   6.733  10.227   6.368 -0.0394  0.9464 -1.7221
  152MOL0     H20505   6.531  10.355   6.468 -1.7882  2.2403  3.6009
  152MOL0     H20506   6.317  10.641   6.617  0.3977  0.6753  0.5771
  152MOL0     H20507   6.101  10.729   6.680 -1.0921 -1.0485 -1.8577
  152MOL0     H20508   6.035  10.821   7.123  3.5746 -0.9620 -1.6745
  152MOL0     H20509   5.942  10.677   7.119 -3.1909  0.0416 -0.0576
  152MOL0     H20510   5.855  10.956   7.005 -1.5580 -0.1648 -0.0442
  152MOL0     H20511   5.785  10.888   7.147 -1.9120  0.4793 -1.1165
  152MOL0     H20512   5.724  10.680   6.977  2.4591  0.0203 -1.4319
  152MOL0     H20513   5.748  10.802   6.862  3.3311 -1.4921  1.0576
  152MOL0     H20514   5.551  10.941   6.969  0.9080 -0.2331 -0.7229
  152MOL0     H20515   5.515  10.775   6.918 -0.3220 -2.2364  2.1376
  152MOL0     H20516   5.397  10.730   7.303 -1.4694 -0.3567 -0.6685
  152MOL0     H20517   6.190  10.678   7.088 -2.7671  1.3723 -1.1280
  152MOL0     H20518   6.446  10.437   7.043 -1.7922 -1.2808 -1.1238
  152MOL0     H20519   6.486  10.601   7.113 -2.1664  0.0462  0.9618
  152MOL0     H20520   6.334  10.511   7.144  0.8990  1.4577  1.5070
  153MOL0     O20521   9.191  10.029   2.161 -0.0706  0.7758 -0.7671
  153MOL0     C20522   9.166   9.927   2.222  0.1362  0.5739 -0.6186
  153MOL0     O20523   9.249   9.857   2.296  0.0461  0.3983 -0.5127
  153MOL0     C20524   9.389   9.875   2.314 -0.4952  0.0184  0.4694
  153MOL0     C20525   9.456   9.783   2.390 -0.1365 -0.4045 -0.2166
  153MOL0     C20526   9.597   9.776   2.416  0.4083 -0.3833  0.7035
  153MOL0     C20527   9.675   9.870   2.347  0.0132 -0.4955 -0.5421
  153MOL0     O20528   9.807   9.843   2.354 -0.0425  0.3765 -0.1257
  153MOL0     C20529   9.913   9.914   2.291  1.1654  0.1537 -0.2194
  153MOL0     C20530  10.037   9.828   2.294  0.2468  0.0087 -0.2305
  153MOL0     C20531  10.027   9.705   2.197 -0.4956 -0.2635  0.6533
  153MOL0     C20532  10.009   9.576   2.284  0.1303  0.7907 -0.2547
  153MOL0     C20533  10.110   9.558   2.389  0.5386 -0.1387 -0.1465
  153MOL0     C20534  10.151   9.416   2.431  0.3296 -0.6560  0.0353
  153MOL0     C20535  10.041   9.337   2.489  0.4717 -0.1080 -0.8667
  153MOL0     C20536  10.085   9.206   2.549 -0.4268 -0.7345  0.7265
  153MOL0     N20537   9.968   9.136   2.612  0.3891 -0.2980  0.5747
  153MOL0     C20538   9.880   9.053   2.550  0.8853 -0.0701  0.2977
  153MOL0     C20539   9.805   9.005   2.650  0.2095 -1.1314  0.5903
  153MOL0     C20540   9.682   8.926   2.629  0.5658  0.4924  0.0842
  153MOL0     C20541   9.558   9.004   2.581  0.0359  0.0033  0.9893
  153MOL0     C20542   9.467   9.077   2.676  0.0062  0.4928 -0.5863
  153MOL0     C20543   9.535   9.168   2.792 -0.0866 -0.6878  0.6864
  153MOL0     O20544   9.622   9.245   2.706  1.0787 -0.3350  0.2253
  153MOL0     C20545   9.666   9.369   2.745  0.0940 -0.3494 -0.1028
  153MOL0     C20546   9.727   9.442   2.641  0.4784  0.1143 -1.7577
  153MOL0     C20547   9.788   9.565   2.657  0.5917  0.2154  0.7400
  153MOL0     C20548   9.802   9.611   2.786 -1.1990 -0.3417 -0.4600
  153MOL0     C20549   9.883   9.732   2.807  0.1521 -0.1472 -0.2831
  153MOL0     O20550   9.895   9.811   2.697 -0.8636 -0.6899 -0.1695
  153MOL0     C20551   9.986   9.918   2.687 -0.3575 -0.1699 -0.3209
  153MOL0     C20552   9.949  10.021   2.609 -0.1787 -0.2225  0.2004
  153MOL0     C20553  10.038  10.132   2.591  0.6104  0.8595 -0.1656
  153MOL0     C20554  10.160  10.140   2.657  0.1855 -0.8759 -0.1222
  153MOL0     O20555  10.229  10.251   2.636  0.2508  0.0611  0.2044
  153MOL0     C20556  10.371  10.232   2.647  0.0670 -0.6815 -0.2390
  153MOL0     C20557  10.455  10.347   2.576 -0.4038  0.5697 -0.6445
  153MOL0     C20558  10.608  10.324   2.576 -0.0844 -0.0990 -0.3866
  153MOL0     C20559  10.685  10.412   2.477 -0.8262  0.0416 -0.1734
  153MOL0     C20560  10.836  10.407   2.495  0.1125 -0.0074 -1.4465
  153MOL0     C20561  10.902  10.540   2.454 -0.1468  0.2072 -0.6718
  153MOL0     C20562  10.894  10.588   2.315  0.5219 -0.6362  0.0494
  153MOL0     C20563  10.909  10.740   2.302  0.0859 -1.4577  0.2345
  153MOL0    Cl20564  11.083  10.768   2.308  0.0649 -0.2059  0.2601
  153MOL0     C20565  10.192  10.040   2.751  0.0388  0.5967 -0.3233
  153MOL0     C20566  10.101   9.936   2.767 -0.7733  0.7042  0.3013
  153MOL0     O20567   9.936   9.755   2.915 -0.3888  0.7528  0.4893
  153MOL0     C20568   9.766   9.538   2.899 -0.0754  0.2439 -0.3382
  153MOL0     C20569   9.688   9.422   2.882 -0.0043  0.1475 -0.0512
  153MOL0     N20570   9.855   9.054   2.762 -0.9662  0.2677 -0.1422
  153MOL0     N20571   9.961   9.120   2.750 -0.5951 -0.0087  0.0507
  153MOL0     C20572   9.615   9.972   2.277 -0.2148  0.2775 -0.0064
  153MOL0     C20573   9.477   9.977   2.263 -0.7403 -0.0357 -0.9612
  153MOL0     C20574   9.035   9.873   2.218 -0.0138 -0.4515 -0.6778
  153MOL0     C20575   8.975   9.844   2.342  0.4037  0.0546  0.9423
  153MOL0     C20576   8.842   9.788   2.346 -0.8582  0.1542 -0.0828
  153MOL0     C20577   8.766   9.781   2.225 -0.3252 -0.1965 -0.2226
  153MOL0     O20578   8.636   9.746   2.219 -0.5369  0.5619  0.4854
  153MOL0     C20579   8.558   9.702   2.328 -0.8335  0.7644  0.4103
  153MOL0     C20580   8.503   9.811   2.426  0.2392  0.3347 -0.0858
  153MOL0     C20581   8.403   9.754   2.530 -0.3654 -0.0425 -0.0749
  153MOL0     C20582   8.466   9.700   2.663  0.1719  0.3406 -1.0013
  153MOL0     C20583   8.490   9.810   2.764  0.2834  0.0316  0.2400
  153MOL0     C20584   8.479   9.892   2.855 -0.6845  0.8379  1.1883
  153MOL0     C20585   8.829   9.815   2.109  0.1157 -0.3818  0.3299
  153MOL0     C20586   8.969   9.847   2.091 -0.3395  0.1865 -0.3559
  153MOL0     C20587   9.031   9.879   1.952  0.4161  0.5263  0.0422
  153MOL0     H20588   9.392   9.705   2.432 -1.1233  0.7034  0.3913
  153MOL0     H20589   9.641   9.690   2.464 -2.5272 -1.6656  1.2958
  153MOL0     H20590   9.882   9.939   2.189  3.1423  1.5580 -0.5246
  153MOL0     H20591   9.946  10.007   2.339  1.7871 -0.5883  0.8309
  153MOL0     H20592  10.066   9.811   2.398  3.0720 -1.2754 -1.1316
  153MOL0     H20593  10.116   9.895   2.257 -0.4960  0.7577 -0.5019
  153MOL0     H20594  10.120   9.693   2.141 -0.4522  2.4350 -0.0102
  153MOL0     H20595   9.955   9.718   2.116  0.8152  0.6640 -0.4087
  153MOL0     H20596   9.914   9.574   2.338  0.6331  0.1948  0.6323
  153MOL0     H20597  10.008   9.489   2.217  2.0901  1.1299 -0.7869
  153MOL0     H20598  10.204   9.599   2.351  2.2312 -1.0971  2.7342
  153MOL0     H20599  10.085   9.619   2.476  0.2248 -0.1116 -0.2511
  153MOL0     H20600  10.180   9.352   2.347 -2.2932 -4.8363  2.0274
  153MOL0     H20601  10.231   9.419   2.506  2.1715 -0.3544 -1.8420
  153MOL0     H20602   9.975   9.307   2.408 -0.5938  2.4704 -1.0436
  153MOL0     H20603   9.995   9.400   2.565  1.7552 -1.6883  1.3574
  153MOL0     H20604  10.119   9.148   2.462 -0.4133 -0.9146  0.8525
  153MOL0     H20605  10.170   9.231   2.613 -0.3429  0.6479  0.1280
  153MOL0     H20606   9.860   9.041   2.444  1.4373 -3.1869  0.4325
  153MOL0     H20607   9.702   8.844   2.559 -2.6033  1.1060 -1.7227
  153MOL0     H20608   9.647   8.877   2.720 -1.3157  0.1082 -0.7949
  153MOL0     H20609   9.589   9.074   2.502 -1.1769 -0.9581 -0.3932
  153MOL0     H20610   9.490   8.938   2.527 -0.6780  2.0930 -0.7973
  153MOL0     H20611   9.415   9.005   2.739  0.2055 -0.5562 -1.5985
  153MOL0     H20612   9.389   9.133   2.622  0.1080 -0.2888 -1.5726
  153MOL0     H20613   9.589   9.116   2.871  2.6098  1.0795  0.1251
  153MOL0     H20614   9.458   9.228   2.841 -0.1008 -0.7464  0.7341
  153MOL0     H20615   9.719   9.388   2.547  2.2666 -1.5788 -1.0135
  153MOL0     H20616   9.823   9.616   2.568 -1.5368  2.4729  1.0952
  153MOL0     H20617   9.854  10.026   2.556  0.4442 -0.6681 -0.9935
  153MOL0     H20618  10.005  10.206   2.519 -1.3439  0.1972 -0.0059
  153MOL0     H20619  10.393  10.243   2.754  1.1669  2.7425 -0.6966
  153MOL0     H20620  10.408  10.137   2.609  0.3030 -1.7298  2.3814
  153MOL0     H20621  10.421  10.351   2.472 -2.2493 -1.5607 -0.2174
  153MOL0     H20622  10.450  10.449   2.614  2.3148  0.5719 -0.1096
  153MOL0     H20623  10.638  10.336   2.681 -1.2204  1.7282 -0.2291
  153MOL0     H20624  10.630  10.224   2.537 -0.0603 -0.4574  0.4997
  153MOL0     H20625  10.656  10.515   2.497 -0.1672  0.0212  0.9799
  153MOL0     H20626  10.673  10.389   2.371  2.0898  2.7252 -1.2641
  153MOL0     H20627  10.872  10.324   2.435 -0.7409 -1.5819  0.1347
  153MOL0     H20628  10.854  10.390   2.602 -2.2598  0.3777 -0.9182
  153MOL0     H20629  10.863  10.614   2.524 -1.4479  0.0040 -1.1605
  153MOL0     H20630  11.008  10.530   2.478 -0.0971  1.0178 -0.5159
  153MOL0     H20631  10.795  10.567   2.274  0.4633 -1.7377  0.7104
  153MOL0     H20632  10.959  10.547   2.237 -2.2130 -1.1405 -2.0973
  153MOL0     H20633  10.864  10.764   2.205  0.1983 -1.3223  0.2153
  153MOL0     H20634  10.841  10.792   2.370  0.1889 -0.1179 -0.6427
  153MOL0     H20635  10.289  10.040   2.801 -0.0248 -0.7591 -0.1614
  153MOL0     H20636  10.131   9.856   2.834  1.2707  0.3267 -1.0058
  153MOL0     H20637   9.779   9.586   2.995 -2.2055  0.9015 -0.3296
  153MOL0     H20638   9.653   9.375   2.973 -1.2750  2.7394  0.9215
  153MOL0     H20639   9.679  10.046   2.229  0.0964 -1.1975 -2.0048
  153MOL0     H20640   9.428  10.062   2.217  0.7627  0.9395 -0.8361
  153MOL0     H20641   9.032   9.858   2.433  2.0055  0.6114 -0.1025
  153MOL0     H20642   8.801   9.761   2.443 -0.2440  0.0935  0.1590
  153MOL0     H20643   8.619   9.625   2.378 -1.1931  0.3215  0.1698
  153MOL0     H20644   8.472   9.651   2.283  0.8895  1.3396 -4.0579
  153MOL0     H20645   8.442   9.882   2.370 -1.5489 -2.5259 -2.0078
  153MOL0     H20646   8.593   9.855   2.471 -0.2105  0.5463  0.6243
  153MOL0     H20647   8.348   9.679   2.473 -2.1733  3.1576 -2.9080
  153MOL0     H20648   8.327   9.825   2.564  2.3131  2.1146  1.9578
  153MOL0     H20649   8.395   9.627   2.702  0.6981 -0.7092 -1.9596
  153MOL0     H20650   8.555   9.638   2.647 -0.1857 -0.0371 -1.5479
  153MOL0     H20651   8.481   9.935   2.953  3.6035 -1.1214  2.2067
  153MOL0     H20652   8.769   9.817   2.019 -0.6880  0.8511  0.8629
  153MOL0     H20653   8.951   9.866   1.879 -0.3069 -1.9372  1.1911
  153MOL0     H20654   9.059   9.985   1.957 -0.3719  0.7071  1.1220
  153MOL0     H20655   9.123   9.823   1.934  0.7109  0.4312  1.6957
  154MOL0     O20656   4.910   3.224   7.650 -0.0809 -0.3068  0.2956
  154MOL0     C20657   4.959   3.331   7.608  0.4274 -0.5468 -0.2866
  154MOL0     O20658   5.066   3.338   7.528  0.3492 -0.1116  0.0838
  154MOL0     C20659   5.166   3.245   7.520  0.4574 -0.2450 -0.3174
  154MOL0     C20660   5.161   3.107   7.563 -1.1786 -0.2349  0.2861
  154MOL0     C20661   5.280   3.037   7.541 -0.7518  0.5214  0.0746
  154MOL0     C20662   5.389   3.077   7.472 -0.3481  0.3947 -1.2550
  154MOL0     O20663   5.496   2.989   7.453  0.0677  0.8242  0.5432
  154MOL0     C20664   5.507   2.959   7.309 -0.2262  0.6254 -0.1997
  154MOL0     C20665   5.613   2.854   7.275  0.0312  0.2816  0.1203
  154MOL0     C20666   5.744   2.895   7.338 -0.7974  0.0616 -0.2802
  154MOL0     C20667   5.838   2.787   7.291  0.3965 -0.5673 -0.2184
  154MOL0     C20668   5.972   2.844   7.275 -0.4521  0.3027 -0.3034
  154MOL0     C20669   6.071   2.735   7.254  0.5292 -0.8262 -0.6179
  154MOL0     C20670   6.209   2.792   7.265  0.1712  0.6152  0.3807
  154MOL0     C20671   6.320   2.699   7.213 -0.1794 -0.2383 -0.9196
  154MOL0     N20672   6.308   2.690   7.068  0.1879  0.7346  0.0517
  154MOL0     C20673   6.335   2.783   6.971 -0.2202  0.6681  0.6056
  154MOL0     C20674   6.299   2.731   6.848 -0.4728  0.4615  0.3812
  154MOL0     C20675   6.316   2.802   6.716 -0.7316  0.4674  0.3463
  154MOL0     C20676   6.450   2.869   6.702  0.3200 -0.4762  0.2312
  154MOL0     C20677   6.463   2.932   6.565 -0.3572  1.0893  0.6495
  154MOL0     C20678   6.611   2.956   6.526  0.2039 -0.2921  0.4468
  154MOL0     O20679   6.695   2.841   6.525  0.5163  0.0070 -0.0556
  154MOL0     C20680   6.827   2.859   6.527  0.1526  0.0015 -0.9761
  154MOL0     C20681   6.892   2.980   6.553  0.6092  0.4531  1.3044
  154MOL0     C20682   7.024   2.981   6.583 -0.6385 -0.3732  0.0025
  154MOL0     C20683   7.103   2.870   6.596  0.0419 -0.5040 -0.0927
  154MOL0     C20684   7.259   2.878   6.629  1.1965  0.0047  0.9715
  154MOL0     O20685   7.326   2.761   6.657 -0.1231 -0.2315 -0.9007
  154MOL0     C20686   7.461   2.771   6.652 -0.7850 -0.6646 -0.4278
  154MOL0     C20687   7.534   2.831   6.763 -0.3107 -0.3034 -0.1933
  154MOL0     C20688   7.672   2.837   6.767 -0.3281 -0.5109  0.3555
  154MOL0     C20689   7.750   2.775   6.661 -0.0926 -0.0761 -0.4507
  154MOL0     O20690   7.882   2.784   6.687  0.3890  0.4658  0.1125
  154MOL0     C20691   7.967   2.779   6.569 -0.4716  0.3834  0.5597
  154MOL0     C20692   8.108   2.844   6.605  0.0374  0.2874 -0.4003
  154MOL0     C20693   8.212   2.787   6.510  0.4006 -0.1524  0.0338
  154MOL0     C20694   8.345   2.863   6.538  0.3444  0.5438  0.2085
  154MOL0     C20695   8.458   2.773   6.490 -0.9198  0.7391 -0.1090
  154MOL0     C20696   8.596   2.828   6.532  0.0728 -0.3695  0.2171
  154MOL0     C20697   8.708   2.732   6.489 -0.0603  1.1492 -0.0295
  154MOL0     C20698   8.853   2.778   6.477  0.0464 -0.0471 -1.0407
  154MOL0    Cl20699   8.912   2.831   6.649  0.3869  0.0274  0.1406
  154MOL0     C20700   7.689   2.717   6.550 -0.1809  0.4701  0.2666
  154MOL0     C20701   7.546   2.724   6.547  0.9301 -0.7034  0.0827
  154MOL0     O20702   7.316   2.988   6.623  0.1997 -0.4244  0.4028
  154MOL0     C20703   7.040   2.747   6.575  0.1194 -0.4993 -0.3712
  154MOL0     C20704   6.903   2.741   6.533 -0.1103 -0.0073  0.5903
  154MOL0     N20705   6.237   2.607   6.876 -0.6280 -0.0616 -0.2468
  154MOL0     N20706   6.247   2.586   7.008 -0.4241  0.5146  0.6901
  154MOL0     C20707   5.386   3.210   7.418 -0.2520  0.2075 -0.5493
  154MOL0     C20708   5.275   3.290   7.447 -1.3669  0.8725 -0.5808
  154MOL0     C20709   4.891   3.452   7.649 -1.3148 -0.2887  0.1893
  154MOL0     C20710   4.749   3.453   7.654 -0.5179 -0.0379  0.0055
  154MOL0     C20711   4.695   3.574   7.692  1.3827 -0.5462 -0.6656
  154MOL0     C20712   4.770   3.690   7.718 -0.1479 -0.1786  0.1907
  154MOL0     O20713   4.708   3.806   7.752 -0.1673  0.8490  0.7914
  154MOL0     C20714   4.772   3.930   7.739  0.1325  0.5382  0.3291
  154MOL0     C20715   4.847   3.963   7.871 -0.9396  0.3788  0.6057
  154MOL0     C20716   4.923   4.094   7.866  0.2928 -1.6555  0.7342
  154MOL0     C20717   5.036   4.108   7.769 -0.5618 -0.0117  1.0492
  154MOL0     C20718   5.161   4.039   7.816  0.1463 -0.0262 -0.5649
  154MOL0     C20719   5.248   3.973   7.857 -0.2693 -0.2408  0.1880
  154MOL0     C20720   4.906   3.686   7.716 -2.0625 -0.6319 -0.0044
  154MOL0     C20721   4.969   3.560   7.690  0.4474 -0.5492  0.4473
  154MOL0     C20722   5.120   3.568   7.686  0.6416  0.0394 -0.8781
  154MOL0     H20723   5.100   3.051   7.633  1.4241 -1.0246  2.1141
  154MOL0     H20724   5.277   2.936   7.582 -1.1221  0.6738  0.4406
  154MOL0     H20725   5.409   2.945   7.262 -1.3271  1.6153  1.6928
  154MOL0     H20726   5.542   3.054   7.268 -1.3446  0.9232 -0.5167
  154MOL0     H20727   5.625   2.850   7.166  2.9082  3.7546  0.1105
  154MOL0     H20728   5.570   2.757   7.302 -0.4384  0.2603 -0.6746
  154MOL0     H20729   5.739   2.893   7.447 -0.5616 -3.0074 -0.2395
  154MOL0     H20730   5.782   2.986   7.290  1.4283 -1.1184 -0.9045
  154MOL0     H20731   5.837   2.702   7.361  0.8062  0.4301  1.0362
  154MOL0     H20732   5.814   2.745   7.193  0.0284 -1.5873  0.2876
  154MOL0     H20733   5.978   2.919   7.196  2.2027 -0.0952 -0.5495
  154MOL0     H20734   6.005   2.896   7.365 -0.7583 -1.8259  1.1156
  154MOL0     H20735   6.057   2.662   7.334  1.0100 -1.1987 -0.8647
  154MOL0     H20736   6.060   2.685   7.157  1.2657 -1.8504 -0.1925
  154MOL0     H20737   6.224   2.823   7.369  0.7253 -0.3303  0.5856
  154MOL0     H20738   6.218   2.880   7.200  2.5097 -0.8709 -1.4619
  154MOL0     H20739   6.419   2.739   7.238 -0.4208 -0.4852  0.5005
  154MOL0     H20740   6.314   2.601   7.260  4.6192 -0.4268 -0.1669
  154MOL0     H20741   6.377   2.883   6.984  3.7739 -0.9497  1.8534
  154MOL0     H20742   6.302   2.722   6.643 -0.2929  0.3426  0.3942
  154MOL0     H20743   6.247   2.884   6.700  1.4006  2.2789 -0.0682
  154MOL0     H20744   6.476   2.929   6.789  1.5745 -2.8918  1.6220
  154MOL0     H20745   6.520   2.785   6.703 -0.5203 -1.2115  1.7134
  154MOL0     H20746   6.400   3.021   6.572  0.5428  1.6420  6.2244
  154MOL0     H20747   6.425   2.867   6.485 -2.9009 -0.0005  2.5950
  154MOL0     H20748   6.644   3.020   6.608 -2.6086  1.9438 -0.0130
  154MOL0     H20749   6.625   3.007   6.430  1.8888  2.3627  1.9983
  154MOL0     H20750   6.841   3.073   6.533  0.1449  0.0637  0.6845
  154MOL0     H20751   7.070   3.077   6.600 -0.7832 -0.4732  0.9865
  154MOL0     H20752   7.471   2.871   6.841 -2.2000 -0.1417 -1.7241
  154MOL0     H20753   7.708   2.905   6.845 -3.9264  1.1697  0.7492
  154MOL0     H20754   7.983   2.675   6.538 -0.4962 -0.7197  3.8921
  154MOL0     H20755   7.918   2.829   6.485  1.2772  2.5589  0.7560
  154MOL0     H20756   8.100   2.953   6.604 -2.4946  0.1513 -0.1449
  154MOL0     H20757   8.143   2.820   6.706 -0.6134  1.2122  0.0567
  154MOL0     H20758   8.221   2.678   6.522 -0.6317 -0.6396 -2.8148
  154MOL0     H20759   8.171   2.812   6.411 -2.5081 -2.6137  0.4583
  154MOL0     H20760   8.366   2.877   6.645  2.1047 -0.6024  0.0568
  154MOL0     H20761   8.333   2.955   6.480 -2.7738 -0.2007 -0.4952
  154MOL0     H20762   8.456   2.762   6.381 -0.7334 -0.8837  0.0339
  154MOL0     H20763   8.452   2.673   6.533  1.0632  0.0247 -1.3718
  154MOL0     H20764   8.612   2.932   6.501 -0.2131 -0.5225 -0.4552
  154MOL0     H20765   8.599   2.827   6.641  0.1955  1.7959  0.2814
  154MOL0     H20766   8.688   2.678   6.396  1.8206 -3.8132  2.1060
  154MOL0     H20767   8.708   2.650   6.561 -3.0277 -0.6408 -1.8166
  154MOL0     H20768   8.897   2.683   6.446 -0.5399 -1.2289  1.4859
  154MOL0     H20769   8.868   2.866   6.413 -0.6123  0.8142 -0.0500
  154MOL0     H20770   7.741   2.672   6.467 -1.8537  2.4941 -2.0405
  154MOL0     H20771   7.497   2.684   6.459 -0.3149 -1.0002  0.8892
  154MOL0     H20772   7.107   2.662   6.581  1.6798  0.5499 -1.8619
  154MOL0     H20773   6.858   2.645   6.508 -0.1083  0.3265 -0.7791
  154MOL0     H20774   5.479   3.240   7.371  0.5197 -0.4596  0.5017
  154MOL0     H20775   5.289   3.393   7.415  1.5528  0.2644 -1.6568
  154MOL0     H20776   4.684   3.376   7.612 -0.4043 -0.8824  1.3193
  154MOL0     H20777   4.589   3.593   7.701  1.6962  0.8997  0.2396
  154MOL0     H20778   4.695   4.008   7.742 -2.0023 -1.4698  1.7040
  154MOL0     H20779   4.836   3.946   7.652  0.6779 -0.0783  0.6070
  154MOL0     H20780   4.908   3.884   7.916 -0.0473  1.3308  1.1201
  154MOL0     H20781   4.769   3.967   7.948 -0.3165 -1.6549  1.3897
  154MOL0     H20782   4.952   4.130   7.965 -0.2075  1.4499 -0.1325
  154MOL0     H20783   4.852   4.172   7.835 -0.6899 -2.6331  0.5019
  154MOL0     H20784   5.001   4.053   7.681 -1.8388 -0.3073  1.7095
  154MOL0     H20785   5.052   4.215   7.752 -0.5429 -0.2905 -0.8872
  154MOL0     H20786   5.336   3.912   7.868 -0.7230 -1.8086 -3.6251
  154MOL0     H20787   4.965   3.775   7.734 -1.5787 -0.9237 -0.1545
  154MOL0     H20788   5.158   3.547   7.586  1.6001 -0.8477 -0.3556
  154MOL0     H20789   5.158   3.668   7.709 -0.4358  0.3131 -0.2573
  154MOL0     H20790   5.146   3.499   7.767 -1.7967  2.3165  2.0748
  155MOL0     O20791   2.614   4.969   4.566  0.3406 -0.3180  0.1171
  155MOL0     C20792   2.630   5.036   4.666 -0.4303 -0.6999 -0.8195
  155MOL0     O20793   2.640   5.173   4.685  0.3031  0.3241  0.3455
  155MOL0     C20794   2.572   5.255   4.592 -1.2682 -0.7364 -0.6005
  155MOL0     C20795   2.455   5.213   4.532 -0.0845  0.1187 -0.4559
  155MOL0     C20796   2.388   5.297   4.442 -0.4929 -0.0188  0.1620
  155MOL0     C20797   2.440   5.424   4.408 -0.7711 -0.6725 -1.1069
  155MOL0     O20798   2.386   5.515   4.313  0.2896  0.4763  0.2845
  155MOL0     C20799   2.276   5.461   4.232  1.1626 -1.0123 -0.5717
  155MOL0     C20800   2.232   5.529   4.105 -0.0202  0.3139 -0.4967
  155MOL0     C20801   2.215   5.678   4.121 -0.2752 -0.2395  0.3908
  155MOL0     C20802   2.148   5.749   3.999  0.5378  0.2027 -0.3373
  155MOL0     C20803   2.131   5.904   4.012 -0.3615 -0.2817 -0.0751
  155MOL0     C20804   1.982   5.947   4.029 -0.4815  0.3006 -0.1457
  155MOL0     C20805   1.925   5.868   4.151 -0.1477 -0.4366  0.5798
  155MOL0     C20806   1.804   5.948   4.204  0.2302  0.0303  1.0330
  155MOL0     N20807   1.713   5.859   4.284  0.3531 -0.5028 -0.0569
  155MOL0     C20808   1.579   5.845   4.273  0.8263  0.5855  0.3783
  155MOL0     C20809   1.544   5.753   4.366  0.3969  0.2690 -0.5063
  155MOL0     C20810   1.400   5.694   4.372 -0.4682  0.1762 -0.8967
  155MOL0     C20811   1.384   5.555   4.309  0.4372 -0.0906 -0.4769
  155MOL0     C20812   1.457   5.530   4.179  0.7525  0.3342 -0.2430
  155MOL0     C20813   1.424   5.395   4.115 -0.1006  0.8373  0.1648
  155MOL0     O20814   1.287   5.398   4.080  0.3988  0.5367  1.5963
  155MOL0     C20815   1.250   5.417   3.951 -0.1176  0.6460  0.8046
  155MOL0     C20816   1.119   5.465   3.940 -0.0646  0.4724 -0.2039
  155MOL0     C20817   1.065   5.494   3.808  0.5024  1.3299  0.4686
  155MOL0     C20818   1.142   5.466   3.697 -0.4345  0.4475  0.1464
  155MOL0     C20819   1.079   5.481   3.563 -0.7555  0.0995  0.6426
  155MOL0     O20820   0.948   5.497   3.565  0.2388  0.7322  0.9953
  155MOL0     C20821   0.872   5.499   3.444 -0.6414 -0.2309 -0.2482
  155MOL0     C20822   0.919   5.505   3.304 -0.4581 -0.0955  0.1910
  155MOL0     C20823   0.820   5.491   3.201  0.3386 -0.2001 -0.5440
  155MOL0     C20824   0.677   5.489   3.227  0.1976  0.3505 -0.0866
  155MOL0     O20825   0.576   5.479   3.136  0.6151  0.9398  0.2042
  155MOL0     C20826   0.608   5.528   3.004  0.0042  0.7553  1.3944
  155MOL0     C20827   0.488   5.571   2.917 -0.5148  0.1332 -0.0600
  155MOL0     C20828   0.518   5.568   2.769 -0.0600  0.1459  0.6037
  155MOL0     C20829   0.560   5.710   2.729 -0.0496  0.2403 -0.0291
  155MOL0     C20830   0.588   5.732   2.579 -1.1055  0.0438  0.7670
  155MOL0     C20831   0.700   5.626   2.521  1.2994 -0.2372  0.8137
  155MOL0     C20832   0.694   5.670   2.365 -0.8248  0.4393  0.0339
  155MOL0     C20833   0.789   5.579   2.288 -0.9280  0.3789  0.2489
  155MOL0    Cl20834   0.961   5.644   2.312 -0.1710  0.1398  0.1378
  155MOL0     C20835   0.641   5.481   3.364 -0.1936 -0.5045  0.7268
  155MOL0     C20836   0.737   5.484   3.466 -0.9541  0.0143 -0.0455
  155MOL0     O20837   1.153   5.480   3.463  0.2899 -0.1582 -0.9800
  155MOL0     C20838   1.278   5.429   3.707  0.1208  0.1036 -0.2569
  155MOL0     C20839   1.326   5.386   3.832  0.3653 -0.3204  0.2822
  155MOL0     N20840   1.654   5.710   4.434 -0.2983  0.0918  0.0002
  155MOL0     N20841   1.754   5.771   4.386  0.2231 -0.5411  0.9264
  155MOL0     C20842   2.564   5.461   4.455  0.1759 -0.3310  0.3566
  155MOL0     C20843   2.625   5.383   4.555 -0.4760 -0.2245  0.3510
  155MOL0     C20844   2.643   4.953   4.791 -0.5474  0.8479 -0.5386
  155MOL0     C20845   2.718   5.009   4.899 -0.1416 -0.6778  0.8847
  155MOL0     C20846   2.753   4.939   5.016 -0.2773 -0.4560  0.4236
  155MOL0     C20847   2.708   4.812   5.035 -0.4850 -0.3874 -0.2590
  155MOL0     O20848   2.735   4.725   5.139 -0.3371 -0.1672  0.2613
  155MOL0     C20849   2.832   4.747   5.239 -0.2727 -0.3630 -0.9137
  155MOL0     C20850   2.759   4.779   5.369  0.4454  1.2087  0.3952
  155MOL0     C20851   2.836   4.797   5.498  0.4607 -0.3985  0.3508
  155MOL0     C20852   2.893   4.663   5.549  0.5641 -0.4948  0.5230
  155MOL0     C20853   2.783   4.575   5.593  0.2929  1.1013 -0.2913
  155MOL0     C20854   2.707   4.486   5.625 -0.3223 -0.6053  0.7213
  155MOL0     C20855   2.627   4.754   4.939 -0.6400  0.7694  0.7765
  155MOL0     C20856   2.599   4.817   4.815  0.5679  0.1648  0.1805
  155MOL0     C20857   2.521   4.728   4.723 -0.1870 -0.1302  0.1673
  155MOL0     H20858   2.408   5.120   4.562  1.0469 -0.7692 -1.3760
  155MOL0     H20859   2.292   5.266   4.401 -0.2294  0.3525 -0.7503
  155MOL0     H20860   2.302   5.357   4.210 -4.7980 -3.5195  2.1577
  155MOL0     H20861   2.196   5.467   4.305  0.9772 -0.3895 -0.8156
  155MOL0     H20862   2.137   5.482   4.077 -0.4733 -0.1017  1.5817
  155MOL0     H20863   2.316   5.505   4.039  1.5005 -1.3805  1.8806
  155MOL0     H20864   2.318   5.715   4.129 -0.4344  0.9997 -2.1749
  155MOL0     H20865   2.162   5.712   4.210  0.4403  1.5931  0.1715
  155MOL0     H20866   2.213   5.726   3.914  0.4385 -0.5413 -0.2136
  155MOL0     H20867   2.057   5.692   3.977 -0.4561  1.1530  1.1315
  155MOL0     H20868   2.188   5.937   4.099  0.6943 -0.4308 -0.7047
  155MOL0     H20869   2.174   5.945   3.921  0.7159 -0.0773  0.5100
  155MOL0     H20870   1.985   6.053   4.053  2.9905  1.0150 -2.8276
  155MOL0     H20871   1.918   5.920   3.943 -1.1387 -0.1511  0.4671
  155MOL0     H20872   1.996   5.875   4.234  0.7975 -1.6322 -0.0886
  155MOL0     H20873   1.899   5.763   4.132 -0.7593 -0.1199 -0.3644
  155MOL0     H20874   1.850   6.031   4.259  6.2469  1.2031 -4.4997
  155MOL0     H20875   1.754   5.996   4.120 -1.1866 -1.0017  1.2434
  155MOL0     H20876   1.508   5.879   4.198  1.6270 -1.1625 -1.2597
  155MOL0     H20877   1.365   5.702   4.475 -1.2864  2.8239 -1.3122
  155MOL0     H20878   1.341   5.768   4.318  0.1959  2.2492  1.0691
  155MOL0     H20879   1.412   5.481   4.385  0.2289 -2.3890 -2.5183
  155MOL0     H20880   1.278   5.552   4.284  0.6606  0.1386 -1.5087
  155MOL0     H20881   1.564   5.542   4.200  0.9289 -2.4742  0.8602
  155MOL0     H20882   1.439   5.611   4.107 -1.9751 -0.3557 -0.4288
  155MOL0     H20883   1.444   5.308   4.178  0.9114 -2.3834 -4.1300
  155MOL0     H20884   1.482   5.387   4.023 -1.1338 -3.2764 -0.2934
  155MOL0     H20885   1.054   5.472   4.026 -1.3574  0.6462 -1.1579
  155MOL0     H20886   0.960   5.517   3.799  0.7096  1.7441 -1.0215
  155MOL0     H20887   1.024   5.483   3.286 -0.0405  0.3258  1.9654
  155MOL0     H20888   0.853   5.480   3.098 -0.6292 -1.0333 -0.7783
  155MOL0     H20889   0.674   5.616   3.004 -0.5416  1.2223 -0.7790
  155MOL0     H20890   0.656   5.437   2.967 -1.3019  0.3268  0.7179
  155MOL0     H20891   0.412   5.497   2.946 -0.0723 -0.0642  0.6219
  155MOL0     H20892   0.452   5.671   2.944  0.6495  0.7647 -0.7670
  155MOL0     H20893   0.585   5.485   2.744 -0.4000 -0.6148  2.0777
  155MOL0     H20894   0.429   5.544   2.710  0.5948 -2.2348  0.4929
  155MOL0     H20895   0.647   5.743   2.786 -1.9930  2.9941  1.5629
  155MOL0     H20896   0.475   5.776   2.745  1.4678  2.3038 -0.1504
  155MOL0     H20897   0.620   5.836   2.567 -0.5222  0.3800  4.1973
  155MOL0     H20898   0.494   5.729   2.523  1.0969  0.6007 -3.3033
  155MOL0     H20899   0.805   5.644   2.546  1.6358 -0.0390 -0.6624
  155MOL0     H20900   0.673   5.521   2.534  2.3070 -0.4239  1.5060
  155MOL0     H20901   0.720   5.775   2.345  0.8571 -0.4107 -2.9371
  155MOL0     H20902   0.590   5.666   2.332 -0.0044  0.1063 -2.8034
  155MOL0     H20903   0.794   5.474   2.318  2.1307  1.0875  2.7546
  155MOL0     H20904   0.767   5.590   2.182  0.7954 -1.0504 -0.2981
  155MOL0     H20905   0.538   5.480   3.398 -1.0991 -0.9471 -1.8501
  155MOL0     H20906   0.711   5.476   3.571  5.9419  2.6260  2.4720
  155MOL0     H20907   1.344   5.411   3.623 -0.0555 -0.5235 -0.2605
  155MOL0     H20908   1.423   5.339   3.843 -0.5371 -2.2399  0.3930
  155MOL0     H20909   2.605   5.554   4.415 -1.4940  0.3040  0.0247
  155MOL0     H20910   2.723   5.410   4.593  0.0784 -0.5837 -0.7790
  155MOL0     H20911   2.775   5.100   4.882  1.1412 -1.7167 -0.6712
  155MOL0     H20912   2.822   4.982   5.088 -0.2785  0.8584 -0.3325
  155MOL0     H20913   2.906   4.825   5.216  0.6205 -0.1489  2.2002
  155MOL0     H20914   2.888   4.654   5.250  0.1449 -0.1460 -1.1686
  155MOL0     H20915   2.676   4.708   5.381 -0.0705  1.7995  0.3980
  155MOL0     H20916   2.707   4.874   5.352  1.4878  1.2072 -3.7942
  155MOL0     H20917   2.764   4.836   5.571 -1.0507  0.0117 -1.2693
  155MOL0     H20918   2.917   4.870   5.495  1.8874 -1.7761  2.6455
  155MOL0     H20919   2.946   4.606   5.472 -0.3231 -1.3317  0.5014
  155MOL0     H20920   2.961   4.701   5.625 -1.4095  1.1456  1.5830
  155MOL0     H20921   2.651   4.400   5.655 -0.2136 -1.3723 -1.1473
  155MOL0     H20922   2.578   4.661   4.967  3.8015 -1.4786  2.1027
  155MOL0     H20923   2.451   4.671   4.786  1.6548 -0.4791  2.0084
  155MOL0     H20924   2.470   4.793   4.652  0.9938  1.5419  0.7939
  155MOL0     H20925   2.584   4.652   4.674 -0.7878 -1.7248  1.7494
  156MOL0     O20926  10.003   6.703   0.528  0.0120 -0.0240  0.8613
  156MOL0     C20927   9.996   6.621   0.620  0.5339 -0.3760  0.0026
  156MOL0     O20928  10.086   6.604   0.724  0.7890  0.6831  0.3820
  156MOL0     C20929  10.214   6.635   0.735  0.5465  0.4341  0.0797
  156MOL0     C20930  10.302   6.689   0.636 -0.9933 -0.4281 -0.4009
  156MOL0     C20931  10.434   6.712   0.663 -0.4337 -0.9173 -0.5862
  156MOL0     C20932  10.488   6.687   0.792  0.1409 -0.1317 -0.4457
  156MOL0     O20933  10.612   6.712   0.838 -0.2431  0.4446  0.1849
  156MOL0     C20934  10.663   6.832   0.793 -0.1051 -0.6859  0.5094
  156MOL0     C20935  10.748   6.904   0.904  0.4402  0.0945 -0.5421
  156MOL0     C20936  10.789   7.042   0.860 -0.2262  0.6657 -0.2985
  156MOL0     C20937  10.779   7.137   0.976  0.7096 -0.2212 -0.2756
  156MOL0     C20938  10.885   7.140   1.093 -0.3324  0.4336 -0.1150
  156MOL0     C20939  11.007   7.219   1.048 -0.0928 -0.6151  0.0829
  156MOL0     C20940  11.113   7.202   1.158  0.1422 -0.5401 -0.0580
  156MOL0     C20941  11.081   7.295   1.274  0.0998  0.5146  0.2373
  156MOL0     N20942  11.188   7.292   1.376 -0.1080  0.0341 -0.0613
  156MOL0     C20943  11.208   7.183   1.462  1.2161 -0.4458 -0.9764
  156MOL0     C20944  11.318   7.215   1.534 -0.4063  0.2793  1.2020
  156MOL0     C20945  11.387   7.114   1.629 -0.2101 -0.1044 -0.2887
  156MOL0     C20946  11.478   7.017   1.544  0.1562  0.1735 -1.2273
  156MOL0     C20947  11.566   6.921   1.621  0.8370  0.4108  0.3445
  156MOL0     C20948  11.507   6.806   1.693 -0.0894  0.5839  0.8875
  156MOL0     O20949  11.544   6.811   1.828  0.0982  0.2473 -0.6936
  156MOL0     C20950  11.615   6.712   1.896 -0.0078 -0.0637  0.2304
  156MOL0     C20951  11.624   6.578   1.850  0.4073  0.9340 -0.1060
  156MOL0     C20952  11.701   6.480   1.924  0.5204 -0.1273  0.6285
  156MOL0     C20953  11.740   6.508   2.053 -0.6972 -0.6349  0.5511
  156MOL0     C20954  11.828   6.406   2.132 -0.0001  0.6437 -0.1579
  156MOL0     O20955  11.858   6.438   2.271  0.6159 -0.1569 -0.1156
  156MOL0     C20956  11.946   6.356   2.341  0.6228  0.9596 -0.4512
  156MOL0     C20957  12.049   6.411   2.419 -0.3636 -0.9251 -0.0663
  156MOL0     C20958  12.163   6.342   2.467  0.4195 -0.6318  0.1776
  156MOL0     C20959  12.163   6.199   2.438 -0.4365 -0.6684 -0.4763
  156MOL0     O20960  12.267   6.114   2.471  0.0261 -0.1209  0.0424
  156MOL0     C20961  12.394   6.173   2.445 -0.0880 -0.8954 -0.2483
  156MOL0     C20962  12.507   6.066   2.435  0.7169 -0.0625  0.3221
  156MOL0     C20963  12.538   5.982   2.560 -0.3889 -0.6303 -0.0405
  156MOL0     C20964  12.650   5.872   2.526 -0.3697 -0.5363 -0.2652
  156MOL0     C20965  12.743   5.848   2.651 -0.0695 -1.0481  1.2006
  156MOL0     C20966  12.845   5.963   2.650  0.2454  0.0997  0.6731
  156MOL0     C20967  12.925   5.963   2.786 -0.2884 -0.7044  0.5784
  156MOL0     C20968  12.999   6.100   2.811  0.0769 -0.4078  0.2019
  156MOL0    Cl20969  12.871   6.220   2.828  0.2827  0.0584  0.5414
  156MOL0     C20970  12.051   6.140   2.386 -0.7700 -0.3021 -0.5220
  156MOL0     C20971  11.946   6.215   2.340  0.4451  0.6463 -0.5191
  156MOL0     O20972  11.855   6.304   2.072  0.8053  0.1665 -0.0027
  156MOL0     C20973  11.720   6.632   2.107  1.0873  0.0309  0.8705
  156MOL0     C20974  11.647   6.733   2.031  0.8200 -0.6098 -0.0833
  156MOL0     N20975  11.367   7.336   1.485  0.2043  0.1718  0.3302
  156MOL0     N20976  11.290   7.379   1.389  1.0037 -0.1083 -0.2937
  156MOL0     C20977  10.408   6.615   0.885 -0.0402 -0.5022  0.0414
  156MOL0     C20978  10.267   6.595   0.856 -0.6776  0.2725  0.3872
  156MOL0     C20979   9.880   6.533   0.604 -0.1151  0.3362  0.0329
  156MOL0     C20980   9.759   6.580   0.564  0.4388 -0.2772  0.2658
  156MOL0     C20981   9.642   6.508   0.551  1.3126  0.4885 -0.4379
  156MOL0     C20982   9.640   6.375   0.570  0.7440 -0.6692 -1.4988
  156MOL0     O20983   9.528   6.293   0.578  0.1708 -0.8251 -0.4611
  156MOL0     C20984   9.394   6.342   0.560 -0.1647 -0.0478  0.1937
  156MOL0     C20985   9.290   6.231   0.573 -0.0688 -0.8318  0.3050
  156MOL0     C20986   9.150   6.279   0.530  0.0929 -0.5978  0.1140
  156MOL0     C20987   9.041   6.179   0.547  0.9141  0.5419  0.7768
  156MOL0     C20988   8.910   6.234   0.495 -0.5429 -0.3188 -0.3298
  156MOL0     C20989   8.803   6.273   0.459 -0.0178 -0.2369 -0.9518
  156MOL0     C20990   9.755   6.327   0.625 -0.4238  0.0688 -0.6419
  156MOL0     C20991   9.878   6.392   0.637  0.0999 -0.8995 -0.4368
  156MOL0     C20992  10.003   6.316   0.676 -0.0978  0.2852 -0.0906
  156MOL0     H20993  10.272   6.715   0.535 -2.9090  0.8857  0.4514
  156MOL0     H20994  10.503   6.752   0.589 -0.7307 -1.2403 -1.0429
  156MOL0     H20995  10.722   6.819   0.702 -0.0929 -3.0925  0.7893
  156MOL0     H20996  10.592   6.913   0.777  2.1595  1.0037 -1.7765
  156MOL0     H20997  10.831   6.840   0.936 -0.5364 -0.4620  1.0006
  156MOL0     H20998  10.690   6.913   0.996  3.5956  3.2957  1.4151
  156MOL0     H20999  10.718   7.075   0.785 -2.4313 -0.6698  1.0814
  156MOL0     H21000  10.892   7.039   0.824  0.7453 -3.7951  2.0172
  156MOL0     H21001  10.788   7.235   0.928  1.8713 -0.1642  0.0148
  156MOL0     H21002  10.682   7.108   1.016  0.8797 -2.3671 -1.2990
  156MOL0     H21003  10.839   7.184   1.182 -3.0200 -0.8603 -0.7877
  156MOL0     H21004  10.923   7.042   1.121 -1.1084  0.5746  1.5056
  156MOL0     H21005  11.045   7.167   0.960 -1.7178 -1.7178 -0.0138
  156MOL0     H21006  10.994   7.325   1.022  0.3016 -0.7985 -0.9161
  156MOL0     H21007  11.201   7.246   1.109 -1.9674  2.8739 -1.1777
  156MOL0     H21008  11.127   7.096   1.181 -1.7197 -0.8201 -0.1096
  156MOL0     H21009  11.084   7.397   1.234 -1.1200 -0.0267 -1.3345
  156MOL0     H21010  10.984   7.277   1.321  0.4069 -2.7334 -0.1608
  156MOL0     H21011  11.154   7.091   1.481 -0.6245  1.1404  2.2189
  156MOL0     H21012  11.451   7.165   1.703 -1.6472  0.0448  0.8957
  156MOL0     H21013  11.315   7.054   1.684 -0.2147 -2.8706 -3.0728
  156MOL0     H21014  11.402   6.969   1.481 -2.3995  2.0578  0.2045
  156MOL0     H21015  11.539   7.078   1.476 -0.7329  2.4277 -0.1326
  156MOL0     H21016  11.611   6.983   1.700  0.9079  0.5182  0.2209
  156MOL0     H21017  11.638   6.890   1.544  0.1256  0.3668 -0.3182
  156MOL0     H21018  11.547   6.721   1.638 -2.4222  0.1076 -0.2228
  156MOL0     H21019  11.398   6.797   1.683  0.1629 -1.0074 -0.8336
  156MOL0     H21020  11.605   6.551   1.747  3.5893 -0.7072 -0.3666
  156MOL0     H21021  11.730   6.379   1.895 -1.6297 -1.0965  1.6461
  156MOL0     H21022  12.054   6.517   2.442  0.4722 -1.1012  0.6305
  156MOL0     H21023  12.234   6.404   2.521 -0.1546  0.4270 -0.2692
  156MOL0     H21024  12.401   6.239   2.359  3.3733 -1.2665 -0.4036
  156MOL0     H21025  12.423   6.225   2.537 -0.1387  0.4811 -1.0014
  156MOL0     H21026  12.481   6.004   2.349  1.7242 -2.1313  1.4262
  156MOL0     H21027  12.599   6.120   2.409 -0.0379  0.8726 -0.4797
  156MOL0     H21028  12.580   6.057   2.627  3.3561  1.4621 -4.1381
  156MOL0     H21029  12.445   5.936   2.595 -2.0347 -0.2040 -3.3562
  156MOL0     H21030  12.706   5.919   2.445  2.1513  0.2079  1.7742
  156MOL0     H21031  12.600   5.777   2.503 -1.0200 -0.0488 -0.9067
  156MOL0     H21032  12.786   5.747   2.644 -1.1597 -1.5178  0.9877
  156MOL0     H21033  12.694   5.852   2.749  2.7800  1.8648  2.7341
  156MOL0     H21034  12.920   5.937   2.574 -0.9341  1.1551 -0.9243
  156MOL0     H21035  12.801   6.058   2.619  0.3586  0.1664  0.7120
  156MOL0     H21036  12.989   5.875   2.777 -1.8012 -1.6687 -1.5196
  156MOL0     H21037  12.869   5.940   2.878 -0.5853 -0.0648  0.5657
  156MOL0     H21038  13.058   6.093   2.902 -0.5910  0.8888  0.7616
  156MOL0     H21039  13.064   6.136   2.731  1.4638  0.3399  1.6191
  156MOL0     H21040  12.045   6.031   2.384 -1.1031 -0.4384  2.5198
  156MOL0     H21041  11.866   6.156   2.296  1.7905  0.9066 -3.5688
  156MOL0     H21042  11.753   6.664   2.205 -0.9726 -0.0300  1.6378
  156MOL0     H21043  11.630   6.831   2.073 -0.5893 -1.1627  0.6910
  156MOL0     H21044  10.450   6.590   0.982  0.0963  2.3574  0.8021
  156MOL0     H21045  10.209   6.547   0.934  0.7866 -0.5755  0.9836
  156MOL0     H21046   9.747   6.684   0.539 -1.4600 -0.4186  0.4116
  156MOL0     H21047   9.550   6.558   0.523 -0.5671 -3.0612 -1.2101
  156MOL0     H21048   9.383   6.393   0.463  0.6673 -2.1920 -1.1108
  156MOL0     H21049   9.373   6.406   0.646 -1.7745 -2.9267  2.1203
  156MOL0     H21050   9.307   6.184   0.671  2.7440 -1.8737 -0.5650
  156MOL0     H21051   9.305   6.157   0.494  2.0231  0.0417 -0.1821
  156MOL0     H21052   9.148   6.315   0.427  1.4820 -0.2441  0.1869
  156MOL0     H21053   9.127   6.353   0.607 -0.5521 -2.3520  1.7134
  156MOL0     H21054   9.072   6.086   0.500 -0.8602  0.1323  0.3299
  156MOL0     H21055   9.035   6.156   0.654  0.1792 -0.9840  0.4249
  156MOL0     H21056   8.709   6.287   0.410  0.1063  0.3683 -1.0280
  156MOL0     H21057   9.751   6.226   0.663 -2.1679 -0.9023 -3.1264
  156MOL0     H21058   9.998   6.214   0.635  0.3603 -0.1677  0.9496
  156MOL0     H21059  10.091   6.356   0.624 -0.9167 -1.9057 -3.5193
  156MOL0     H21060  10.026   6.332   0.781  1.8942  0.9696 -0.5916
  157MOL0     O21061   5.585   9.157   6.396  0.3193  0.4295 -0.7378
  157MOL0     C21062   5.587   9.218   6.507  0.3459  0.1423  0.6795
  157MOL0     O21063   5.477   9.292   6.555  0.0181  0.1738  0.3956
  157MOL0     C21064   5.361   9.305   6.481  1.0489  1.4886  0.0836
  157MOL0     C21065   5.300   9.429   6.491 -0.4743 -0.0808  0.6645
  157MOL0     C21066   5.183   9.452   6.426  0.3970  0.6008 -0.2672
  157MOL0     C21067   5.152   9.372   6.322  0.5970  0.5018 -0.1171
  157MOL0     O21068   5.055   9.399   6.238 -0.4954 -0.1464 -1.0667
  157MOL0     C21069   4.950   9.485   6.274 -0.8922 -0.2278  0.3894
  157MOL0     C21070   4.847   9.513   6.157 -0.4052  0.1305  0.1281
  157MOL0     C21071   4.779   9.379   6.130  0.0587 -1.0736  0.1901
  157MOL0     C21072   4.651   9.403   6.052  0.0362 -0.4181  0.1720
  157MOL0     C21073   4.569   9.279   6.024 -0.7395 -0.1977 -0.9643
  157MOL0     C21074   4.507   9.213   6.153  0.2822 -0.4387 -0.5772
  157MOL0     C21075   4.415   9.313   6.232 -0.2642  0.0731  0.8462
  157MOL0     C21076   4.393   9.286   6.374 -0.1041  0.1811 -0.9786
  157MOL0     N21077   4.331   9.410   6.430 -0.4849  0.3275 -0.2009
  157MOL0     C21078   4.410   9.506   6.504 -0.4780  1.0218  0.3806
  157MOL0     C21079   4.326   9.596   6.550  0.1333  0.3453 -0.3235
  157MOL0     C21080   4.361   9.726   6.624  0.1840 -0.2071 -0.2725
  157MOL0     C21081   4.278   9.847   6.554  0.2352 -0.5108  0.3133
  157MOL0     C21082   4.326   9.980   6.610 -1.0193  0.3952  0.3022
  157MOL0     C21083   4.442  10.023   6.513  0.3637 -0.1161 -0.7360
  157MOL0     O21084   4.509  10.137   6.575  0.9015 -0.6013 -0.7149
  157MOL0     C21085   4.590  10.219   6.496  1.2443 -0.4835 -0.9362
  157MOL0     C21086   4.619  10.189   6.364  0.5293  0.2922  0.2848
  157MOL0     C21087   4.702  10.277   6.290 -0.5733 -0.0978 -0.7209
  157MOL0     C21088   4.756  10.386   6.352 -0.2199  0.5578 -0.2058
  157MOL0     C21089   4.853  10.475   6.282 -0.3343 -0.2017  0.7038
  157MOL0     O21090   4.916  10.566   6.353  0.6954 -0.1446  0.3098
  157MOL0     C21091   4.969  10.676   6.294 -0.4253 -0.5565 -0.4580
  157MOL0     C21092   4.953  10.727   6.165  0.2597  0.3913 -0.6529
  157MOL0     C21093   5.032  10.826   6.119 -1.1136 -0.9095  0.6748
  157MOL0     C21094   5.137  10.889   6.201 -0.9212 -0.7674 -0.6184
  157MOL0     O21095   5.208  11.002   6.164 -0.0053 -0.1776  0.2356
  157MOL0     C21096   5.223  11.048   6.031  0.1768  0.0944 -0.2718
  157MOL0     C21097   5.376  11.068   6.006 -0.7616 -0.1309 -0.6554
  157MOL0     C21098   5.448  11.157   6.112  1.0215 -0.0835 -0.6062
  157MOL0     C21099   5.601  11.183   6.086 -0.0146 -0.4251 -0.0998
  157MOL0     C21100   5.668  11.285   6.180  0.1142  0.2151  0.1490
  157MOL0     C21101   5.816  11.301   6.146 -0.3335  0.3384 -0.6789
  157MOL0     C21102   5.869  11.431   6.203 -0.6167  0.2236 -0.6154
  157MOL0     C21103   6.004  11.446   6.128 -0.9423 -0.1527 -1.3346
  157MOL0    Cl21104   6.137  11.356   6.205  0.1655  0.2503 -0.0869
  157MOL0     C21105   5.149  10.841   6.331  0.4849 -0.5445 -0.6649
  157MOL0     C21106   5.075  10.729   6.376 -0.2853  0.1672  0.1877
  157MOL0     O21107   4.851  10.459   6.160  0.4802 -0.0087  0.9964
  157MOL0     C21108   4.720  10.424   6.485  0.2097 -0.1778  0.8798
  157MOL0     C21109   4.636  10.342   6.559 -0.3214 -0.4362 -0.0482
  157MOL0     N21110   4.204   9.553   6.507 -0.1560 -0.0764  0.5470
  157MOL0     N21111   4.206   9.433   6.450 -0.3215  0.1231 -0.1416
  157MOL0     C21112   5.211   9.249   6.298 -0.7627  1.2300 -0.0862
  157MOL0     C21113   5.314   9.212   6.385 -0.8188 -0.5314 -1.0076
  157MOL0     C21114   5.705   9.210   6.593 -0.3177  0.3663 -0.7802
  157MOL0     C21115   5.690   9.193   6.732  0.3435  0.0594  0.2090
  157MOL0     C21116   5.796   9.204   6.820 -0.3590  0.0449  0.2284
  157MOL0     C21117   5.921   9.234   6.770  0.0936 -0.2303 -0.8436
  157MOL0     O21118   6.038   9.243   6.841 -0.2985  0.6383 -0.3180
  157MOL0     C21119   6.120   9.361   6.839 -0.6590  0.0444 -0.5126
  157MOL0     C21120   6.263   9.309   6.878 -0.0448 -0.0419  0.7667
  157MOL0     C21121   6.369   9.420   6.861  0.3040  0.0408  0.0745
  157MOL0     C21122   6.357   9.539   6.956  0.1454  0.4760  0.4127
  157MOL0     C21123   6.397   9.496   7.091 -0.7976  0.2720 -0.8494
  157MOL0     C21124   6.425   9.463   7.203 -0.3505  0.1992 -0.3684
  157MOL0     C21125   5.931   9.248   6.630  0.0984 -0.2322 -1.2816
  157MOL0     C21126   5.832   9.230   6.541  0.1046  0.5212 -0.6381
  157MOL0     C21127   5.871   9.238   6.390  0.6614  0.3324 -0.3627
  157MOL0     H21128   5.342   9.503   6.558 -2.3944  0.3481  1.4390
  157MOL0     H21129   5.130   9.546   6.437  0.8030  0.9290 -1.0273
  157MOL0     H21130   4.892   9.451   6.359 -2.5869  0.6813 -0.3580
  157MOL0     H21131   4.984   9.586   6.300 -4.9543  1.9548 -1.8863
  157MOL0     H21132   4.890   9.548   6.063 -2.9786 -2.9003 -2.4310
  157MOL0     H21133   4.786   9.589   6.207 -0.2271 -1.2426  2.5961
  157MOL0     H21134   4.756   9.341   6.230  1.8045 -0.4725  0.8475
  157MOL0     H21135   4.843   9.306   6.081 -0.6239  0.0745 -2.6247
  157MOL0     H21136   4.598   9.486   6.099  1.6027  1.3671 -1.0486
  157MOL0     H21137   4.687   9.439   5.955  1.8774 -0.9582  0.6305
  157MOL0     H21138   4.482   9.313   5.967 -1.0615 -0.0272 -0.3802
  157MOL0     H21139   4.619   9.202   5.964  2.3687  2.2654 -1.7827
  157MOL0     H21140   4.450   9.125   6.121 -0.5906  0.4503 -1.5608
  157MOL0     H21141   4.584   9.184   6.225  2.0869 -0.7956 -2.5412
  157MOL0     H21142   4.314   9.316   6.191 -0.9684 -0.4403  2.4631
  157MOL0     H21143   4.467   9.409   6.225  2.1805 -1.2678 -1.9398
  157MOL0     H21144   4.338   9.194   6.395 -0.6349  0.4168 -1.2981
  157MOL0     H21145   4.490   9.273   6.423  0.1140  2.6030 -0.6494
  157MOL0     H21146   4.516   9.508   6.528 -0.4608  0.5122  0.3545
  157MOL0     H21147   4.324   9.720   6.726 -4.1762  2.1746 -1.4435
  157MOL0     H21148   4.469   9.741   6.621  0.1491 -0.0534 -1.4007
  157MOL0     H21149   4.295   9.846   6.446  2.1348  2.3693  0.4710
  157MOL0     H21150   4.172   9.831   6.577  0.7544 -0.8803  2.7236
  157MOL0     H21151   4.373   9.979   6.709  0.1860 -1.1723 -0.2476
  157MOL0     H21152   4.246  10.055   6.607  0.6934  2.3286 -2.5630
  157MOL0     H21153   4.405  10.047   6.413 -2.6811  1.1163  0.5661
  157MOL0     H21154   4.516   9.945   6.496 -0.7169 -1.2870 -0.2945
  157MOL0     H21155   4.593  10.094   6.320 -2.2806  0.6186  1.0200
  157MOL0     H21156   4.725  10.254   6.187  0.7452 -2.4663  0.0244
  157MOL0     H21157   4.874  10.694   6.099  0.0272  0.5437 -0.4535
  157MOL0     H21158   5.022  10.864   6.018 -0.7154  1.5363  1.4859
  157MOL0     H21159   5.176  10.977   5.963 -1.1144 -0.3949  1.0519
  157MOL0     H21160   5.166  11.141   6.023 -1.6799 -0.6695  2.4772
  157MOL0     H21161   5.432  10.975   5.995  0.0648 -0.3740  3.7465
  157MOL0     H21162   5.372  11.120   5.910  0.9776 -1.3899 -1.4672
  157MOL0     H21163   5.393  11.251   6.128  2.0776  0.1071  2.6662
  157MOL0     H21164   5.448  11.100   6.206  0.9974  0.9821  0.0608
  157MOL0     H21165   5.626  11.222   5.987  0.8512  1.0628  0.6732
  157MOL0     H21166   5.652  11.086   6.088 -1.7930 -1.5528 -3.1728
  157MOL0     H21167   5.653  11.243   6.280 -2.9851 -2.1621 -1.1519
  157MOL0     H21168   5.619  11.383   6.174  2.5651  1.5377  0.1623
  157MOL0     H21169   5.877  11.213   6.168  0.4709  0.9994 -0.1786
  157MOL0     H21170   5.815  11.320   6.038  2.0385 -0.9371 -0.9932
  157MOL0     H21171   5.884  11.418   6.310 -2.8485 -0.6407 -0.3598
  157MOL0     H21172   5.794  11.507   6.182 -0.2341  0.4270 -1.2800
  157MOL0     H21173   5.988  11.419   6.023 -2.2545  2.1370 -1.7969
  157MOL0     H21174   6.051  11.545   6.132  0.6023 -0.8960  0.2537
  157MOL0     H21175   5.214  10.884   6.406 -0.7620  0.4436 -0.1041
  157MOL0     H21176   5.102  10.703   6.478  0.0310 -0.2765 -0.0056
  157MOL0     H21177   4.743  10.521   6.529  0.1275  1.0566 -1.6497
  157MOL0     H21178   4.604  10.369   6.659 -4.1448 -0.2877 -1.1548
  157MOL0     H21179   5.167   9.188   6.220 -3.0022  3.9692 -1.1529
  157MOL0     H21180   5.358   9.113   6.378 -0.2637 -0.2405 -1.8143
  157MOL0     H21181   5.586   9.179   6.759 -0.1851 -3.0832 -2.8024
  157MOL0     H21182   5.766   9.192   6.924  0.0997 -1.0809  0.2406
  157MOL0     H21183   6.083   9.428   6.917 -2.5939 -0.0692 -1.2650
  157MOL0     H21184   6.132   9.416   6.744  1.5052  0.8020  0.1492
  157MOL0     H21185   6.294   9.229   6.810 -0.6238  2.2234 -2.3813
  157MOL0     H21186   6.272   9.268   6.979 -0.9106 -3.3652 -0.3629
  157MOL0     H21187   6.364   9.456   6.758  2.9538 -0.2853 -0.2369
  157MOL0     H21188   6.469   9.377   6.861 -1.0485 -3.5309 -2.3921
  157MOL0     H21189   6.425   9.618   6.923  0.7514 -0.7053 -1.2817
  157MOL0     H21190   6.254   9.577   6.963  0.2542  0.6418  1.2350
  157MOL0     H21191   6.434   9.436   7.306 -0.5514 -1.4118 -0.7458
  157MOL0     H21192   6.033   9.249   6.594 -0.2435 -1.6714 -2.3858
  157MOL0     H21193   5.838   9.146   6.341  5.4500 -1.2443 -1.0926
  157MOL0     H21194   5.821   9.315   6.330  0.7602  0.2643 -0.5327
  157MOL0     H21195   5.979   9.245   6.373  0.8612 -4.1188 -2.4366
  158MOL0     O21196   9.467   8.187   2.369 -0.0764  0.0832 -0.2080
  158MOL0     C21197   9.490   8.215   2.479 -0.6808  0.3992 -0.6498
  158MOL0     O21198   9.615   8.189   2.535 -0.1446  0.0928 -0.4503
  158MOL0     C21199   9.713   8.158   2.453  0.8577  0.5823 -0.7533
  158MOL0     C21200   9.802   8.260   2.414 -0.6110 -0.3166 -0.6091
  158MOL0     C21201   9.914   8.236   2.336  0.1116  1.3658 -0.2190
  158MOL0     C21202   9.948   8.102   2.305  0.5421  0.5554  0.0978
  158MOL0     O21203  10.071   8.065   2.254  0.1609 -0.5283  0.3454
  158MOL0     C21204  10.172   8.161   2.235  0.2151 -0.1455  0.1884
  158MOL0     C21205  10.305   8.086   2.241 -1.0424  0.0903 -0.5340
  158MOL0     C21206  10.334   8.022   2.107 -0.3643  0.5006  0.6647
  158MOL0     C21207  10.396   8.131   2.016  0.3883 -0.5945 -0.0847
  158MOL0     C21208  10.446   8.077   1.880 -0.5984  0.4128  0.1101
  158MOL0     C21209  10.579   8.001   1.873 -0.7379  0.8127 -0.6473
  158MOL0     C21210  10.709   8.091   1.894  0.9506 -0.4002 -0.2871
  158MOL0     C21211  10.838   8.020   1.863 -1.0089 -0.2782  0.2525
  158MOL0     N21212  10.862   7.897   1.934  0.0277 -1.1158 -0.2296
  158MOL0     C21213  10.836   7.766   1.892  0.8843 -0.2427  0.0654
  158MOL0     C21214  10.815   7.693   2.009 -0.0203 -0.3384 -0.2294
  158MOL0     C21215  10.789   7.545   2.019 -0.1265 -0.8501  0.6156
  158MOL0     C21216  10.638   7.509   2.006 -0.0653  0.7747  0.0005
  158MOL0     C21217  10.597   7.359   2.012 -0.1761  0.0606  0.8394
  158MOL0     C21218  10.664   7.285   2.126 -0.2434  0.5842 -0.5653
  158MOL0     O21219  10.597   7.163   2.148  0.0869 -0.2002 -0.6860
  158MOL0     C21220  10.654   7.041   2.183  0.6144 -0.0998  0.3894
  158MOL0     C21221  10.794   7.028   2.203 -0.3212 -0.2998  0.2184
  158MOL0     C21222  10.848   6.904   2.222  0.5280 -0.5974 -0.5007
  158MOL0     C21223  10.772   6.784   2.216  0.2269 -0.4562 -0.5976
  158MOL0     C21224  10.830   6.646   2.229 -0.4795 -0.2553  0.5385
  158MOL0     O21225  10.742   6.542   2.237 -0.2333  0.2930  0.2365
  158MOL0     C21226  10.786   6.409   2.234 -0.0977 -0.1845 -0.2432
  158MOL0     C21227  10.907   6.356   2.192  0.5731  0.3505 -0.0225
  158MOL0     C21228  10.941   6.223   2.213  0.5800 -0.0450 -0.2692
  158MOL0     C21229  10.856   6.145   2.282 -0.2074  0.0201 -0.8794
  158MOL0     O21230  10.870   6.016   2.309  0.7978  0.2769 -0.3841
  158MOL0     C21231  11.002   5.972   2.319 -0.2030 -0.8372 -0.6533
  158MOL0     C21232  11.017   5.830   2.366  0.5325  0.6965 -0.6497
  158MOL0     C21233  10.912   5.774   2.472  0.3198 -0.5763 -0.4956
  158MOL0     C21234  10.948   5.649   2.546 -0.3553 -0.5393  0.3022
  158MOL0     C21235  10.959   5.544   2.441 -0.5062 -0.6781  1.0162
  158MOL0     C21236  10.996   5.402   2.502 -0.9143  0.1440  0.8174
  158MOL0     C21237  10.999   5.303   2.397  0.3126  0.0843  0.6247
  158MOL0     C21238  11.058   5.166   2.446  0.7554 -1.1702  0.4671
  158MOL0    Cl21239  10.971   5.119   2.596  0.3221  0.0912 -0.1325
  158MOL0     C21240  10.734   6.196   2.332  0.1926  0.2799  0.2474
  158MOL0     C21241  10.696   6.324   2.298  0.1222 -0.5493  0.2692
  158MOL0     O21242  10.953   6.633   2.206  0.9363 -0.1556  0.1041
  158MOL0     C21243  10.639   6.801   2.200  0.3080  0.2745 -0.3157
  158MOL0     C21244  10.577   6.929   2.188  0.7570 -0.0067  0.7248
  158MOL0     N21245  10.837   7.778   2.117 -1.5398 -0.4819  0.0514
  158MOL0     N21246  10.878   7.901   2.077  0.1189  0.3919 -0.2566
  158MOL0     C21247   9.855   7.996   2.338 -0.1111  0.0704 -0.4382
  158MOL0     C21248   9.738   8.027   2.401  0.0499 -0.2325 -0.7235
  158MOL0     C21249   9.384   8.279   2.566 -0.1097 -0.4574  0.5222
  158MOL0     C21250   9.249   8.267   2.523  0.1806  0.0707  0.3407
  158MOL0     C21251   9.145   8.306   2.607  0.0190 -1.0629  0.4120
  158MOL0     C21252   9.166   8.350   2.738 -0.1454 -1.1998 -0.7129
  158MOL0     O21253   9.062   8.360   2.826  0.1501  0.0155  0.2874
  158MOL0     C21254   9.094   8.380   2.959 -0.5756  0.0854 -0.2809
  158MOL0     C21255   8.975   8.373   3.052  0.2723 -0.6107  0.3036
  158MOL0     C21256   8.922   8.229   3.054  1.0188  0.2477  0.0781
  158MOL0     C21257   8.802   8.200   3.149 -0.6634  0.8077 -0.0630
  158MOL0     C21258   8.682   8.160   3.080  0.5709 -0.5248  0.7166
  158MOL0     C21259   8.568   8.123   3.043 -0.7480  0.2479 -0.7959
  158MOL0     C21260   9.303   8.362   2.774 -0.3234  0.4323 -0.0783
  158MOL0     C21261   9.415   8.325   2.701 -0.2672  0.0497  0.7683
  158MOL0     C21262   9.552   8.360   2.746  0.9487  0.0380 -0.5613
  158MOL0     H21263   9.796   8.351   2.472  3.0369  0.0277 -0.4878
  158MOL0     H21264   9.973   8.321   2.303  1.5855  1.2049  1.7931
  158MOL0     H21265  10.172   8.208   2.136  1.2053 -1.1268 -0.3020
  158MOL0     H21266  10.185   8.245   2.303  1.6631  0.7233 -1.0886
  158MOL0     H21267  10.287   8.006   2.313 -0.7594  1.4364  1.1042
  158MOL0     H21268  10.379   8.155   2.282 -1.4789  0.5341 -0.4750
  158MOL0     H21269  10.247   7.982   2.054  0.2223 -0.0777  0.1191
  158MOL0     H21270  10.405   7.939   2.119 -3.4642 -2.1087  2.4867
  158MOL0     H21271  10.323   8.210   1.996 -0.2450 -0.7467  1.5239
  158MOL0     H21272  10.482   8.176   2.065 -1.3313 -0.2651  2.8814
  158MOL0     H21273  10.357   8.022   1.848 -1.8068  1.2199  1.8934
  158MOL0     H21274  10.443   8.160   1.809  0.7177 -0.8462 -1.4896
  158MOL0     H21275  10.582   7.927   1.954 -0.5267 -0.1526 -1.5109
  158MOL0     H21276  10.588   7.937   1.785  2.2286  1.6230 -1.0435
  158MOL0     H21277  10.714   8.116   2.001  0.8428 -1.3952 -0.0371
  158MOL0     H21278  10.705   8.185   1.838  3.3975  0.6863  1.1785
  158MOL0     H21279  10.850   8.008   1.755 -1.0249 -1.9740  0.4203
  158MOL0     H21280  10.921   8.087   1.888 -0.2042 -1.6756  1.4249
  158MOL0     H21281  10.831   7.735   1.788 -2.8538  0.1081 -0.0041
  158MOL0     H21282  10.850   7.487   1.948  0.4772  0.1029  0.3435
  158MOL0     H21283  10.817   7.514   2.120  1.8432 -0.2733  0.2973
  158MOL0     H21284  10.582   7.569   2.078  0.4638  2.4328 -0.9006
  158MOL0     H21285  10.612   7.545   1.905 -0.1728 -0.7141 -0.5235
  158MOL0     H21286  10.623   7.321   1.912 -1.3121  0.5854  0.3265
  158MOL0     H21287  10.488   7.364   2.020 -0.3765 -1.3991 -0.3606
  158MOL0     H21288  10.665   7.342   2.220 -1.3099 -0.9534  0.4345
  158MOL0     H21289  10.767   7.274   2.092 -0.5771 -0.7427 -1.2002
  158MOL0     H21290  10.855   7.117   2.194 -0.0013 -0.4495  0.8824
  158MOL0     H21291  10.955   6.895   2.238  0.2976 -0.9271  1.0282
  158MOL0     H21292  10.984   6.407   2.135 -1.5180  2.0189 -1.4987
  158MOL0     H21293  11.038   6.183   2.185 -0.7620 -4.6058  0.7709
  158MOL0     H21294  11.043   5.980   2.218  3.1824 -0.2845  0.6051
  158MOL0     H21295  11.062   6.043   2.378 -1.3144  1.5159 -2.1911
  158MOL0     H21296  10.997   5.774   2.275  0.4191  1.0817 -0.8622
  158MOL0     H21297  11.120   5.803   2.394 -0.0204 -1.6811 -0.6787
  158MOL0     H21298  10.914   5.853   2.548 -0.2113 -1.1345  0.1175
  158MOL0     H21299  10.815   5.762   2.422  1.2759 -0.0405 -2.5919
  158MOL0     H21300  10.885   5.638   2.635  1.2274 -1.9386  1.3200
  158MOL0     H21301  11.049   5.666   2.584 -0.4741  2.2928 -0.4238
  158MOL0     H21302  11.043   5.570   2.376 -0.1113 -0.0432  1.7704
  158MOL0     H21303  10.866   5.537   2.384 -0.3053 -3.8490  0.8913
  158MOL0     H21304  11.099   5.416   2.535 -0.4602  1.9680 -1.0943
  158MOL0     H21305  10.933   5.375   2.588 -1.0797 -0.6501  0.4586
  158MOL0     H21306  11.061   5.344   2.317  2.0169  2.8956  3.1570
  158MOL0     H21307  10.903   5.274   2.353  0.2900  2.1127 -0.7853
  158MOL0     H21308  11.053   5.086   2.371  1.3813 -1.1287  0.3770
  158MOL0     H21309  11.162   5.185   2.475  0.7072  0.2117 -0.2142
  158MOL0     H21310  10.662   6.138   2.388 -1.0474  2.0488  0.5568
  158MOL0     H21311  10.598   6.361   2.328 -0.5302  0.0864 -2.4413
  158MOL0     H21312  10.576   6.713   2.192  0.6619  0.1459 -2.0875
  158MOL0     H21313  10.470   6.933   2.168  0.3347  3.1047  2.9306
  158MOL0     H21314   9.864   7.891   2.312  0.8029 -0.3321  1.3285
  158MOL0     H21315   9.660   7.956   2.427 -0.8605  0.4194 -1.6074
  158MOL0     H21316   9.222   8.223   2.428  0.4820  0.4455  0.0782
  158MOL0     H21317   9.049   8.280   2.563 -0.4070 -0.4486  0.9811
  158MOL0     H21318   9.158   8.468   2.969 -0.0412 -0.1051 -1.7945
  158MOL0     H21319   9.155   8.294   2.991  1.6882  1.0962 -1.6252
  158MOL0     H21320   8.900   8.442   3.011  2.9469  0.9239 -2.4411
  158MOL0     H21321   8.999   8.408   3.152 -0.9541  1.2634 -0.0118
  158MOL0     H21322   9.005   8.164   3.084  0.7601 -0.6138 -1.0050
  158MOL0     H21323   8.896   8.213   2.949  1.1878  0.1136  0.0551
  158MOL0     H21324   8.824   8.122   3.222  0.5855  1.9533  0.8589
  158MOL0     H21325   8.794   8.286   3.217  5.1734  0.8830  1.0722
  158MOL0     H21326   8.467   8.096   3.021 -1.3197  1.7886 -0.2000
  158MOL0     H21327   9.339   8.392   2.872  3.8925  0.9572 -1.5876
  158MOL0     H21328   9.602   8.402   2.658 -1.0316  2.2479 -0.7379
  158MOL0     H21329   9.552   8.439   2.821  0.7824 -0.0695 -0.4462
  158MOL0     H21330   9.590   8.266   2.787 -1.4732 -1.7497 -2.1106
  159MOL0     O21331   7.389   7.950   3.119 -0.5226  0.3290 -0.2940
  159MOL0     C21332   7.394   8.063   3.168 -0.1758  0.3425  0.1671
  159MOL0     O21333   7.321   8.109   3.280 -0.1802  0.0918 -0.0276
  159MOL0     C21334   7.210   8.029   3.313  0.1890 -0.2102  0.2812
  159MOL0     C21335   7.212   7.939   3.419 -0.2075 -1.2895  0.1463
  159MOL0     C21336   7.099   7.875   3.452  0.6695 -0.2053 -0.7326
  159MOL0     C21337   6.976   7.899   3.399 -0.2521  0.0233  0.7130
  159MOL0     O21338   6.858   7.834   3.422 -0.1781  0.6880  0.0715
  159MOL0     C21339   6.850   7.729   3.522 -0.2708 -0.5353  0.1712
  159MOL0     C21340   6.702   7.661   3.535 -0.6740  0.2889  0.6079
  159MOL0     C21341   6.667   7.582   3.405  0.7996  0.4522 -0.1666
  159MOL0     C21342   6.520   7.531   3.427 -0.2566  0.2456  0.9284
  159MOL0     C21343   6.473   7.425   3.334 -0.0232  0.1777  0.2961
  159MOL0     C21344   6.383   7.320   3.402  0.0033 -0.5835  0.0475
  159MOL0     C21345   6.354   7.202   3.299  0.7781  0.6792  0.0423
  159MOL0     C21346   6.207   7.182   3.262  0.0246  0.3236 -0.0610
  159MOL0     N21347   6.136   7.116   3.376  0.2869 -0.4299  0.4745
  159MOL0     C21348   6.132   6.979   3.407 -0.0196  0.1758  0.8479
  159MOL0     C21349   6.049   6.967   3.513 -0.7455 -0.1375  0.0559
  159MOL0     C21350   6.004   6.835   3.577  0.2308  0.3314 -1.4620
  159MOL0     C21351   5.882   6.794   3.511  0.0762 -0.6513 -0.1935
  159MOL0     C21352   5.813   6.690   3.596 -0.3544  0.2935 -0.4540
  159MOL0     C21353   5.734   6.739   3.727  0.3859 -0.4010  0.9611
  159MOL0     O21354   5.608   6.802   3.686 -0.0081 -0.3136  0.1440
  159MOL0     C21355   5.497   6.723   3.663  0.3214  0.1375 -0.3584
  159MOL0     C21356   5.376   6.791   3.673  0.2645 -0.2218 -0.2068
  159MOL0     C21357   5.256   6.734   3.629 -0.4635 -0.1429  0.0417
  159MOL0     C21358   5.254   6.589   3.613 -0.0536 -1.2833 -0.5500
  159MOL0     C21359   5.134   6.508   3.583 -1.8786  0.1803  0.4804
  159MOL0     O21360   5.030   6.581   3.527 -0.2416  0.0108 -0.2811
  159MOL0     C21361   4.902   6.532   3.527 -0.9814 -0.0288 -0.2588
  159MOL0     C21362   4.844   6.484   3.411 -0.5152 -0.6662  0.4135
  159MOL0     C21363   4.710   6.448   3.412 -0.7077 -0.6688 -0.2554
  159MOL0     C21364   4.632   6.471   3.517 -0.7469  0.0818  0.0564
  159MOL0     O21365   4.502   6.433   3.502 -0.4703 -0.0768 -0.3492
  159MOL0     C21366   4.409   6.487   3.591 -0.2961 -0.8238 -0.3719
  159MOL0     C21367   4.281   6.446   3.535  0.2360 -0.5516 -0.4406
  159MOL0     C21368   4.174   6.501   3.625  0.4741  0.5426  0.1525
  159MOL0     C21369   4.049   6.427   3.604  0.4722 -0.1141 -1.5040
  159MOL0     C21370   3.937   6.461   3.717 -0.4384  0.4825 -0.4160
  159MOL0     C21371   3.799   6.424   3.664  0.4559 -0.5229 -0.0837
  159MOL0     C21372   3.689   6.442   3.767 -0.6053  0.1907  0.6309
  159MOL0     C21373   3.556   6.385   3.729  0.0404 -0.1565  0.0731
  159MOL0    Cl21374   3.447   6.390   3.867 -0.0861  0.1105 -0.1969
  159MOL0     C21375   4.691   6.525   3.635  0.3602  1.0547  0.7937
  159MOL0     C21376   4.828   6.551   3.638  0.2213 -0.0982 -0.3655
  159MOL0     O21377   5.126   6.394   3.617 -0.1100 -0.4733 -0.3488
  159MOL0     C21378   5.380   6.520   3.616  0.6347 -0.2730  0.2739
  159MOL0     C21379   5.498   6.584   3.637 -1.0558 -1.6930  0.9980
  159MOL0     N21380   6.009   7.094   3.557  0.0322  0.8715 -0.2445
  159MOL0     N21381   6.058   7.174   3.468  0.1782 -0.4900  0.7387
  159MOL0     C21382   6.966   7.990   3.294  1.0326  0.4735 -0.4929
  159MOL0     C21383   7.083   8.057   3.260  0.4345  0.2290 -0.0563
  159MOL0     C21384   7.513   8.153   3.143 -0.2808 -0.5926 -0.2715
  159MOL0     C21385   7.561   8.257   3.227  0.0754 -1.2172 -0.7448
  159MOL0     C21386   7.685   8.323   3.207 -0.2218 -0.9775 -0.3859
  159MOL0     C21387   7.759   8.302   3.092  0.0879 -0.4710 -0.5148
  159MOL0     O21388   7.877   8.367   3.059 -0.1965  0.1823  0.1118
  159MOL0     C21389   7.932   8.464   3.153  0.2380  0.3704  0.6402
  159MOL0     C21390   8.078   8.501   3.137 -0.7775  0.3273 -0.1021
  159MOL0     C21391   8.158   8.384   3.198  0.2644 -0.2142  0.4675
  159MOL0     C21392   8.304   8.383   3.137  0.6465 -0.5389  1.0607
  159MOL0     C21393   8.357   8.520   3.151  1.0334  0.2895 -1.1070
  159MOL0     C21394   8.405   8.634   3.156 -0.4186  0.0341 -0.7929
  159MOL0     C21395   7.706   8.218   3.000 -0.2939  0.5344  1.0243
  159MOL0     C21396   7.588   8.148   3.023 -0.3484  1.2771  0.4069
  159MOL0     C21397   7.540   8.050   2.910 -0.1674 -0.1401  0.8223
  159MOL0     H21398   7.306   7.921   3.470  1.9897  2.6453 -2.0657
  159MOL0     H21399   7.114   7.816   3.542  1.2761 -0.6846 -1.1442
  159MOL0     H21400   6.917   7.647   3.494  0.1574 -0.2660  0.3948
  159MOL0     H21401   6.863   7.779   3.618 -2.8125  0.3898  0.1128
  159MOL0     H21402   6.634   7.746   3.542  1.3490  1.8523  2.1913
  159MOL0     H21403   6.689   7.615   3.633  0.2995 -0.9524  0.1986
  159MOL0     H21404   6.730   7.492   3.406  0.6680  0.3620  1.0649
  159MOL0     H21405   6.672   7.644   3.315 -0.5259  1.3279  0.3382
  159MOL0     H21406   6.519   7.498   3.531  0.2266 -0.4122  0.7295
  159MOL0     H21407   6.454   7.618   3.421 -0.6212 -0.0631  0.3237
  159MOL0     H21408   6.411   7.474   3.258 -1.5757 -1.7279  0.2530
  159MOL0     H21409   6.554   7.376   3.279  1.0700  0.1310  1.8784
  159MOL0     H21410   6.435   7.273   3.486 -0.3854 -0.9232  0.1023
  159MOL0     H21411   6.284   7.364   3.419 -0.3928  0.5091 -3.8906
  159MOL0     H21412   6.382   7.117   3.362 -1.1910  1.6979  2.4738
  159MOL0     H21413   6.409   7.203   3.205 -2.3851 -1.8482 -2.0560
  159MOL0     H21414   6.161   7.275   3.227 -0.0967 -0.5006 -2.2193
  159MOL0     H21415   6.216   7.108   3.182  1.7955 -1.1087  1.3656
  159MOL0     H21416   6.185   6.890   3.376  0.4547  0.3084  1.2613
  159MOL0     H21417   6.079   6.755   3.579  0.3160  0.4052 -1.7661
  159MOL0     H21418   5.981   6.849   3.683 -0.1027 -2.0749 -1.1440
  159MOL0     H21419   5.810   6.875   3.498 -0.5272 -1.1262  0.1634
  159MOL0     H21420   5.905   6.755   3.411  1.2272 -0.8184  0.1191
  159MOL0     H21421   5.889   6.623   3.636 -1.1636 -0.4337 -0.0997
  159MOL0     H21422   5.755   6.628   3.527  2.3359 -1.7765 -1.0215
  159MOL0     H21423   5.796   6.801   3.792  3.5135 -3.1787  0.8560
  159MOL0     H21424   5.705   6.652   3.787  0.7608 -1.3109 -0.1416
  159MOL0     H21425   5.368   6.892   3.710  2.7965 -0.6812  1.8700
  159MOL0     H21426   5.163   6.790   3.625  0.0912  0.7201 -2.3688
  159MOL0     H21427   4.912   6.487   3.327 -2.3683  2.9692 -1.1613
  159MOL0     H21428   4.673   6.401   3.321  2.6617 -2.1938 -0.9886
  159MOL0     H21429   4.408   6.437   3.688  1.1673 -0.4696 -0.1528
  159MOL0     H21430   4.411   6.596   3.599 -0.3825 -0.9036  0.8698
  159MOL0     H21431   4.268   6.487   3.434 -2.3031 -0.7067 -0.2361
  159MOL0     H21432   4.285   6.337   3.530  0.2996 -0.5314 -0.9246
  159MOL0     H21433   4.209   6.479   3.726 -0.4832  3.4954  1.2388
  159MOL0     H21434   4.167   6.610   3.631  1.9812  0.6645  0.1217
  159MOL0     H21435   4.062   6.319   3.608 -3.0174 -0.6371  0.2978
  159MOL0     H21436   4.006   6.453   3.507 -1.1908  0.3983 -0.6838
  159MOL0     H21437   3.947   6.567   3.742  1.6095  0.0617  0.7114
  159MOL0     H21438   3.962   6.405   3.807  2.6531 -0.2681 -1.6313
  159MOL0     H21439   3.774   6.498   3.588 -3.2017 -1.1682  0.2993
  159MOL0     H21440   3.783   6.322   3.627 -0.3590 -0.8692  1.1615
  159MOL0     H21441   3.687   6.550   3.782  1.7465  0.6397 -1.6083
  159MOL0     H21442   3.706   6.385   3.859 -0.9687  2.0565  1.9079
  159MOL0     H21443   3.513   6.438   3.644 -1.8116 -1.4308  0.1480
  159MOL0     H21444   3.563   6.280   3.699  2.0119 -0.1597  0.4167
  159MOL0     H21445   4.626   6.548   3.719 -1.0535 -0.8210  0.2773
  159MOL0     H21446   4.870   6.595   3.728  2.0871 -0.6939 -0.8990
  159MOL0     H21447   5.382   6.412   3.609  1.3081 -0.2376 -0.1304
  159MOL0     H21448   5.592   6.532   3.622  0.2886  0.3768  1.7893
  159MOL0     H21449   6.870   8.017   3.254 -0.9628  0.1982  3.5696
  159MOL0     H21450   7.075   8.129   3.180  2.5324 -1.6129 -2.0601
  159MOL0     H21451   7.511   8.259   3.324  2.6920 -1.1307  0.6940
  159MOL0     H21452   7.708   8.400   3.280 -1.5823  1.1387 -2.0404
  159MOL0     H21453   7.916   8.433   3.257 -0.0585 -0.1597  0.4447
  159MOL0     H21454   7.866   8.550   3.140 -2.6335 -1.5345  1.5257
  159MOL0     H21455   8.110   8.594   3.184 -0.2778 -0.0730  0.3619
  159MOL0     H21456   8.105   8.517   3.032  2.3140  1.5682  0.7760
  159MOL0     H21457   8.113   8.286   3.181 -2.5194  1.2102 -1.0546
  159MOL0     H21458   8.163   8.397   3.307  1.3902  0.5909  0.3354
  159MOL0     H21459   8.362   8.314   3.198  2.2758 -0.3012 -0.1729
  159MOL0     H21460   8.309   8.350   3.033 -0.4557 -1.1707  1.1897
  159MOL0     H21461   8.445   8.733   3.164  0.5937 -0.1498 -2.8670
  159MOL0     H21462   7.758   8.214   2.904 -0.3973 -2.5129  1.0086
  159MOL0     H21463   7.438   8.072   2.880  0.5871  2.0895 -0.3482
  159MOL0     H21464   7.606   8.065   2.823 -3.8736  1.2016 -2.0226
  159MOL0     H21465   7.538   7.947   2.946 -0.1261 -0.3209  0.3231
  160MOL0     O21466   1.665   1.221  11.192 -0.5788 -0.4307  0.5340
  160MOL0     C21467   1.701   1.336  11.177  0.0470 -0.2935 -0.1455
  160MOL0     O21468   1.667   1.415  11.063 -0.0280 -0.5454 -0.9140
  160MOL0     C21469   1.603   1.361  10.953  0.1369 -0.5539 -0.5030
  160MOL0     C21470   1.481   1.301  10.954 -0.1237 -0.3485 -0.6762
  160MOL0     C21471   1.412   1.277  10.832 -0.7078 -0.1134 -0.3604
  160MOL0     C21472   1.470   1.307  10.712  0.5026 -0.7858  0.5168
  160MOL0     O21473   1.403   1.253  10.604  0.1187 -0.0775 -0.1796
  160MOL0     C21474   1.422   1.321  10.472 -0.2922  0.4939  0.3630
  160MOL0     C21475   1.338   1.446  10.447 -0.4075 -0.2663 -0.0554
  160MOL0     C21476   1.187   1.414  10.429 -0.0042  0.1693 -0.2232
  160MOL0     C21477   1.163   1.381  10.279  0.4305  0.8367 -0.8416
  160MOL0     C21478   1.036   1.291  10.262 -0.5072 -0.3859 -0.0265
  160MOL0     C21479   0.908   1.350  10.326  0.1836  0.0961 -0.1228
  160MOL0     C21480   0.790   1.317  10.257  0.2161  0.1601  0.2036
  160MOL0     C21481   0.759   1.164  10.275 -1.2520 -0.0959 -0.1369
  160MOL0     N21482   0.644   1.130  10.203  0.2255 -0.3430  0.1115
  160MOL0     C21483   0.519   1.105  10.252  0.0172 -0.2144  0.4492
  160MOL0     C21484   0.438   1.090  10.140  1.3580 -0.3749  1.4424
  160MOL0     C21485   0.292   1.039  10.133  0.3658  0.5375 -1.0015
  160MOL0     C21486   0.287   0.886  10.181 -0.3386  0.5537  0.2666
  160MOL0     C21487   0.143   0.849  10.224 -0.2696 -0.7118  0.0834
  160MOL0     C21488   0.144   0.705  10.259  0.6018 -0.0175  0.2642
  160MOL0     O21489   0.127   0.608  10.144 -0.1014 -0.3529  0.2145
  160MOL0     C21490   0.155   0.476  10.175 -0.9555  0.6160  0.3698
  160MOL0     C21491   0.191   0.438  10.305  0.0007 -0.2053  0.1091
  160MOL0     C21492   0.212   0.307  10.342  0.0533 -0.2684  0.5320
  160MOL0     C21493   0.228   0.204  10.249 -0.0760  1.1657  0.7206
  160MOL0     C21494   0.266   0.060  10.274  1.4129 -0.3925  0.6076
  160MOL0     O21495   0.290   0.030  10.398 -0.6917  0.8141  0.6818
  160MOL0     C21496   0.344  -0.088  10.428  0.5302  0.9947 -0.5907
  160MOL0     C21497   0.446  -0.155  10.366 -0.5038 -1.2105 -0.8072
  160MOL0     C21498   0.504  -0.276  10.410 -0.2217 -0.6102  0.2802
  160MOL0     C21499   0.455  -0.346  10.529  1.2430  0.1497 -0.2169
  160MOL0     O21500   0.523  -0.451  10.571  0.6258 -0.2333  0.5789
  160MOL0     C21501   0.483  -0.506  10.695  0.4724 -0.7004  0.2003
  160MOL0     C21502   0.543  -0.647  10.700  0.2770 -0.7377 -0.2434
  160MOL0     C21503   0.561  -0.679  10.850  0.0319 -0.3908  0.0206
  160MOL0     C21504   0.612  -0.830  10.867  0.4845  0.4247 -0.5394
  160MOL0     C21505   0.574  -0.891  11.002 -0.3161  1.0286 -0.6035
  160MOL0     C21506   0.637  -1.036  10.994  0.6411  0.4402  0.4728
  160MOL0     C21507   0.593  -1.119  11.122 -0.3522 -0.2767  0.6330
  160MOL0     C21508   0.681  -1.243  11.157  0.2901 -0.6063 -0.0533
  160MOL0    Cl21509   0.699  -1.349  11.017 -0.5065 -0.2202 -0.3266
  160MOL0     C21510   0.346  -0.279  10.592 -0.8261  0.2913  1.0354
  160MOL0     C21511   0.296  -0.153  10.533  0.0580  0.4355 -1.2898
  160MOL0     O21512   0.249  -0.015  10.180 -0.8261  0.2208 -0.8243
  160MOL0     C21513   0.186   0.235  10.106  0.4109 -0.6607 -0.8395
  160MOL0     C21514   0.149   0.369  10.073 -0.0454 -0.8654 -0.2744
  160MOL0     N21515   0.514   1.098  10.026  0.1205  0.0809 -0.0401
  160MOL0     N21516   0.639   1.115  10.071 -0.3695 -0.1067  0.9688
  160MOL0     C21517   1.580   1.385  10.708 -0.6064 -0.7164 -0.1429
  160MOL0     C21518   1.647   1.418  10.828 -0.9676  0.3159  0.2176
  160MOL0     C21519   1.785   1.400  11.288 -0.0621  1.0625  0.2611
  160MOL0     C21520   1.861   1.517  11.256  0.6147 -0.1611 -0.9073
  160MOL0     C21521   1.921   1.586  11.359 -0.4590 -0.7326 -0.3574
  160MOL0     C21522   1.934   1.539  11.490 -0.3092 -0.9431  0.1699
  160MOL0     O21523   1.995   1.593  11.604  0.1109 -0.5955 -0.3298
  160MOL0     C21524   2.031   1.733  11.595  0.8901  0.0312 -0.1808
  160MOL0     C21525   2.164   1.755  11.527  1.0177 -0.9645 -0.1590
  160MOL0     C21526   2.221   1.900  11.539 -0.6864  0.4958 -0.5630
  160MOL0     C21527   2.250   1.957  11.674 -0.3526  0.8611  0.6180
  160MOL0     C21528   2.324   1.869  11.765 -0.7509 -0.9320 -0.4096
  160MOL0     C21529   2.382   1.792  11.843  0.8694  0.3975  0.4178
  160MOL0     C21530   1.871   1.417  11.514  0.3721 -0.3324  0.0435
  160MOL0     C21531   1.800   1.347  11.420  0.1536 -0.0478 -0.0716
  160MOL0     C21532   1.710   1.228  11.473  0.2334 -0.7317  0.3362
  160MOL0     H21533   1.442   1.280  11.053 -1.6274  0.7827 -0.9856
  160MOL0     H21534   1.324   1.214  10.848 -1.2262  0.6665 -0.0801
  160MOL0     H21535   1.522   1.347  10.438  0.0591  0.2023  1.1593
  160MOL0     H21536   1.404   1.238  10.403  2.4222 -1.9106  2.3466
  160MOL0     H21537   1.378   1.504  10.364 -1.6529 -0.3170 -0.7168
  160MOL0     H21538   1.339   1.521  10.527  0.3758  1.3614 -1.5213
  160MOL0     H21539   1.133   1.507  10.447 -0.3725  0.1929 -1.3862
  160MOL0     H21540   1.150   1.331  10.490 -2.5728  1.1288 -0.3544
  160MOL0     H21541   1.166   1.476  10.225  3.2774  0.8588 -0.8060
  160MOL0     H21542   1.250   1.323  10.246 -0.3311 -0.5926 -0.4169
  160MOL0     H21543   1.015   1.277  10.156  2.0330  0.7106 -0.7447
  160MOL0     H21544   1.052   1.194  10.311 -1.3620  0.4898  2.1362
  160MOL0     H21545   0.897   1.321  10.430  2.5105 -2.0683 -0.3777
  160MOL0     H21546   0.915   1.459  10.320 -0.5431  0.4687  3.5130
  160MOL0     H21547   0.808   1.330  10.149 -0.7001  1.1372  0.1444
  160MOL0     H21548   0.708   1.381  10.291 -1.5040 -1.0703 -1.3870
  160MOL0     H21549   0.843   1.104  10.237 -2.2273 -1.7292  0.1604
  160MOL0     H21550   0.742   1.146  10.381 -0.8206 -0.3831 -0.1108
  160MOL0     H21551   0.494   1.089  10.357  2.7057 -0.5773  1.1031
  160MOL0     H21552   0.229   1.101  10.197  0.2752  0.1512 -0.7090
  160MOL0     H21553   0.235   1.038  10.040 -4.2324  0.8641  1.4980
  160MOL0     H21554   0.333   0.820  10.107 -0.8229 -0.0015  0.4499
  160MOL0     H21555   0.336   0.876  10.278  0.5292  2.3468  0.0603
  160MOL0     H21556   0.076   0.867  10.140  1.9118 -0.9298 -1.8060
  160MOL0     H21557   0.121   0.898  10.320  0.7694  1.7497 -0.8370
  160MOL0     H21558   0.058   0.692  10.324 -0.6109  3.9098 -0.2928
  160MOL0     H21559   0.241   0.689  10.307  1.9022  1.7314 -1.5706
  160MOL0     H21560   0.204   0.499  10.393  0.7095  2.5884 -1.8149
  160MOL0     H21561   0.226   0.275  10.445 -2.7891 -1.7728  0.5601
  160MOL0     H21562   0.513  -0.103  10.299  0.2175  0.3876  1.0433
  160MOL0     H21563   0.588  -0.324  10.362  2.0257 -0.7576  3.9416
  160MOL0     H21564   0.526  -0.437  10.770 -0.6508 -1.8626  1.9899
  160MOL0     H21565   0.376  -0.526  10.698  0.5026 -0.7779  1.0003
  160MOL0     H21566   0.481  -0.726  10.657 -3.5308  0.2680  2.7305
  160MOL0     H21567   0.639  -0.652  10.650  1.2816 -0.1787  1.5366
  160MOL0     H21568   0.641  -0.614  10.889  0.4997 -0.7604 -0.3069
  160MOL0     H21569   0.475  -0.667  10.916  1.4356 -0.2092  1.9157
  160MOL0     H21570   0.721  -0.829  10.858  0.4264  1.0382 -1.2130
  160MOL0     H21571   0.574  -0.895  10.788  1.7412  0.7694 -1.4453
  160MOL0     H21572   0.464  -0.890  11.003 -0.4595  0.4528  4.2365
  160MOL0     H21573   0.607  -0.842  11.094 -0.6614  0.0490  0.0517
  160MOL0     H21574   0.593  -1.075  10.903 -1.0659 -0.7173  1.7298
  160MOL0     H21575   0.747  -1.030  10.996  0.5677  2.2782  1.3526
  160MOL0     H21576   0.492  -1.150  11.094  1.3632 -2.6383 -3.8676
  160MOL0     H21577   0.599  -1.062  11.215  3.6282  0.8842 -0.1305
  160MOL0     H21578   0.772  -1.206  11.205 -0.6103 -0.2317  1.4302
  160MOL0     H21579   0.624  -1.304  11.228 -0.3145 -0.0228 -0.0282
  160MOL0     H21580   0.303  -0.312  10.687  0.5605 -0.9202  1.2821
  160MOL0     H21581   0.207  -0.104  10.573 -0.9699 -0.8441 -1.9058
  160MOL0     H21582   0.173   0.154  10.036  0.3037 -0.8159 -0.6417
  160MOL0     H21583   0.125   0.395   9.971  0.6398  0.4209 -0.1182
  160MOL0     H21584   1.623   1.426  10.617  1.2936  1.4064  1.5817
  160MOL0     H21585   1.747   1.460  10.815 -0.9998  0.2402 -0.2974
  160MOL0     H21586   1.852   1.561  11.157  2.0061  0.8966 -0.5890
  160MOL0     H21587   1.950   1.689  11.339 -0.9819 -0.8543 -1.8652
  160MOL0     H21588   2.038   1.769  11.698 -1.9383  0.8757 -0.1876
  160MOL0     H21589   1.946   1.786  11.550 -0.2055 -1.4257  0.1054
  160MOL0     H21590   2.152   1.731  11.420 -2.0321  2.0547 -0.6403
  160MOL0     H21591   2.237   1.686  11.570 -1.3087 -3.2826  0.3464
  160MOL0     H21592   2.146   1.965  11.493  0.1794  1.7081 -0.3080
  160MOL0     H21593   2.310   1.898  11.476  0.6107  1.0052  1.1925
  160MOL0     H21594   2.295   2.057  11.673 -0.0605  0.7397  1.0814
  160MOL0     H21595   2.147   1.987  11.696 -1.2605  0.3963 -2.6276
  160MOL0     H21596   2.423   1.717  11.909 -2.8797 -3.5971 -1.3261
  160MOL0     H21597   1.891   1.379  11.614 -0.0486 -0.0607  0.2347
  160MOL0     H21598   1.695   1.233  11.582  0.2002 -0.6885  0.3299
  160MOL0     H21599   1.604   1.241  11.449  1.2232  1.4685 -3.9131
  160MOL0     H21600   1.747   1.131  11.439  2.1433 -0.0140  0.2542
  161MOL0     O21601   0.206   1.113  10.463  0.4648 -0.3621 -0.2502
  161MOL0     C21602   0.287   1.088  10.548  0.0563  0.1307 -0.1181
  161MOL0     O21603   0.366   1.178  10.609  0.4964  0.5012  0.5007
  161MOL0     C21604   0.333   1.311  10.598  0.0811 -0.8665  0.3634
  161MOL0     C21605   0.413   1.395  10.516 -0.1935 -0.1726  1.0626
  161MOL0     C21606   0.382   1.530  10.511  0.0385 -0.3498 -0.8223
  161MOL0     C21607   0.267   1.575  10.583 -0.1171 -0.8687 -0.5435
  161MOL0     O21608   0.241   1.710  10.602  0.0792 -0.3680  0.4215
  161MOL0     C21609   0.203   1.763  10.729 -0.5145 -0.3269  0.0986
  161MOL0     C21610   0.265   1.904  10.741  0.8963  0.3207 -0.6605
  161MOL0     C21611   0.256   1.968  10.881 -0.1520  0.1838 -0.3152
  161MOL0     C21612   0.109   1.993  10.928 -1.0514 -0.6440 -0.8708
  161MOL0     C21613   0.096   2.100  11.036  0.7544  0.3921  0.2135
  161MOL0     C21614  -0.044   2.080  11.103 -0.1968 -0.0404  0.9394
  161MOL0     C21615  -0.061   2.176  11.223  0.0553  1.3069  0.0754
  161MOL0     C21616  -0.201   2.189  11.269  0.6278  0.4117 -0.5871
  161MOL0     N21617  -0.217   2.296  11.361 -0.4675 -0.5028 -0.5601
  161MOL0     C21618  -0.158   2.302  11.490 -0.0050  0.9046 -0.0849
  161MOL0     C21619  -0.255   2.376  11.558 -0.2967  0.8350 -0.5325
  161MOL0     C21620  -0.270   2.365  11.712  0.3355 -0.7695 -0.9029
  161MOL0     C21621  -0.311   2.224  11.766  0.1531  0.3351 -0.4105
  161MOL0     C21622  -0.329   2.221  11.910 -0.3476 -0.2605  0.2022
  161MOL0     C21623  -0.204   2.247  11.998 -0.3637 -0.3466  0.5609
  161MOL0     O21624  -0.246   2.197  12.132  0.5666 -0.3358 -0.3220
  161MOL0     C21625  -0.207   2.267  12.247  0.9506  0.7792 -0.2270
  161MOL0     C21626  -0.071   2.295  12.268 -0.9640  0.1490  0.0729
  161MOL0     C21627  -0.018   2.367  12.381  0.2874  0.5808 -0.0369
  161MOL0     C21628  -0.116   2.415  12.478 -0.6433 -0.1679  0.2909
  161MOL0     C21629  -0.070   2.490  12.596  0.5375 -1.1482 -0.1501
  161MOL0     O21630   0.057   2.557  12.591  0.5861 -0.1693 -0.5016
  161MOL0     C21631   0.101   2.626  12.699  0.9213  0.9487 -0.6029
  161MOL0     C21632   0.157   2.753  12.685 -0.2236 -0.2457 -0.0601
  161MOL0     C21633   0.215   2.822  12.796 -0.3600  0.1098  0.6125
  161MOL0     C21634   0.213   2.761  12.924  0.1069  0.4347  1.1953
  161MOL0     O21635   0.288   2.832  13.020  0.5690 -0.2446  0.8524
  161MOL0     C21636   0.315   2.789  13.152  0.0268  1.5278 -0.1008
  161MOL0     C21637   0.404   2.890  13.223 -0.5075  0.1229  0.1089
  161MOL0     C21638   0.350   3.037  13.229 -0.4713 -0.4575 -0.3789
  161MOL0     C21639   0.427   3.121  13.340 -0.4356 -0.0521  0.2477
  161MOL0     C21640   0.429   3.273  13.299 -0.0163  0.8360  0.1385
  161MOL0     C21641   0.523   3.368  13.375  0.5738  0.4866 -0.2188
  161MOL0     C21642   0.555   3.491  13.305  0.8183 -0.7454  0.2836
  161MOL0     C21643   0.612   3.603  13.401  0.9672  0.4961  0.5778
  161MOL0    Cl21644   0.760   3.560  13.497  0.4270 -0.3010 -0.0680
  161MOL0     C21645   0.150   2.634  12.936  0.1877  0.1939 -0.2697
  161MOL0     C21646   0.096   2.564  12.824 -0.6655  0.1710  0.3726
  161MOL0     O21647  -0.156   2.494  12.688  0.3712  0.2842  0.2723
  161MOL0     C21648  -0.254   2.383  12.453 -0.0403  1.0297  0.4554
  161MOL0     C21649  -0.297   2.307  12.340 -0.0050 -0.0879 -0.4651
  161MOL0     N21650  -0.353   2.416  11.473 -0.1193 -0.2260  0.2404
  161MOL0     N21651  -0.323   2.381  11.353 -0.8069 -0.0906  0.0301
  161MOL0     C21652   0.196   1.491  10.660 -0.5891 -0.2907  0.4589
  161MOL0     C21653   0.222   1.359  10.664  0.1447  0.7137  0.6151
  161MOL0     C21654   0.293   0.945  10.596 -0.0844  0.3769  0.0255
  161MOL0     C21655   0.171   0.864  10.586  0.2164 -0.8542 -0.6922
  161MOL0     C21656   0.159   0.736  10.648  0.2824 -0.3901  0.2296
  161MOL0     C21657   0.255   0.686  10.732 -0.9339  0.4753 -0.3837
  161MOL0     O21658   0.230   0.580  10.810  0.8068  0.1865  1.0283
  161MOL0     C21659   0.339   0.491  10.848 -0.4013 -0.3052 -0.4591
  161MOL0     C21660   0.278   0.392  10.950 -0.2944 -0.7051 -0.5347
  161MOL0     C21661   0.156   0.311  10.900  0.6956 -0.5758 -0.1692
  161MOL0     C21662   0.182   0.204  10.799 -0.6498 -0.7725 -0.4284
  161MOL0     C21663   0.073   0.107  10.793  0.4747 -0.2566 -1.1724
  161MOL0     C21664  -0.014   0.022  10.790 -0.7051 -0.1555 -0.2452
  161MOL0     C21665   0.375   0.756  10.738 -0.0985 -1.0324  0.0816
  161MOL0     C21666   0.398   0.879  10.668 -0.1927  0.2511 -0.3931
  161MOL0     C21667   0.540   0.934  10.673  0.6747 -0.0660  0.1792
  161MOL0     H21668   0.496   1.361  10.454  2.3627  1.9940  3.0292
  161MOL0     H21669   0.439   1.607  10.460 -0.6732  0.9386  0.2608
  161MOL0     H21670   0.094   1.749  10.737 -0.6829  1.2601  1.1489
  161MOL0     H21671   0.250   1.702  10.806 -0.4844 -2.1853 -1.3265
  161MOL0     H21672   0.224   1.970  10.664  2.4054  1.3050 -0.6695
  161MOL0     H21673   0.371   1.894  10.716  0.9296 -1.6681  0.1539
  161MOL0     H21674   0.301   2.068  10.871  1.7116 -0.6985 -1.2718
  161MOL0     H21675   0.318   1.911  10.950 -0.1177  0.1365 -0.3840
  161MOL0     H21676   0.051   2.018  10.839  1.0426 -2.4102 -2.8897
  161MOL0     H21677   0.079   1.898  10.975  0.5897  0.4886  2.8154
  161MOL0     H21678   0.166   2.077  11.118 -0.8451 -1.0933  1.2432
  161MOL0     H21679   0.114   2.195  10.986 -1.9852  0.3932 -0.9145
  161MOL0     H21680  -0.127   2.099  11.034 -1.5444 -0.5147  2.3865
  161MOL0     H21681  -0.055   1.979  11.143  3.2386 -0.8486  0.1735
  161MOL0     H21682  -0.025   2.275  11.194 -3.0277  2.4475 -0.2359
  161MOL0     H21683  -0.006   2.142  11.312  2.2471 -0.2791 -1.7735
  161MOL0     H21684  -0.267   2.198  11.182  0.8536 -1.9919 -1.0627
  161MOL0     H21685  -0.225   2.097  11.323  0.0208  0.3316 -0.9797
  161MOL0     H21686  -0.089   2.235  11.540 -3.0543 -0.7887  2.2340
  161MOL0     H21687  -0.181   2.394  11.770 -1.3588 -0.6402  1.7959
  161MOL0     H21688  -0.341   2.442  11.741  2.5401  0.5926  1.2313
  161MOL0     H21689  -0.397   2.188  11.708  2.0167 -3.2915 -1.1908
  161MOL0     H21690  -0.244   2.145  11.731 -0.8648 -1.3928  1.2924
  161MOL0     H21691  -0.362   2.119  11.933 -1.5518  0.4693  1.9323
  161MOL0     H21692  -0.407   2.294  11.934 -0.4062 -0.2824  0.0807
  161MOL0     H21693  -0.178   2.353  12.007  0.9722 -0.7954  2.8629
  161MOL0     H21694  -0.116   2.197  11.958  0.9983  2.0031  0.4481
  161MOL0     H21695  -0.002   2.274  12.188  0.2600  2.5211  0.4103
  161MOL0     H21696   0.089   2.372  12.395  0.6795  1.4993 -2.7861
  161MOL0     H21697   0.176   2.795  12.587 -0.7092 -0.2460 -0.1557
  161MOL0     H21698   0.269   2.914  12.784  0.5384 -0.2467  1.7761
  161MOL0     H21699   0.227   2.786  13.217 -1.1428  1.9162 -1.6044
  161MOL0     H21700   0.367   2.693  13.139 -1.2566  0.7232  0.4651
  161MOL0     H21701   0.428   2.852  13.323 -1.0211 -0.2256  0.1005
  161MOL0     H21702   0.498   2.882  13.168  0.7296 -1.5659  2.2832
  161MOL0     H21703   0.354   3.086  13.132  2.1318  2.9193  1.2255
  161MOL0     H21704   0.245   3.037  13.257 -0.8497  0.6033 -1.6953
  161MOL0     H21705   0.528   3.079  13.343 -0.3140  0.0655 -1.2940
  161MOL0     H21706   0.381   3.113  13.439 -0.7587 -1.0649  0.0328
  161MOL0     H21707   0.325   3.305  13.304 -0.7994 -1.6847  2.9110
  161MOL0     H21708   0.456   3.281  13.194 -2.1863  3.1394 -0.3477
  161MOL0     H21709   0.477   3.392  13.471  0.8472  2.3105 -0.5185
  161MOL0     H21710   0.618   3.317  13.396 -0.8287 -0.7191  4.1299
  161MOL0     H21711   0.476   3.535  13.244  1.8428  0.5475 -0.1778
  161MOL0     H21712   0.628   3.460  13.229  1.0818  2.1629 -0.7858
  161MOL0     H21713   0.646   3.682  13.334  1.7912 -1.1596 -1.0436
  161MOL0     H21714   0.532   3.643  13.464 -1.5253  3.4472 -3.9394
  161MOL0     H21715   0.137   2.572  13.024 -1.8036  0.2175 -0.4959
  161MOL0     H21716   0.058   2.464  12.841 -1.7041  0.9091  2.8479
  161MOL0     H21717  -0.340   2.406  12.515 -1.6040 -1.4643 -0.6060
  161MOL0     H21718  -0.401   2.282  12.321 -0.2585 -0.2099  0.9638
  161MOL0     H21719   0.110   1.527  10.715  1.2175  3.5458  1.1530
  161MOL0     H21720   0.158   1.290  10.719 -0.0685  1.3868  1.2347
  161MOL0     H21721   0.088   0.920  10.545  2.9754  1.8652 -3.1339
  161MOL0     H21722   0.064   0.685  10.637  0.1018  0.4353 -3.1314
  161MOL0     H21723   0.420   0.541  10.903  0.5455 -0.2379 -1.8752
  161MOL0     H21724   0.400   0.444  10.770  1.9767 -0.5037  1.3780
  161MOL0     H21725   0.253   0.450  11.040  0.4176  0.2521 -0.9343
  161MOL0     H21726   0.355   0.322  10.985  0.4557 -0.3423 -1.4139
  161MOL0     H21727   0.087   0.387  10.862  0.6061 -0.6513 -0.1577
  161MOL0     H21728   0.115   0.263  10.989  1.5183  2.4094  1.9915
  161MOL0     H21729   0.196   0.241  10.697 -1.5095  2.5673  0.5366
  161MOL0     H21730   0.274   0.155  10.832  1.0682  4.0476  3.1654
  161MOL0     H21731  -0.094  -0.049  10.795  1.6332 -2.9303  1.5701
  161MOL0     H21732   0.467   0.731  10.790  2.5847  0.8985 -3.2833
  161MOL0     H21733   0.554   1.001  10.759 -0.1141  0.8318 -0.3628
  161MOL0     H21734   0.615   0.855  10.664 -1.2333 -1.7265 -3.1841
  161MOL0     H21735   0.559   0.995  10.585 -0.9483  1.1392  0.6048
  162MOL0     O21736  10.090   6.515   8.100  0.3201  0.1469 -0.5238
  162MOL0     C21737  10.102   6.567   7.991  0.3869  0.4397 -0.7221
  162MOL0     O21738  10.214   6.616   7.935 -0.0689  0.3859 -0.0961
  162MOL0     C21739  10.334   6.575   7.986 -0.6145  0.5894 -1.0433
  162MOL0     C21740  10.424   6.661   8.041 -0.6962  1.0725 -0.0828
  162MOL0     C21741  10.548   6.611   8.099 -0.1513 -0.7370 -0.2633
  162MOL0     C21742  10.578   6.474   8.105  0.1950 -0.3380  0.8611
  162MOL0     O21743  10.699   6.413   8.151  0.6984 -0.2981 -0.5295
  162MOL0     C21744  10.692   6.349   8.276  1.1012 -1.0732 -1.3413
  162MOL0     C21745  10.675   6.463   8.388  0.5399 -0.8679 -0.3482
  162MOL0     C21746  10.792   6.565   8.393 -0.0054 -0.3062 -0.1780
  162MOL0     C21747  10.935   6.509   8.397  0.3091 -0.6177 -0.0790
  162MOL0     C21748  11.031   6.628   8.423  0.4490  0.9667  0.0999
  162MOL0     C21749  11.180   6.594   8.413  0.5488  0.2187 -0.3727
  162MOL0     C21750  11.255   6.718   8.471  0.9218 -0.6764  0.1062
  162MOL0     C21751  11.414   6.703   8.449 -0.1022 -0.0642  0.5016
  162MOL0     N21752  11.489   6.744   8.567 -0.2057  0.1026 -0.5456
  162MOL0     C21753  11.474   6.853   8.651 -0.1061 -0.0145  0.6301
  162MOL0     C21754  11.555   6.821   8.758  1.0756  0.8614 -0.9860
  162MOL0     C21755  11.564   6.901   8.885 -0.6890  0.3476  0.5300
  162MOL0     C21756  11.613   7.040   8.852  0.2025 -1.0361 -0.0213
  162MOL0     C21757  11.767   7.045   8.813  1.5614  0.3048 -0.4528
  162MOL0     C21758  11.818   7.188   8.789 -0.1879 -0.4022 -0.4817
  162MOL0     O21759  11.963   7.175   8.800  0.3650  0.2765  0.5149
  162MOL0     C21760  12.029   7.277   8.739 -0.5221  0.6496  0.7686
  162MOL0     C21761  11.977   7.398   8.708 -1.0245 -0.3481  0.8117
  162MOL0     C21762  12.040   7.515   8.660  0.7628  0.3738  0.9323
  162MOL0     C21763  12.178   7.508   8.645 -0.6837 -0.0005  0.2578
  162MOL0     C21764  12.269   7.611   8.592  0.4930 -0.3121  0.3799
  162MOL0     O21765  12.206   7.735   8.591 -0.0068  0.0070  0.4340
  162MOL0     C21766  12.289   7.839   8.589 -0.8215  0.0982 -0.2755
  162MOL0     C21767  12.335   7.900   8.707 -0.0888 -0.4392  0.0138
  162MOL0     C21768  12.449   7.984   8.700 -1.2020 -0.0346  0.2986
  162MOL0     C21769  12.525   8.001   8.581  0.8530 -0.8093  0.1966
  162MOL0     O21770  12.628   8.087   8.555 -1.6366 -0.5915 -0.6654
  162MOL0     C21771  12.752   8.040   8.613 -0.2744 -0.5565 -0.6726
  162MOL0     C21772  12.766   8.119   8.744  0.2127  0.3948 -0.3666
  162MOL0     C21773  12.771   8.273   8.715  0.3001  1.0429  0.8693
  162MOL0     C21774  12.719   8.366   8.822 -0.3061 -0.7138 -1.1304
  162MOL0     C21775  12.568   8.360   8.859  0.0504  0.3764  0.2331
  162MOL0     C21776  12.560   8.427   8.997 -0.5031 -0.4781 -0.2098
  162MOL0     C21777  12.609   8.575   8.992 -0.4452  0.2650  0.0767
  162MOL0     C21778  12.551   8.662   9.103 -0.2186  0.3736 -0.2894
  162MOL0    Cl21779  12.576   8.843   9.082 -0.0406 -0.1703  0.2089
  162MOL0     C21780  12.474   7.942   8.468  0.1219 -1.7489 -0.0290
  162MOL0     C21781  12.350   7.870   8.465 -0.4775 -0.2175 -0.1567
  162MOL0     O21782  12.386   7.591   8.564  0.6325  0.6852  0.6254
  162MOL0     C21783  12.238   7.382   8.681 -0.2783  0.1993  0.2034
  162MOL0     C21784  12.166   7.272   8.725  0.0727 -0.1245  0.1574
  162MOL0     N21785  11.626   6.700   8.725  0.3651  0.0504  0.6345
  162MOL0     N21786  11.570   6.645   8.625 -0.4667 -0.0866  0.2904
  162MOL0     C21787  10.496   6.387   8.036  0.7222  0.2758 -0.2763
  162MOL0     C21788  10.375   6.439   7.976 -0.7305 -0.0294  0.6593
  162MOL0     C21789   9.980   6.582   7.921 -0.3607  0.7363  0.8505
  162MOL0     C21790   9.988   6.689   7.822 -0.1005  0.1930 -0.3721
  162MOL0     C21791   9.881   6.752   7.762 -0.4527  1.1188 -0.3720
  162MOL0     C21792   9.762   6.686   7.778 -1.4188 -0.9014 -0.4807
  162MOL0     O21793   9.654   6.728   7.699  0.9793  0.0699 -1.1172
  162MOL0     C21794   9.532   6.644   7.683 -0.5189 -0.5199 -0.2205
  162MOL0     C21795   9.451   6.702   7.571  0.4524 -0.4166 -0.3990
  162MOL0     C21796   9.314   6.640   7.546  0.2807 -0.6519 -0.2328
  162MOL0     C21797   9.330   6.501   7.484  0.2864 -0.0921  0.5754
  162MOL0     C21798   9.206   6.443   7.438 -0.0981 -0.1285 -0.3874
  162MOL0     C21799   9.103   6.391   7.396 -0.7021 -1.7182 -0.3601
  162MOL0     C21800   9.747   6.584   7.873 -0.8203 -0.5028 -0.8205
  162MOL0     C21801   9.853   6.528   7.950  0.1052  0.4793  0.4271
  162MOL0     C21802   9.823   6.401   8.023  0.8051 -0.7543 -0.0075
  162MOL0     H21803  10.401   6.767   8.041  0.4325  1.4363 -3.0899
  162MOL0     H21804  10.626   6.667   8.149 -0.0842  0.8096 -1.9757
  162MOL0     H21805  10.603   6.286   8.286  1.6038 -1.6019  0.0689
  162MOL0     H21806  10.782   6.297   8.311 -0.4003 -0.8037  3.7058
  162MOL0     H21807  10.680   6.419   8.489 -3.9707  0.2042  0.5658
  162MOL0     H21808  10.580   6.511   8.364  0.7234 -0.7362 -0.8053
  162MOL0     H21809  10.775   6.634   8.476  1.2053  2.6083 -2.2191
  162MOL0     H21810  10.777   6.620   8.300 -1.5389 -2.4085 -1.2789
  162MOL0     H21811  10.950   6.436   8.478  0.6439 -0.4688 -0.0038
  162MOL0     H21812  10.959   6.476   8.296 -3.6769 -1.0710 -1.0569
  162MOL0     H21813  10.991   6.703   8.354  1.2388  0.6234 -0.7506
  162MOL0     H21814  11.015   6.665   8.525 -1.6773 -1.2008  0.6388
  162MOL0     H21815  11.208   6.508   8.475  1.3567  0.8088  0.1141
  162MOL0     H21816  11.212   6.582   8.309  1.0263 -0.8032 -0.1271
  162MOL0     H21817  11.241   6.722   8.580 -3.7670  1.1869 -0.3234
  162MOL0     H21818  11.236   6.815   8.423  0.5158 -1.4236 -1.3015
  162MOL0     H21819  11.431   6.597   8.426  0.5894  0.0070  0.6606
  162MOL0     H21820  11.430   6.772   8.366 -1.6857  2.6982  2.3370
  162MOL0     H21821  11.405   6.935   8.638 -1.0806 -0.4092  2.8788
  162MOL0     H21822  11.462   6.899   8.924 -0.8527 -0.4626  0.0888
  162MOL0     H21823  11.640   6.854   8.949  1.9178  1.8645 -1.2408
  162MOL0     H21824  11.544   7.083   8.778 -2.9853 -0.3249  3.0844
  162MOL0     H21825  11.600   7.101   8.941 -3.2203 -0.7009 -0.6259
  162MOL0     H21826  11.783   6.988   8.721 -0.1342 -2.9750  1.1050
  162MOL0     H21827  11.822   7.006   8.899  1.5754  1.3785  0.0426
  162MOL0     H21828  11.781   7.264   8.857  1.9965  0.9645 -0.7449
  162MOL0     H21829  11.792   7.225   8.689 -0.8216  1.7648  0.4303
  162MOL0     H21830  11.869   7.413   8.717 -0.7274  1.3747  1.8599
  162MOL0     H21831  11.995   7.606   8.623  0.3451 -0.9863 -2.2335
  162MOL0     H21832  12.276   7.879   8.796  0.1282 -2.6379 -0.3232
  162MOL0     H21833  12.475   8.032   8.794 -0.4000  0.9592 -0.4059
  162MOL0     H21834  12.752   7.933   8.638  1.1536 -0.1753  1.2468
  162MOL0     H21835  12.829   8.057   8.538 -1.1955  0.0353 -1.5116
  162MOL0     H21836  12.682   8.106   8.813  1.1548 -1.7071  0.4941
  162MOL0     H21837  12.863   8.087   8.783  0.7066 -1.2164 -2.7319
  162MOL0     H21838  12.875   8.294   8.688 -0.0160  0.1729 -1.2084
  162MOL0     H21839  12.701   8.300   8.635 -1.1375 -1.7667  1.0576
  162MOL0     H21840  12.734   8.464   8.776 -0.5490 -0.8323 -1.4604
  162MOL0     H21841  12.775   8.346   8.914 -0.3481  2.8579 -0.1736
  162MOL0     H21842  12.522   8.260   8.862 -0.4910  0.3485 -3.9403
  162MOL0     H21843  12.491   8.410   8.800 -1.1055  0.2438  1.5708
  162MOL0     H21844  12.456   8.420   9.030 -0.2288 -1.2765  0.5500
  162MOL0     H21845  12.612   8.360   9.066  1.8420  1.8406  0.4101
  162MOL0     H21846  12.579   8.613   8.894  1.4658 -1.5434 -1.3032
  162MOL0     H21847  12.717   8.560   9.002 -0.6455 -1.1545  0.3635
  162MOL0     H21848  12.443   8.647   9.110  0.0159 -2.1942 -1.0802
  162MOL0     H21849  12.594   8.627   9.198 -0.9268 -2.1038 -0.8132
  162MOL0     H21850  12.522   7.957   8.372  3.2637  3.7431  1.9515
  162MOL0     H21851  12.322   7.815   8.376  1.1818  0.1764 -0.9576
  162MOL0     H21852  12.344   7.364   8.665 -1.0505 -1.6059 -5.2890
  162MOL0     H21853  12.225   7.181   8.734  2.5457  1.4906  1.5362
  162MOL0     H21854  10.543   6.289   8.038  4.2534  1.7563 -1.5911
  162MOL0     H21855  10.316   6.359   7.934  4.2808 -2.7784 -2.1849
  162MOL0     H21856  10.089   6.727   7.811  2.3977 -3.6042  4.7545
  162MOL0     H21857   9.884   6.840   7.698 -1.5030  2.0492  0.8266
  162MOL0     H21858   9.480   6.657   7.777 -0.7451 -2.9166  0.0537
  162MOL0     H21859   9.563   6.540   7.666  1.7358 -0.0400  0.5541
  162MOL0     H21860   9.518   6.697   7.485 -0.2811  0.9450 -1.0716
  162MOL0     H21861   9.437   6.810   7.582 -0.7710 -0.6797  0.9930
  162MOL0     H21862   9.264   6.704   7.473 -0.7405  0.1685  1.1269
  162MOL0     H21863   9.247   6.642   7.632  1.2223 -0.5488  0.5099
  162MOL0     H21864   9.401   6.505   7.401 -2.4719  0.3960 -1.9317
  162MOL0     H21865   9.364   6.430   7.560 -0.5264 -1.8580 -0.6407
  162MOL0     H21866   9.007   6.355   7.363 -2.0505  0.4816  0.9628
  162MOL0     H21867   9.649   6.538   7.877 -0.8283 -0.7167 -2.6489
  162MOL0     H21868   9.911   6.337   8.015  2.1476  1.1272 -0.8485
  162MOL0     H21869   9.810   6.416   8.131  2.1502 -1.0439  0.2112
  162MOL0     H21870   9.739   6.342   7.985  2.6931 -2.7747 -1.2419
  163MOL0     O21871   8.979   2.706   9.745 -0.6730 -0.2931 -0.3348
  163MOL0     C21872   8.969   2.647   9.851 -0.2095 -0.1871 -0.3852
  163MOL0     O21873   9.075   2.625   9.931 -0.2950 -0.0998 -0.1427
  163MOL0     C21874   9.203   2.672   9.896  0.2902 -0.2797  0.1572
  163MOL0     C21875   9.310   2.609   9.957 -0.5861  0.4260 -0.5101
  163MOL0     C21876   9.446   2.656   9.930  0.0780 -0.0269 -0.7162
  163MOL0     C21877   9.469   2.778   9.854 -0.3283  0.6206 -0.1922
  163MOL0     O21878   9.590   2.837   9.846 -0.9162 -0.6984  0.3265
  163MOL0     C21879   9.711   2.771   9.867  0.5798  0.0171 -0.0429
  163MOL0     C21880   9.846   2.850   9.858 -0.4279 -0.0124  0.0393
  163MOL0     C21881   9.973   2.799   9.944 -0.4922  0.1657  0.0373
  163MOL0     C21882  10.087   2.902   9.938 -0.4977  0.5638  0.2837
  163MOL0     C21883  10.203   2.832  10.008 -0.0581 -0.2574  0.8194
  163MOL0     C21884  10.326   2.922  10.005 -0.0974 -0.6147 -0.2350
  163MOL0     C21885  10.402   2.939   9.868  0.8227 -0.0188  0.5982
  163MOL0     C21886  10.527   3.031   9.875 -0.0830 -0.1790  0.6537
  163MOL0     N21887  10.621   2.986   9.969 -0.0295 -0.8869 -0.3919
  163MOL0     C21888  10.726   2.899   9.944 -0.2038 -0.0211 -0.1527
  163MOL0     C21889  10.781   2.887  10.066 -0.0049 -0.2306  0.0461
  163MOL0     C21890  10.887   2.782  10.091 -0.0784 -0.1308 -0.2003
  163MOL0     C21891  11.018   2.805  10.013 -0.2124 -0.0053  0.2202
  163MOL0     C21892  11.021   2.759   9.867 -0.3816  0.9022 -0.0718
  163MOL0     C21893  11.162   2.772   9.804 -0.6478 -0.1742  0.7217
  163MOL0     O21894  11.250   2.689   9.879 -0.1298  0.7851 -0.9992
  163MOL0     C21895  11.340   2.621   9.805  0.3666  0.5881 -0.4461
  163MOL0     C21896  11.448   2.687   9.742  0.4300  0.4841 -0.7899
  163MOL0     C21897  11.534   2.610   9.662  0.7853  1.1873  1.1429
  163MOL0     C21898  11.510   2.475   9.646 -0.9614 -0.0593 -0.0738
  163MOL0     C21899  11.612   2.401   9.558 -0.3755  0.3746  0.4722
  163MOL0     O21900  11.716   2.468   9.487  0.1440  0.0764  0.3510
  163MOL0     C21901  11.794   2.400   9.404 -0.3879  1.3455 -0.6414
  163MOL0     C21902  11.924   2.359   9.449  0.2703 -0.1186  0.7661
  163MOL0     C21903  12.002   2.269   9.370 -0.2341  0.4803  0.6252
  163MOL0     C21904  11.955   2.224   9.254 -0.0371  0.7386 -0.0887
  163MOL0     O21905  11.999   2.120   9.174 -0.7088 -0.0373  0.0543
  163MOL0     C21906  12.139   2.073   9.175  0.5433  0.4321 -0.5899
  163MOL0     C21907  12.157   1.974   9.059 -0.5466  0.7029 -0.6538
  163MOL0     C21908  12.289   1.904   9.071  0.7910  0.4247  0.4702
  163MOL0     C21909  12.310   1.769   8.996 -0.6304  0.7738 -0.4146
  163MOL0     C21910  12.459   1.760   8.949  0.3697  1.2863  0.0961
  163MOL0     C21911  12.498   1.623   8.894  0.0187  0.3132  0.8239
  163MOL0     C21912  12.660   1.611   8.882  0.8531  0.0052 -0.1465
  163MOL0     C21913  12.716   1.500   8.800  0.1178  0.7072  0.3234
  163MOL0    Cl21914  12.905   1.507   8.830  0.5349  0.4525 -0.1057
  163MOL0     C21915  11.834   2.273   9.199  0.5539  0.2584  0.0620
  163MOL0     C21916  11.750   2.346   9.285  0.3348  0.2822 -1.0108
  163MOL0     O21917  11.599   2.277   9.568  0.3775  0.5170  1.0734
  163MOL0     C21918  11.408   2.409   9.699  0.1623 -0.0397 -0.8781
  163MOL0     C21919  11.322   2.486   9.789 -0.0500  0.1540 -0.0627
  163MOL0     N21920  10.725   2.978  10.151  0.7169 -0.4702 -0.4655
  163MOL0     N21921  10.624   3.034  10.095 -0.7747  0.5721 -0.5471
  163MOL0     C21922   9.359   2.851   9.813  0.9458  1.0630 -0.8997
  163MOL0     C21923   9.223   2.798   9.832 -0.8219 -0.3193 -1.1228
  163MOL0     C21924   8.836   2.601   9.898  0.5864  0.0044  0.0565
  163MOL0     C21925   8.819   2.497   9.987 -0.0381 -0.5440  0.5224
  163MOL0     C21926   8.697   2.465  10.046  1.1226  0.3515  1.1333
  163MOL0     C21927   8.583   2.522   9.996 -0.1672 -0.5034  0.0502
  163MOL0     O21928   8.449   2.489  10.027  0.2422 -0.2236  0.1057
  163MOL0     C21929   8.435   2.416  10.154  0.7105  0.6497 -0.5078
  163MOL0     C21930   8.295   2.420  10.205 -0.3901  1.1454  0.5910
  163MOL0     C21931   8.234   2.564  10.179  0.8466 -0.4520  0.7093
  163MOL0     C21932   8.100   2.599  10.244 -0.2683 -0.6006  0.1381
  163MOL0     C21933   8.101   2.702  10.350  0.7441 -0.1827 -0.3833
  163MOL0     C21934   8.077   2.777  10.446 -0.6442 -0.1261  1.1695
  163MOL0     C21935   8.588   2.620   9.896 -0.2860 -0.2529 -0.0117
  163MOL0     C21936   8.712   2.661   9.853 -0.1350 -1.1077  0.5220
  163MOL0     C21937   8.702   2.780   9.754  0.5050  0.9584 -0.2101
  163MOL0     H21938   9.302   2.518  10.016  1.4841  0.1144 -0.6178
  163MOL0     H21939   9.534   2.612   9.974 -1.3074  0.8301  3.4003
  163MOL0     H21940   9.699   2.741   9.972  0.6073 -0.7770 -0.2592
  163MOL0     H21941   9.724   2.691   9.794  2.2690  2.3141 -2.4212
  163MOL0     H21942   9.829   2.956   9.878  2.7421  0.6626 -0.2888
  163MOL0     H21943   9.874   2.856   9.752  4.1253 -1.2891  0.9690
  163MOL0     H21944  10.001   2.701   9.904  0.1078  0.4175 -0.1678
  163MOL0     H21945   9.964   2.787  10.052  2.8953 -1.4155  0.2868
  163MOL0     H21946  10.118   2.903   9.833  2.7290 -2.0275  1.0598
  163MOL0     H21947  10.068   2.999   9.985 -0.7384 -0.2475  1.9038
  163MOL0     H21948  10.183   2.810  10.114  0.0262  0.5965  1.0157
  163MOL0     H21949  10.219   2.739   9.954  0.3307  0.8319 -0.9989
  163MOL0     H21950  10.299   3.022  10.041 -0.3775  0.7934 -3.8781
  163MOL0     H21951  10.382   2.868  10.082  1.4469  1.4912  0.2152
  163MOL0     H21952  10.334   2.988   9.797  1.4540  2.0366  1.3378
  163MOL0     H21953  10.424   2.844   9.818 -1.0728  0.6038 -1.6505
  163MOL0     H21954  10.562   3.039   9.771 -1.2975 -0.4903  0.1980
  163MOL0     H21955  10.483   3.128   9.902  1.4529  0.5157  0.7802
  163MOL0     H21956  10.741   2.839   9.855  3.5018  1.0505 -0.4105
  163MOL0     H21957  10.906   2.773  10.198 -2.6448  0.0919  0.3575
  163MOL0     H21958  10.848   2.683  10.065  0.8880 -0.4884 -0.3025
  163MOL0     H21959  11.032   2.913  10.009  1.7827 -0.2759 -1.7229
  163MOL0     H21960  11.100   2.770  10.076  0.4152  2.3212  0.8013
  163MOL0     H21961  10.946   2.813   9.808 -1.5746 -0.6867 -0.0588
  163MOL0     H21962  10.996   2.654   9.850  3.3329  0.1323 -2.0695
  163MOL0     H21963  11.203   2.873   9.793  0.7343 -0.5151  2.3335
  163MOL0     H21964  11.152   2.755   9.696 -0.6506  2.9525  0.1434
  163MOL0     H21965  11.458   2.791   9.771 -1.6845  0.6497 -0.4443
  163MOL0     H21966  11.627   2.654   9.624  1.7066 -0.7950  0.9864
  163MOL0     H21967  11.969   2.400   9.539 -0.5371 -1.2326  1.7073
  163MOL0     H21968  12.093   2.225   9.409  1.6831  3.1548 -0.4992
  163MOL0     H21969  12.213   2.150   9.153 -0.4995  1.6309 -0.0277
  163MOL0     H21970  12.154   2.029   9.275 -0.8907  2.3066  0.5014
  163MOL0     H21971  12.068   1.910   9.053  0.8995 -1.2318 -3.3336
  163MOL0     H21972  12.147   2.022   8.961 -0.3837 -0.1995 -1.1223
  163MOL0     H21973  12.354   1.971   9.014 -1.5895  2.7405  0.3161
  163MOL0     H21974  12.314   1.901   9.178 -1.5615  0.1036  1.0653
  163MOL0     H21975  12.241   1.756   8.912  1.1585 -1.3170 -1.6919
  163MOL0     H21976  12.289   1.688   9.067  2.1002  1.0562  0.8469
  163MOL0     H21977  12.516   1.772   9.042  1.5124 -1.2862 -0.1880
  163MOL0     H21978  12.476   1.842   8.878  1.2300  1.4798  0.5076
  163MOL0     H21979  12.467   1.549   8.969 -1.2991  0.9007  0.8882
  163MOL0     H21980  12.444   1.600   8.802  1.1696  2.0971 -0.3535
  163MOL0     H21981  12.706   1.597   8.980  2.6611  1.5150 -0.7230
  163MOL0     H21982  12.694   1.704   8.835 -1.2897  0.4070 -1.0678
  163MOL0     H21983  12.677   1.402   8.829  0.6529  1.5555  4.5746
  163MOL0     H21984  12.697   1.528   8.696  3.5783  2.4699  0.0322
  163MOL0     H21985  11.800   2.209   9.118  2.1942  0.1341 -0.5638
  163MOL0     H21986  11.646   2.360   9.256 -1.9874 -1.1702  5.0902
  163MOL0     H21987  11.398   2.301   9.694 -0.3882 -0.0005 -0.6632
  163MOL0     H21988  11.249   2.435   9.851  1.0647  0.3502  1.4619
  163MOL0     H21989   9.366   2.951   9.772  0.3430  1.7404  0.5853
  163MOL0     H21990   9.145   2.856   9.786 -1.8982 -1.8147 -1.2523
  163MOL0     H21991   8.910   2.444  10.012  3.0949  3.4503 -1.2652
  163MOL0     H21992   8.691   2.373  10.103  2.5655 -0.1343  0.5511
  163MOL0     H21993   8.480   2.484  10.227 -1.5615  0.4722  1.1864
  163MOL0     H21994   8.483   2.318  10.151  1.2147  0.9114 -1.3746
  163MOL0     H21995   8.300   2.400  10.312 -2.3693 -1.0931  0.3399
  163MOL0     H21996   8.238   2.340  10.157 -0.7201  1.1136  1.0324
  163MOL0     H21997   8.223   2.576  10.071 -0.0609  0.6231  0.9015
  163MOL0     H21998   8.307   2.633  10.222  0.3573  0.6409 -0.1539
  163MOL0     H21999   8.033   2.637  10.167 -1.4802 -1.9081  0.5009
  163MOL0     H22000   8.052   2.504  10.270  0.3913 -0.7440  0.8775
  163MOL0     H22001   8.066   2.840  10.532 -3.5333  0.3758  0.5134
  163MOL0     H22002   8.500   2.681   9.878 -0.2516 -0.3700 -0.5759
  163MOL0     H22003   8.604   2.828   9.755 -0.4739 -0.8994 -1.6325
  163MOL0     H22004   8.773   2.858   9.782 -0.9625  3.0922 -2.1129
  163MOL0     H22005   8.709   2.748   9.650  0.2606  3.8719 -1.1959
  164MOL0     O22006   0.490   3.478  11.076  0.4439  0.2347  0.0139
  164MOL0     C22007   0.561   3.476  11.179  0.1275  0.9892 -0.7249
  164MOL0     O22008   0.672   3.399  11.193  1.2932  0.2164  0.1324
  164MOL0     C22009   0.701   3.311  11.098  0.4949  0.0855  0.5060
  164MOL0     C22010   0.743   3.358  10.974 -0.1795  0.5949 -0.8182
  164MOL0     C22011   0.782   3.271  10.876  0.5338  0.0373 -0.2393
  164MOL0     C22012   0.773   3.136  10.893  0.0200 -1.0680  0.7230
  164MOL0     O22013   0.812   3.063  10.784 -0.2844  0.6994 -0.0907
  164MOL0     C22014   0.797   2.922  10.788  1.4111 -0.1341 -0.1844
  164MOL0     C22015   0.658   2.880  10.742 -0.0198 -0.6057 -1.1782
  164MOL0     C22016   0.618   2.903  10.596  0.8310  0.5590  0.3011
  164MOL0     C22017   0.475   2.880  10.586  1.2898 -0.7567 -0.1906
  164MOL0     C22018   0.430   2.916  10.440  0.1082 -0.2938 -0.7839
  164MOL0     C22019   0.471   3.052  10.381  0.3468  0.7262 -0.2824
  164MOL0     C22020   0.446   3.176  10.450  0.2559 -0.7262 -0.1755
  164MOL0     C22021   0.295   3.180  10.504  0.0237  0.6850 -0.0955
  164MOL0     N22022   0.277   3.312  10.560 -0.6362 -0.0809 -0.2829
  164MOL0     C22023   0.262   3.341  10.695  0.4235 -0.7647  0.4912
  164MOL0     C22024   0.240   3.475  10.703 -0.4245 -0.2447 -1.2941
  164MOL0     C22025   0.228   3.555  10.828 -0.3701  0.3170 -0.4258
  164MOL0     C22026   0.095   3.542  10.901 -0.0393  0.2177 -0.1885
  164MOL0     C22027   0.093   3.618  11.038 -0.2085  0.3419  1.1092
  164MOL0     C22028  -0.046   3.615  11.089  0.8775 -0.5079  0.4040
  164MOL0     O22029  -0.041   3.634  11.233 -0.4390  0.2857 -0.0378
  164MOL0     C22030   0.005   3.520  11.301  0.4333 -0.2713  0.6965
  164MOL0     C22031   0.088   3.540  11.415 -0.5523 -0.9699  0.9492
  164MOL0     C22032   0.133   3.443  11.491 -0.4052  0.6734 -0.2433
  164MOL0     C22033   0.101   3.310  11.466 -0.4515  0.1466 -1.3386
  164MOL0     C22034   0.157   3.210  11.557 -0.3542  0.7144 -0.3991
  164MOL0     O22035   0.291   3.225  11.602 -0.0070  0.1046 -0.1628
  164MOL0     C22036   0.342   3.130  11.690  0.3201  0.4404 -0.0464
  164MOL0     C22037   0.402   3.173  11.803 -0.3966 -0.3134  0.6608
  164MOL0     C22038   0.480   3.085  11.887  0.0647 -0.1440  0.8052
  164MOL0     C22039   0.488   2.952  11.863  0.5658 -0.3819  0.4693
  164MOL0     O22040   0.557   2.879  11.953 -0.4506 -0.5562  0.7906
  164MOL0     C22041   0.685   2.834  11.919  0.7478  0.1876 -0.2952
  164MOL0     C22042   0.708   2.705  11.989  0.3755  0.3118 -0.3058
  164MOL0     C22043   0.831   2.624  11.926 -0.4155  0.2700  0.7980
  164MOL0     C22044   0.793   2.559  11.796 -0.1935 -0.2511  0.5597
  164MOL0     C22045   0.920   2.545  11.721  0.2948 -0.7527 -0.4868
  164MOL0     C22046   0.902   2.456  11.603  0.0640  0.5381  0.1290
  164MOL0     C22047   1.043   2.454  11.537 -1.2920  0.8885 -0.1221
  164MOL0     C22048   1.025   2.383  11.402 -1.0230  0.2374  0.0272
  164MOL0    Cl22049   0.930   2.488  11.296  0.3601 -0.0719 -0.1968
  164MOL0     C22050   0.415   2.908  11.749  0.3476 -0.6419 -0.6036
  164MOL0     C22051   0.352   2.992  11.661  0.3012  0.1191  0.1816
  164MOL0     O22052   0.078   3.119  11.582  0.0261 -1.4048 -0.7792
  164MOL0     C22053   0.017   3.278  11.363 -0.3905 -0.0984  0.2518
  164MOL0     C22054  -0.029   3.381  11.273 -0.4819  0.0202  0.0060
  164MOL0     N22055   0.226   3.515  10.573  0.2797  0.3565  0.0894
  164MOL0     N22056   0.245   3.416  10.487  0.6539 -0.2048  0.2045
  164MOL0     C22057   0.712   3.088  11.012  0.3587  0.2581  0.2716
  164MOL0     C22058   0.679   3.173  11.114 -0.4627 -0.5496 -0.2858
  164MOL0     C22059   0.513   3.557  11.299 -0.3403 -0.1858  0.2253
  164MOL0     C22060   0.542   3.497  11.430  0.3416 -0.2558  0.6398
  164MOL0     C22061   0.499   3.567  11.539  0.4230 -0.1694 -0.9008
  164MOL0     C22062   0.431   3.688  11.527  0.1744  0.3966  0.1044
  164MOL0     O22063   0.422   3.764  11.642  0.0317  0.2398  0.0593
  164MOL0     C22064   0.304   3.840  11.680  0.1426  0.2878  0.3267
  164MOL0     C22065   0.199   3.755  11.747  0.3405  0.0838  0.0392
  164MOL0     C22066   0.275   3.691  11.880  0.0819  0.3688 -0.0857
  164MOL0     C22067   0.184   3.599  11.958 -0.1078 -0.2081 -0.7278
  164MOL0     C22068   0.119   3.490  11.889  0.0612 -0.1463 -0.1414
  164MOL0     C22069   0.063   3.398  11.827 -0.4682  0.0560 -0.0586
  164MOL0     C22070   0.412   3.751  11.405 -0.5649 -0.1974 -0.3859
  164MOL0     C22071   0.451   3.687  11.286 -0.4469  1.0983 -1.0586
  164MOL0     C22072   0.436   3.761  11.157  0.3987 -0.6888  0.7051
  164MOL0     H22073   0.743   3.466  10.965  3.0618  1.0233  2.1723
  164MOL0     H22074   0.825   3.308  10.784 -3.5790  0.9697 -2.0127
  164MOL0     H22075   0.868   2.877  10.718 -1.2280 -2.3790 -1.6376
  164MOL0     H22076   0.820   2.877  10.885 -0.9761  0.6091  0.8226
  164MOL0     H22077   0.588   2.927  10.812 -0.0287 -1.7994 -0.3600
  164MOL0     H22078   0.634   2.775  10.762 -0.4848  0.1579  3.3850
  164MOL0     H22079   0.673   2.830  10.535  2.5469  1.7089  0.3801
  164MOL0     H22080   0.651   3.002  10.562  0.5631  0.1667 -1.1775
  164MOL0     H22081   0.438   2.788  10.632 -3.6877  0.0163 -2.0423
  164MOL0     H22082   0.433   2.957  10.653 -0.9031 -0.1020 -2.1864
  164MOL0     H22083   0.479   2.845  10.373 -1.6428 -0.4316 -1.9973
  164MOL0     H22084   0.322   2.905  10.424  0.2430 -0.0864 -1.8568
  164MOL0     H22085   0.577   3.050  10.352  0.4692 -4.2360 -0.1966
  164MOL0     H22086   0.414   3.054  10.288  0.7191 -0.4208 -0.5429
  164MOL0     H22087   0.454   3.252  10.372 -0.5564 -0.1646  0.2715
  164MOL0     H22088   0.515   3.199  10.532 -1.0440  1.0543  0.4923
  164MOL0     H22089   0.220   3.169  10.425  0.4895 -1.8147 -0.2524
  164MOL0     H22090   0.279   3.102  10.578 -0.8279 -0.2150 -1.1994
  164MOL0     H22091   0.289   3.267  10.770  1.1503  0.0631  1.0606
  164MOL0     H22092   0.310   3.528  10.895 -1.9832 -0.5623  1.3062
  164MOL0     H22093   0.240   3.660  10.801  0.1559  0.5934  0.7857
  164MOL0     H22094   0.014   3.581  10.839 -0.9135  0.2530  0.9592
  164MOL0     H22095   0.084   3.437  10.929  1.1511 -0.1233 -0.9117
  164MOL0     H22096   0.117   3.720  11.006  0.5856 -0.2184 -0.1225
  164MOL0     H22097   0.170   3.579  11.106  2.0186  0.3519 -1.2617
  164MOL0     H22098  -0.102   3.524  11.065 -1.6152  0.4785  1.9767
  164MOL0     H22099  -0.094   3.703  11.045 -1.0080  0.2344  3.6068
  164MOL0     H22100   0.123   3.642  11.428 -0.2763 -0.9771  0.3237
  164MOL0     H22101   0.197   3.468  11.574  0.1909  2.0546 -1.0713
  164MOL0     H22102   0.428   3.278  11.819  0.3896 -0.2542 -0.8325
  164MOL0     H22103   0.544   3.132  11.962 -3.1096  0.6910  3.2056
  164MOL0     H22104   0.685   2.812  11.812 -0.9179  0.2521 -0.3441
  164MOL0     H22105   0.761   2.904  11.954  0.3366  0.0777  0.8663
  164MOL0     H22106   0.732   2.730  12.093 -1.6235 -0.3241  0.3554
  164MOL0     H22107   0.618   2.643  11.977 -1.6644  2.8787  0.8084
  164MOL0     H22108   0.909   2.699  11.913  0.8609 -0.6432  2.5764
  164MOL0     H22109   0.865   2.544  11.994 -3.4150 -0.2975  1.7603
  164MOL0     H22110   0.722   2.617  11.737  1.6312  0.8868 -0.6150
  164MOL0     H22111   0.755   2.457  11.811  0.6133 -0.7919 -0.8416
  164MOL0     H22112   0.995   2.511  11.793  0.9723  1.5635 -0.0066
  164MOL0     H22113   0.950   2.647  11.698  1.3520 -0.5084  1.6691
  164MOL0     H22114   0.867   2.357  11.635 -0.8694  0.2392 -1.6460
  164MOL0     H22115   0.830   2.507  11.538 -0.5022  1.3512  1.3614
  164MOL0     H22116   1.118   2.398  11.594  0.5244  2.0566 -1.2403
  164MOL0     H22117   1.080   2.556  11.527 -1.3282  0.9821  0.6204
  164MOL0     H22118   1.123   2.377  11.354 -1.8196 -2.2707 -1.4010
  164MOL0     H22119   0.989   2.280  11.399  1.5734 -0.9277  2.7025
  164MOL0     H22120   0.418   2.800  11.737 -0.5996 -0.5709 -1.7207
  164MOL0     H22121   0.299   2.958  11.573  1.8945 -1.7866 -0.1142
  164MOL0     H22122   0.001   3.176  11.328  0.8969  1.0702 -4.3932
  164MOL0     H22123  -0.103   3.350  11.201 -3.0850  1.5629  1.8421
  164MOL0     H22124   0.708   2.981  11.028  2.2147  0.0404 -0.5441
  164MOL0     H22125   0.635   3.146  11.209 -2.4460  2.5013 -0.1975
  164MOL0     H22126   0.581   3.396  11.435  0.5861 -0.2108 -0.2333
  164MOL0     H22127   0.495   3.531  11.641 -1.8482  2.9034  0.2441
  164MOL0     H22128   0.250   3.886  11.597  1.6865 -2.3387 -2.3348
  164MOL0     H22129   0.332   3.915  11.755 -0.7227  3.6155 -2.3821
  164MOL0     H22130   0.167   3.677  11.677  0.5318  0.2272 -0.2152
  164MOL0     H22131   0.107   3.808  11.771 -0.2622 -0.5724 -0.7607
  164MOL0     H22132   0.306   3.781  11.934  2.6783  0.5027 -1.6163
  164MOL0     H22133   0.361   3.632  11.846  1.4830  0.7119  2.6205
  164MOL0     H22134   0.233   3.553  12.044 -2.3524 -2.6280 -0.6479
  164MOL0     H22135   0.108   3.661  12.005  1.2935 -0.3791  1.9651
  164MOL0     H22136   0.020   3.316  11.773  1.1568 -1.0859  0.2785
  164MOL0     H22137   0.378   3.853  11.397 -1.8160 -0.5625  0.0258
  164MOL0     H22138   0.444   3.697  11.069  0.6787 -1.1148  1.0332
  164MOL0     H22139   0.333   3.799  11.159  0.4785 -0.1507 -1.9471
  164MOL0     H22140   0.501   3.846  11.132 -1.2256  1.0440  2.0747
  165MOL0     O22141   5.508   4.226   1.397  0.5071 -0.9504 -0.8993
  165MOL0     C22142   5.535   4.201   1.282  0.1852 -0.6155  0.5668
  165MOL0     O22143   5.652   4.227   1.212 -0.3641  0.2289 -0.2760
  165MOL0     C22144   5.740   4.308   1.275 -0.1018 -0.2602  0.2054
  165MOL0     C22145   5.818   4.264   1.383  0.1579 -0.5484  1.0160
  165MOL0     C22146   5.891   4.367   1.446  0.0895  0.2286 -0.5695
  165MOL0     C22147   5.900   4.498   1.393 -0.1065 -0.4383  0.2845
  165MOL0     O22148   5.975   4.594   1.461 -1.0436  0.1607  0.2143
  165MOL0     C22149   6.073   4.539   1.549  0.1989 -0.2808 -0.1902
  165MOL0     C22150   6.167   4.645   1.593 -0.0566 -0.0287 -0.8149
  165MOL0     C22151   6.249   4.597   1.717  0.5390  1.0688  0.6477
  165MOL0     C22152   6.309   4.718   1.780 -0.8855 -0.8660 -0.0582
  165MOL0     C22153   6.381   4.680   1.907  0.2447  0.5558 -0.6982
  165MOL0     C22154   6.438   4.789   1.977 -0.5999  0.0738  0.5477
  165MOL0     C22155   6.526   4.747   2.092 -0.1128 -0.3695  0.1522
  165MOL0     C22156   6.559   4.861   2.185 -0.9708 -0.0657 -0.0816
  165MOL0     N22157   6.661   4.813   2.289  0.6384 -0.3269  0.7092
  165MOL0     C22158   6.769   4.886   2.332 -0.2527  0.6194 -0.0436
  165MOL0     C22159   6.832   4.811   2.428  0.1003  0.3951  0.3003
  165MOL0     C22160   6.969   4.831   2.481  0.3804 -0.6803  0.1777
  165MOL0     C22161   7.027   4.967   2.481  0.4703 -0.2751 -0.3519
  165MOL0     C22162   7.147   4.978   2.581  0.3920 -0.1218  0.2442
  165MOL0     C22163   7.258   4.889   2.536 -0.1565 -0.5441  0.4069
  165MOL0     O22164   7.299   4.913   2.399  0.0035  0.0419  0.1932
  165MOL0     C22165   7.400   5.001   2.374  0.1707  0.1924 -0.6919
  165MOL0     C22166   7.533   4.959   2.376  0.5616  0.0175  0.2124
  165MOL0     C22167   7.639   5.055   2.327  0.8975  0.2487 -0.2853
  165MOL0     C22168   7.604   5.175   2.273  0.6629 -0.7615 -0.0287
  165MOL0     C22169   7.702   5.280   2.229 -0.0275  0.6462 -1.5858
  165MOL0     O22170   7.655   5.391   2.181  0.8147 -0.1742  0.0535
  165MOL0     C22171   7.747   5.491   2.164  0.2886  0.6337 -0.9846
  165MOL0     C22172   7.813   5.519   2.049 -0.2467  0.1443 -0.4365
  165MOL0     C22173   7.877   5.645   2.033 -0.1494 -0.9566 -0.6519
  165MOL0     C22174   7.892   5.738   2.134 -0.3859 -0.6727  0.3963
  165MOL0     O22175   7.974   5.850   2.126  0.4973 -0.2632  0.1667
  165MOL0     C22176   8.097   5.821   2.062  0.7349 -0.3872  0.0039
  165MOL0     C22177   8.181   5.715   2.125 -0.3619 -0.8575  0.3383
  165MOL0     C22178   8.243   5.782   2.247 -0.2645 -0.1775 -1.1506
  165MOL0     C22179   8.270   5.674   2.349 -0.0053 -0.2778 -0.5894
  165MOL0     C22180   8.380   5.732   2.439 -0.7383 -0.5669 -0.7154
  165MOL0     C22181   8.439   5.624   2.532 -0.2824  0.7835 -0.1556
  165MOL0     C22182   8.350   5.559   2.637 -0.3960  0.3789 -0.2139
  165MOL0     C22183   8.350   5.403   2.622 -0.0168  0.0422 -0.0148
  165MOL0    Cl22184   8.509   5.332   2.661 -0.1680 -0.4166 -0.3055
  165MOL0     C22185   7.830   5.711   2.252 -1.1719 -0.1615  0.5142
  165MOL0     C22186   7.754   5.588   2.261 -0.9528 -0.9161  0.3772
  165MOL0     O22187   7.818   5.268   2.268  0.5245 -0.0375  0.5308
  165MOL0     C22188   7.469   5.214   2.273  0.0791 -0.9208 -0.4245
  165MOL0     C22189   7.375   5.130   2.324  0.1491 -0.6275 -0.1973
  165MOL0     N22190   6.763   4.696   2.433 -0.3733  0.8835 -0.8335
  165MOL0     N22191   6.662   4.691   2.349 -0.4601  0.5317  0.3951
  165MOL0     C22192   5.832   4.535   1.274 -0.0440 -0.2388  0.4520
  165MOL0     C22193   5.748   4.437   1.217 -0.7846 -1.0430 -0.0235
  165MOL0     C22194   5.426   4.159   1.190  0.4993 -0.1996  0.5708
  165MOL0     C22195   5.437   4.181   1.052 -0.6169  0.5333  0.8890
  165MOL0     C22196   5.339   4.151   0.954 -0.7985 -0.8521 -0.4966
  165MOL0     C22197   5.223   4.089   0.992 -0.0402  0.0107 -0.0103
  165MOL0     O22198   5.106   4.075   0.925 -0.0882 -0.3832  0.1933
  165MOL0     C22199   5.115   4.102   0.785  0.1712  0.8258 -0.0965
  165MOL0     C22200   4.980   4.062   0.712  0.4751 -0.0775 -0.4916
  165MOL0     C22201   4.869   4.170   0.724 -0.1999 -0.3866 -0.0502
  165MOL0     C22202   4.739   4.130   0.660 -0.0796  0.4960 -0.7221
  165MOL0     C22203   4.659   4.038   0.751 -0.3327  0.5636  0.8986
  165MOL0     C22204   4.582   3.970   0.826  0.2478 -0.5844  0.9677
  165MOL0     C22205   5.211   4.055   1.132 -0.1637  0.1296 -0.3943
  165MOL0     C22206   5.319   4.073   1.226  0.0066  0.3963 -0.4939
  165MOL0     C22207   5.301   4.014   1.358  0.6705 -0.2785 -0.6408
  165MOL0     H22208   5.814   4.162   1.419  3.7321 -1.3773 -0.4445
  165MOL0     H22209   5.926   4.343   1.545 -1.6192  1.2328  0.3351
  165MOL0     H22210   6.022   4.503   1.639  1.1633  2.2012  1.4435
  165MOL0     H22211   6.123   4.458   1.495 -1.1019 -1.7528  0.7248
  165MOL0     H22212   6.111   4.734   1.623  3.5204  2.2304 -0.2624
  165MOL0     H22213   6.240   4.667   1.515  4.0660 -3.4797  1.6416
  165MOL0     H22214   6.324   4.522   1.694  1.5775  2.1350  0.4336
  165MOL0     H22215   6.179   4.546   1.783  1.0235  0.3251  0.5871
  165MOL0     H22216   6.391   4.746   1.712  2.4111 -1.1974  3.4446
  165MOL0     H22217   6.237   4.799   1.794 -0.5528 -0.8223  1.5248
  165MOL0     H22218   6.308   4.635   1.976  0.4032  0.7037 -0.4298
  165MOL0     H22219   6.459   4.607   1.886 -1.3243 -1.1392 -0.8173
  165MOL0     H22220   6.494   4.856   1.910 -2.3157  1.6632  0.6118
  165MOL0     H22221   6.358   4.855   2.011 -1.1689 -0.2001 -0.2279
  165MOL0     H22222   6.620   4.709   2.049 -1.1361 -0.2513 -2.3712
  165MOL0     H22223   6.479   4.662   2.142  2.3948 -0.6536  2.2354
  165MOL0     H22224   6.601   4.945   2.129  3.4189 -1.6364  0.4330
  165MOL0     H22225   6.459   4.883   2.224 -1.4624 -1.6531 -0.4122
  165MOL0     H22226   6.798   4.978   2.283  2.1003 -0.8695 -1.7147
  165MOL0     H22227   6.966   4.805   2.587  0.7257 -0.3241  0.2781
  165MOL0     H22228   7.040   4.762   2.435  1.2677 -0.5598  1.3443
  165MOL0     H22229   7.062   4.981   2.378 -0.3329  0.0928 -0.5864
  165MOL0     H22230   6.947   5.035   2.512 -0.0910 -0.5476 -1.1504
  165MOL0     H22231   7.112   4.945   2.679 -0.3441 -1.9987 -0.5975
  165MOL0     H22232   7.181   5.082   2.593  1.5729 -0.1864 -2.0313
  165MOL0     H22233   7.249   4.783   2.560  1.1194  0.1035  4.5100
  165MOL0     H22234   7.337   4.927   2.601 -0.1548  3.7846 -1.7341
  165MOL0     H22235   7.543   4.858   2.414 -2.1592  0.0834  1.3287
  165MOL0     H22236   7.745   5.027   2.327  0.6889 -0.6342 -1.4679
  165MOL0     H22237   7.790   5.457   1.962 -0.0729  0.8768 -1.0180
  165MOL0     H22238   7.915   5.671   1.935  2.5720  2.7613  1.1497
  165MOL0     H22239   8.081   5.813   1.954 -2.8878  2.1166  0.1646
  165MOL0     H22240   8.162   5.908   2.073  4.5800 -2.6327 -2.5209
  165MOL0     H22241   8.111   5.634   2.148 -0.5336 -1.0029 -0.6691
  165MOL0     H22242   8.261   5.696   2.053  0.2364 -0.7227  0.9565
  165MOL0     H22243   8.340   5.828   2.226  0.9149  0.8216  4.7746
  165MOL0     H22244   8.182   5.863   2.289 -0.2776  0.0377 -1.5691
  165MOL0     H22245   8.302   5.583   2.299 -1.0349 -0.7120 -0.4739
  165MOL0     H22246   8.175   5.652   2.397  0.3275 -2.2861 -0.7919
  165MOL0     H22247   8.352   5.819   2.498  1.5570 -0.5450  0.4250
  165MOL0     H22248   8.469   5.760   2.381 -0.2906  2.7119  1.3177
  165MOL0     H22249   8.496   5.553   2.471  1.2708  0.7284  1.2731
  165MOL0     H22250   8.522   5.650   2.599 -0.0583 -3.1495  1.3843
  165MOL0     H22251   8.249   5.601   2.633 -1.3407 -1.6100  0.9885
  165MOL0     H22252   8.399   5.593   2.729  0.8131  1.2697 -1.1526
  165MOL0     H22253   8.261   5.374   2.679 -2.4981  1.1905 -3.0119
  165MOL0     H22254   8.324   5.380   2.518 -1.1448  1.4299 -0.0697
  165MOL0     H22255   7.825   5.784   2.332 -0.2670  0.3765  0.1048
  165MOL0     H22256   7.706   5.570   2.357  2.4792  0.3970  2.5756
  165MOL0     H22257   7.424   5.312   2.256 -1.1635 -0.7675  3.0251
  165MOL0     H22258   7.273   5.166   2.329  1.0362  1.9424  2.6885
  165MOL0     H22259   5.831   4.637   1.235  1.1985  0.5641  2.3664
  165MOL0     H22260   5.674   4.469   1.144 -1.1974 -0.1870  0.7495
  165MOL0     H22261   5.526   4.228   1.011  0.0669  0.0936  1.8301
  165MOL0     H22262   5.362   4.180   0.852 -1.1237 -3.4130 -1.3544
  165MOL0     H22263   5.195   4.045   0.736 -1.4622 -0.8733 -0.9008
  165MOL0     H22264   5.142   4.208   0.775 -1.1086  1.4599  2.3201
  165MOL0     H22265   4.951   3.963   0.747 -4.5221  1.9983  2.2949
  165MOL0     H22266   5.003   4.051   0.605 -0.4891  1.8784 -0.9588
  165MOL0     H22267   4.904   4.257   0.668 -1.5499 -1.5905 -2.9438
  165MOL0     H22268   4.851   4.204   0.827  0.8441 -2.0331  0.7358
  165MOL0     H22269   4.676   4.219   0.664  0.1660  0.6297  0.5274
  165MOL0     H22270   4.756   4.087   0.561  1.4523 -2.7595  0.8216
  165MOL0     H22271   4.508   3.923   0.887  0.5628  0.6345  2.3402
  165MOL0     H22272   5.113   4.031   1.171 -1.1977  0.3607 -2.6905
  165MOL0     H22273   5.396   3.968   1.388  1.2450 -1.2559 -3.6035
  165MOL0     H22274   5.257   4.081   1.432 -1.0109 -1.0231 -0.9269
  165MOL0     H22275   5.220   3.941   1.349 -0.8039  1.4865 -2.7068
  166MOL0     O22276   4.152   4.755   6.046  0.1122 -0.3468  0.2942
  166MOL0     C22277   4.054   4.824   6.074  0.7851  0.0420  0.4495
  166MOL0     O22278   3.942   4.845   6.001  0.1825  0.0121  0.3489
  166MOL0     C22279   3.933   4.811   5.864  1.3095  0.0854  0.2867
  166MOL0     C22280   4.028   4.783   5.768 -0.2232 -0.5317  0.0082
  166MOL0     C22281   3.994   4.771   5.634 -0.4647 -0.3503  0.3056
  166MOL0     C22282   3.860   4.778   5.589 -0.3670 -0.6506 -0.9901
  166MOL0     O22283   3.814   4.761   5.463 -0.2093 -0.0544  0.2971
  166MOL0     C22284   3.900   4.730   5.359 -1.4828 -0.6206 -0.3307
  166MOL0     C22285   3.926   4.571   5.336  0.6921 -0.2885  0.5416
  166MOL0     C22286   3.793   4.529   5.270 -0.4156  0.4691 -0.5751
  166MOL0     C22287   3.807   4.380   5.223  0.8353 -0.0187 -0.5897
  166MOL0     C22288   3.673   4.330   5.167 -0.9570 -0.3172  0.9498
  166MOL0     C22289   3.628   4.412   5.039  0.1474  0.0708 -0.1627
  166MOL0     C22290   3.512   4.497   5.086 -1.0864 -0.2374 -0.0330
  166MOL0     C22291   3.469   4.594   4.971  0.0543 -0.1648 -0.6364
  166MOL0     N22292   3.557   4.708   4.964 -1.0189 -0.1584  0.5269
  166MOL0     C22293   3.586   4.804   5.072 -0.2937 -1.7708 -0.2367
  166MOL0     C22294   3.675   4.892   5.008  0.3001  0.3397 -0.8729
  166MOL0     C22295   3.738   5.008   5.082  0.1371 -0.1088 -0.5454
  166MOL0     C22296   3.691   5.147   5.033  0.2654 -0.0425 -0.5388
  166MOL0     C22297   3.762   5.272   5.102  0.1272 -0.8153  0.2700
  166MOL0     C22298   3.907   5.259   5.141 -0.4932  0.1995  0.1195
  166MOL0     O22299   3.979   5.221   5.029 -0.7803  0.4480  0.6124
  166MOL0     C22300   4.105   5.178   5.051  0.1834  0.0379  0.2064
  166MOL0     C22301   4.161   5.087   4.960 -0.6098  0.3552  0.0767
  166MOL0     C22302   4.288   5.031   4.984 -0.0555  0.1054 -0.8318
  166MOL0     C22303   4.370   5.067   5.092  0.3510  1.6316  0.6530
  166MOL0     C22304   4.496   5.014   5.108 -0.8438 -0.0580  0.3059
  166MOL0     O22305   4.543   5.043   5.239 -0.4848  0.2521  0.2189
  166MOL0     C22306   4.661   4.984   5.258  1.1967  0.8855 -0.0299
  166MOL0     C22307   4.782   5.033   5.215 -0.2464 -0.3672 -0.6485
  166MOL0     C22308   4.904   4.973   5.261  0.4529 -0.4871  0.1075
  166MOL0     C22309   4.899   4.846   5.333 -0.0299 -0.4359  0.3675
  166MOL0     O22310   5.011   4.777   5.362  0.7047  0.1672  0.4681
  166MOL0     C22311   5.139   4.826   5.335  0.6240  0.4170 -0.5782
  166MOL0     C22312   5.253   4.744   5.395 -0.6196 -0.0426 -0.2675
  166MOL0     C22313   5.283   4.607   5.329 -0.3055  0.6426  0.1216
  166MOL0     C22314   5.425   4.567   5.353 -0.5062 -0.5936 -0.8088
  166MOL0     C22315   5.470   4.423   5.305  0.3604  0.0456 -1.1711
  166MOL0     C22316   5.392   4.305   5.367 -0.7516  0.2707  0.5346
  166MOL0     C22317   5.393   4.287   5.525 -0.5214 -0.0442  0.2374
  166MOL0     C22318   5.301   4.174   5.564  0.4308 -1.2186 -0.5512
  166MOL0    Cl22319   5.125   4.213   5.522 -0.2873 -0.2958 -0.3035
  166MOL0     C22320   4.775   4.788   5.352  0.1844 -0.2858  1.0172
  166MOL0     C22321   4.654   4.857   5.322 -0.3536  0.0021 -0.0467
  166MOL0     O22322   4.555   4.960   5.021  0.3765  0.1920 -0.1892
  166MOL0     C22323   4.304   5.153   5.184 -0.3250 -0.4040 -0.7541
  166MOL0     C22324   4.172   5.204   5.169 -0.1797 -0.4911  0.0935
  166MOL0     N22325   3.689   4.855   4.873  0.3189  1.0904 -0.5452
  166MOL0     N22326   3.624   4.748   4.856  0.9593  1.2040  0.3976
  166MOL0     C22327   3.764   4.796   5.685  0.3813 -0.8237 -1.2361
  166MOL0     C22328   3.797   4.823   5.817 -0.7065 -0.0997 -0.5107
  166MOL0     C22329   4.041   4.891   6.206 -0.6290  0.8217 -0.5950
  166MOL0     C22330   3.916   4.910   6.266  0.0567 -0.6470  0.5398
  166MOL0     C22331   3.909   4.973   6.392  0.2964  0.4427 -0.7483
  166MOL0     C22332   4.014   5.024   6.461 -0.8017 -0.5780  0.6433
  166MOL0     O22333   4.000   5.095   6.573 -0.3369  0.4143 -0.2328
  166MOL0     C22334   3.968   5.027   6.696  0.0618  0.1609 -0.5046
  166MOL0     C22335   4.032   5.103   6.815 -0.6722  0.0347  0.2422
  166MOL0     C22336   3.985   5.041   6.955  1.0701 -0.8657  0.6281
  166MOL0     C22337   4.104   5.057   7.053 -0.2130 -0.1709  0.5076
  166MOL0     C22338   4.051   5.141   7.161  0.2576  0.5120 -0.3064
  166MOL0     C22339   4.007   5.209   7.255 -0.0678 -0.1916  0.5097
  166MOL0     C22340   4.140   4.994   6.404  0.2832 -0.2817  0.2948
  166MOL0     C22341   4.154   4.928   6.282 -0.0592  0.0569 -0.6950
  166MOL0     C22342   4.295   4.895   6.256  0.1612  0.2687 -0.2646
  166MOL0     H22343   4.133   4.774   5.794 -0.7122 -0.2122  2.2292
  166MOL0     H22344   4.082   4.757   5.570 -1.2549 -0.3477 -0.8165
  166MOL0     H22345   3.856   4.779   5.271  1.6668  1.1607 -1.0717
  166MOL0     H22346   3.997   4.778   5.371 -0.5358 -1.9377 -2.1057
  166MOL0     H22347   3.949   4.512   5.425 -1.6459 -2.4583 -0.1991
  166MOL0     H22348   4.013   4.576   5.269  0.2390  2.7829 -0.0006
  166MOL0     H22349   3.794   4.586   5.177  1.1334 -3.6819 -3.3865
  166MOL0     H22350   3.709   4.542   5.339  1.4516  0.6011  1.8386
  166MOL0     H22351   3.878   4.375   5.140  0.6376 -0.5416 -0.7288
  166MOL0     H22352   3.846   4.313   5.300  1.6034  3.0791  1.9197
  166MOL0     H22353   3.686   4.224   5.145  1.2371 -0.2266  1.5637
  166MOL0     H22354   3.599   4.344   5.246 -1.3412  2.7343  0.1913
  166MOL0     H22355   3.712   4.465   4.994 -2.0454  1.2587 -3.1737
  166MOL0     H22356   3.586   4.333   4.976 -0.5282 -0.3808  0.8373
  166MOL0     H22357   3.537   4.558   5.174 -0.3437 -1.1018  0.3616
  166MOL0     H22358   3.418   4.446   5.109 -0.7136 -1.0352 -0.2597
  166MOL0     H22359   3.475   4.528   4.884  2.8062  1.1453 -1.5448
  166MOL0     H22360   3.364   4.628   4.972 -1.0100 -3.1631 -0.6624
  166MOL0     H22361   3.559   4.800   5.177 -2.8950  0.0699 -0.7368
  166MOL0     H22362   3.710   5.006   5.188  1.4172  1.7432 -0.1134
  166MOL0     H22363   3.844   4.989   5.062  0.1113 -0.5208 -0.2916
  166MOL0     H22364   3.713   5.153   4.926  3.7066  1.6786  0.1214
  166MOL0     H22365   3.589   5.155   5.071 -1.1541 -0.5740 -3.8461
  166MOL0     H22366   3.707   5.295   5.194  2.4787  2.8199  0.9719
  166MOL0     H22367   3.746   5.364   5.046 -0.1514 -1.5991 -0.9754
  166MOL0     H22368   3.908   5.178   5.215 -2.4990  0.2991  0.3182
  166MOL0     H22369   3.949   5.351   5.183  1.5119 -1.5513  2.2804
  166MOL0     H22370   4.117   5.069   4.862  2.5773  0.0226 -1.4140
  166MOL0     H22371   4.319   4.951   4.918 -1.2242 -0.6338 -0.5086
  166MOL0     H22372   4.791   5.123   5.154 -0.5308  0.4088  0.4380
  166MOL0     H22373   5.001   5.011   5.231  0.3012  0.1631  0.4123
  166MOL0     H22374   5.148   4.831   5.226 -2.1600 -0.8476 -0.9412
  166MOL0     H22375   5.139   4.930   5.371  1.3574  0.8253 -1.6969
  166MOL0     H22376   5.342   4.807   5.399  1.3350 -2.3992 -2.7581
  166MOL0     H22377   5.237   4.721   5.501 -0.4038 -0.6430 -0.3622
  166MOL0     H22378   5.220   4.525   5.366  2.1102 -1.2485  0.2853
  166MOL0     H22379   5.283   4.621   5.220 -2.6954  0.7248  0.0782
  166MOL0     H22380   5.443   4.579   5.460 -3.1107  3.2603 -0.5740
  166MOL0     H22381   5.484   4.651   5.315 -0.4051 -0.7360 -0.9667
  166MOL0     H22382   5.574   4.405   5.334  0.2398  2.2393  0.8992
  166MOL0     H22383   5.451   4.422   5.197 -2.8581 -1.1034 -0.7029
  166MOL0     H22384   5.289   4.310   5.331 -1.5829  2.3420  2.9392
  166MOL0     H22385   5.434   4.215   5.322 -0.0388  0.1148  1.4834
  166MOL0     H22386   5.350   4.370   5.582 -0.4428  0.1418  0.0263
  166MOL0     H22387   5.491   4.264   5.567 -1.8498 -2.0550  2.4954
  166MOL0     H22388   5.322   4.080   5.513  0.8978 -2.7958  2.2970
  166MOL0     H22389   5.307   4.161   5.673 -3.5630  0.9219  0.1110
  166MOL0     H22390   4.763   4.694   5.406  2.2216 -3.3464 -3.2037
  166MOL0     H22391   4.556   4.821   5.352 -0.8696 -2.5625 -4.0317
  166MOL0     H22392   4.364   5.183   5.270  0.1529 -0.1957 -1.1581
  166MOL0     H22393   4.137   5.279   5.238  0.8930 -0.9000  1.1207
  166MOL0     H22394   3.665   4.799   5.641  1.1441  0.5361 -2.9797
  166MOL0     H22395   3.718   4.848   5.887 -0.3936 -2.0726  0.6063
  166MOL0     H22396   3.835   4.864   6.212  0.1547 -0.2036  0.0092
  166MOL0     H22397   3.818   4.979   6.451  0.2757  0.3021 -0.7656
  166MOL0     H22398   4.015   4.928   6.702  1.6672  0.8513 -1.1833
  166MOL0     H22399   3.859   5.021   6.708 -0.2123  2.6884 -1.2832
  166MOL0     H22400   3.992   5.205   6.804 -4.8689 -1.4881 -0.6306
  166MOL0     H22401   4.140   5.097   6.799 -0.9345 -2.7878 -1.1074
  166MOL0     H22402   3.958   4.936   6.938  2.5408 -0.9331 -1.7218
  166MOL0     H22403   3.896   5.091   6.993  0.2227  0.2949 -2.5689
  166MOL0     H22404   4.135   4.960   7.091 -2.7722 -0.2068  2.8399
  166MOL0     H22405   4.186   5.112   7.006 -2.4165  1.9439 -1.1653
  166MOL0     H22406   3.967   5.263   7.338 -0.8053  0.4150 -0.2272
  166MOL0     H22407   4.229   5.018   6.462 -1.9926  2.0707  3.1652
  166MOL0     H22408   4.297   4.786   6.263  0.7642  0.3848  3.1135
  166MOL0     H22409   4.324   4.916   6.153 -1.2888  2.3951 -0.2987
  166MOL0     H22410   4.368   4.940   6.325  0.3151 -0.6336  0.1773
  167MOL0     O22411   4.386   6.825   7.704  0.1813  0.6120  0.8386
  167MOL0     C22412   4.452   6.918   7.755 -0.2362  0.1222  0.3588
  167MOL0     O22413   4.519   6.908   7.873 -0.9195  0.0419  1.0136
  167MOL0     C22414   4.489   6.809   7.960  1.0002 -0.3220  0.6020
  167MOL0     C22415   4.510   6.675   7.919 -0.5363  0.1441  0.1379
  167MOL0     C22416   4.457   6.568   7.986  0.1953 -0.3418  0.4232
  167MOL0     C22417   4.380   6.581   8.100 -0.1276  1.4512  0.4459
  167MOL0     O22418   4.334   6.459   8.149  0.1719  0.4943  0.3861
  167MOL0     C22419   4.197   6.461   8.200  0.1656  1.2330 -0.5178
  167MOL0     C22420   4.128   6.323   8.195 -0.4105  0.0099  0.6336
  167MOL0     C22421   4.116   6.270   8.054  0.4921 -0.3712 -0.1634
  167MOL0     C22422   4.235   6.202   8.005 -0.5794 -0.4507  0.0896
  167MOL0     C22423   4.209   6.118   7.880 -0.6990  0.0511 -1.5302
  167MOL0     C22424   4.188   6.200   7.754  0.1163 -0.3715  0.8512
  167MOL0     C22425   4.307   6.293   7.719 -0.2041 -0.2345 -0.7633
  167MOL0     C22426   4.304   6.321   7.568 -0.2474  0.2955  0.7782
  167MOL0     N22427   4.180   6.385   7.515  1.5888 -0.2932 -0.2096
  167MOL0     C22428   4.127   6.515   7.548 -0.3690  0.2697  0.4383
  167MOL0     C22429   4.013   6.526   7.479  1.4121  0.4720  0.7715
  167MOL0     C22430   3.914   6.639   7.478 -0.0680  0.7942 -0.0700
  167MOL0     C22431   3.832   6.633   7.598 -0.1550  0.7666 -0.7022
  167MOL0     C22432   3.767   6.494   7.636  0.1397 -0.7944  0.1937
  167MOL0     C22433   3.656   6.434   7.544  0.9303 -0.5982 -0.1479
  167MOL0     O22434   3.582   6.545   7.496  0.2745  0.1887 -0.0249
  167MOL0     C22435   3.483   6.510   7.412 -0.6454  0.0672  0.5324
  167MOL0     C22436   3.375   6.433   7.446 -0.3724 -0.1816  0.2493
  167MOL0     C22437   3.278   6.400   7.353  0.4484  0.6061  0.7657
  167MOL0     C22438   3.296   6.425   7.214 -0.2792 -1.1322  0.0493
  167MOL0     C22439   3.197   6.369   7.121 -0.8588  0.1900  0.7664
  167MOL0     O22440   3.219   6.397   6.994 -0.2933 -0.1891  0.7375
  167MOL0     C22441   3.145   6.350   6.891  0.4640  0.9415  0.2241
  167MOL0     C22442   3.212   6.365   6.771 -0.7268  0.7514 -0.1331
  167MOL0     C22443   3.154   6.320   6.649  0.1540  0.3551  0.3868
  167MOL0     C22444   3.029   6.268   6.648 -0.1881  0.1669  0.5038
  167MOL0     O22445   2.987   6.229   6.526 -0.1657  0.2693  0.4432
  167MOL0     C22446   2.892   6.126   6.498  0.3248  0.2298 -0.2500
  167MOL0     C22447   2.868   6.076   6.358 -0.7530 -0.6653 -0.0904
  167MOL0     C22448   3.008   6.049   6.302 -0.5631  0.7780  0.4613
  167MOL0     C22449   2.993   5.978   6.163  0.3394  0.0688  1.0824
  167MOL0     C22450   2.968   5.821   6.154 -0.0915  0.0322  0.3638
  167MOL0     C22451   2.920   5.772   6.022  0.3550 -0.2348  0.0127
  167MOL0     C22452   2.924   5.620   6.019  0.1223  0.7807 -0.1529
  167MOL0     C22453   2.969   5.569   5.881  0.0900 -0.1683 -0.3512
  167MOL0    Cl22454   2.976   5.384   5.895 -0.3104  0.5232 -0.9277
  167MOL0     C22455   2.963   6.253   6.767  0.4460 -0.0474 -0.7358
  167MOL0     C22456   3.012   6.301   6.888 -0.0464  0.3883 -0.8456
  167MOL0     O22457   3.119   6.286   7.167 -0.0641  0.2184 -0.6726
  167MOL0     C22458   3.410   6.502   7.174  0.1504  0.1864 -0.0225
  167MOL0     C22459   3.493   6.553   7.280 -1.1860  0.4316  0.9991
  167MOL0     N22460   3.987   6.402   7.423 -0.3410  0.4629  0.1654
  167MOL0     N22461   4.085   6.319   7.445 -0.2426 -0.1868  0.3200
  167MOL0     C22462   4.363   6.712   8.153  0.1674  0.8083 -0.0531
  167MOL0     C22463   4.414   6.829   8.074 -0.5798 -0.4282 -0.1730
  167MOL0     C22464   4.454   7.048   7.685 -0.2318  0.2024  0.5679
  167MOL0     C22465   4.561   7.136   7.700  0.3262 -0.4572  0.4842
  167MOL0     C22466   4.567   7.266   7.632  0.3079 -0.1730  0.3415
  167MOL0     C22467   4.453   7.310   7.562  0.2029 -0.5635  0.1444
  167MOL0     O22468   4.455   7.443   7.517  0.3523 -0.1160  0.0429
  167MOL0     C22469   4.436   7.462   7.375  0.0095 -0.1609 -0.3317
  167MOL0     C22470   4.531   7.388   7.285 -0.7814 -0.5042  0.6444
  167MOL0     C22471   4.682   7.405   7.318 -0.3166 -0.3078 -0.4259
  167MOL0     C22472   4.774   7.350   7.209 -0.4060 -0.4506  1.4304
  167MOL0     C22473   4.912   7.377   7.248  0.5719  0.4992 -0.3367
  167MOL0     C22474   5.033   7.378   7.276 -0.8415  0.2757 -0.9281
  167MOL0     C22475   4.340   7.232   7.560 -0.3418 -0.5528  0.7139
  167MOL0     C22476   4.343   7.096   7.616  0.0420  0.5878 -0.5341
  167MOL0     C22477   4.212   7.021   7.616 -0.0449  0.0255 -0.0247
  167MOL0     H22478   4.569   6.654   7.830  2.5545  3.2782  1.2315
  167MOL0     H22479   4.480   6.469   7.950  2.3103  0.3788 -0.3504
  167MOL0     H22480   4.200   6.489   8.306  0.5718 -0.1778 -0.1355
  167MOL0     H22481   4.142   6.540   8.147  1.5285  2.3092 -0.3811
  167MOL0     H22482   4.031   6.324   8.246 -0.6010  2.1297  0.3157
  167MOL0     H22483   4.174   6.246   8.257 -1.7215 -1.6375 -0.3479
  167MOL0     H22484   4.082   6.349   7.985  2.8164 -0.8790 -2.0210
  167MOL0     H22485   4.031   6.201   8.053  0.6332 -0.6528  2.0895
  167MOL0     H22486   4.310   6.279   7.985  0.5319 -2.3666 -4.0988
  167MOL0     H22487   4.283   6.148   8.087  0.2805 -0.9865 -0.7508
  167MOL0     H22488   4.282   6.038   7.861 -0.3039 -0.0985  0.4519
  167MOL0     H22489   4.119   6.060   7.901 -0.3232  0.0757  0.3425
  167MOL0     H22490   4.186   6.123   7.677 -1.0671  0.8546 -0.4087
  167MOL0     H22491   4.093   6.255   7.761 -1.4277 -2.8437  0.3820
  167MOL0     H22492   4.398   6.240   7.750 -0.7012  0.3530  1.9837
  167MOL0     H22493   4.300   6.382   7.782 -1.1395 -1.4361  0.9072
  167MOL0     H22494   4.396   6.379   7.555  0.7960 -1.5103 -0.2391
  167MOL0     H22495   4.318   6.229   7.511  0.2271  1.5752 -1.2646
  167MOL0     H22496   4.181   6.595   7.597 -2.2466  2.9190 -1.5611
  167MOL0     H22497   3.958   6.739   7.481  1.4732  0.1664 -0.5842
  167MOL0     H22498   3.855   6.631   7.386  1.4551 -0.0591 -1.0268
  167MOL0     H22499   3.890   6.672   7.682  0.9351 -0.7511 -0.7050
  167MOL0     H22500   3.743   6.693   7.577 -1.2407 -0.7609 -0.5754
  167MOL0     H22501   3.729   6.507   7.737  1.8572 -3.2212  1.2440
  167MOL0     H22502   3.855   6.431   7.648  1.6713  1.0019 -1.0316
  167MOL0     H22503   3.589   6.368   7.599 -4.1777  0.3582 -4.4978
  167MOL0     H22504   3.696   6.374   7.462 -2.9699 -0.7288 -2.1618
  167MOL0     H22505   3.360   6.400   7.548  2.3870 -0.4784  0.6324
  167MOL0     H22506   3.184   6.371   7.398  1.6389  0.1887  3.1544
  167MOL0     H22507   3.310   6.410   6.767  0.6191 -1.9036  0.4838
  167MOL0     H22508   3.206   6.334   6.555 -0.9042  1.2218 -0.0835
  167MOL0     H22509   2.922   6.037   6.554  0.0830  0.9780  1.1446
  167MOL0     H22510   2.794   6.165   6.528  0.4739 -0.9694  2.0067
  167MOL0     H22511   2.802   5.989   6.364 -1.7605  0.1634  2.2046
  167MOL0     H22512   2.810   6.139   6.290 -1.7403 -2.2967 -0.8015
  167MOL0     H22513   3.063   6.142   6.286  2.2649 -1.0068 -0.9779
  167MOL0     H22514   3.065   5.988   6.373  1.4908  2.8778  0.7246
  167MOL0     H22515   3.085   5.994   6.106 -0.2420  3.6305  0.9126
  167MOL0     H22516   2.913   6.031   6.111  0.6291 -0.9538 -0.4783
  167MOL0     H22517   2.888   5.810   6.228 -0.7995  3.3418  0.2325
  167MOL0     H22518   3.057   5.763   6.180 -0.8696 -1.3704 -0.0083
  167MOL0     H22519   2.820   5.815   6.006 -0.3999 -2.0841 -0.5113
  167MOL0     H22520   2.984   5.808   5.941  0.1181  0.4535  0.1250
  167MOL0     H22521   2.824   5.577   6.019  0.5114 -0.1971 -1.1674
  167MOL0     H22522   2.985   5.569   6.094 -0.8991 -1.1716 -0.5998
  167MOL0     H22523   2.900   5.600   5.802  1.7260  4.9865 -0.1099
  167MOL0     H22524   3.069   5.602   5.853  1.0837 -2.7010 -0.0275
  167MOL0     H22525   2.868   6.202   6.777  1.8585 -2.5615  1.3607
  167MOL0     H22526   2.948   6.283   6.974  0.6319 -4.1159 -1.0512
  167MOL0     H22527   3.417   6.540   7.072  0.8562  0.8864  0.2803
  167MOL0     H22528   3.576   6.619   7.256 -1.9623  1.2594  0.5180
  167MOL0     H22529   4.304   6.719   8.244  0.2998 -0.1885  0.1142
  167MOL0     H22530   4.401   6.934   8.096  0.5256 -0.0164 -1.3848
  167MOL0     H22531   4.638   7.099   7.767  0.4474 -2.1660 -0.5368
  167MOL0     H22532   4.654   7.329   7.642 -0.4157  0.4282  4.6736
  167MOL0     H22533   4.435   7.570   7.354 -1.4174 -0.3616 -1.4763
  167MOL0     H22534   4.339   7.428   7.338  0.0324 -0.9010  0.2798
  167MOL0     H22535   4.517   7.423   7.182  1.0852  0.2320  0.5960
  167MOL0     H22536   4.512   7.280   7.278  0.4778 -0.8042  1.3819
  167MOL0     H22537   4.701   7.352   7.412 -0.6843 -1.8278 -1.1912
  167MOL0     H22538   4.710   7.509   7.340  1.5873 -1.4644  3.5484
  167MOL0     H22539   4.755   7.243   7.197 -2.4602  0.0158 -0.2853
  167MOL0     H22540   4.766   7.391   7.107  4.8442 -0.8796  0.5921
  167MOL0     H22541   5.137   7.382   7.302 -0.8926 -4.3379  0.7996
  167MOL0     H22542   4.243   7.265   7.525 -0.6618 -0.6171  1.5058
  167MOL0     H22543   4.179   6.978   7.711  0.9253 -0.4405  0.1174
  167MOL0     H22544   4.143   7.098   7.580 -1.5407 -0.8592  0.8397
  167MOL0     H22545   4.208   6.935   7.548  0.9122 -0.9692  1.1182
  168MOL0     O22546   6.391   4.024  10.561  0.6584 -1.0969  0.4151
  168MOL0     C22547   6.326   4.116  10.501  0.4974 -0.1439 -0.7024
  168MOL0     O22548   6.371   4.238  10.471 -0.3388  0.2008  0.3467
  168MOL0     C22549   6.511   4.242  10.462  0.5842 -0.4818 -0.1697
  168MOL0     C22550   6.594   4.255  10.568  1.0342  0.7922 -0.3133
  168MOL0     C22551   6.729   4.245  10.546 -0.5368  0.2801  0.1831
  168MOL0     C22552   6.783   4.221  10.426 -0.2750 -0.8162  0.4368
  168MOL0     O22553   6.915   4.196  10.431 -0.7188 -0.6484 -0.0782
  168MOL0     C22554   6.977   4.126  10.312  0.5691 -0.1392 -0.2667
  168MOL0     C22555   7.035   4.206  10.197 -0.2038  0.5159 -0.1998
  168MOL0     C22556   7.124   4.111  10.112  0.3583 -0.2533 -1.1029
  168MOL0     C22557   7.207   4.176  10.006 -0.6498 -0.4645  0.8097
  168MOL0     C22558   7.307   4.081   9.940 -1.2423  0.0448  0.0046
  168MOL0     C22559   7.367   4.138   9.812  0.8777  1.1373 -0.7869
  168MOL0     C22560   7.443   4.021   9.747  1.0377 -0.8693 -0.2661
  168MOL0     C22561   7.546   3.953   9.842 -0.5224 -0.1259 -0.1035
  168MOL0     N22562   7.635   3.858   9.767 -1.3067  0.3387 -0.1240
  168MOL0     C22563   7.642   3.719   9.791  1.2447  0.2678 -0.0748
  168MOL0     C22564   7.736   3.686   9.703  1.3606 -0.1918 -0.2304
  168MOL0     C22565   7.770   3.539   9.683 -0.5846  0.3630 -0.2905
  168MOL0     C22566   7.863   3.471   9.795  1.1939  0.0741 -0.1389
  168MOL0     C22567   7.968   3.565   9.860  0.2367  0.2654 -0.0654
  168MOL0     C22568   8.069   3.477   9.943  0.6716 -0.2707  0.0502
  168MOL0     O22569   8.164   3.560  10.011 -0.2175  0.8807 -0.3051
  168MOL0     C22570   8.280   3.588   9.945 -0.1107 -0.5245  0.8422
  168MOL0     C22571   8.314   3.545   9.816 -0.0678 -0.1435 -0.6057
  168MOL0     C22572   8.439   3.582   9.760 -0.2716  0.9784  0.7588
  168MOL0     C22573   8.541   3.647   9.826 -0.5593  0.3974  0.2174
  168MOL0     C22574   8.666   3.679   9.764  0.1990 -0.1597 -0.8036
  168MOL0     O22575   8.773   3.724   9.832 -0.2270  0.1798 -0.9452
  168MOL0     C22576   8.893   3.737   9.773  0.3325 -0.1750 -0.2812
  168MOL0     C22577   8.936   3.692   9.648  0.4764  0.6255  0.0604
  168MOL0     C22578   9.064   3.740   9.594 -0.0428 -0.1068 -0.0062
  168MOL0     C22579   9.149   3.825   9.671  0.1254  0.2268 -1.1073
  168MOL0     O22580   9.274   3.872   9.635  0.4453  0.2651  0.7110
  168MOL0     C22581   9.324   3.896   9.504 -0.3698 -0.3668 -0.4195
  168MOL0     C22582   9.469   3.941   9.537  0.0346 -0.0676  0.3272
  168MOL0     C22583   9.548   4.002   9.427 -0.9761 -0.6471  0.4228
  168MOL0     C22584   9.693   4.043   9.472 -0.6135  0.2520  0.5842
  168MOL0     C22585   9.778   4.113   9.369 -0.2828  0.3753 -0.5522
  168MOL0     C22586   9.850   4.021   9.271  0.2967 -1.1695 -0.3525
  168MOL0     C22587   9.978   3.959   9.334 -0.9255 -0.2913 -0.8707
  168MOL0     C22588  10.061   3.907   9.217  0.2732  0.0468  0.0870
  168MOL0    Cl22589  10.165   3.769   9.281  0.0501 -0.3549 -0.0379
  168MOL0     C22590   9.109   3.841   9.800  0.6198 -0.8949  0.2745
  168MOL0     C22591   8.981   3.812   9.851 -0.6588 -0.2936  0.1010
  168MOL0     O22592   8.654   3.688   9.640 -0.3701 -0.0690  0.2005
  168MOL0     C22593   8.508   3.671   9.964  0.2088 -0.4806 -0.3544
  168MOL0     C22594   8.383   3.649  10.018  0.7125 -0.1597 -1.1863
  168MOL0     N22595   7.797   3.795   9.649 -0.1357  0.2436 -0.3181
  168MOL0     N22596   7.741   3.899   9.695 -0.1867 -1.4975  0.7029
  168MOL0     C22597   6.702   4.211  10.305 -0.0654  0.2030  0.6875
  168MOL0     C22598   6.564   4.215  10.329  0.3564 -0.7169 -1.1384
  168MOL0     C22599   6.189   4.074  10.466 -1.1094 -0.1123 -0.1365
  168MOL0     C22600   6.139   4.125  10.343  0.6381 -0.1946  0.2334
  168MOL0     C22601   6.001   4.110  10.302  0.1699  1.4351  0.3429
  168MOL0     C22602   5.907   4.049  10.391  0.6329 -0.6571  0.1318
  168MOL0     O22603   5.776   4.041  10.359  0.4961  0.2199 -0.5574
  168MOL0     C22604   5.724   4.116  10.244 -0.5832 -0.1595  0.4044
  168MOL0     C22605   5.579   4.076  10.201 -0.1232  0.6514 -0.0679
  168MOL0     C22606   5.535   4.161  10.076 -0.2022  0.0954  0.2315
  168MOL0     C22607   5.386   4.180  10.066 -0.2244  0.2764  0.2626
  168MOL0     C22608   5.315   4.056  10.035  0.1684  0.0506  0.1466
  168MOL0     C22609   5.258   3.947  10.016  0.1812 -0.8119  0.1513
  168MOL0     C22610   5.959   4.003  10.514 -0.2707  0.7532  1.6485
  168MOL0     C22611   6.098   4.012  10.554  0.2847 -0.3669  0.6120
  168MOL0     C22612   6.119   3.968  10.698 -0.7133 -0.0117 -0.4013
  168MOL0     H22613   6.553   4.266  10.668  5.5777  1.7036  1.6642
  168MOL0     H22614   6.789   4.239  10.637  2.0681 -1.7274 -1.5194
  168MOL0     H22615   7.060   4.068  10.352  0.5299 -0.5479 -0.7592
  168MOL0     H22616   6.917   4.045  10.269 -2.9514  0.7135  2.5351
  168MOL0     H22617   7.095   4.276  10.256  1.9911 -2.7173  1.7423
  168MOL0     H22618   6.960   4.248  10.129 -0.1047  3.3560  1.2963
  168MOL0     H22619   7.050   4.045  10.068 -1.2502  0.8935 -0.2340
  168MOL0     H22620   7.195   4.060  10.179  0.5945  2.0612  0.5429
  168MOL0     H22621   7.136   4.211   9.931  3.3453  1.1021 -2.6608
  168MOL0     H22622   7.273   4.257  10.038 -0.9029  0.6080 -1.2472
  168MOL0     H22623   7.385   4.056  10.013 -0.6192 -1.4003 -1.0948
  168MOL0     H22624   7.263   3.988   9.903  0.0379 -0.6977  0.2691
  168MOL0     H22625   7.292   4.164   9.736 -1.1256 -0.8127  0.4031
  168MOL0     H22626   7.425   4.230   9.820  0.0028  1.5619  1.1104
  168MOL0     H22627   7.500   4.077   9.672 -0.1294  0.9383  0.1540
  168MOL0     H22628   7.369   3.953   9.704 -0.0449  0.6998 -0.9745
  168MOL0     H22629   7.600   4.041   9.879  1.1781 -0.7896 -0.9020
  168MOL0     H22630   7.503   3.893   9.923 -0.3302 -1.5967 -1.0522
  168MOL0     H22631   7.576   3.651   9.844  2.6552 -0.7646  0.4127
  168MOL0     H22632   7.681   3.476   9.681 -1.0266  0.9410 -3.1856
  168MOL0     H22633   7.825   3.544   9.589  0.7612  0.3491  0.4654
  168MOL0     H22634   7.800   3.426   9.873  2.4667 -0.8062  0.4139
  168MOL0     H22635   7.919   3.388   9.752  2.7582  1.3094 -0.5744
  168MOL0     H22636   7.911   3.627   9.930  0.6185 -1.8429  2.2031
  168MOL0     H22637   8.021   3.621   9.782  2.4045 -2.2325 -0.5226
  168MOL0     H22638   8.113   3.400   9.880 -1.5734 -2.0230  0.4783
  168MOL0     H22639   8.003   3.418  10.008  1.3038 -2.7774 -1.4791
  168MOL0     H22640   8.255   3.499   9.737  2.9418 -1.6091 -2.1547
  168MOL0     H22641   8.458   3.556   9.657 -0.1250  3.0778  0.2192
  168MOL0     H22642   8.869   3.640   9.581 -1.3784  0.4959  1.8941
  168MOL0     H22643   9.099   3.722   9.493  2.0573 -0.4845  0.7511
  168MOL0     H22644   9.314   3.814   9.432  1.7866  1.5469 -3.1462
  168MOL0     H22645   9.284   3.990   9.463  0.4537  0.6038  0.9388
  168MOL0     H22646   9.461   4.014   9.618 -2.3376  1.1784 -0.8924
  168MOL0     H22647   9.516   3.849   9.571  1.6958 -1.6501 -5.1624
  168MOL0     H22648   9.555   3.927   9.348  2.1410 -0.1771  0.1120
  168MOL0     H22649   9.500   4.086   9.377  1.7219 -0.1070 -1.5283
  168MOL0     H22650   9.733   3.942   9.486  1.6126  0.8141 -1.2245
  168MOL0     H22651   9.693   4.091   9.570 -0.3082  1.4272  0.0258
  168MOL0     H22652   9.851   4.183   9.409 -0.4291  0.1468  0.1211
  168MOL0     H22653   9.710   4.170   9.304  1.1409  1.6239 -1.0029
  168MOL0     H22654   9.788   3.947   9.220 -0.0504 -0.3945 -1.0804
  168MOL0     H22655   9.881   4.093   9.194 -1.6986  1.7773  1.3816
  168MOL0     H22656   9.950   3.879   9.403 -1.4231 -1.7466 -2.6848
  168MOL0     H22657  10.034   4.039   9.384 -1.3691 -0.0712 -0.7208
  168MOL0     H22658   9.996   3.887   9.132  2.0064 -2.6379 -0.7364
  168MOL0     H22659  10.132   3.983   9.184 -0.2787 -0.9827 -4.0353
  168MOL0     H22660   9.184   3.878   9.870 -2.1133  0.8209  2.5354
  168MOL0     H22661   8.945   3.847   9.948 -1.8149  0.1463 -0.4723
  168MOL0     H22662   8.592   3.721  10.009  1.2928 -1.3771 -1.3111
  168MOL0     H22663   8.364   3.682  10.120 -0.7968 -1.1476 -1.1235
  168MOL0     H22664   6.735   4.193  10.203 -3.4333 -0.8917 -0.3382
  168MOL0     H22665   6.498   4.202  10.245 -0.2970 -3.6107 -0.2816
  168MOL0     H22666   6.202   4.175  10.270  0.9000 -1.3997 -0.3929
  168MOL0     H22667   5.977   4.139  10.201 -1.0676  0.1327  0.2328
  168MOL0     H22668   5.779   4.096  10.152 -0.6611  3.3784 -0.5632
  168MOL0     H22669   5.719   4.225  10.254 -1.4775  0.0946 -2.1003
  168MOL0     H22670   5.512   4.085  10.287 -0.7917 -1.0610 -0.3753
  168MOL0     H22671   5.585   3.970  10.173  4.3982 -0.6064  4.1558
  168MOL0     H22672   5.579   4.111   9.989 -1.5346 -0.5033 -0.1266
  168MOL0     H22673   5.583   4.259  10.083  1.2012 -0.5728  0.3746
  168MOL0     H22674   5.342   4.230  10.152 -1.6220  2.4006 -1.5624
  168MOL0     H22675   5.369   4.236   9.973  2.7197 -2.2918 -2.0603
  168MOL0     H22676   5.221   3.848   9.999 -4.0381  0.0486  2.7830
  168MOL0     H22677   5.888   3.959  10.584 -1.4884 -1.1499 -0.6432
  168MOL0     H22678   6.114   4.062  10.754 -0.9188  0.2753 -0.8969
  168MOL0     H22679   6.033   3.909  10.732 -1.8585  1.3909 -0.7352
  168MOL0     H22680   6.216   3.919  10.696 -0.5862  0.2418 -2.2300
  169MOL0     O22681   0.448   4.640   3.891 -0.1745 -0.1474 -0.1672
  169MOL0     C22682   0.522   4.620   3.794 -0.1623 -0.5854  0.2176
  169MOL0     O22683   0.488   4.552   3.673  1.0457 -0.8644  0.0629
  169MOL0     C22684   0.371   4.474   3.669  0.4130  0.6638  0.3970
  169MOL0     C22685   0.329   4.383   3.773  0.3789 -0.8714  0.2063
  169MOL0     C22686   0.209   4.315   3.759 -0.0232 -0.0872 -0.5221
  169MOL0     C22687   0.124   4.332   3.646  0.2981  0.2114 -1.3262
  169MOL0     O22688   0.012   4.243   3.645  0.7828 -0.4635  0.3994
  169MOL0     C22689  -0.095   4.262   3.540 -0.1439  0.8831 -0.3824
  169MOL0     C22690  -0.076   4.170   3.411 -0.9074 -0.0456 -0.0653
  169MOL0     C22691  -0.171   4.184   3.310 -0.1321 -0.3377  0.1801
  169MOL0     C22692  -0.318   4.151   3.349 -0.1095  0.2430  0.4218
  169MOL0     C22693  -0.424   4.189   3.245  0.1876  0.1305 -0.1354
  169MOL0     C22694  -0.438   4.082   3.128 -0.1516 -0.6043 -0.3861
  169MOL0     C22695  -0.540   4.146   3.027  0.8740  0.2651 -0.4955
  169MOL0     C22696  -0.542   4.047   2.910  0.2599  0.5122 -0.3583
  169MOL0     N22697  -0.666   4.052   2.833 -0.1518  0.5823  1.0105
  169MOL0     C22698  -0.710   4.164   2.761  0.3747 -0.1684  0.4486
  169MOL0     C22699  -0.827   4.119   2.715  0.0438 -0.9844 -0.0312
  169MOL0     C22700  -0.925   4.224   2.649 -0.2530  0.5027 -0.2389
  169MOL0     C22701  -1.064   4.161   2.597  0.5623  0.3717 -0.1606
  169MOL0     C22702  -1.047   4.122   2.455 -0.2409  0.4412  0.4971
  169MOL0     C22703  -1.158   4.012   2.422  0.5908  0.8941 -0.4167
  169MOL0     O22704  -1.168   4.003   2.280 -0.4754 -0.0331 -0.3655
  169MOL0     C22705  -1.215   4.116   2.221  0.3125 -0.0363  0.9833
  169MOL0     C22706  -1.144   4.167   2.118 -0.4786 -0.9212 -0.0351
  169MOL0     C22707  -1.172   4.287   2.057 -0.9237 -0.0391 -0.3157
  169MOL0     C22708  -1.275   4.360   2.109  0.8556 -0.4431 -0.1493
  169MOL0     C22709  -1.308   4.497   2.057  0.3765 -0.1256 -0.1998
  169MOL0     O22710  -1.350   4.509   1.918  0.6078 -0.2031 -0.8383
  169MOL0     C22711  -1.408   4.391   1.858  0.5403 -0.1037 -0.3059
  169MOL0     C22712  -1.331   4.303   1.775 -0.5675 -0.1415  0.0808
  169MOL0     C22713  -1.402   4.183   1.716 -0.3028 -0.3560  0.0836
  169MOL0     C22714  -1.545   4.184   1.716 -0.0640  0.0088 -0.1173
  169MOL0     O22715  -1.617   4.091   1.645  0.5744 -0.9955 -0.3943
  169MOL0     C22716  -1.586   3.957   1.668  0.6550  0.2205 -0.6586
  169MOL0     C22717  -1.698   3.870   1.726 -0.2607  0.4980  0.1567
  169MOL0     C22718  -1.814   3.829   1.634 -0.0577  0.4584  0.4326
  169MOL0     C22719  -1.919   3.749   1.713  0.2964  0.0699 -0.6582
  169MOL0     C22720  -2.013   3.841   1.788 -0.7955  0.4706 -0.8078
  169MOL0     C22721  -2.129   3.782   1.866  0.2195 -0.0369  0.7209
  169MOL0     C22722  -2.201   3.891   1.948 -0.7498  0.3491 -0.6737
  169MOL0     C22723  -2.258   3.846   2.078 -0.3600 -0.6193  0.1357
  169MOL0    Cl22724  -2.128   3.832   2.208 -0.1456 -0.0671  0.0891
  169MOL0     C22725  -1.616   4.275   1.787 -0.1782  0.7123  0.4576
  169MOL0     C22726  -1.546   4.372   1.861  0.3831 -1.5090 -0.1513
  169MOL0     O22727  -1.304   4.595   2.132  0.3216 -0.1876 -0.7287
  169MOL0     C22728  -1.361   4.307   2.210  0.0518 -1.1480 -0.1688
  169MOL0     C22729  -1.331   4.181   2.259  0.5648  0.6813 -0.0371
  169MOL0     N22730  -0.845   3.988   2.736 -0.2691  0.0441  0.1481
  169MOL0     N22731  -0.736   3.939   2.800  0.9500  0.8574 -0.1710
  169MOL0     C22732   0.163   4.425   3.555  0.5401 -1.0332  0.8285
  169MOL0     C22733   0.282   4.495   3.560 -0.1954 -0.3449 -0.7652
  169MOL0     C22734   0.663   4.667   3.807 -0.0887 -0.9368  0.0654
  169MOL0     C22735   0.741   4.637   3.928  0.3008 -0.3582  0.5279
  169MOL0     C22736   0.878   4.653   3.928 -0.1867  0.1644  0.4732
  169MOL0     C22737   0.962   4.701   3.821  0.4047 -0.7246  0.0820
  169MOL0     O22738   1.103   4.701   3.830  0.0469 -0.1590 -0.4150
  169MOL0     C22739   1.177   4.735   3.714 -0.2525 -0.2186  0.5408
  169MOL0     C22740   1.313   4.662   3.721  0.0015 -0.6581 -1.2441
  169MOL0     C22741   1.404   4.683   3.845  0.4415 -0.9333 -0.1625
  169MOL0     C22742   1.519   4.585   3.832  0.0241 -0.3547 -0.5904
  169MOL0     C22743   1.635   4.609   3.917 -0.5720 -0.5383  0.1423
  169MOL0     C22744   1.728   4.639   3.996 -0.1800 -0.3024  0.6561
  169MOL0     C22745   0.889   4.748   3.710  0.6319 -0.3689 -0.2055
  169MOL0     C22746   0.744   4.731   3.703  0.1491 -0.2142 -0.2730
  169MOL0     C22747   0.673   4.779   3.582 -0.8557 -0.7121 -0.0653
  169MOL0     H22748   0.396   4.366   3.857 -1.8336  1.3057  2.5656
  169MOL0     H22749   0.179   4.238   3.829  1.8147 -2.8520 -2.5722
  169MOL0     H22750  -0.188   4.233   3.589  0.0265  2.3177  0.8580
  169MOL0     H22751  -0.108   4.362   3.497 -2.1801  0.9880  0.3682
  169MOL0     H22752  -0.074   4.067   3.448 -0.1345  0.5895  1.7814
  169MOL0     H22753   0.023   4.186   3.369 -0.1654 -0.3630  1.4686
  169MOL0     H22754  -0.144   4.120   3.225 -1.6868  1.5145 -1.8391
  169MOL0     H22755  -0.192   4.288   3.283 -4.0299 -0.3915  2.2086
  169MOL0     H22756  -0.323   4.043   3.369  1.5863  0.0164 -0.2006
  169MOL0     H22757  -0.352   4.213   3.432 -2.9183 -0.1499 -0.3340
  169MOL0     H22758  -0.522   4.185   3.295  0.4942 -0.5702  0.4328
  169MOL0     H22759  -0.406   4.291   3.211 -0.2987  0.5151  0.7247
  169MOL0     H22760  -0.340   4.048   3.093  0.8502 -0.3709  1.9945
  169MOL0     H22761  -0.480   3.991   3.170 -0.4725 -0.1915  0.1958
  169MOL0     H22762  -0.503   4.246   3.002 -0.8755  0.6766 -1.5857
  169MOL0     H22763  -0.630   4.152   3.090  0.7574  1.4932 -0.7556
  169MOL0     H22764  -0.454   4.062   2.846  1.5159 -2.4467  0.4820
  169MOL0     H22765  -0.550   3.943   2.941 -1.4282  0.4936 -0.8092
  169MOL0     H22766  -0.662   4.261   2.763 -1.6892  0.8999  0.6603
  169MOL0     H22767  -0.941   4.301   2.725 -0.5575 -1.6680  2.0358
  169MOL0     H22768  -0.890   4.268   2.555 -2.9756  1.2000 -1.0115
  169MOL0     H22769  -1.091   4.083   2.668 -0.5971  0.0347 -0.9512
  169MOL0     H22770  -1.147   4.231   2.615 -0.2180  0.0471 -2.2420
  169MOL0     H22771  -0.953   4.069   2.439 -0.8814 -0.2744 -1.1574
  169MOL0     H22772  -1.053   4.208   2.386  0.6546 -0.6883 -1.0516
  169MOL0     H22773  -1.254   4.043   2.465 -0.1179 -2.4324  0.6366
  169MOL0     H22774  -1.137   3.912   2.460  1.1179  0.6226 -1.3774
  169MOL0     H22775  -1.052   4.117   2.087 -1.2405 -1.6397 -1.2139
  169MOL0     H22776  -1.100   4.332   1.989 -1.9425 -0.2699 -1.5817
  169MOL0     H22777  -1.225   4.318   1.752 -0.8426  0.4711 -0.8741
  169MOL0     H22778  -1.341   4.120   1.651  1.6200  0.7754  0.7126
  169MOL0     H22779  -1.555   3.907   1.576 -1.5405  0.4656 -1.6164
  169MOL0     H22780  -1.501   3.945   1.735 -0.9097 -2.8006  1.0076
  169MOL0     H22781  -1.656   3.781   1.772 -3.7819 -1.8698 -0.7725
  169MOL0     H22782  -1.727   3.940   1.806  3.2841  2.3071  0.0463
  169MOL0     H22783  -1.851   3.924   1.595 -2.8710 -0.6957  0.0918
  169MOL0     H22784  -1.778   3.758   1.559 -1.1989 -1.6472  1.7986
  169MOL0     H22785  -1.863   3.682   1.779 -0.8999  0.3948  0.7305
  169MOL0     H22786  -1.967   3.687   1.636  0.2143 -0.6290 -0.0540
  169MOL0     H22787  -2.047   3.920   1.721  0.0592  2.3241  0.8323
  169MOL0     H22788  -1.950   3.884   1.867 -0.9582  0.5917 -0.7431
  169MOL0     H22789  -2.195   3.721   1.803  2.6928 -0.6545 -1.3983
  169MOL0     H22790  -2.062   3.719   1.925  2.0183  0.4451 -0.7250
  169MOL0     H22791  -2.284   3.931   1.889  0.1542  0.6747 -1.7675
  169MOL0     H22792  -2.128   3.971   1.965  0.6727 -0.7236 -1.5385
  169MOL0     H22793  -2.335   3.914   2.116 -0.5991 -1.3868  1.0605
  169MOL0     H22794  -2.305   3.747   2.080  2.8990 -2.2869  1.9332
  169MOL0     H22795  -1.724   4.288   1.781 -0.7851 -0.6799  4.9239
  169MOL0     H22796  -1.596   4.438   1.931 -0.3930 -1.0842 -1.0877
  169MOL0     H22797  -1.438   4.378   2.241  0.9749  0.0688 -0.6166
  169MOL0     H22798  -1.399   4.153   2.338  1.3033 -1.5478 -0.1206
  169MOL0     H22799   0.092   4.443   3.476 -0.1774 -1.7369  1.2937
  169MOL0     H22800   0.319   4.570   3.491  2.5331 -1.7594 -0.9480
  169MOL0     H22801   0.681   4.597   4.009 -0.4143  2.6276  1.6004
  169MOL0     H22802   0.922   4.603   4.013  1.0110  0.8695  0.2915
  169MOL0     H22803   1.182   4.844   3.710 -6.0331  0.3497  0.4067
  169MOL0     H22804   1.128   4.704   3.621 -2.0855  3.8038 -0.0499
  169MOL0     H22805   1.373   4.692   3.635  0.4184 -0.7134 -0.9775
  169MOL0     H22806   1.295   4.554   3.709 -1.7704 -0.5225 -0.2714
  169MOL0     H22807   1.352   4.645   3.933 -0.8979  0.9454 -0.0625
  169MOL0     H22808   1.434   4.788   3.854 -0.4435 -0.5631 -1.2488
  169MOL0     H22809   1.485   4.484   3.853  2.9690 -1.4387 -0.5954
  169MOL0     H22810   1.552   4.591   3.728 -2.5142  1.2522 -1.4046
  169MOL0     H22811   1.805   4.676   4.061 -0.7393  0.3074  0.9847
  169MOL0     H22812   0.928   4.793   3.619 -1.9438 -0.0578 -1.2265
  169MOL0     H22813   0.687   4.717   3.493 -0.8887  0.6795 -1.0798
  169MOL0     H22814   0.564   4.785   3.592 -1.2192 -2.5949 -2.2376
  169MOL0     H22815   0.703   4.884   3.568 -5.1568  1.0994  2.1856
  170MOL0     O22816   9.668   8.740   4.677  0.2449  0.0514 -0.1292
  170MOL0     C22817   9.555   8.754   4.719 -0.5096 -0.0904 -0.1674
  170MOL0     O22818   9.521   8.728   4.844 -0.2217 -0.2585 -0.2949
  170MOL0     C22819   9.609   8.662   4.929 -0.7294  0.0686 -0.3645
  170MOL0     C22820   9.602   8.519   4.951 -0.5769 -0.1557 -0.1311
  170MOL0     C22821   9.690   8.452   5.041  0.1907 -0.3691  0.1321
  170MOL0     C22822   9.794   8.536   5.095  0.5797  0.8632  0.3817
  170MOL0     O22823   9.898   8.502   5.177  0.2845 -0.2868 -0.2343
  170MOL0     C22824   9.868   8.393   5.263 -0.1049  0.4188  0.0913
  170MOL0     C22825  10.010   8.361   5.327  0.3390  0.1086 -0.1794
  170MOL0     C22826   9.995   8.239   5.415 -0.3711 -0.0646  0.5197
  170MOL0     C22827  10.115   8.153   5.452  0.3522  1.2574  0.2240
  170MOL0     C22828  10.178   8.078   5.336 -0.1316  0.1406 -0.2064
  170MOL0     C22829  10.295   7.993   5.386  0.2008  0.0233 -0.2851
  170MOL0     C22830  10.354   7.896   5.277 -0.5538  0.1512  0.7273
  170MOL0     C22831  10.435   7.954   5.161 -0.8674  0.1007 -0.0482
  170MOL0     N22832  10.496   7.845   5.081  0.4928 -0.1985 -0.2526
  170MOL0     C22833  10.629   7.821   5.068 -0.4807  0.6099  1.4033
  170MOL0     C22834  10.642   7.737   4.962  0.0384 -0.1475  0.4156
  170MOL0     C22835  10.760   7.672   4.902 -0.0242 -0.9221 -0.5421
  170MOL0     C22836  10.884   7.705   4.977  1.0346  0.0812 -0.6540
  170MOL0     C22837  11.005   7.647   4.904 -0.5105 -0.1709  0.2193
  170MOL0     C22838  11.131   7.678   4.987  0.4546  0.8441  0.2925
  170MOL0     O22839  11.133   7.623   5.125  0.3950 -0.4634  0.4255
  170MOL0     C22840  11.174   7.494   5.154 -0.9811  0.0411  0.5730
  170MOL0     C22841  11.185   7.392   5.054  0.6963 -0.3690  0.3768
  170MOL0     C22842  11.231   7.265   5.075  0.2323  0.2596 -0.4877
  170MOL0     C22843  11.263   7.234   5.205 -0.4042  0.6854  0.0536
  170MOL0     C22844  11.301   7.091   5.239  0.5323  0.5516 -0.2429
  170MOL0     O22845  11.227   7.000   5.169  0.5171  0.0776  0.5287
  170MOL0     C22846  11.248   6.876   5.208 -0.6866 -0.1101 -0.0344
  170MOL0     C22847  11.311   6.783   5.123 -0.3284  0.8790 -0.5340
  170MOL0     C22848  11.322   6.648   5.156 -0.3254 -0.4606 -0.2524
  170MOL0     C22849  11.275   6.603   5.273  0.1294 -0.0170 -0.2665
  170MOL0     O22850  11.291   6.463   5.292  0.4098 -1.0020  0.1343
  170MOL0     C22851  11.272   6.413   5.413 -0.2522  0.1561 -1.2578
  170MOL0     C22852  11.348   6.284   5.447  0.6923 -0.1787 -0.5443
  170MOL0     C22853  11.499   6.314   5.462  0.4732 -0.1312 -0.6356
  170MOL0     C22854  11.573   6.233   5.573  0.8626 -0.5700  0.6570
  170MOL0     C22855  11.726   6.233   5.584  0.1899 -0.3227  0.3723
  170MOL0     C22856  11.774   6.346   5.675  0.4227  0.3963  0.5623
  170MOL0     C22857  11.918   6.320   5.709  0.1797  0.5380  0.1595
  170MOL0     C22858  12.014   6.434   5.757  0.7599  0.1091  0.9741
  170MOL0    Cl22859  12.052   6.531   5.614 -0.0463  0.0661  0.4127
  170MOL0     C22860  11.201   6.689   5.355  0.0309  0.6776 -0.1297
  170MOL0     C22861  11.188   6.829   5.326 -0.6367  0.2698  0.1109
  170MOL0     O22862  11.372   7.068   5.336  0.5495 -0.3677  0.3890
  170MOL0     C22863  11.266   7.333   5.302 -0.0242  0.0488  0.0584
  170MOL0     C22864  11.218   7.463   5.288  0.4602  0.5189 -0.5428
  170MOL0     N22865  10.523   7.733   4.900 -0.1670  0.2788  1.2010
  170MOL0     N22866  10.432   7.801   4.963 -0.3105 -0.2724 -0.0261
  170MOL0     C22867   9.799   8.674   5.065  0.9335 -0.4361 -1.0110
  170MOL0     C22868   9.708   8.738   4.986  0.7296 -0.3217  0.2137
  170MOL0     C22869   9.434   8.795   4.628 -0.0288  0.1259 -0.0458
  170MOL0     C22870   9.305   8.767   4.679  0.4608 -0.3585 -0.6655
  170MOL0     C22871   9.200   8.769   4.587  0.0582 -0.2436  0.0250
  170MOL0     C22872   9.210   8.825   4.457 -0.9035 -0.5107 -0.0093
  170MOL0     O22873   9.103   8.836   4.369  0.0677 -0.3703 -0.9082
  170MOL0     C22874   8.993   8.916   4.417  0.8689  0.0602  0.5009
  170MOL0     C22875   8.928   9.002   4.317 -0.0834  0.0534  0.2085
  170MOL0     C22876   8.828   9.106   4.390 -1.1336  0.0628 -0.9217
  170MOL0     C22877   8.786   9.220   4.300 -1.1147 -0.2211 -0.4725
  170MOL0     C22878   8.879   9.324   4.267 -0.5598 -0.0404 -0.6654
  170MOL0     C22879   8.950   9.420   4.230  0.5265  0.5832 -0.1814
  170MOL0     C22880   9.330   8.871   4.421  0.6583  0.8880  0.1936
  170MOL0     C22881   9.439   8.848   4.500 -0.9704 -0.0230  0.3869
  170MOL0     C22882   9.573   8.876   4.441 -0.3639 -0.4127  0.4727
  170MOL0     H22883   9.532   8.469   4.886 -0.0029 -0.6258 -0.3851
  170MOL0     H22884   9.690   8.345   5.054 -0.6907 -0.4755 -0.6692
  170MOL0     H22885   9.803   8.423   5.345  1.8170  1.1283  1.4306
  170MOL0     H22886   9.831   8.306   5.208  0.1075 -0.4197  1.2319
  170MOL0     H22887  10.042   8.444   5.391 -2.9281 -0.4029  2.3925
  170MOL0     H22888  10.093   8.345   5.258  1.8838  0.0068  1.6351
  170MOL0     H22889   9.910   8.178   5.383  2.6522 -3.0064 -2.8873
  170MOL0     H22890   9.971   8.285   5.511  2.7508  2.6284  0.1572
  170MOL0     H22891  10.188   8.227   5.486  0.1071  0.7467  1.9934
  170MOL0     H22892  10.076   8.086   5.530 -2.7087  2.8515  0.2424
  170MOL0     H22893  10.092   8.022   5.298 -1.1879  3.3836 -3.0979
  170MOL0     H22894  10.215   8.150   5.263  0.2408 -0.1721 -0.3315
  170MOL0     H22895  10.368   8.068   5.417 -0.2618  0.0189  0.8367
  170MOL0     H22896  10.260   7.947   5.479 -2.1665  1.7826 -0.2350
  170MOL0     H22897  10.272   7.834   5.238  0.5916 -1.2458  0.4451
  170MOL0     H22898  10.417   7.820   5.326  0.5932  0.1257 -0.7197
  170MOL0     H22899  10.367   8.012   5.098 -2.6942 -0.8439  0.9809
  170MOL0     H22900  10.516   8.016   5.202 -0.0465 -1.2771  0.4806
  170MOL0     H22901  10.719   7.855   5.120  0.1605  0.7013  0.2693
  170MOL0     H22902  10.743   7.565   4.889  1.4541 -1.1768 -0.6084
  170MOL0     H22903  10.779   7.718   4.804 -3.1447  3.5810  0.6612
  170MOL0     H22904  10.893   7.814   4.976  0.3932  0.1526  0.1933
  170MOL0     H22905  10.872   7.675   5.082 -0.0312  0.4896 -0.6410
  170MOL0     H22906  11.022   7.699   4.810  2.2972 -1.1746  0.0608
  170MOL0     H22907  11.000   7.538   4.890  4.8002 -0.5434 -0.8140
  170MOL0     H22908  11.141   7.787   4.999  1.3330  0.6078  1.9603
  170MOL0     H22909  11.227   7.647   4.945  1.0308  1.9175  0.7566
  170MOL0     H22910  11.154   7.418   4.954 -3.0407 -1.1010  1.1841
  170MOL0     H22911  11.237   7.192   4.995  0.4328 -3.1733  2.4543
  170MOL0     H22912  11.336   6.820   5.024 -1.9515 -0.5330 -1.5177
  170MOL0     H22913  11.375   6.575   5.095 -0.4061 -0.5920 -0.1661
  170MOL0     H22914  11.295   6.495   5.482  0.2865  0.2290 -1.5217
  170MOL0     H22915  11.167   6.385   5.426  0.7997 -3.6732  0.3277
  170MOL0     H22916  11.306   6.247   5.541 -1.7890  2.4008 -0.5196
  170MOL0     H22917  11.331   6.207   5.371 -1.5594 -2.1146  1.7166
  170MOL0     H22918  11.549   6.298   5.366 -1.5298  0.7081 -1.8963
  170MOL0     H22919  11.505   6.418   5.495 -2.5263 -0.2645  0.6422
  170MOL0     H22920  11.544   6.129   5.560 -1.3007  0.0475  0.1894
  170MOL0     H22921  11.524   6.257   5.668 -3.1634 -2.5988 -0.6918
  170MOL0     H22922  11.772   6.242   5.485  1.2749  0.2169  0.9159
  170MOL0     H22923  11.766   6.140   5.626  2.0911 -1.1572 -2.8983
  170MOL0     H22924  11.774   6.442   5.622  0.0211  0.0432 -0.0947
  170MOL0     H22925  11.702   6.347   5.758  0.5127 -0.1193  0.6493
  170MOL0     H22926  11.973   6.263   5.634  1.4122  0.4852  1.0810
  170MOL0     H22927  11.920   6.245   5.789  2.0358  0.9428  0.5441
  170MOL0     H22928  11.969   6.502   5.831  3.2135  3.8364 -0.6859
  170MOL0     H22929  12.105   6.393   5.801  0.7142 -0.5192  0.4933
  170MOL0     H22930  11.150   6.648   5.442 -1.6599  1.5393 -0.6797
  170MOL0     H22931  11.126   6.891   5.389  0.6698  1.1957  0.5284
  170MOL0     H22932  11.314   7.316   5.398 -0.3646  4.6985  1.3099
  170MOL0     H22933  11.206   7.530   5.372  1.5717 -1.3221  1.1684
  170MOL0     H22934   9.873   8.739   5.111 -1.4235  2.0796 -0.4931
  170MOL0     H22935   9.706   8.846   4.975  0.6674 -0.4647 -1.5930
  170MOL0     H22936   9.296   8.720   4.776  2.6346 -0.0791 -0.2806
  170MOL0     H22937   9.100   8.735   4.616  0.6796 -0.1259  2.5868
  170MOL0     H22938   9.025   8.972   4.505 -0.2268 -0.4368  1.2386
  170MOL0     H22939   8.909   8.861   4.461  0.2866  0.1261 -0.4925
  170MOL0     H22940   8.884   8.935   4.242 -0.2628 -0.6157  0.8985
  170MOL0     H22941   9.002   9.053   4.253 -0.5979 -0.8708 -1.1821
  170MOL0     H22942   8.878   9.145   4.479  0.9522  0.7287 -2.3147
  170MOL0     H22943   8.750   9.036   4.420  1.2470 -2.3600  0.0914
  170MOL0     H22944   8.734   9.187   4.210 -2.4467 -2.7392  1.1193
  170MOL0     H22945   8.713   9.260   4.372  1.0638 -1.4829  2.6846
  170MOL0     H22946   9.015   9.496   4.191  3.0946 -0.8364  1.0998
  170MOL0     H22947   9.331   8.919   4.324 -1.0879  0.7614  0.0805
  170MOL0     H22948   9.610   8.780   4.404 -0.7919 -0.8240  1.0937
  170MOL0     H22949   9.576   8.950   4.360  3.6733 -0.1043  0.7113
  170MOL0     H22950   9.649   8.923   4.504 -2.4720  3.1403  0.6557
  171MOL0     O22951   0.432   5.599   9.323 -1.1107  0.3685 -0.3963
  171MOL0     C22952   0.418   5.499   9.248  0.1606  0.0133 -1.1768
  171MOL0     O22953   0.391   5.512   9.116 -0.1854  0.6514  0.2514
  171MOL0     C22954   0.375   5.635   9.065  0.4777 -0.1097  0.0543
  171MOL0     C22955   0.483   5.713   9.042 -0.9742 -0.1864 -0.2823
  171MOL0     C22956   0.460   5.836   8.979  0.3936 -0.1670  0.4991
  171MOL0     C22957   0.334   5.892   8.976 -1.2030  0.0041 -0.2586
  171MOL0     O22958   0.318   6.016   8.917 -0.0734 -0.2651  0.0719
  171MOL0     C22959   0.299   6.125   9.007  0.4975 -1.0852  0.8564
  171MOL0     C22960   0.242   6.245   8.928  0.1354  0.1909 -0.2286
  171MOL0     C22961   0.097   6.227   8.874 -0.1688  0.1437  0.2936
  171MOL0     C22962   0.054   6.341   8.776  0.7649  0.3674 -0.2934
  171MOL0     C22963  -0.070   6.312   8.699 -0.0808  0.4738  0.3078
  171MOL0     C22964  -0.213   6.362   8.755 -0.6712  0.5319  1.3852
  171MOL0     C22965  -0.216   6.509   8.788 -1.1429  0.2632  0.5422
  171MOL0     C22966  -0.357   6.550   8.803 -0.1700  0.4031  0.0797
  171MOL0     N22967  -0.384   6.695   8.827  0.3424  0.6418  0.6010
  171MOL0     C22968  -0.336   6.759   8.933  0.7522  0.2996 -0.3557
  171MOL0     C22969  -0.411   6.874   8.931 -0.0151 -1.1550  0.3908
  171MOL0     C22970  -0.396   6.981   9.031 -0.2288 -0.0116 -0.5961
  171MOL0     C22971  -0.296   7.094   8.991  0.5699  0.0020 -0.5310
  171MOL0     C22972  -0.343   7.167   8.867 -0.7439  0.2124  0.2722
  171MOL0     C22973  -0.257   7.300   8.837 -0.6050 -0.2276 -0.2612
  171MOL0     O22974  -0.118   7.279   8.824 -0.0802  0.0637 -0.2889
  171MOL0     C22975  -0.041   7.398   8.826 -0.4367  0.0120  0.0024
  171MOL0     C22976  -0.085   7.516   8.898  0.0888  0.1338  0.0402
  171MOL0     C22977  -0.016   7.636   8.872  0.3078 -0.8166  0.6958
  171MOL0     C22978   0.090   7.643   8.790 -0.6967  0.3677 -0.1114
  171MOL0     C22979   0.164   7.762   8.750  0.6187 -0.0742 -0.3730
  171MOL0     O22980   0.117   7.871   8.808 -0.4026  0.0876  0.2685
  171MOL0     C22981   0.158   7.991   8.761 -0.3847  0.2591 -0.8700
  171MOL0     C22982   0.240   8.072   8.838 -0.3861  0.4009 -0.3063
  171MOL0     C22983   0.269   8.208   8.796  0.2338  0.2750  0.6072
  171MOL0     C22984   0.199   8.260   8.685  0.1917 -0.3830  0.2961
  171MOL0     O22985   0.221   8.389   8.640 -0.4379 -0.2399 -0.6798
  171MOL0     C22986   0.339   8.463   8.672 -0.4159 -1.1386 -0.1907
  171MOL0     C22987   0.326   8.616   8.627  0.0524  0.2164  0.1192
  171MOL0     C22988   0.447   8.698   8.673 -0.7407  0.1577  0.2498
  171MOL0     C22989   0.442   8.841   8.613 -0.4939  0.0566 -0.5262
  171MOL0     C22990   0.525   8.945   8.681 -0.0533 -1.4701  0.0623
  171MOL0     C22991   0.520   9.073   8.601  0.0014  0.4941  0.7586
  171MOL0     C22992   0.583   9.195   8.670  0.0020  0.0121 -0.4148
  171MOL0     C22993   0.565   9.319   8.585  0.0538 -0.2168  0.2031
  171MOL0    Cl22994   0.591   9.456   8.699 -0.0183  0.1321  0.0857
  171MOL0     C22995   0.104   8.178   8.621 -0.0614 -0.3666  0.0869
  171MOL0     C22996   0.083   8.044   8.657 -0.1089  0.8209  0.2270
  171MOL0     O22997   0.248   7.769   8.659 -0.2518  0.2295 -0.7905
  171MOL0     C22998   0.137   7.526   8.729  0.2709  0.2455  0.0551
  171MOL0     C22999   0.072   7.405   8.747  0.4097  0.0337 -0.1058
  171MOL0     N23000  -0.498   6.866   8.826  0.1143  0.6069  0.0876
  171MOL0     N23001  -0.479   6.763   8.759  0.7463 -0.3784 -0.1961
  171MOL0     C23002   0.223   5.820   9.020 -0.5156 -0.7245 -0.2637
  171MOL0     C23003   0.244   5.689   9.063  0.5745  0.2835  0.3718
  171MOL0     C23004   0.421   5.359   9.311  0.4402 -0.2316  0.0078
  171MOL0     C23005   0.434   5.252   9.220  0.6412 -0.7788 -0.1292
  171MOL0     C23006   0.458   5.127   9.265 -0.0512 -0.2425 -0.1544
  171MOL0     C23007   0.462   5.091   9.405 -0.2761 -0.6330 -0.1889
  171MOL0     O23008   0.476   4.972   9.459  0.2653  0.0579 -0.3606
  171MOL0     C23009   0.490   4.855   9.378  0.6503 -0.1438 -0.0586
  171MOL0     C23010   0.644   4.838   9.319  0.9489  0.0587  0.0493
  171MOL0     C23011   0.760   4.894   9.416  1.1222  0.3738  0.3195
  171MOL0     C23012   0.901   4.834   9.382  0.5527  0.0004  0.1264
  171MOL0     C23013   1.008   4.902   9.466  1.2195 -0.0890  0.2538
  171MOL0     C23014   1.090   4.975   9.525 -0.7307  0.9761 -0.4355
  171MOL0     C23015   0.432   5.193   9.492 -0.7890  0.2385 -0.3333
  171MOL0     C23016   0.419   5.326   9.449  0.2303 -0.5263 -0.7299
  171MOL0     C23017   0.417   5.436   9.550 -0.3357  0.3270  0.4452
  171MOL0     H23018   0.580   5.671   9.065 -0.4373  2.4692  2.9914
  171MOL0     H23019   0.539   5.904   8.947 -0.6998  2.9447  3.6691
  171MOL0     H23020   0.230   6.097   9.087 -1.3735 -0.4118 -0.4700
  171MOL0     H23021   0.395   6.149   9.055  1.1011 -2.1395  0.2217
  171MOL0     H23022   0.313   6.274   8.850  1.7819  0.8625  1.4120
  171MOL0     H23023   0.245   6.328   9.000  1.0681 -1.0407  1.2129
  171MOL0     H23024   0.030   6.218   8.960  0.1585 -3.7983  0.3086
  171MOL0     H23025   0.096   6.125   8.834 -0.6674 -0.3220  1.4542
  171MOL0     H23026   0.027   6.428   8.837 -2.3516 -1.1532  0.7412
  171MOL0     H23027   0.139   6.360   8.710  1.4117 -1.5982 -0.0701
  171MOL0     H23028  -0.043   6.381   8.618  1.9045  1.7463  1.9622
  171MOL0     H23029  -0.075   6.208   8.668 -1.5622 -0.0643  2.1327
  171MOL0     H23030  -0.285   6.341   8.675  1.4327 -3.4132  0.2461
  171MOL0     H23031  -0.242   6.306   8.844 -0.6262 -1.5102  0.1717
  171MOL0     H23032  -0.163   6.561   8.709 -3.0006  1.1693 -0.1794
  171MOL0     H23033  -0.155   6.535   8.875  2.5252 -2.2762 -0.9992
  171MOL0     H23034  -0.419   6.519   8.719 -1.6822 -0.4137  1.4180
  171MOL0     H23035  -0.385   6.496   8.894 -0.6717  2.6996  1.3700
  171MOL0     H23036  -0.272   6.730   9.016 -2.1673 -0.7160  1.6812
  171MOL0     H23037  -0.495   7.023   9.052 -0.0492  1.2991 -2.2292
  171MOL0     H23038  -0.366   6.942   9.129  0.9127  1.6457 -0.2421
  171MOL0     H23039  -0.278   7.161   9.075  2.3478  0.7286 -1.4319
  171MOL0     H23040  -0.201   7.043   8.969  0.6256  1.4429 -4.4522
  171MOL0     H23041  -0.448   7.197   8.857 -0.0970  2.1632 -1.3759
  171MOL0     H23042  -0.323   7.106   8.779  1.8742  3.8244 -1.8861
  171MOL0     H23043  -0.278   7.380   8.908 -0.5797  0.3364 -0.8795
  171MOL0     H23044  -0.287   7.329   8.736  3.2943 -3.4013 -2.6072
  171MOL0     H23045  -0.171   7.520   8.963  2.3692  0.8296  3.2111
  171MOL0     H23046  -0.054   7.720   8.929 -1.0588 -1.3315  0.5706
  171MOL0     H23047   0.269   8.028   8.933 -1.7318 -0.3732 -0.2252
  171MOL0     H23048   0.347   8.269   8.840  1.2297  2.7150 -3.9034
  171MOL0     H23049   0.352   8.470   8.781  1.6636 -3.1035 -0.2250
  171MOL0     H23050   0.429   8.414   8.633  0.2154  0.3269 -0.6550
  171MOL0     H23051   0.323   8.608   8.518 -2.5884 -2.0886  0.2370
  171MOL0     H23052   0.232   8.665   8.652 -1.8139 -0.3793 -4.6762
  171MOL0     H23053   0.468   8.699   8.780  1.2583 -0.9243 -0.0735
  171MOL0     H23054   0.533   8.644   8.630 -0.1982  1.2733 -0.1266
  171MOL0     H23055   0.341   8.878   8.633  0.0620  1.1294  0.4235
  171MOL0     H23056   0.469   8.835   8.507  2.0046  0.4282  0.0261
  171MOL0     H23057   0.623   8.898   8.685 -1.0785 -3.7475 -0.3611
  171MOL0     H23058   0.481   8.982   8.774 -2.5782  2.1191 -2.2782
  171MOL0     H23059   0.546   9.054   8.497  0.5194 -3.4933  1.4776
  171MOL0     H23060   0.417   9.109   8.591 -0.3844 -1.2436 -3.8886
  171MOL0     H23061   0.687   9.188   8.702 -0.6013  0.7365  1.8902
  171MOL0     H23062   0.523   9.212   8.760 -1.5625 -0.9066 -1.2270
  171MOL0     H23063   0.645   9.320   8.511 -0.8042 -0.8491 -0.7574
  171MOL0     H23064   0.461   9.334   8.554  0.0148 -1.2144 -0.2058
  171MOL0     H23065   0.047   8.230   8.544 -0.8897 -0.7728  0.4128
  171MOL0     H23066   0.017   7.972   8.610 -0.0719  0.3858  0.8279
  171MOL0     H23067   0.235   7.532   8.682 -0.1203  3.0118 -0.5817
  171MOL0     H23068   0.104   7.309   8.707  0.4892 -0.7467  1.7130
  171MOL0     H23069   0.123   5.859   9.000 -1.8067 -2.6404  1.8631
  171MOL0     H23070   0.167   5.616   9.089  1.5081 -0.8881 -0.0452
  171MOL0     H23071   0.441   5.270   9.113  1.2205  0.7720  0.1432
  171MOL0     H23072   0.468   5.040   9.200  1.3991 -0.8044  0.7760
  171MOL0     H23073   0.411   4.848   9.303 -2.2747  3.3872  2.3344
  171MOL0     H23074   0.468   4.774   9.447  1.8702  0.6715  1.3509
  171MOL0     H23075   0.655   4.902   9.231 -1.1417  1.9909  1.1040
  171MOL0     H23076   0.663   4.735   9.288  1.0892  0.0957  0.0123
  171MOL0     H23077   0.740   4.867   9.520  2.6747 -0.9735  0.3065
  171MOL0     H23078   0.772   5.003   9.417  3.0909  0.2300  2.7797
  171MOL0     H23079   0.895   4.725   9.394  2.5472  0.0058  1.6723
  171MOL0     H23080   0.928   4.857   9.279  2.6756  1.2450  0.9032
  171MOL0     H23081   1.165   5.040   9.565  0.7203  0.9326 -2.8393
  171MOL0     H23082   0.435   5.168   9.597  0.1481  1.3989 -0.0620
  171MOL0     H23083   0.398   5.406   9.653 -1.8750  0.2978  0.1752
  171MOL0     H23084   0.507   5.498   9.547 -0.5832  0.6522 -0.6680
  171MOL0     H23085   0.328   5.497   9.532 -0.2032  0.2920 -0.3478
  172MOL0     O23086   5.130   2.114   4.020 -0.5722  0.7711 -0.1699
  172MOL0     C23087   5.185   2.039   3.937  0.4821 -0.3996  0.4090
  172MOL0     O23088   5.299   1.963   3.959 -0.0374 -0.0938  0.4303
  172MOL0     C23089   5.370   1.993   4.072 -0.0862 -0.1638 -0.0038
  172MOL0     C23090   5.397   2.122   4.111 -0.0483  1.1502  0.1679
  172MOL0     C23091   5.481   2.152   4.217  0.5452 -0.0384  0.2301
  172MOL0     C23092   5.519   2.049   4.308 -0.9295  0.0901 -0.0136
  172MOL0     O23093   5.600   2.080   4.421  0.0255 -0.6200  1.2190
  172MOL0     C23094   5.571   2.019   4.549  0.3729 -0.1537  0.4189
  172MOL0     C23095   5.668   2.070   4.655 -0.3401 -0.8219  0.2497
  172MOL0     C23096   5.610   2.212   4.704  0.8193 -0.8332  0.8823
  172MOL0     C23097   5.667   2.257   4.829  0.2716  0.4912 -0.5742
  172MOL0     C23098   5.631   2.398   4.862 -0.2658  0.1373 -0.4147
  172MOL0     C23099   5.727   2.442   4.974 -1.3245  0.5622  0.1463
  172MOL0     C23100   5.874   2.489   4.923  0.0122 -0.1037  0.0753
  172MOL0     C23101   5.954   2.543   5.043 -0.2944  0.2654  0.8259
  172MOL0     N23102   5.908   2.670   5.113 -0.9839  0.1920  0.0454
  172MOL0     C23103   5.869   2.671   5.247  0.8062  0.5198 -1.0269
  172MOL0     C23104   5.839   2.806   5.262  0.3613  0.6881 -0.2374
  172MOL0     C23105   5.796   2.870   5.396 -0.0516 -0.0388 -0.2038
  172MOL0     C23106   5.904   2.852   5.507 -0.9148  0.0881 -0.9367
  172MOL0     C23107   5.916   2.966   5.593 -0.3197 -0.3081  0.1805
  172MOL0     C23108   5.993   2.947   5.720  0.8570  0.4160 -0.2975
  172MOL0     O23109   6.134   2.939   5.680  0.2443 -0.1685  0.0995
  172MOL0     C23110   6.231   2.937   5.775 -0.3915  0.1950 -0.0955
  172MOL0     C23111   6.196   2.921   5.917 -0.4608 -0.1867  0.6457
  172MOL0     C23112   6.298   2.919   6.009  0.2591 -0.1881  0.7349
  172MOL0     C23113   6.436   2.935   5.953  0.5941  0.4570  0.2696
  172MOL0     C23114   6.550   2.954   6.047  0.9224  0.0222 -0.6560
  172MOL0     O23115   6.676   2.978   5.988  0.2827 -0.0932 -0.5262
  172MOL0     C23116   6.788   2.987   6.066  0.0852  0.2612  0.7386
  172MOL0     C23117   6.896   3.034   5.996 -0.8365 -0.5471  0.3719
  172MOL0     C23118   7.028   3.029   6.037  0.5841 -0.0110  0.4094
  172MOL0     C23119   7.050   2.959   6.162 -0.2426 -0.4705  0.0815
  172MOL0     O23120   7.174   2.938   6.219  0.0820 -0.5233  0.4737
  172MOL0     C23121   7.271   3.033   6.178 -0.6715  0.0308 -0.2144
  172MOL0     C23122   7.398   3.017   6.265  0.1878  0.6376 -0.2490
  172MOL0     C23123   7.519   3.073   6.187 -0.2876  0.0860 -0.4077
  172MOL0     C23124   7.635   3.042   6.270 -0.1004 -0.4062  0.6122
  172MOL0     C23125   7.762   3.116   6.228 -0.4374  0.0518 -0.0930
  172MOL0     C23126   7.885   3.055   6.299  0.4435 -0.1212 -0.1450
  172MOL0     C23127   8.010   3.154   6.301  0.2469  0.5917  0.7916
  172MOL0     C23128   7.985   3.291   6.376 -0.2002 -0.2675 -0.1592
  172MOL0    Cl23129   8.136   3.375   6.410  0.1598 -0.0481  0.1459
  172MOL0     C23130   6.942   2.894   6.228 -0.2160 -0.6860 -0.5436
  172MOL0     C23131   6.812   2.911   6.180 -0.0664  0.4716 -1.0456
  172MOL0     O23132   6.522   2.940   6.168  0.4345 -0.0371  0.2503
  172MOL0     C23133   6.460   2.940   5.808 -0.1041 -0.0374 -1.1917
  172MOL0     C23134   6.354   2.943   5.722  0.0297 -0.5508  0.2792
  172MOL0     N23135   5.868   2.873   5.136  0.3775 -0.4871 -0.6095
  172MOL0     N23136   5.907   2.792   5.051 -0.4120  0.6455 -0.2401
  172MOL0     C23137   5.480   1.918   4.274  0.5437  0.1326 -0.9442
  172MOL0     C23138   5.402   1.891   4.158 -0.5365  0.2222 -0.5199
  172MOL0     C23139   5.122   2.019   3.803 -0.1176  0.7907  0.1166
  172MOL0     C23140   5.130   1.895   3.734  0.5565 -0.5360 -0.5580
  172MOL0     C23141   5.061   1.875   3.613 -0.7969  0.1030 -0.1383
  172MOL0     C23142   4.991   1.976   3.553  0.7183  0.2128  0.8449
  172MOL0     O23143   4.924   1.972   3.430 -0.5562  0.1750 -0.0561
  172MOL0     C23144   4.911   1.838   3.372  1.0292 -0.3094  0.1461
  172MOL0     C23145   5.032   1.793   3.289 -0.2926 -0.9117  0.3768
  172MOL0     C23146   5.021   1.816   3.141  0.9779  0.6408 -0.1252
  172MOL0     C23147   5.031   1.970   3.105  0.4418  0.3429  0.5925
  172MOL0     C23148   5.166   2.026   3.138 -0.4598 -0.1470 -0.0606
  172MOL0     C23149   5.273   2.081   3.161 -0.3594 -1.0574  0.2275
  172MOL0     C23150   4.982   2.091   3.618 -0.2717 -0.5703  0.0723
  172MOL0     C23151   5.048   2.116   3.748  0.1765  0.8060  0.4984
  172MOL0     C23152   5.031   2.250   3.809 -0.1290  0.3540  0.2794
  172MOL0     H23153   5.359   2.208   4.057 -0.9947  1.3131  1.0620
  172MOL0     H23154   5.520   2.252   4.231 -0.3789  0.7145 -2.1472
  172MOL0     H23155   5.464   2.042   4.557  0.3476  1.8409 -3.2358
  172MOL0     H23156   5.578   1.910   4.540  0.0238 -0.3216  2.0249
  172MOL0     H23157   5.769   2.089   4.618 -0.1253  2.1913  2.0875
  172MOL0     H23158   5.675   2.007   4.744  0.1864 -0.6492  0.3361
  172MOL0     H23159   5.502   2.222   4.719  0.9477 -0.7971  1.8552
  172MOL0     H23160   5.639   2.281   4.624 -1.6365 -3.2128 -2.3764
  172MOL0     H23161   5.645   2.187   4.910  0.2348 -1.9083 -2.5248
  172MOL0     H23162   5.775   2.254   4.808  0.0892  1.2635 -1.7378
  172MOL0     H23163   5.639   2.463   4.774  0.0745  0.4844 -0.1277
  172MOL0     H23164   5.528   2.415   4.895 -0.8020  1.2425 -2.4639
  172MOL0     H23165   5.675   2.514   5.038  1.1139 -0.3653  3.4441
  172MOL0     H23166   5.743   2.353   5.036  1.0272  0.5776 -0.3515
  172MOL0     H23167   5.868   2.584   4.868 -0.2231 -0.9267 -1.3488
  172MOL0     H23168   5.932   2.404   4.887 -0.1890 -0.6671  1.0438
  172MOL0     H23169   5.951   2.455   5.108  0.0924 -1.6279 -1.5577
  172MOL0     H23170   6.055   2.557   5.003 -0.0094  1.3753  1.8742
  172MOL0     H23171   5.863   2.597   5.326 -1.7712  0.1769 -1.4319
  172MOL0     H23172   5.772   2.975   5.377 -2.6466 -0.8664 -2.0538
  172MOL0     H23173   5.707   2.813   5.424  0.6027 -2.1381 -2.0785
  172MOL0     H23174   5.886   2.765   5.571  1.2065  1.4797  1.7335
  172MOL0     H23175   5.997   2.835   5.453 -1.1966 -2.8067 -0.6801
  172MOL0     H23176   5.816   2.998   5.621 -0.4157 -1.3838  1.1593
  172MOL0     H23177   5.971   3.043   5.538 -0.6789 -1.1409 -1.4280
  172MOL0     H23178   5.965   2.852   5.766 -0.8940 -0.5593 -3.0958
  172MOL0     H23179   5.965   3.029   5.787  1.0879  0.9721 -0.8600
  172MOL0     H23180   6.103   2.918   5.972  0.3106  1.0489  2.1062
  172MOL0     H23181   6.277   2.913   6.115  0.5937 -0.4172  0.7893
  172MOL0     H23182   6.860   3.081   5.905 -0.3602  1.2183  1.0526
  172MOL0     H23183   7.108   3.073   5.978 -1.1691  0.9100 -1.3984
  172MOL0     H23184   7.305   3.008   6.077 -0.7417 -2.4497  0.3140
  172MOL0     H23185   7.226   3.133   6.179  1.0135  1.0052 -3.7453
  172MOL0     H23186   7.374   3.064   6.361  0.7060  1.3003 -0.4316
  172MOL0     H23187   7.418   2.910   6.279 -0.7912  0.1837 -2.0276
  172MOL0     H23188   7.527   3.027   6.088  2.0606  2.1010 -1.2556
  172MOL0     H23189   7.507   3.179   6.165 -0.1780 -0.4049 -3.2725
  172MOL0     H23190   7.650   2.934   6.268 -0.2359 -0.4525  1.5329
  172MOL0     H23191   7.622   3.062   6.377 -1.1600 -3.0520  1.0356
  172MOL0     H23192   7.760   3.222   6.257  2.1700  1.3192 -3.7929
  172MOL0     H23193   7.769   3.108   6.119  0.0067 -2.5226  0.0736
  172MOL0     H23194   7.870   3.047   6.407  1.8562  2.7208  0.3548
  172MOL0     H23195   7.910   2.957   6.256 -0.0179  0.3177 -1.4525
  172MOL0     H23196   8.047   3.179   6.201  2.2455 -1.1034  1.0260
  172MOL0     H23197   8.095   3.100   6.345  0.2246  0.8178  1.1123
  172MOL0     H23198   7.908   3.344   6.319 -0.6093  0.4186  1.0036
  172MOL0     H23199   7.930   3.268   6.468 -0.4686 -1.8269 -0.6786
  172MOL0     H23200   6.970   2.833   6.313 -0.1748  1.3057  0.9467
  172MOL0     H23201   6.727   2.876   6.239 -1.1101  1.1189 -2.1355
  172MOL0     H23202   6.559   2.941   5.765  0.5681  2.4405  0.2657
  172MOL0     H23203   6.374   2.960   5.617 -0.4595 -0.5686  0.1829
  172MOL0     H23204   5.524   1.839   4.332  1.0784 -0.1009 -1.6570
  172MOL0     H23205   5.370   1.790   4.131  0.5695  0.0380 -1.1864
  172MOL0     H23206   5.190   1.816   3.776  0.1392 -0.1873  0.7236
  172MOL0     H23207   5.069   1.769   3.589  1.1096 -0.9200  4.0874
  172MOL0     H23208   4.821   1.825   3.313  2.3108  0.4288 -2.1016
  172MOL0     H23209   4.897   1.776   3.461 -1.7491  1.3586  1.0070
  172MOL0     H23210   5.051   1.686   3.300 -0.2190 -1.1452 -1.6791
  172MOL0     H23211   5.122   1.840   3.330 -0.9425  0.3418  0.4339
  172MOL0     H23212   4.918   1.795   3.109  0.0944  2.4897  1.2818
  172MOL0     H23213   5.097   1.755   3.092  2.5789  3.4143 -1.3388
  172MOL0     H23214   5.005   1.995   3.002  0.7953 -3.9255 -0.7428
  172MOL0     H23215   4.949   2.009   3.167 -0.9873 -0.7224 -0.5474
  172MOL0     H23216   5.368   2.126   3.183  0.2347 -0.9201 -2.2919
  172MOL0     H23217   4.917   2.168   3.576 -0.5323 -0.6684  0.2913
  172MOL0     H23218   5.118   2.291   3.861 -0.4106  1.5007 -0.1289
  172MOL0     H23219   5.015   2.324   3.731  2.5355  0.1445 -0.5800
  172MOL0     H23220   4.948   2.263   3.879  0.4796  3.3605  0.5755
  173MOL0     O23221   4.744   8.664   5.132  0.3991 -0.0801 -0.0572
  173MOL0     C23222   4.641   8.704   5.179  0.4172  0.4550  0.2111
  173MOL0     O23223   4.635   8.775   5.300  0.0967 -0.3298 -0.8768
  173MOL0     C23224   4.744   8.830   5.359  0.6020 -1.1095  0.4152
  173MOL0     C23225   4.748   8.960   5.392  0.2376 -0.2971  0.4416
  173MOL0     C23226   4.862   9.010   5.455  0.3232 -0.6467  0.1296
  173MOL0     C23227   4.975   8.924   5.493  0.6924 -0.3590  0.0487
  173MOL0     O23228   5.085   8.965   5.568  0.2414 -0.4543  0.3376
  173MOL0     C23229   5.096   9.103   5.607 -0.1378 -0.3607  0.1794
  173MOL0     C23230   5.205   9.122   5.718 -0.4830 -0.2340 -0.2222
  173MOL0     C23231   5.320   9.207   5.664  0.2779  0.9060  0.2646
  173MOL0     C23232   5.421   9.231   5.772 -0.2703  0.1405  0.1241
  173MOL0     C23233   5.569   9.259   5.725  0.0923 -0.4343  0.7644
  173MOL0     C23234   5.672   9.242   5.839 -0.2032  0.1491 -0.1990
  173MOL0     C23235   5.664   9.367   5.933  0.7742 -0.0346 -0.1749
  173MOL0     C23236   5.568   9.341   6.050  0.1050  0.4461 -0.1880
  173MOL0     N23237   5.576   9.466   6.128 -0.2906 -0.5240  0.5988
  173MOL0     C23238   5.495   9.573   6.106 -1.3146  0.5138  0.1058
  173MOL0     C23239   5.524   9.664   6.201  0.2999 -0.6539 -0.4670
  173MOL0     C23240   5.458   9.797   6.214  0.3017  0.1404 -0.4347
  173MOL0     C23241   5.308   9.780   6.235 -0.7469  0.4298 -0.1850
  173MOL0     C23242   5.231   9.759   6.102 -0.2261 -0.4125  0.7154
  173MOL0     C23243   5.200   9.889   6.025 -0.5719  0.5608 -0.7818
  173MOL0     O23244   5.098   9.965   6.099  0.4705 -0.3179 -0.0940
  173MOL0     C23245   4.968   9.927   6.102 -0.1433  0.3716 -0.2093
  173MOL0     C23246   4.902   9.863   6.002 -0.6558 -0.2572  0.7212
  173MOL0     C23247   4.775   9.821   6.018  0.7945  0.5199  0.3949
  173MOL0     C23248   4.702   9.844   6.136  0.4853 -0.4340 -0.5706
  173MOL0     C23249   4.572   9.779   6.154 -0.0896  0.1842 -0.2863
  173MOL0     O23250   4.501   9.756   6.041  0.3302  0.2049 -1.0082
  173MOL0     C23251   4.411   9.656   6.022 -0.0184 -0.0076 -0.7234
  173MOL0     C23252   4.314   9.603   6.112 -0.3442  0.2666  0.0509
  173MOL0     C23253   4.208   9.526   6.065  0.4538  0.5217  1.1624
  173MOL0     C23254   4.198   9.488   5.932 -0.5530  0.0728 -0.2081
  173MOL0     O23255   4.104   9.400   5.883  0.1913  0.3488 -0.2195
  173MOL0     C23256   3.966   9.416   5.915  0.8252  0.1096 -0.7870
  173MOL0     C23257   3.889   9.389   5.788  0.2085  0.6762 -1.2292
  173MOL0     C23258   3.737   9.418   5.791  0.6040  1.0165 -0.1222
  173MOL0     C23259   3.710   9.552   5.854 -0.1274  0.1008  0.8743
  173MOL0     C23260   3.578   9.601   5.789  0.1654  0.1718  0.3723
  173MOL0     C23261   3.450   9.528   5.814  0.2084 -0.4359 -0.1360
  173MOL0     C23262   3.324   9.579   5.748  0.7357  0.8549  0.6800
  173MOL0     C23263   3.340   9.617   5.602  1.1166  0.3401  0.3007
  173MOL0    Cl23264   3.394   9.463   5.530 -0.1216  0.2416 -0.1813
  173MOL0     C23265   4.300   9.523   5.841  0.0731 -0.8883  0.8488
  173MOL0     C23266   4.397   9.614   5.887 -1.2004  0.0786  0.6637
  173MOL0     O23267   4.534   9.742   6.262 -0.4296 -0.2756 -0.2839
  173MOL0     C23268   4.771   9.916   6.241 -0.0491 -0.4161  1.4932
  173MOL0     C23269   4.906   9.953   6.226 -0.5790 -0.4083  0.4094
  173MOL0     N23270   5.596   9.601   6.299  0.5747 -0.2660 -0.4084
  173MOL0     N23271   5.626   9.484   6.252 -0.8283  0.0269 -0.5512
  173MOL0     C23272   4.965   8.787   5.468  1.3251  0.5754 -0.4963
  173MOL0     C23273   4.848   8.745   5.394 -1.3262  0.1594  0.7566
  173MOL0     C23274   4.519   8.638   5.123  0.4091  0.2189  0.3938
  173MOL0     C23275   4.405   8.640   5.207 -0.1951 -0.0460  0.8155
  173MOL0     C23276   4.282   8.587   5.170 -0.5795  0.3262  0.6761
  173MOL0     C23277   4.266   8.519   5.049 -0.4320  0.4401 -0.1859
  173MOL0     O23278   4.140   8.469   5.022  0.1990  0.1170 -0.4821
  173MOL0     C23279   4.103   8.444   4.888 -0.4323 -0.5374  0.0472
  173MOL0     C23280   3.960   8.424   4.860  0.4023 -0.4672 -0.0057
  173MOL0     C23281   3.938   8.402   4.707  0.3305  0.0204  0.2075
  173MOL0     C23282   3.788   8.386   4.669  0.4064 -0.3805 -0.5872
  173MOL0     C23283   3.778   8.399   4.524  1.2632 -0.1842 -0.0233
  173MOL0     C23284   3.774   8.404   4.404 -0.9331  0.3847 -0.2107
  173MOL0     C23285   4.378   8.513   4.961  0.3725  0.9679 -1.2703
  173MOL0     C23286   4.507   8.563   4.998 -0.5530  0.1500  0.4676
  173MOL0     C23287   4.625   8.558   4.896  0.3006 -0.7675  0.1292
  173MOL0     H23288   4.663   9.018   5.359 -0.0096 -1.0845 -0.3482
  173MOL0     H23289   4.868   9.118   5.465  1.0468 -0.4622 -1.8031
  173MOL0     H23290   5.124   9.163   5.520  0.8330 -0.0515  0.7022
  173MOL0     H23291   4.995   9.125   5.644 -0.3522  0.5009 -0.8682
  173MOL0     H23292   5.241   9.028   5.760 -1.3459  0.4365  2.2168
  173MOL0     H23293   5.158   9.185   5.794 -0.4930  0.4001 -0.7422
  173MOL0     H23294   5.280   9.297   5.617 -2.9615 -0.8486 -0.7002
  173MOL0     H23295   5.357   9.148   5.580 -0.4533  0.0188  0.5393
  173MOL0     H23296   5.382   9.310   5.838  0.0665  1.3921 -1.1358
  173MOL0     H23297   5.433   9.137   5.827 -0.9650 -0.1494 -0.1999
  173MOL0     H23298   5.596   9.190   5.644  1.4332  1.1247 -0.1772
  173MOL0     H23299   5.575   9.357   5.677 -3.4849 -0.9451 -1.0208
  173MOL0     H23300   5.665   9.143   5.886  0.0898  1.2458  2.3560
  173MOL0     H23301   5.769   9.256   5.792 -0.8434  1.5816 -1.1454
  173MOL0     H23302   5.624   9.447   5.870 -2.4904  0.0001  1.6772
  173MOL0     H23303   5.763   9.399   5.967 -0.4115  1.9286  1.6997
  173MOL0     H23304   5.463   9.312   6.043 -0.1615  0.7326  2.0430
  173MOL0     H23305   5.611   9.266   6.116  0.9114  1.6166  0.6677
  173MOL0     H23306   5.433   9.580   6.017  0.1683  3.4705 -0.8092
  173MOL0     H23307   5.496   9.860   6.294  2.5319  1.1729 -2.1898
  173MOL0     H23308   5.461   9.856   6.121 -1.6214 -1.0206 -1.3083
  173MOL0     H23309   5.289   9.699   6.307  1.6125  0.4979  0.6017
  173MOL0     H23310   5.276   9.873   6.284 -0.4664  0.3459  0.1589
  173MOL0     H23311   5.133   9.712   6.118 -1.6020  0.8981 -2.7652
  173MOL0     H23312   5.284   9.694   6.032 -2.4203 -4.3560  2.3781
  173MOL0     H23313   5.167   9.866   5.924  1.3559  1.3707 -1.6472
  173MOL0     H23314   5.289   9.950   6.007 -0.5818  0.7502 -0.2234
  173MOL0     H23315   4.954   9.846   5.908  1.7601 -2.8904  2.3820
  173MOL0     H23316   4.737   9.761   5.935  2.2989  0.1726 -0.0800
  173MOL0     H23317   4.306   9.629   6.217  2.1398 -2.4594  1.0376
  173MOL0     H23318   4.128   9.500   6.134 -1.8874  0.4291 -1.4469
  173MOL0     H23319   3.935   9.360   6.003  0.8898  2.0241  0.5116
  173MOL0     H23320   3.949   9.521   5.941 -1.2109 -1.2159  4.3676
  173MOL0     H23321   3.935   9.445   5.706  2.0492  1.7164  0.4268
  173MOL0     H23322   3.906   9.282   5.773 -1.0730  0.0106  1.4241
  173MOL0     H23323   3.694   9.403   5.691  0.2693 -0.4771  0.2080
  173MOL0     H23324   3.683   9.342   5.848 -2.2868  0.0886 -3.6594
  173MOL0     H23325   3.787   9.628   5.840  0.5355 -0.2705  2.3328
  173MOL0     H23326   3.684   9.541   5.960 -4.0230  1.8085  0.2742
  173MOL0     H23327   3.597   9.605   5.681 -0.6058  3.1057  0.2568
  173MOL0     H23328   3.572   9.707   5.816  0.1277  0.3932 -0.4751
  173MOL0     H23329   3.475   9.427   5.780  1.2950  0.1330 -1.0664
  173MOL0     H23330   3.430   9.518   5.921  0.9524  0.5985  0.1054
  173MOL0     H23331   3.273   9.653   5.811  0.5197  1.8365 -0.5958
  173MOL0     H23332   3.256   9.493   5.753 -0.0378  1.3932 -0.1016
  173MOL0     H23333   3.245   9.648   5.559 -0.0528 -1.6654  1.2767
  173MOL0     H23334   3.408   9.701   5.590  1.1177  0.2389 -0.4592
  173MOL0     H23335   4.297   9.486   5.739 -4.7187  0.6113  0.1915
  173MOL0     H23336   4.459   9.660   5.811 -1.0671 -3.2141 -1.4227
  173MOL0     H23337   4.731   9.925   6.341  0.3237  1.0892  1.5370
  173MOL0     H23338   4.952  10.007   6.308  1.1026  0.2957 -0.9363
  173MOL0     H23339   5.047   8.719   5.486 -0.3905 -1.0854  1.4980
  173MOL0     H23340   4.849   8.652   5.339  0.7148  0.3016  0.4824
  173MOL0     H23341   4.426   8.679   5.306  2.9081  1.0243 -0.1597
  173MOL0     H23342   4.195   8.594   5.235 -0.8094  1.6267  0.2621
  173MOL0     H23343   4.158   8.353   4.860  1.6742 -0.1085  2.4497
  173MOL0     H23344   4.142   8.530   4.832 -0.8113 -1.0663 -1.0679
  173MOL0     H23345   3.908   8.514   4.894  0.5039  0.7636 -2.8612
  173MOL0     H23346   3.908   8.336   4.900  0.0817 -0.3963 -0.2689
  173MOL0     H23347   3.979   8.301   4.696  0.3103 -0.0755  1.0008
  173MOL0     H23348   3.999   8.471   4.647  0.5882  0.6467  1.1789
  173MOL0     H23349   3.757   8.288   4.708  0.0365 -0.0378 -0.0073
  173MOL0     H23350   3.735   8.464   4.724  0.4906 -0.0604 -0.9552
  173MOL0     H23351   3.767   8.414   4.298 -1.2264 -0.2434 -0.2542
  173MOL0     H23352   4.375   8.460   4.867  1.1056  0.3740 -0.9785
  173MOL0     H23353   4.599   8.510   4.801 -0.6845 -0.3627  0.1816
  173MOL0     H23354   4.639   8.665   4.876  3.2585 -1.2912 -1.0566
  173MOL0     H23355   4.717   8.522   4.942  2.2091  1.4947 -1.6874
  174MOL0     O23356   1.228   0.710   1.965  0.0306 -0.4386  0.5159
  174MOL0     C23357   1.258   0.812   1.910 -0.7049 -0.2979  0.4324
  174MOL0     O23358   1.222   0.840   1.784 -0.3350  0.1151 -0.3450
  174MOL0     C23359   1.123   0.773   1.721  0.6943  0.4047 -0.9585
  174MOL0     C23360   0.991   0.758   1.767  0.6737 -0.5710 -0.2605
  174MOL0     C23361   0.900   0.681   1.684 -0.4701 -0.4359 -0.3948
  174MOL0     C23362   0.945   0.612   1.567  0.2102  0.6466 -0.4377
  174MOL0     O23363   0.847   0.535   1.501 -0.6234 -0.2468 -0.9763
  174MOL0     C23364   0.893   0.433   1.417  1.4261  0.2164  0.4509
  174MOL0     C23365   0.912   0.492   1.267 -0.4281  0.4769 -0.5183
  174MOL0     C23366   1.010   0.416   1.180 -0.7959 -0.2142 -0.4041
  174MOL0     C23367   0.962   0.276   1.154  0.2470  1.2837  0.3518
  174MOL0     C23368   0.826   0.282   1.073 -0.1317  0.1270  0.3752
  174MOL0     C23369   0.794   0.136   1.041 -0.0182 -0.6492  0.3200
  174MOL0     C23370   0.677   0.140   0.947 -0.2199 -0.1335  0.1105
  174MOL0     C23371   0.581   0.015   0.953  0.3966  0.1954  0.2398
  174MOL0     N23372   0.442   0.063   0.921 -0.1398  0.2067  0.1920
  174MOL0     C23373   0.338   0.008   0.989 -0.1553 -0.1877 -0.5557
  174MOL0     C23374   0.231   0.062   0.926 -0.4139 -1.0630  0.2863
  174MOL0     C23375   0.091   0.033   0.962 -0.6252 -0.2642 -0.8961
  174MOL0     C23376  -0.001   0.064   0.844  0.4808 -0.1516  0.3483
  174MOL0     C23377  -0.131  -0.009   0.878 -0.4760  0.2033 -0.5211
  174MOL0     C23378  -0.243  -0.007   0.777 -1.0779  0.1319 -0.1704
  174MOL0     O23379  -0.252   0.135   0.748  0.4859 -0.4638  0.0779
  174MOL0     C23380  -0.353   0.182   0.667 -0.1522  0.0893  0.0361
  174MOL0     C23381  -0.372   0.322   0.656  0.5877 -0.0159 -0.3941
  174MOL0     C23382  -0.473   0.376   0.565  0.1811 -0.2699  1.4981
  174MOL0     C23383  -0.564   0.296   0.494 -1.0962  0.8348  0.7132
  174MOL0     C23384  -0.659   0.365   0.415  0.3031  0.4649 -0.2422
  174MOL0     O23385  -0.726   0.280   0.317  0.3282 -0.0252 -0.8887
  174MOL0     C23386  -0.816   0.328   0.225 -0.7567 -0.2280  1.0403
  174MOL0     C23387  -0.889   0.448   0.237  0.0006  0.5858  0.6301
  174MOL0     C23388  -0.966   0.488   0.138 -0.1989  0.5138 -0.3878
  174MOL0     C23389  -0.991   0.419   0.026 -0.4868  0.8082 -1.0772
  174MOL0     O23390  -1.084   0.469  -0.056  0.2319  0.4079  0.4317
  174MOL0     C23391  -1.078   0.609  -0.100 -0.1706  0.1850 -0.0926
  174MOL0     C23392  -1.215   0.638  -0.158 -0.8951  0.5252  0.2069
  174MOL0     C23393  -1.329   0.676  -0.053  0.9724 -0.4104 -0.3939
  174MOL0     C23394  -1.357   0.565   0.049 -0.7766  0.0310  0.2549
  174MOL0     C23395  -1.490   0.555   0.102  0.4744 -0.6595 -0.0090
  174MOL0     C23396  -1.603   0.509   0.003 -0.0196 -0.5716  0.0042
  174MOL0     C23397  -1.744   0.524   0.057  0.0300 -0.0805 -0.4383
  174MOL0     C23398  -1.824   0.395   0.042 -0.0472  0.0608 -0.6075
  174MOL0    Cl23399  -1.838   0.351  -0.127  0.1485  0.2538 -0.3104
  174MOL0     C23400  -0.926   0.294   0.010  0.2102  0.4736 -0.6251
  174MOL0     C23401  -0.838   0.247   0.108 -0.0174 -0.2085 -0.6635
  174MOL0     O23402  -0.682   0.481   0.435 -0.1970 -0.2432 -0.3148
  174MOL0     C23403  -0.547   0.151   0.517 -0.7690 -0.4779  0.4114
  174MOL0     C23404  -0.447   0.101   0.606  0.1171  1.0594 -0.3346
  174MOL0     N23405   0.271   0.141   0.819 -0.4595  0.9356 -0.0734
  174MOL0     N23406   0.398   0.137   0.815  0.4184  0.5091  0.5328
  174MOL0     C23407   1.083   0.628   1.532  0.0339 -0.3674 -0.1500
  174MOL0     C23408   1.167   0.704   1.604 -0.8280  0.7767  0.4213
  174MOL0     C23409   1.354   0.897   1.982  0.3245  0.3232  0.7668
  174MOL0     C23410   1.423   0.834   2.085  0.2575 -0.6626 -0.5754
  174MOL0     C23411   1.503   0.906   2.174  0.3894 -0.4546 -0.3635
  174MOL0     C23412   1.530   1.037   2.146  0.1277  0.0336 -0.2568
  174MOL0     O23413   1.635   1.102   2.198 -0.3277 -0.1601  0.5910
  174MOL0     C23414   1.688   1.061   2.320 -0.6103 -0.7613  0.4788
  174MOL0     C23415   1.739   1.180   2.400  0.0554 -0.9614 -0.3206
  174MOL0     C23416   1.875   1.235   2.325 -0.1460  0.2278 -0.1945
  174MOL0     C23417   1.929   1.365   2.391  1.1123 -0.2158  0.1116
  174MOL0     C23418   2.039   1.427   2.313 -0.1216  1.2734  0.7615
  174MOL0     C23419   2.133   1.461   2.243 -0.7592  0.1562 -0.4315
  174MOL0     C23420   1.453   1.102   2.046 -0.8013 -0.8566 -0.3672
  174MOL0     C23421   1.363   1.034   1.967  0.2980  0.3113 -0.3795
  174MOL0     C23422   1.292   1.124   1.863 -0.3234 -0.5025 -0.7491
  174MOL0     H23423   0.953   0.810   1.854  2.8602  0.0748  0.3600
  174MOL0     H23424   0.794   0.670   1.705 -1.0705  2.8028 -1.1534
  174MOL0     H23425   0.989   0.389   1.446  0.8972 -1.1765  0.1498
  174MOL0     H23426   0.815   0.357   1.414  2.0415 -0.4125  0.2215
  174MOL0     H23427   0.961   0.589   1.272 -1.0984  0.7745  3.6428
  174MOL0     H23428   0.814   0.502   1.219 -0.6832 -1.7114 -0.5635
  174MOL0     H23429   1.106   0.414   1.232 -1.4627 -5.1344  1.2144
  174MOL0     H23430   1.024   0.453   1.078  2.2023 -0.7168 -0.2769
  174MOL0     H23431   1.038   0.219   1.101 -1.5116 -2.0388  1.1121
  174MOL0     H23432   0.943   0.221   1.247  1.3558 -2.6851 -1.5582
  174MOL0     H23433   0.749   0.329   1.135 -2.3496 -1.8066 -0.7007
  174MOL0     H23434   0.865   0.339   0.989  2.0930 -0.5807  0.8686
  174MOL0     H23435   0.876   0.085   0.990  0.0953  3.2018 -3.8954
  174MOL0     H23436   0.777   0.081   1.135  2.2960 -1.7004  0.2183
  174MOL0     H23437   0.717   0.137   0.846  0.1789 -1.1886  0.2932
  174MOL0     H23438   0.633   0.240   0.961  1.0446  0.9032 -2.5866
  174MOL0     H23439   0.617  -0.063   0.886  2.0755 -1.0045  2.4279
  174MOL0     H23440   0.578  -0.028   1.053  1.0442 -2.9086 -0.9595
  174MOL0     H23441   0.339  -0.063   1.072  0.8370 -1.4728 -1.6110
  174MOL0     H23442   0.083  -0.068   1.002  1.9281 -0.2426 -0.1032
  174MOL0     H23443   0.078   0.097   1.050  0.1693  0.6404 -1.4015
  174MOL0     H23444  -0.014   0.172   0.833  3.7266  0.0613 -3.7412
  174MOL0     H23445   0.032   0.029   0.746 -2.4812  1.1822 -1.2669
  174MOL0     H23446  -0.165   0.048   0.965 -1.0418 -0.0364 -0.5825
  174MOL0     H23447  -0.123  -0.116   0.900 -0.1338  0.4841  0.8244
  174MOL0     H23448  -0.338  -0.041   0.820 -0.3852 -0.5884  0.8078
  174MOL0     H23449  -0.207  -0.068   0.694  0.6316  3.3996 -2.0494
  174MOL0     H23450  -0.311   0.391   0.715 -0.3757 -0.3042  0.9676
  174MOL0     H23451  -0.484   0.482   0.549  0.3397 -0.0788  2.5701
  174MOL0     H23452  -0.877   0.499   0.332  1.9779  1.1564  0.1269
  174MOL0     H23453  -1.022   0.577   0.167  3.1658  2.9615 -0.7974
  174MOL0     H23454  -1.052   0.671  -0.013  2.9644 -0.1813 -0.6456
  174MOL0     H23455  -1.003   0.622  -0.179  0.0045  1.9821  0.3195
  174MOL0     H23456  -1.199   0.716  -0.233  1.0534 -0.4244 -0.4294
  174MOL0     H23457  -1.241   0.549  -0.214  0.3258  1.1552 -1.4468
  174MOL0     H23458  -1.308   0.776  -0.014  1.1463 -0.4730 -0.3242
  174MOL0     H23459  -1.424   0.698  -0.102  1.2105  1.6122 -0.0438
  174MOL0     H23460  -1.293   0.566   0.137  1.2375  0.3642 -1.1329
  174MOL0     H23461  -1.338   0.470  -0.001 -1.0857 -0.4205  1.0021
  174MOL0     H23462  -1.523   0.649   0.147  1.4632  0.4448 -1.4973
  174MOL0     H23463  -1.489   0.474   0.176 -0.7289 -0.2651  0.4703
  174MOL0     H23464  -1.597   0.574  -0.085 -0.4442  1.1045  1.1743
  174MOL0     H23465  -1.575   0.406  -0.021  2.8211  0.4460 -1.4146
  174MOL0     H23466  -1.799   0.593  -0.008  2.1433 -0.0576 -2.3364
  174MOL0     H23467  -1.743   0.532   0.166  0.9442 -3.3404 -0.1298
  174MOL0     H23468  -1.773   0.313   0.094  0.5525  0.8349  0.0631
  174MOL0     H23469  -1.926   0.420   0.070 -0.3097  4.0747 -4.1152
  174MOL0     H23470  -0.955   0.239  -0.078 -2.2624 -2.1514  1.6502
  174MOL0     H23471  -0.780   0.156   0.094  0.7783  0.4288 -1.5819
  174MOL0     H23472  -0.615   0.076   0.478  0.4538 -1.7314  0.6096
  174MOL0     H23473  -0.448  -0.007   0.617  0.8528  1.0275 -0.5273
  174MOL0     H23474   1.111   0.561   1.451  0.5322 -1.7625  1.1269
  174MOL0     H23475   1.268   0.715   1.565 -0.2945 -0.3781  1.4248
  174MOL0     H23476   1.432   0.725   2.082 -1.9130 -0.8539 -1.4692
  174MOL0     H23477   1.561   0.859   2.253 -0.1821  0.9459  0.9520
  174MOL0     H23478   1.776   0.998   2.299 -0.2265  0.2366 -1.1044
  174MOL0     H23479   1.626   0.990   2.375 -1.6725 -0.9153 -0.8656
  174MOL0     H23480   1.756   1.138   2.500  0.8275 -2.8996 -1.2039
  174MOL0     H23481   1.663   1.258   2.408 -0.2421 -1.4272  4.2158
  174MOL0     H23482   1.843   1.262   2.223 -1.3923  1.4530  0.4798
  174MOL0     H23483   1.955   1.161   2.330 -1.9832 -1.7997  3.0804
  174MOL0     H23484   1.855   1.446   2.396  2.4324  1.0787 -0.4552
  174MOL0     H23485   1.963   1.341   2.492  1.0776 -0.1025  0.1507
  174MOL0     H23486   2.216   1.491   2.182 -0.0240 -1.0349 -0.0382
  174MOL0     H23487   1.467   1.209   2.033  2.7326 -1.0746  0.3852
  174MOL0     H23488   1.359   1.163   1.786 -2.0819 -0.6867 -2.4317
  174MOL0     H23489   1.216   1.080   1.798 -2.2021  4.7811 -2.6536
  174MOL0     H23490   1.246   1.201   1.926  1.7686 -0.3877  0.7469
  175MOL0     O23491   5.056   9.352   3.381  0.8919  0.1344 -0.1312
  175MOL0     C23492   5.032   9.268   3.471 -0.3746 -0.4883 -0.6399
  175MOL0     O23493   5.123   9.216   3.559 -0.1370 -1.2586  0.3213
  175MOL0     C23494   5.247   9.279   3.557  0.4076 -0.4272 -0.6350
  175MOL0     C23495   5.273   9.421   3.559  0.0694 -0.2372  0.7653
  175MOL0     C23496   5.400   9.474   3.569 -0.0355 -0.1942  0.2315
  175MOL0     C23497   5.507   9.387   3.580 -0.5804 -0.2167 -0.8155
  175MOL0     O23498   5.633   9.438   3.618  0.2216 -0.8322  0.7054
  175MOL0     C23499   5.743   9.398   3.534 -0.5339 -0.3045  0.2699
  175MOL0     C23500   5.872   9.473   3.578 -0.0813  0.3205 -0.4393
  175MOL0     C23501   5.995   9.415   3.499  0.3525 -0.7467  0.3809
  175MOL0     C23502   6.116   9.501   3.530 -0.1616  0.8054  0.7529
  175MOL0     C23503   6.176   9.492   3.670  0.0414  0.7893 -0.3321
  175MOL0     C23504   6.313   9.555   3.681 -0.4823  0.6829  0.2356
  175MOL0     C23505   6.391   9.529   3.805  0.3559  0.9413  0.5367
  175MOL0     C23506   6.311   9.583   3.929 -0.5614  0.2502  0.4597
  175MOL0     N23507   6.397   9.547   4.047 -0.3385  0.6067 -0.0787
  175MOL0     C23508   6.519   9.615   4.080 -0.7704  0.0905  0.2012
  175MOL0     C23509   6.576   9.528   4.162  0.2690  0.1975 -0.2696
  175MOL0     C23510   6.706   9.546   4.245  0.6920 -0.4468  0.0896
  175MOL0     C23511   6.677   9.495   4.387  0.1797 -1.0633 -1.0426
  175MOL0     C23512   6.780   9.532   4.494  1.3316 -0.0548 -0.4554
  175MOL0     C23513   6.915   9.466   4.464 -0.1878 -0.6235 -0.8742
  175MOL0     O23514   6.977   9.532   4.356 -0.5562  0.0135 -0.0922
  175MOL0     C23515   7.092   9.601   4.386  0.3995 -0.2285  0.9563
  175MOL0     C23516   7.117   9.668   4.510 -0.5046  0.2759  0.1278
  175MOL0     C23517   7.227   9.754   4.528 -0.4643 -0.0723  0.7687
  175MOL0     C23518   7.327   9.754   4.428 -0.1840  0.4405  0.7942
  175MOL0     C23519   7.455   9.829   4.445  1.0862 -0.4330 -0.7500
  175MOL0     O23520   7.547   9.816   4.347 -0.4025 -0.1706  0.4092
  175MOL0     C23521   7.662   9.885   4.356 -0.1361  0.4453  0.0472
  175MOL0     C23522   7.735   9.884   4.476 -1.2139  0.3984 -0.2186
  175MOL0     C23523   7.852   9.967   4.489  0.1282 -0.7525 -0.1581
  175MOL0     C23524   7.890  10.048   4.390 -0.7754  0.0265  0.6021
  175MOL0     O23525   7.996  10.140   4.401 -0.6934  0.0238  0.3893
  175MOL0     C23526   8.061  10.161   4.519  0.2302 -0.1407 -0.3812
  175MOL0     C23527   8.165  10.275   4.484  0.3695  0.0632  0.2786
  175MOL0     C23528   8.286  10.221   4.400 -0.2716  0.4665 -0.0418
  175MOL0     C23529   8.393  10.336   4.399  0.0501  0.2242  0.5483
  175MOL0     C23530   8.488  10.334   4.279  0.3088  0.6894 -0.1236
  175MOL0     C23531   8.580  10.446   4.264 -0.1415 -0.5314  0.0201
  175MOL0     C23532   8.665  10.485   4.386 -0.3380  0.0536  0.6646
  175MOL0     C23533   8.749  10.612   4.374  1.2455  0.3892 -0.6709
  175MOL0    Cl23534   8.651  10.758   4.389 -0.1487  0.2510 -0.1231
  175MOL0     C23535   7.830  10.038   4.267  0.2475 -0.9468 -0.0134
  175MOL0     C23536   7.712   9.963   4.257  0.4254 -0.0224  0.6827
  175MOL0     O23537   7.466   9.912   4.539  1.0753  0.2284  1.1042
  175MOL0     C23538   7.305   9.687   4.303 -0.3231  0.3526  0.1557
  175MOL0     C23539   7.189   9.613   4.283 -0.7847  0.4379  0.9457
  175MOL0     N23540   6.488   9.424   4.186  0.0985  0.3627 -0.3962
  175MOL0     N23541   6.381   9.429   4.117 -0.2991  0.9101 -0.2274
  175MOL0     C23542   5.484   9.246   3.584 -0.1398  0.4126 -0.0307
  175MOL0     C23543   5.356   9.197   3.569 -0.0801  0.5514 -0.8067
  175MOL0     C23544   4.892   9.210   3.491  0.3107 -0.8984 -0.2059
  175MOL0     C23545   4.870   9.105   3.587  0.1135  0.1855  0.1770
  175MOL0     C23546   4.742   9.050   3.609 -0.1726  0.1483  0.0964
  175MOL0     C23547   4.633   9.093   3.544  0.0809  0.0041  1.0490
  175MOL0     O23548   4.519   9.026   3.552  0.5110 -0.5245 -0.8219
  175MOL0     C23549   4.416   9.103   3.617  0.6560  0.0418 -0.3738
  175MOL0     C23550   4.291   9.033   3.572 -0.2174 -0.0851  0.4586
  175MOL0     C23551   4.279   8.890   3.632 -0.8529 -0.1233 -0.1745
  175MOL0     C23552   4.140   8.855   3.650 -0.2080 -0.3244  1.1939
  175MOL0     C23553   4.065   8.847   3.518 -1.1481  1.8110 -0.0340
  175MOL0     C23554   3.990   8.838   3.423 -0.5076  0.1949 -0.0523
  175MOL0     C23555   4.650   9.198   3.451  0.4970 -0.3534  0.3608
  175MOL0     C23556   4.774   9.263   3.427  0.2916 -0.3273 -0.1728
  175MOL0     C23557   4.766   9.379   3.338 -0.8019  0.2346 -0.0881
  175MOL0     H23558   5.185   9.483   3.555 -0.4971 -1.0817 -0.3980
  175MOL0     H23559   5.411   9.579   3.593 -2.8649 -0.2425  2.1893
  175MOL0     H23560   5.762   9.290   3.532 -0.2751 -0.4234 -5.4635
  175MOL0     H23561   5.725   9.419   3.429  1.7413  1.0332  0.0817
  175MOL0     H23562   5.891   9.469   3.685 -0.9671  3.8133 -0.0174
  175MOL0     H23563   5.860   9.581   3.564  1.1972  1.0674  3.1948
  175MOL0     H23564   5.983   9.410   3.391 -3.0032  0.5736  0.5774
  175MOL0     H23565   6.019   9.316   3.539  0.4166  0.5408  3.9447
  175MOL0     H23566   6.193   9.469   3.459 -1.1579  1.0829 -0.4885
  175MOL0     H23567   6.098   9.608   3.511  0.8023  0.5102 -2.4042
  175MOL0     H23568   6.097   9.541   3.727 -1.8207 -0.8547 -1.3797
  175MOL0     H23569   6.174   9.387   3.702 -1.9103  0.8376 -0.1805
  175MOL0     H23570   6.377   9.541   3.593 -0.1798  3.7503 -0.1280
  175MOL0     H23571   6.298   9.663   3.677  2.6697  1.1974 -1.3808
  175MOL0     H23572   6.493   9.568   3.800  1.3253 -1.5713 -1.4076
  175MOL0     H23573   6.399   9.420   3.802 -2.6455  0.6643 -1.8758
  175MOL0     H23574   6.298   9.691   3.918 -2.4455 -0.0027 -0.1171
  175MOL0     H23575   6.213   9.536   3.939 -2.0133  2.0232 -3.4042
  175MOL0     H23576   6.564   9.706   4.043  2.3115 -0.8867  1.2207
  175MOL0     H23577   6.789   9.495   4.194  2.0815  2.5229 -0.8726
  175MOL0     H23578   6.728   9.653   4.251 -3.4589  0.4946  1.7909
  175MOL0     H23579   6.582   9.538   4.420  2.5243  0.8786  4.2589
  175MOL0     H23580   6.659   9.387   4.390  0.0689 -1.0633  2.6601
  175MOL0     H23581   6.731   9.482   4.578 -1.8097  1.7594 -1.0596
  175MOL0     H23582   6.798   9.637   4.519 -2.5048  0.6990 -0.1827
  175MOL0     H23583   6.876   9.368   4.437  1.4080 -0.9675 -2.0760
  175MOL0     H23584   6.978   9.439   4.550 -2.1426 -1.0577  0.4924
  175MOL0     H23585   7.052   9.658   4.596  1.2412 -0.1238  1.4651
  175MOL0     H23586   7.236   9.798   4.627 -0.9507 -0.1163  0.8346
  175MOL0     H23587   7.703   9.831   4.566  0.9274 -1.5488 -0.5219
  175MOL0     H23588   7.887   9.988   4.590  0.1191  2.0893 -0.6593
  175MOL0     H23589   7.993  10.194   4.597 -1.4646 -2.3816 -0.8138
  175MOL0     H23590   8.108  10.070   4.556  1.6453  0.8755  0.4259
  175MOL0     H23591   8.116  10.357   4.430  3.1253  0.1577 -2.3187
  175MOL0     H23592   8.186  10.329   4.577  1.2602 -0.3628  0.3352
  175MOL0     H23593   8.321  10.131   4.450  0.5221 -0.0561 -1.4770
  175MOL0     H23594   8.250  10.190   4.301 -0.8715  1.7420 -0.2445
  175MOL0     H23595   8.456  10.348   4.488  0.2779  3.4250  0.0573
  175MOL0     H23596   8.337  10.429   4.389 -1.7878 -0.6431  2.0302
  175MOL0     H23597   8.419  10.334   4.194  0.3297 -2.9446 -0.2973
  175MOL0     H23598   8.545  10.242   4.269 -4.9620 -3.0086 -0.5767
  175MOL0     H23599   8.643  10.423   4.178 -1.3604  2.2134 -1.7552
  175MOL0     H23600   8.521  10.535   4.240  2.6806  1.0349 -1.5818
  175MOL0     H23601   8.721  10.392   4.402 -0.8941 -0.5306 -0.6070
  175MOL0     H23602   8.607  10.499   4.477 -1.8574 -1.8026  0.0538
  175MOL0     H23603   8.824  10.609   4.454  0.0599  1.1766  0.5151
  175MOL0     H23604   8.798  10.607   4.277 -0.5119 -0.8496 -1.5448
  175MOL0     H23605   7.870  10.096   4.185  1.2864  1.5581  2.0875
  175MOL0     H23606   7.662   9.970   4.161  0.5467 -1.1740  0.5251
  175MOL0     H23607   7.373   9.688   4.219  2.7900  0.8792  2.5092
  175MOL0     H23608   7.169   9.570   4.185 -0.7219 -2.8691  2.2880
  175MOL0     H23609   5.569   9.178   3.585  0.0237  0.6081 -0.4009
  175MOL0     H23610   5.340   9.090   3.558  2.2436 -0.2173  1.8959
  175MOL0     H23611   4.953   9.059   3.640  1.0251  1.5407 -0.0169
  175MOL0     H23612   4.732   8.971   3.683 -3.1021 -0.8509 -1.2432
  175MOL0     H23613   4.423   9.208   3.587 -2.4877 -0.1701 -2.3694
  175MOL0     H23614   4.434   9.099   3.724 -0.8560  2.5703  0.0427
  175MOL0     H23615   4.291   9.034   3.462  5.6295  2.3448  0.1242
  175MOL0     H23616   4.198   9.089   3.589  0.3374  0.7207  0.9115
  175MOL0     H23617   4.325   8.880   3.730 -0.7180 -2.8741 -0.4537
  175MOL0     H23618   4.328   8.816   3.568 -1.2023  0.9841 -1.7927
  175MOL0     H23619   4.135   8.757   3.698 -0.6986 -0.6195  0.5546
  175MOL0     H23620   4.101   8.927   3.723 -0.4634  1.0187 -0.2097
  175MOL0     H23621   3.907   8.817   3.357  0.0106  0.5628 -0.8319
  175MOL0     H23622   4.564   9.229   3.392  0.9030 -0.6021 -0.3628
  175MOL0     H23623   4.669   9.398   3.289 -2.0562 -0.9963  1.7651
  175MOL0     H23624   4.776   9.469   3.398 -1.5359  0.0376  0.3521
  175MOL0     H23625   4.836   9.373   3.255 -0.5656  1.4830  0.0023
  176MOL0     O23626   8.100   6.703   7.821  0.9447 -0.4163  0.2499
  176MOL0     C23627   8.133   6.818   7.858 -0.1305  0.3635  0.4473
  176MOL0     O23628   8.055   6.919   7.904  0.3650  0.6256  0.6250
  176MOL0     C23629   7.921   6.905   7.914  0.5677  0.0507  0.1982
  176MOL0     C23630   7.852   6.780   7.926  0.7930 -0.3334  0.3476
  176MOL0     C23631   7.710   6.772   7.906 -0.0705 -0.1570 -0.5894
  176MOL0     C23632   7.633   6.884   7.886 -0.8019 -0.4127  1.0481
  176MOL0     O23633   7.494   6.873   7.868  0.1041  0.4366 -0.3380
  176MOL0     C23634   7.432   6.936   7.759 -0.2059  0.5215 -0.3098
  176MOL0     C23635   7.280   6.930   7.779 -1.2085 -0.4679 -0.2458
  176MOL0     C23636   7.233   7.051   7.852  0.5522  0.8604 -0.2852
  176MOL0     C23637   7.079   7.074   7.819 -0.4971 -0.9413 -0.1316
  176MOL0     C23638   7.034   7.220   7.875  0.1237 -0.1446  0.6018
  176MOL0     C23639   6.884   7.236   7.893 -0.4041 -0.3324 -0.5024
  176MOL0     C23640   6.844   7.371   7.942  1.2650 -0.6253  0.3703
  176MOL0     C23641   6.689   7.370   7.983 -0.3291  0.2303  0.4727
  176MOL0     N23642   6.653   7.287   8.104  0.0639  0.3308 -1.6801
  176MOL0     C23643   6.701   7.306   8.234 -0.0127 -0.5346  0.2090
  176MOL0     C23644   6.608   7.252   8.315  0.1682  0.3450 -0.1530
  176MOL0     C23645   6.610   7.246   8.466  0.1825  0.3859 -0.5072
  176MOL0     C23646   6.636   7.100   8.523 -0.7841  0.5081 -0.4966
  176MOL0     C23647   6.640   7.086   8.677 -0.3402  0.1702  0.2388
  176MOL0     C23648   6.510   7.123   8.754  0.1668 -0.6445 -0.1234
  176MOL0     O23649   6.543   7.089   8.890 -0.0146  0.2106  0.4713
  176MOL0     C23650   6.445   7.114   8.988 -0.6545  0.2443 -0.7196
  176MOL0     C23651   6.312   7.097   8.968  0.5936  0.3160 -0.2245
  176MOL0     C23652   6.221   7.110   9.075  0.0611 -0.6728 -0.9591
  176MOL0     C23653   6.268   7.143   9.201 -0.2729  0.4463 -1.1642
  176MOL0     C23654   6.173   7.160   9.319 -0.6497 -0.3643 -0.2879
  176MOL0     O23655   6.042   7.202   9.305 -0.9229 -0.6003 -0.3557
  176MOL0     C23656   5.977   7.244   9.411  0.2523 -0.4998  0.0927
  176MOL0     C23657   5.922   7.376   9.415  0.2597  0.6135 -0.8244
  176MOL0     C23658   5.846   7.417   9.519  1.1807  0.9241 -0.7081
  176MOL0     C23659   5.830   7.328   9.631 -0.5009 -0.5920  0.5420
  176MOL0     O23660   5.750   7.369   9.725  0.5676 -0.7816 -0.2969
  176MOL0     C23661   5.618   7.365   9.680 -0.1943 -0.2443  0.0954
  176MOL0     C23662   5.517   7.366   9.793 -0.0026  0.4195  0.0759
  176MOL0     C23663   5.377   7.411   9.759 -0.8329 -0.6767  0.3165
  176MOL0     C23664   5.290   7.388   9.881  0.0073 -1.1602 -0.1563
  176MOL0     C23665   5.240   7.246   9.884  0.8668  0.3420 -0.2276
  176MOL0     C23666   5.114   7.238   9.967 -0.3473 -0.5076 -0.5667
  176MOL0     C23667   5.014   7.138   9.902 -0.3798  1.2791 -0.6845
  176MOL0     C23668   4.935   7.061  10.010  0.2708  0.0966 -0.0103
  176MOL0    Cl23669   5.038   6.970  10.128  0.5659  0.6722  0.3903
  176MOL0     C23670   5.885   7.191   9.624 -0.4458 -0.8785 -0.4381
  176MOL0     C23671   5.956   7.153   9.515 -0.4005 -0.7959 -0.2472
  176MOL0     O23672   6.229   7.152   9.428  0.4694  0.0938 -0.0647
  176MOL0     C23673   6.408   7.153   9.223 -0.5981 -0.9477 -0.0383
  176MOL0     C23674   6.496   7.142   9.115 -0.8518  0.1576 -0.1099
  176MOL0     N23675   6.508   7.193   8.239  0.3897 -0.3908  0.6563
  176MOL0     N23676   6.534   7.218   8.116 -0.1123  0.2647  0.3360
  176MOL0     C23677   7.704   7.008   7.878 -0.7263 -0.1183 -0.1283
  176MOL0     C23678   7.840   7.015   7.887  0.6661  0.4082 -0.1677
  176MOL0     C23679   8.273   6.837   7.869 -0.0111 -0.0393 -0.7551
  176MOL0     C23680   8.319   6.881   7.995 -0.3545  0.0858 -0.4578
  176MOL0     C23681   8.453   6.915   8.022  0.4021 -0.8262  0.6525
  176MOL0     C23682   8.548   6.883   7.922 -0.2658 -0.6198 -0.5033
  176MOL0     O23683   8.684   6.902   7.930 -0.2179  0.1454 -0.3821
  176MOL0     C23684   8.725   6.948   8.064 -0.8572  0.2369 -0.2449
  176MOL0     C23685   8.701   7.104   8.089  0.0670  0.2227 -1.4057
  176MOL0     C23686   8.709   7.194   7.962 -0.2663  0.6547 -0.1319
  176MOL0     C23687   8.680   7.343   7.982 -0.2253  1.1863  0.1240
  176MOL0     C23688   8.709   7.427   7.860 -0.1054  0.0480 -0.5678
  176MOL0     C23689   8.739   7.485   7.757  0.1919 -0.7304  0.0307
  176MOL0     C23690   8.502   6.839   7.795  0.5206 -0.1551 -0.2681
  176MOL0     C23691   8.365   6.815   7.761 -0.0871 -0.3300 -0.3693
  176MOL0     C23692   8.334   6.769   7.619  0.3331  0.1523 -0.6777
  176MOL0     H23693   7.900   6.684   7.939 -1.1316 -1.2129  1.2979
  176MOL0     H23694   7.653   6.679   7.909  0.0886 -0.2480  1.7734
  176MOL0     H23695   7.472   7.035   7.738  2.4676 -0.3259  0.3970
  176MOL0     H23696   7.456   6.875   7.671  1.3360  2.6558 -1.4549
  176MOL0     H23697   7.249   6.837   7.828  0.5187 -0.7125  0.4710
  176MOL0     H23698   7.246   6.940   7.675  0.6183  0.6249 -0.7780
  176MOL0     H23699   7.289   7.138   7.814  1.5057 -1.1839 -4.1026
  176MOL0     H23700   7.218   7.032   7.958 -2.6679  0.9879 -0.6104
  176MOL0     H23701   7.047   7.067   7.714 -1.8906 -0.8839  0.2807
  176MOL0     H23702   7.019   6.999   7.871 -1.3053  1.2835  2.3586
  176MOL0     H23703   7.075   7.244   7.973  1.1588  0.8035 -0.0332
  176MOL0     H23704   7.067   7.302   7.809 -1.2881  2.1655  2.6036
  176MOL0     H23705   6.834   7.202   7.801  0.7111 -1.2813 -0.7880
  176MOL0     H23706   6.860   7.163   7.971 -0.5995 -0.7328 -0.9313
  176MOL0     H23707   6.852   7.437   7.855 -1.2972 -0.9430 -0.1753
  176MOL0     H23708   6.898   7.409   8.029  0.0845  1.2040  0.3613
  176MOL0     H23709   6.661   7.471   8.013 -1.2725 -0.3896  1.7945
  176MOL0     H23710   6.641   7.321   7.897 -1.5655  0.2240  1.1442
  176MOL0     H23711   6.777   7.379   8.260 -1.2111  1.1457 -0.7570
  176MOL0     H23712   6.684   7.324   8.484 -0.4550  0.8799  0.0301
  176MOL0     H23713   6.520   7.291   8.510  0.5250  0.5417  0.0444
  176MOL0     H23714   6.554   7.031   8.498  0.1408 -0.9002  0.2568
  176MOL0     H23715   6.739   7.075   8.496 -1.0269  0.8119 -1.7633
  176MOL0     H23716   6.722   7.145   8.719  0.2452 -0.2076 -0.3533
  176MOL0     H23717   6.659   6.980   8.693 -1.0321 -0.3098 -1.7665
  176MOL0     H23718   6.424   7.067   8.715  0.5384  0.0042 -1.9879
  176MOL0     H23719   6.478   7.225   8.732 -2.3155 -1.2872  0.1033
  176MOL0     H23720   6.275   7.063   8.872 -0.0221 -2.2188  0.8083
  176MOL0     H23721   6.114   7.095   9.065 -0.3778 -0.6662  2.4100
  176MOL0     H23722   5.938   7.453   9.340  1.5955  2.2425  1.0303
  176MOL0     H23723   5.782   7.505   9.519 -6.2046 -3.6552  0.2829
  176MOL0     H23724   5.604   7.457   9.623  1.6228 -0.4270 -0.7263
  176MOL0     H23725   5.601   7.286   9.605 -1.8968  1.4160 -1.3580
  176MOL0     H23726   5.515   7.266   9.836 -3.9714 -0.1092 -0.9767
  176MOL0     H23727   5.547   7.435   9.873  0.5752 -1.4016  1.4850
  176MOL0     H23728   5.383   7.520   9.750 -2.0097 -0.2189  3.6124
  176MOL0     H23729   5.345   7.367   9.664 -4.1000  2.4074 -0.2266
  176MOL0     H23730   5.203   7.453   9.885  0.7934 -0.0755 -0.0550
  176MOL0     H23731   5.342   7.420   9.972 -1.3056 -0.6880  0.4386
  176MOL0     H23732   5.319   7.176   9.912  1.0094  0.5270 -0.1602
  176MOL0     H23733   5.220   7.221   9.780  0.4755 -2.6774  0.4786
  176MOL0     H23734   5.148   7.204  10.066  3.7656  0.4577 -1.4900
  176MOL0     H23735   5.062   7.334   9.973  0.9430  0.2027 -0.4109
  176MOL0     H23736   5.080   7.063   9.857  1.6659  0.6791  2.8693
  176MOL0     H23737   4.954   7.187   9.825 -1.2246  2.0924  0.4518
  176MOL0     H23738   4.875   7.131  10.069  0.2989 -0.2237  0.4092
  176MOL0     H23739   4.867   6.988   9.964  0.9952 -0.0519 -0.8627
  176MOL0     H23740   5.860   7.125   9.706 -2.3061 -0.3366 -0.5361
  176MOL0     H23741   5.989   7.050   9.514  0.0759 -0.6610 -2.0524
  176MOL0     H23742   6.439   7.206   9.313 -2.1542 -1.6430  0.9477
  176MOL0     H23743   6.602   7.156   9.137 -1.3367 -0.2841  2.9075
  176MOL0     H23744   7.650   7.100   7.861  3.0626  2.0854 -1.4074
  176MOL0     H23745   7.890   7.112   7.891  2.2614 -0.4178  1.0360
  176MOL0     H23746   8.247   6.899   8.075 -0.2642  4.0088 -1.0846
  176MOL0     H23747   8.475   6.961   8.118  1.1780  0.1047  0.0449
  176MOL0     H23748   8.831   6.921   8.068 -0.5566  1.2719 -0.9196
  176MOL0     H23749   8.681   6.897   8.151  0.7373  0.6902  0.8658
  176MOL0     H23750   8.783   7.138   8.154 -1.1604 -3.7818  2.7663
  176MOL0     H23751   8.610   7.124   8.147  0.5520  0.4968 -0.7209
  176MOL0     H23752   8.626   7.161   7.898  0.3062 -1.7743  0.2525
  176MOL0     H23753   8.799   7.182   7.901 -0.9284  1.4695 -1.3175
  176MOL0     H23754   8.576   7.340   8.014 -0.0505 -0.8035  0.6460
  176MOL0     H23755   8.738   7.375   8.069  0.0533  0.4464  0.2150
  176MOL0     H23756   8.785   7.528   7.671 -0.6502  2.5711  1.0779
  176MOL0     H23757   8.579   6.829   7.718 -0.5883  3.5841 -2.1218
  176MOL0     H23758   8.279   6.675   7.611  0.1353  0.1848  0.2314
  176MOL0     H23759   8.259   6.838   7.578  0.8201 -0.6004 -2.9901
  176MOL0     H23760   8.420   6.776   7.553  0.0976  0.7465 -0.9255
  177MOL0     O23761   4.487   4.348   1.914  0.0661  0.0274 -0.0173
  177MOL0     C23762   4.493   4.465   1.884 -0.2737 -0.1260  0.3253
  177MOL0     O23763   4.443   4.566   1.970  1.2554 -0.1275  0.7948
  177MOL0     C23764   4.321   4.553   2.038 -1.4960  1.2555  0.4801
  177MOL0     C23765   4.318   4.607   2.166 -0.2381  0.2394  0.7928
  177MOL0     C23766   4.200   4.601   2.242 -0.1410  0.1723  0.2497
  177MOL0     C23767   4.087   4.552   2.183 -0.0661  0.2095  0.7629
  177MOL0     O23768   3.971   4.562   2.251  0.1563 -0.2656 -0.4211
  177MOL0     C23769   3.871   4.649   2.188  0.2384 -0.2447  0.0503
  177MOL0     C23770   3.741   4.589   2.219  0.6643  0.5350 -0.2651
  177MOL0     C23771   3.696   4.464   2.143  0.2204 -0.5652 -0.0339
  177MOL0     C23772   3.750   4.335   2.208 -0.6997  0.7686  0.6343
  177MOL0     C23773   3.702   4.210   2.125  0.2901 -0.6428 -0.4063
  177MOL0     C23774   3.586   4.130   2.181 -0.2424  0.2512 -0.0952
  177MOL0     C23775   3.582   3.994   2.104 -0.1544 -0.6889 -0.7758
  177MOL0     C23776   3.548   4.001   1.959 -0.3944 -0.2087  0.4359
  177MOL0     N23777   3.550   3.869   1.895  1.1737  0.0147 -0.4309
  177MOL0     C23778   3.441   3.786   1.864 -0.1901 -0.5060  0.3511
  177MOL0     C23779   3.497   3.670   1.815 -0.8476  0.3586 -1.1553
  177MOL0     C23780   3.439   3.530   1.800  0.5735  0.8602  0.8775
  177MOL0     C23781   3.375   3.491   1.934 -0.2480 -0.1223  0.8466
  177MOL0     C23782   3.268   3.386   1.938 -0.6607  0.1659 -0.1318
  177MOL0     C23783   3.213   3.392   2.078 -0.9638 -0.3332  0.2005
  177MOL0     O23784   3.318   3.402   2.173  0.2912  0.4704 -0.0014
  177MOL0     C23785   3.378   3.290   2.219  0.1869  0.2572  0.2407
  177MOL0     C23786   3.521   3.283   2.228  0.2945 -0.4371  0.6041
  177MOL0     C23787   3.593   3.165   2.255 -0.2987  0.3001  0.7366
  177MOL0     C23788   3.518   3.055   2.276 -0.1152 -0.9594 -0.4124
  177MOL0     C23789   3.589   2.928   2.289  0.2445 -0.9505  0.4508
  177MOL0     O23790   3.720   2.920   2.315  0.5862  1.0235 -0.3381
  177MOL0     C23791   3.779   2.798   2.320  0.3805  0.1374  1.0544
  177MOL0     C23792   3.741   2.691   2.400  0.6459  0.7472  0.3000
  177MOL0     C23793   3.793   2.561   2.381 -0.4736 -0.6446  0.1077
  177MOL0     C23794   3.899   2.542   2.293  0.4947  0.9700  0.4442
  177MOL0     O23795   3.981   2.431   2.307  0.3373 -0.3001 -0.1573
  177MOL0     C23796   4.099   2.412   2.237 -0.2278 -0.7825 -0.4031
  177MOL0     C23797   4.135   2.262   2.248  0.2145 -0.6867 -0.1696
  177MOL0     C23798   4.144   2.220   2.393 -0.5629 -0.7455  0.1638
  177MOL0     C23799   4.169   2.063   2.397  0.0040  0.4733  0.0521
  177MOL0     C23800   4.163   2.020   2.541  0.0197  0.1386  1.5446
  177MOL0     C23801   4.023   1.993   2.582 -0.5423  0.7540 -0.1151
  177MOL0     C23802   4.021   1.924   2.717  0.4340 -0.1930  0.3024
  177MOL0     C23803   3.881   1.892   2.770 -0.4569 -0.6512  0.0506
  177MOL0    Cl23804   3.904   1.790   2.911  0.1506  0.5683 -0.1298
  177MOL0     C23805   3.943   2.649   2.214  0.1296 -0.3490  0.4467
  177MOL0     C23806   3.881   2.770   2.228  1.0250 -0.7655 -0.6899
  177MOL0     O23807   3.524   2.831   2.259  0.4416  0.0303 -0.0253
  177MOL0     C23808   3.377   3.060   2.281 -0.3744  1.5482 -0.2931
  177MOL0     C23809   3.305   3.176   2.250  0.1570 -0.1979  0.8394
  177MOL0     N23810   3.630   3.688   1.823 -0.1717 -0.0947 -0.4066
  177MOL0     N23811   3.668   3.805   1.861  0.9892 -0.2988  0.1703
  177MOL0     C23812   4.092   4.501   2.055  0.4335 -0.0696 -0.2302
  177MOL0     C23813   4.206   4.508   1.983 -0.2721 -0.1521  0.1875
  177MOL0     C23814   4.570   4.511   1.773 -0.8414  0.1628  0.8726
  177MOL0     C23815   4.680   4.593   1.807 -0.4591  0.4089  0.1562
  177MOL0     C23816   4.754   4.663   1.713 -0.0014  0.5039 -0.2121
  177MOL0     C23817   4.722   4.650   1.581 -0.3359 -0.4707 -0.8269
  177MOL0     O23818   4.800   4.690   1.478 -0.2647  0.0816  0.4662
  177MOL0     C23819   4.897   4.795   1.521 -0.1920  0.2266 -0.2701
  177MOL0     C23820   4.961   4.855   1.406 -0.3664  0.1853  0.3263
  177MOL0     C23821   5.099   4.922   1.435 -0.1405  0.1842  0.3405
  177MOL0     C23822   5.151   5.019   1.321 -0.2295  1.1749  0.8330
  177MOL0     C23823   5.286   5.066   1.347 -0.2488 -0.0142  0.4888
  177MOL0     C23824   5.393   5.120   1.361 -0.8088 -0.2690  0.4053
  177MOL0     C23825   4.618   4.560   1.548 -0.6543 -0.6390 -0.3326
  177MOL0     C23826   4.539   4.494   1.635 -0.0723  0.2245 -0.4952
  177MOL0     C23827   4.426   4.400   1.584 -0.6360 -0.4960 -0.2370
  177MOL0     H23828   4.409   4.642   2.213 -0.2772 -1.6976  2.4408
  177MOL0     H23829   4.195   4.645   2.340  1.5760  2.0633 -0.4462
  177MOL0     H23830   3.883   4.753   2.219 -1.1785  0.5311 -1.8011
  177MOL0     H23831   3.886   4.663   2.081  1.9669  2.3870  0.5210
  177MOL0     H23832   3.672   4.669   2.191  1.8142  1.7562  0.3296
  177MOL0     H23833   3.735   4.569   2.327 -1.5153 -1.0407 -0.6018
  177MOL0     H23834   3.735   4.485   2.043 -0.6893  3.0086  0.2137
  177MOL0     H23835   3.588   4.454   2.130 -0.1154  1.1865  1.1071
  177MOL0     H23836   3.859   4.333   2.201 -0.7833  1.4385 -1.9372
  177MOL0     H23837   3.711   4.339   2.310 -0.4844 -0.9504  0.8181
  177MOL0     H23838   3.675   4.248   2.027 -2.5290  2.9981  1.5500
  177MOL0     H23839   3.793   4.149   2.117  0.5839 -0.4593  1.1284
  177MOL0     H23840   3.587   4.120   2.290 -1.0331  1.5706  0.0538
  177MOL0     H23841   3.490   4.181   2.165  0.6799  1.2944 -2.9413
  177MOL0     H23842   3.503   3.941   2.158  1.1811 -1.6042  0.3398
  177MOL0     H23843   3.680   3.947   2.118 -1.0936 -2.5070  0.1095
  177MOL0     H23844   3.446   4.042   1.954 -1.0024 -0.8473  4.2809
  177MOL0     H23845   3.627   4.067   1.923 -1.9724  2.9356  2.3130
  177MOL0     H23846   3.339   3.802   1.897  0.0837 -0.3861  1.1578
  177MOL0     H23847   3.354   3.536   1.731  1.2130  0.6094  0.0487
  177MOL0     H23848   3.514   3.455   1.772  0.8930  1.1603  0.9205
  177MOL0     H23849   3.460   3.469   1.999  0.5300  2.8995  0.9813
  177MOL0     H23850   3.338   3.579   1.986  2.0283  0.1369  2.1703
  177MOL0     H23851   3.316   3.288   1.938  0.4569  0.7003 -0.2164
  177MOL0     H23852   3.190   3.399   1.863 -2.0788  0.2428  1.2953
  177MOL0     H23853   3.153   3.303   2.098  1.7097 -1.8595  2.0138
  177MOL0     H23854   3.143   3.475   2.095 -0.3507 -0.2283  2.5855
  177MOL0     H23855   3.568   3.380   2.211 -0.5539 -0.2445 -0.8287
  177MOL0     H23856   3.700   3.173   2.270 -0.1567  2.9826 -1.1536
  177MOL0     H23857   3.649   2.706   2.457 -1.4765 -1.9510 -2.0982
  177MOL0     H23858   3.749   2.476   2.433  0.9325 -1.0903  0.6207
  177MOL0     H23859   4.088   2.437   2.132  2.9310  1.7036 -0.3053
  177MOL0     H23860   4.175   2.482   2.271 -0.5842  0.1360 -1.4572
  177MOL0     H23861   4.050   2.213   2.199 -0.6628 -0.8778  1.4688
  177MOL0     H23862   4.225   2.247   2.188 -0.7473 -2.3659 -1.2774
  177MOL0     H23863   4.221   2.277   2.445 -1.5673 -0.3142  1.2410
  177MOL0     H23864   4.051   2.239   2.448 -0.8909 -1.3290 -0.1827
  177MOL0     H23865   4.261   2.030   2.348 -0.8736 -4.7521  1.3534
  177MOL0     H23866   4.096   2.002   2.343  0.1658 -0.2267  0.6057
  177MOL0     H23867   4.218   2.085   2.610  1.0454  1.1339 -0.1234
  177MOL0     H23868   4.222   1.927   2.546  0.8173  0.5994  1.0341
  177MOL0     H23869   3.977   2.092   2.583 -1.9044  0.1553  1.9007
  177MOL0     H23870   3.984   1.928   2.504 -0.5080 -3.5004  3.0301
  177MOL0     H23871   4.074   1.987   2.788  0.8749 -0.9867  0.6919
  177MOL0     H23872   4.082   1.834   2.729  1.7350  0.6364  0.0170
  177MOL0     H23873   3.826   1.986   2.780 -0.7287 -0.5541 -1.9027
  177MOL0     H23874   3.828   1.840   2.690  2.5472 -0.0116 -2.5791
  177MOL0     H23875   4.021   2.654   2.139 -0.1264  0.2529  0.2194
  177MOL0     H23876   3.914   2.851   2.165  3.7679  0.1905  1.7453
  177MOL0     H23877   3.313   2.973   2.290 -0.7112  1.7965 -0.2781
  177MOL0     H23878   3.197   3.168   2.248 -0.0939  2.4185 -0.4148
  177MOL0     H23879   4.010   4.448   2.008  2.0663 -2.3365 -0.6927
  177MOL0     H23880   4.202   4.475   1.880  0.3642  2.2627 -0.6800
  177MOL0     H23881   4.701   4.607   1.913  2.2264 -0.7032 -0.1581
  177MOL0     H23882   4.847   4.716   1.735  0.5248 -1.0171  1.3965
  177MOL0     H23883   4.975   4.751   1.585 -1.0656 -0.6854  0.1884
  177MOL0     H23884   4.838   4.871   1.573  1.8200  0.1906  2.3231
  177MOL0     H23885   4.892   4.935   1.378  0.6902  1.1899  0.5049
  177MOL0     H23886   4.979   4.782   1.326  0.3640  2.8635 -2.1029
  177MOL0     H23887   5.168   4.840   1.457 -2.2205 -1.9957 -0.8052
  177MOL0     H23888   5.088   4.973   1.531 -0.8727  0.2685  0.2190
  177MOL0     H23889   5.146   4.970   1.223  0.0222  0.7456  1.0292
  177MOL0     H23890   5.093   5.111   1.320  1.9111  2.5988  0.6010
  177MOL0     H23891   5.482   5.178   1.371 -2.0783  2.3270 -2.0972
  177MOL0     H23892   4.601   4.572   1.441  1.0744  1.9137 -0.4120
  177MOL0     H23893   4.400   4.309   1.640  0.6048 -1.7881 -1.6575
  177MOL0     H23894   4.341   4.458   1.550  0.1251 -0.3090 -1.8896
  177MOL0     H23895   4.460   4.360   1.488 -0.5491  0.9098 -0.8135
  178MOL0     O23896   8.723  10.659   5.264 -0.8615 -0.0648  0.3868
  178MOL0     C23897   8.660  10.744   5.211  0.4850  0.3693  0.6917
  178MOL0     O23898   8.528  10.736   5.181 -0.9082  0.5277 -0.5114
  178MOL0     C23899   8.436  10.645   5.241 -1.5410  1.0486  0.0121
  178MOL0     C23900   8.467  10.531   5.326  0.6725  0.2341 -0.6584
  178MOL0     C23901   8.368  10.461   5.392  0.9703 -0.1732  1.1732
  178MOL0     C23902   8.236  10.510   5.387  1.0472 -0.1484 -0.3532
  178MOL0     O23903   8.135  10.463   5.462 -0.9828 -1.3238 -0.0487
  178MOL0     C23904   8.153  10.329   5.506  0.7951  0.1582  0.7003
  178MOL0     C23905   8.008  10.287   5.537  0.9439 -0.1622  0.4725
  178MOL0     C23906   7.912  10.286   5.413 -0.3023  0.0120  0.2559
  178MOL0     C23907   7.767  10.253   5.455 -0.0489 -0.1344 -0.2407
  178MOL0     C23908   7.743  10.106   5.483 -0.4379  0.7533 -0.6452
  178MOL0     C23909   7.596  10.065   5.481  0.3365  0.2531 -0.9447
  178MOL0     C23910   7.566   9.918   5.523 -0.5638  0.7499  0.1687
  178MOL0     C23911   7.416   9.896   5.512  0.3305  0.3369  0.5324
  178MOL0     N23912   7.339   9.960   5.627 -0.2235 -0.7920  0.2290
  178MOL0     C23913   7.325   9.890   5.740  0.4455  0.2758  0.0100
  178MOL0     C23914   7.281   9.982   5.833 -0.9830  0.3744  0.5414
  178MOL0     C23915   7.242   9.951   5.979 -0.1679  0.3298 -0.0182
  178MOL0     C23916   7.095   9.978   6.010 -0.5274  0.5679  0.0222
  178MOL0     C23917   7.069   9.949   6.166 -0.0252  0.1393  0.3780
  178MOL0     C23918   7.005   9.808   6.172 -0.8307 -0.1991  0.9376
  178MOL0     O23919   6.867   9.815   6.133  0.4365  0.6648  0.0323
  178MOL0     C23920   6.776   9.866   6.224 -0.1666 -0.6097 -0.4882
  178MOL0     C23921   6.773   9.816   6.354 -0.5638 -0.0417 -0.2828
  178MOL0     C23922   6.679   9.868   6.439 -0.7984  0.6907  0.1679
  178MOL0     C23923   6.576   9.951   6.393 -0.3961  0.9659 -0.3552
  178MOL0     C23924   6.481  10.005   6.490  0.0814 -0.2367  0.0833
  178MOL0     O23925   6.385  10.093   6.448  0.1776 -0.0156  0.2687
  178MOL0     C23926   6.289  10.136   6.536 -0.2413  0.6090  0.0684
  178MOL0     C23927   6.163  10.083   6.538  0.6418 -0.1903  0.9184
  178MOL0     C23928   6.066  10.115   6.631 -0.1780 -0.2911 -0.8444
  178MOL0     C23929   6.103  10.200   6.744  0.4860  0.4657 -0.5628
  178MOL0     O23930   6.012  10.236   6.845 -0.1913 -0.1732  0.2690
  178MOL0     C23931   5.963  10.371   6.833 -1.1047  0.4918 -0.4131
  178MOL0     C23932   5.861  10.380   6.728 -0.6160  0.0207 -0.8348
  178MOL0     C23933   5.739  10.285   6.758 -1.2828 -0.9653  0.4767
  178MOL0     C23934   5.645  10.330   6.877  0.0291  1.5563  0.4505
  178MOL0     C23935   5.532  10.221   6.894  0.7025 -0.6712 -0.0148
  178MOL0     C23936   5.397  10.285   6.888 -0.3859 -0.6708  0.3721
  178MOL0     C23937   5.351  10.311   7.034  0.2407  0.1432  0.8061
  178MOL0     C23938   5.203  10.337   7.033  0.0007 -0.4388 -0.1248
  178MOL0    Cl23939   5.137  10.402   7.177  0.2598  0.4772 -0.6815
  178MOL0     C23940   6.230  10.253   6.743 -0.0354 -0.0304 -0.1878
  178MOL0     C23941   6.318  10.228   6.640  1.3912  0.9038 -0.6590
  178MOL0     O23942   6.502   9.977   6.606 -0.5020 -0.0640 -0.2711
  178MOL0     C23943   6.580   9.991   6.255  0.6241  0.2090  0.7854
  178MOL0     C23944   6.682   9.945   6.173  0.2637 -0.5780 -0.8693
  178MOL0     N23945   7.261  10.106   5.760 -0.6604  0.3678 -0.0861
  178MOL0     N23946   7.293  10.083   5.637  0.2574 -0.3596 -0.0395
  178MOL0     C23947   8.212  10.611   5.304 -0.4804  0.2845  0.9875
  178MOL0     C23948   8.308  10.673   5.223  0.6862 -0.0962 -0.1266
  178MOL0     C23949   8.732  10.861   5.165 -1.1107 -0.2588 -0.4022
  178MOL0     C23950   8.665  10.938   5.068 -0.0486 -0.1792  0.7345
  178MOL0     C23951   8.709  11.065   5.024  0.5809 -1.0947 -0.2702
  178MOL0     C23952   8.829  11.109   5.064  0.2354  0.1145  0.0610
  178MOL0     O23953   8.878  11.231   5.027 -0.1808  0.9180 -0.2541
  178MOL0     C23954   8.799  11.338   4.984 -0.1431  0.1561  0.1086
  178MOL0     C23955   8.896  11.458   4.973  0.7643 -0.6927 -0.1764
  178MOL0     C23956   8.855  11.594   4.922 -0.4242 -0.0595  0.1400
  178MOL0     C23957   8.820  11.605   4.777 -1.3136 -0.1773 -0.0410
  178MOL0     C23958   8.943  11.636   4.704 -0.1269 -0.1594 -0.4179
  178MOL0     C23959   9.044  11.651   4.637  0.2783  0.0284  0.9496
  178MOL0     C23960   8.907  11.029   5.150 -0.2067 -0.1111  0.8164
  178MOL0     C23961   8.857  10.910   5.210 -0.7536 -0.0909 -0.1678
  178MOL0     C23962   8.950  10.838   5.303 -0.0828 -0.3363  0.7148
  178MOL0     H23963   8.571  10.508   5.344  0.4146 -0.2005  0.3077
  178MOL0     H23964   8.396  10.371   5.447  0.6071 -1.1303 -0.1467
  178MOL0     H23965   8.197  10.267   5.428  1.2936  0.2775  0.8749
  178MOL0     H23966   8.220  10.326   5.593 -0.5250  2.4354  1.9201
  178MOL0     H23967   7.959  10.346   5.615 -2.1926  0.7891 -1.9737
  178MOL0     H23968   8.008  10.189   5.586 -0.8275  0.2646  1.4151
  178MOL0     H23969   7.954  10.226   5.332 -1.7196  3.7172 -3.5821
  178MOL0     H23970   7.917  10.390   5.377  1.8820  0.4607  1.6475
  178MOL0     H23971   7.747  10.304   5.550 -0.3871  2.5713 -1.6788
  178MOL0     H23972   7.692  10.276   5.380 -1.5843 -3.8954 -0.0675
  178MOL0     H23973   7.798  10.046   5.410 -0.2138 -0.5476  0.5396
  178MOL0     H23974   7.785  10.077   5.580  0.6556  0.2344 -1.2500
  178MOL0     H23975   7.546  10.135   5.548 -1.4478  0.0343 -1.9711
  178MOL0     H23976   7.556  10.089   5.382 -0.6188 -1.7473 -1.1041
  178MOL0     H23977   7.598   9.896   5.625 -1.5972 -1.2667  0.1097
  178MOL0     H23978   7.629   9.853   5.461  4.1107  2.5931  2.4909
  178MOL0     H23979   7.384   9.917   5.410  2.8715 -1.0913 -0.6529
  178MOL0     H23980   7.399   9.789   5.529  3.7715 -0.4921 -0.3791
  178MOL0     H23981   7.342   9.783   5.751  0.9929  0.4773  1.4358
  178MOL0     H23982   7.264   9.848   6.009  1.5209  1.0038  1.2558
  178MOL0     H23983   7.309  10.009   6.045  0.9580 -0.7671 -0.1539
  178MOL0     H23984   7.076  10.083   5.985  1.4911  1.0006  0.1591
  178MOL0     H23985   7.021   9.921   5.953 -1.6002 -1.1285  2.9218
  178MOL0     H23986   7.002  10.028   6.201 -1.5558  0.1495 -2.2901
  178MOL0     H23987   7.167   9.970   6.211  0.8674  3.9809 -2.8240
  178MOL0     H23988   7.025   9.760   6.268  6.6261 -1.3140 -0.5217
  178MOL0     H23989   7.064   9.745   6.104  3.1135  1.3147  2.6680
  178MOL0     H23990   6.854   9.748   6.377  1.4086  1.5456 -2.0360
  178MOL0     H23991   6.689   9.849   6.546  0.5295  1.3506  0.1794
  178MOL0     H23992   6.146  10.006   6.464  2.6412  0.1281  0.0620
  178MOL0     H23993   5.969  10.067   6.618  0.4059 -1.3786 -1.3077
  178MOL0     H23994   5.917  10.395   6.929  0.6376  1.2670  0.2742
  178MOL0     H23995   6.042  10.446   6.818 -0.6418 -0.1822 -1.5117
  178MOL0     H23996   5.819  10.481   6.737  0.3697  0.4788 -1.1485
  178MOL0     H23997   5.906  10.357   6.631  2.1733  0.9902  0.1121
  178MOL0     H23998   5.681  10.293   6.666  0.5629  0.1726 -0.6632
  178MOL0     H23999   5.776  10.184   6.779  2.4085  0.2286  0.4424
  178MOL0     H24000   5.611  10.433   6.859 -0.6170  1.8278  2.8972
  178MOL0     H24001   5.708  10.338   6.966  0.6137 -3.2640  0.7285
  178MOL0     H24002   5.541  10.161   6.985 -3.0910 -3.5809 -1.2754
  178MOL0     H24003   5.532  10.153   6.808  3.7309  3.0153 -3.3355
  178MOL0     H24004   5.380  10.376   6.829  2.0060  0.1721  0.8987
  178MOL0     H24005   5.325  10.210   6.855 -0.5570  0.7204 -2.8232
  178MOL0     H24006   5.404  10.402   7.066 -0.8748  0.3269  2.2526
  178MOL0     H24007   5.376  10.230   7.103 -0.5493 -0.1461  0.7630
  178MOL0     H24008   5.182  10.393   6.942  0.2329 -0.6809 -0.3288
  178MOL0     H24009   5.156  10.240   7.021 -0.3684 -0.1996 -0.6436
  178MOL0     H24010   6.255  10.329   6.817 -1.9840 -0.2011  0.7133
  178MOL0     H24011   6.420  10.264   6.650  1.3901  0.9868 -0.9405
  178MOL0     H24012   6.496  10.053   6.225 -2.7537 -3.8678  0.8473
  178MOL0     H24013   6.678   9.983   6.071 -2.0320  1.4844 -0.1154
  178MOL0     H24014   8.109  10.644   5.289 -1.3080 -0.5880  3.9722
  178MOL0     H24015   8.272  10.750   5.156 -1.9027 -1.4550 -0.4148
  178MOL0     H24016   8.575  10.906   5.017  0.5249  0.5133 -0.7788
  178MOL0     H24017   8.648  11.120   4.953  2.2338  3.0481  1.2085
  178MOL0     H24018   8.721  11.354   5.059 -2.9527  0.1466 -2.6221
  178MOL0     H24019   8.750  11.325   4.887 -5.6412  2.5046  2.2027
  178MOL0     H24020   8.981  11.426   4.911 -0.5206 -0.9251 -1.8744
  178MOL0     H24021   8.926  11.481   5.075 -0.2908  2.0747 -0.4124
  178MOL0     H24022   8.928  11.671   4.947  0.0429  0.4532 -2.5287
  178MOL0     H24023   8.767  11.617   4.982  1.8294 -1.0645  4.2569
  178MOL0     H24024   8.773  11.512   4.742 -1.1406 -0.5128  0.5938
  178MOL0     H24025   8.743  11.677   4.748 -2.5898 -1.8253 -0.9447
  178MOL0     H24026   9.134  11.658   4.581 -0.7432  0.1240 -0.7438
  178MOL0     H24027   9.008  11.057   5.177 -1.0825  0.9441  3.2176
  178MOL0     H24028   8.965  10.734   5.271  0.5188 -0.5099  1.5456
  178MOL0     H24029   9.053  10.873   5.304  0.0187 -0.6158  0.2808
  178MOL0     H24030   8.913  10.834   5.406  1.5109  0.7365  1.3725
  179MOL0     O24031   0.753   8.284   3.515  0.7640 -0.1288  0.1320
  179MOL0     C24032   0.637   8.238   3.513  0.3471  0.1213 -0.3255
  179MOL0     O24033   0.528   8.289   3.573 -0.4481 -0.2621  0.1479
  179MOL0     C24034   0.535   8.418   3.625 -0.3145 -0.5599  0.1245
  179MOL0     C24035   0.584   8.532   3.558 -0.9149 -1.6056  0.0193
  179MOL0     C24036   0.599   8.652   3.625  1.1440 -1.2061 -0.1195
  179MOL0     C24037   0.553   8.667   3.754  0.1059 -0.3519  0.7356
  179MOL0     O24038   0.596   8.780   3.822  0.4056 -0.3036 -0.1353
  179MOL0     C24039   0.521   8.825   3.929  0.5011  0.5435  0.3199
  179MOL0     C24040   0.462   8.961   3.901  0.7643 -0.0300 -0.3668
  179MOL0     C24041   0.380   8.965   3.767 -0.8441 -0.9332  0.2110
  179MOL0     C24042   0.304   9.097   3.751  0.4245  0.8176 -0.0892
  179MOL0     C24043   0.163   9.061   3.797  1.2043 -1.3542 -0.2004
  179MOL0     C24044   0.073   9.171   3.838  0.7332  0.5453  0.5451
  179MOL0     C24045   0.113   9.250   3.962  0.4656  0.8263  0.2351
  179MOL0     C24046  -0.006   9.332   4.010  0.1555 -0.0792 -0.0923
  179MOL0     N24047   0.034   9.434   4.117  0.7600 -0.2017  0.1464
  179MOL0     C24048  -0.006   9.559   4.107 -0.4950  0.8405 -0.6168
  179MOL0     C24049   0.069   9.620   4.204 -1.6446  0.6438 -0.8647
  179MOL0     C24050   0.080   9.769   4.214  0.9609 -0.7928  0.7194
  179MOL0     C24051   0.178   9.809   4.330  0.8862  0.9652  0.3506
  179MOL0     C24052   0.178   9.963   4.361  0.0881 -0.3143 -0.1404
  179MOL0     C24053   0.282  10.003   4.468 -0.0965  0.4475  0.4232
  179MOL0     O24054   0.235  10.121   4.532  0.0479 -0.5493 -0.4148
  179MOL0     C24055   0.295  10.237   4.496  0.3367 -1.1007  0.1361
  179MOL0     C24056   0.295  10.290   4.370  0.1975  0.8458 -0.0945
  179MOL0     C24057   0.376  10.399   4.344  0.2976  0.0742 -0.2085
  179MOL0     C24058   0.458  10.461   4.439 -0.4706 -0.4959  0.3665
  179MOL0     C24059   0.550  10.572   4.401 -0.4244  0.3145  0.2564
  179MOL0     O24060   0.615  10.632   4.509 -0.3132  0.1766 -0.2648
  179MOL0     C24061   0.723  10.715   4.490 -0.2487  0.2058  0.2096
  179MOL0     C24062   0.719  10.849   4.549  0.5541 -1.0955 -0.4245
  179MOL0     C24063   0.829  10.930   4.538  0.2389 -0.6755  0.2504
  179MOL0     C24064   0.953  10.878   4.487  0.6714  0.0894 -0.4295
  179MOL0     O24065   1.056  10.970   4.487  0.4894  0.3365 -0.0624
  179MOL0     C24066   1.184  10.933   4.438 -1.0243 -0.0811 -0.7385
  179MOL0     C24067   1.278  11.051   4.473 -0.9067  0.2380 -0.7748
  179MOL0     C24068   1.275  11.086   4.628 -0.5311 -0.3676 -1.2929
  179MOL0     C24069   1.345  10.983   4.712 -0.0388 -0.1135  0.2801
  179MOL0     C24070   1.359  11.020   4.859  0.6257  0.4723  1.1468
  179MOL0     C24071   1.451  10.912   4.926 -0.3652 -0.8477  0.5477
  179MOL0     C24072   1.429  10.914   5.076  0.6287 -0.3276  0.7388
  179MOL0     C24073   1.503  10.782   5.115  0.1456 -0.0506 -0.4590
  179MOL0    Cl24074   1.502  10.790   5.285  1.0287  0.1404  0.1685
  179MOL0     C24075   0.954  10.748   4.431  0.2730  1.0648 -0.3393
  179MOL0     C24076   0.838  10.672   4.425 -0.5447 -0.5839 -0.4331
  179MOL0     O24077   0.572  10.598   4.280  0.1585 -0.0498  0.0817
  179MOL0     C24078   0.463  10.403   4.567 -0.0527 -0.7438  0.5010
  179MOL0     C24079   0.380  10.293   4.589  0.4387 -0.0589  0.4130
  179MOL0     N24080   0.134   9.523   4.282  0.4194 -0.6466 -0.7051
  179MOL0     N24081   0.120   9.414   4.220 -0.2231  0.3943 -0.2183
  179MOL0     C24082   0.491   8.552   3.812 -0.3457  0.1357  0.4728
  179MOL0     C24083   0.471   8.433   3.746  0.8672 -0.1743  0.0660
  179MOL0     C24084   0.635   8.105   3.466 -0.6118  1.1270 -0.9170
  179MOL0     C24085   0.564   8.016   3.552 -0.1919  0.5732 -0.3143
  179MOL0     C24086   0.546   7.888   3.509  0.3773  0.3198 -0.1262
  179MOL0     C24087   0.601   7.837   3.385  0.1056  0.4477  0.3065
  179MOL0     O24088   0.597   7.709   3.341 -0.5295 -0.6317 -0.1188
  179MOL0     C24089   0.502   7.616   3.398 -0.0391  0.2725 -0.2545
  179MOL0     C24090   0.479   7.492   3.314 -0.3217  0.1734  0.3942
  179MOL0     C24091   0.414   7.371   3.395 -0.2571 -0.6137 -0.4900
  179MOL0     C24092   0.263   7.390   3.429  0.6097  0.7451 -0.4404
  179MOL0     C24093   0.185   7.390   3.302  1.0388  0.1816 -0.0169
  179MOL0     C24094   0.128   7.410   3.191 -0.9579  0.7314 -0.6498
  179MOL0     C24095   0.681   7.924   3.313 -0.4735 -0.9370 -0.1349
  179MOL0     C24096   0.703   8.058   3.352  0.4876  0.0416 -0.5028
  179MOL0     C24097   0.803   8.140   3.273 -0.1414  0.6251 -0.3299
  179MOL0     H24098   0.623   8.525   3.457  1.3684  3.8625  0.1643
  179MOL0     H24099   0.657   8.728   3.575 -2.3046  0.8955 -1.2686
  179MOL0     H24100   0.442   8.757   3.960  0.0891 -0.1014 -1.9666
  179MOL0     H24101   0.591   8.829   4.013 -0.9148 -2.9962  1.8589
  179MOL0     H24102   0.536   9.041   3.907  0.6841 -0.0437  1.4508
  179MOL0     H24103   0.396   8.985   3.985  0.8023  0.9320 -0.5903
  179MOL0     H24104   0.313   8.879   3.765 -1.0659 -0.8154  1.4664
  179MOL0     H24105   0.458   8.952   3.693  2.1937  0.5050  2.8824
  179MOL0     H24106   0.349   9.179   3.809 -1.7615  3.5716 -2.0648
  179MOL0     H24107   0.299   9.133   3.648  1.8310 -1.9671 -1.2456
  179MOL0     H24108   0.113   9.011   3.713 -0.8904  0.7287 -0.2803
  179MOL0     H24109   0.180   8.995   3.882  4.1879 -0.8758 -0.3036
  179MOL0     H24110   0.060   9.239   3.752 -0.3197 -0.6797 -0.3037
  179MOL0     H24111  -0.025   9.127   3.860 -0.3286  2.1574 -0.6395
  179MOL0     H24112   0.177   9.332   3.927 -1.4802  2.9058  1.2977
  179MOL0     H24113   0.165   9.185   4.032  0.6080  0.6189 -0.0576
  179MOL0     H24114  -0.051   9.384   3.925  1.3917 -0.3283 -0.9146
  179MOL0     H24115  -0.074   9.260   4.057  1.5024 -1.7950 -0.6766
  179MOL0     H24116  -0.062   9.602   4.025 -3.0765 -3.6150 -1.5683
  179MOL0     H24117   0.117   9.797   4.115 -0.9789 -0.1071  0.1500
  179MOL0     H24118  -0.016   9.816   4.237  1.0453  1.6326 -3.0351
  179MOL0     H24119   0.153   9.758   4.423  0.6051  1.5365  0.5855
  179MOL0     H24120   0.282   9.784   4.305  0.9952  0.2913  1.4116
  179MOL0     H24121   0.085  10.003   4.403  1.0021  3.1725 -1.0961
  179MOL0     H24122   0.194  10.025   4.272 -1.7396  2.7931  1.5353
  179MOL0     H24123   0.369  10.025   4.407  0.2078 -1.5762  0.0623
  179MOL0     H24124   0.307   9.921   4.536 -1.8231 -1.0897 -0.7245
  179MOL0     H24125   0.234  10.248   4.290  1.1648 -1.4876  0.3127
  179MOL0     H24126   0.370  10.426   4.239  4.1508  0.6046 -0.4432
  179MOL0     H24127   0.628  10.887   4.595 -1.3388  1.0163 -5.2741
  179MOL0     H24128   0.825  11.022   4.596  1.7361 -0.6489  0.3330
  179MOL0     H24129   1.221  10.851   4.500 -1.2359  1.4779  1.5772
  179MOL0     H24130   1.182  10.914   4.330 -0.0815  0.1975 -0.8111
  179MOL0     H24131   1.384  11.031   4.450 -1.0778 -1.6452 -0.0898
  179MOL0     H24132   1.241  11.133   4.411 -1.1264  1.2640  0.6623
  179MOL0     H24133   1.331  11.179   4.644  2.7904 -2.0675 -2.1321
  179MOL0     H24134   1.174  11.103   4.665  0.8188  0.3995  2.5189
  179MOL0     H24135   1.445  10.959   4.674 -0.0329 -0.6469  0.6265
  179MOL0     H24136   1.295  10.890   4.687  0.6318 -0.4935  0.3150
  179MOL0     H24137   1.263  11.018   4.911 -0.3914  0.3234 -0.6400
  179MOL0     H24138   1.396  11.121   4.879 -2.2708  2.1525 -1.0477
  179MOL0     H24139   1.417  10.817   4.882  2.0930 -0.5507 -2.3565
  179MOL0     H24140   1.557  10.921   4.901  0.2736  1.1965  3.4245
  179MOL0     H24141   1.323  10.902   5.101  0.6387 -2.8277 -0.1550
  179MOL0     H24142   1.467  11.004   5.126  0.2536 -0.1994  0.7964
  179MOL0     H24143   1.463  10.683   5.088  1.3345 -1.2930  2.0356
  179MOL0     H24144   1.609  10.787   5.091  0.2552  4.8891  0.1882
  179MOL0     H24145   1.044  10.712   4.382 -0.8806 -2.2784 -0.2677
  179MOL0     H24146   0.831  10.580   4.368 -0.6434  0.4900 -2.2055
  179MOL0     H24147   0.533  10.440   4.641  1.4148 -3.4820  0.6038
  179MOL0     H24148   0.382  10.251   4.689  4.3971 -0.3864  0.3451
  179MOL0     H24149   0.447   8.564   3.911 -3.2421 -0.6268 -0.6360
  179MOL0     H24150   0.420   8.354   3.800 -1.2954 -0.5192 -2.3183
  179MOL0     H24151   0.522   8.044   3.648 -0.3011 -1.3372  0.2424
  179MOL0     H24152   0.486   7.828   3.577  3.6452  0.5334  3.2180
  179MOL0     H24153   0.405   7.665   3.415 -0.4456 -1.0816  1.7481
  179MOL0     H24154   0.527   7.576   3.497 -4.1329  1.7494  1.6121
  179MOL0     H24155   0.584   7.467   3.297  0.1458  2.7466 -0.9718
  179MOL0     H24156   0.420   7.519   3.227  0.6712  1.1335 -0.0076
  179MOL0     H24157   0.469   7.355   3.488  0.0524  2.1785 -0.0892
  179MOL0     H24158   0.423   7.281   3.333 -0.0448 -1.3740  0.6170
  179MOL0     H24159   0.230   7.309   3.494  0.1748  0.4347 -1.0432
  179MOL0     H24160   0.238   7.486   3.475  1.9506  0.4538  0.9621
  179MOL0     H24161   0.093   7.441   3.095 -1.3404  0.7465 -0.5071
  179MOL0     H24162   0.730   7.895   3.220 -1.1846  0.3003 -0.9190
  179MOL0     H24163   0.902   8.130   3.317 -0.3236 -1.6610 -0.3083
  179MOL0     H24164   0.808   8.107   3.168  0.1675 -1.1305  0.1985
  179MOL0     H24165   0.779   8.246   3.264  1.3011  0.9066 -1.1287
  180MOL0     O24166   9.953  10.137   6.113  1.0293 -0.8396 -0.1374
  180MOL0     C24167   9.894  10.033   6.083  0.6167  0.0818 -0.2747
  180MOL0     O24168   9.756  10.029   6.087  0.2145 -0.2449 -0.9595
  180MOL0     C24169   9.690  10.130   6.141  0.0717 -0.3281  0.0180
  180MOL0     C24170   9.592  10.190   6.060  0.3784  0.9304  1.0592
  180MOL0     C24171   9.502  10.287   6.122 -0.1633  0.4453 -0.1040
  180MOL0     C24172   9.507  10.312   6.262 -0.7733 -0.2683 -0.5078
  180MOL0     O24173   9.424  10.397   6.333 -0.2573 -0.0249  0.1082
  180MOL0     C24174   9.302  10.435   6.268  0.1379 -0.4551  0.5382
  180MOL0     C24175   9.247  10.559   6.357  0.2069  0.1923  0.2586
  180MOL0     C24176   9.201  10.490   6.494  0.3656  0.3134  0.0989
  180MOL0     C24177   9.141  10.588   6.593 -0.9501  0.0488  0.1894
  180MOL0     C24178   9.035  10.525   6.675 -0.0808  0.2477 -0.4027
  180MOL0     C24179   9.088  10.427   6.784 -0.2831  0.7172 -1.2202
  180MOL0     C24180   8.983  10.388   6.886 -0.3167  0.7989 -0.0696
  180MOL0     C24181   9.042  10.323   7.010 -1.0221  0.0562  0.8753
  180MOL0     N24182   9.077  10.179   6.988  0.3939 -1.3926  0.6430
  180MOL0     C24183   9.203  10.146   6.945 -0.0136  0.3005 -0.4331
  180MOL0     C24184   9.188  10.022   6.895  0.0641  0.1990 -0.0603
  180MOL0     C24185   9.306   9.940   6.833 -0.1057 -0.2392 -0.0769
  180MOL0     C24186   9.443   9.997   6.865 -0.6499  0.2612 -0.1709
  180MOL0     C24187   9.508  10.099   6.783  0.3484 -0.2813 -0.7179
  180MOL0     C24188   9.571  10.045   6.658 -0.4127  0.5377  0.1547
  180MOL0     O24189   9.689   9.963   6.682 -0.5046  0.4181 -0.0156
  180MOL0     C24190   9.702   9.838   6.630 -0.4503 -0.8019 -0.0971
  180MOL0     C24191   9.791   9.749   6.692  0.0459  0.0806 -0.4812
  180MOL0     C24192   9.823   9.630   6.640  0.3194  1.0092  0.4729
  180MOL0     C24193   9.766   9.598   6.512 -0.1574 -0.3523 -0.2985
  180MOL0     C24194   9.788   9.465   6.457  0.5492 -0.2083  0.0326
  180MOL0     O24195   9.907   9.402   6.479 -0.4076  0.4669 -0.4523
  180MOL0     C24196   9.950   9.284   6.427  0.1792  0.4984 -0.0157
  180MOL0     C24197   9.963   9.264   6.289  1.3740  0.5009  0.4239
  180MOL0     C24198   9.992   9.139   6.241 -0.0963 -0.0232 -1.1728
  180MOL0     C24199  10.021   9.029   6.332 -0.1019 -0.7915  0.2464
  180MOL0     O24200  10.067   8.909   6.290  0.6798  0.0319  0.5099
  180MOL0     C24201  10.120   8.885   6.159 -0.0351 -0.0631 -0.3364
  180MOL0     C24202  10.219   8.769   6.165 -0.2264  0.9174 -0.2261
  180MOL0     C24203  10.314   8.756   6.047 -0.6309 -0.6834 -0.5101
  180MOL0     C24204  10.414   8.640   6.078  0.8734 -0.0996  0.2626
  180MOL0     C24205  10.537   8.638   5.980  0.3519  0.9444 -0.5525
  180MOL0     C24206  10.644   8.750   5.998  0.3516 -0.0111 -0.1639
  180MOL0     C24207  10.752   8.729   5.895 -0.2866  0.7776 -0.5173
  180MOL0     C24208  10.846   8.850   5.909 -0.9337 -0.0106  0.0011
  180MOL0    Cl24209  10.780   9.004   5.857 -0.3144 -0.4417  0.0707
  180MOL0     C24210  10.021   9.048   6.467 -0.2380 -0.4169  0.3671
  180MOL0     C24211   9.972   9.173   6.516 -0.7230 -0.7989 -0.5480
  180MOL0     O24212   9.700   9.420   6.390 -0.0540 -0.3731  0.2969
  180MOL0     C24213   9.684   9.694   6.450 -0.2876  0.4236  0.4780
  180MOL0     C24214   9.644   9.812   6.503 -0.4383  0.1145 -0.1437
  180MOL0     N24215   9.054   9.976   6.923 -0.3336  0.2910  0.5896
  180MOL0     N24216   8.992  10.077   6.982  0.0886 -0.1628  0.2918
  180MOL0     C24217   9.616  10.259   6.340  0.5820 -0.6010 -0.2887
  180MOL0     C24218   9.704  10.172   6.275 -0.5829  0.3377  0.5183
  180MOL0     C24219   9.980   9.918   6.059  0.3738  0.7149 -0.7981
  180MOL0     C24220   9.929   9.798   6.108 -0.6136  1.1888 -0.4909
  180MOL0     C24221   9.999   9.677   6.087 -0.7910 -0.4509 -1.0256
  180MOL0     C24222  10.121   9.674   6.021 -0.7481  0.3775 -0.0702
  180MOL0     O24223  10.194   9.559   6.021  0.1635 -0.6888  0.3514
  180MOL0     C24224  10.329   9.533   5.969 -0.3248 -0.6096  0.3267
  180MOL0     C24225  10.349   9.387   5.947  0.0205  0.4851  0.4485
  180MOL0     C24226  10.380   9.314   6.085  0.0854 -1.1388  0.4349
  180MOL0     C24227  10.445   9.188   6.044 -0.1372  0.3015  0.0039
  180MOL0     C24228  10.493   9.096   6.152  0.3533 -1.3469  0.1894
  180MOL0     C24229  10.538   9.022   6.228 -0.2531 -0.1657 -0.7809
  180MOL0     C24230  10.158   9.792   5.961 -0.1320 -1.2232 -0.7360
  180MOL0     C24231  10.097   9.922   5.980 -0.6964  0.6300  0.3032
  180MOL0     C24232  10.154  10.041   5.912 -0.3559 -0.0169  0.1854
  180MOL0     H24233   9.588  10.162   5.955 -2.1061  0.0466  1.3158
  180MOL0     H24234   9.441  10.344   6.052 -0.6274 -0.7470 -0.7055
  180MOL0     H24235   9.329  10.466   6.167  0.0248 -1.7225  0.0999
  180MOL0     H24236   9.221  10.362   6.267 -3.0579  2.7751 -0.2977
  180MOL0     H24237   9.162  10.604   6.305 -1.3613  0.0410  2.5516
  180MOL0     H24238   9.328  10.631   6.367 -0.0783  0.6822 -0.8315
  180MOL0     H24239   9.274  10.435   6.553 -2.1042  1.6704  4.9907
  180MOL0     H24240   9.124  10.422   6.457  1.8910 -1.3101 -0.2044
  180MOL0     H24241   9.223  10.619   6.658  0.7302 -1.1158 -1.3042
  180MOL0     H24242   9.097  10.678   6.551  1.4600  1.3321  0.2810
  180MOL0     H24243   8.997  10.617   6.719  1.7848  2.0417 -2.3283
  180MOL0     H24244   8.957  10.484   6.609  1.5137 -1.3426 -1.3936
  180MOL0     H24245   9.128  10.333   6.746  0.3121  0.6495 -0.4645
  180MOL0     H24246   9.177  10.470   6.832 -0.0198  0.0451 -1.0934
  180MOL0     H24247   8.906  10.320   6.848  0.4928  1.6777 -3.6487
  180MOL0     H24248   8.938  10.485   6.907  2.1775  2.8306 -3.1865
  180MOL0     H24249   9.133  10.381   7.028 -0.0469 -1.4473  0.9816
  180MOL0     H24250   8.976  10.325   7.097 -1.9913  1.2690  0.1483
  180MOL0     H24251   9.285  10.216   6.949 -1.9970  2.7837 -0.7490
  180MOL0     H24252   9.298   9.842   6.882 -0.6955  0.1011  0.5243
  180MOL0     H24253   9.289   9.925   6.726 -2.3294  1.1634  0.0172
  180MOL0     H24254   9.447  10.052   6.960 -3.4415  1.7206 -0.7851
  180MOL0     H24255   9.505   9.908   6.865 -1.8033 -0.5717  0.0523
  180MOL0     H24256   9.580  10.150   6.848 -0.1219  1.7808 -1.7041
  180MOL0     H24257   9.444  10.184   6.757  1.9599  1.7920  1.5758
  180MOL0     H24258   9.610  10.122   6.592  0.1616  0.0391 -0.0986
  180MOL0     H24259   9.489   9.998   6.602  0.3009  0.1193 -0.5532
  180MOL0     H24260   9.843   9.787   6.779  1.2475 -0.0683 -1.1134
  180MOL0     H24261   9.896   9.566   6.689  1.9615  3.5921  1.5941
  180MOL0     H24262   9.916   9.332   6.219  0.6787  1.2698  1.5991
  180MOL0     H24263   9.978   9.105   6.139 -1.1269 -1.6533 -0.5329
  180MOL0     H24264  10.037   8.853   6.095 -1.4894  0.8076  1.0362
  180MOL0     H24265  10.172   8.973   6.121  2.6483 -1.3371  0.1634
  180MOL0     H24266  10.283   8.775   6.254 -0.3114 -1.6534  0.0924
  180MOL0     H24267  10.172   8.673   6.185 -2.2405  2.1413  1.2598
  180MOL0     H24268  10.259   8.740   5.953 -2.8029 -1.8947  0.8804
  180MOL0     H24269  10.375   8.846   6.037  0.5012 -1.3785  0.0360
  180MOL0     H24270  10.349   8.554   6.061 -1.0963  1.3109  0.3562
  180MOL0     H24271  10.444   8.646   6.183 -0.6814  1.1098  0.6711
  180MOL0     H24272  10.496   8.637   5.879 -0.6596  0.2197 -0.1457
  180MOL0     H24273  10.577   8.537   5.993  0.0806  1.0487  1.4958
  180MOL0     H24274  10.599   8.850   5.996 -0.5260 -0.4042 -1.1750
  180MOL0     H24275  10.689   8.733   6.096 -1.0372  0.6987  0.6268
  180MOL0     H24276  10.695   8.736   5.802 -1.5974 -1.8399 -0.0039
  180MOL0     H24277  10.795   8.629   5.902 -1.9860  0.1407  3.9143
  180MOL0     H24278  10.876   8.870   6.013 -4.4690  2.4472  0.7377
  180MOL0     H24279  10.932   8.830   5.845 -0.7943  1.0490 -0.1603
  180MOL0     H24280  10.048   8.974   6.542  1.5077 -0.5172 -0.3319
  180MOL0     H24281   9.959   9.182   6.623 -3.2397 -1.8872 -0.6690
  180MOL0     H24282   9.649   9.673   6.350 -0.0545  1.5821  0.1316
  180MOL0     H24283   9.596   9.894   6.450  1.9711  1.3898 -0.4739
  180MOL0     H24284   9.625  10.286   6.445  0.8956  2.7407 -1.0432
  180MOL0     H24285   9.784  10.118   6.325  2.1155  3.5267  0.0263
  180MOL0     H24286   9.838   9.781   6.164 -0.7690 -0.4426 -1.1659
  180MOL0     H24287   9.953   9.581   6.109 -0.9074 -0.5217 -1.5616
  180MOL0     H24288  10.396   9.568   6.049  1.1092 -1.5376 -0.4141
  180MOL0     H24289  10.332   9.588   5.875 -1.5435 -1.0342  0.0328
  180MOL0     H24290  10.435   9.373   5.881 -0.9202 -0.6391 -0.6058
  180MOL0     H24291  10.257   9.342   5.906  1.2380 -1.8177  0.0736
  180MOL0     H24292  10.296   9.275   6.143  1.4801 -2.3017  1.7536
  180MOL0     H24293  10.449   9.379   6.141 -1.5035  1.9724 -0.9692
  180MOL0     H24294  10.377   9.122   5.989 -0.0650 -0.6613  1.0212
  180MOL0     H24295  10.527   9.210   5.975  1.9205 -1.4469  1.7054
  180MOL0     H24296  10.595   8.948   6.280 -0.6490  0.8322  1.1808
  180MOL0     H24297  10.246   9.800   5.898 -0.6048 -0.1256 -1.2872
  180MOL0     H24298  10.241  10.012   5.852  0.6854  1.7912  0.7331
  180MOL0     H24299  10.085  10.096   5.847 -0.9124 -4.4033 -3.3662
  180MOL0     H24300  10.185  10.105   5.996 -0.9634 -3.1280  3.0095
  181MOL0     O24301  11.315   5.855   7.249 -0.6082  0.4296  0.5164
  181MOL0     C24302  11.229   5.778   7.291 -0.9544 -0.2138  0.2080
  181MOL0     O24303  11.244   5.696   7.400  0.0670 -0.4724 -0.3606
  181MOL0     C24304  11.369   5.670   7.455  1.2479  0.4981 -0.1151
  181MOL0     C24305  11.470   5.616   7.382 -0.1785  0.5385 -0.2749
  181MOL0     C24306  11.587   5.574   7.443 -0.7437 -0.5792 -0.9936
  181MOL0     C24307  11.600   5.594   7.583  0.2643 -0.3196 -0.5586
  181MOL0     O24308  11.719   5.550   7.633  0.3507 -0.2120  0.3546
  181MOL0     C24309  11.754   5.585   7.763 -1.2990 -0.1932 -0.6249
  181MOL0     C24310  11.908   5.551   7.783  0.2619 -0.6109  0.3121
  181MOL0     C24311  11.952   5.408   7.763 -0.5015  0.1660 -0.1486
  181MOL0     C24312  12.110   5.402   7.785  0.4827 -0.7614 -0.0393
  181MOL0     C24313  12.155   5.428   7.931  0.3022  0.0475 -0.5442
  181MOL0     C24314  12.303   5.429   7.943  0.9348 -0.6805 -0.4060
  181MOL0     C24315  12.331   5.492   8.090 -0.0143  0.0183  0.3220
  181MOL0     C24316  12.481   5.499   8.109  0.4802  0.7505 -0.2222
  181MOL0     N24317  12.514   5.577   8.229  0.6666  0.1960  0.0998
  181MOL0     C24318  12.482   5.705   8.247  0.2213 -0.3507  0.0841
  181MOL0     C24319  12.524   5.732   8.375 -0.1690  0.4313  0.2822
  181MOL0     C24320  12.512   5.855   8.461  0.7953  0.4931 -0.6802
  181MOL0     C24321  12.610   5.960   8.425 -0.1870  0.6888 -0.1292
  181MOL0     C24322  12.756   5.917   8.455  0.7992 -0.1682 -0.5686
  181MOL0     C24323  12.791   5.909   8.602 -0.3282  0.2933  0.0813
  181MOL0     O24324  12.931   5.865   8.601  1.1125  0.4215  0.2704
  181MOL0     C24325  13.000   5.873   8.721  0.7716  0.1092  0.4716
  181MOL0     C24326  13.139   5.861   8.709 -0.3972  0.8061  0.7581
  181MOL0     C24327  13.233   5.888   8.810  0.3327 -0.3441  0.5059
  181MOL0     C24328  13.177   5.907   8.941 -0.9180 -0.1425  0.8436
  181MOL0     C24329  13.262   5.920   9.056 -0.2970 -0.3903  0.3717
  181MOL0     O24330  13.218   5.996   9.159 -0.6265  0.3157 -0.3243
  181MOL0     C24331  13.303   5.996   9.265  0.0613 -0.4559 -0.5005
  181MOL0     C24332  13.330   5.888   9.349  0.2805  0.6979  0.0698
  181MOL0     C24333  13.401   5.912   9.470 -0.4734 -0.6856  0.2074
  181MOL0     C24334  13.454   6.039   9.503 -0.1957 -0.4034 -0.8066
  181MOL0     O24335  13.521   6.058   9.619  0.5542 -0.4329  0.2243
  181MOL0     C24336  13.650   6.113   9.614  0.7080 -0.4209  0.5663
  181MOL0     C24337  13.742   6.013   9.682  0.1752 -0.2865  0.2261
  181MOL0     C24338  13.718   5.997   9.836 -0.5823  0.5453  0.7026
  181MOL0     C24339  13.836   5.920   9.894  0.2041 -0.4873  0.6586
  181MOL0     C24340  13.799   5.863  10.025  0.2457 -0.1021 -0.1502
  181MOL0     C24341  13.770   5.966  10.134  0.1492  0.0424 -0.7167
  181MOL0     C24342  13.720   5.911  10.271 -0.6365  0.3849 -1.3489
  181MOL0     C24343  13.841   5.839  10.344  0.3953 -0.5643  0.3686
  181MOL0    Cl24344  13.780   5.766  10.494  0.2590  0.1264 -0.4881
  181MOL0     C24345  13.435   6.141   9.413 -1.3327  0.3720  0.2536
  181MOL0     C24346  13.362   6.121   9.289  0.8638  0.2525  0.5178
  181MOL0     O24347  13.378   5.878   9.035  0.3071  0.4429 -0.1069
  181MOL0     C24348  13.035   5.925   8.961 -0.7127 -0.0483  0.5728
  181MOL0     C24349  12.950   5.904   8.855  0.2941  0.3284  0.4011
  181MOL0     N24350  12.565   5.614   8.433  0.2182  0.5664  0.3562
  181MOL0     N24351  12.559   5.520   8.350  0.1661 -0.0433  0.0321
  181MOL0     C24352  11.494   5.649   7.658  0.2986  1.1235 -0.3867
  181MOL0     C24353  11.380   5.677   7.594 -0.3174 -0.2938 -0.2625
  181MOL0     C24354  11.091   5.816   7.265 -0.4574 -0.0237  0.0831
  181MOL0     C24355  11.034   5.761   7.155  0.8031  1.0674  0.3449
  181MOL0     C24356  10.903   5.798   7.132  0.2344 -0.1542 -0.2408
  181MOL0     C24357  10.827   5.874   7.219  0.1260 -0.2084  0.9089
  181MOL0     O24358  10.697   5.893   7.181 -0.2693  0.0685 -0.8184
  181MOL0     C24359  10.622   5.988   7.256 -0.0394 -0.9623  0.0031
  181MOL0     C24360  10.483   6.002   7.195 -0.4542 -0.0643 -0.0899
  181MOL0     C24361  10.398   6.106   7.268  0.8048  0.2868 -0.7427
  181MOL0     C24362  10.252   6.110   7.212  0.1051 -0.2265 -0.0953
  181MOL0     C24363  10.177   6.036   7.311  0.2297 -0.4359  0.2844
  181MOL0     C24364  10.097   5.969   7.377  0.2778 -0.6794  0.3570
  181MOL0     C24365  10.890   5.908   7.338 -0.3746 -0.4768 -0.1332
  181MOL0     C24366  11.018   5.882   7.361  0.0812 -0.0466 -0.1592
  181MOL0     C24367  11.084   5.921   7.492  0.3105 -0.1072  0.5525
  181MOL0     H24368  11.465   5.603   7.275 -2.0480  1.9077 -0.4092
  181MOL0     H24369  11.666   5.526   7.386 -0.3746  0.7553 -1.6356
  181MOL0     H24370  11.756   5.693   7.782 -0.0977  0.4327 -3.7870
  181MOL0     H24371  11.694   5.537   7.841  2.4856 -0.5312  2.3867
  181MOL0     H24372  11.925   5.584   7.886 -2.3102 -1.7822  1.2211
  181MOL0     H24373  11.968   5.615   7.717 -0.3061  1.1247  1.3862
  181MOL0     H24374  11.925   5.379   7.661 -0.3590  2.2004 -0.8200
  181MOL0     H24375  11.900   5.338   7.829 -0.4627 -2.6268 -2.8750
  181MOL0     H24376  12.136   5.300   7.755 -0.0998 -1.3168  1.2631
  181MOL0     H24377  12.154   5.475   7.717 -2.5541 -0.6877 -2.0769
  181MOL0     H24378  12.120   5.528   7.960  1.0149  0.8589 -2.3368
  181MOL0     H24379  12.125   5.345   7.996  3.3038  0.2625  1.3170
  181MOL0     H24380  12.347   5.330   7.926  1.3300 -0.2655 -1.9281
  181MOL0     H24381  12.332   5.492   7.859 -2.1222 -0.1976 -1.2098
  181MOL0     H24382  12.284   5.433   8.170 -0.0480 -2.8321 -1.6544
  181MOL0     H24383  12.285   5.590   8.104 -2.7924 -1.3746  1.9757
  181MOL0     H24384  12.527   5.401   8.127 -0.3068  0.5611  0.8241
  181MOL0     H24385  12.527   5.544   8.020 -1.4914 -0.3083 -1.8579
  181MOL0     H24386  12.410   5.768   8.196 -1.0680  2.5960  4.8440
  181MOL0     H24387  12.410   5.895   8.453  1.2592  1.3516 -3.5910
  181MOL0     H24388  12.528   5.827   8.565 -0.7433 -2.4141 -1.1107
  181MOL0     H24389  12.596   5.973   8.318  0.7886 -4.9126 -1.2131
  181MOL0     H24390  12.584   6.050   8.481 -2.1282  0.8242 -1.1578
  181MOL0     H24391  12.823   5.979   8.395  0.3984 -0.8039 -1.7033
  181MOL0     H24392  12.772   5.814   8.420  1.1150 -2.2694  4.8101
  181MOL0     H24393  12.729   5.835   8.653 -0.9691  1.0076  0.3523
  181MOL0     H24394  12.760   6.005   8.645  0.7209  1.2762 -1.2542
  181MOL0     H24395  13.168   5.827   8.610 -0.7673 -0.6440  1.1307
  181MOL0     H24396  13.341   5.883   8.794  0.0454  1.6008 -3.1451
  181MOL0     H24397  13.305   5.784   9.333 -0.9906  0.6483  1.9318
  181MOL0     H24398  13.429   5.827   9.532  0.4214  1.3325  2.7496
  181MOL0     H24399  13.682   6.137   9.513  3.3847 -2.9425  0.7003
  181MOL0     H24400  13.661   6.204   9.674  1.5434  0.2197 -0.5181
  181MOL0     H24401  13.739   5.915   9.635 -2.1391 -1.1949  2.0762
  181MOL0     H24402  13.843   6.054   9.670  0.9503 -2.1565 -0.0556
  181MOL0     H24403  13.703   6.095   9.883  0.9158  0.1007  2.2071
  181MOL0     H24404  13.632   5.931   9.851  0.4741 -1.9340 -2.8897
  181MOL0     H24405  13.910   5.994   9.925  0.9274 -0.6285 -0.6890
  181MOL0     H24406  13.880   5.845   9.829 -0.4160 -2.2686  2.2155
  181MOL0     H24407  13.887   5.804  10.052  0.7184 -0.7658 -2.8307
  181MOL0     H24408  13.710   5.800  10.016  1.3111 -1.4778 -1.8575
  181MOL0     H24409  13.851   6.036  10.154  0.5448 -0.6547  0.1942
  181MOL0     H24410  13.678   6.018  10.105 -1.1699 -1.7239  0.1407
  181MOL0     H24411  13.639   5.838  10.268 -0.8378  0.6182 -3.6896
  181MOL0     H24412  13.710   5.999  10.334  2.8153 -0.5728  0.8454
  181MOL0     H24413  13.895   5.772  10.276  0.3724 -0.1632 -0.0473
  181MOL0     H24414  13.917   5.915  10.363  2.4120 -2.1638 -0.7878
  181MOL0     H24415  13.466   6.245   9.422 -1.3099  0.4118 -0.2615
  181MOL0     H24416  13.343   6.206   9.225 -0.9271  0.6283  1.4975
  181MOL0     H24417  13.003   5.953   9.061 -1.1922 -1.3158  0.7926
  181MOL0     H24418  12.844   5.912   8.875 -0.2257 -5.1824  1.4189
  181MOL0     H24419  11.507   5.669   7.763  3.6638  0.0609 -0.4807
  181MOL0     H24420  11.293   5.708   7.651  0.2344  0.3086  0.2687
  181MOL0     H24421  11.086   5.709   7.076  1.2652  1.3829  0.4392
  181MOL0     H24422  10.846   5.764   7.046 -0.8905 -0.6148  0.6614
  181MOL0     H24423  10.663   6.087   7.237 -3.9012  1.8563  4.3040
  181MOL0     H24424  10.624   5.970   7.364 -2.1630 -0.9020  0.0879
  181MOL0     H24425  10.441   5.901   7.204  1.1169 -0.7285  0.1622
  181MOL0     H24426  10.482   6.028   7.089 -0.0511  0.6538  0.0763
  181MOL0     H24427  10.430   6.211   7.268  1.4820  0.1033  0.5718
  181MOL0     H24428  10.406   6.074   7.372 -0.7076  0.7972 -0.4525
  181MOL0     H24429  10.215   6.213   7.203  1.0935  0.1480 -0.0288
  181MOL0     H24430  10.253   6.067   7.112  0.8970 -0.7447  0.1273
  181MOL0     H24431  10.037   5.909   7.442 -0.0802  0.3215  0.9738
  181MOL0     H24432  10.838   5.957   7.419 -0.0781 -1.9173  0.9598
  181MOL0     H24433  11.160   5.999   7.487  0.5928  0.1808  5.1683
  181MOL0     H24434  11.001   5.951   7.556 -3.4448 -0.3016 -3.6663
  181MOL0     H24435  11.119   5.829   7.539 -2.0174  0.1958  3.1196
  182MOL0     O24436   5.916   3.050   7.823  0.2989 -0.2755  0.2907
  182MOL0     C24437   5.869   3.121   7.906  0.2466  0.2975 -0.4904
  182MOL0     O24438   5.856   3.261   7.900 -0.3231 -0.1128  0.4994
  182MOL0     C24439   5.929   3.321   7.802 -0.0800  0.1516  0.6813
  182MOL0     C24440   6.056   3.367   7.842 -0.4979  0.8232 -0.3329
  182MOL0     C24441   6.131   3.441   7.759 -0.8916 -0.6988  0.0355
  182MOL0     C24442   6.086   3.471   7.631  0.3843 -0.0507 -0.2345
  182MOL0     O24443   6.176   3.520   7.540 -0.3156 -0.8042  0.4973
  182MOL0     C24444   6.136   3.557   7.404 -0.6200 -0.4810  0.4453
  182MOL0     C24445   6.251   3.626   7.325  0.4458 -0.0085  0.1781
  182MOL0     C24446   6.390   3.559   7.322  1.0352  0.0208  0.1372
  182MOL0     C24447   6.493   3.614   7.227 -1.0559  0.1581  0.1388
  182MOL0     C24448   6.607   3.522   7.182  0.3522 -0.3458  0.3288
  182MOL0     C24449   6.710   3.481   7.284  0.2665 -0.3959 -0.0657
  182MOL0     C24450   6.819   3.389   7.217 -0.5684 -0.4044 -0.2853
  182MOL0     C24451   6.929   3.365   7.325 -0.7023 -0.0603 -1.1570
  182MOL0     N24452   7.047   3.283   7.274 -0.3292 -0.4302  0.6173
  182MOL0     C24453   7.107   3.285   7.149 -0.1846  0.5912  0.0916
  182MOL0     C24454   7.225   3.213   7.165  0.3995 -0.9581  0.7250
  182MOL0     C24455   7.317   3.162   7.052  0.6977  0.7248  0.9646
  182MOL0     C24456   7.462   3.200   7.078  0.1834  0.2520  0.5645
  182MOL0     C24457   7.482   3.349   7.068 -0.3831  0.4151 -0.7956
  182MOL0     C24458   7.626   3.388   7.081 -0.1606  0.2303  0.2300
  182MOL0     O24459   7.686   3.331   6.965  0.3429  0.3193  0.1085
  182MOL0     C24460   7.818   3.283   6.975  0.5196  0.8180  0.5294
  182MOL0     C24461   7.905   3.284   7.080 -0.3949  0.8618  0.8599
  182MOL0     C24462   8.037   3.240   7.067  0.4175  0.3155  0.7197
  182MOL0     C24463   8.077   3.158   6.953 -0.5059  0.6523  0.3991
  182MOL0     C24464   8.204   3.080   6.948 -0.2046 -0.7259  1.5470
  182MOL0     O24465   8.279   3.090   7.054 -0.4329 -0.0528 -0.0272
  182MOL0     C24466   8.407   3.043   7.066  0.1478  0.1575 -0.0516
  182MOL0     C24467   8.490   2.968   6.978  0.0562 -0.6608  0.3668
  182MOL0     C24468   8.615   2.928   7.013 -0.0173 -0.5415  0.3088
  182MOL0     C24469   8.666   2.975   7.134 -0.1271  0.7813 -0.4547
  182MOL0     O24470   8.802   2.969   7.159 -0.3722  0.0125 -0.3400
  182MOL0     C24471   8.843   2.955   7.292 -0.5495  0.0318  0.4445
  182MOL0     C24472   8.994   2.948   7.307  0.1565  0.0797  0.3629
  182MOL0     C24473   9.040   2.943   7.451  0.0501  0.3934  1.0355
  182MOL0     C24474   9.004   2.806   7.513  0.3130 -1.1753 -1.0257
  182MOL0     C24475   9.116   2.700   7.486  0.3738  0.0755 -1.3089
  182MOL0     C24476   9.076   2.604   7.385  0.3851  0.3162  0.9556
  182MOL0     C24477   9.150   2.470   7.408 -0.0556  0.4239 -0.3334
  182MOL0     C24478   9.155   2.383   7.276 -0.4482 -0.3122  0.0289
  182MOL0    Cl24479   8.996   2.359   7.209  0.0228 -0.0934  0.4970
  182MOL0     C24480   8.589   3.051   7.229 -1.1251  0.5765  0.8559
  182MOL0     C24481   8.464   3.084   7.193  1.2477 -0.1845  0.5908
  182MOL0     O24482   8.230   3.015   6.843 -0.1041 -0.2170  0.2546
  182MOL0     C24483   7.977   3.143   6.855  0.0891 -0.2237  0.0845
  182MOL0     C24484   7.852   3.203   6.861  0.6688  0.2827  0.2472
  182MOL0     N24485   7.242   3.171   7.295  0.2372  0.0464 -0.4119
  182MOL0     N24486   7.134   3.209   7.359 -1.0112  0.4081  0.3357
  182MOL0     C24487   5.955   3.445   7.593  0.3417 -0.0336 -0.2625
  182MOL0     C24488   5.877   3.361   7.673  0.6262 -0.2179  0.4024
  182MOL0     C24489   5.814   3.047   8.025 -0.6902 -0.4281 -0.4146
  182MOL0     C24490   5.805   3.128   8.140 -0.6278  0.0498  0.2431
  182MOL0     C24491   5.758   3.077   8.263 -0.6913  0.4490 -0.6324
  182MOL0     C24492   5.714   2.950   8.277 -0.2488  0.1315 -0.4219
  182MOL0     O24493   5.670   2.896   8.401  0.1487 -0.6199 -0.3043
  182MOL0     C24494   5.623   2.992   8.496  0.1375  0.1161 -1.7570
  182MOL0     C24495   5.517   2.926   8.579 -1.1185  0.8315 -0.7812
  182MOL0     C24496   5.576   2.855   8.697 -0.7067 -0.3252  0.0636
  182MOL0     C24497   5.466   2.794   8.795  1.2647 -0.2599  1.0051
  182MOL0     C24498   5.523   2.690   8.878  0.5144  0.1889  0.0393
  182MOL0     C24499   5.578   2.601   8.940  0.6139 -0.0157 -0.1674
  182MOL0     C24500   5.714   2.864   8.160 -0.4172  0.4492  0.9118
  182MOL0     C24501   5.755   2.914   8.035  0.4744 -0.2627 -0.4639
  182MOL0     C24502   5.751   2.809   7.923 -0.5206 -0.1403  1.2342
  182MOL0     H24503   6.094   3.331   7.937 -0.8544 -0.3760 -0.6300
  182MOL0     H24504   6.227   3.483   7.787 -1.2419 -0.7237  1.3179
  182MOL0     H24505   6.117   3.465   7.348  5.1930  0.1504 -3.3495
  182MOL0     H24506   6.049   3.623   7.409 -1.3118 -1.2902  6.5040
  182MOL0     H24507   6.255   3.731   7.354  1.9243  0.0441 -0.1344
  182MOL0     H24508   6.215   3.626   7.221  1.3596  3.4002 -0.2534
  182MOL0     H24509   6.366   3.458   7.289 -0.8570  0.4887 -0.0657
  182MOL0     H24510   6.420   3.541   7.425 -0.8380 -0.3404  0.6594
  182MOL0     H24511   6.450   3.650   7.133  2.6263  3.1382 -0.6515
  182MOL0     H24512   6.527   3.708   7.272 -0.9216  0.0709  0.2178
  182MOL0     H24513   6.559   3.438   7.133 -1.6399 -1.8304  4.3915
  182MOL0     H24514   6.662   3.569   7.100  1.0586  0.5210  1.2584
  182MOL0     H24515   6.765   3.569   7.318 -1.7396  1.0977 -0.4938
  182MOL0     H24516   6.666   3.426   7.368  1.1516 -0.9910  0.0212
  182MOL0     H24517   6.854   3.438   7.126 -1.2526  1.2647  0.3240
  182MOL0     H24518   6.777   3.291   7.190 -1.0704 -0.1443 -0.4534
  182MOL0     H24519   6.975   3.463   7.344  2.0289 -1.2360 -1.3449
  182MOL0     H24520   6.874   3.331   7.413 -1.0856 -0.0549 -1.3945
  182MOL0     H24521   7.066   3.327   7.058  0.2043 -0.5741 -0.6367
  182MOL0     H24522   7.312   3.054   7.032 -0.3769  1.0588 -0.8687
  182MOL0     H24523   7.274   3.203   6.960  1.7552 -2.1742 -0.9588
  182MOL0     H24524   7.494   3.173   7.179  0.6106  1.5415  0.7911
  182MOL0     H24525   7.524   3.154   6.999 -2.2416  0.8425 -1.8246
  182MOL0     H24526   7.417   3.402   7.138  0.2922  1.7896 -1.1760
  182MOL0     H24527   7.449   3.373   6.967  0.7951 -0.5424 -1.4402
  182MOL0     H24528   7.657   3.348   7.178 -1.8110  0.2513  0.7947
  182MOL0     H24529   7.649   3.495   7.073 -0.7523  0.2470 -2.0516
  182MOL0     H24530   7.878   3.342   7.168 -5.2724  0.5744 -0.1697
  182MOL0     H24531   8.105   3.258   7.149  0.0577 -1.2300  1.3859
  182MOL0     H24532   8.452   2.928   6.885  1.2882 -0.2922 -0.3183
  182MOL0     H24533   8.672   2.869   6.942 -0.3149 -2.7650  1.8133
  182MOL0     H24534   8.805   3.022   7.370  1.4707  2.7345 -0.7195
  182MOL0     H24535   8.806   2.857   7.320 -1.3766  0.0138 -0.6297
  182MOL0     H24536   9.037   2.865   7.250  0.0399 -0.4412  1.0230
  182MOL0     H24537   9.027   3.047   7.274  0.9682 -0.4711 -0.5419
  182MOL0     H24538   9.147   2.956   7.468  0.3799  2.4248 -1.9575
  182MOL0     H24539   8.984   3.019   7.505  0.4579  2.0897 -0.8207
  182MOL0     H24540   8.908   2.770   7.474 -1.8656  3.7335 -0.8330
  182MOL0     H24541   8.998   2.819   7.621 -1.4177  1.7259 -1.3787
  182MOL0     H24542   9.127   2.657   7.585 -0.1835 -2.3119 -2.2243
  182MOL0     H24543   9.213   2.736   7.451  2.2000 -1.5262  1.7051
  182MOL0     H24544   8.967   2.589   7.384  0.0494  1.6928 -3.1691
  182MOL0     H24545   9.097   2.644   7.285  2.8133 -0.6028  1.0332
  182MOL0     H24546   9.089   2.414   7.480  1.1577  0.3678  0.6700
  182MOL0     H24547   9.256   2.471   7.434 -0.0991  2.4402 -0.1050
  182MOL0     H24548   9.215   2.433   7.200 -2.9296  1.9986 -0.5589
  182MOL0     H24549   9.195   2.285   7.300  0.3820  0.5201  2.3208
  182MOL0     H24550   8.620   3.091   7.325 -0.2211  0.4369  0.6305
  182MOL0     H24551   8.401   3.149   7.253  0.3190  0.5960 -1.1661
  182MOL0     H24552   7.994   3.076   6.771  1.0449  0.8914 -0.6431
  182MOL0     H24553   7.767   3.182   6.796  2.3014  0.0994 -1.9140
  182MOL0     H24554   5.915   3.491   7.504  0.2822 -0.5614 -0.5109
  182MOL0     H24555   5.779   3.344   7.630  0.5681  0.6858  0.1544
  182MOL0     H24556   5.829   3.234   8.145 -1.1780  0.2239 -0.6019
  182MOL0     H24557   5.771   3.139   8.351  0.0659 -0.0972 -0.3395
  182MOL0     H24558   5.579   3.082   8.451 -0.8775  1.2230  1.1388
  182MOL0     H24559   5.706   3.016   8.563 -0.0991 -2.2844 -0.5098
  182MOL0     H24560   5.459   2.849   8.528  0.1166 -0.7330  0.0883
  182MOL0     H24561   5.450   3.002   8.621 -1.3791  0.8658 -1.2498
  182MOL0     H24562   5.643   2.929   8.742 -1.2209  0.2692 -0.1292
  182MOL0     H24563   5.641   2.773   8.668  0.4335  0.1092  1.3030
  182MOL0     H24564   5.408   2.874   8.841 -2.6527 -1.0260 -2.0708
  182MOL0     H24565   5.390   2.749   8.731  1.8302 -0.7272  0.6477
  182MOL0     H24566   5.621   2.526   9.003 -0.2275 -0.7793 -0.4655
  182MOL0     H24567   5.676   2.765   8.182  0.7741  0.0234  1.1190
  182MOL0     H24568   5.854   2.776   7.907 -1.3839 -2.1244 -0.6994
  182MOL0     H24569   5.687   2.722   7.939  0.2125 -0.9137  0.1416
  182MOL0     H24570   5.710   2.859   7.834 -0.0203 -0.5450  0.7689
  183MOL0     O24571   3.068   1.315   2.883 -0.9578  0.1258 -0.3540
  183MOL0     C24572   3.131   1.214   2.882 -0.6481 -0.3878  0.1507
  183MOL0     O24573   3.259   1.204   2.827  0.1254  0.5144  1.2879
  183MOL0     C24574   3.331   1.312   2.792 -0.1394  0.4316  0.0841
  183MOL0     C24575   3.317   1.354   2.662 -0.5879  0.5806  0.3430
  183MOL0     C24576   3.379   1.464   2.617 -0.9921  0.3298  0.2883
  183MOL0     C24577   3.462   1.535   2.702  0.0319  0.1939 -0.4680
  183MOL0     O24578   3.516   1.653   2.650 -1.2028 -0.1978  0.1218
  183MOL0     C24579   3.523   1.773   2.723 -0.6638  0.8393 -0.2185
  183MOL0     C24580   3.405   1.818   2.781 -0.0372 -1.4685 -0.0609
  183MOL0     C24581   3.305   1.851   2.671  0.2578  0.6910  0.2399
  183MOL0     C24582   3.170   1.890   2.730  0.5881 -0.0923  0.3482
  183MOL0     C24583   3.050   1.915   2.643  0.0824 -0.8010 -0.1362
  183MOL0     C24584   3.051   2.042   2.561  0.0073  0.3851 -1.0360
  183MOL0     C24585   3.143   2.036   2.437  0.1245  0.7309 -0.4936
  183MOL0     C24586   3.086   2.101   2.308 -0.3842  0.1443  0.2565
  183MOL0     N24587   3.005   1.997   2.231  0.2691  0.0389 -0.5292
  183MOL0     C24588   3.030   1.953   2.096  0.7619  0.1860 -0.4103
  183MOL0     C24589   2.918   1.876   2.066  0.4714  0.1359  0.8691
  183MOL0     C24590   2.903   1.799   1.934 -0.3601 -0.5249  0.5608
  183MOL0     C24591   2.822   1.854   1.815  0.9164 -1.1898 -0.3437
  183MOL0     C24592   2.791   1.744   1.712  0.1274  0.0684 -0.4362
  183MOL0     C24593   2.861   1.743   1.578  0.0497 -0.4071 -0.3870
  183MOL0     O24594   2.861   1.877   1.514  0.3333  0.3652  0.4720
  183MOL0     C24595   2.738   1.908   1.460 -0.1553 -0.5980 -0.4311
  183MOL0     C24596   2.671   2.016   1.514 -0.1765 -0.0289 -0.2951
  183MOL0     C24597   2.556   2.059   1.448  0.2148 -0.4293 -0.2669
  183MOL0     C24598   2.503   1.984   1.341  0.7731 -0.4890 -0.0378
  183MOL0     C24599   2.381   2.037   1.282  0.0501  0.2268 -0.1352
  183MOL0     O24600   2.311   1.959   1.193  0.8448 -0.7554  0.5322
  183MOL0     C24601   2.187   2.009   1.139 -0.4722  0.3173 -0.8448
  183MOL0     C24602   2.116   2.122   1.182 -0.2566  0.7405  0.1329
  183MOL0     C24603   1.998   2.151   1.108 -0.1893 -0.0329  0.1430
  183MOL0     C24604   1.960   2.079   0.993 -0.3353  0.1159 -0.5869
  183MOL0     O24605   1.843   2.111   0.929 -0.1670  0.4526 -0.0502
  183MOL0     C24606   1.841   2.119   0.786  0.0846 -0.0224  0.3792
  183MOL0     C24607   1.725   2.216   0.745 -1.0952 -0.0907 -1.2340
  183MOL0     C24608   1.752   2.364   0.785 -0.2414  0.9602  1.1058
  183MOL0     C24609   1.630   2.463   0.766 -0.5378  0.3911  0.0427
  183MOL0     C24610   1.531   2.468   0.894 -1.0177 -1.3565 -0.4113
  183MOL0     C24611   1.441   2.593   0.904  0.1940 -0.0948  0.0511
  183MOL0     C24612   1.374   2.599   1.037  0.2551 -0.4409 -0.2430
  183MOL0     C24613   1.320   2.734   1.057 -0.2362 -1.1748  0.4953
  183MOL0    Cl24614   1.452   2.838   1.099  0.1600  0.2750 -0.3436
  183MOL0     C24615   2.027   1.962   0.963 -0.2695  0.1331  0.4989
  183MOL0     C24616   2.138   1.930   1.036  0.4157  0.3642  0.1626
  183MOL0     O24617   2.367   2.154   1.295  0.5201 -0.4616 -0.7225
  183MOL0     C24618   2.557   1.863   1.301 -0.5416 -0.6116 -0.2647
  183MOL0     C24619   2.685   1.824   1.359  0.4854  1.3384  0.7469
  183MOL0     N24620   2.837   1.875   2.165  0.1408 -0.0841  0.6335
  183MOL0     N24621   2.895   1.931   2.267  0.2258 -0.2900  0.5397
  183MOL0     C24622   3.487   1.490   2.830 -0.2532 -0.6603 -0.1990
  183MOL0     C24623   3.418   1.372   2.881 -0.0225  0.8202 -0.3674
  183MOL0     C24624   3.077   1.094   2.942  0.1872  0.0655 -0.0101
  183MOL0     C24625   3.089   0.977   2.872 -0.2955 -0.8326 -0.2546
  183MOL0     C24626   3.016   0.865   2.905  1.0200  0.3128 -0.6063
  183MOL0     C24627   2.924   0.872   3.019  0.0111 -0.6848  0.8739
  183MOL0     O24628   2.846   0.760   3.028 -0.5134  0.3413 -0.0264
  183MOL0     C24629   2.769   0.752   3.146 -0.8518 -0.0551  0.7836
  183MOL0     C24630   2.717   0.616   3.175 -0.4442  0.1814  0.3139
  183MOL0     C24631   2.651   0.564   3.053  0.0080 -0.3445 -0.0575
  183MOL0     C24632   2.563   0.435   3.067  1.1348 -0.3150 -0.7214
  183MOL0     C24633   2.452   0.473   3.152 -0.0854  0.3209 -0.2601
  183MOL0     C24634   2.369   0.501   3.236 -0.5313  1.2110  0.2292
  183MOL0     C24635   2.922   0.985   3.100 -0.6383  0.4428  0.1753
  183MOL0     C24636   2.998   1.099   3.060  0.4462 -0.7229  0.0495
  183MOL0     C24637   2.969   1.227   3.134  1.3159 -0.7204 -0.0321
  183MOL0     H24638   3.252   1.294   2.599  2.4336 -2.2735 -0.3262
  183MOL0     H24639   3.367   1.496   2.514 -1.5698  1.0078  0.5625
  183MOL0     H24640   3.591   1.757   2.807  0.4221  0.2185 -1.2043
  183MOL0     H24641   3.562   1.851   2.658  0.9659  0.4774  0.2733
  183MOL0     H24642   3.427   1.919   2.815  0.2991 -1.4425 -0.3543
  183MOL0     H24643   3.361   1.750   2.855  1.2291 -1.1640  1.0074
  183MOL0     H24644   3.278   1.771   2.601 -0.9350  0.8648  0.4675
  183MOL0     H24645   3.331   1.930   2.601 -0.5386 -0.7493 -1.7836
  183MOL0     H24646   3.138   1.799   2.783 -1.4395 -1.5126 -3.0027
  183MOL0     H24647   3.188   1.971   2.801  2.3222  1.4584 -1.7253
  183MOL0     H24648   3.027   1.825   2.585  1.1973 -2.5686  2.0000
  183MOL0     H24649   2.965   1.928   2.711  0.9924  2.5724  0.5225
  183MOL0     H24650   2.951   2.083   2.546 -0.8655  0.2325  3.0659
  183MOL0     H24651   3.092   2.115   2.632 -0.0828 -0.4839 -0.0620
  183MOL0     H24652   3.182   1.935   2.421 -0.5800  0.4967 -0.7638
  183MOL0     H24653   3.233   2.093   2.461 -0.7571  1.2266  1.9044
  183MOL0     H24654   3.023   2.185   2.339  1.2069  0.5727  2.6073
  183MOL0     H24655   3.167   2.134   2.242  0.0274 -2.8870 -0.9113
  183MOL0     H24656   3.092   1.983   2.012 -0.1720  1.4543 -0.6749
  183MOL0     H24657   3.005   1.794   1.894  0.2336  2.2107  1.4911
  183MOL0     H24658   2.872   1.695   1.939 -1.0813 -0.4591 -1.8482
  183MOL0     H24659   2.724   1.877   1.858  0.5352 -1.6815 -0.9261
  183MOL0     H24660   2.853   1.952   1.775 -0.0649 -0.5116  0.4856
  183MOL0     H24661   2.685   1.757   1.691  0.4231  2.0854 -0.9925
  183MOL0     H24662   2.796   1.644   1.755 -0.0182 -0.0789 -0.7626
  183MOL0     H24663   2.812   1.662   1.523  2.3170 -2.0542 -0.1416
  183MOL0     H24664   2.961   1.706   1.605  2.4067  4.6571 -1.0315
  183MOL0     H24665   2.698   2.067   1.606 -1.6757  0.9857 -0.3762
  183MOL0     H24666   2.497   2.138   1.494  0.2391 -2.3263  3.3532
  183MOL0     H24667   2.145   2.184   1.266  3.4071  0.6580 -0.9108
  183MOL0     H24668   1.934   2.230   1.145  2.1748  1.3732  1.4994
  183MOL0     H24669   1.938   2.158   0.755  1.7157 -2.5868  1.8544
  183MOL0     H24670   1.832   2.021   0.738 -1.1656 -0.5618  1.6273
  183MOL0     H24671   1.704   2.203   0.638 -1.5207 -0.0950 -1.1530
  183MOL0     H24672   1.629   2.198   0.794 -0.8328  3.4949  0.9630
  183MOL0     H24673   1.784   2.365   0.889  3.1663 -0.0291  0.2018
  183MOL0     H24674   1.834   2.404   0.724 -1.2300  3.0587  1.0800
  183MOL0     H24675   1.559   2.449   0.684  1.0794 -0.3479 -1.3094
  183MOL0     H24676   1.676   2.562   0.753  0.1045 -0.1539 -2.2364
  183MOL0     H24677   1.584   2.478   0.990 -1.1055 -0.1662 -0.4755
  183MOL0     H24678   1.464   2.383   0.903 -1.9861 -0.5736 -0.0383
  183MOL0     H24679   1.502   2.683   0.887 -1.2320  1.0174  0.6113
  183MOL0     H24680   1.365   2.613   0.829  0.7337  1.1602 -0.1936
  183MOL0     H24681   1.440   2.563   1.116  3.9565  0.7031 -2.5135
  183MOL0     H24682   1.296   2.522   1.035  2.2740 -2.5972 -0.7813
  183MOL0     H24683   1.269   2.766   0.966  0.2254  0.1293  0.6635
  183MOL0     H24684   1.247   2.729   1.139 -1.8309  2.9454 -0.4301
  183MOL0     H24685   1.994   1.907   0.875  1.8911 -1.3177  0.5096
  183MOL0     H24686   2.190   1.835   1.019  0.3912  0.6077 -1.4311
  183MOL0     H24687   2.520   1.796   1.224 -0.2715 -2.3173  1.0374
  183MOL0     H24688   2.720   1.723   1.341 -1.0446  0.7446  0.9667
  183MOL0     H24689   3.561   1.533   2.896 -0.1574 -1.8279  0.4834
  183MOL0     H24690   3.422   1.350   2.987 -1.5993 -0.3195 -0.5142
  183MOL0     H24691   3.150   0.965   2.783 -0.3879  0.4244 -0.5093
  183MOL0     H24692   3.030   0.775   2.846  2.8153 -0.6652  1.1794
  183MOL0     H24693   2.685   0.821   3.131 -0.6946 -0.5691 -3.7878
  183MOL0     H24694   2.830   0.787   3.229 -0.1131  0.9496 -0.1538
  183MOL0     H24695   2.647   0.622   3.259 -0.2150 -2.3230  0.7748
  183MOL0     H24696   2.794   0.543   3.199 -0.6482  0.7288  2.9630
  183MOL0     H24697   2.728   0.533   2.982 -2.3669 -3.6419 -1.4648
  183MOL0     H24698   2.581   0.640   3.015  1.4735  1.4116  0.6232
  183MOL0     H24699   2.520   0.400   2.973  2.4383 -0.1428 -1.4066
  183MOL0     H24700   2.617   0.348   3.104  0.7497  1.0610  3.6903
  183MOL0     H24701   2.285   0.518   3.301  0.5194  2.6885  1.2720
  183MOL0     H24702   2.851   0.998   3.180  0.5536  2.5797  0.9691
  183MOL0     H24703   2.893   1.287   3.083 -2.4365  0.4310  5.9426
  183MOL0     H24704   2.935   1.205   3.235 -1.3554 -1.3911 -0.9705
  183MOL0     H24705   3.063   1.283   3.135  0.5183  0.6661  0.6004
  184MOL0     O24706   5.656   6.173  10.141  0.1778  0.4942 -0.8433
  184MOL0     C24707   5.693   6.061  10.127 -0.3724  0.6980 -0.1704
  184MOL0     O24708   5.824   6.022  10.128  0.2314  0.1936  0.7423
  184MOL0     C24709   5.917   6.112  10.169  0.5494 -0.8116 -0.1872
  184MOL0     C24710   5.982   6.195  10.080 -0.5907  0.7317 -0.6261
  184MOL0     C24711   6.082   6.285  10.115 -0.1503  0.0008  1.0222
  184MOL0     C24712   6.123   6.289  10.249  0.0022  0.2024 -0.5971
  184MOL0     O24713   6.226   6.378  10.271 -0.4436 -0.0059  0.8534
  184MOL0     C24714   6.277   6.382  10.406 -0.0191  0.6318  0.9987
  184MOL0     C24715   6.395   6.474  10.396  0.0057  0.6332  0.1040
  184MOL0     C24716   6.528   6.406  10.360 -0.4844  0.1673  0.4047
  184MOL0     C24717   6.649   6.487  10.416 -0.0808  0.2859 -0.4910
  184MOL0     C24718   6.775   6.437  10.343 -0.5111 -0.6882  0.8455
  184MOL0     C24719   6.880   6.553  10.333  0.2108 -0.4695 -0.7272
  184MOL0     C24720   7.004   6.501  10.388  0.4915  0.6523  0.0402
  184MOL0     C24721   7.125   6.576  10.344 -0.3491  0.1380  0.2162
  184MOL0     N24722   7.126   6.697  10.415 -1.0436  0.6025 -0.5738
  184MOL0     C24723   7.083   6.811  10.350  0.8912  0.1514  0.8768
  184MOL0     C24724   7.148   6.910  10.412 -0.1643 -0.5869  0.2731
  184MOL0     C24725   7.142   7.060  10.373 -0.6682 -0.0253  0.1753
  184MOL0     C24726   7.274   7.085  10.296  0.2194  0.1661  0.5482
  184MOL0     C24727   7.272   7.230  10.238 -0.6973 -0.2213  0.3171
  184MOL0     C24728   7.206   7.243  10.101 -1.0972  1.2011 -1.0586
  184MOL0     O24729   7.206   7.372  10.043 -0.2195  0.1472  0.4736
  184MOL0     C24730   7.127   7.472  10.079  0.1963 -0.2730  0.1425
  184MOL0     C24731   7.021   7.466  10.166  0.0611 -0.3096 -0.0823
  184MOL0     C24732   6.943   7.584  10.181  0.1645  0.1702 -0.2996
  184MOL0     C24733   6.966   7.706  10.110  0.1846 -0.2276 -0.1932
  184MOL0     C24734   6.870   7.816  10.123  0.6657  0.0352 -0.3133
  184MOL0     O24735   6.917   7.938  10.074  0.5337  0.6789 -0.5289
  184MOL0     C24736   6.851   8.053  10.099  0.5644  0.1768 -0.2723
  184MOL0     C24737   6.710   8.073  10.110  0.2302  0.6239 -0.4032
  184MOL0     C24738   6.659   8.199  10.118  0.1933  0.1841 -0.5822
  184MOL0     C24739   6.740   8.308  10.094 -1.1581 -0.8135 -0.4850
  184MOL0     O24740   6.682   8.433  10.079  0.2006 -1.2145  0.7444
  184MOL0     C24741   6.590   8.443   9.960 -0.4086  0.0533  0.3448
  184MOL0     C24742   6.608   8.566   9.878  0.5946  1.0867  0.1567
  184MOL0     C24743   6.619   8.691   9.959 -0.6140 -1.0788  0.4731
  184MOL0     C24744   6.604   8.816   9.860  0.4886 -0.3169 -0.1956
  184MOL0     C24745   6.743   8.852   9.801 -0.1761  0.9707 -0.6792
  184MOL0     C24746   6.845   8.899   9.906  0.7441  0.4472 -0.5471
  184MOL0     C24747   6.949   8.990   9.835  0.1694 -1.2851  0.2777
  184MOL0     C24748   7.064   9.045   9.925 -0.2746  0.7176  0.1287
  184MOL0    Cl24749   7.022   9.176  10.031 -0.4685 -0.3780 -0.8483
  184MOL0     C24750   6.874   8.301  10.080 -0.2042  0.1793 -0.3758
  184MOL0     C24751   6.927   8.171  10.078 -0.6108  0.9579 -0.1373
  184MOL0     O24752   6.761   7.793  10.177 -0.1173 -0.5340 -0.2119
  184MOL0     C24753   7.072   7.706  10.027  0.6966 -0.1002 -0.1482
  184MOL0     C24754   7.151   7.592  10.010 -0.0305 -0.3859 -0.0959
  184MOL0     N24755   7.229   6.858  10.508 -0.4122 -0.1042  0.3648
  184MOL0     N24756   7.214   6.728  10.513  0.5487 -0.7313 -0.7263
  184MOL0     C24757   6.033   6.230  10.339 -0.1135  0.0245 -0.7189
  184MOL0     C24758   5.938   6.135  10.303 -0.0110  0.9666  0.0077
  184MOL0     C24759   5.581   5.966  10.131  0.1205 -0.5833  0.9497
  184MOL0     C24760   5.452   6.006  10.185  0.0844 -0.6031 -0.3224
  184MOL0     C24761   5.339   5.923  10.202 -0.5383  0.1920  0.2390
  184MOL0     C24762   5.360   5.785  10.159 -0.3487  0.1048 -1.1646
  184MOL0     O24763   5.260   5.683  10.172 -0.9521  0.0115  0.2075
  184MOL0     C24764   5.155   5.718  10.260  0.1981  0.7702 -0.3141
  184MOL0     C24765   5.178   5.666  10.411  0.2559 -0.4381  0.5437
  184MOL0     C24766   5.195   5.514  10.421 -0.0307 -0.0245 -0.8097
  184MOL0     C24767   5.229   5.487  10.568 -0.6709 -0.3380  0.3496
  184MOL0     C24768   5.233   5.344  10.585 -0.1106 -0.7809  0.4080
  184MOL0     C24769   5.235   5.222  10.605  0.6344 -0.6384  0.7226
  184MOL0     C24770   5.486   5.747  10.102  0.3263  0.0887  0.2168
  184MOL0     C24771   5.595   5.834  10.089 -0.2106  0.5425  0.2582
  184MOL0     C24772   5.717   5.778  10.027 -0.3668  0.2808 -0.0700
  184MOL0     H24773   5.955   6.195   9.975 -0.9243  1.8582 -0.5589
  184MOL0     H24774   6.137   6.346  10.043  0.5314 -0.8764  0.7819
  184MOL0     H24775   6.206   6.432  10.472  0.4687  3.9706 -0.7868
  184MOL0     H24776   6.303   6.285  10.449 -1.5817  0.9406  2.7502
  184MOL0     H24777   6.402   6.519  10.496 -2.4147 -0.6726  0.9602
  184MOL0     H24778   6.380   6.557  10.327 -2.9416  0.3191  0.2313
  184MOL0     H24779   6.534   6.409  10.251 -0.6740 -2.0638  0.2841
  184MOL0     H24780   6.522   6.304  10.398  1.3158 -0.2339 -0.2651
  184MOL0     H24781   6.631   6.592  10.390 -0.5831  0.2700 -0.2111
  184MOL0     H24782   6.659   6.478  10.524 -0.7876 -2.8277 -0.6054
  184MOL0     H24783   6.816   6.359  10.408  2.8697  3.4293  4.3091
  184MOL0     H24784   6.752   6.395  10.245  0.3652 -1.1505  0.8187
  184MOL0     H24785   6.892   6.575  10.226 -2.3478  3.3276 -0.4195
  184MOL0     H24786   6.848   6.642  10.387 -0.2270  0.5314 -2.5679
  184MOL0     H24787   7.022   6.397  10.358 -2.5827 -0.0700  0.3888
  184MOL0     H24788   7.003   6.504  10.498  0.3846 -1.3389  0.1271
  184MOL0     H24789   7.222   6.526  10.353 -0.4987 -0.0664  0.7045
  184MOL0     H24790   7.122   6.599  10.237  1.2985  0.4755  0.2108
  184MOL0     H24791   7.018   6.824  10.263  0.5730 -1.0484  0.9267
  184MOL0     H24792   7.052   7.066  10.311 -1.6684  1.9692  1.6797
  184MOL0     H24793   7.131   7.123  10.462  0.0070  1.2409 -0.6027
  184MOL0     H24794   7.364   7.081  10.358 -0.8154 -0.9170  2.0424
  184MOL0     H24795   7.274   7.024  10.205  0.4335 -1.6148  1.7097
  184MOL0     H24796   7.372   7.271  10.220 -0.7024 -0.4662 -0.2760
  184MOL0     H24797   7.223   7.297  10.310 -1.0376 -1.9880  1.8108
  184MOL0     H24798   7.105   7.206  10.124  0.2725 -0.9062  2.4468
  184MOL0     H24799   7.257   7.178  10.030 -0.2082  0.1438  0.5006
  184MOL0     H24800   7.016   7.366  10.208  3.5055 -0.1850  0.9682
  184MOL0     H24801   6.853   7.578  10.241 -1.1540 -0.3223 -2.2335
  184MOL0     H24802   6.655   7.980  10.109  3.5342 -1.4847  0.2190
  184MOL0     H24803   6.551   8.207  10.116 -0.2144 -2.8714  1.7003
  184MOL0     H24804   6.601   8.345   9.914  2.4733  0.0704  0.8591
  184MOL0     H24805   6.490   8.437  10.006 -1.2716 -4.5429 -1.5911
  184MOL0     H24806   6.697   8.565   9.815  0.0181  0.7014 -0.6713
  184MOL0     H24807   6.520   8.554   9.815  1.6979 -3.7476 -0.9429
  184MOL0     H24808   6.539   8.688  10.034 -2.4137 -0.7186 -1.3494
  184MOL0     H24809   6.711   8.702  10.017 -0.1669  1.9999 -0.6628
  184MOL0     H24810   6.558   8.899   9.915 -0.4306  0.8241 -2.5351
  184MOL0     H24811   6.544   8.792   9.772 -1.6544 -1.0270  1.3870
  184MOL0     H24812   6.742   8.928   9.722  1.1737 -0.4204 -2.1039
  184MOL0     H24813   6.787   8.765   9.753 -0.0849  1.0177 -0.6809
  184MOL0     H24814   6.790   8.961   9.977  1.7841  0.8110 -0.0430
  184MOL0     H24815   6.895   8.817   9.959 -0.4556 -0.2646 -0.4710
  184MOL0     H24816   6.898   9.070   9.781 -0.7214 -1.4729  0.8113
  184MOL0     H24817   7.013   8.929   9.771  1.8847  0.1711  0.5116
  184MOL0     H24818   7.117   8.967   9.980  1.3042  0.4517 -1.6487
  184MOL0     H24819   7.132   9.090   9.852  0.1650  0.2560  0.2493
  184MOL0     H24820   6.929   8.390  10.049  1.5596 -1.3952 -2.0053
  184MOL0     H24821   7.031   8.150  10.052 -0.7400  1.0719 -0.7612
  184MOL0     H24822   7.100   7.787   9.960 -0.9633  2.0608  1.6206
  184MOL0     H24823   7.239   7.597   9.946 -0.1251  2.6334 -0.1181
  184MOL0     H24824   6.045   6.253  10.445 -1.2987 -0.6372 -0.4231
  184MOL0     H24825   5.871   6.072  10.360  2.5033 -4.1006 -1.9957
  184MOL0     H24826   5.436   6.113  10.191 -0.4680 -0.5377 -2.1772
  184MOL0     H24827   5.247   5.972  10.231 -1.4424 -0.1642 -1.8624
  184MOL0     H24828   5.063   5.669  10.225 -0.5293  1.1550  0.9849
  184MOL0     H24829   5.123   5.822  10.265 -2.8967 -0.1375  1.5843
  184MOL0     H24830   5.088   5.695  10.466  1.0959  1.8391  0.8328
  184MOL0     H24831   5.262   5.720  10.456  2.4486 -2.1569 -1.2443
  184MOL0     H24832   5.273   5.479  10.352 -0.2365  0.4706 -1.2997
  184MOL0     H24833   5.107   5.465  10.379 -0.1758 -1.0783  0.6432
  184MOL0     H24834   5.324   5.533  10.595 -0.9137  0.1979  0.2922
  184MOL0     H24835   5.146   5.523  10.628 -1.7096 -2.1986  0.1167
  184MOL0     H24836   5.245   5.116  10.592  0.3669 -0.5314 -0.4761
  184MOL0     H24837   5.501   5.649  10.057  1.3032  0.3808 -0.1245
  184MOL0     H24838   5.784   5.749  10.108  0.2600  2.4300  0.2440
  184MOL0     H24839   5.690   5.687   9.973 -1.0825  1.2394 -1.3974
  184MOL0     H24840   5.778   5.843   9.962  0.1794 -0.0370  0.1186
  185MOL0     O24841   5.343   5.065   2.682 -0.1169  0.0118  0.4616
  185MOL0     C24842   5.256   5.118   2.605 -0.0170 -0.4448  0.4523
  185MOL0     O24843   5.245   5.252   2.571 -0.2395  0.2984 -0.0060
  185MOL0     C24844   5.344   5.334   2.612 -0.0114  0.4721 -0.2204
  185MOL0     C24845   5.448   5.365   2.528 -0.4880  0.0520  1.0288
  185MOL0     C24846   5.556   5.440   2.580  0.2222  0.6359 -1.2144
  185MOL0     C24847   5.564   5.490   2.714 -0.0034  1.3929  1.1043
  185MOL0     O24848   5.668   5.570   2.738 -0.0002 -0.2020 -0.1839
  185MOL0     C24849   5.793   5.504   2.756  0.3451  0.0247  1.6641
  185MOL0     C24850   5.903   5.610   2.788 -0.5155 -0.9759 -0.1959
  185MOL0     C24851   6.037   5.549   2.845 -0.8798  0.0708  0.4714
  185MOL0     C24852   6.023   5.478   2.976  0.1508  0.2366  0.7904
  185MOL0     C24853   6.163   5.440   3.027 -0.0221  0.8504 -0.2070
  185MOL0     C24854   6.152   5.332   3.136 -0.3002 -0.4415  0.3206
  185MOL0     C24855   6.294   5.298   3.188 -0.3300 -0.8936 -0.7130
  185MOL0     C24856   6.318   5.148   3.226 -0.0569 -0.0274  0.9884
  185MOL0     N24857   6.353   5.082   3.094  0.8398  0.0559  0.6804
  185MOL0     C24858   6.256   5.043   3.004  0.7056 -0.1489  0.3651
  185MOL0     C24859   6.302   4.932   2.934 -0.3139 -0.3407  0.2943
  185MOL0     C24860   6.234   4.841   2.828 -0.8064 -0.4654  0.3477
  185MOL0     C24861   6.154   4.727   2.891  0.3227  0.2449 -0.3076
  185MOL0     C24862   6.048   4.655   2.806  0.2555  1.1176  0.3751
  185MOL0     C24863   5.943   4.754   2.742 -0.9376 -0.4581 -0.6235
  185MOL0     O24864   5.871   4.794   2.863 -0.0800 -0.4673 -0.2849
  185MOL0     C24865   5.735   4.764   2.870  0.1586  0.2811 -0.2730
  185MOL0     C24866   5.635   4.777   2.769 -0.7035 -0.1246  0.3725
  185MOL0     C24867   5.506   4.755   2.795  0.4486 -0.7999  0.3177
  185MOL0     C24868   5.453   4.712   2.916 -0.1682  0.8049  0.4369
  185MOL0     C24869   5.311   4.675   2.936 -0.0842  0.7883 -0.8242
  185MOL0     O24870   5.265   4.627   3.062 -0.4707 -0.2509 -0.5726
  185MOL0     C24871   5.155   4.550   3.086  0.2172  0.1883  0.8858
  185MOL0     C24872   5.034   4.554   3.007  1.1611 -0.6655 -0.7443
  185MOL0     C24873   4.939   4.473   3.041  1.0061  1.0593  0.3787
  185MOL0     C24874   4.952   4.373   3.145 -0.5427  0.8172  0.3434
  185MOL0     O24875   4.853   4.279   3.158 -0.7324 -0.8852 -0.8984
  185MOL0     C24876   4.890   4.149   3.207  0.9424  1.0822  0.5762
  185MOL0     C24877   4.983   4.072   3.105 -0.8315  0.3221  0.5542
  185MOL0     C24878   5.039   3.935   3.158  0.3585  0.1851 -0.1158
  185MOL0     C24879   4.923   3.832   3.161 -0.2183  0.0348  0.3076
  185MOL0     C24880   4.974   3.698   3.197  0.6670  0.1683  0.3866
  185MOL0     C24881   4.864   3.581   3.183  0.1837 -0.5290 -0.8033
  185MOL0     C24882   4.923   3.442   3.172  0.1181  0.4802  0.8932
  185MOL0     C24883   4.979   3.382   3.308 -0.3059 -0.9066  0.2516
  185MOL0    Cl24884   5.017   3.210   3.313 -0.1938 -0.0254 -0.1567
  185MOL0     C24885   5.069   4.370   3.220 -0.0944 -0.2661 -1.3371
  185MOL0     C24886   5.171   4.460   3.185  0.9523  0.3254 -0.4532
  185MOL0     O24887   5.233   4.684   2.845  0.2699 -1.4365  0.0666
  185MOL0     C24888   5.545   4.697   3.019  0.1957 -0.2171  0.6594
  185MOL0     C24889   5.679   4.717   2.991  0.1056 -0.0793  0.5348
  185MOL0     N24890   6.426   4.901   2.988  0.6298 -0.0461 -0.4631
  185MOL0     N24891   6.458   4.997   3.074  0.2197  0.2085 -0.4178
  185MOL0     C24892   5.451   5.475   2.784  0.8144 -1.5758 -0.4043
  185MOL0     C24893   5.343   5.398   2.746 -0.4051  0.1576 -0.1045
  185MOL0     C24894   5.154   5.034   2.543 -0.1381 -0.6870  0.1317
  185MOL0     C24895   5.109   4.937   2.631  0.5002  0.0322  0.0952
  185MOL0     C24896   5.009   4.846   2.595 -0.2951  0.5224  0.3879
  185MOL0     C24897   4.940   4.862   2.473 -0.1931  1.1826  0.1268
  185MOL0     O24898   4.824   4.788   2.467  0.3063 -0.4541  1.0490
  185MOL0     C24899   4.705   4.851   2.413 -0.0783  0.3471  0.0092
  185MOL0     C24900   4.673   4.990   2.485  0.0769  0.7230  0.0175
  185MOL0     C24901   4.613   4.969   2.632 -0.1747  0.1034  0.7785
  185MOL0     C24902   4.485   4.870   2.651 -0.4350 -0.1195  0.6998
  185MOL0     C24903   4.409   4.860   2.523  0.1007 -0.1236 -0.5450
  185MOL0     C24904   4.338   4.859   2.434  1.0419  0.3559  0.3505
  185MOL0     C24905   4.995   4.954   2.384  0.8737 -0.1001  0.0864
  185MOL0     C24906   5.097   5.042   2.414  0.5613 -0.2507  0.5194
  185MOL0     C24907   5.123   5.143   2.296  0.4782  0.0862 -0.7934
  185MOL0     H24908   5.441   5.336   2.424 -1.4406  0.5563  0.9348
  185MOL0     H24909   5.645   5.451   2.518  1.0228 -1.9135 -0.6254
  185MOL0     H24910   5.797   5.423   2.829  2.2744 -3.8517 -2.2336
  185MOL0     H24911   5.815   5.444   2.667 -2.6777 -1.5270  1.8330
  185MOL0     H24912   5.878   5.692   2.857 -1.4670 -1.7121  0.3607
  185MOL0     H24913   5.920   5.659   2.692  2.6069 -0.5761  0.4354
  185MOL0     H24914   6.112   5.628   2.857 -0.6955  0.7453 -3.5896
  185MOL0     H24915   6.064   5.474   2.771 -0.3232 -0.8092  1.5370
  185MOL0     H24916   5.976   5.541   3.052 -1.9771  0.6040 -0.7253
  185MOL0     H24917   5.960   5.389   2.962 -1.3721  1.2273  1.1027
  185MOL0     H24918   6.239   5.405   2.956  0.2080 -1.0529  0.8883
  185MOL0     H24919   6.215   5.523   3.076  0.3931  1.1521 -1.1461
  185MOL0     H24920   6.086   5.366   3.216 -2.3327 -1.3308 -0.8815
  185MOL0     H24921   6.116   5.234   3.101 -0.9957 -0.6564  1.6032
  185MOL0     H24922   6.310   5.355   3.280 -1.8743  1.1554 -1.6289
  185MOL0     H24923   6.368   5.326   3.112 -0.8282  1.9534 -0.2914
  185MOL0     H24924   6.401   5.145   3.297 -0.3606  3.4624  1.6779
  185MOL0     H24925   6.229   5.114   3.278  0.9745  0.6905  3.3432
  185MOL0     H24926   6.164   5.097   2.982  1.3693  2.5079  3.4106
  185MOL0     H24927   6.168   4.909   2.775 -1.8806 -0.1314  2.0475
  185MOL0     H24928   6.306   4.795   2.760  0.7750 -0.8896  2.2122
  185MOL0     H24929   6.223   4.644   2.910  0.0564 -1.0693 -4.1389
  185MOL0     H24930   6.105   4.762   2.982  1.3636 -2.7395  1.5667
  185MOL0     H24931   6.000   4.574   2.861  0.1078 -0.6146 -2.1508
  185MOL0     H24932   6.092   4.597   2.724 -0.6088  0.2682  0.5005
  185MOL0     H24933   5.883   4.704   2.665 -1.8773 -0.1285 -0.1149
  185MOL0     H24934   5.986   4.840   2.691  1.3304 -2.3406 -2.1217
  185MOL0     H24935   5.680   4.787   2.671 -0.2497 -1.6788  0.3894
  185MOL0     H24936   5.445   4.781   2.710  1.4845 -3.0878 -1.2170
  185MOL0     H24937   5.010   4.631   2.934 -3.0412  0.3088  1.2988
  185MOL0     H24938   4.852   4.461   2.977  2.2269 -1.3244 -0.9493
  185MOL0     H24939   4.921   4.154   3.312 -1.5305  2.5197  1.3201
  185MOL0     H24940   4.794   4.097   3.210  2.3417 -1.6178  1.2383
  185MOL0     H24941   4.939   4.056   3.006  2.5177  0.9642 -1.1938
  185MOL0     H24942   5.069   4.139   3.092  0.0065 -0.9258 -0.6894
  185MOL0     H24943   5.117   3.896   3.092  1.4139  3.1456 -0.7331
  185MOL0     H24944   5.084   3.949   3.257 -1.4977  2.4773  0.4883
  185MOL0     H24945   4.875   3.830   3.063 -0.1829 -1.4612  0.2920
  185MOL0     H24946   4.851   3.854   3.240 -2.2637 -0.1364 -1.4097
  185MOL0     H24947   5.001   3.700   3.303 -0.6939 -4.7557  1.0616
  185MOL0     H24948   5.058   3.686   3.127  0.2761  1.0423 -0.2539
  185MOL0     H24949   4.805   3.570   3.274 -1.8330 -0.3347 -2.0136
  185MOL0     H24950   4.801   3.603   3.096  0.8916 -2.6554 -1.9116
  185MOL0     H24951   4.997   3.428   3.092  0.2699  0.2491  1.0722
  185MOL0     H24952   4.834   3.381   3.156  0.5062 -0.1362  1.0419
  185MOL0     H24953   5.071   3.435   3.336 -0.0099 -1.3541  0.1419
  185MOL0     H24954   4.913   3.409   3.390  0.7708  0.1222  0.8104
  185MOL0     H24955   5.085   4.297   3.298  0.2279 -3.3952 -4.1020
  185MOL0     H24956   5.262   4.475   3.242 -0.7159 -1.5911  3.0126
  185MOL0     H24957   5.515   4.660   3.117 -0.9777 -1.1384 -0.0275
  185MOL0     H24958   5.750   4.689   3.068  1.7989 -1.2721 -1.3266
  185MOL0     H24959   5.445   5.517   2.884 -1.4800 -0.6384 -0.8928
  185MOL0     H24960   5.249   5.391   2.798 -0.3034  1.4531  0.2876
  185MOL0     H24961   5.148   4.933   2.733  1.0973 -1.6183 -0.1600
  185MOL0     H24962   4.967   4.775   2.665 -3.2361 -1.0280 -2.6544
  185MOL0     H24963   4.627   4.777   2.429 -0.2272  0.1362 -1.5153
  185MOL0     H24964   4.724   4.850   2.305  0.6169  1.2799  0.1065
  185MOL0     H24965   4.612   5.050   2.417  1.5794  0.8503 -1.2586
  185MOL0     H24966   4.763   5.050   2.501  0.0258  0.7810  0.0882
  185MOL0     H24967   4.577   5.065   2.670 -1.9937 -0.7835  1.3941
  185MOL0     H24968   4.696   4.929   2.692 -1.6404 -0.6511  2.3728
  185MOL0     H24969   4.517   4.770   2.684 -1.1050 -0.6933 -0.3293
  185MOL0     H24970   4.418   4.914   2.725 -1.2221  3.1489 -1.7618
  185MOL0     H24971   4.268   4.878   2.355  1.8133 -0.0477 -0.4476
  185MOL0     H24972   4.942   4.956   2.290  0.2943 -0.2459  0.4090
  185MOL0     H24973   5.028   5.153   2.243  0.3620 -1.2630 -0.8665
  185MOL0     H24974   5.162   5.237   2.336 -1.5044 -0.2155  2.1207
  185MOL0     H24975   5.193   5.110   2.218  0.5993 -1.5217 -0.0371
  186MOL0     O24976   7.560   7.553   5.876  0.0766 -0.1741  0.4140
  186MOL0     C24977   7.524   7.633   5.790 -0.2244  0.4627  0.3160
  186MOL0     O24978   7.492   7.762   5.813 -0.1372 -0.2153 -0.3796
  186MOL0     C24979   7.516   7.812   5.939  0.2595 -0.3209  0.8673
  186MOL0     C24980   7.432   7.783   6.048  0.3226 -0.2292 -0.3109
  186MOL0     C24981   7.463   7.836   6.173 -0.7173  0.8746 -0.2854
  186MOL0     C24982   7.575   7.924   6.196 -0.6185  0.8192 -0.3976
  186MOL0     O24983   7.616   7.962   6.322  0.2054 -0.3711 -0.3248
  186MOL0     C24984   7.650   8.099   6.330 -1.2333  0.5630  0.6301
  186MOL0     C24985   7.566   8.206   6.254 -0.4138 -0.0377 -1.0411
  186MOL0     C24986   7.418   8.198   6.288  0.3929  0.6257 -0.2566
  186MOL0     C24987   7.322   8.216   6.168  0.2265  0.0509  0.5935
  186MOL0     C24988   7.183   8.156   6.191 -0.4983  0.2978  0.1273
  186MOL0     C24989   7.143   8.048   6.082  0.6295 -0.0820 -0.2163
  186MOL0     C24990   6.995   8.002   6.094 -0.9573 -0.0680  0.3882
  186MOL0     C24991   6.949   7.924   5.963  0.8663 -0.6871  0.5007
  186MOL0     N24992   7.029   7.796   5.936  0.1751 -0.0024 -0.5743
  186MOL0     C24993   7.029   7.684   6.019 -0.1700 -0.4736 -0.0832
  186MOL0     C24994   7.115   7.605   5.950 -0.2632 -1.1893 -0.2524
  186MOL0     C24995   7.149   7.458   5.976 -0.3222 -0.3976 -0.5811
  186MOL0     C24996   7.033   7.360   5.955  0.3023 -0.0215  0.8389
  186MOL0     C24997   6.939   7.360   6.069  0.4976  0.6548 -0.0838
  186MOL0     C24998   6.850   7.236   6.084  0.1993  0.3169  0.7320
  186MOL0     O24999   6.762   7.242   6.196 -0.5482  0.6842  0.0240
  186MOL0     C25000   6.814   7.250   6.320 -0.0672  0.4452  0.1320
  186MOL0     C25001   6.728   7.270   6.420 -0.6678  0.0869 -0.7175
  186MOL0     C25002   6.771   7.288   6.557  1.0707  0.5423  1.4664
  186MOL0     C25003   6.905   7.268   6.583  0.3047 -0.5108 -0.0970
  186MOL0     C25004   6.955   7.278   6.724 -1.0688  0.1084 -0.3072
  186MOL0     O25005   7.093   7.261   6.739  0.2580 -0.7516  0.1618
  186MOL0     C25006   7.154   7.341   6.837  0.3287 -0.6383  0.0457
  186MOL0     C25007   7.147   7.314   6.967  0.5909 -0.5368 -1.0564
  186MOL0     C25008   7.191   7.417   7.062 -0.6313  0.7827 -0.1042
  186MOL0     C25009   7.242   7.544   7.031 -1.0584  0.8915  0.3339
  186MOL0     O25010   7.288   7.632   7.125 -0.4473 -0.2990 -0.1128
  186MOL0     C25011   7.320   7.767   7.086  1.3346 -0.0448 -1.1280
  186MOL0     C25012   7.391   7.840   7.206 -0.4046 -0.4118 -0.4189
  186MOL0     C25013   7.299   7.870   7.320 -0.3694 -0.9786 -0.0974
  186MOL0     C25014   7.355   7.942   7.444  0.7780  0.7151  0.4323
  186MOL0     C25015   7.261   7.944   7.562  0.5904 -0.0367 -0.2266
  186MOL0     C25016   7.117   8.007   7.534 -0.7254  0.3456 -0.3696
  186MOL0     C25017   7.058   8.056   7.665  1.0724 -0.3351  0.1631
  186MOL0     C25018   6.918   8.124   7.647  0.4909 -0.6827  0.4276
  186MOL0    Cl25019   6.940   8.254   7.536 -0.1644  0.2365 -0.0178
  186MOL0     C25020   7.244   7.557   6.888 -0.2019  0.0423  0.1197
  186MOL0     C25021   7.198   7.465   6.792 -0.1571  1.4662 -1.3522
  186MOL0     O25022   6.877   7.297   6.813  0.1809  1.0888 -0.0273
  186MOL0     C25023   6.986   7.221   6.485 -0.8279  0.4752 -0.2884
  186MOL0     C25024   6.950   7.223   6.352  0.0526  0.5037 -0.1640
  186MOL0     N25025   7.158   7.663   5.837 -0.5125 -0.3070  0.1256
  186MOL0     N25026   7.096   7.776   5.822 -0.2457 -0.0811 -0.5161
  186MOL0     C25027   7.654   7.951   6.079  0.7026 -0.2554  0.7838
  186MOL0     C25028   7.625   7.896   5.955 -0.8509 -0.7517  0.6264
  186MOL0     C25029   7.503   7.587   5.657  0.1115 -1.2156  1.8243
  186MOL0     C25030   7.402   7.653   5.575 -0.4311  0.0891  0.2237
  186MOL0     C25031   7.389   7.609   5.447  0.6092 -0.5318 -0.2053
  186MOL0     C25032   7.459   7.505   5.401  0.0586 -0.5158  0.0222
  186MOL0     O25033   7.455   7.457   5.274  0.3356 -0.4932 -0.5674
  186MOL0     C25034   7.356   7.505   5.178 -0.2864  0.2571  0.3690
  186MOL0     C25035   7.361   7.431   5.042  0.1985 -0.6695  0.1336
  186MOL0     C25036   7.234   7.448   4.953  1.2163 -0.4227  0.6940
  186MOL0     C25037   7.255   7.421   4.803  0.0692  0.6738  0.1504
  186MOL0     C25038   7.319   7.537   4.731 -0.8689 -0.1088 -0.1706
  186MOL0     C25039   7.371   7.642   4.695 -0.0056  0.5301  0.2461
  186MOL0     C25040   7.556   7.441   5.469  0.0499 -0.9075 -0.9902
  186MOL0     C25041   7.587   7.483   5.597  0.1613 -0.2967  0.5868
  186MOL0     C25042   7.706   7.422   5.666  0.6480 -0.5553  0.2813
  186MOL0     H25043   7.345   7.720   6.032  1.8752 -2.2449 -1.3841
  186MOL0     H25044   7.400   7.808   6.257 -0.0443 -2.5354 -0.7512
  186MOL0     H25045   7.660   8.130   6.434 -1.0058  1.0903  0.4501
  186MOL0     H25046   7.751   8.100   6.288 -1.7627 -0.9825 -0.8309
  186MOL0     H25047   7.573   8.190   6.146  0.4992 -2.2139 -0.6958
  186MOL0     H25048   7.596   8.306   6.287 -3.8735  1.6733 -2.4538
  186MOL0     H25049   7.394   8.286   6.348 -1.3029 -1.7592  2.8973
  186MOL0     H25050   7.407   8.113   6.356 -0.0515  0.9730  0.1104
  186MOL0     H25051   7.322   8.324   6.153 -1.2879  0.2731  1.8642
  186MOL0     H25052   7.368   8.170   6.081 -0.3341  0.3537  0.1322
  186MOL0     H25053   7.182   8.109   6.290  1.1297 -0.5942 -0.2401
  186MOL0     H25054   7.110   8.238   6.183 -1.7002 -0.7739 -0.1372
  186MOL0     H25055   7.149   8.107   5.990 -2.7614  4.2324  2.0015
  186MOL0     H25056   7.192   7.950   6.085  0.4616 -0.1752 -0.4808
  186MOL0     H25057   6.937   8.092   6.115  1.4758  1.9235 -0.8825
  186MOL0     H25058   6.987   7.949   6.189 -2.1047  2.9783  2.1508
  186MOL0     H25059   6.843   7.898   5.960 -0.4623  3.9386 -1.5867
  186MOL0     H25060   6.966   7.991   5.879  0.9296 -0.8334  0.3969
  186MOL0     H25061   6.967   7.664   6.105  0.6613 -3.0419  0.0068
  186MOL0     H25062   7.224   7.419   5.907 -2.2007  1.7275 -4.0909
  186MOL0     H25063   7.193   7.452   6.076 -1.5186 -2.4335 -0.1260
  186MOL0     H25064   6.985   7.368   5.858  1.2019 -1.5702  0.2177
  186MOL0     H25065   7.080   7.261   5.956 -0.1604 -0.2457  0.8136
  186MOL0     H25066   6.863   7.437   6.051  1.2005  0.9734 -1.8130
  186MOL0     H25067   6.988   7.378   6.166 -0.2915 -2.2978  0.9840
  186MOL0     H25068   6.922   7.154   6.093 -0.2062 -0.2776 -1.0649
  186MOL0     H25069   6.794   7.226   5.991 -1.9219 -2.8175  2.1323
  186MOL0     H25070   6.626   7.291   6.388 -2.8275 -3.0996  3.1933
  186MOL0     H25071   6.722   7.321   6.648  0.1073  2.1027  0.4285
  186MOL0     H25072   7.113   7.217   7.002  0.5958 -0.2745 -0.3078
  186MOL0     H25073   7.190   7.371   7.160 -1.7119 -0.6192 -0.7353
  186MOL0     H25074   7.401   7.771   7.013 -1.2953  1.7968 -4.2318
  186MOL0     H25075   7.235   7.828   7.057  0.9442 -0.7426 -1.4810
  186MOL0     H25076   7.473   7.777   7.240 -1.4051 -1.3690  0.2804
  186MOL0     H25077   7.432   7.934   7.167  1.8584 -1.7812 -1.5175
  186MOL0     H25078   7.221   7.932   7.276  0.3902 -0.6601 -1.0417
  186MOL0     H25079   7.263   7.770   7.346 -0.2331 -2.1542 -3.8625
  186MOL0     H25080   7.376   8.046   7.415 -1.2540  1.7046  2.2061
  186MOL0     H25081   7.454   7.898   7.462  0.1291 -0.5150  1.0983
  186MOL0     H25082   7.302   8.004   7.643 -1.9693 -0.2295  1.3098
  186MOL0     H25083   7.246   7.844   7.604 -2.7491  0.6404  0.5017
  186MOL0     H25084   7.134   8.099   7.478  1.1704  0.6572  0.6328
  186MOL0     H25085   7.053   7.944   7.472  0.7958 -2.4994  0.7819
  186MOL0     H25086   7.123   8.138   7.698 -1.0234  2.5530 -2.3263
  186MOL0     H25087   7.064   7.975   7.738  0.5137 -1.7580 -1.3019
  186MOL0     H25088   6.849   8.047   7.610 -1.4802  0.8215  0.7859
  186MOL0     H25089   6.881   8.161   7.743  1.6052 -0.0740  0.6273
  186MOL0     H25090   7.293   7.641   6.841 -3.1261  2.3363  0.8542
  186MOL0     H25091   7.195   7.480   6.685  1.0952  2.0692 -1.3170
  186MOL0     H25092   7.088   7.189   6.506 -1.9403 -1.7973  2.3756
  186MOL0     H25093   7.026   7.193   6.282  0.5796 -1.5298  1.1951
  186MOL0     H25094   7.744   8.010   6.067 -0.3142  1.6182  1.7770
  186MOL0     H25095   7.667   7.936   5.864 -2.6607  1.3756  0.6416
  186MOL0     H25096   7.340   7.736   5.607  1.7585  2.8204 -2.1032
  186MOL0     H25097   7.323   7.658   5.376  0.6114 -0.1600  0.0486
  186MOL0     H25098   7.379   7.607   5.148  1.4831 -0.3329 -0.4580
  186MOL0     H25099   7.256   7.495   5.221 -1.3662  0.9429 -1.8331
  186MOL0     H25100   7.382   7.324   5.046  1.3660 -0.5203 -1.3121
  186MOL0     H25101   7.443   7.477   4.986 -0.5271 -1.6991 -1.9070
  186MOL0     H25102   7.180   7.541   4.973  2.0582  0.2596 -0.1411
  186MOL0     H25103   7.167   7.380   5.006 -1.5646  1.0804 -0.6518
  186MOL0     H25104   7.302   7.324   4.785  0.1227  0.5391  0.9798
  186MOL0     H25105   7.156   7.414   4.755 -0.4010 -0.9803  1.2581
  186MOL0     H25106   7.422   7.730   4.661 -2.9496  1.0205 -3.4315
  186MOL0     H25107   7.608   7.355   5.428  1.7083 -0.8720  0.8553
  186MOL0     H25108   7.778   7.498   5.699  0.4369 -1.0981  2.0802
  186MOL0     H25109   7.664   7.369   5.751  1.1367 -1.5467 -0.0853
  186MOL0     H25110   7.761   7.354   5.600 -0.6252 -1.4246  0.0884
  187MOL0     O25111   8.352   6.723  10.411 -1.0516 -0.9043 -0.6572
  187MOL0     C25112   8.312   6.691  10.302 -0.2133  0.8339 -0.1066
  187MOL0     O25113   8.373   6.723  10.185 -0.9636 -0.9361  0.0358
  187MOL0     C25114   8.494   6.797  10.181  0.1416 -0.3617  0.1919
  187MOL0     C25115   8.603   6.757  10.114  0.2273 -1.0938  0.0575
  187MOL0     C25116   8.723   6.833  10.116  0.0421 -0.6494  0.2201
  187MOL0     C25117   8.729   6.950  10.190 -0.5482 -0.6606 -0.4292
  187MOL0     O25118   8.845   7.030  10.197 -0.1179  0.5294  0.6476
  187MOL0     C25119   8.957   7.005  10.109  0.1116 -0.3788 -0.0328
  187MOL0     C25120   9.072   7.101  10.165  0.1697 -0.1136 -0.0198
  187MOL0     C25121   9.200   7.061  10.087 -0.6370  0.4363  0.2110
  187MOL0     C25122   9.319   7.140  10.136  0.2822  0.7085  0.6314
  187MOL0     C25123   9.450   7.072  10.101  0.1401 -0.9565 -0.3796
  187MOL0     C25124   9.564   7.137  10.182  0.6242 -0.7693  0.7299
  187MOL0     C25125   9.705   7.149  10.101 -0.2289 -0.3423 -0.4725
  187MOL0     C25126   9.784   7.271  10.153  1.4075 -0.3734  0.3921
  187MOL0     N25127   9.921   7.274  10.096 -0.6511  0.0105 -0.2976
  187MOL0     C25128  10.036   7.228  10.160  0.5384 -0.2485  0.3834
  187MOL0     C25129  10.127   7.248  10.064  0.1758 -0.0448  0.2484
  187MOL0     C25130  10.274   7.227  10.079 -0.1170 -0.5876 -0.6306
  187MOL0     C25131  10.351   7.355  10.033  0.5521  0.4047 -0.5007
  187MOL0     C25132  10.493   7.304  10.011 -0.8030  0.1410 -0.0055
  187MOL0     C25133  10.594   7.402  10.070  0.0488  0.3628 -0.8227
  187MOL0     O25134  10.724   7.363  10.032 -0.4499  0.0561  0.4253
  187MOL0     C25135  10.835   7.439  10.077  0.4507  0.4247  0.3337
  187MOL0     C25136  10.928   7.373  10.160  0.1586 -0.0684  0.2784
  187MOL0     C25137  11.033   7.453  10.223  0.7175  1.8566 -0.2931
  187MOL0     C25138  11.030   7.592  10.201 -0.8789 -0.1177  0.2824
  187MOL0     C25139  11.145   7.673  10.255 -0.0961 -0.1591  0.3176
  187MOL0     O25140  11.239   7.604  10.324  0.1851  0.5737  0.3302
  187MOL0     C25141  11.356   7.674  10.351  0.2083  1.0016 -0.8561
  187MOL0     C25142  11.398   7.707  10.483  0.5189 -0.7046  0.5857
  187MOL0     C25143  11.524   7.763  10.504  0.2238 -0.7685 -0.2096
  187MOL0     C25144  11.608   7.797  10.401  0.2196  0.3535  0.1911
  187MOL0     O25145  11.732   7.849  10.414 -0.5962 -0.5505 -1.1321
  187MOL0     C25146  11.825   7.768  10.484 -0.1533 -0.5091 -0.1446
  187MOL0     C25147  11.897   7.837  10.599  0.5432 -1.2062 -0.8479
  187MOL0     C25148  12.021   7.759  10.632 -0.2346  0.4204 -0.9128
  187MOL0     C25149  12.120   7.849  10.702  1.3512  0.6304 -1.0909
  187MOL0     C25150  12.239   7.771  10.760  0.2060  0.0628  0.3455
  187MOL0     C25151  12.316   7.859  10.853 -0.0435 -0.7686 -0.5867
  187MOL0     C25152  12.412   7.944  10.769  0.7217  0.3287 -0.8136
  187MOL0     C25153  12.502   8.034  10.846  0.5146  1.0880 -0.0885
  187MOL0    Cl25154  12.607   7.942  10.952  0.2629  0.1080 -0.1250
  187MOL0     C25155  11.572   7.762  10.268  0.5363 -1.0009 -0.0032
  187MOL0     C25156  11.452   7.693  10.245 -0.0651 -0.7782 -0.1021
  187MOL0     O25157  11.152   7.793  10.216 -0.6041 -0.3339  0.1242
  187MOL0     C25158  10.937   7.642  10.108  0.1475 -0.7968  0.9124
  187MOL0     C25159  10.845   7.565  10.041  0.3577 -0.6275 -1.3452
  187MOL0     N25160  10.074   7.304   9.948 -0.5107  0.1297 -0.8279
  187MOL0     N25161   9.954   7.318   9.971  0.8118  0.1839  0.1045
  187MOL0     C25162   8.616   6.991  10.265 -0.7771 -0.6372  0.5521
  187MOL0     C25163   8.499   6.911  10.262  1.0428 -0.4182  0.5285
  187MOL0     C25164   8.181   6.623  10.301  0.0930  0.2221  0.3832
  187MOL0     C25165   8.105   6.617  10.408  0.0771 -0.5194 -0.3200
  187MOL0     C25166   7.974   6.555  10.406 -0.7342 -1.0595 -0.9053
  187MOL0     C25167   7.918   6.513  10.291  0.0230 -0.3060  0.5329
  187MOL0     O25168   7.788   6.482  10.287  0.3535 -0.1250 -0.7695
  187MOL0     C25169   7.694   6.527  10.184 -0.3503 -0.3864  0.4747
  187MOL0     C25170   7.548   6.517  10.225  0.7262 -0.3734 -0.6113
  187MOL0     C25171   7.456   6.617  10.149 -0.5307  0.2477  1.0057
  187MOL0     C25172   7.458   6.747  10.222 -0.2825  0.6429  0.7665
  187MOL0     C25173   7.563   6.838  10.177 -0.8448  0.5711 -0.1266
  187MOL0     C25174   7.639   6.930  10.158  0.2688  0.0359 -0.1818
  187MOL0     C25175   7.996   6.528  10.176  0.2426 -0.1065 -0.1955
  187MOL0     C25176   8.123   6.585  10.177 -0.8838 -0.3780  0.0680
  187MOL0     C25177   8.202   6.578  10.045 -0.6714  0.3542  0.8977
  187MOL0     H25178   8.604   6.659  10.068 -3.3482 -1.4841  0.4919
  187MOL0     H25179   8.800   6.808  10.043 -0.8358 -1.8367 -0.3389
  187MOL0     H25180   8.992   6.902  10.119  0.7983 -0.2320 -0.8507
  187MOL0     H25181   8.935   7.019  10.003  0.9841 -2.8573 -0.5909
  187MOL0     H25182   9.090   7.086  10.272 -2.8339  0.8904  0.7160
  187MOL0     H25183   9.042   7.204  10.142  3.0267  1.1091  1.2808
  187MOL0     H25184   9.195   7.078   9.979  3.9769  0.3062 -0.2294
  187MOL0     H25185   9.219   6.956  10.106  1.6848  1.0905  1.8916
  187MOL0     H25186   9.317   7.236  10.083  3.0718  0.7566  0.4148
  187MOL0     H25187   9.317   7.165  10.242 -3.7774 -1.1420  1.1836
  187MOL0     H25188   9.451   6.964  10.118  0.9451 -0.9194 -0.1206
  187MOL0     H25189   9.463   7.089   9.994  0.0224  1.7061 -0.0319
  187MOL0     H25190   9.528   7.234  10.216 -0.0564 -0.5400 -0.5766
  187MOL0     H25191   9.572   7.067  10.266  1.3071 -2.3576 -0.5843
  187MOL0     H25192   9.693   7.164   9.993 -1.3444 -1.4557 -0.5310
  187MOL0     H25193   9.758   7.054  10.116  0.0705  0.2453  2.8276
  187MOL0     H25194   9.739   7.361  10.111 -0.2013 -1.9585 -1.4554
  187MOL0     H25195   9.784   7.273  10.263  2.3089  4.0315  0.4902
  187MOL0     H25196  10.039   7.180  10.257 -1.7069 -1.5395 -0.1141
  187MOL0     H25197  10.301   7.193  10.180  2.0840 -1.2221 -1.3604
  187MOL0     H25198  10.301   7.141  10.017  0.5456  0.3589 -1.7004
  187MOL0     H25199  10.319   7.394   9.936  0.9167  2.3298  0.1097
  187MOL0     H25200  10.344   7.434  10.108 -0.2226 -2.3473  2.5807
  187MOL0     H25201  10.522   7.300   9.905 -1.3607  1.1079 -0.2047
  187MOL0     H25202  10.511   7.208  10.062  0.1124  2.2540  4.1035
  187MOL0     H25203  10.594   7.425  10.177  0.3253 -0.3243 -0.6758
  187MOL0     H25204  10.573   7.502  10.031  0.2388  0.6809 -0.1314
  187MOL0     H25205  10.907   7.270  10.187 -1.0321  0.6057  2.1865
  187MOL0     H25206  11.112   7.406  10.281 -0.2804 -0.1748 -0.4929
  187MOL0     H25207  11.336   7.679  10.567  0.6959 -0.6133  0.7462
  187MOL0     H25208  11.544   7.782  10.609  0.7639  0.7904 -0.5762
  187MOL0     H25209  11.794   7.667  10.512  0.2589 -1.6751 -3.4767
  187MOL0     H25210  11.901   7.751  10.408 -1.4983  1.6037 -2.0842
  187MOL0     H25211  11.915   7.943  10.579 -1.3119 -0.8333 -0.7576
  187MOL0     H25212  11.829   7.836  10.685  0.7077 -2.9949 -0.6939
  187MOL0     H25213  12.007   7.675  10.702  2.5655  0.2111 -0.5136
  187MOL0     H25214  12.063   7.713  10.542 -0.5661 -1.6054 -0.1005
  187MOL0     H25215  12.085   7.900  10.793  1.6127 -1.8388  0.4957
  187MOL0     H25216  12.153   7.920  10.626 -0.1064  3.4386  0.7202
  187MOL0     H25217  12.308   7.742  10.681 -0.8325 -0.3008 -0.4556
  187MOL0     H25218  12.197   7.683  10.811 -1.6924  2.0259  2.3699
  187MOL0     H25219  12.246   7.914  10.917 -0.6624 -0.3845 -1.5842
  187MOL0     H25220  12.389   7.800  10.909  1.7116  2.1414  0.3980
  187MOL0     H25221  12.355   8.012  10.704 -1.5078 -0.2446  0.4548
  187MOL0     H25222  12.480   7.888  10.703  0.2216 -0.3986 -0.7192
  187MOL0     H25223  12.566   8.096  10.783  0.6418  2.4255  1.2854
  187MOL0     H25224  12.454   8.113  10.905 -1.5073  1.5015 -2.1462
  187MOL0     H25225  11.641   7.792  10.190  3.5753  2.0691  3.4508
  187MOL0     H25226  11.427   7.663  10.143  1.4071  0.2824 -0.8125
  187MOL0     H25227  10.950   7.749  10.091  1.3639 -0.8936  1.1420
  187MOL0     H25228  10.772   7.618   9.981 -2.4367  1.2219  3.1088
  187MOL0     H25229   8.637   7.088  10.309  0.4510 -0.5576 -0.1510
  187MOL0     H25230   8.419   6.964  10.312  1.9719  0.0244  1.5861
  187MOL0     H25231   8.151   6.655  10.499 -1.4011 -3.2841  1.7403
  187MOL0     H25232   7.922   6.553  10.502  1.8480 -1.6091  0.5613
  187MOL0     H25233   7.708   6.470  10.092  0.6610  1.7973 -0.8045
  187MOL0     H25234   7.707   6.630  10.150 -1.1430 -1.3289 -3.1068
  187MOL0     H25235   7.539   6.542  10.331 -1.8468  1.7113 -1.2233
  187MOL0     H25236   7.500   6.421  10.207  0.4576 -0.2460 -0.5809
  187MOL0     H25237   7.358   6.568  10.158  0.4016 -1.7093  1.0897
  187MOL0     H25238   7.480   6.626  10.042 -1.2326 -1.4053  0.6662
  187MOL0     H25239   7.371   6.802  10.183 -0.9455 -1.2896 -0.6402
  187MOL0     H25240   7.460   6.747  10.331 -0.1855  1.3637  0.7676
  187MOL0     H25241   7.705   7.011  10.136  2.2341 -1.3301  0.4244
  187MOL0     H25242   7.947   6.507  10.081 -0.4690 -0.9751  0.3451
  187MOL0     H25243   8.301   6.535  10.063 -0.2392  0.5717 -0.8384
  187MOL0     H25244   8.145   6.518   9.974  1.2903 -2.1478  1.3118
  187MOL0     H25245   8.219   6.680  10.010  3.3247 -0.6943 -0.6911
  188MOL0     O25246   9.362   8.053   9.101 -0.0048  0.5759 -0.2268
  188MOL0     C25247   9.358   8.108   8.989 -0.3833 -0.4611  0.5171
  188MOL0     O25248   9.419   8.063   8.882 -0.2477 -0.8052  0.0839
  188MOL0     C25249   9.490   7.944   8.884  0.5752  0.3888 -0.4755
  188MOL0     C25250   9.610   7.954   8.812 -0.6928  0.2188 -0.8212
  188MOL0     C25251   9.680   7.830   8.791 -1.2264  0.6593  0.3943
  188MOL0     C25252   9.634   7.715   8.845  0.2822 -0.5512 -0.2103
  188MOL0     O25253   9.678   7.590   8.805  0.2671  0.6620  0.1652
  188MOL0     C25254   9.697   7.571   8.656  0.2902 -0.8384 -0.7691
  188MOL0     C25255   9.747   7.432   8.622  0.9923  0.0582 -0.4844
  188MOL0     C25256   9.888   7.409   8.677 -0.0935  0.1461  0.2399
  188MOL0     C25257   9.921   7.257   8.651  0.8515 -0.4155  0.5052
  188MOL0     C25258  10.068   7.237   8.645 -0.4187 -0.0627  0.4481
  188MOL0     C25259  10.158   7.289   8.764  0.6507  0.2678 -0.2611
  188MOL0     C25260  10.128   7.220   8.899  0.4183 -0.3413 -0.3914
  188MOL0     C25261  10.249   7.228   8.989 -0.4781  0.2602 -0.5725
  188MOL0     N25262  10.286   7.363   9.035  0.1012 -0.1026  1.0470
  188MOL0     C25263  10.342   7.461   8.959 -0.5643  0.2798 -0.4218
  188MOL0     C25264  10.404   7.549   9.036 -0.1777  0.0813 -0.2195
  188MOL0     C25265  10.471   7.676   9.006 -1.3072  0.4809 -0.0695
  188MOL0     C25266  10.409   7.795   9.073  0.7014  0.0944 -0.4315
  188MOL0     C25267  10.410   7.822   9.217  0.0697 -0.6775 -0.5573
  188MOL0     C25268  10.546   7.800   9.275  0.2368  0.2746 -0.8276
  188MOL0     O25269  10.657   7.858   9.213 -0.5777  0.4285  0.5639
  188MOL0     C25270  10.695   7.979   9.247  0.6575  0.0275 -0.1079
  188MOL0     C25271  10.613   8.090   9.240  0.8164 -0.7660  0.3841
  188MOL0     C25272  10.661   8.215   9.280 -0.2401  0.1744  0.0288
  188MOL0     C25273  10.792   8.229   9.329 -0.0660 -0.4769 -0.6607
  188MOL0     C25274  10.848   8.362   9.376 -1.0268 -0.3125  0.3123
  188MOL0     O25275  10.767   8.477   9.368 -0.6082 -0.2748  0.0835
  188MOL0     C25276  10.826   8.601   9.394  0.4273 -0.3485  0.2520
  188MOL0     C25277  10.906   8.671   9.303  1.0440 -0.2768 -0.1113
  188MOL0     C25278  10.951   8.800   9.330 -0.2925 -0.0876  0.9071
  188MOL0     C25279  10.922   8.856   9.460  1.1514  0.1895  0.6511
  188MOL0     O25280  10.967   8.970   9.518 -0.5904  0.1209 -0.5171
  188MOL0     C25281  10.909   9.082   9.448  0.6058 -0.1095 -0.0803
  188MOL0     C25282  10.941   9.208   9.515  0.2837 -0.4955  0.0722
  188MOL0     C25283  10.863   9.328   9.446 -0.2178 -0.4481  0.5679
  188MOL0     C25284  10.720   9.329   9.480  0.8508 -0.4247  1.0194
  188MOL0     C25285  10.650   9.453   9.419 -0.3156 -0.5319 -0.3723
  188MOL0     C25286  10.518   9.467   9.492 -0.6530 -0.7458  0.1253
  188MOL0     C25287  10.521   9.536   9.630 -0.9191  0.6253 -0.1825
  188MOL0     C25288  10.389   9.541   9.706 -0.7326 -0.3639  0.5768
  188MOL0    Cl25289  10.290   9.645   9.596  0.3101 -0.2124  0.1005
  188MOL0     C25290  10.840   8.788   9.546 -0.3067 -0.3710 -0.3573
  188MOL0     C25291  10.800   8.665   9.516  0.2921  0.3815 -1.0261
  188MOL0     O25292  10.967   8.353   9.402 -0.0869 -0.6718 -0.0316
  188MOL0     C25293  10.875   8.112   9.338  0.2378  0.0663  0.3144
  188MOL0     C25294  10.822   7.988   9.296  1.0313  0.2190 -0.1641
  188MOL0     N25295  10.375   7.515   9.165  0.1723 -0.5680 -0.6347
  188MOL0     N25296  10.298   7.410   9.160 -0.3219 -0.3631 -0.5371
  188MOL0     C25297   9.512   7.703   8.905  0.1247 -0.2688  0.6378
  188MOL0     C25298   9.440   7.818   8.930 -0.1202 -0.6623 -0.2405
  188MOL0     C25299   9.283   8.231   8.973 -0.3465 -0.1396  0.1125
  188MOL0     C25300   9.231   8.259   8.851  0.2198 -0.3166  0.2089
  188MOL0     C25301   9.141   8.364   8.827 -0.8300  0.2871 -0.9118
  188MOL0     C25302   9.116   8.453   8.933  0.9575 -0.3655  0.3560
  188MOL0     O25303   9.026   8.571   8.925  0.3947  0.4585 -0.1064
  188MOL0     C25304   8.947   8.602   8.807 -0.5965  0.1456  0.4641
  188MOL0     C25305   8.819   8.513   8.808  0.8113 -0.3804  0.8065
  188MOL0     C25306   8.693   8.588   8.866 -0.0714  0.5204 -0.5454
  188MOL0     C25307   8.566   8.502   8.840 -0.1365 -0.0703 -0.1194
  188MOL0     C25308   8.466   8.579   8.918  0.2510  0.2798  0.8302
  188MOL0     C25309   8.380   8.646   8.962  0.4711 -0.7299  0.6883
  188MOL0     C25310   9.176   8.432   9.057  1.1807 -1.0476 -0.8528
  188MOL0     C25311   9.258   8.325   9.078  0.6360  0.7619  0.0524
  188MOL0     C25312   9.303   8.301   9.219 -0.2164 -0.0690 -0.6941
  188MOL0     H25313   9.655   8.048   8.781  0.0907  0.2760  0.4272
  188MOL0     H25314   9.771   7.823   8.732 -0.9894  4.9472 -0.0858
  188MOL0     H25315   9.606   7.601   8.605  1.2512  2.0792 -0.9140
  188MOL0     H25316   9.774   7.642   8.624  0.9056 -1.1122  0.0445
  188MOL0     H25317   9.741   7.420   8.513 -1.3171  2.7238 -0.7709
  188MOL0     H25318   9.679   7.367   8.677 -0.5293  0.6967 -1.5501
  188MOL0     H25319   9.889   7.429   8.785  0.7525  0.0744  0.2537
  188MOL0     H25320   9.958   7.478   8.630 -0.6526  1.2706  1.0212
  188MOL0     H25321   9.877   7.191   8.725  2.0225  0.1898  1.7889
  188MOL0     H25322   9.878   7.245   8.551 -2.9848 -2.9475  2.2216
  188MOL0     H25323  10.102   7.136   8.619  4.9576  1.9003 -1.6600
  188MOL0     H25324  10.107   7.290   8.558  0.4699  0.6361  1.2523
  188MOL0     H25325  10.263   7.283   8.735  0.7501  2.3761 -0.5292
  188MOL0     H25326  10.128   7.394   8.775 -0.9765 -0.1123 -0.7505
  188MOL0     H25327  10.099   7.116   8.885 -0.4476  0.0504 -1.7608
  188MOL0     H25328  10.045   7.275   8.945  1.3667  0.5514  0.2931
  188MOL0     H25329  10.226   7.172   9.080 -2.4870  0.7458 -0.7250
  188MOL0     H25330  10.331   7.173   8.942 -0.5256 -0.4933  0.2060
  188MOL0     H25331  10.348   7.466   8.851  0.9167  1.7093 -0.3117
  188MOL0     H25332  10.574   7.660   9.039 -1.0646 -2.4349 -1.8241
  188MOL0     H25333  10.484   7.692   8.898 -0.6962 -1.1628 -0.2663
  188MOL0     H25334  10.459   7.880   9.025  1.6826  1.4813  2.7570
  188MOL0     H25335  10.303   7.802   9.047  0.8726 -0.2566 -1.2438
  188MOL0     H25336  10.343   7.753   9.268  1.1052  0.2110  2.1849
  188MOL0     H25337  10.367   7.922   9.229 -0.0491 -0.6893 -0.8920
  188MOL0     H25338  10.560   7.692   9.286  0.8480  0.4772  0.5451
  188MOL0     H25339  10.532   7.845   9.374 -1.0027 -0.3083 -0.7130
  188MOL0     H25340  10.514   8.090   9.196  2.3984  0.3174 -3.6241
  188MOL0     H25341  10.597   8.299   9.305  3.0232  2.0096  3.0065
  188MOL0     H25342  10.923   8.637   9.201 -3.1010  0.3416 -1.1971
  188MOL0     H25343  11.013   8.851   9.257 -1.5067 -2.9211 -2.3403
  188MOL0     H25344  10.945   9.085   9.344  0.9892 -0.0108  0.0543
  188MOL0     H25345  10.801   9.066   9.443  0.5904  0.2196 -1.4532
  188MOL0     H25346  10.908   9.218   9.619 -1.3708  2.3682 -0.6214
  188MOL0     H25347  11.046   9.234   9.501 -0.4336  1.2174 -3.3137
  188MOL0     H25348  10.920   9.420   9.463  2.1771 -0.8588 -3.7798
  188MOL0     H25349  10.869   9.335   9.337  0.8150  1.3462  0.6975
  188MOL0     H25350  10.721   9.332   9.589 -3.3918 -1.8349  1.2948
  188MOL0     H25351  10.665   9.240   9.449  1.2911  1.0516 -5.2444
  188MOL0     H25352  10.625   9.429   9.315  0.9968 -1.4640 -0.5095
  188MOL0     H25353  10.712   9.543   9.419 -0.3174 -0.5221  0.7615
  188MOL0     H25354  10.465   9.532   9.422  2.4237  1.7481 -0.0863
  188MOL0     H25355  10.471   9.368   9.493 -1.8058 -0.3174 -2.8133
  188MOL0     H25356  10.558   9.638   9.622 -1.5440  1.4574  4.3867
  188MOL0     H25357  10.597   9.483   9.688  0.0451  0.6240 -1.4251
  188MOL0     H25358  10.342   9.443   9.714 -2.7982  0.6644  1.7495
  188MOL0     H25359  10.402   9.587   9.804  0.9212 -2.8557  1.6247
  188MOL0     H25360  10.810   8.832   9.641 -0.1435 -0.0902 -0.4360
  188MOL0     H25361  10.772   8.605   9.602  1.9504  1.4761  0.3482
  188MOL0     H25362  10.978   8.113   9.371 -0.5453 -0.8786  3.1521
  188MOL0     H25363  10.883   7.899   9.297  1.0647  0.1615  3.1143
  188MOL0     H25364   9.470   7.609   8.941  4.2654 -2.5550  0.1099
  188MOL0     H25365   9.352   7.816   8.994  1.0913  1.7750  1.6872
  188MOL0     H25366   9.250   8.184   8.775 -2.1596 -0.0781 -0.7078
  188MOL0     H25367   9.094   8.364   8.729  0.1249 -1.6561 -1.4107
  188MOL0     H25368   9.011   8.592   8.719  0.0568  1.0649  0.8201
  188MOL0     H25369   8.923   8.708   8.818 -4.8587 -0.6400  0.7814
  188MOL0     H25370   8.849   8.417   8.849  2.9394 -0.2449 -0.2764
  188MOL0     H25371   8.797   8.488   8.704 -1.0856 -2.3482  1.6247
  188MOL0     H25372   8.698   8.690   8.826  1.1383  1.4732  1.8203
  188MOL0     H25373   8.701   8.603   8.974 -2.3753 -2.7769  0.2422
  188MOL0     H25374   8.543   8.508   8.733 -0.0527  2.0892 -0.0576
  188MOL0     H25375   8.576   8.396   8.865  1.8762 -0.7540 -3.3228
  188MOL0     H25376   8.302   8.709   9.000 -0.5721 -1.4980 -0.1409
  188MOL0     H25377   9.155   8.508   9.132 -1.7686 -0.7203 -1.8662
  188MOL0     H25378   9.306   8.399   9.268  3.3104  0.3075 -1.3776
  188MOL0     H25379   9.228   8.247   9.279  0.4843 -0.0255  0.2423
  188MOL0     H25380   9.404   8.265   9.242  0.3266  2.7115  1.9031
  189MOL0     O25381   8.591   2.598   0.977  0.2280 -0.0734  0.7603
  189MOL0     C25382   8.534   2.660   0.889 -0.5410  0.3701 -0.6866
  189MOL0     O25383   8.592   2.694   0.776  0.1908  0.2025  0.2214
  189MOL0     C25384   8.720   2.648   0.746  0.1586 -0.6129  1.2666
  189MOL0     C25385   8.755   2.517   0.757 -0.7719  0.2713  0.7445
  189MOL0     C25386   8.890   2.479   0.728 -0.5247  0.0922 -0.7749
  189MOL0     C25387   8.992   2.576   0.709 -0.8116 -0.2242 -0.2635
  189MOL0     O25388   9.130   2.541   0.702  0.2025  0.3924 -0.1380
  189MOL0     C25389   9.234   2.629   0.675 -1.1059 -1.0056 -0.2455
  189MOL0     C25390   9.362   2.549   0.667  0.2234 -0.5909  0.0909
  189MOL0     C25391   9.488   2.615   0.723  0.3422  0.4673  0.9193
  189MOL0     C25392   9.518   2.753   0.667  1.2122  0.3765 -0.5086
  189MOL0     C25393   9.653   2.816   0.699 -1.2977  0.1938  0.1429
  189MOL0     C25394   9.673   2.957   0.650 -0.2294  0.6832 -0.6180
  189MOL0     C25395   9.810   3.018   0.677  0.4112  0.1158 -0.1134
  189MOL0     C25396   9.922   2.962   0.593 -1.1473  0.4756  0.3875
  189MOL0     N25397  10.048   3.034   0.608  0.3359  0.1777  0.3360
  189MOL0     C25398  10.148   2.993   0.692  0.1631 -1.0418  0.5534
  189MOL0     C25399  10.240   3.083   0.658 -0.5976  0.1683 -0.8906
  189MOL0     C25400  10.368   3.114   0.727 -0.3297 -0.4969  0.0539
  189MOL0     C25401  10.461   2.993   0.708 -0.1547 -1.2400 -0.7010
  189MOL0     C25402  10.563   2.974   0.829  0.4069  0.1537  0.0813
  189MOL0     C25403  10.672   3.076   0.827  0.0247 -0.3001  0.3504
  189MOL0     O25404  10.730   3.101   0.696  1.1211 -0.8335 -0.4666
  189MOL0     C25405  10.754   3.238   0.684  0.6325  0.1675  0.8448
  189MOL0     C25406  10.795   3.318   0.789 -0.2710 -0.4297 -1.0549
  189MOL0     C25407  10.802   3.453   0.758  0.2103  0.1114 -0.4034
  189MOL0     C25408  10.775   3.502   0.631  0.8435 -0.2365 -0.1718
  189MOL0     C25409  10.779   3.645   0.606  0.0095  0.7446  0.0530
  189MOL0     O25410  10.775   3.675   0.477  1.0690  0.9663 -0.5748
  189MOL0     C25411  10.816   3.798   0.425  0.1417 -0.8121 -0.5726
  189MOL0     C25412  10.895   3.799   0.309  0.5130  0.6666 -0.0011
  189MOL0     C25413  10.935   3.921   0.261  1.1887  0.6591  0.7251
  189MOL0     C25414  10.901   4.040   0.320  0.1430 -1.1341 -0.8520
  189MOL0     O25415  10.930   4.168   0.274  0.3756  0.4616 -0.7571
  189MOL0     C25416  11.026   4.188   0.165  0.1344 -0.2059 -0.1180
  189MOL0     C25417  11.107   4.312   0.176 -0.2243  0.5891 -0.6248
  189MOL0     C25418  11.001   4.433   0.169  0.2036  0.3848 -1.0018
  189MOL0     C25419  11.081   4.565   0.196  0.2265  0.7924 -1.1342
  189MOL0     C25420  11.010   4.696   0.163  0.9581  0.0545  0.7666
  189MOL0     C25421  11.082   4.819   0.205  0.3901  0.2951  0.4866
  189MOL0     C25422  10.990   4.935   0.250  0.2759  0.0158  0.4925
  189MOL0     C25423  11.061   5.065   0.218  0.2943 -0.3153 -0.6093
  189MOL0    Cl25424  11.185   5.095   0.340  0.0091 -0.2016  0.0979
  189MOL0     C25425  10.823   4.036   0.430 -0.4314  0.4405 -0.4453
  189MOL0     C25426  10.777   3.924   0.486  0.0629  0.4799  0.0735
  189MOL0     O25427  10.802   3.725   0.696  0.2742 -0.7061 -0.1708
  189MOL0     C25428  10.727   3.416   0.528 -1.3497 -0.6384  0.6934
  189MOL0     C25429  10.732   3.283   0.554  0.2084  0.7521 -0.5416
  189MOL0     N25430  10.190   3.173   0.559 -0.0676 -0.5712  0.2156
  189MOL0     N25431  10.077   3.130   0.524 -0.4975 -0.3915  1.0228
  189MOL0     C25432   8.951   2.705   0.705  0.6188  0.1368  0.4691
  189MOL0     C25433   8.816   2.747   0.724  0.0271  0.1424  0.2612
  189MOL0     C25434   8.386   2.681   0.908  0.2736 -0.4988 -0.1303
  189MOL0     C25435   8.316   2.685   0.785  0.3999 -0.3493 -0.0728
  189MOL0     C25436   8.182   2.707   0.793  1.3721 -0.5059 -0.7793
  189MOL0     C25437   8.110   2.729   0.905 -0.4642  0.2565  0.8716
  189MOL0     O25438   7.978   2.730   0.886 -0.0194 -0.1447 -0.1987
  189MOL0     C25439   7.893   2.757   0.998 -0.7075  0.2391  0.1850
  189MOL0     C25440   7.748   2.732   0.935 -0.1315  0.1572 -0.8369
  189MOL0     C25441   7.718   2.854   0.852 -0.2687 -0.1337 -0.0916
  189MOL0     C25442   7.587   2.852   0.783  0.3650  0.1939 -0.0420
  189MOL0     C25443   7.474   2.860   0.876  0.7029  0.2725 -0.1947
  189MOL0     C25444   7.380   2.864   0.952 -0.4841  0.2741 -0.2875
  189MOL0     C25445   8.175   2.741   1.026  0.6258 -0.4585  0.5274
  189MOL0     C25446   8.312   2.717   1.028  0.8198 -0.8316  0.9587
  189MOL0     C25447   8.374   2.739   1.160 -0.6571 -0.0503  0.0542
  189MOL0     H25448   8.679   2.440   0.765 -1.1619  0.7100  1.3720
  189MOL0     H25449   8.923   2.375   0.729  2.0434  0.8166 -1.2435
  189MOL0     H25450   9.211   2.676   0.579  0.6516 -0.5272 -0.4676
  189MOL0     H25451   9.231   2.712   0.747  3.0264 -0.4177 -0.4752
  189MOL0     H25452   9.373   2.524   0.561  0.2976  0.6586 -0.2068
  189MOL0     H25453   9.338   2.470   0.739 -1.9369  2.2350  2.7717
  189MOL0     H25454   9.568   2.547   0.693  0.3022  0.4664  0.8140
  189MOL0     H25455   9.491   2.620   0.832 -1.3023  2.5737  0.9403
  189MOL0     H25456   9.500   2.743   0.559 -2.4943 -0.6522  0.0666
  189MOL0     H25457   9.446   2.823   0.710  3.4930  2.8740 -0.4584
  189MOL0     H25458   9.666   2.790   0.804  2.1455 -0.0820 -0.2451
  189MOL0     H25459   9.725   2.757   0.643  0.1898  2.6023 -0.6378
  189MOL0     H25460   9.642   2.971   0.547 -1.2571  3.6318 -0.0109
  189MOL0     H25461   9.611   3.016   0.719  1.2896 -0.6049  2.0279
  189MOL0     H25462   9.830   3.016   0.785  1.6289 -1.6927 -0.3340
  189MOL0     H25463   9.799   3.126   0.661  0.1084  0.2627  0.9955
  189MOL0     H25464   9.948   2.862   0.627  2.1533  0.9107 -0.5346
  189MOL0     H25465   9.887   2.961   0.489 -2.0928  1.2871  0.6802
  189MOL0     H25466  10.152   2.925   0.777  0.4019  1.4422  2.6483
  189MOL0     H25467  10.402   3.206   0.680 -2.5818  0.5263  0.3158
  189MOL0     H25468  10.361   3.142   0.833  1.8527  2.1882 -0.4040
  189MOL0     H25469  10.396   2.905   0.717 -2.2916  0.4434  1.8932
  189MOL0     H25470  10.513   3.000   0.612 -1.4320 -5.2680 -1.8751
  189MOL0     H25471  10.632   2.893   0.804  2.0709  0.7300  2.4830
  189MOL0     H25472  10.511   2.952   0.923 -2.3088 -1.5581 -1.6736
  189MOL0     H25473  10.757   3.042   0.887 -0.2057 -3.3842 -0.8964
  189MOL0     H25474  10.621   3.158   0.878 -1.6645  0.5134 -2.4034
  189MOL0     H25475  10.835   3.270   0.878 -1.0386  0.8680  0.0264
  189MOL0     H25476  10.829   3.532   0.828 -0.5726  0.0604 -0.0323
  189MOL0     H25477  10.913   3.706   0.255 -1.3938 -0.6132  1.4537
  189MOL0     H25478  10.987   3.911   0.166  0.0880  2.0407 -0.0521
  189MOL0     H25479  11.099   4.107   0.178  2.1044  1.4091 -0.6233
  189MOL0     H25480  10.979   4.172   0.068  0.6431 -0.0942 -0.3831
  189MOL0     H25481  11.171   4.328   0.263 -0.1225 -2.7481  0.0693
  189MOL0     H25482  11.164   4.316   0.083  1.8182 -1.7740  0.4289
  189MOL0     H25483  10.951   4.428   0.071 -0.6404  1.4256 -0.6457
  189MOL0     H25484  10.919   4.423   0.241  0.2459 -3.4806 -1.2756
  189MOL0     H25485  11.170   4.568   0.133 -0.0323 -0.2365 -1.5820
  189MOL0     H25486  11.109   4.573   0.301 -3.5279 -3.3693  0.5466
  189MOL0     H25487  10.913   4.680   0.210  0.1630 -0.8288 -1.1009
  189MOL0     H25488  10.998   4.708   0.055  1.7993  3.2298  0.9250
  189MOL0     H25489  11.154   4.800   0.285  1.8714  5.5874  0.7495
  189MOL0     H25490  11.145   4.851   0.121  1.4387 -0.2564  1.0422
  189MOL0     H25491  10.967   4.925   0.356  0.8046  0.8179  0.6957
  189MOL0     H25492  10.898   4.939   0.190  1.8118  3.6087 -2.0026
  189MOL0     H25493  11.084   5.072   0.112  1.1699  1.5176 -0.3384
  189MOL0     H25494  10.986   5.136   0.253  0.6967 -1.5182  3.1997
  189MOL0     H25495  10.802   4.135   0.471  0.7115 -0.4858  2.6779
  189MOL0     H25496  10.702   3.928   0.565 -0.2280 -0.8150 -0.1056
  189MOL0     H25497  10.697   3.451   0.430  0.4593  1.3181  0.7728
  189MOL0     H25498  10.705   3.214   0.474  4.1472 -1.8815  0.1187
  189MOL0     H25499   9.027   2.780   0.681  2.5651 -1.2562  1.9442
  189MOL0     H25500   8.773   2.846   0.725 -3.4064 -1.2341  0.6549
  189MOL0     H25501   8.346   2.659   0.684  0.4303  0.7818 -0.3669
  189MOL0     H25502   8.129   2.695   0.699  2.0656  0.5338 -1.3195
  189MOL0     H25503   7.904   2.864   1.018 -2.4545  0.5851 -0.5628
  189MOL0     H25504   7.915   2.699   1.088  3.2839 -0.7574 -1.2144
  189MOL0     H25505   7.677   2.716   1.016  0.8367 -1.4992 -0.2522
  189MOL0     H25506   7.752   2.639   0.878  1.6069 -1.1169  1.1972
  189MOL0     H25507   7.800   2.863   0.780  0.4909  0.0181  0.7774
  189MOL0     H25508   7.726   2.950   0.904  0.6234 -0.5254  0.5100
  189MOL0     H25509   7.578   2.940   0.719 -0.8725  0.1308  0.0212
  189MOL0     H25510   7.594   2.757   0.729  0.4702 -0.5519  1.2408
  189MOL0     H25511   7.310   2.870   1.032 -1.0093 -1.5806 -0.5523
  189MOL0     H25512   8.121   2.778   1.112 -1.4666 -1.4218 -0.3167
  189MOL0     H25513   8.409   2.642   1.197 -0.4488  0.7976  2.2418
  189MOL0     H25514   8.456   2.806   1.131 -0.6964  0.6186  1.4109
  189MOL0     H25515   8.311   2.789   1.234  0.9487 -2.1359  3.0444
  190MOL0     O25516   1.351   2.927   4.380 -0.5997  0.8093  0.7285
  190MOL0     C25517   1.376   2.969   4.265 -0.2787  0.1446 -0.8563
  190MOL0     O25518   1.309   2.937   4.144 -0.5372 -0.4564 -0.7733
  190MOL0     C25519   1.238   2.823   4.120 -0.0703 -0.5253 -0.4555
  190MOL0     C25520   1.227   2.720   4.211 -0.0683 -0.1775  0.1291
  190MOL0     C25521   1.162   2.602   4.181 -1.3466  0.2059 -0.4994
  190MOL0     C25522   1.097   2.588   4.062  0.5726 -0.0983  0.8196
  190MOL0     O25523   1.024   2.473   4.032 -0.0016  0.4971  0.1145
  190MOL0     C25524   1.064   2.355   4.102 -0.0375  1.2612  0.0521
  190MOL0     C25525   0.982   2.335   4.224  0.4826 -0.7085  0.1559
  190MOL0     C25526   1.000   2.205   4.292 -0.0419 -0.0426 -0.3375
  190MOL0     C25527   0.941   2.085   4.218 -0.2715 -0.2400 -0.0198
  190MOL0     C25528   0.976   1.951   4.274 -0.4358 -0.2828  0.4651
  190MOL0     C25529   0.913   1.912   4.407  0.1357  0.6840  0.0428
  190MOL0     C25530   0.985   1.802   4.481 -0.2846  0.3706  0.2545
  190MOL0     C25531   1.118   1.848   4.540 -0.0695 -0.3482  0.2900
  190MOL0     N25532   1.168   1.767   4.658  0.1339  0.0547 -0.0887
  190MOL0     C25533   1.119   1.651   4.703 -0.1101  0.5910  0.1919
  190MOL0     C25534   1.197   1.615   4.808 -0.7047 -0.3135 -0.3388
  190MOL0     C25535   1.180   1.498   4.892  0.5071  0.1947 -0.4267
  190MOL0     C25536   1.300   1.415   4.911 -0.7258 -0.8299 -0.2726
  190MOL0     C25537   1.403   1.485   5.000 -0.1430 -0.0124 -0.5522
  190MOL0     C25538   1.437   1.418   5.135  0.5195 -0.8272 -0.4143
  190MOL0     O25539   1.474   1.284   5.113  0.3112 -0.1271 -0.4305
  190MOL0     C25540   1.598   1.244   5.144 -0.1048 -0.1222 -0.4823
  190MOL0     C25541   1.634   1.133   5.076  0.7784  0.6727 -0.7961
  190MOL0     C25542   1.747   1.057   5.095 -0.9472  0.0822  0.5782
  190MOL0     C25543   1.844   1.117   5.178 -0.1303  0.1792 -0.2618
  190MOL0     C25544   1.966   1.041   5.207  0.4498 -0.2948 -0.4495
  190MOL0     O25545   2.073   1.104   5.271  0.6366 -1.0004 -0.5434
  190MOL0     C25546   2.179   1.018   5.293  0.3717 -1.3705  0.1185
  190MOL0     C25547   2.211   0.987   5.427  0.7744 -0.4013 -0.1747
  190MOL0     C25548   2.314   0.893   5.448  0.0176 -0.4673  0.4309
  190MOL0     C25549   2.400   0.846   5.346 -0.2457 -0.3917  0.2880
  190MOL0     O25550   2.509   0.768   5.372 -0.3452  1.8196 -0.0375
  190MOL0     C25551   2.597   0.834   5.465 -1.3028 -0.2832 -0.7852
  190MOL0     C25552   2.717   0.755   5.474  0.0907  0.0068  0.3232
  190MOL0     C25553   2.806   0.794   5.591 -0.3181  0.2517 -0.1865
  190MOL0     C25554   2.881   0.663   5.635  0.2950 -0.6136 -0.5300
  190MOL0     C25555   3.005   0.696   5.729 -0.9146 -0.4368 -0.6450
  190MOL0     C25556   2.954   0.765   5.854 -0.1930 -0.4582  0.5879
  190MOL0     C25557   3.063   0.778   5.960 -1.3523  0.2754 -0.7162
  190MOL0     C25558   3.090   0.650   6.025 -0.4902  0.1576 -0.7514
  190MOL0    Cl25559   3.201   0.673   6.162  0.2858 -0.5624  0.3081
  190MOL0     C25560   2.368   0.880   5.211 -0.1300  0.4623 -0.1765
  190MOL0     C25561   2.264   0.974   5.190  0.6081 -0.6490  0.4315
  190MOL0     O25562   1.969   0.926   5.161 -0.1845  0.5017 -0.7156
  190MOL0     C25563   1.818   1.243   5.242  0.0496  0.0498  0.7969
  190MOL0     C25564   1.690   1.303   5.232 -0.6218  0.4396 -0.6580
  190MOL0     N25565   1.285   1.715   4.824 -0.1821 -0.3798  0.1101
  190MOL0     N25566   1.263   1.805   4.738  0.5082  0.2363 -0.4254
  190MOL0     C25567   1.107   2.696   3.969 -0.3355 -0.0490  0.0237
  190MOL0     C25568   1.183   2.809   3.991  0.4681 -0.5274 -0.4990
  190MOL0     C25569   1.487   3.070   4.262 -0.0813 -0.3887 -0.0701
  190MOL0     C25570   1.533   3.099   4.134  0.4931  0.8761 -0.3808
  190MOL0     C25571   1.633   3.194   4.109  0.1434 -1.4398 -0.0003
  190MOL0     C25572   1.684   3.273   4.210  0.7551 -0.9555 -0.4060
  190MOL0     O25573   1.764   3.384   4.180 -0.2777  0.1461  0.8416
  190MOL0     C25574   1.750   3.498   4.258  0.0419 -0.3563 -0.5665
  190MOL0     C25575   1.793   3.626   4.187  0.4215  1.0382  0.1546
  190MOL0     C25576   1.808   3.741   4.291 -0.1180  0.2563  0.1576
  190MOL0     C25577   1.685   3.777   4.376 -1.1291  0.0644  0.5452
  190MOL0     C25578   1.706   3.912   4.426  0.6510 -0.1752 -0.0111
  190MOL0     C25579   1.729   4.014   4.477 -0.2045 -0.1303 -1.1874
  190MOL0     C25580   1.617   3.255   4.337 -0.9196  0.4612 -0.1361
  190MOL0     C25581   1.534   3.150   4.369  0.2599  0.2146  0.7024
  190MOL0     C25582   1.500   3.136   4.513 -0.4580  0.0145  0.0335
  190MOL0     H25583   1.277   2.723   4.307  0.1357 -0.6557  0.0405
  190MOL0     H25584   1.173   2.531   4.263  1.6596  1.2688  0.1594
  190MOL0     H25585   1.053   2.271   4.033  1.7320  1.2553 -0.2767
  190MOL0     H25586   1.170   2.350   4.130 -0.7144 -1.4721  2.6916
  190MOL0     H25587   0.877   2.343   4.193  1.0688 -2.6710 -2.6963
  190MOL0     H25588   0.999   2.410   4.302 -3.1766  1.0262 -0.4989
  190MOL0     H25589   0.954   2.211   4.392  1.8965  1.5196  0.5238
  190MOL0     H25590   1.108   2.191   4.300  0.0057  0.7133  0.5946
  190MOL0     H25591   0.833   2.077   4.228 -0.3335 -4.6078 -1.6916
  190MOL0     H25592   0.960   2.092   4.110 -1.9305  1.7497 -0.2223
  190MOL0     H25593   0.947   1.872   4.204 -0.0644  0.7008 -0.8411
  190MOL0     H25594   1.085   1.958   4.283  0.1301 -0.1675 -4.0707
  190MOL0     H25595   0.915   2.007   4.461  3.0786  1.2536 -0.8715
  190MOL0     H25596   0.809   1.881   4.393  0.7001 -0.3261 -2.4766
  190MOL0     H25597   0.994   1.709   4.423  0.7534  0.3706  0.3952
  190MOL0     H25598   0.919   1.765   4.560 -0.4842  2.8310  1.3314
  190MOL0     H25599   1.186   1.840   4.455 -0.3501  0.4384 -0.0211
  190MOL0     H25600   1.122   1.956   4.560  1.4308 -0.0931 -1.2378
  190MOL0     H25601   1.028   1.605   4.664 -1.6463  1.1180  2.9204
  190MOL0     H25602   1.157   1.519   4.996  1.9523  1.7155 -0.3651
  190MOL0     H25603   1.107   1.423   4.861  0.9863 -0.9602  1.1542
  190MOL0     H25604   1.271   1.323   4.963 -0.1314 -0.0611  1.5256
  190MOL0     H25605   1.345   1.403   4.812  0.2389 -0.8555  0.1517
  190MOL0     H25606   1.374   1.587   5.026  0.8606 -0.1232  1.2166
  190MOL0     H25607   1.498   1.477   4.946 -1.2281  0.1772 -2.5524
  190MOL0     H25608   1.346   1.418   5.196  0.2840  1.1406 -0.6754
  190MOL0     H25609   1.505   1.473   5.202  0.8321 -1.3184 -0.3261
  190MOL0     H25610   1.567   1.093   5.001  1.6655 -0.9429 -0.7751
  190MOL0     H25611   1.766   0.976   5.025  2.6345  3.8045 -3.3408
  190MOL0     H25612   2.162   1.045   5.504  1.8416  0.1727  0.0939
  190MOL0     H25613   2.327   0.876   5.555  0.5547  0.9654  0.6128
  190MOL0     H25614   2.618   0.938   5.438 -0.4399 -0.7258 -1.9003
  190MOL0     H25615   2.551   0.848   5.563 -3.1757  2.6457 -1.9436
  190MOL0     H25616   2.701   0.647   5.472  0.7422 -0.1084  0.7096
  190MOL0     H25617   2.781   0.776   5.388 -0.5812  0.6925 -0.0114
  190MOL0     H25618   2.881   0.863   5.552  0.5689 -1.6028 -1.9732
  190MOL0     H25619   2.754   0.830   5.680 -0.7759  0.0702 -0.3810
  190MOL0     H25620   2.911   0.612   5.543 -2.1733  1.2710 -2.5248
  190MOL0     H25621   2.811   0.596   5.685  1.9695 -2.3191 -0.3701
  190MOL0     H25622   3.074   0.748   5.662  0.3996 -1.6820 -0.3054
  190MOL0     H25623   3.050   0.602   5.762 -0.8482 -0.2802 -0.2804
  190MOL0     H25624   2.913   0.865   5.841 -4.0394 -2.1004 -1.3143
  190MOL0     H25625   2.863   0.714   5.888 -1.3423  0.4817 -0.9770
  190MOL0     H25626   3.022   0.844   6.037  0.9102  0.4288  0.4220
  190MOL0     H25627   3.158   0.808   5.915  0.3082 -3.6105 -0.2421
  190MOL0     H25628   2.997   0.611   6.066 -0.6399  0.4276 -0.8294
  190MOL0     H25629   3.147   0.583   5.960 -1.2037 -0.9362 -0.2751
  190MOL0     H25630   2.433   0.847   5.130  0.1196 -0.0283  0.2228
  190MOL0     H25631   2.247   1.010   5.089  1.0834 -0.7436  0.3144
  190MOL0     H25632   1.890   1.276   5.316  2.5057 -2.9826 -0.0332
  190MOL0     H25633   1.680   1.394   5.290  1.0182 -1.3177  2.6528
  190MOL0     H25634   1.060   2.690   3.871  1.0100 -0.0580 -0.6454
  190MOL0     H25635   1.187   2.885   3.914  0.3054 -0.0964 -0.0830
  190MOL0     H25636   1.499   3.050   4.043  1.2451 -2.1361  0.8119
  190MOL0     H25637   1.662   3.222   4.008  0.5325  5.6651  1.5612
  190MOL0     H25638   1.808   3.493   4.351  0.2762 -1.4827 -0.7594
  190MOL0     H25639   1.646   3.505   4.290  0.1316  2.4179 -0.6639
  190MOL0     H25640   1.721   3.643   4.106 -1.2210 -1.5655  0.9410
  190MOL0     H25641   1.892   3.616   4.144  0.3987 -1.5751  0.5688
  190MOL0     H25642   1.851   3.831   4.245 -1.7140  2.6931  3.0303
  190MOL0     H25643   1.891   3.714   4.357  0.9847 -0.0786 -1.3070
  190MOL0     H25644   1.596   3.777   4.312 -0.8000  1.3650  0.0581
  190MOL0     H25645   1.647   3.711   4.454  0.6134 -0.5850  0.8699
  190MOL0     H25646   1.743   4.117   4.504  0.4624 -0.2950 -0.8934
  190MOL0     H25647   1.645   3.318   4.421  2.3127 -0.2781 -0.5281
  190MOL0     H25648   1.513   3.035   4.552  2.1789 -0.2631 -1.3485
  190MOL0     H25649   1.559   3.191   4.587  2.3323 -1.8977 -0.5781
  190MOL0     H25650   1.397   3.164   4.536 -0.6635 -2.1118  2.0252
  191MOL0     O25651  10.244   5.509   6.724  0.1741  0.7251  0.3238
  191MOL0     C25652  10.189   5.588   6.649 -0.2310 -0.9035 -0.3496
  191MOL0     O25653  10.120   5.550   6.534  0.6138  0.1573  0.6950
  191MOL0     C25654  10.118   5.419   6.499  0.2603 -0.2285 -0.0672
  191MOL0     C25655  10.234   5.349   6.461 -0.3354 -0.2109 -0.5575
  191MOL0     C25656  10.225   5.215   6.411  0.8029 -0.0902 -0.1000
  191MOL0     C25657  10.100   5.149   6.402  0.0977  0.2296  0.4612
  191MOL0     O25658  10.084   5.022   6.358  0.8197 -0.4435  0.0814
  191MOL0     C25659  10.169   4.971   6.257 -0.1231  0.2240 -0.2029
  191MOL0     C25660  10.177   5.045   6.122  0.1239 -1.1776  0.1173
  191MOL0     C25661  10.246   4.953   6.023  1.0329 -0.2575  0.1723
  191MOL0     C25662  10.397   4.934   6.035  0.1283  0.0627  0.5480
  191MOL0     C25663  10.469   5.074   6.024 -0.0709  0.2370 -0.1960
  191MOL0     C25664  10.621   5.071   6.010 -1.0960 -0.3028  0.5047
  191MOL0     C25665  10.646   5.043   5.863  0.2662  0.6412  0.9553
  191MOL0     C25666  10.799   5.041   5.833  0.3041  0.2805 -0.4167
  191MOL0     N25667  10.813   4.956   5.717 -0.0543  0.1698 -0.5249
  191MOL0     C25668  10.793   5.001   5.590  0.2811 -0.0880  0.3729
  191MOL0     C25669  10.838   4.900   5.511 -0.2269  0.2788 -0.1236
  191MOL0     C25670  10.818   4.874   5.369  0.3777 -0.3793 -0.4262
  191MOL0     C25671  10.673   4.819   5.348  0.6619 -0.8491  0.5308
  191MOL0     C25672  10.651   4.678   5.407  1.3667 -0.4927 -0.3385
  191MOL0     C25673  10.506   4.648   5.388  0.7508 -0.0083 -0.1213
  191MOL0     O25674  10.476   4.526   5.459  0.4825  0.1904  0.4729
  191MOL0     C25675  10.348   4.478   5.471  0.1885  0.6075  0.3369
  191MOL0     C25676  10.337   4.345   5.494  0.3641  0.1582 -0.3099
  191MOL0     C25677  10.206   4.281   5.484 -0.1611  0.3376  0.1255
  191MOL0     C25678  10.094   4.354   5.463 -0.1980 -0.0537  0.1413
  191MOL0     C25679   9.960   4.295   5.470  0.1648  0.3356 -0.1339
  191MOL0     O25680   9.858   4.378   5.450 -0.2820  0.2761 -0.3519
  191MOL0     C25681   9.732   4.318   5.446  0.2752 -0.7284  0.2504
  191MOL0     C25682   9.675   4.275   5.570  0.1336  0.1203 -0.2696
  191MOL0     C25683   9.567   4.187   5.560 -0.5583  0.0806 -0.2259
  191MOL0     C25684   9.509   4.145   5.437  0.2118  0.7102  0.1459
  191MOL0     O25685   9.411   4.054   5.420  0.5105 -0.6375 -0.0712
  191MOL0     C25686   9.356   3.999   5.541 -0.4096 -0.9028  0.3209
  191MOL0     C25687   9.262   3.889   5.505 -0.2608 -0.7398  0.2841
  191MOL0     C25688   9.326   3.749   5.484  0.6965 -0.2751 -0.6445
  191MOL0     C25689   9.410   3.732   5.359  0.0319 -0.3433 -0.6774
  191MOL0     C25690   9.462   3.586   5.335 -0.3076  0.0483  0.7465
  191MOL0     C25691   9.543   3.560   5.206 -0.3238  0.4779 -0.1066
  191MOL0     C25692   9.550   3.409   5.160  0.0101  0.7131  0.0021
  191MOL0     C25693   9.670   3.402   5.066  0.7549  1.0197 -0.0584
  191MOL0    Cl25694   9.646   3.244   4.994 -0.1387  0.0488 -0.0529
  191MOL0     C25695   9.563   4.204   5.322  0.4648  0.2295  0.7435
  191MOL0     C25696   9.676   4.284   5.323 -0.2705  0.7693  0.3256
  191MOL0     O25697   9.951   4.171   5.485 -0.2217 -0.3125 -0.0360
  191MOL0     C25698  10.110   4.491   5.421 -0.4336  0.5533 -0.4704
  191MOL0     C25699  10.234   4.550   5.425  0.3864 -0.1315  0.4114
  191MOL0     N25700  10.897   4.802   5.586  0.1003 -0.8754 -0.1501
  191MOL0     N25701  10.883   4.832   5.710 -0.1590  0.3711  0.5213
  191MOL0     C25702   9.987   5.220   6.445 -0.8957 -0.0815 -0.9206
  191MOL0     C25703   9.991   5.351   6.493  0.1583 -0.4487  1.0009
  191MOL0     C25704  10.191   5.733   6.690  0.0926 -0.6529 -0.3630
  191MOL0     C25705  10.286   5.770   6.791 -0.4314 -1.2274 -0.5139
  191MOL0     C25706  10.288   5.903   6.842  0.5040 -0.4905  0.3353
  191MOL0     C25707  10.197   6.001   6.805 -0.0618  0.4806  0.4520
  191MOL0     O25708  10.215   6.136   6.857  0.2491  0.3265 -0.3615
  191MOL0     C25709  10.176   6.257   6.794  0.9287 -0.4732 -0.4305
  191MOL0     C25710  10.261   6.280   6.668  1.5205  0.2755  0.8084
  191MOL0     C25711  10.416   6.259   6.672  0.1366  0.3131 -0.1013
  191MOL0     C25712  10.496   6.350   6.773  0.1913  1.1736  1.0297
  191MOL0     C25713  10.497   6.498   6.744  0.0466  0.1890  0.7084
  191MOL0     C25714  10.493   6.613   6.708 -0.9128 -0.3244 -0.3100
  191MOL0     C25715  10.108   5.969   6.704 -0.1830 -0.2784 -0.5203
  191MOL0     C25716  10.104   5.838   6.647 -0.4363  0.5812  0.2930
  191MOL0     C25717   9.994   5.810   6.550 -0.0042  0.3913  0.8913
  191MOL0     H25718  10.323   5.412   6.460 -2.2991  2.7543 -1.1494
  191MOL0     H25719  10.315   5.166   6.374  0.9880 -0.5854  0.9609
  191MOL0     H25720  10.270   4.956   6.296 -0.2752  0.7186  0.3953
  191MOL0     H25721  10.132   4.870   6.239  0.3124 -0.2594  1.4809
  191MOL0     H25722  10.229   5.139   6.140  0.1227 -1.4528  1.6301
  191MOL0     H25723  10.075   5.078   6.099  0.3610  1.5579  2.4724
  191MOL0     H25724  10.220   4.996   5.925 -2.4264 -1.8195  0.2653
  191MOL0     H25725  10.202   4.854   6.029  0.5583  0.0250  1.9796
  191MOL0     H25726  10.424   4.893   6.133 -0.0634 -2.1432 -0.2641
  191MOL0     H25727  10.431   4.857   5.966 -1.5517 -0.5708  0.3801
  191MOL0     H25728  10.413   5.139   5.957 -3.0918  0.8197  2.6103
  191MOL0     H25729  10.448   5.133   6.115  0.1291 -3.3595  2.3832
  191MOL0     H25730  10.651   5.174   6.030 -2.8608  0.4428 -0.4130
  191MOL0     H25731  10.659   5.000   6.084 -2.9961  0.8845  2.7670
  191MOL0     H25732  10.602   5.121   5.800 -0.0637  0.1621  0.5874
  191MOL0     H25733  10.596   4.946   5.854 -3.6871  2.4445  1.0864
  191MOL0     H25734  10.842   5.139   5.812  1.4011  0.2386  1.3933
  191MOL0     H25735  10.844   4.989   5.918 -4.1662 -0.4073  1.8385
  191MOL0     H25736  10.748   5.095   5.561 -2.9306 -0.7749  2.6576
  191MOL0     H25737  10.827   4.962   5.304  3.4984 -0.0242  0.3192
  191MOL0     H25738  10.885   4.794   5.337 -0.8800 -1.2339 -1.0361
  191MOL0     H25739  10.597   4.881   5.396 -1.8699 -0.9272 -3.0514
  191MOL0     H25740  10.648   4.821   5.242 -2.5643 -1.5043  1.1906
  191MOL0     H25741  10.676   4.671   5.514 -0.6702  1.9134  0.3999
  191MOL0     H25742  10.705   4.605   5.346  1.7499  1.7548 -2.8272
  191MOL0     H25743  10.479   4.624   5.284 -1.9388 -0.0489  0.4991
  191MOL0     H25744  10.448   4.732   5.429  2.6965  1.6963 -0.6987
  191MOL0     H25745  10.423   4.287   5.525 -0.1012  0.1374  1.0163
  191MOL0     H25746  10.207   4.172   5.488  2.3690  0.0255 -3.4891
  191MOL0     H25747   9.701   4.299   5.672 -1.6611  1.1096 -0.0043
  191MOL0     H25748   9.530   4.159   5.659 -0.0294  0.9237  0.2279
  191MOL0     H25749   9.438   3.964   5.605  0.9812  3.2431  1.1116
  191MOL0     H25750   9.297   4.067   5.602 -0.8198 -0.5829 -0.4257
  191MOL0     H25751   9.192   3.895   5.589 -0.2426  3.8947  0.1967
  191MOL0     H25752   9.205   3.920   5.417 -2.6178 -2.5268  1.0533
  191MOL0     H25753   9.382   3.730   5.576  2.9067 -4.2666 -2.5537
  191MOL0     H25754   9.249   3.671   5.489  0.5314 -0.1009 -0.4559
  191MOL0     H25755   9.500   3.795   5.356  0.8203 -1.3877  0.1344
  191MOL0     H25756   9.346   3.755   5.274 -1.2095 -2.3632 -0.3381
  191MOL0     H25757   9.380   3.513   5.339 -2.0530  1.6611 -2.0885
  191MOL0     H25758   9.537   3.575   5.414  1.0340  2.1346 -0.1621
  191MOL0     H25759   9.492   3.626   5.134 -0.1266  2.7518  1.7093
  191MOL0     H25760   9.641   3.607   5.215 -1.2134  2.1464  1.7968
  191MOL0     H25761   9.456   3.381   5.111 -0.1178  0.3455  0.4479
  191MOL0     H25762   9.560   3.348   5.251 -3.3985 -1.0693 -0.6636
  191MOL0     H25763   9.655   3.473   4.985 -4.0936  1.1460  0.6803
  191MOL0     H25764   9.762   3.418   5.124  1.6687 -0.4110 -1.0395
  191MOL0     H25765   9.514   4.157   5.237 -1.4169 -2.1859  3.0126
  191MOL0     H25766   9.722   4.314   5.230  1.5244 -0.3414  0.8166
  191MOL0     H25767  10.017   4.546   5.406 -1.9236 -0.8934  2.4818
  191MOL0     H25768  10.233   4.657   5.407  0.6691 -0.1858  0.0519
  191MOL0     H25769   9.890   5.175   6.465 -0.3121 -0.4078  1.5723
  191MOL0     H25770   9.905   5.410   6.523 -1.0495 -2.8664  2.6718
  191MOL0     H25771  10.374   5.709   6.811  0.2103  0.3154  1.7193
  191MOL0     H25772  10.374   5.932   6.901 -0.0575 -0.1495  1.0070
  191MOL0     H25773  10.181   6.333   6.872  0.8800 -2.8414  2.0577
  191MOL0     H25774  10.073   6.244   6.759  1.7195  0.6775 -3.4655
  191MOL0     H25775  10.235   6.374   6.618 -1.0769  0.3423  2.1083
  191MOL0     H25776  10.224   6.205   6.597 -0.1569  4.1397 -2.8421
  191MOL0     H25777  10.452   6.277   6.570  1.9238 -1.3788  0.1819
  191MOL0     H25778  10.441   6.153   6.683 -0.3423  0.4381  2.7673
  191MOL0     H25779  10.457   6.317   6.870 -0.7010 -0.3900  0.1969
  191MOL0     H25780  10.600   6.319   6.764 -0.5587 -0.9504 -2.0575
  191MOL0     H25781  10.481   6.718   6.688  2.2991  0.6281  1.9085
  191MOL0     H25782  10.044   6.049   6.671  0.1737  0.5724  0.7938
  191MOL0     H25783   9.918   5.738   6.582  0.4279 -0.7239 -0.4801
  191MOL0     H25784   9.930   5.897   6.533  0.8466  0.8780  0.1022
  191MOL0     H25785  10.035   5.784   6.452 -2.7058  0.0458 -0.2380
  192MOL0     O25786   8.699  10.222  10.157 -0.3834 -0.1622 -0.0506
  192MOL0     C25787   8.736  10.247  10.045 -0.3534  0.4367  0.4167
  192MOL0     O25788   8.836  10.335  10.006 -0.4315  0.0632 -0.0751
  192MOL0     C25789   8.924  10.400  10.097  0.5722 -0.0978 -0.1705
  192MOL0     C25790   8.971  10.333  10.203 -0.3537  0.3233 -0.1959
  192MOL0     C25791   9.060  10.386  10.300 -0.1288 -0.2120 -0.2503
  192MOL0     C25792   9.108  10.511  10.275 -0.3694  1.4303  0.4162
  192MOL0     O25793   9.201  10.575  10.354  0.3202  0.2336 -0.6569
  192MOL0     C25794   9.201  10.552  10.493  0.0919  0.3615  0.4665
  192MOL0     C25795   9.294  10.650  10.559 -0.0401  0.2998 -0.0277
  192MOL0     C25796   9.230  10.790  10.551  0.1902  0.3497  0.3066
  192MOL0     C25797   9.328  10.919  10.555 -0.3103  0.5172  0.4106
  192MOL0     C25798   9.376  10.937  10.701  0.2610 -1.0702 -0.6344
  192MOL0     C25799   9.465  11.067  10.703  0.2544  0.3541  0.9593
  192MOL0     C25800   9.492  11.111  10.843 -0.1603  0.1704 -0.0019
  192MOL0     C25801   9.599  11.028  10.917 -0.5326  0.0715  0.6803
  192MOL0     N25802   9.633  11.052  11.053  0.0700 -1.0248  0.9890
  192MOL0     C25803   9.643  11.173  11.124  0.9178 -0.3777  0.2015
  192MOL0     C25804   9.684  11.136  11.247  0.6266 -0.8387  0.2369
  192MOL0     C25805   9.710  11.221  11.371 -0.4322  0.6966  0.8650
  192MOL0     C25806   9.627  11.175  11.500  0.5593  0.0016 -0.1601
  192MOL0     C25807   9.697  11.072  11.591  0.0405 -0.5588 -0.0029
  192MOL0     C25808   9.788  11.128  11.700 -0.3499 -0.8031 -0.7460
  192MOL0     O25809   9.849  11.035  11.788 -0.8947 -0.0362 -0.0738
  192MOL0     C25810   9.937  10.941  11.743  0.0824  0.2824 -0.6424
  192MOL0     C25811  10.000  10.942  11.616  0.5214 -0.8654 -0.6075
  192MOL0     C25812  10.086  10.841  11.594 -0.0915  0.5686  0.4960
  192MOL0     C25813  10.118  10.736  11.693  0.6891 -0.0015 -0.1246
  192MOL0     C25814  10.224  10.636  11.664 -0.5568  0.5202 -0.0190
  192MOL0     O25815  10.239  10.525  11.753  0.3789 -0.4296  1.1095
  192MOL0     C25816  10.314  10.428  11.702 -0.5301  0.5705 -0.4909
  192MOL0     C25817  10.261  10.337  11.610  0.7330  0.1601  1.1475
  192MOL0     C25818  10.330  10.219  11.563 -1.1407  0.5719  0.6359
  192MOL0     C25819  10.460  10.207  11.603  0.8024  0.4104 -0.0733
  192MOL0     O25820  10.549  10.112  11.569  0.0789  0.2189  0.2317
  192MOL0     C25821  10.581  10.086  11.433  0.1977 -0.5941  0.6299
  192MOL0     C25822  10.640  10.212  11.356 -0.3435 -0.1578 -0.8752
  192MOL0     C25823  10.616  10.198  11.212 -0.3893 -0.2156 -0.1269
  192MOL0     C25824  10.480  10.244  11.180  0.9715 -0.4503  0.3803
  192MOL0     C25825  10.458  10.236  11.033  0.2475  0.2629  0.3359
  192MOL0     C25826  10.324  10.293  10.991  1.4538 -0.0060 -0.4765
  192MOL0     C25827  10.287  10.299  10.840  0.0141 -0.3953  0.0021
  192MOL0     C25828  10.193  10.411  10.798  0.3019 -1.1638 -0.5434
  192MOL0    Cl25829  10.045  10.433  10.887  0.1332 -0.0461  0.1552
  192MOL0     C25830  10.498  10.288  11.716  0.2829 -1.1195  1.4669
  192MOL0     C25831  10.422  10.388  11.776 -0.0536  0.2986 -0.2197
  192MOL0     O25832  10.284  10.658  11.562  0.9974  0.7431 -0.0603
  192MOL0     C25833  10.045  10.735  11.812  0.0940 -0.3540  0.1197
  192MOL0     C25834   9.967  10.848  11.848  0.5422 -0.1069  0.1354
  192MOL0     N25835   9.715  11.000  11.235 -0.0261 -0.8942  0.6281
  192MOL0     N25836   9.693  10.952  11.118 -0.5835  0.6658 -0.2325
  192MOL0     C25837   9.073  10.575  10.149  0.2672 -0.3873  0.8545
  192MOL0     C25838   8.978  10.523  10.066 -0.5144 -0.3153  0.0863
  192MOL0     C25839   8.645  10.197   9.932  0.2431  0.3613  0.5357
  192MOL0     C25840   8.671  10.247   9.801 -0.6359  0.0550  0.1209
  192MOL0     C25841   8.586  10.217   9.693  0.0249 -0.2533 -0.1767
  192MOL0     C25842   8.470  10.142   9.709 -0.4646 -0.2507  0.8403
  192MOL0     O25843   8.388  10.115   9.602 -0.1507 -0.6595 -0.0317
  192MOL0     C25844   8.440  10.119   9.470  0.1887  0.4169 -0.9444
  192MOL0     C25845   8.424  10.256   9.400 -0.3933  0.4273 -0.2373
  192MOL0     C25846   8.456  10.260   9.251 -0.2264 -0.0244 -0.3070
  192MOL0     C25847   8.425  10.124   9.169  0.3641 -0.0143  1.3319
  192MOL0     C25848   8.427  10.138   9.019  0.3940  0.6682 -0.3669
  192MOL0     C25849   8.413  10.157   8.901  0.9111 -0.1939  0.3617
  192MOL0     C25850   8.445  10.099   9.835  0.7787 -0.2968  0.0251
  192MOL0     C25851   8.530  10.122   9.944 -0.9298 -0.7039  0.1162
  192MOL0     C25852   8.478  10.057  10.067 -0.7064 -1.1070 -0.4947
  192MOL0     H25853   8.932  10.232  10.216 -1.8182  1.0442  1.3966
  192MOL0     H25854   9.098  10.329  10.384  0.9773 -0.3078 -0.8082
  192MOL0     H25855   9.097  10.562  10.526 -0.1191 -0.7292  0.1458
  192MOL0     H25856   9.240  10.451  10.507 -0.5004  0.1586  0.7150
  192MOL0     H25857   9.390  10.665  10.510 -0.9142 -2.0411 -2.7589
  192MOL0     H25858   9.306  10.622  10.664 -4.1366 -2.7190 -0.0935
  192MOL0     H25859   9.164  10.818  10.634  1.1753  0.3372  1.1304
  192MOL0     H25860   9.178  10.794  10.455 -0.0077 -0.5645  0.3719
  192MOL0     H25861   9.414  10.929  10.488 -0.6963  4.4695  0.2877
  192MOL0     H25862   9.263  11.004  10.532 -1.0462  0.5126  2.2946
  192MOL0     H25863   9.290  10.953  10.767  2.2529 -0.8780  2.0704
  192MOL0     H25864   9.433  10.849  10.734 -2.8050 -2.6673  0.8538
  192MOL0     H25865   9.556  11.053  10.644  0.0417  1.9761  0.2042
  192MOL0     H25866   9.411  11.154  10.664  1.8426  0.6916 -0.6148
  192MOL0     H25867   9.396  11.116  10.894 -0.8016 -3.3071 -0.6301
  192MOL0     H25868   9.540  11.209  10.834  0.1054  0.1029  0.6374
  192MOL0     H25869   9.585  10.920  10.909  0.7840 -0.0544 -0.4615
  192MOL0     H25870   9.695  11.028  10.864  2.0346 -1.1139  4.8399
  192MOL0     H25871   9.623  11.272  11.085 -0.4238 -0.7561 -0.1390
  192MOL0     H25872   9.815  11.224  11.402  0.0603  3.1857 -0.7137
  192MOL0     H25873   9.678  11.323  11.347  3.9350  1.9461 -0.7738
  192MOL0     H25874   9.588  11.262  11.553 -1.9075 -1.9969  1.5411
  192MOL0     H25875   9.525  11.145  11.473  0.4212 -0.9490  1.2867
  192MOL0     H25876   9.762  11.010  11.528 -0.4832  0.6884 -1.8650
  192MOL0     H25877   9.622  11.011  11.642  0.6536 -0.0386  1.5664
  192MOL0     H25878   9.742  11.210  11.756  3.7114 -0.3698  2.4896
  192MOL0     H25879   9.872  11.168  11.642  1.3614 -0.1617  1.9982
  192MOL0     H25880   9.964  11.006  11.536 -2.8171  1.6723  2.5864
  192MOL0     H25881  10.135  10.836  11.497 -1.7956 -0.8164 -0.3551
  192MOL0     H25882  10.158  10.364  11.587  0.9911  0.3636  0.1772
  192MOL0     H25883  10.283  10.146  11.498  1.4361  1.3371 -2.3526
  192MOL0     H25884  10.653  10.003  11.436  0.0875 -0.6740  2.9715
  192MOL0     H25885  10.500  10.034  11.381  1.8094 -1.8257 -0.7766
  192MOL0     H25886  10.599  10.307  11.389 -0.1667 -0.4060  0.1007
  192MOL0     H25887  10.746  10.215  11.382  0.6126 -2.3903 -3.9345
  192MOL0     H25888  10.686  10.262  11.157 -1.2601  2.2978  1.5327
  192MOL0     H25889  10.636  10.095  11.181 -0.3301 -0.4749  0.7668
  192MOL0     H25890  10.475  10.350  11.206  1.5134 -0.1367 -0.7581
  192MOL0     H25891  10.403  10.182  11.226  2.4221 -2.1862  0.5876
  192MOL0     H25892  10.473  10.132  11.003 -2.1640 -0.2423  0.7016
  192MOL0     H25893  10.537  10.304  10.998 -0.3996  1.6034  1.3751
  192MOL0     H25894  10.248  10.237  11.047  0.6853  1.4228 -0.0450
  192MOL0     H25895  10.321  10.397  11.025 -0.1379  0.2419 -1.2249
  192MOL0     H25896  10.234  10.208  10.813 -0.4129  0.1437 -1.0245
  192MOL0     H25897  10.380  10.299  10.783  0.2113 -0.9868  0.3233
  192MOL0     H25898  10.254  10.499  10.822 -2.2177  0.0083  2.1459
  192MOL0     H25899  10.177  10.409  10.690  0.7940  0.2239 -0.6586
  192MOL0     H25900  10.600  10.273  11.751  1.6826  2.1682 -0.6523
  192MOL0     H25901  10.443  10.446  11.865 -2.2391 -1.0146  1.2286
  192MOL0     H25902  10.057  10.662  11.891 -0.5499 -0.5622  0.0313
  192MOL0     H25903   9.910  10.842  11.940 -1.2775 -7.5190 -0.8639
  192MOL0     H25904   9.132  10.666  10.146 -0.1975 -0.0755 -2.6246
  192MOL0     H25905   8.943  10.566   9.973 -1.4303  2.0170  1.4237
  192MOL0     H25906   8.759  10.296   9.758  1.3890 -3.8267 -0.6822
  192MOL0     H25907   8.617  10.245   9.593 -0.6044 -1.6983 -0.7988
  192MOL0     H25908   8.394  10.046   9.403  0.8626  0.5513 -1.5735
  192MOL0     H25909   8.545  10.091   9.467  0.6551  1.8117  0.6968
  192MOL0     H25910   8.480  10.330   9.459 -3.6946 -0.5848  4.8187
  192MOL0     H25911   8.322  10.287   9.425 -0.2326  0.8459 -0.0863
  192MOL0     H25912   8.562  10.286   9.255  0.0857 -1.2785  3.2357
  192MOL0     H25913   8.399  10.334   9.194  1.7329  0.3777 -1.8762
  192MOL0     H25914   8.489  10.040   9.197  0.0836 -0.4314  0.7506
  192MOL0     H25915   8.328  10.082   9.195 -0.5956  0.1705 -1.5998
  192MOL0     H25916   8.378  10.162   8.800 -1.8106 -1.3595  1.1473
  192MOL0     H25917   8.353  10.044   9.849  0.4754  0.3303  0.5395
  192MOL0     H25918   8.378  10.013  10.056 -1.3697 -0.4971  2.3410
  192MOL0     H25919   8.548   9.980  10.100  0.1445 -0.4615 -0.7639
  192MOL0     H25920   8.468  10.126  10.151  1.3237 -1.0547 -0.2627
  193MOL0     O25921   8.009   6.972   6.843  0.0164  0.0191 -0.1703
  193MOL0     C25922   7.999   6.865   6.900 -0.4240  0.5590  0.1326
  193MOL0     O25923   8.092   6.818   6.992 -0.7181  0.0641 -0.1593
  193MOL0     C25924   8.183   6.898   7.049  0.3128  0.4694  0.0653
  193MOL0     C25925   8.188   7.050   7.046 -0.4369 -0.1227 -0.1351
  193MOL0     C25926   8.292   7.115   7.107  0.4433  0.0693 -0.1885
  193MOL0     C25927   8.389   7.041   7.177  0.3208  0.5137 -0.8755
  193MOL0     O25928   8.499   7.107   7.235  0.6095  0.3590 -0.5845
  193MOL0     C25929   8.511   7.090   7.374 -0.2313 -0.0274  0.8307
  193MOL0     C25930   8.398   7.143   7.473 -0.0859 -0.0860  0.1649
  193MOL0     C25931   8.440   7.184   7.615 -0.1877 -0.1978  0.4037
  193MOL0     C25932   8.305   7.212   7.697 -1.0301  0.0843 -0.1495
  193MOL0     C25933   8.343   7.225   7.843 -0.6208  0.3546  0.1271
  193MOL0     C25934   8.234   7.251   7.942 -0.3661 -0.2882  0.0030
  193MOL0     C25935   8.181   7.396   7.944 -0.6210 -0.3215  0.7526
  193MOL0     C25936   8.274   7.519   7.920  0.2796  0.2209  0.6953
  193MOL0     N25937   8.382   7.539   8.021  0.3704 -0.1908 -0.1757
  193MOL0     C25938   8.487   7.624   8.018 -0.0518  0.7257  0.6050
  193MOL0     C25939   8.564   7.615   8.131  0.3416  0.0958  0.0420
  193MOL0     C25940   8.681   7.697   8.179  0.7561  0.0338  0.1252
  193MOL0     C25941   8.711   7.673   8.332 -0.4280 -0.2002  0.0751
  193MOL0     C25942   8.835   7.755   8.391 -0.8208 -0.2519 -0.2003
  193MOL0     C25943   8.801   7.910   8.409 -0.3364 -0.8433  0.0926
  193MOL0     O25944   8.913   7.981   8.464  0.1738 -0.2188 -0.3172
  193MOL0     C25945   8.913   8.021   8.595  0.9406  0.2450  0.2219
  193MOL0     C25946   8.811   8.110   8.635 -1.2169  0.5831  0.5728
  193MOL0     C25947   8.788   8.138   8.770 -0.2139 -0.3023  0.5932
  193MOL0     C25948   8.876   8.078   8.865  0.2910 -0.3789 -0.8039
  193MOL0     C25949   8.864   8.125   9.005 -0.7222 -0.0752 -0.5849
  193MOL0     O25950   8.756   8.211   9.037 -0.0899 -0.3092  0.8883
  193MOL0     C25951   8.723   8.263   9.157  0.0751 -0.4429  0.3042
  193MOL0     C25952   8.819   8.280   9.257  0.1859 -0.3071  0.0400
  193MOL0     C25953   8.775   8.324   9.381 -0.0198 -0.6536 -0.3288
  193MOL0     C25954   8.649   8.376   9.406  1.1869  0.8474  0.5116
  193MOL0     O25955   8.630   8.427   9.532  0.4538 -0.2609 -0.2921
  193MOL0     C25956   8.506   8.486   9.563 -0.5062 -0.2033  0.6063
  193MOL0     C25957   8.505   8.564   9.699 -0.2826  0.4934 -0.1522
  193MOL0     C25958   8.606   8.668   9.714  0.1267  0.2013  0.3813
  193MOL0     C25959   8.589   8.792   9.621  0.2581 -0.5987  0.4404
  193MOL0     C25960   8.675   8.913   9.650  0.0807 -1.4155 -0.5431
  193MOL0     C25961   8.677   9.014   9.528  0.3557 -0.9770 -0.9103
  193MOL0     C25962   8.742   9.157   9.569  0.0074  1.0342  0.5946
  193MOL0     C25963   8.756   9.272   9.467  0.5481  0.4264  0.5767
  193MOL0    Cl25964   8.758   9.444   9.531  0.0911  0.1539  0.2465
  193MOL0     C25965   8.552   8.349   9.307 -0.4314  0.1926 -0.5761
  193MOL0     C25966   8.585   8.293   9.184 -0.3091 -0.5161 -0.2601
  193MOL0     O25967   8.940   8.075   9.089 -0.3298 -0.2561  0.4965
  193MOL0     C25968   8.976   7.989   8.827 -0.4067  1.4833  0.7026
  193MOL0     C25969   8.991   7.959   8.693 -0.3901  0.2949  0.2125
  193MOL0     N25970   8.490   7.520   8.200  0.1565 -0.4858  0.6771
  193MOL0     N25971   8.388   7.472   8.146  0.1779 -0.9235 -0.1199
  193MOL0     C25972   8.390   6.903   7.172 -0.1256 -0.3710 -0.1048
  193MOL0     C25973   8.283   6.830   7.109  0.6729  0.4523 -0.4909
  193MOL0     C25974   7.881   6.785   6.879 -0.1760  0.6284 -0.1440
  193MOL0     C25975   7.859   6.678   6.968 -0.4645 -0.1695  0.4511
  193MOL0     C25976   7.747   6.600   6.969  0.7244 -0.4495  0.5075
  193MOL0     C25977   7.648   6.612   6.872  0.0483  0.1529 -0.2343
  193MOL0     O25978   7.530   6.543   6.890  0.1113  0.1167  0.3731
  193MOL0     C25979   7.410   6.591   6.828  0.6808 -0.1331 -0.2317
  193MOL0     C25980   7.291   6.570   6.922 -0.4162  0.3682 -0.4075
  193MOL0     C25981   7.163   6.622   6.853  0.4148  0.1308 -0.1826
  193MOL0     C25982   7.035   6.565   6.919 -0.2966  0.3331 -0.7310
  193MOL0     C25983   7.030   6.591   7.066 -0.2825  0.3434  0.2872
  193MOL0     C25984   7.032   6.608   7.189 -0.2315 -0.3296  0.7271
  193MOL0     C25985   7.675   6.704   6.768  1.2129 -0.4963 -0.0872
  193MOL0     C25986   7.784   6.796   6.770 -0.0759  0.4779  0.5367
  193MOL0     C25987   7.773   6.905   6.670  0.3278 -0.3467 -0.2688
  193MOL0     H25988   8.116   7.107   6.987  2.0576  3.3478 -0.1460
  193MOL0     H25989   8.297   7.222   7.120  1.9385 -0.0721  0.5519
  193MOL0     H25990   8.519   6.981   7.389 -2.0720 -0.1749  1.0530
  193MOL0     H25991   8.597   7.151   7.400  2.4417 -1.6255 -3.3257
  193MOL0     H25992   8.319   7.068   7.473 -1.4591  1.2770  1.8055
  193MOL0     H25993   8.363   7.239   7.434  1.8037  1.4238  1.8995
  193MOL0     H25994   8.497   7.277   7.614 -0.6307  0.1581 -3.1064
  193MOL0     H25995   8.505   7.106   7.658  2.4884  1.0925 -1.0409
  193MOL0     H25996   8.268   7.305   7.653  0.3616 -0.4626 -2.6969
  193MOL0     H25997   8.238   7.125   7.691 -2.6345  1.2174  0.6847
  193MOL0     H25998   8.382   7.124   7.858  0.9154  0.5957 -1.8537
  193MOL0     H25999   8.422   7.299   7.862  0.5620 -1.0911  1.0552
  193MOL0     H26000   8.154   7.181   7.916  0.3615  0.0050 -3.5478
  193MOL0     H26001   8.279   7.224   8.039  1.1521 -2.1328 -1.1421
  193MOL0     H26002   8.136   7.403   8.043 -2.1100  0.4499  0.0560
  193MOL0     H26003   8.095   7.396   7.876 -0.9285 -0.1650  1.1402
  193MOL0     H26004   8.305   7.527   7.816 -2.6920  6.7041 -0.1855
  193MOL0     H26005   8.208   7.606   7.922  0.7192  0.6472 -1.3730
  193MOL0     H26006   8.507   7.699   7.942 -3.5530 -0.4855 -1.7936
  193MOL0     H26007   8.770   7.653   8.133  0.5014 -2.2388  1.6204
  193MOL0     H26008   8.682   7.803   8.154  3.5013  0.3568  1.2119
  193MOL0     H26009   8.620   7.697   8.388 -1.5416  1.0617 -2.1425
  193MOL0     H26010   8.734   7.566   8.339  0.7221  0.1500  2.8983
  193MOL0     H26011   8.914   7.758   8.315 -1.8879 -1.6604 -1.4257
  193MOL0     H26012   8.875   7.711   8.482  2.0166  0.4082 -1.0352
  193MOL0     H26013   8.711   7.912   8.472 -0.0209 -2.0811  0.6218
  193MOL0     H26014   8.773   7.961   8.317  2.0543  1.0715  0.3424
  193MOL0     H26015   8.743   8.154   8.563 -2.6987  1.4203  2.3755
  193MOL0     H26016   8.715   8.210   8.805 -1.5415 -1.6133  0.6222
  193MOL0     H26017   8.924   8.267   9.235 -0.2884 -3.3425 -0.9071
  193MOL0     H26018   8.854   8.345   9.452  1.2457  3.1506 -2.5340
  193MOL0     H26019   8.475   8.553   9.482 -2.8910 -0.3607  1.3219
  193MOL0     H26020   8.431   8.407   9.571 -1.6467  0.9537  1.7686
  193MOL0     H26021   8.405   8.607   9.710  0.8032  2.4324  3.8396
  193MOL0     H26022   8.516   8.493   9.781 -2.4616  1.8534  1.4296
  193MOL0     H26023   8.596   8.706   9.816  0.3068  2.2472 -0.3190
  193MOL0     H26024   8.703   8.618   9.705 -0.7387 -1.2277 -2.0507
  193MOL0     H26025   8.486   8.828   9.626  0.6982  1.2752 -2.1369
  193MOL0     H26026   8.612   8.771   9.516 -1.2146  0.3922 -0.1096
  193MOL0     H26027   8.777   8.886   9.679  0.4269  0.8525  0.6058
  193MOL0     H26028   8.627   8.961   9.735  1.9499 -0.7940  0.2238
  193MOL0     H26029   8.732   8.960   9.451  1.4314 -0.5582 -0.4616
  193MOL0     H26030   8.577   9.039   9.492  0.3106 -2.3211 -1.7823
  193MOL0     H26031   8.835   9.142   9.624 -1.0071  0.7436  2.2750
  193MOL0     H26032   8.683   9.200   9.650  0.5752 -0.0164  1.6051
  193MOL0     H26033   8.846   9.246   9.411  1.4886 -1.7527  2.9078
  193MOL0     H26034   8.674   9.274   9.395 -0.5222 -2.7491  1.5637
  193MOL0     H26035   8.448   8.371   9.329 -1.2724 -1.4621 -2.5287
  193MOL0     H26036   8.509   8.256   9.116 -0.3742  1.0074 -1.0608
  193MOL0     H26037   9.045   7.949   8.900  1.9352  1.1662 -1.5209
  193MOL0     H26038   9.065   7.890   8.654 -0.4403  0.8499 -0.8800
  193MOL0     H26039   8.477   6.851   7.212  2.2172  2.7151 -0.7719
  193MOL0     H26040   8.294   6.723   7.102 -0.7942  0.3466 -1.9947
  193MOL0     H26041   7.922   6.655   7.053 -0.5415  2.0368  1.1822
  193MOL0     H26042   7.738   6.530   7.052 -1.6192 -0.0760  0.6160
  193MOL0     H26043   7.397   6.524   6.743  2.0377  1.0838 -1.4495
  193MOL0     H26044   7.405   6.697   6.800  0.0502 -0.1549 -0.2229
  193MOL0     H26045   7.305   6.622   7.017 -0.9998 -0.6144  0.2290
  193MOL0     H26046   7.279   6.462   6.932 -0.5577  0.5350  1.5338
  193MOL0     H26047   7.161   6.573   6.756 -2.6990  0.2057 -0.2524
  193MOL0     H26048   7.161   6.729   6.829  0.8224 -0.0591 -1.1137
  193MOL0     H26049   6.941   6.596   6.872 -1.4082 -0.2036  1.0425
  193MOL0     H26050   7.025   6.456   6.911 -2.6062 -0.1340  4.7080
  193MOL0     H26051   7.012   6.612   7.295 -1.6570  2.2043  0.4210
  193MOL0     H26052   7.596   6.712   6.693 -0.4478  0.2500  1.6477
  193MOL0     H26053   7.865   6.933   6.618 -1.4580  1.0704 -2.9063
  193MOL0     H26054   7.704   6.882   6.588  2.2619 -1.9618 -1.5254
  193MOL0     H26055   7.735   6.993   6.723 -0.3610  0.4795 -2.0438
  194MOL0     O26056  10.473   2.473   6.523  0.2896 -0.0993 -0.4356
  194MOL0     C26057  10.402   2.559   6.575  0.7222  0.3519  0.3880
  194MOL0     O26058  10.359   2.559   6.699 -0.2486 -0.6793  0.3163
  194MOL0     C26059  10.419   2.460   6.777 -1.0120 -0.4731  0.0595
  194MOL0     C26060  10.326   2.383   6.857  0.8443  0.4082  0.2899
  194MOL0     C26061  10.362   2.272   6.943 -0.5677  0.3394  0.2531
  194MOL0     C26062  10.498   2.248   6.953  0.0726 -0.1917 -0.3112
  194MOL0     O26063  10.533   2.148   7.043 -0.0344  0.6156 -0.1693
  194MOL0     C26064  10.661   2.086   7.041  0.0713 -0.1863  0.1378
  194MOL0     C26065  10.638   1.957   7.137  0.0682 -0.5580  0.2546
  194MOL0     C26066  10.769   1.881   7.155  0.7810 -0.2869 -0.6697
  194MOL0     C26067  10.760   1.745   7.230  0.5298 -0.8239 -1.2378
  194MOL0     C26068  10.768   1.777   7.380 -0.6307  0.2361 -0.0005
  194MOL0     C26069  10.805   1.646   7.467 -0.1987 -0.4125  0.5150
  194MOL0     C26070  10.847   1.687   7.619  0.2560 -0.2094 -0.6711
  194MOL0     C26071  10.993   1.730   7.635 -0.6300 -0.6051  0.0569
  194MOL0     N26072  11.097   1.625   7.653 -0.1039  0.0500  0.3824
  194MOL0     C26073  11.165   1.597   7.765 -0.1921 -0.6126  0.3448
  194MOL0     C26074  11.265   1.521   7.727  1.5608 -0.2245 -0.2737
  194MOL0     C26075  11.378   1.462   7.805 -0.2672  0.6433 -0.4081
  194MOL0     C26076  11.520   1.508   7.748 -0.2319 -0.0334  0.4524
  194MOL0     C26077  11.620   1.392   7.706  0.5661  0.1492  0.5299
  194MOL0     C26078  11.579   1.315   7.582  0.1514 -0.5499 -0.1941
  194MOL0     O26079  11.664   1.200   7.582 -0.4023  0.3842  0.0523
  194MOL0     C26080  11.691   1.133   7.467  0.4615 -0.5566  0.3085
  194MOL0     C26081  11.590   1.094   7.375  0.2831  0.6064  0.2496
  194MOL0     C26082  11.624   1.020   7.262 -0.5568  0.6570  1.3012
  194MOL0     C26083  11.757   0.988   7.231 -0.0261  0.4153  0.7083
  194MOL0     C26084  11.802   0.903   7.118  0.4594  0.0276  0.6388
  194MOL0     O26085  11.714   0.806   7.066  0.0162 -0.1406  0.2310
  194MOL0     C26086  11.775   0.693   7.017 -1.0493 -0.0447 -0.7531
  194MOL0     C26087  11.700   0.612   6.936  0.0811  0.5081 -0.3873
  194MOL0     C26088  11.747   0.485   6.890  0.5225  0.6994  0.8006
  194MOL0     C26089  11.866   0.431   6.933  0.5661  0.0019  0.8752
  194MOL0     O26090  11.912   0.307   6.902  0.3066 -0.2871 -0.0610
  194MOL0     C26091  11.896   0.267   6.770  0.3630  0.8141  0.1201
  194MOL0     C26092  11.994   0.160   6.715 -0.1965 -0.3478 -1.0377
  194MOL0     C26093  11.963   0.026   6.786 -0.0383  1.7367  0.0899
  194MOL0     C26094  12.070  -0.077   6.736 -1.0968  0.2831 -0.3208
  194MOL0     C26095  12.041  -0.232   6.771 -0.3030 -0.0923 -0.5945
  194MOL0     C26096  12.027  -0.254   6.918 -0.7305  0.5169 -0.0362
  194MOL0     C26097  11.930  -0.372   6.928  0.4871  0.9165 -0.9807
  194MOL0     C26098  11.916  -0.421   7.068  0.7391  0.2593 -0.5663
  194MOL0    Cl26099  11.902  -0.294   7.198 -0.5181  0.2479  0.1605
  194MOL0     C26100  11.944   0.512   7.023 -0.0349  0.4063 -0.3331
  194MOL0     C26101  11.902   0.639   7.060 -0.6744 -1.4137 -0.1547
  194MOL0     O26102  11.907   0.940   7.066  0.0178 -0.4999 -0.4293
  194MOL0     C26103  11.856   1.018   7.327  0.1399 -0.6109  1.1487
  194MOL0     C26104  11.825   1.091   7.443  0.5145  0.7377 -0.1448
  194MOL0     N26105  11.247   1.490   7.596 -0.0998  0.1096  0.1061
  194MOL0     N26106  11.146   1.549   7.560  0.0448  0.6940  0.0314
  194MOL0     C26107  10.589   2.313   6.879  0.2891  0.0395 -0.2496
  194MOL0     C26108  10.552   2.417   6.794 -0.7323  0.1264 -0.0869
  194MOL0     C26109  10.333   2.644   6.483 -0.8448  0.6148 -0.2283
  194MOL0     C26110  10.411   2.739   6.414 -0.5447 -0.5194  0.9912
  194MOL0     C26111  10.345   2.834   6.334  1.2427 -0.1002  0.9270
  194MOL0     C26112  10.206   2.823   6.315 -0.1935  0.2018  0.6104
  194MOL0     O26113  10.155   2.933   6.242 -0.4358 -0.3179  0.2589
  194MOL0     C26114  10.015   2.939   6.218  0.2167  0.3382 -0.1033
  194MOL0     C26115  10.001   3.048   6.112  0.1760  0.2161  0.9177
  194MOL0     C26116   9.863   3.067   6.054  0.5352 -1.4036 -0.0018
  194MOL0     C26117   9.855   3.151   5.928  0.1451 -0.1989  0.6489
  194MOL0     C26118   9.846   3.292   5.956 -0.4794  0.1079 -0.1433
  194MOL0     C26119   9.853   3.409   5.996  0.2550 -0.0610 -0.1413
  194MOL0     C26120  10.134   2.721   6.381  0.7347 -0.1469  0.9277
  194MOL0     C26121  10.190   2.637   6.474 -0.1043  0.0663  0.7683
  194MOL0     C26122  10.096   2.546   6.549  0.5140  0.3940  1.1762
  194MOL0     H26123  10.220   2.408   6.854  1.4272  3.0991 -1.6254
  194MOL0     H26124  10.296   2.223   7.015 -0.4506  0.4355  0.4259
  194MOL0     H26125  10.687   2.058   6.939  1.1329 -0.8411  0.5610
  194MOL0     H26126  10.735   2.149   7.091 -1.2178  0.5417  1.1629
  194MOL0     H26127  10.558   1.898   7.092 -1.0788  2.1484 -1.4944
  194MOL0     H26128  10.604   1.995   7.234 -0.9526 -2.5899  0.7580
  194MOL0     H26129  10.840   1.951   7.200 -0.3542  1.0299 -0.8377
  194MOL0     H26130  10.798   1.853   7.053  3.3235 -1.1171  0.1969
  194MOL0     H26131  10.664   1.698   7.204 -0.8248  1.9543 -1.5850
  194MOL0     H26132  10.841   1.676   7.203  2.2887 -0.0746  1.7134
  194MOL0     H26133  10.857   1.841   7.385 -2.9167  3.6480  0.4123
  194MOL0     H26134  10.693   1.842   7.427  4.6604  5.7041  2.3113
  194MOL0     H26135  10.722   1.575   7.474 -1.9452  1.4519 -0.4253
  194MOL0     H26136  10.893   1.602   7.420  1.6806  0.8639  2.6250
  194MOL0     H26137  10.829   1.601   7.683  2.0731  0.3881  0.7248
  194MOL0     H26138  10.778   1.764   7.656 -0.1276 -2.1487  3.0665
  194MOL0     H26139  11.009   1.779   7.538 -1.3568  0.9501  0.6923
  194MOL0     H26140  11.004   1.800   7.718 -2.9158  0.0122 -0.0985
  194MOL0     H26141  11.142   1.634   7.865  0.3721  2.4924 -0.5811
  194MOL0     H26142  11.373   1.489   7.911 -1.1518  0.2015 -0.3249
  194MOL0     H26143  11.372   1.353   7.807 -1.6279  0.6753 -1.2444
  194MOL0     H26144  11.499   1.585   7.673 -1.7065  0.6585  1.5226
  194MOL0     H26145  11.574   1.562   7.825  0.5703  1.1217 -0.8835
  194MOL0     H26146  11.616   1.335   7.799 -2.0913  3.3172  2.6054
  194MOL0     H26147  11.719   1.435   7.690  0.8813 -0.9023 -0.4869
  194MOL0     H26148  11.594   1.382   7.497 -2.3645  1.7612  1.0027
  194MOL0     H26149  11.473   1.287   7.583 -1.1503  3.6747  0.3402
  194MOL0     H26150  11.483   1.112   7.382 -0.5212 -3.1948 -0.3580
  194MOL0     H26151  11.548   1.000   7.188 -1.6751 -0.7539  2.7705
  194MOL0     H26152  11.601   0.646   6.908 -1.9831 -1.9788  3.1760
  194MOL0     H26153  11.679   0.438   6.820  2.7030 -1.6354  0.0911
  194MOL0     H26154  11.797   0.225   6.754  2.0563 -3.4859 -0.3136
  194MOL0     H26155  11.903   0.346   6.695  1.5179 -2.1282 -3.1286
  194MOL0     H26156  11.997   0.139   6.608  2.2265 -0.9005 -0.9208
  194MOL0     H26157  12.094   0.194   6.743  0.0191 -0.8114 -1.2308
  194MOL0     H26158  11.978   0.026   6.895  0.0885  0.2268  0.0937
  194MOL0     H26159  11.866   0.001   6.742  1.8060  0.5517 -3.6649
  194MOL0     H26160  12.163  -0.047   6.784 -0.5866 -3.8569  1.6395
  194MOL0     H26161  12.090  -0.067   6.629  4.5651 -0.4906  0.3599
  194MOL0     H26162  12.120  -0.300   6.739  1.8857  0.3485  3.2403
  194MOL0     H26163  11.952  -0.263   6.715  0.5172 -3.3223 -0.2999
  194MOL0     H26164  12.125  -0.275   6.964  1.0043  4.1500 -1.6659
  194MOL0     H26165  11.993  -0.164   6.969  1.1346  1.8944 -1.0860
  194MOL0     H26166  11.961  -0.453   6.862 -1.2776 -0.1752 -0.5382
  194MOL0     H26167  11.833  -0.332   6.896 -0.3535  1.3893  1.8562
  194MOL0     H26168  11.831  -0.490   7.073  2.3931 -1.8754 -0.6857
  194MOL0     H26169  12.015  -0.467   7.077 -0.3079 -2.3370 -1.2439
  194MOL0     H26170  12.030   0.464   7.067 -0.4326 -0.9377 -0.9612
  194MOL0     H26171  11.956   0.691   7.139  0.5315 -0.7533 -1.3736
  194MOL0     H26172  11.956   0.976   7.315  0.5059 -0.1725  2.4618
  194MOL0     H26173  11.894   1.092   7.527  1.9781 -0.3142 -1.2761
  194MOL0     H26174  10.692   2.279   6.886 -0.3340 -2.7012 -2.2310
  194MOL0     H26175  10.633   2.453   6.731 -3.7904  2.7982 -2.7924
  194MOL0     H26176  10.518   2.742   6.432 -1.0062  1.1298  4.3732
  194MOL0     H26177  10.400   2.907   6.274  2.2932 -2.5087 -1.2578
  194MOL0     H26178   9.950   2.971   6.300 -0.7213 -1.5192 -0.0650
  194MOL0     H26179   9.989   2.841   6.176  0.2344  0.7303 -1.0293
  194MOL0     H26180  10.054   3.017   6.022 -2.2342 -0.9069 -0.2178
  194MOL0     H26181  10.045   3.140   6.149  3.2209 -0.4735 -0.7067
  194MOL0     H26182   9.793   3.108   6.127 -0.7517  0.7079 -2.2329
  194MOL0     H26183   9.827   2.966   6.035  0.9771 -1.8838  1.6130
  194MOL0     H26184   9.948   3.123   5.877  0.1207  0.3369  0.3065
  194MOL0     H26185   9.771   3.115   5.869 -0.0158  0.1618  0.6593
  194MOL0     H26186   9.847   3.514   6.015  1.0241 -0.3098  1.7164
  194MOL0     H26187  10.029   2.698   6.366  0.5239  0.8128  0.8722
  194MOL0     H26188   9.993   2.575   6.526  1.1223  1.2852 -0.6081
  194MOL0     H26189  10.113   2.444   6.514  2.6461  1.2191 -0.4479
  194MOL0     H26190  10.112   2.564   6.655  1.5742 -0.6393  1.2177
  195MOL0     O26191   3.238  10.882   4.889 -0.3297 -0.8712 -0.7805
  195MOL0     C26192   3.255  10.957   4.795  0.6558  0.8707  0.5055
  195MOL0     O26193   3.152  11.010   4.718  0.3346 -0.0855  0.4420
  195MOL0     C26194   3.022  11.000   4.748 -0.0955 -0.0492 -0.6931
  195MOL0     C26195   2.950  10.923   4.850 -0.4235 -0.7779  0.4542
  195MOL0     C26196   2.811  10.926   4.842 -0.8088 -0.2986  0.1760
  195MOL0     C26197   2.739  10.984   4.737 -1.2896  0.7659 -0.3581
  195MOL0     O26198   2.603  10.976   4.745 -0.9055  0.6177  0.2354
  195MOL0     C26199   2.520  10.990   4.629  0.5305 -1.0074  0.1237
  195MOL0     C26200   2.370  10.967   4.659 -0.4296  0.0737  0.2573
  195MOL0     C26201   2.310  11.046   4.773  0.0064 -1.0895  0.0224
  195MOL0     C26202   2.258  11.181   4.739 -0.1214  0.1872 -0.2240
  195MOL0     C26203   2.189  11.259   4.855 -0.4013 -0.7029 -0.0569
  195MOL0     C26204   2.284  11.273   4.975  0.5891 -0.1756  0.1577
  195MOL0     C26205   2.408  11.362   4.953 -0.0343 -0.1837 -0.2118
  195MOL0     C26206   2.504  11.369   5.081 -0.0375 -0.7990 -0.5592
  195MOL0     N26207   2.454  11.464   5.189  0.3052  0.5270  0.3527
  195MOL0     C26208   2.455  11.599   5.180  0.5474 -0.0047 -0.0042
  195MOL0     C26209   2.395  11.629   5.300  0.1637 -0.5205  0.5446
  195MOL0     C26210   2.385  11.764   5.357  0.9212 -0.5931  0.7647
  195MOL0     C26211   2.235  11.785   5.367 -0.4072  0.3694 -0.1304
  195MOL0     C26212   2.191  11.909   5.439  0.3554 -1.4630  0.9120
  195MOL0     C26213   2.048  11.919   5.482  0.0658  0.1043 -0.1686
  195MOL0     O26214   1.991  12.052   5.446  0.3587 -0.1833  0.3365
  195MOL0     C26215   1.861  12.073   5.449  0.4051  0.3106  0.2810
  195MOL0     C26216   1.769  11.974   5.485 -0.3299 -0.3882  0.0428
  195MOL0     C26217   1.629  11.996   5.494  0.1345  0.1640 -0.1713
  195MOL0     C26218   1.578  12.125   5.472 -0.6216  0.8915 -0.0544
  195MOL0     C26219   1.436  12.158   5.493  0.8080  0.2820 -0.2998
  195MOL0     O26220   1.358  12.057   5.540 -0.3970  0.6849 -1.0937
  195MOL0     C26221   1.224  12.081   5.544  0.2833 -0.2600  0.5221
  195MOL0     C26222   1.155  12.155   5.649  0.2233  0.2625 -0.5016
  195MOL0     C26223   1.028  12.207   5.645  0.4918  0.2537 -0.3338
  195MOL0     C26224   0.957  12.182   5.526  0.1876  0.0052 -1.3571
  195MOL0     O26225   0.818  12.219   5.530 -0.3518 -0.2622 -0.2355
  195MOL0     C26226   0.732  12.115   5.480  0.8034 -0.5304  0.4891
  195MOL0     C26227   0.589  12.166   5.467 -0.9689  0.9604  1.0687
  195MOL0     C26228   0.534  12.222   5.596 -0.5979  0.2188 -0.3343
  195MOL0     C26229   0.519  12.108   5.700  0.7305 -0.8494  0.5249
  195MOL0     C26230   0.432  12.153   5.816 -0.0570  0.0646 -0.1925
  195MOL0     C26231   0.283  12.153   5.776  0.6036 -0.2444 -0.0675
  195MOL0     C26232   0.198  12.068   5.868 -0.6625  0.0298 -0.8178
  195MOL0     C26233   0.054  12.059   5.832 -0.0654  0.0833  0.1653
  195MOL0    Cl26234  -0.028  11.985   5.970 -0.0931  0.2129 -0.5472
  195MOL0     C26235   1.023  12.120   5.417 -0.0563  0.7489  0.6230
  195MOL0     C26236   1.154  12.063   5.425 -0.5883  0.5479 -0.2302
  195MOL0     O26237   1.404  12.277   5.482 -0.2068  0.4970 -0.2623
  195MOL0     C26238   1.674  12.217   5.430  0.1458 -1.6074 -0.2433
  195MOL0     C26239   1.808  12.199   5.413 -0.1826  0.5475 -0.7895
  195MOL0     N26240   2.366  11.509   5.364 -0.6899  0.0266  0.3422
  195MOL0     N26241   2.400  11.408   5.294 -0.0836  0.1904 -0.1691
  195MOL0     C26242   2.806  11.056   4.642  0.2108 -0.8988 -0.1171
  195MOL0     C26243   2.948  11.060   4.647  0.2005  0.2262  0.5546
  195MOL0     C26244   3.394  10.992   4.756  0.5856 -1.3126 -0.1309
  195MOL0     C26245   3.417  11.021   4.620  0.0297  0.5192  0.0248
  195MOL0     C26246   3.546  11.054   4.577 -0.5658  0.1200 -0.2148
  195MOL0     C26247   3.659  11.057   4.665 -1.0047 -0.0744  0.2377
  195MOL0     O26248   3.784  11.105   4.620  0.4688 -0.0673 -0.1322
  195MOL0     C26249   3.802  11.161   4.487 -0.5754  0.6147 -0.0665
  195MOL0     C26250   3.945  11.198   4.472 -0.8310 -0.6651  0.2362
  195MOL0     C26251   3.974  11.302   4.584 -0.5223 -0.0229 -0.1081
  195MOL0     C26252   3.928  11.454   4.557 -0.1719 -0.3168  0.2405
  195MOL0     C26253   3.982  11.503   4.433  0.6164 -1.0542 -0.6446
  195MOL0     C26254   4.013  11.561   4.329 -0.7410 -0.6558 -0.8114
  195MOL0     C26255   3.622  11.036   4.801 -0.5414  0.9356 -0.4921
  195MOL0     C26256   3.495  11.004   4.847  0.5291 -0.2628 -0.9048
  195MOL0     C26257   3.481  10.981   5.003  0.3240 -1.0297  0.0598
  195MOL0     H26258   3.002  10.867   4.926  1.7848  2.0530  1.1924
  195MOL0     H26259   2.756  10.881   4.924  0.4460  0.0327  1.2137
  195MOL0     H26260   2.519  11.090   4.587  1.0945 -0.4234  1.4225
  195MOL0     H26261   2.551  10.918   4.552 -0.0797  0.5662 -1.6622
  195MOL0     H26262   2.364  10.860   4.682  1.3451 -0.5212 -1.7223
  195MOL0     H26263   2.325  10.990   4.562  1.6540 -0.6369 -0.9436
  195MOL0     H26264   2.389  11.063   4.847  0.9576 -0.4836 -1.1202
  195MOL0     H26265   2.237  10.975   4.814 -1.0822 -1.6848 -2.7664
  195MOL0     H26266   2.337  11.240   4.691 -0.0297 -0.9137 -1.4985
  195MOL0     H26267   2.188  11.166   4.655  1.5354 -0.7790 -1.4924
  195MOL0     H26268   2.164  11.355   4.810 -0.0069 -1.9692 -3.2915
  195MOL0     H26269   2.104  11.196   4.883  1.3068 -2.3440  1.6785
  195MOL0     H26270   2.236  11.322   5.060 -1.1261  1.3399 -1.5945
  195MOL0     H26271   2.323  11.178   5.013  0.4056  0.3057  1.6250
  195MOL0     H26272   2.376  11.458   4.910 -1.4458 -1.2508 -1.6916
  195MOL0     H26273   2.461  11.312   4.872  0.4398 -1.1816  0.7046
  195MOL0     H26274   2.519  11.271   5.126  0.4201 -1.3005 -1.7779
  195MOL0     H26275   2.606  11.392   5.050  0.8861 -2.7966  0.8126
  195MOL0     H26276   2.499  11.656   5.098 -3.3457  0.9020 -1.7045
  195MOL0     H26277   2.435  11.769   5.454 -1.4155 -0.7187  2.0502
  195MOL0     H26278   2.426  11.847   5.299  0.5234 -0.3061  0.8846
  195MOL0     H26279   2.197  11.786   5.265  2.0077  0.7171 -1.0984
  195MOL0     H26280   2.186  11.698   5.410 -2.5516 -0.8476 -4.4997
  195MOL0     H26281   2.209  11.996   5.376  1.7994 -1.0473  1.8427
  195MOL0     H26282   2.252  11.926   5.528  1.0044 -0.3128  0.2743
  195MOL0     H26283   2.033  11.885   5.585 -0.6914 -1.7892 -0.8603
  195MOL0     H26284   1.984  11.855   5.421 -2.1033  0.3404  1.6882
  195MOL0     H26285   1.805  11.873   5.499  1.3514 -0.0661 -1.5865
  195MOL0     H26286   1.568  11.911   5.522 -1.2993  1.3150  0.3863
  195MOL0     H26287   1.205  12.173   5.744 -2.5247 -1.6299  1.4597
  195MOL0     H26288   0.979  12.261   5.725  0.5374  2.9549 -1.9865
  195MOL0     H26289   0.757  12.073   5.382 -2.7800 -0.4823 -0.6204
  195MOL0     H26290   0.715  12.036   5.554 -2.8994 -0.5796 -0.2181
  195MOL0     H26291   0.586  12.241   5.387 -1.7849 -2.4049 -2.3305
  195MOL0     H26292   0.521  12.085   5.440 -1.4186  1.2406  1.3580
  195MOL0     H26293   0.608  12.292   5.637  1.5683 -0.4713 -2.7943
  195MOL0     H26294   0.446  12.283   5.576  0.7818  2.2074 -0.6521
  195MOL0     H26295   0.612  12.062   5.735  0.6923 -1.3040  0.0390
  195MOL0     H26296   0.467  12.026   5.650  0.4342 -0.2020 -0.2579
  195MOL0     H26297   0.464  12.249   5.860  0.4258 -0.6620  1.1228
  195MOL0     H26298   0.444  12.093   5.907 -0.2713 -0.4517 -0.5015
  195MOL0     H26299   0.250  12.257   5.785  0.7309 -0.2892  1.2076
  195MOL0     H26300   0.265  12.109   5.678 -2.2794  0.0660  0.2364
  195MOL0     H26301   0.197  12.120   5.964 -0.0040 -0.4721 -0.5273
  195MOL0     H26302   0.237  11.966   5.883 -1.3361  0.0336  1.2930
  195MOL0     H26303   0.012  12.159   5.814  0.7738  0.7982  1.9463
  195MOL0     H26304   0.036  12.005   5.739 -2.0850 -1.1381  1.2038
  195MOL0     H26305   0.971  12.101   5.323 -1.2212  0.6221  1.2664
  195MOL0     H26306   1.196  12.025   5.333  1.8685  0.6965  0.7520
  195MOL0     H26307   1.635  12.317   5.414  1.1866 -1.0709  0.4481
  195MOL0     H26308   1.872  12.283   5.389 -2.6479  2.4445 -1.0323
  195MOL0     H26309   2.755  11.115   4.567  1.1512  1.9259  1.2939
  195MOL0     H26310   3.001  11.126   4.579 -0.8173 -0.7290 -1.2492
  195MOL0     H26311   3.334  11.020   4.550  0.6659 -0.7256 -0.7277
  195MOL0     H26312   3.558  11.093   4.477  1.0327 -1.9963 -0.9188
  195MOL0     H26313   3.731  11.241   4.463  0.9321  1.0646 -3.7282
  195MOL0     H26314   3.781  11.094   4.403 -0.6579  1.3342 -0.6351
  195MOL0     H26315   3.963  11.250   4.378  0.8609  2.4689  2.1114
  195MOL0     H26316   4.012  11.112   4.479 -0.4476 -0.4565 -0.7049
  195MOL0     H26317   4.084  11.301   4.587 -0.4330 -0.7855 -2.1306
  195MOL0     H26318   3.949  11.271   4.686 -2.0648  0.2118 -0.3890
  195MOL0     H26319   3.822  11.465   4.536 -0.0214 -0.0621 -0.4001
  195MOL0     H26320   3.965  11.515   4.640  2.6990  0.3282 -1.3637
  195MOL0     H26321   4.048  11.608   4.240  2.4155 -1.7462 -0.2693
  195MOL0     H26322   3.705  11.045   4.870  0.1397 -1.5239 -0.8989
  195MOL0     H26323   3.389  11.034   5.028  1.4666  0.1327  1.9930
  195MOL0     H26324   3.472  10.873   5.019 -1.1573 -0.7012  1.7503
  195MOL0     H26325   3.563  11.017   5.065 -0.4994  1.4970 -0.2094
  196MOL0     O26326   5.569   6.682   6.828 -0.1309 -0.0132 -1.1412
  196MOL0     C26327   5.654   6.756   6.889 -0.1578  0.8429 -0.5101
  196MOL0     O26328   5.698   6.877   6.851  0.4220 -0.1155 -0.1660
  196MOL0     C26329   5.646   6.949   6.747  0.0758 -0.0827 -0.0052
  196MOL0     C26330   5.649   7.089   6.757  0.6955  1.2186 -0.0641
  196MOL0     C26331   5.593   7.170   6.663  0.0189  0.3565  0.5738
  196MOL0     C26332   5.529   7.111   6.553  0.0309  0.3125  0.3806
  196MOL0     O26333   5.469   7.181   6.455  0.5325 -0.0695 -0.1141
  196MOL0     C26334   5.386   7.288   6.506  0.0237 -0.4610  0.6550
  196MOL0     C26335   5.287   7.321   6.399 -0.4022 -0.2083  0.7227
  196MOL0     C26336   5.194   7.203   6.375 -0.1803  0.6386 -0.5948
  196MOL0     C26337   5.062   7.211   6.462 -0.6082 -0.3748 -0.0773
  196MOL0     C26338   4.944   7.278   6.389 -0.5900  0.0820  0.0383
  196MOL0     C26339   4.977   7.423   6.359  0.2103  0.6456  0.3385
  196MOL0     C26340   4.866   7.475   6.266 -0.4030  0.0953 -0.0007
  196MOL0     C26341   4.731   7.495   6.334 -0.5100 -0.0097  0.0986
  196MOL0     N26342   4.740   7.609   6.427 -0.7929  0.5403 -0.2824
  196MOL0     C26343   4.808   7.724   6.418 -0.4582 -0.0992  0.5874
  196MOL0     C26344   4.768   7.794   6.524 -0.0563 -1.2023  0.3729
  196MOL0     C26345   4.824   7.918   6.570 -0.0064  0.2839 -1.0842
  196MOL0     C26346   4.962   7.915   6.619 -0.1645  0.0890 -0.2447
  196MOL0     C26347   5.033   8.062   6.607  0.2349  0.8722  0.4592
  196MOL0     C26348   5.186   8.056   6.625 -0.9154 -0.0316  0.6402
  196MOL0     O26349   5.250   8.027   6.502  0.0945 -1.2763 -0.1547
  196MOL0     C26350   5.383   8.037   6.501  0.2082  0.0191 -0.1500
  196MOL0     C26351   5.453   8.061   6.376 -0.5953 -0.6486  0.5725
  196MOL0     C26352   5.589   8.057   6.358  0.0283  0.4408 -0.3069
  196MOL0     C26353   5.665   8.051   6.481  0.3420  0.3050  0.6487
  196MOL0     C26354   5.813   8.056   6.480  0.4261 -0.6587 -0.2508
  196MOL0     O26355   5.875   7.981   6.582  0.0647  0.3930 -0.1274
  196MOL0     C26356   6.011   8.001   6.601  0.6258 -0.5915  0.4707
  196MOL0     C26357   6.042   8.127   6.638  0.0122 -0.7773  0.2408
  196MOL0     C26358   6.171   8.156   6.673 -0.8380 -0.6849 -0.0149
  196MOL0     C26359   6.270   8.050   6.690 -0.5469 -0.0118  0.6847
  196MOL0     O26360   6.405   8.074   6.720 -0.4352  0.0499  0.0536
  196MOL0     C26361   6.458   8.208   6.738  0.4013 -0.2255  0.3103
  196MOL0     C26362   6.483   8.273   6.599 -0.0422  0.6935 -0.5157
  196MOL0     C26363   6.572   8.186   6.504 -0.5009  0.2375 -1.1193
  196MOL0     C26364   6.636   8.259   6.384 -0.5010  0.6355 -0.5457
  196MOL0     C26365   6.779   8.309   6.426 -0.3406 -0.1930 -0.1717
  196MOL0     C26366   6.779   8.430   6.529 -0.5585 -2.2277 -0.3615
  196MOL0     C26367   6.924   8.501   6.550  0.5121  0.3500 -0.5308
  196MOL0     C26368   6.913   8.596   6.671  0.1865 -0.7707  0.0460
  196MOL0    Cl26369   7.068   8.646   6.740  0.2680 -0.3408 -0.2418
  196MOL0     C26370   6.230   7.922   6.656 -0.4149  0.0659  0.3848
  196MOL0     C26371   6.108   7.892   6.611 -0.1905 -0.2935 -0.3186
  196MOL0     O26372   5.870   8.127   6.401 -0.3378 -0.1117 -0.0022
  196MOL0     C26373   5.606   8.046   6.601  0.7541 -0.4625 -0.4875
  196MOL0     C26374   5.464   8.042   6.614 -0.0567 -0.4854  0.1355
  196MOL0     N26375   4.695   7.718   6.609 -0.0165  0.8154  0.5387
  196MOL0     N26376   4.681   7.612   6.544 -0.1415 -0.0035  0.3638
  196MOL0     C26377   5.524   6.970   6.541 -0.0527  0.0081 -0.4296
  196MOL0     C26378   5.592   6.888   6.634  0.2674 -0.0745 -1.2977
  196MOL0     C26379   5.699   6.703   7.027 -0.7285 -0.9473 -0.4839
  196MOL0     C26380   5.680   6.787   7.141  0.4918  0.6562 -0.1910
  196MOL0     C26381   5.689   6.747   7.278  0.0316  0.8043  0.4322
  196MOL0     C26382   5.729   6.615   7.306  1.4236 -0.3030 -0.4242
  196MOL0     O26383   5.760   6.574   7.426 -0.2586 -0.2222  0.4476
  196MOL0     C26384   5.665   6.591   7.521 -0.2499 -0.0882 -0.0338
  196MOL0     C26385   5.669   6.490   7.633  0.7630 -0.0865 -0.6239
  196MOL0     C26386   5.583   6.370   7.585  0.7289 -0.1781  0.5641
  196MOL0     C26387   5.625   6.260   7.663  0.2934  0.2026 -0.3511
  196MOL0     C26388   5.515   6.169   7.681 -0.4701 -0.0212 -0.3784
  196MOL0     C26389   5.432   6.089   7.700  0.9195  0.4449 -0.5940
  196MOL0     C26390   5.760   6.538   7.198  0.5071 -0.6700 -0.9035
  196MOL0     C26391   5.747   6.573   7.060 -0.5640 -0.9437 -0.7308
  196MOL0     C26392   5.773   6.476   6.948 -0.3814 -0.6402 -0.3500
  196MOL0     H26393   5.698   7.130   6.844  1.3768 -1.9403  1.1575
  196MOL0     H26394   5.599   7.278   6.667 -1.6482  0.5614 -1.2223
  196MOL0     H26395   5.328   7.261   6.594  1.9925  0.4399  2.3329
  196MOL0     H26396   5.452   7.375   6.522  1.3593 -1.7817  2.7868
  196MOL0     H26397   5.325   7.356   6.303 -2.3929 -3.0017 -1.2165
  196MOL0     H26398   5.230   7.402   6.445  0.2218 -1.4864  4.0186
  196MOL0     H26399   5.236   7.103   6.386 -1.2405  0.1082 -1.2640
  196MOL0     H26400   5.162   7.215   6.272  1.4417 -0.4643 -1.2721
  196MOL0     H26401   5.040   7.107   6.487  0.1026 -0.9795 -1.8355
  196MOL0     H26402   5.084   7.274   6.549 -1.9476  0.6415 -0.4441
  196MOL0     H26403   4.919   7.225   6.296  0.4108 -0.2866 -0.0369
  196MOL0     H26404   4.855   7.273   6.453 -0.2478 -0.1066  0.5049
  196MOL0     H26405   4.990   7.489   6.446  1.5800  1.9296 -0.7681
  196MOL0     H26406   5.070   7.429   6.302  1.2549 -0.5649  1.8193
  196MOL0     H26407   4.844   7.396   6.194 -0.7530  1.5582 -1.5555
  196MOL0     H26408   4.894   7.566   6.213  0.4105  1.3339  2.4160
  196MOL0     H26409   4.653   7.527   6.264 -0.9767 -3.0862 -0.9162
  196MOL0     H26410   4.687   7.403   6.374  0.5039 -0.2742  0.6353
  196MOL0     H26411   4.878   7.765   6.346 -1.8727  0.9087 -0.2681
  196MOL0     H26412   4.815   7.994   6.492  1.9462 -0.1422 -1.7613
  196MOL0     H26413   4.756   7.946   6.651 -0.2220 -0.4590 -1.0039
  196MOL0     H26414   4.972   7.880   6.722 -0.3846 -2.2896 -0.9601
  196MOL0     H26415   5.013   7.837   6.560 -1.0083 -0.3437 -0.4163
  196MOL0     H26416   4.990   8.113   6.694  1.3883 -0.5720  1.9397
  196MOL0     H26417   5.010   8.111   6.512  2.4858 -0.3142 -0.7856
  196MOL0     H26418   5.207   7.974   6.694 -0.7789  0.3462  1.0517
  196MOL0     H26419   5.227   8.151   6.659 -0.6340 -0.0789  0.4351
  196MOL0     H26420   5.400   8.087   6.285  1.0517  1.8152  0.2271
  196MOL0     H26421   5.633   8.059   6.259  1.5761 -1.2562  0.2930
  196MOL0     H26422   5.971   8.209   6.636  1.1644  0.2345 -0.2514
  196MOL0     H26423   6.209   8.252   6.706  2.0791 -1.3469 -1.1643
  196MOL0     H26424   6.389   8.268   6.798  0.6817  2.8951 -2.2707
  196MOL0     H26425   6.552   8.197   6.793 -1.3031 -3.7256  2.9032
  196MOL0     H26426   6.388   8.288   6.547 -0.0270  2.1418 -0.1775
  196MOL0     H26427   6.522   8.375   6.603  1.2993  0.1528  1.9350
  196MOL0     H26428   6.646   8.141   6.571 -3.9828 -1.6229  1.7860
  196MOL0     H26429   6.513   8.110   6.453 -0.4678  0.8940 -2.1606
  196MOL0     H26430   6.564   8.327   6.337 -0.1509 -0.3872 -2.6640
  196MOL0     H26431   6.659   8.186   6.306  1.3366  1.2728 -0.6478
  196MOL0     H26432   6.821   8.350   6.334  1.7209 -0.7960  0.4412
  196MOL0     H26433   6.833   8.226   6.473 -2.6947 -0.7633  1.7206
  196MOL0     H26434   6.713   8.514   6.506  1.3547 -0.0836  1.4579
  196MOL0     H26435   6.747   8.392   6.626  0.9532  2.8764  2.4976
  196MOL0     H26436   6.955   8.553   6.459  3.6704 -3.1630 -1.7228
  196MOL0     H26437   6.995   8.420   6.572 -1.0454 -0.6132  1.2651
  196MOL0     H26438   6.869   8.692   6.646  1.1780  0.1788  1.7120
  196MOL0     H26439   6.863   8.544   6.754  2.6794 -0.0292  2.1497
  196MOL0     H26440   6.305   7.844   6.667 -1.8444 -2.0796 -3.2119
  196MOL0     H26441   6.072   7.792   6.594 -1.2111  0.0102 -0.0219
  196MOL0     H26442   5.661   8.010   6.687 -2.4195 -2.3416  0.9067
  196MOL0     H26443   5.425   8.015   6.711 -1.3983 -3.1064 -1.0185
  196MOL0     H26444   5.486   6.915   6.456  2.5270 -0.6583 -1.2428
  196MOL0     H26445   5.593   6.783   6.609  1.1439 -0.3459 -0.2193
  196MOL0     H26446   5.633   6.884   7.124 -1.6851 -0.0481  1.4079
  196MOL0     H26447   5.675   6.823   7.354  0.8974  2.3093 -0.8540
  196MOL0     H26448   5.565   6.586   7.476 -1.7227 -2.7122  3.1007
  196MOL0     H26449   5.686   6.687   7.567 -0.2654  0.8255 -1.8354
  196MOL0     H26450   5.626   6.535   7.722  0.0255 -0.1319 -0.9479
  196MOL0     H26451   5.774   6.461   7.648  0.8677  0.4626 -0.2649
  196MOL0     H26452   5.598   6.343   7.481  0.3086  0.5043  0.3151
  196MOL0     H26453   5.476   6.393   7.592  0.9282  0.8088  0.5453
  196MOL0     H26454   5.700   6.194   7.619 -1.7981 -2.7710  0.1893
  196MOL0     H26455   5.665   6.293   7.759  1.8128  2.2487 -1.5984
  196MOL0     H26456   5.351   6.019   7.714  1.4613  0.0393  0.6640
  196MOL0     H26457   5.798   6.439   7.222  3.0155  0.2113 -0.8914
  196MOL0     H26458   5.688   6.408   6.955 -0.6576 -0.6107 -2.6920
  196MOL0     H26459   5.775   6.515   6.846  1.9106 -2.0433 -0.9295
  196MOL0     H26460   5.868   6.422   6.959 -3.2318 -6.7837 -1.8592
  197MOL0     O26461   1.781   0.094   5.549 -0.1346 -0.0904 -0.1337
  197MOL0     C26462   1.902   0.066   5.546  0.2756  0.5213  0.4796
  197MOL0     O26463   1.982   0.076   5.430 -0.7393 -0.2369  0.6669
  197MOL0     C26464   1.923   0.070   5.304  0.0985  0.7177  0.0052
  197MOL0     C26465   2.010   0.035   5.203  0.3098 -1.0745 -0.3540
  197MOL0     C26466   1.973   0.015   5.071  0.0106  1.1379 -0.8182
  197MOL0     C26467   1.830   0.014   5.037  1.0055  0.0769  0.0076
  197MOL0     O26468   1.781  -0.025   4.917 -0.5279 -0.5436  0.0777
  197MOL0     C26469   1.659  -0.098   4.918 -0.2705 -0.4043 -0.3835
  197MOL0     C26470   1.643  -0.155   4.778  0.3226  0.3901 -1.1764
  197MOL0     C26471   1.745  -0.271   4.736  0.9002 -1.0181  0.2071
  197MOL0     C26472   1.709  -0.313   4.584 -0.2429  0.1950  0.8270
  197MOL0     C26473   1.808  -0.419   4.526 -0.4985  0.1761  0.4834
  197MOL0     C26474   1.862  -0.532   4.619 -0.0999 -0.0084 -0.4436
  197MOL0     C26475   1.754  -0.622   4.693  0.4604  0.4049 -0.7763
  197MOL0     C26476   1.811  -0.705   4.816  1.0965 -0.6626  0.1236
  197MOL0     N26477   1.892  -0.624   4.902  0.4204  0.3265 -0.6313
  197MOL0     C26478   1.845  -0.540   5.002 -0.5817 -0.0724  0.0728
  197MOL0     C26479   1.957  -0.495   5.067  0.3050  0.5192 -0.3785
  197MOL0     C26480   1.980  -0.415   5.196  0.1889 -0.2624  0.3921
  197MOL0     C26481   1.843  -0.375   5.249 -0.0639 -0.0516  0.0474
  197MOL0     C26482   1.862  -0.320   5.392  0.6135 -0.0890  0.1475
  197MOL0     C26483   1.724  -0.303   5.459  0.1659  0.5802  0.4662
  197MOL0     O26484   1.645  -0.208   5.376 -0.7033 -0.6949  0.2705
  197MOL0     C26485   1.515  -0.243   5.351  0.2218  0.1424 -0.0610
  197MOL0     C26486   1.457  -0.192   5.238 -0.8154  0.1978  1.1711
  197MOL0     C26487   1.324  -0.206   5.200 -0.1415  0.1230  1.1607
  197MOL0     C26488   1.248  -0.296   5.275  0.6658  0.1599 -0.1324
  197MOL0     C26489   1.112  -0.333   5.223 -0.2985 -0.7588  0.8686
  197MOL0     O26490   1.099  -0.369   5.089 -0.1507 -0.3600  0.1673
  197MOL0     C26491   0.982  -0.440   5.053  0.3485 -0.4476 -0.1789
  197MOL0     C26492   0.935  -0.555   5.119  0.4264  0.1105 -0.4979
  197MOL0     C26493   0.816  -0.616   5.085 -0.8237 -0.5777 -0.2543
  197MOL0     C26494   0.742  -0.562   4.977 -0.7428 -0.7049  0.3831
  197MOL0     O26495   0.620  -0.612   4.950 -0.5091 -0.0161  0.2824
  197MOL0     C26496   0.513  -0.580   5.039  0.0608 -0.1589 -1.5824
  197MOL0     C26497   0.455  -0.719   5.085 -0.5917  0.6343  0.0435
  197MOL0     C26498   0.316  -0.705   5.133  0.1580 -0.0701  0.0168
  197MOL0     C26499   0.264  -0.840   5.174 -0.8000  0.2113 -0.3195
  197MOL0     C26500   0.107  -0.838   5.166  1.4467 -0.6315 -0.4229
  197MOL0     C26501   0.052  -0.977   5.207 -0.8391 -0.2566  0.1171
  197MOL0     C26502  -0.096  -0.979   5.192 -0.4408 -1.1255  0.4866
  197MOL0     C26503  -0.132  -1.124   5.159 -0.7933 -0.3742 -0.1806
  197MOL0    Cl26504  -0.314  -1.139   5.122  0.3248  0.2122 -0.0473
  197MOL0     C26505   0.795  -0.464   4.896 -0.3056 -0.7421  0.2209
  197MOL0     C26506   0.920  -0.400   4.936  0.1142  0.9815  0.0938
  197MOL0     O26507   1.020  -0.337   5.299  0.7117  0.0474  0.9069
  197MOL0     C26508   1.291  -0.346   5.403 -0.5147  0.6348 -0.8499
  197MOL0     C26509   1.429  -0.321   5.441 -0.0726  0.2367  0.1014
  197MOL0     N26510   2.064  -0.550   4.996 -0.3338  0.4106  0.0777
  197MOL0     N26511   2.026  -0.623   4.902 -0.2078  0.4028 -0.0001
  197MOL0     C26512   1.741   0.063   5.135 -0.1112 -0.1743 -0.0413
  197MOL0     C26513   1.780   0.076   5.271  0.0841  0.4088  0.5889
  197MOL0     C26514   1.970   0.012   5.670  0.4963  0.6399  0.7243
  197MOL0     C26515   2.105  -0.010   5.652  0.8101 -0.0196 -0.3470
  197MOL0     C26516   2.184  -0.045   5.761 -0.0699 -1.4048 -0.4567
  197MOL0     C26517   2.126  -0.057   5.896 -0.0203 -0.6565  0.8040
  197MOL0     O26518   2.197  -0.054   6.015 -0.4273  0.2475 -1.1023
  197MOL0     C26519   2.337  -0.041   5.998  0.2127 -0.0528  0.0147
  197MOL0     C26520   2.407  -0.080   6.127  0.1436 -0.2613 -0.2386
  197MOL0     C26521   2.552  -0.054   6.159 -0.9959  0.3153  0.1960
  197MOL0     C26522   2.651  -0.152   6.093 -0.8170  0.1939 -0.0439
  197MOL0     C26523   2.675  -0.115   5.954 -0.0318 -0.1689 -0.0570
  197MOL0     C26524   2.671  -0.099   5.833 -0.5963 -0.1635 -0.5718
  197MOL0     C26525   1.991  -0.042   5.906  0.5746 -0.0238 -0.6325
  197MOL0     C26526   1.911  -0.022   5.794  1.0795 -0.8859 -0.6676
  197MOL0     C26527   1.756  -0.030   5.817 -0.9904  0.6374 -0.2652
  197MOL0     H26528   2.113   0.058   5.227 -0.4579  0.4542  1.6718
  197MOL0     H26529   2.057  -0.006   5.006  1.4077 -0.4822  1.3816
  197MOL0     H26530   1.647  -0.182   4.987  0.7998 -0.0113  0.3114
  197MOL0     H26531   1.581  -0.022   4.936 -0.4181 -0.6487  0.0301
  197MOL0     H26532   1.650  -0.071   4.709  1.8698 -0.3957 -2.0247
  197MOL0     H26533   1.550  -0.213   4.769  1.5415 -2.8572  3.4384
  197MOL0     H26534   1.732  -0.352   4.808 -0.9641  1.5527  2.9703
  197MOL0     H26535   1.850  -0.242   4.746  1.3046 -2.0337 -0.7946
  197MOL0     H26536   1.612  -0.362   4.572  1.1174 -2.7411  0.9282
  197MOL0     H26537   1.709  -0.229   4.514 -1.3704  1.4779  2.2782
  197MOL0     H26538   1.759  -0.481   4.451 -1.4576 -1.3724  2.2968
  197MOL0     H26539   1.895  -0.363   4.488  0.8821 -0.4243  2.5696
  197MOL0     H26540   1.934  -0.596   4.568  1.5445  0.0831  1.6208
  197MOL0     H26541   1.903  -0.475   4.703 -0.4995 -0.7701  0.2819
  197MOL0     H26542   1.690  -0.685   4.631 -0.8536  0.2822  0.6513
  197MOL0     H26543   1.670  -0.558   4.720  0.0227 -0.8580  1.0636
  197MOL0     H26544   1.735  -0.739   4.887  0.2834 -0.0738 -0.4407
  197MOL0     H26545   1.872  -0.783   4.769 -0.2222 -0.4168 -2.1299
  197MOL0     H26546   1.742  -0.518   5.027 -0.0843  2.0088  0.5132
  197MOL0     H26547   2.045  -0.459   5.272  3.2586  0.7098 -1.4884
  197MOL0     H26548   2.032  -0.322   5.173  0.1392 -0.6146 -1.2978
  197MOL0     H26549   1.794  -0.304   5.181  3.4900  0.3558 -2.4089
  197MOL0     H26550   1.772  -0.457   5.258 -1.1803  0.9185  0.3502
  197MOL0     H26551   1.915  -0.225   5.397  0.2222  0.0979  0.8175
  197MOL0     H26552   1.918  -0.386   5.459 -0.3478  0.4872  1.5651
  197MOL0     H26553   1.740  -0.259   5.558 -0.7215  1.2199  0.3375
  197MOL0     H26554   1.678  -0.403   5.456  0.4927  0.4424 -0.7710
  197MOL0     H26555   1.520  -0.139   5.168  0.1359 -1.7415  0.4745
  197MOL0     H26556   1.288  -0.144   5.118  0.2666  1.9735  2.3413
  197MOL0     H26557   1.001  -0.596   5.194 -4.6453 -2.6441  3.0632
  197MOL0     H26558   0.768  -0.693   5.145  1.4135  2.3970  6.2518
  197MOL0     H26559   0.545  -0.524   5.127  1.0665 -0.8512 -1.5054
  197MOL0     H26560   0.440  -0.521   4.982  1.0055  0.1646 -2.4914
  197MOL0     H26561   0.456  -0.788   5.001 -3.3009 -0.2968  0.6743
  197MOL0     H26562   0.516  -0.764   5.165  0.0489 -0.2970 -0.9456
  197MOL0     H26563   0.314  -0.637   5.218  2.1722 -0.3117  0.3070
  197MOL0     H26564   0.253  -0.676   5.048 -0.2353  0.3105  0.4347
  197MOL0     H26565   0.291  -0.863   5.277  1.1801  0.0812 -0.8253
  197MOL0     H26566   0.301  -0.911   5.100 -0.9035 -0.1082 -0.0701
  197MOL0     H26567   0.072  -0.820   5.064  0.4886  0.4111  0.0655
  197MOL0     H26568   0.068  -0.761   5.233 -2.2110 -1.1840 -1.7002
  197MOL0     H26569   0.095  -1.060   5.150 -2.7047 -0.2311 -1.4313
  197MOL0     H26570   0.072  -0.996   5.313 -3.4219 -1.2018  0.5077
  197MOL0     H26571  -0.127  -0.917   5.107  1.5394  1.3928  1.4479
  197MOL0     H26572  -0.134  -0.938   5.286  0.1875 -1.4445  0.8860
  197MOL0     H26573  -0.076  -1.160   5.072 -0.0585  0.4136 -0.0470
  197MOL0     H26574  -0.112  -1.191   5.243 -0.2674 -2.7096 -2.0577
  197MOL0     H26575   0.740  -0.414   4.816  1.8429 -1.2433 -1.6693
  197MOL0     H26576   0.954  -0.311   4.884 -1.5879  1.3948 -0.3609
  197MOL0     H26577   1.230  -0.418   5.456  1.9489 -0.0767  1.2317
  197MOL0     H26578   1.454  -0.369   5.535  0.8970  0.2800 -0.1185
  197MOL0     H26579   1.633   0.059   5.120 -0.6343 -3.3711  3.1845
  197MOL0     H26580   1.698   0.095   5.339 -2.1209 -0.6775 -1.6065
  197MOL0     H26581   2.158   0.001   5.558  0.6445 -2.0352 -0.7141
  197MOL0     H26582   2.291  -0.038   5.744  0.7297 -0.5519  3.7719
  197MOL0     H26583   2.367   0.062   5.975 -2.2774  0.4057 -1.4592
  197MOL0     H26584   2.381  -0.101   5.917  1.5942  2.9854 -1.6684
  197MOL0     H26585   2.399  -0.189   6.123 -2.2581 -0.1675  0.6351
  197MOL0     H26586   2.351  -0.033   6.208  2.0817  0.0355  1.0132
  197MOL0     H26587   2.579  -0.053   6.265  2.0429 -1.3528 -0.4524
  197MOL0     H26588   2.559   0.049   6.122 -0.0193  0.5754  1.0610
  197MOL0     H26589   2.743  -0.158   6.152 -0.1806 -2.2872 -1.1190
  197MOL0     H26590   2.623  -0.258   6.091  2.7084 -1.0006  2.3336
  197MOL0     H26591   2.664  -0.103   5.726 -0.4403 -0.7107 -0.5621
  197MOL0     H26592   1.953  -0.048   6.007 -0.8837 -1.5338 -1.2118
  197MOL0     H26593   1.715  -0.084   5.732 -1.1314 -2.4366  1.6061
  197MOL0     H26594   1.735  -0.088   5.907 -2.2603  1.2592 -0.1353
  197MOL0     H26595   1.723   0.073   5.834 -0.0686  0.5870  2.2970
  198MOL0     O26596   3.730   6.225   9.539  0.1108  1.1730  0.2876
  198MOL0     C26597   3.691   6.114   9.561 -0.0742  0.3058 -0.9379
  198MOL0     O26598   3.765   6.011   9.595 -0.5976  1.0689  0.3111
  198MOL0     C26599   3.891   5.984   9.535  0.1534 -0.7679 -0.5746
  198MOL0     C26600   3.944   5.858   9.567 -0.4884 -0.9016 -0.0325
  198MOL0     C26601   4.065   5.814   9.503 -0.5286  0.6820 -0.0027
  198MOL0     C26602   4.125   5.881   9.393  0.1020  0.4625 -0.5856
  198MOL0     O26603   4.237   5.826   9.339 -0.4521 -0.4593  0.0090
  198MOL0     C26604   4.301   5.885   9.228 -0.6922 -0.2861 -0.0698
  198MOL0     C26605   4.415   5.774   9.202  0.0909 -0.5319 -0.9317
  198MOL0     C26606   4.553   5.831   9.139  0.1812  0.6460 -0.1697
  198MOL0     C26607   4.659   5.722   9.159  0.8501 -0.0889  1.0471
  198MOL0     C26608   4.800   5.767   9.128  0.0613  0.5349  0.0319
  198MOL0     C26609   4.840   5.781   8.974  0.6149  0.0425 -0.8589
  198MOL0     C26610   4.991   5.806   8.954 -1.0802 -0.2394  0.6232
  198MOL0     C26611   5.054   5.680   8.893  0.1243 -1.1481 -0.8498
  198MOL0     N26612   5.203   5.689   8.853  0.3150  0.1292 -0.6699
  198MOL0     C26613   5.310   5.685   8.941  0.9130  0.5066 -0.9140
  198MOL0     C26614   5.407   5.745   8.864  0.7437  0.0571  0.2614
  198MOL0     C26615   5.547   5.763   8.925  0.5608  0.2425 -0.2813
  198MOL0     C26616   5.577   5.894   8.998  0.0556 -0.0376 -0.2959
  198MOL0     C26617   5.637   6.005   8.906 -0.2285  0.0541  0.0801
  198MOL0     C26618   5.768   5.974   8.840 -0.5868 -0.0989  0.3519
  198MOL0     O26619   5.842   5.873   8.917  0.9131  0.3402 -0.2486
  198MOL0     C26620   5.976   5.859   8.900  0.0421  0.4853 -0.5140
  198MOL0     C26621   6.028   5.770   8.986  0.2904 -0.4349  0.9238
  198MOL0     C26622   6.165   5.736   8.983  0.1635 -0.8332 -0.4342
  198MOL0     C26623   6.254   5.798   8.899 -0.1852  0.3295  0.3792
  198MOL0     C26624   6.408   5.776   8.925 -0.3526 -0.3073 -0.1746
  198MOL0     O26625   6.492   5.876   8.871 -0.1670  0.1808 -0.1273
  198MOL0     C26626   6.620   5.848   8.889  0.1893 -0.0281  1.1059
  198MOL0     C26627   6.683   5.869   9.011  1.1041 -0.1749 -0.9691
  198MOL0     C26628   6.815   5.841   9.028  0.3278 -0.6748 -0.0040
  198MOL0     C26629   6.894   5.807   8.926 -0.3729 -0.1577 -1.2320
  198MOL0     O26630   7.030   5.776   8.945 -0.3042  0.0825  0.0244
  198MOL0     C26631   7.090   5.681   8.863 -0.2868  0.4966 -0.0029
  198MOL0     C26632   7.226   5.626   8.932  0.2118  0.4594 -0.0870
  198MOL0     C26633   7.337   5.730   8.891 -1.1854  0.8337  0.3366
  198MOL0     C26634   7.481   5.668   8.912 -0.4409  0.1741  0.9079
  198MOL0     C26635   7.588   5.756   8.868  0.7691 -1.3683  0.5347
  198MOL0     C26636   7.731   5.722   8.918 -0.4520 -0.5691 -0.3723
  198MOL0     C26637   7.747   5.676   9.064 -0.2810  0.8592  0.6803
  198MOL0     C26638   7.892   5.669   9.103  0.0757 -0.2733 -0.1126
  198MOL0    Cl26639   7.969   5.527   9.020 -0.4851 -0.3516 -0.0114
  198MOL0     C26640   6.836   5.787   8.797  0.3400 -0.0101  0.2141
  198MOL0     C26641   6.694   5.804   8.776 -0.6074 -1.0236  0.2934
  198MOL0     O26642   6.448   5.674   8.987 -0.0354 -0.1785  0.2163
  198MOL0     C26643   6.200   5.900   8.813 -0.5561 -0.8112 -0.7415
  198MOL0     C26644   6.060   5.917   8.810  0.3008 -0.3484  1.0746
  198MOL0     N26645   5.359   5.771   8.737 -0.0478  0.7943  0.7044
  198MOL0     N26646   5.239   5.726   8.729  0.1847  0.3097  0.1214
  198MOL0     C26647   4.066   6.009   9.375  0.1163  0.3669  0.5389
  198MOL0     C26648   3.962   6.059   9.455 -0.0668  0.0962  0.5045
  198MOL0     C26649   3.545   6.092   9.597  0.8856  0.0384 -0.5350
  198MOL0     C26650   3.505   5.967   9.649 -0.1813 -0.4291 -0.0287
  198MOL0     C26651   3.384   5.945   9.711 -0.4231  0.7856  0.1273
  198MOL0     C26652   3.291   6.051   9.713  0.5903 -0.0779 -0.6365
  198MOL0     O26653   3.167   6.054   9.787 -0.0294 -0.4421  0.6904
  198MOL0     C26654   3.119   5.929   9.832 -0.7045  0.0296 -0.0393
  198MOL0     C26655   2.994   5.940   9.929  0.5580  0.2466  0.2207
  198MOL0     C26656   2.891   5.822   9.894 -0.4987 -0.4276  0.0660
  198MOL0     C26657   2.748   5.869   9.935  0.3727 -0.6107  0.7046
  198MOL0     C26658   2.730   5.899  10.074  0.2411  0.6285 -1.3548
  198MOL0     C26659   2.713   5.935  10.193 -0.2776  0.5139  0.3403
  198MOL0     C26660   3.314   6.172   9.650  0.0316 -0.1548 -0.2322
  198MOL0     C26661   3.443   6.198   9.599 -0.3686  0.4349 -0.7342
  198MOL0     C26662   3.467   6.341   9.547  0.2924 -0.0841  0.1186
  198MOL0     H26663   3.892   5.791   9.635  2.2627 -1.3187  1.8329
  198MOL0     H26664   4.105   5.720   9.539 -1.5069 -0.4003 -1.5816
  198MOL0     H26665   4.240   5.886   9.137 -0.3269 -2.4609 -0.4042
  198MOL0     H26666   4.340   5.985   9.247 -2.7398  0.7294 -0.8922
  198MOL0     H26667   4.378   5.689   9.145 -1.2712 -2.2483  2.2435
  198MOL0     H26668   4.449   5.744   9.302 -0.0134  0.6252 -0.5238
  198MOL0     H26669   4.582   5.926   9.185 -5.2793  1.2134  2.9346
  198MOL0     H26670   4.528   5.853   9.035 -0.9917 -0.7486 -0.2109
  198MOL0     H26671   4.649   5.698   9.265 -3.2609 -1.2512  0.5804
  198MOL0     H26672   4.626   5.632   9.106 -2.7032  2.2510 -1.1565
  198MOL0     H26673   4.813   5.863   9.180  0.4202  1.0390 -0.9586
  198MOL0     H26674   4.868   5.691   9.166  1.7190  1.4859 -0.9548
  198MOL0     H26675   4.800   5.689   8.930 -0.9991  0.5374 -0.4994
  198MOL0     H26676   4.777   5.856   8.925 -3.3582 -0.3603  2.9436
  198MOL0     H26677   5.043   5.825   9.047  4.3669 -4.2315 -1.0960
  198MOL0     H26678   5.016   5.884   8.881  2.2961 -0.8841  0.9287
  198MOL0     H26679   5.047   5.604   8.971 -1.9906 -1.2814 -1.1184
  198MOL0     H26680   4.991   5.661   8.805 -2.1323  1.0568  0.1770
  198MOL0     H26681   5.302   5.648   9.043  0.7835 -0.4791 -1.2644
  198MOL0     H26682   5.571   5.694   9.006  3.0649  1.9576  0.5551
  198MOL0     H26683   5.615   5.737   8.843 -1.3146 -2.1986 -1.1878
  198MOL0     H26684   5.488   5.924   9.053  0.9394 -0.3873  1.3661
  198MOL0     H26685   5.654   5.874   9.072  1.3097  1.1021 -1.2369
  198MOL0     H26686   5.659   6.089   8.972  0.9843 -0.5471  0.4682
  198MOL0     H26687   5.564   6.030   8.828  0.2745 -1.0410 -0.7626
  198MOL0     H26688   5.830   6.064   8.826 -0.5779  0.0138  1.0926
  198MOL0     H26689   5.751   5.933   8.740 -1.3901 -0.0992  0.4840
  198MOL0     H26690   5.964   5.735   9.066 -1.1146  0.2224  0.1357
  198MOL0     H26691   6.199   5.667   9.060  2.1490  2.3473  1.8238
  198MOL0     H26692   6.616   5.894   9.093 -1.9663 -3.1287 -2.3447
  198MOL0     H26693   6.846   5.825   9.131 -1.5803 -1.9470  0.4292
  198MOL0     H26694   7.021   5.599   8.838 -0.2753  1.2141 -2.6945
  198MOL0     H26695   7.115   5.736   8.772  1.0090 -1.1767 -0.7105
  198MOL0     H26696   7.212   5.629   9.040 -0.9054  3.0181 -0.2348
  198MOL0     H26697   7.255   5.527   8.894 -0.4286  0.2258  0.0041
  198MOL0     H26698   7.339   5.742   8.783  0.3214  0.8376  0.3446
  198MOL0     H26699   7.328   5.828   8.938  1.3500  1.6350 -0.7035
  198MOL0     H26700   7.483   5.568   8.868 -1.6106  1.2228 -1.7020
  198MOL0     H26701   7.496   5.647   9.019 -0.2947  0.4865  0.9479
  198MOL0     H26702   7.551   5.847   8.918 -0.7717 -1.2170 -0.8022
  198MOL0     H26703   7.605   5.779   8.762  1.8458 -1.0579  0.7604
  198MOL0     H26704   7.779   5.653   8.848  0.3965  0.0070 -0.3788
  198MOL0     H26705   7.788   5.815   8.902  1.0820 -1.5616 -0.9235
  198MOL0     H26706   7.708   5.576   9.079 -1.4190  0.2358 -4.3858
  198MOL0     H26707   7.713   5.752   9.135  0.3054  1.1794  0.6300
  198MOL0     H26708   7.951   5.756   9.073  1.5112 -0.6726  1.3597
  198MOL0     H26709   7.907   5.668   9.212 -2.3368 -0.9005  0.2725
  198MOL0     H26710   6.903   5.763   8.716  0.0760 -0.0362  0.0010
  198MOL0     H26711   6.667   5.788   8.673  1.1978 -0.2328 -0.3533
  198MOL0     H26712   6.265   5.945   8.739 -0.0396 -0.9730 -0.3914
  198MOL0     H26713   6.026   5.980   8.728  2.3689  0.6227  0.8790
  198MOL0     H26714   4.117   6.074   9.305  0.8987 -0.3701  0.4054
  198MOL0     H26715   3.925   6.157   9.426 -2.7015 -1.1520 -0.6994
  198MOL0     H26716   3.572   5.883   9.639 -1.1178 -1.1591 -0.2634
  198MOL0     H26717   3.380   5.854   9.771 -0.2771  0.5112 -0.2765
  198MOL0     H26718   3.191   5.859   9.875  0.2161  1.4010  0.7332
  198MOL0     H26719   3.080   5.890   9.737 -4.0247  2.4828  0.1254
  198MOL0     H26720   2.946   6.033   9.895  1.4341  0.4836 -0.4152
  198MOL0     H26721   3.015   5.946  10.036 -1.2869  0.4061  0.6167
  198MOL0     H26722   2.922   5.733   9.949 -0.0062 -0.0809  0.3649
  198MOL0     H26723   2.892   5.804   9.786 -0.1161 -1.5567  0.2536
  198MOL0     H26724   2.708   5.957   9.884 -4.0296 -2.6325  0.2234
  198MOL0     H26725   2.680   5.795   9.892 -2.1317  2.9606 -2.1008
  198MOL0     H26726   2.684   5.953  10.294  0.0644 -1.1951  0.7663
  198MOL0     H26727   3.230   6.242   9.655  1.2642  1.4727 -1.2527
  198MOL0     H26728   3.376   6.401   9.540  1.9002  2.3724 -1.4575
  198MOL0     H26729   3.526   6.406   9.612 -0.4505  2.6390 -1.7905
  198MOL0     H26730   3.510   6.328   9.447 -2.6724 -2.7880 -1.0098
  199MOL0     O26731   9.326   0.735   1.287  0.0875  0.1774 -0.2655
  199MOL0     C26732   9.360   0.655   1.378 -0.1972 -1.2113  0.1437
  199MOL0     O26733   9.278   0.563   1.434 -0.2556 -0.1658 -0.0503
  199MOL0     C26734   9.172   0.512   1.363  0.7377 -0.6054  0.9926
  199MOL0     C26735   9.188   0.384   1.296  0.2054 -1.1182  0.7074
  199MOL0     C26736   9.088   0.343   1.215  0.7694  0.3314  1.0234
  199MOL0     C26737   8.970   0.417   1.194  0.5263  0.0578  0.8172
  199MOL0     O26738   8.882   0.361   1.095 -0.1524 -0.4360 -0.6493
  199MOL0     C26739   8.772   0.441   1.048  0.1104 -0.5230  0.0973
  199MOL0     C26740   8.663   0.343   0.998 -0.6011 -0.0841 -0.5919
  199MOL0     C26741   8.558   0.393   0.901  0.3829  0.2173 -0.4030
  199MOL0     C26742   8.459   0.279   0.880  0.6879  0.2782  0.6098
  199MOL0     C26743   8.338   0.313   0.802 -0.1608  0.4253 -0.1497
  199MOL0     C26744   8.271   0.191   0.759 -0.1956 -0.1155 -0.7795
  199MOL0     C26745   8.129   0.191   0.707  0.6789 -0.0643  0.4198
  199MOL0     C26746   8.086   0.061   0.621 -0.2877  0.7494  0.0909
  199MOL0     N26747   8.158   0.055   0.496  0.6596 -0.3210  0.3630
  199MOL0     C26748   8.241  -0.045   0.452 -0.6009  0.7971  0.2153
  199MOL0     C26749   8.271  -0.008   0.322 -0.0351  0.2911 -0.0964
  199MOL0     C26750   8.374  -0.085   0.245  0.3473  0.3659  0.7185
  199MOL0     C26751   8.500  -0.015   0.218 -0.1174  0.3792  0.0373
  199MOL0     C26752   8.601  -0.105   0.140  0.3517  0.6823 -0.1590
  199MOL0     C26753   8.720  -0.023   0.093  0.7896  0.2405  0.4101
  199MOL0     O26754   8.793   0.021   0.207 -0.5918  0.2328  0.0937
  199MOL0     C26755   8.891  -0.062   0.249  0.5056 -0.6255 -0.2293
  199MOL0     C26756   9.014  -0.052   0.179 -0.3935  0.1586  0.9209
  199MOL0     C26757   9.125  -0.127   0.214  1.0064 -0.5901 -0.3981
  199MOL0     C26758   9.110  -0.215   0.327  0.1008  0.7390  0.1341
  199MOL0     C26759   9.220  -0.309   0.358 -0.3569 -1.6385  0.4043
  199MOL0     O26760   9.252  -0.337   0.486 -0.3580 -0.5329  0.0416
  199MOL0     C26761   9.357  -0.413   0.531 -0.1469  0.1685  0.4999
  199MOL0     C26762   9.489  -0.401   0.489 -0.1216 -0.4024 -0.2911
  199MOL0     C26763   9.585  -0.494   0.538  0.7427 -0.0952  0.0274
  199MOL0     C26764   9.550  -0.600   0.624 -0.3352 -0.1926  0.1194
  199MOL0     O26765   9.650  -0.687   0.641 -0.4063  0.0923 -0.0707
  199MOL0     C26766   9.654  -0.742   0.776  0.0193  0.1605  0.1183
  199MOL0     C26767   9.786  -0.809   0.805 -0.3724 -0.5569  0.3081
  199MOL0     C26768   9.903  -0.705   0.809  1.2709  0.7636 -0.3916
  199MOL0     C26769  10.037  -0.764   0.862  0.5551 -0.1767  0.2371
  199MOL0     C26770  10.085  -0.871   0.768 -0.6230  1.1658  0.4067
  199MOL0     C26771  10.238  -0.894   0.793 -0.5080  0.7317  0.2445
  199MOL0     C26772  10.285  -1.029   0.725  0.9629 -0.0292  1.3972
  199MOL0     C26773  10.433  -1.046   0.723  0.3461  0.1371  0.4679
  199MOL0    Cl26774  10.495  -0.904   0.643 -0.2409 -0.2886 -0.0953
  199MOL0     C26775   9.420  -0.610   0.668 -0.0399 -0.1574  0.2814
  199MOL0     C26776   9.325  -0.520   0.620 -0.2917  0.4479 -0.3128
  199MOL0     O26777   9.293  -0.340   0.265  0.3719 -0.3882  0.7504
  199MOL0     C26778   8.980  -0.229   0.391 -0.4614  0.0965 -0.4174
  199MOL0     C26779   8.875  -0.158   0.350 -0.7626  0.1376  0.1155
  199MOL0     N26780   8.195   0.095   0.278  0.2431  0.6642  0.6766
  199MOL0     N26781   8.119   0.121   0.382 -0.8076 -0.2528  0.1111
  199MOL0     C26782   8.943   0.537   1.263 -0.4109 -0.3779 -0.0262
  199MOL0     C26783   9.046   0.583   1.349 -0.2847  0.4562 -0.2953
  199MOL0     C26784   9.503   0.642   1.434  0.7941 -0.4314 -0.3826
  199MOL0     C26785   9.548   0.512   1.477 -0.6351 -0.4662 -1.2308
  199MOL0     C26786   9.684   0.494   1.505  0.3896  1.4618 -0.0236
  199MOL0     C26787   9.781   0.595   1.494 -0.5130  0.9091  0.7097
  199MOL0     O26788   9.911   0.576   1.529 -0.2261  0.5783  1.2114
  199MOL0     C26789  10.005   0.677   1.506  0.2578 -0.1773 -0.2001
  199MOL0     C26790  10.126   0.644   1.582 -0.3129 -0.4424 -0.8921
  199MOL0     C26791  10.232   0.762   1.573  0.2903  0.4868  0.4385
  199MOL0     C26792  10.356   0.748   1.674  0.3762  0.3189 -0.4755
  199MOL0     C26793  10.451   0.656   1.614 -0.5302 -0.5429 -0.8532
  199MOL0     C26794  10.540   0.595   1.559  0.2423  1.1839 -0.6034
  199MOL0     C26795   9.738   0.717   1.455  0.0177 -0.0546  0.4168
  199MOL0     C26796   9.594   0.745   1.426 -0.0832  0.7904 -0.3450
  199MOL0     C26797   9.549   0.886   1.390 -0.3899  0.5551  0.3234
  199MOL0     H26798   9.289   0.345   1.303  2.0700  2.2786 -3.2548
  199MOL0     H26799   9.091   0.249   1.161 -3.1912  1.0424 -0.7792
  199MOL0     H26800   8.724   0.499   1.127  2.4323  1.0159  0.4634
  199MOL0     H26801   8.799   0.509   0.967 -0.0558 -0.1884  0.3214
  199MOL0     H26802   8.610   0.303   1.085  0.1970 -1.2612 -0.6239
  199MOL0     H26803   8.703   0.258   0.941 -3.4860 -2.8594  1.1386
  199MOL0     H26804   8.609   0.420   0.808  4.3526  5.6865  2.7110
  199MOL0     H26805   8.505   0.478   0.946 -2.0246 -2.2605  1.8425
  199MOL0     H26806   8.515   0.195   0.839  1.2755 -0.1770  2.2641
  199MOL0     H26807   8.403   0.240   0.966  0.1106 -0.6340 -0.1666
  199MOL0     H26808   8.272   0.365   0.872  0.3631  0.5132  0.2780
  199MOL0     H26809   8.345   0.379   0.714 -3.5974  1.0903 -0.0958
  199MOL0     H26810   8.331   0.153   0.676  2.0927  1.2692  0.1332
  199MOL0     H26811   8.286   0.119   0.840  2.4418  2.3649  1.1476
  199MOL0     H26812   8.114   0.277   0.640  0.1129  0.8365  1.6633
  199MOL0     H26813   8.062   0.215   0.790 -0.2983  2.4593 -1.0065
  199MOL0     H26814   8.115  -0.025   0.682 -0.8421  1.0372  0.7697
  199MOL0     H26815   7.978   0.067   0.606 -0.3516  1.1279  0.6621
  199MOL0     H26816   8.300  -0.114   0.511 -1.7021  2.9215  4.0965
  199MOL0     H26817   8.396  -0.182   0.292 -0.1039  0.5666  1.3663
  199MOL0     H26818   8.339  -0.108   0.144  1.2308  0.2728  0.4262
  199MOL0     H26819   8.485   0.082   0.168  0.8842  0.0216 -1.0154
  199MOL0     H26820   8.547   0.013   0.313  1.5570  1.9613 -1.1765
  199MOL0     H26821   8.545  -0.142   0.053 -0.0122  2.1037 -0.5617
  199MOL0     H26822   8.639  -0.197   0.186  0.4070 -1.5144 -4.1002
  199MOL0     H26823   8.686   0.063   0.035 -3.3409 -0.6182  1.2378
  199MOL0     H26824   8.775  -0.079   0.017 -1.7094 -1.9086  0.0318
  199MOL0     H26825   9.032   0.031   0.111  1.6895 -0.0566  1.1346
  199MOL0     H26826   9.220  -0.121   0.161  0.1990 -0.8489 -1.9300
  199MOL0     H26827   9.503  -0.329   0.410  3.3272 -0.4361  0.1233
  199MOL0     H26828   9.693  -0.493   0.524  1.3471  2.6991  3.5433
  199MOL0     H26829   9.634  -0.661   0.847 -1.4043 -0.5926  0.6102
  199MOL0     H26830   9.581  -0.822   0.790  0.9398 -1.0260 -1.5547
  199MOL0     H26831   9.778  -0.851   0.905 -1.1816 -0.8261  0.1402
  199MOL0     H26832   9.808  -0.882   0.727 -0.9705 -0.4849  0.0662
  199MOL0     H26833   9.920  -0.670   0.706  2.5640 -2.0357 -1.2437
  199MOL0     H26834   9.869  -0.623   0.873 -0.5481 -0.2929  0.0834
  199MOL0     H26835  10.023  -0.812   0.959  1.9375 -1.4459 -0.1688
  199MOL0     H26836  10.117  -0.690   0.861 -0.0278  0.5481 -2.4069
  199MOL0     H26837  10.054  -0.846   0.666 -0.6545  0.0551  0.1244
  199MOL0     H26838  10.041  -0.966   0.802  1.5180  0.8505  2.5333
  199MOL0     H26839  10.289  -0.807   0.751  1.2741  0.3976  1.5977
  199MOL0     H26840  10.256  -0.890   0.901 -1.2522  2.4997  0.3351
  199MOL0     H26841  10.237  -1.035   0.627  0.9769  1.6767  1.2455
  199MOL0     H26842  10.240  -1.108   0.786  1.2682 -0.7036  0.7591
  199MOL0     H26843  10.467  -1.066   0.825 -1.0106 -0.2213  0.8707
  199MOL0     H26844  10.464  -1.128   0.657  0.3012 -0.7789  1.5435
  199MOL0     H26845   9.390  -0.699   0.722  1.1788 -1.5421 -1.2239
  199MOL0     H26846   9.220  -0.528   0.647 -0.9110  2.1553 -1.9768
  199MOL0     H26847   8.960  -0.297   0.474  2.2026  0.3042  0.4874
  199MOL0     H26848   8.782  -0.173   0.404  0.1426 -6.0521  0.6883
  199MOL0     H26849   8.851   0.592   1.243 -0.6159 -1.5117 -2.6364
  199MOL0     H26850   9.046   0.669   1.416  1.9058 -1.0906  1.8717
  199MOL0     H26851   9.496   0.417   1.474  1.0315 -1.5078  0.6548
  199MOL0     H26852   9.721   0.395   1.530 -2.4325  0.8159  2.1522
  199MOL0     H26853   9.980   0.776   1.546  2.2481  0.3308 -0.1258
  199MOL0     H26854  10.027   0.689   1.400  2.0616 -1.8769 -0.0634
  199MOL0     H26855  10.164   0.552   1.535  1.5288 -0.2664  0.1920
  199MOL0     H26856  10.113   0.623   1.688  3.0958  0.9001 -0.0834
  199MOL0     H26857  10.171   0.852   1.586 -2.5614 -1.2374 -0.0213
  199MOL0     H26858  10.272   0.759   1.471 -2.2486  1.3536 -0.6600
  199MOL0     H26859  10.405   0.844   1.690 -1.0797  1.3379 -1.7212
  199MOL0     H26860  10.320   0.719   1.773 -0.1402  1.5330 -0.2894
  199MOL0     H26861  10.607   0.540   1.496 -0.5474  0.3353 -0.7251
  199MOL0     H26862   9.798   0.807   1.457 -0.2261  0.0957  1.2326
  199MOL0     H26863   9.456   0.916   1.438 -1.0858 -0.3825 -0.4015
  199MOL0     H26864   9.618   0.963   1.427 -1.2079  1.7478 -0.5803
  199MOL0     H26865   9.540   0.890   1.281  0.9449  0.3538  0.1867
  200MOL0     O26866   0.292  10.199  11.229 -0.5925 -0.1455  0.0169
  200MOL0     C26867   0.224  10.261  11.152 -0.8038  0.1205  0.8686
  200MOL0     O26868   0.197  10.210  11.024  0.2933 -0.7212  0.2453
  200MOL0     C26869   0.230  10.082  10.996 -0.3719  0.3847 -1.2164
  200MOL0     C26870   0.340  10.050  10.921 -0.0067 -0.4605 -0.5400
  200MOL0     C26871   0.365   9.918  10.875  0.4047  0.7241  0.1820
  200MOL0     C26872   0.295   9.810  10.924 -0.3324  0.2269 -0.3995
  200MOL0     O26873   0.342   9.680  10.892  1.1739 -0.2884 -0.3310
  200MOL0     C26874   0.289   9.581  10.980  0.2078 -0.3457 -0.3330
  200MOL0     C26875   0.359   9.445  10.951 -0.2172  0.3390 -0.3349
  200MOL0     C26876   0.479   9.421  11.047  0.9335 -0.2890  0.2728
  200MOL0     C26877   0.531   9.277  11.049  0.2196 -0.2293 -0.4066
  200MOL0     C26878   0.667   9.263  11.106  0.4463 -0.5880  0.0346
  200MOL0     C26879   0.665   9.302  11.254 -0.6700  0.2724  0.0350
  200MOL0     C26880   0.597   9.202  11.346  0.0443 -0.6234  0.3323
  200MOL0     C26881   0.629   9.254  11.484 -0.0874 -0.8918 -0.3860
  200MOL0     N26882   0.523   9.242  11.583 -0.4866 -0.3240 -0.6266
  200MOL0     C26883   0.394   9.213  11.560 -1.0467 -0.7738 -1.0693
  200MOL0     C26884   0.323   9.225  11.678  0.2209 -0.2733 -0.2695
  200MOL0     C26885   0.165   9.208  11.691 -0.4338 -0.6193  0.0220
  200MOL0     C26886   0.094   9.270  11.565 -0.1152 -0.1682  0.6210
  200MOL0     C26887  -0.057   9.264  11.585  0.4477 -0.8383 -0.7421
  200MOL0     C26888  -0.135   9.303  11.459 -0.4341  0.0202  0.0542
  200MOL0     O26889  -0.243   9.204  11.437 -0.1623 -0.2571  0.2351
  200MOL0     C26890  -0.372   9.249  11.431 -0.4927 -0.0610 -0.2364
  200MOL0     C26891  -0.420   9.352  11.517  0.2367  0.0709 -0.1974
  200MOL0     C26892  -0.561   9.377  11.512 -0.1900  0.5136 -0.4178
  200MOL0     C26893  -0.651   9.309  11.428 -0.4982  0.2067  0.6209
  200MOL0     C26894  -0.794   9.344  11.427 -0.6191 -0.3883  0.0931
  200MOL0     O26895  -0.825   9.461  11.500 -0.3113 -0.7290 -0.3554
  200MOL0     C26896  -0.900   9.558  11.440  0.2045  0.2910 -0.8148
  200MOL0     C26897  -0.917   9.570  11.306 -0.0866 -0.2896 -0.2094
  200MOL0     C26898  -0.997   9.681  11.254  0.3981 -0.4923 -0.4425
  200MOL0     C26899  -1.061   9.774  11.351 -0.1681 -0.8556  0.2426
  200MOL0     O26900  -1.140   9.881  11.315 -0.0391 -0.2617 -0.2750
  200MOL0     C26901  -1.228   9.854  11.201  0.2346  0.0780  0.0528
  200MOL0     C26902  -1.315   9.982  11.200 -0.3752 -0.4360  0.7756
  200MOL0     C26903  -1.392  10.000  11.338 -0.2910  1.1861  0.9490
  200MOL0     C26904  -1.542  10.017  11.321 -0.0862  0.6145  0.0018
  200MOL0     C26905  -1.625   9.977  11.441 -0.6408 -0.1111  0.5688
  200MOL0     C26906  -1.773  10.041  11.442 -0.3332 -0.3167  1.0159
  200MOL0     C26907  -1.783  10.182  11.503  0.7786  0.1893 -0.6995
  200MOL0     C26908  -1.923  10.216  11.556  0.4773 -0.1574  0.0027
  200MOL0    Cl26909  -1.977  10.103  11.687 -0.4323  0.0538 -0.1963
  200MOL0     C26910  -1.047   9.749  11.488  0.7567  0.4139  0.3144
  200MOL0     C26911  -0.971   9.642  11.528 -0.6281  0.2710 -0.2268
  200MOL0     O26912  -0.870   9.287  11.341  0.0062  0.1628 -0.2119
  200MOL0     C26913  -0.586   9.208  11.346  1.6293 -0.0142  0.5323
  200MOL0     C26914  -0.452   9.182  11.352 -0.3898  0.0203  0.5276
  200MOL0     N26915   0.412   9.277  11.769 -0.8464  0.5640  0.1638
  200MOL0     N26916   0.524   9.279  11.711 -0.5649 -0.3276  0.0597
  200MOL0     C26917   0.183   9.848  11.013  0.0888  0.7327  0.6189
  200MOL0     C26918   0.152   9.974  11.044 -0.1556  0.1753 -0.0957
  200MOL0     C26919   0.219  10.403  11.172 -0.4375 -0.1474  0.5479
  200MOL0     C26920   0.197  10.483  11.050  0.8848  0.6704 -0.0643
  200MOL0     C26921   0.176  10.621  11.055 -0.2312  0.0643 -0.8782
  200MOL0     C26922   0.197  10.694  11.181  0.0627  0.8490 -0.3070
  200MOL0     O26923   0.198  10.828  11.186  0.3649 -0.5261  0.0269
  200MOL0     C26924   0.072  10.883  11.244 -0.6292 -0.4219 -0.3245
  200MOL0     C26925   0.040  11.022  11.183  1.1738  0.5223 -0.4466
  200MOL0     C26926  -0.007  11.004  11.035 -0.1202  0.7073  0.0774
  200MOL0     C26927   0.003  11.137  10.950  0.1407 -0.2197 -0.3053
  200MOL0     C26928   0.137  11.182  10.933 -0.3442 -0.3185  0.2687
  200MOL0     C26929   0.251  11.209  10.940 -0.2270 -0.3008 -0.4668
  200MOL0     C26930   0.211  10.615  11.299  0.6138 -0.3447  0.3701
  200MOL0     C26931   0.212  10.475  11.294  0.3335 -0.2115  0.1076
  200MOL0     C26932   0.211  10.397  11.424  0.4887 -0.1863  0.6165
  200MOL0     H26933   0.399  10.137  10.895  3.1687 -2.1459  0.4475
  200MOL0     H26934   0.433   9.909  10.791 -0.3677  4.6318 -1.0598
  200MOL0     H26935   0.310   9.613  11.083  3.2787 -2.9011  0.0249
  200MOL0     H26936   0.182   9.578  10.959  0.2134  2.3066 -1.0920
  200MOL0     H26937   0.394   9.449  10.847  1.5204 -0.8458  0.1645
  200MOL0     H26938   0.287   9.363  10.958  1.2242 -0.8501  1.3406
  200MOL0     H26939   0.444   9.444  11.149  1.1292 -1.9189  0.7387
  200MOL0     H26940   0.555   9.494  11.016  0.7532 -0.4121 -0.4626
  200MOL0     H26941   0.464   9.198  11.083  0.1468 -0.8416 -1.8734
  200MOL0     H26942   0.554   9.259  10.943 -0.0344  1.8659 -0.8677
  200MOL0     H26943   0.701   9.159  11.106 -0.0980 -0.7670  0.1964
  200MOL0     H26944   0.734   9.325  11.045  2.1132 -1.0170  1.3702
  200MOL0     H26945   0.772   9.313  11.270 -0.7619 -0.0107  0.9092
  200MOL0     H26946   0.625   9.403  11.261  2.2893  1.4922  0.7453
  200MOL0     H26947   0.637   9.104  11.320  1.7788 -0.1263  0.9674
  200MOL0     H26948   0.491   9.202  11.317  0.0078 -1.0102  0.4681
  200MOL0     H26949   0.706   9.190  11.526 -2.7779 -1.9488  3.4101
  200MOL0     H26950   0.661   9.358  11.491 -0.6834 -0.8012  1.5427
  200MOL0     H26951   0.345   9.174  11.471 -1.1266 -1.3112 -0.7906
  200MOL0     H26952   0.138   9.102  11.692 -3.8267  0.1320  0.3423
  200MOL0     H26953   0.141   9.260  11.784  2.6802 -2.1069  1.8073
  200MOL0     H26954   0.124   9.375  11.567 -0.1961 -0.1516  1.6758
  200MOL0     H26955   0.128   9.223  11.472  3.7893 -4.1300  3.5865
  200MOL0     H26956  -0.088   9.329  11.668 -1.1745 -4.3700  1.6992
  200MOL0     H26957  -0.086   9.160  11.604  3.7876 -1.9068 -0.9559
  200MOL0     H26958  -0.078   9.281  11.368 -0.6656 -0.2955 -0.0143
  200MOL0     H26959  -0.163   9.409  11.461 -0.7933 -0.0163 -1.7041
  200MOL0     H26960  -0.355   9.403  11.588 -0.5682 -0.3551  0.8669
  200MOL0     H26961  -0.600   9.456  11.575 -1.1753 -0.5750  0.3966
  200MOL0     H26962  -0.875   9.513  11.223  0.5185 -0.7977  0.4348
  200MOL0     H26963  -1.015   9.688  11.147  0.4410  0.0103 -0.4160
  200MOL0     H26964  -1.170   9.846  11.108  0.6959 -3.7321  0.5339
  200MOL0     H26965  -1.282   9.759  11.205  0.7817 -0.7397 -4.8570
  200MOL0     H26966  -1.257  10.075  11.198 -0.1895 -0.5374 -2.2426
  200MOL0     H26967  -1.383   9.972  11.115 -0.0054 -3.6090  0.7248
  200MOL0     H26968  -1.375   9.912  11.402  2.0030  0.4152 -0.6002
  200MOL0     H26969  -1.364  10.093  11.387 -1.6768  3.1237 -1.7097
  200MOL0     H26970  -1.575   9.956  11.237  3.3452 -0.6022 -0.6339
  200MOL0     H26971  -1.570  10.118  11.290  1.0048  1.1675  0.7524
  200MOL0     H26972  -1.571   9.985  11.536  2.4969 -4.6323 -0.4887
  200MOL0     H26973  -1.645   9.870  11.432 -3.4239  0.4344 -1.1543
  200MOL0     H26974  -1.815  10.037  11.341 -2.4305  0.8552  1.7928
  200MOL0     H26975  -1.834   9.973  11.502 -4.3557  0.2903 -1.9536
  200MOL0     H26976  -1.740  10.245  11.424  0.0765 -1.8255 -2.7979
  200MOL0     H26977  -1.720  10.180  11.592 -0.7099  0.6159  0.3996
  200MOL0     H26978  -1.904  10.310  11.608  0.5874 -0.5681  0.7033
  200MOL0     H26979  -1.999  10.236  11.479  0.1032 -2.7249 -0.3817
  200MOL0     H26980  -1.088   9.817  11.562  1.2613  1.1415 -0.0732
  200MOL0     H26981  -0.951   9.617  11.632 -1.0067 -1.5451 -0.5567
  200MOL0     H26982  -0.643   9.156  11.270 -2.7127  3.2355  1.1574
  200MOL0     H26983  -0.413   9.098  11.295  1.1355 -1.4017  3.4420
  200MOL0     H26984   0.114   9.775  11.054 -0.8296  1.3509  0.1775
  200MOL0     H26985   0.071   9.988  11.114 -1.3389 -0.2789 -1.3489
  200MOL0     H26986   0.201  10.433  10.954  0.2264  3.0572 -1.4105
  200MOL0     H26987   0.160  10.682  10.966  1.7950  2.6135  0.3717
  200MOL0     H26988   0.088  10.900  11.351  0.0092  1.0917 -0.6422
  200MOL0     H26989  -0.018  10.821  11.243 -4.1258  3.7319  4.5968
  200MOL0     H26990   0.133  11.079  11.170 -0.7175  3.3668 -2.9420
  200MOL0     H26991  -0.021  11.080  11.252  1.6947 -0.0960  0.5522
  200MOL0     H26992  -0.106  10.957  11.040  0.8738 -1.4023  1.0195
  200MOL0     H26993   0.067  10.934  10.995  3.3261  2.0945  3.3193
  200MOL0     H26994  -0.030  11.115  10.848  2.7702 -0.8239 -1.1130
  200MOL0     H26995  -0.060  11.214  10.994  0.8510  0.5421 -0.5894
  200MOL0     H26996   0.349  11.249  10.952  0.4790 -1.6695 -1.4079
  200MOL0     H26997   0.206  10.664  11.396 -0.6986 -0.4261  0.3636
  200MOL0     H26998   0.315  10.385  11.455  1.5040  3.0111 -1.1370
  200MOL0     H26999   0.168  10.464  11.499 -2.4556 -0.3154 -0.7869
  200MOL0     H27000   0.152  10.304  11.420  0.3766 -0.0880 -0.6521
  201MOL0     O27001   5.671   9.056   4.349  0.1908 -0.0775 -0.1658
  201MOL0     C27002   5.579   9.125   4.389 -0.1019  0.6075  1.1978
  201MOL0     O27003   5.555   9.253   4.371  0.6890 -0.3421 -0.3144
  201MOL0     C27004   5.654   9.345   4.349 -0.7075  0.3602  0.1763
  201MOL0     C27005   5.610   9.480   4.297  0.0376  1.0663 -1.4289
  201MOL0     C27006   5.699   9.574   4.249 -0.2447  0.8184  0.3466
  201MOL0     C27007   5.834   9.548   4.252  0.5150  0.0567 -0.2502
  201MOL0     O27008   5.930   9.624   4.198 -0.1754  0.0353 -0.3910
  201MOL0     C27009   5.904   9.716   4.095  0.8896 -0.2794 -0.3696
  201MOL0     C27010   5.861   9.640   3.962 -0.3797  0.5917  0.9910
  201MOL0     C27011   5.771   9.723   3.872 -0.8073  0.1182  0.7756
  201MOL0     C27012   5.630   9.760   3.930  0.4278  0.0215 -0.7626
  201MOL0     C27013   5.545   9.635   3.936 -0.1370  0.2531  0.9048
  201MOL0     C27014   5.409   9.668   3.983 -0.9695 -0.6672  0.7011
  201MOL0     C27015   5.326   9.554   4.031  0.0151 -0.1142  0.0741
  201MOL0     C27016   5.284   9.465   3.905 -0.5309  0.2645 -0.5439
  201MOL0     N27017   5.205   9.364   3.970 -0.3160  0.4050 -0.6832
  201MOL0     C27018   5.111   9.298   3.890  0.4174 -0.4883 -0.5231
  201MOL0     C27019   5.082   9.184   3.953  1.0683 -0.6634 -0.9756
  201MOL0     C27020   4.963   9.090   3.925 -0.3121  0.9199  0.4392
  201MOL0     C27021   4.927   9.008   4.043  0.1493 -0.7359  0.0481
  201MOL0     C27022   4.873   9.076   4.175 -0.8618  0.0226  0.0706
  201MOL0     C27023   4.778   8.996   4.258  0.7238  0.3547 -0.6552
  201MOL0     O27024   4.769   9.035   4.394  0.3990  0.7203 -1.3059
  201MOL0     C27025   4.742   9.163   4.434 -0.0700  0.6223  0.7619
  201MOL0     C27026   4.815   9.235   4.532 -0.2238  0.0174  0.1858
  201MOL0     C27027   4.792   9.371   4.561 -0.7191 -0.2895  0.0934
  201MOL0     C27028   4.673   9.431   4.515  0.4858  0.4996  1.0482
  201MOL0     C27029   4.640   9.559   4.569  0.7319  0.6235 -0.7808
  201MOL0     O27030   4.727   9.621   4.643  0.4469 -0.0405 -0.3832
  201MOL0     C27031   4.686   9.740   4.703 -0.1142  0.6130  0.9548
  201MOL0     C27032   4.783   9.840   4.717  0.0282 -0.0275 -1.2236
  201MOL0     C27033   4.773   9.940   4.819 -0.5853  0.7048  0.9691
  201MOL0     C27034   4.661   9.943   4.899 -0.0170  0.4532 -0.6936
  201MOL0     O27035   4.643  10.016   5.012  0.2235 -0.1891 -0.8642
  201MOL0     C27036   4.757  10.079   5.062 -0.5749 -0.4776  0.0777
  201MOL0     C27037   4.725  10.150   5.196 -0.4679 -0.1870  0.0888
  201MOL0     C27038   4.838  10.230   5.247 -0.1050 -1.2540  1.1761
  201MOL0     C27039   4.801  10.316   5.358 -0.0057 -0.8193  0.3423
  201MOL0     C27040   4.909  10.409   5.409 -0.2913 -0.0208  0.0581
  201MOL0     C27041   4.879  10.485   5.536  0.5715  0.4643 -1.2356
  201MOL0     C27042   4.766  10.586   5.520 -0.4562  0.9874  0.2797
  201MOL0     C27043   4.722  10.648   5.652 -0.9379  0.5393  0.2950
  201MOL0    Cl27044   4.833  10.783   5.697 -0.0191 -0.2111 -0.3446
  201MOL0     C27045   4.556   9.857   4.882 -0.8315 -0.0161  0.0605
  201MOL0     C27046   4.569   9.752   4.781 -0.2734  0.0031  0.1763
  201MOL0     O27047   4.529   9.601   4.536  0.2960  0.5052 -0.6095
  201MOL0     C27048   4.594   9.351   4.425 -0.5062 -0.6051 -0.2802
  201MOL0     C27049   4.627   9.221   4.382 -0.6681  0.1911 -0.1592
  201MOL0     N27050   5.166   9.179   4.067 -0.2514 -1.1730  0.1192
  201MOL0     N27051   5.231   9.281   4.071 -0.1562 -0.7269 -0.2214
  201MOL0     C27052   5.880   9.433   4.304  1.0787 -0.5266  0.3056
  201MOL0     C27053   5.796   9.325   4.341 -0.6253  0.3554 -0.2153
  201MOL0     C27054   5.468   9.050   4.456  0.7315  0.4343  0.8603
  201MOL0     C27055   5.338   9.096   4.426  0.2486  1.2019  0.1997
  201MOL0     C27056   5.222   9.020   4.474  0.7367 -0.9366  0.4572
  201MOL0     C27057   5.246   8.922   4.573 -0.4307  0.3316  0.3378
  201MOL0     O27058   5.152   8.838   4.628  0.1069  0.0670 -0.6019
  201MOL0     C27059   5.008   8.858   4.612 -0.8227 -0.4973 -0.5305
  201MOL0     C27060   4.940   8.742   4.689  0.8306 -0.6389  0.0914
  201MOL0     C27061   4.977   8.608   4.631 -0.4461 -0.1801  0.8559
  201MOL0     C27062   4.924   8.601   4.490  0.7973  0.5830  0.3635
  201MOL0     C27063   4.908   8.463   4.461 -0.0280 -0.3995  0.1365
  201MOL0     C27064   4.883   8.352   4.432  0.4075 -0.1382 -0.1208
  201MOL0     C27065   5.371   8.889   4.604 -0.4508  1.3910 -0.3133
  201MOL0     C27066   5.485   8.949   4.555 -0.0815  0.7501  1.3794
  201MOL0     C27067   5.624   8.901   4.601 -0.5166  0.5280 -1.3781
  201MOL0     H27068   5.505   9.507   4.299 -0.9366 -1.9739 -3.7690
  201MOL0     H27069   5.673   9.677   4.229 -0.8024  0.9510  1.6519
  201MOL0     H27070   5.839   9.789   4.143  1.5171  0.7041 -0.9805
  201MOL0     H27071   5.998   9.769   4.077  0.8229  0.4481  1.1972
  201MOL0     H27072   5.824   9.540   3.986  2.0728 -1.2703 -2.2137
  201MOL0     H27073   5.946   9.616   3.898 -0.8000  2.1141 -0.1778
  201MOL0     H27074   5.745   9.682   3.774 -4.6004  0.7117  1.3716
  201MOL0     H27075   5.832   9.812   3.854  2.2445 -1.8265  0.8778
  201MOL0     H27076   5.649   9.801   4.030  0.7197 -3.3389  0.6809
  201MOL0     H27077   5.591   9.836   3.861 -0.3346 -0.5969 -1.0267
  201MOL0     H27078   5.531   9.587   3.839  0.7307  0.3009  0.7494
  201MOL0     H27079   5.595   9.560   3.998  2.1348 -1.5198 -2.7189
  201MOL0     H27080   5.426   9.735   4.068  0.9011  0.6248 -0.6334
  201MOL0     H27081   5.355   9.726   3.908  0.2645 -1.8945 -1.2241
  201MOL0     H27082   5.240   9.590   4.089  0.2707 -2.1036  1.8095
  201MOL0     H27083   5.390   9.501   4.102  2.4627 -0.3881 -2.1841
  201MOL0     H27084   5.229   9.516   3.826  0.8965 -0.8234 -2.3104
  201MOL0     H27085   5.377   9.427   3.861  1.4179  1.4668  2.2769
  201MOL0     H27086   5.056   9.332   3.803  0.2415 -0.4451 -0.3944
  201MOL0     H27087   4.877   9.140   3.880  0.2802  0.6638 -1.0366
  201MOL0     H27088   4.997   9.021   3.848  1.0309  0.9194  1.0049
  201MOL0     H27089   4.848   8.950   3.994  1.8917 -1.3492 -2.1886
  201MOL0     H27090   5.006   8.935   4.060 -0.4814 -1.4989 -0.2377
  201MOL0     H27091   4.819   9.167   4.148 -1.6342 -0.2012  0.8281
  201MOL0     H27092   4.961   9.115   4.224 -0.9394  0.5412 -0.1991
  201MOL0     H27093   4.809   8.891   4.257 -1.0535 -0.3105 -4.7335
  201MOL0     H27094   4.678   8.995   4.214 -0.0463  3.2250  0.7532
  201MOL0     H27095   4.896   9.191   4.588  0.6860 -0.0099 -1.1130
  201MOL0     H27096   4.871   9.417   4.618  2.4113 -2.9832 -1.7173
  201MOL0     H27097   4.875   9.845   4.660  0.4796  2.4637 -0.3675
  201MOL0     H27098   4.849  10.016   4.832 -1.1045  1.4867 -0.3586
  201MOL0     H27099   4.824   9.997   5.088 -2.8819 -1.7141  2.6146
  201MOL0     H27100   4.800  10.147   4.987 -0.2847  1.0366  1.5657
  201MOL0     H27101   4.634  10.212   5.197  0.7157  1.9925 -3.8718
  201MOL0     H27102   4.708  10.068   5.267  1.3136  0.2039  1.0079
  201MOL0     H27103   4.917  10.158   5.272  1.0239 -1.9217 -3.4795
  201MOL0     H27104   4.878  10.284   5.161  0.0190 -1.1296  1.3108
  201MOL0     H27105   4.777  10.252   5.444  0.4560  1.4321  2.2538
  201MOL0     H27106   4.707  10.366   5.334  0.6394 -0.3938 -1.4691
  201MOL0     H27107   4.943  10.474   5.327  1.1969  0.1113  0.7499
  201MOL0     H27108   4.995  10.350   5.441 -2.3475 -2.2467  1.7827
  201MOL0     H27109   4.859  10.413   5.616 -1.4457  1.3951 -0.8355
  201MOL0     H27110   4.966  10.536   5.579  1.3317  1.4899 -3.8411
  201MOL0     H27111   4.677  10.540   5.475  1.0873  0.0770 -2.0339
  201MOL0     H27112   4.807  10.657   5.447  2.9000  1.2856  2.2447
  201MOL0     H27113   4.620  10.686   5.642 -0.1448  2.2471 -2.1295
  201MOL0     H27114   4.727  10.558   5.714  2.7204  2.0459  2.5526
  201MOL0     H27115   4.458   9.856   4.930 -0.8832  0.5506 -0.0205
  201MOL0     H27116   4.498   9.671   4.769 -0.0759  0.0425 -1.5426
  201MOL0     H27117   4.507   9.395   4.377  0.4280  0.6147 -0.9277
  201MOL0     H27118   4.565   9.161   4.315  3.9841 -2.7459 -2.4123
  201MOL0     H27119   5.987   9.412   4.304  0.8381 -1.8660  0.9067
  201MOL0     H27120   5.839   9.228   4.361  1.1067  1.4433  1.7336
  201MOL0     H27121   5.327   9.173   4.350 -1.4345 -0.4434 -1.3223
  201MOL0     H27122   5.128   9.051   4.431  1.3474 -1.6511 -1.5025
  201MOL0     H27123   4.971   8.870   4.510 -3.9977  0.0513  0.5829
  201MOL0     H27124   4.977   8.948   4.666  2.7713  0.7313 -0.2215
  201MOL0     H27125   4.830   8.743   4.684  0.8541  0.9234 -0.9909
  201MOL0     H27126   4.972   8.742   4.793  0.0506 -1.1693  0.3374
  201MOL0     H27127   4.926   8.538   4.698  0.0482  2.0940  3.8229
  201MOL0     H27128   5.082   8.579   4.627 -0.9896 -2.2939 -2.7047
  201MOL0     H27129   4.829   8.655   4.481  0.5032  0.2031  1.1551
  201MOL0     H27130   4.999   8.648   4.425  1.7974  0.6802  1.5585
  201MOL0     H27131   4.851   8.252   4.409  0.9980 -0.7400  1.5018
  201MOL0     H27132   5.381   8.805   4.672  3.0616 -0.3338 -2.6594
  201MOL0     H27133   5.613   8.842   4.693 -0.2454  0.0456 -1.6505
  201MOL0     H27134   5.667   8.837   4.523 -3.3619 -4.5105  0.6931
  201MOL0     H27135   5.692   8.985   4.612 -0.6684  0.4589  0.3164
  202MOL0     O27136   7.585   8.407   3.836 -0.0892 -0.1430  0.3242
  202MOL0     C27137   7.640   8.369   3.729  0.5308  0.5391 -0.0698
  202MOL0     O27138   7.572   8.302   3.631 -0.6967  0.1164 -0.0210
  202MOL0     C27139   7.437   8.274   3.648  0.0837  0.4415  0.0154
  202MOL0     C27140   7.338   8.326   3.561 -0.9802  0.0626  0.5384
  202MOL0     C27141   7.205   8.304   3.581 -0.0854  0.7643 -0.7247
  202MOL0     C27142   7.174   8.228   3.692  0.0489  0.0710  0.7122
  202MOL0     O27143   7.045   8.214   3.718 -0.6015 -0.3833 -0.0358
  202MOL0     C27144   6.994   8.080   3.734  0.4283 -0.9615 -0.0419
  202MOL0     C27145   6.839   8.080   3.764 -0.7032  0.8646 -0.6146
  202MOL0     C27146   6.752   8.140   3.662  0.1357 -0.4624 -0.4923
  202MOL0     C27147   6.599   8.136   3.704  0.1788 -0.3944 -0.6251
  202MOL0     C27148   6.494   8.178   3.591  0.6718  0.3486  0.7715
  202MOL0     C27149   6.480   8.064   3.494 -0.6346  0.0228  0.2278
  202MOL0     C27150   6.369   8.099   3.400 -0.5504 -0.2731  0.3672
  202MOL0     C27151   6.307   7.979   3.327  0.6597 -0.1290 -0.1179
  202MOL0     N27152   6.391   7.935   3.216 -0.1680 -0.0127  0.5153
  202MOL0     C27153   6.429   8.012   3.115  1.1528 -0.1322  0.6818
  202MOL0     C27154   6.483   7.927   3.029 -0.2015 -0.0239 -0.3094
  202MOL0     C27155   6.554   7.944   2.897  1.0187  1.0531  0.7224
  202MOL0     C27156   6.700   7.973   2.900  0.4588 -0.4586 -0.9109
  202MOL0     C27157   6.770   7.841   2.932  0.4044 -0.0263 -0.5200
  202MOL0     C27158   6.920   7.837   2.931 -0.5234 -0.1250 -0.0441
  202MOL0     O27159   6.985   7.890   2.814 -0.1916 -0.1458 -0.0076
  202MOL0     C27160   7.110   7.854   2.775 -0.6128  0.2984  0.2896
  202MOL0     C27161   7.188   7.770   2.848 -0.1375  0.6344 -0.7436
  202MOL0     C27162   7.311   7.726   2.794 -0.1661  0.1834 -0.1796
  202MOL0     C27163   7.359   7.791   2.676 -0.0313 -0.4336  0.0770
  202MOL0     C27164   7.498   7.766   2.634 -0.1860  0.7385 -0.1534
  202MOL0     O27165   7.581   7.704   2.727 -0.4657 -0.4541 -0.3286
  202MOL0     C27166   7.709   7.693   2.678 -0.1483  0.7673 -0.2815
  202MOL0     C27167   7.742   7.596   2.577  0.3769 -0.2981 -0.5109
  202MOL0     C27168   7.876   7.571   2.538 -0.1719  0.7563  0.3240
  202MOL0     C27169   7.980   7.662   2.578  0.3811  0.4228  0.1086
  202MOL0     O27170   8.114   7.618   2.561  0.8691  1.7875 -0.2893
  202MOL0     C27171   8.220   7.703   2.606 -0.3786 -0.7110 -0.5017
  202MOL0     C27172   8.351   7.652   2.548  1.1092  0.3685 -0.7384
  202MOL0     C27173   8.370   7.652   2.398 -0.5566  0.4103  0.5245
  202MOL0     C27174   8.510   7.595   2.345 -0.0386 -0.4479 -0.2475
  202MOL0     C27175   8.537   7.629   2.196  0.3591  0.2815 -0.6814
  202MOL0     C27176   8.678   7.553   2.170  0.4502 -0.1904  0.0341
  202MOL0     C27177   8.757   7.603   2.047 -1.4481 -0.1828 -0.3933
  202MOL0     C27178   8.665   7.607   1.916  0.2570 -0.4810  0.1774
  202MOL0    Cl27179   8.738   7.640   1.759  0.3572  0.3039  0.2829
  202MOL0     C27180   7.940   7.767   2.664 -0.3545  0.6323 -0.2129
  202MOL0     C27181   7.810   7.780   2.719  0.3966 -0.3187 -0.3386
  202MOL0     O27182   7.529   7.790   2.522 -0.6705  0.0542  1.3238
  202MOL0     C27183   7.275   7.873   2.603 -0.7394 -0.2634  0.2829
  202MOL0     C27184   7.155   7.914   2.649 -0.0713  0.1801  0.5342
  202MOL0     N27185   6.496   7.795   3.080  0.2714 -0.6692  0.4052
  202MOL0     N27186   6.440   7.804   3.191  0.8201  0.0187 -0.7129
  202MOL0     C27187   7.267   8.177   3.780 -1.2922  1.0191  0.2192
  202MOL0     C27188   7.399   8.194   3.751  0.4332  0.5368  0.2520
  202MOL0     C27189   7.783   8.394   3.702  0.5560 -1.3990  0.3818
  202MOL0     C27190   7.838   8.341   3.581  0.7700  0.6885 -0.5661
  202MOL0     C27191   7.974   8.341   3.544  0.1558  0.2819 -0.3139
  202MOL0     C27192   8.073   8.389   3.633  0.5028 -0.6172 -0.1925
  202MOL0     O27193   8.193   8.379   3.587  0.2373  0.1032 -0.3375
  202MOL0     C27194   8.289   8.489   3.611  0.5750 -0.0584  1.2581
  202MOL0     C27195   8.363   8.444   3.731 -0.1817 -0.4335 -0.2561
  202MOL0     C27196   8.466   8.553   3.791  1.0047  0.1021  0.0625
  202MOL0     C27197   8.555   8.629   3.687  0.1782 -0.6283  0.3706
  202MOL0     C27198   8.653   8.554   3.609  0.9084  0.0909 -0.2697
  202MOL0     C27199   8.721   8.503   3.529 -0.2931  0.2578  0.4600
  202MOL0     C27200   8.018   8.445   3.754 -0.1147  0.5398 -0.4201
  202MOL0     C27201   7.880   8.451   3.785  0.0179  0.7386  0.2958
  202MOL0     C27202   7.836   8.491   3.926 -0.5064  0.4942 -0.2064
  202MOL0     H27203   7.369   8.400   3.487  1.6386 -0.0585  1.4223
  202MOL0     H27204   7.127   8.344   3.518  0.6954 -1.0044 -2.9442
  202MOL0     H27205   7.017   8.024   3.643  1.6779  0.2189 -0.5002
  202MOL0     H27206   7.044   8.033   3.819  0.9456 -1.6740 -0.7266
  202MOL0     H27207   6.822   8.145   3.851 -2.8357  0.3150 -0.5700
  202MOL0     H27208   6.811   7.978   3.791  2.8306  0.4181  2.0705
  202MOL0     H27209   6.764   8.093   3.564  0.4373 -0.7072 -0.3387
  202MOL0     H27210   6.771   8.248   3.659 -0.6284 -0.2863  0.3302
  202MOL0     H27211   6.560   8.039   3.737 -0.5301 -1.3166 -3.7947
  202MOL0     H27212   6.590   8.197   3.794  1.5173  0.8392 -1.2962
  202MOL0     H27213   6.397   8.188   3.641 -0.4855  1.0312 -1.4821
  202MOL0     H27214   6.519   8.271   3.540  0.9359  1.2178  2.4141
  202MOL0     H27215   6.573   8.041   3.440 -0.4411  1.7877 -0.2628
  202MOL0     H27216   6.448   7.978   3.553  1.7869 -1.9947 -1.2063
  202MOL0     H27217   6.399   8.172   3.324  3.7766 -1.2118  0.8815
  202MOL0     H27218   6.286   8.144   3.456 -1.9645  0.8647 -2.4466
  202MOL0     H27219   6.290   7.894   3.393 -0.7845  0.2854  0.0762
  202MOL0     H27220   6.207   8.013   3.300 -1.0406 -1.6325  3.6578
  202MOL0     H27221   6.405   8.117   3.106 -0.8011 -0.3551  2.3821
  202MOL0     H27222   6.541   7.853   2.837  1.5256  1.0300  0.6383
  202MOL0     H27223   6.497   8.020   2.844 -1.6060 -1.3262 -0.1098
  202MOL0     H27224   6.732   8.033   2.814 -1.1188  0.6963 -0.7186
  202MOL0     H27225   6.709   8.035   2.989  0.3620  0.9155 -1.8310
  202MOL0     H27226   6.726   7.777   2.854 -0.8096  3.2237 -2.7342
  202MOL0     H27227   6.741   7.821   3.035  4.9900  0.5503  1.1053
  202MOL0     H27228   6.952   7.732   2.932 -0.7448 -0.1935 -0.1472
  202MOL0     H27229   6.960   7.895   3.015  2.6601 -0.9823 -0.8089
  202MOL0     H27230   7.158   7.735   2.946  0.8364  2.0796  0.1125
  202MOL0     H27231   7.364   7.654   2.856 -1.3768 -1.5725 -1.0662
  202MOL0     H27232   7.657   7.541   2.537  1.5095 -1.7610 -1.0099
  202MOL0     H27233   7.901   7.489   2.472 -0.9861  1.4822 -0.9436
  202MOL0     H27234   8.214   7.812   2.591 -2.4725 -0.6376  0.3839
  202MOL0     H27235   8.233   7.694   2.715  3.1139  3.0247 -0.3541
  202MOL0     H27236   8.424   7.719   2.594 -3.0669  4.1080  1.1684
  202MOL0     H27237   8.364   7.546   2.574 -1.1789  0.4948  1.3782
  202MOL0     H27238   8.292   7.605   2.337 -0.0144  2.5211 -1.9667
  202MOL0     H27239   8.371   7.760   2.380 -0.8139  0.0434 -2.0569
  202MOL0     H27240   8.527   7.487   2.353  2.0174 -0.3346 -2.1166
  202MOL0     H27241   8.585   7.644   2.408 -1.6609  1.4140  0.3229
  202MOL0     H27242   8.542   7.737   2.183  1.2467 -0.0609 -4.3183
  202MOL0     H27243   8.450   7.600   2.137 -0.0207  0.2119 -0.0921
  202MOL0     H27244   8.743   7.569   2.256 -0.3038 -1.8323  0.9685
  202MOL0     H27245   8.669   7.444   2.162  1.2391 -0.1165 -3.5266
  202MOL0     H27246   8.840   7.535   2.027 -1.1112 -0.3771  1.4644
  202MOL0     H27247   8.816   7.695   2.056  2.2099 -2.5214  2.0988
  202MOL0     H27248   8.627   7.505   1.910  1.2433 -0.8125 -0.8652
  202MOL0     H27249   8.597   7.691   1.931  2.7088  1.6484  0.0476
  202MOL0     H27250   7.998   7.851   2.701 -1.3606  1.0995  0.3337
  202MOL0     H27251   7.779   7.863   2.782 -0.4826  2.5557 -4.1926
  202MOL0     H27252   7.308   7.891   2.501  0.5632 -3.1417  0.0924
  202MOL0     H27253   7.093   7.988   2.599  1.4267  1.4536  0.4825
  202MOL0     H27254   7.239   8.126   3.872 -0.3726 -1.3671 -0.7534
  202MOL0     H27255   7.472   8.162   3.825  1.8431  3.0081  0.0673
  202MOL0     H27256   7.777   8.273   3.523  0.9582 -1.4628  1.6028
  202MOL0     H27257   7.997   8.293   3.450  1.8254  1.0402 -0.3221
  202MOL0     H27258   8.238   8.585   3.623  0.8160  0.4959 -1.6295
  202MOL0     H27259   8.362   8.507   3.532  0.2109 -1.1143  0.6594
  202MOL0     H27260   8.423   8.357   3.704  0.0049 -1.0182  1.8450
  202MOL0     H27261   8.292   8.409   3.807 -1.4643 -3.4797 -2.6675
  202MOL0     H27262   8.528   8.527   3.877  0.9664  1.4393  0.5315
  202MOL0     H27263   8.407   8.630   3.842  3.5157  0.0635  3.2899
  202MOL0     H27264   8.496   8.687   3.615  3.2215  3.7505  1.0615
  202MOL0     H27265   8.614   8.692   3.754  1.9397 -1.4584 -0.3380
  202MOL0     H27266   8.794   8.475   3.456 -2.0336  2.9085 -2.5561
  202MOL0     H27267   8.079   8.493   3.830  0.8631 -1.7141  0.3013
  202MOL0     H27268   7.922   8.534   3.978  0.5336 -2.5190  0.7632
  202MOL0     H27269   7.752   8.560   3.924  0.5186  1.8019  0.1704
  202MOL0     H27270   7.823   8.404   3.991 -0.4444  1.6180  1.3733
  203MOL0     O27271   1.784   1.054   7.406  0.1909  0.1687 -0.4198
  203MOL0     C27272   1.763   1.016   7.285  0.4025  0.3255  0.3049
  203MOL0     O27273   1.674   0.918   7.247  0.4882 -0.4728 -0.2265
  203MOL0     C27274   1.561   0.892   7.318  0.0512  0.1075  0.1889
  203MOL0     C27275   1.518   0.756   7.310  0.7994 -0.5526  1.1503
  203MOL0     C27276   1.408   0.703   7.383  0.6110  0.1472 -0.4955
  203MOL0     C27277   1.327   0.789   7.453  0.4368  0.1484  0.5268
  203MOL0     O27278   1.224   0.738   7.514  0.5412  0.3836  0.2602
  203MOL0     C27279   1.205   0.767   7.655  0.3899 -0.1475  0.5455
  203MOL0     C27280   1.141   0.652   7.720 -0.9172 -0.1017 -1.2400
  203MOL0     C27281   1.113   0.685   7.871  0.0826 -0.5503 -0.5011
  203MOL0     C27282   1.136   0.568   7.984  0.4475 -0.3232  0.5212
  203MOL0     C27283   1.118   0.638   8.119  0.7991  0.6726 -0.1841
  203MOL0     C27284   1.160   0.560   8.241 -0.7625  1.2448 -0.4501
  203MOL0     C27285   1.098   0.422   8.261  0.1993  0.3943  0.5061
  203MOL0     C27286   1.132   0.349   8.388 -0.6373  0.7347  1.7365
  203MOL0     N27287   1.090   0.415   8.505 -0.1800  0.6057  1.1154
  203MOL0     C27288   0.972   0.386   8.559 -0.0544  0.7248  0.1074
  203MOL0     C27289   0.982   0.451   8.674  0.2273  0.5343 -0.5750
  203MOL0     C27290   0.865   0.461   8.772  0.5786 -0.7086 -0.1463
  203MOL0     C27291   0.865   0.324   8.857  0.4222  0.8989  0.6003
  203MOL0     C27292   0.976   0.334   8.957 -0.1433  0.0241 -0.1334
  203MOL0     C27293   0.977   0.203   9.039 -1.1734 -0.0327 -0.6927
  203MOL0     O27294   1.024   0.100   8.955  0.6354 -1.1777 -0.6993
  203MOL0     C27295   0.977  -0.023   8.977  0.7297  0.2658  0.5541
  203MOL0     C27296   0.925  -0.090   8.862  0.1803  0.2661 -0.3715
  203MOL0     C27297   0.892  -0.223   8.877  0.9149  0.6478 -0.3900
  203MOL0     C27298   0.906  -0.294   8.995  0.6467  1.1317  0.2278
  203MOL0     C27299   0.846  -0.436   9.007  0.4143 -0.9822 -0.1150
  203MOL0     O27300   0.780  -0.486   8.900 -0.3343  0.2300 -0.6332
  203MOL0     C27301   0.691  -0.599   8.892 -0.7370  0.5952 -0.1405
  203MOL0     C27302   0.609  -0.594   8.780 -0.1252 -0.8469 -0.1295
  203MOL0     C27303   0.508  -0.689   8.757  0.2977 -0.4509  0.2193
  203MOL0     C27304   0.482  -0.794   8.856  0.1872 -0.2295 -0.4167
  203MOL0     O27305   0.404  -0.909   8.834  0.1627 -0.6768  0.3347
  203MOL0     C27306   0.316  -0.897   8.719 -0.3581  0.6291 -0.3522
  203MOL0     C27307   0.207  -0.795   8.740 -0.2264 -0.4753 -0.0929
  203MOL0     C27308   0.114  -0.845   8.845 -0.4793 -0.3765  0.4311
  203MOL0     C27309   0.029  -0.729   8.895 -0.0651 -1.2129 -0.5006
  203MOL0     C27310  -0.058  -0.650   8.783 -1.0736 -0.2144 -0.2788
  203MOL0     C27311  -0.160  -0.749   8.720  0.6373  0.1540  0.5301
  203MOL0     C27312  -0.232  -0.817   8.846  0.2170 -0.4251 -0.4571
  203MOL0     C27313  -0.351  -0.907   8.807  0.1109  0.2686  0.5192
  203MOL0    Cl27314  -0.482  -0.801   8.758 -0.2353  0.0371 -0.1240
  203MOL0     C27315   0.563  -0.791   8.968 -0.0398 -0.0419  0.0505
  203MOL0     C27316   0.663  -0.698   8.984  0.5458  0.4934  0.5790
  203MOL0     O27317   0.838  -0.482   9.119  0.4536 -0.2371  0.6714
  203MOL0     C27318   0.964  -0.229   9.103 -0.1860  1.0181 -0.2840
  203MOL0     C27319   0.994  -0.088   9.095 -0.8049 -0.2356  0.7043
  203MOL0     N27320   1.108   0.501   8.695 -0.1602 -0.2053  0.4375
  203MOL0     N27321   1.166   0.487   8.581 -0.0557  0.3555 -1.1392
  203MOL0     C27322   1.368   0.922   7.466  0.7516  0.3937  0.2085
  203MOL0     C27323   1.482   0.971   7.405 -0.5346 -0.0932 -0.0878
  203MOL0     C27324   1.848   1.086   7.176  0.0302 -0.9830 -0.1069
  203MOL0     C27325   1.832   1.040   7.045  0.1081 -0.6324 -0.2103
  203MOL0     C27326   1.908   1.097   6.936  0.4805  0.1530 -0.5073
  203MOL0     C27327   1.988   1.208   6.964  1.0225  0.5625 -0.3296
  203MOL0     O27328   2.058   1.252   6.855 -0.0662  0.2165 -0.4113
  203MOL0     C27329   2.170   1.339   6.878  0.5834 -0.1320 -0.4611
  203MOL0     C27330   2.269   1.321   6.755  1.0532  0.2385  0.7083
  203MOL0     C27331   2.197   1.346   6.623 -0.5357  0.1159  0.5549
  203MOL0     C27332   2.232   1.256   6.507  0.4067  0.3312 -0.6481
  203MOL0     C27333   2.375   1.304   6.482  0.3734 -0.0879 -0.5724
  203MOL0     C27334   2.492   1.345   6.465  0.5302 -0.4129  0.0243
  203MOL0     C27335   1.987   1.273   7.090  0.7765  0.5012 -0.6915
  203MOL0     C27336   1.932   1.205   7.198  0.6762  0.8885 -0.6507
  203MOL0     C27337   1.944   1.270   7.333 -0.9305  0.0918  0.6035
  203MOL0     H27338   1.577   0.686   7.253  1.1946  1.8832 -1.7231
  203MOL0     H27339   1.391   0.598   7.361  1.7249  0.4973 -3.5435
  203MOL0     H27340   1.305   0.781   7.696  0.3300 -0.5685  0.8335
  203MOL0     H27341   1.138   0.854   7.658  1.7343  1.3374 -3.9271
  203MOL0     H27342   1.195   0.557   7.727 -1.2671 -0.3709 -2.1547
  203MOL0     H27343   1.043   0.632   7.676 -0.8098 -2.3477 -0.5468
  203MOL0     H27344   1.007   0.711   7.881 -0.0753 -1.0777 -0.7336
  203MOL0     H27345   1.167   0.777   7.894  0.8311 -1.5231  1.8942
  203MOL0     H27346   1.056   0.495   7.967 -2.5135  2.0880  2.9911
  203MOL0     H27347   1.239   0.529   7.985  0.0686 -1.3486  1.2016
  203MOL0     H27348   1.186   0.725   8.121  2.1058 -0.3200  0.9028
  203MOL0     H27349   1.013   0.669   8.124  1.1792  1.8766  1.0114
  203MOL0     H27350   1.269   0.548   8.237 -1.0863 -2.9836 -0.7880
  203MOL0     H27351   1.143   0.622   8.330 -2.7058 -1.3749  1.1490
  203MOL0     H27352   1.129   0.353   8.182  1.1619  0.7261  0.5888
  203MOL0     H27353   0.989   0.431   8.264 -0.2997 -2.0278 -3.4706
  203MOL0     H27354   1.098   0.245   8.387  1.4276  0.0110  0.4550
  203MOL0     H27355   1.241   0.349   8.395 -0.5715  3.2010  1.7965
  203MOL0     H27356   0.885   0.335   8.518  1.5312 -2.1716  0.0722
  203MOL0     H27357   0.864   0.554   8.830 -1.8800 -0.6066 -0.2646
  203MOL0     H27358   0.770   0.468   8.718 -0.1601 -0.4872  1.1366
  203MOL0     H27359   0.770   0.301   8.905  1.6357 -0.6411  2.4183
  203MOL0     H27360   0.889   0.247   8.783  4.8798  3.4071 -0.9791
  203MOL0     H27361   0.959   0.424   9.016 -1.4615  1.7336 -2.9001
  203MOL0     H27362   1.072   0.335   8.904  0.2920 -1.2343  0.5999
  203MOL0     H27363   0.887   0.169   9.092  1.6940  0.4437  5.3564
  203MOL0     H27364   1.045   0.212   9.124 -1.6894 -0.7117 -0.1950
  203MOL0     H27365   0.910  -0.044   8.765 -1.7601  1.8355  0.5770
  203MOL0     H27366   0.845  -0.271   8.792 -0.5729  1.0821  0.1638
  203MOL0     H27367   0.625  -0.510   8.713 -2.4228  0.8498  1.3156
  203MOL0     H27368   0.461  -0.672   8.661  0.5770  0.7072  0.2688
  203MOL0     H27369   0.373  -0.896   8.625  2.0642 -1.9052  0.9596
  203MOL0     H27370   0.258  -0.990   8.719  1.0521 -0.3513  2.7260
  203MOL0     H27371   0.249  -0.697   8.766  2.8865 -1.9092  0.8359
  203MOL0     H27372   0.144  -0.786   8.652  2.3889  2.6638 -1.8694
  203MOL0     H27373   0.063  -0.929   8.796  2.3335 -2.2005  0.4458
  203MOL0     H27374   0.173  -0.886   8.927  1.8995 -3.9663 -2.7967
  203MOL0     H27375   0.114  -0.669   8.930  2.2535 -3.8292 -1.2795
  203MOL0     H27376  -0.033  -0.752   8.982 -0.9940  2.2113 -0.1090
  203MOL0     H27377   0.002  -0.606   8.703  0.1596  2.2110  1.8226
  203MOL0     H27378  -0.105  -0.564   8.832 -1.9953 -0.8284 -0.0518
  203MOL0     H27379  -0.227  -0.692   8.655  1.0457  2.0949  1.7086
  203MOL0     H27380  -0.112  -0.825   8.657  1.6655  1.4926 -0.3712
  203MOL0     H27381  -0.263  -0.738   8.914  3.9150  0.3650  0.5233
  203MOL0     H27382  -0.164  -0.877   8.907 -1.1864  0.5760  2.2480
  203MOL0     H27383  -0.327  -0.971   8.722 -1.0317  2.4355 -1.5675
  203MOL0     H27384  -0.379  -0.966   8.895  0.5451 -1.0136 -0.1822
  203MOL0     H27385   0.537  -0.875   9.032  2.6950  0.2253  1.6772
  203MOL0     H27386   0.727  -0.698   9.072 -3.3318  0.9165  3.6833
  203MOL0     H27387   0.981  -0.285   9.194  0.7102 -1.0767 -1.6502
  203MOL0     H27388   1.037  -0.036   9.180  0.6231  0.5236 -0.4249
  203MOL0     H27389   1.307   0.986   7.530  0.7849 -2.3970  3.2611
  203MOL0     H27390   1.512   1.075   7.415  2.1543 -0.8515  0.6843
  203MOL0     H27391   1.770   0.956   7.016  1.2002 -1.4777 -0.1704
  203MOL0     H27392   1.901   1.040   6.844  0.7703  1.0276 -1.0782
  203MOL0     H27393   2.218   1.324   6.975 -3.9251  0.6945  2.2440
  203MOL0     H27394   2.125   1.439   6.885  2.3252  0.6292  0.5163
  203MOL0     H27395   2.300   1.216   6.747 -0.0248 -0.0290 -0.2778
  203MOL0     H27396   2.361   1.376   6.775  2.0408 -1.4141  0.9141
  203MOL0     H27397   2.201   1.449   6.587 -3.2276 -0.2569 -1.1169
  203MOL0     H27398   2.090   1.330   6.643 -0.4804 -0.3774  0.4690
  203MOL0     H27399   2.230   1.150   6.534  0.1835  0.5026  0.0324
  203MOL0     H27400   2.169   1.267   6.419  0.4547  2.7555 -0.4727
  203MOL0     H27401   2.587   1.393   6.455  1.2630 -1.5109  1.3249
  203MOL0     H27402   2.040   1.366   7.109  1.2377  0.1830 -0.4076
  203MOL0     H27403   1.839   1.285   7.358 -1.6988 -0.8476 -1.7222
  203MOL0     H27404   1.993   1.194   7.395 -0.2108 -0.0808 -0.1494
  203MOL0     H27405   1.994   1.368   7.334  2.1911 -1.3620  2.8154
  204MOL0     O27406   7.953   1.926   7.970 -0.2030  0.1842 -0.5123
  204MOL0     C27407   7.896   1.820   8.009  0.3373 -0.3726  0.6071
  204MOL0     O27408   7.966   1.712   8.063 -0.4952  0.6224 -0.4128
  204MOL0     C27409   8.103   1.732   8.071  0.3778  0.0682  0.2374
  204MOL0     C27410   8.155   1.774   8.187 -0.1818  0.1628  0.8435
  204MOL0     C27411   8.288   1.785   8.202 -0.2842 -1.4508 -0.2757
  204MOL0     C27412   8.384   1.755   8.096 -0.2453 -0.1750 -0.1925
  204MOL0     O27413   8.511   1.793   8.106 -0.0090  0.4349  0.1534
  204MOL0     C27414   8.620   1.726   8.025  0.6187 -0.4431 -0.3672
  204MOL0     C27415   8.755   1.748   8.089 -0.0331 -0.5508  0.9746
  204MOL0     C27416   8.814   1.889   8.053 -0.7542  0.8143  0.3340
  204MOL0     C27417   8.968   1.879   8.058  0.4061  0.2397 -0.3895
  204MOL0     C27418   9.045   2.017   8.031 -0.8775  0.5943 -0.2038
  204MOL0     C27419   9.042   2.129   8.134 -0.1324  1.0922 -0.7718
  204MOL0     C27420   9.043   2.088   8.279  0.8112  0.1846  1.3676
  204MOL0     C27421   9.075   2.204   8.379 -0.1526  0.0964 -0.0722
  204MOL0     N27422   9.211   2.252   8.346 -0.6988  0.5669 -0.6200
  204MOL0     C27423   9.320   2.179   8.387  0.0502  0.1872  0.5489
  204MOL0     C27424   9.431   2.253   8.354  0.1161 -0.2800 -0.2263
  204MOL0     C27425   9.577   2.235   8.379  0.1521 -0.5537  0.3029
  204MOL0     C27426   9.645   2.175   8.256 -0.1202  0.1180 -0.9268
  204MOL0     C27427   9.636   2.022   8.259  0.2372 -0.8175  0.5423
  204MOL0     C27428   9.762   1.962   8.318  0.1625  0.3146 -0.8670
  204MOL0     O27429   9.835   2.062   8.394  0.2790 -0.2827  0.2794
  204MOL0     C27430   9.975   2.059   8.395  0.2657  0.5239  0.2518
  204MOL0     C27431  10.027   2.185   8.431 -0.2829  0.7830  0.1593
  204MOL0     C27432  10.165   2.190   8.452  0.1910  0.1049  0.6073
  204MOL0     C27433  10.256   2.086   8.407 -0.1856  0.2584 -0.9483
  204MOL0     C27434  10.403   2.094   8.425 -0.2972 -1.1152  0.1992
  204MOL0     O27435  10.437   2.200   8.494 -0.3804 -0.4426  0.1072
  204MOL0     C27436  10.570   2.227   8.513 -0.5059  0.2235  0.9466
  204MOL0     C27437  10.637   2.148   8.612  0.0316  0.2084 -0.1200
  204MOL0     C27438  10.773   2.177   8.638 -0.4586  0.5008 -0.3780
  204MOL0     C27439  10.841   2.285   8.572 -0.1579  0.3355 -1.2567
  204MOL0     O27440  10.977   2.311   8.579 -0.1101  0.3384 -0.2370
  204MOL0     C27441  11.039   2.312   8.702  0.0869 -0.2628  0.1067
  204MOL0     C27442  11.180   2.375   8.688  1.2575 -0.0692 -0.8348
  204MOL0     C27443  11.248   2.362   8.551  0.1458  0.2874 -0.3120
  204MOL0     C27444  11.304   2.223   8.530 -1.3777 -0.1200  0.1244
  204MOL0     C27445  11.424   2.180   8.619 -0.4707  0.7811  0.6376
  204MOL0     C27446  11.516   2.074   8.551  0.3648  0.1646 -0.8208
  204MOL0     C27447  11.622   2.016   8.640  0.1295 -1.1446  0.9235
  204MOL0     C27448  11.663   1.873   8.614 -0.0948 -0.0669 -0.9637
  204MOL0    Cl27449  11.790   1.822   8.720  0.2076 -0.2327  0.0853
  204MOL0     C27450  10.768   2.361   8.484  0.8771 -0.7597  0.4691
  204MOL0     C27451  10.628   2.339   8.457  0.5438  0.3804 -0.4325
  204MOL0     O27452  10.474   2.012   8.381  0.2193  0.0180  0.0887
  204MOL0     C27453  10.198   1.976   8.343  0.8526  0.4567 -0.3228
  204MOL0     C27454  10.060   1.957   8.340  1.3118 -0.5413 -1.1583
  204MOL0     N27455   9.387   2.369   8.292  0.3849  0.0982 -0.3622
  204MOL0     N27456   9.253   2.367   8.284 -0.2191 -0.0509  0.0951
  204MOL0     C27457   8.314   1.713   7.976 -0.3747  0.5287  0.8047
  204MOL0     C27458   8.176   1.704   7.962 -0.2357  0.7611 -0.2963
  204MOL0     C27459   7.753   1.802   7.980 -0.5068 -0.3060 -1.0448
  204MOL0     C27460   7.698   1.675   8.022 -0.8759 -0.4083  0.5367
  204MOL0     C27461   7.556   1.661   8.017  0.1505 -0.2456  0.3879
  204MOL0     C27462   7.463   1.757   7.975 -0.1609 -0.3451  0.7419
  204MOL0     O27463   7.324   1.728   7.947 -0.1684 -0.2089 -0.7270
  204MOL0     C27464   7.254   1.635   8.026 -0.4981 -0.1216 -0.7034
  204MOL0     C27465   7.109   1.664   8.015 -0.4118  0.2462 -0.7277
  204MOL0     C27466   7.059   1.600   7.890  0.1583 -0.1923 -0.1046
  204MOL0     C27467   6.921   1.646   7.844 -0.3737  0.0618 -0.2648
  204MOL0     C27468   6.815   1.606   7.939  0.1740 -0.1915 -0.3724
  204MOL0     C27469   6.723   1.572   8.015 -0.7783 -0.1205 -0.8376
  204MOL0     C27470   7.521   1.875   7.936  0.0880 -0.7214  0.1239
  204MOL0     C27471   7.659   1.905   7.947  0.2763  0.3390 -0.5354
  204MOL0     C27472   7.704   2.041   7.907  0.2546 -0.5701  0.1496
  204MOL0     H27473   8.094   1.810   8.270 -0.0569  1.8347  0.2427
  204MOL0     H27474   8.321   1.833   8.293 -1.8990  2.9445 -1.7214
  204MOL0     H27475   8.605   1.618   8.018  1.1190 -0.4248 -2.8797
  204MOL0     H27476   8.620   1.777   7.928 -1.6806 -0.0103 -0.2003
  204MOL0     H27477   8.828   1.679   8.045  1.5499  0.8706  1.2556
  204MOL0     H27478   8.751   1.743   8.199  1.0110 -0.4888  1.0252
  204MOL0     H27479   8.784   1.964   8.127 -0.5908  2.2381 -0.9999
  204MOL0     H27480   8.775   1.915   7.954 -0.6371 -2.6001 -0.7761
  204MOL0     H27481   8.992   1.841   8.158  1.8468 -0.6626 -1.0354
  204MOL0     H27482   8.998   1.797   7.993 -2.2796 -1.4093  0.3116
  204MOL0     H27483   9.148   1.987   8.009 -1.8126 -2.6533 -0.7902
  204MOL0     H27484   9.008   2.058   7.937 -0.5973  0.0705 -0.5487
  204MOL0     H27485   9.137   2.178   8.112  0.9759 -1.2405 -1.5484
  204MOL0     H27486   8.961   2.197   8.108  1.2287  2.1513 -2.4861
  204MOL0     H27487   9.109   2.004   8.300 -0.1084 -0.4428  1.8530
  204MOL0     H27488   8.939   2.062   8.301 -0.5953  2.9999 -1.1772
  204MOL0     H27489   9.008   2.291   8.379  1.9321  1.8066  1.0596
  204MOL0     H27490   9.074   2.167   8.482  2.2820 -0.3033 -0.1276
  204MOL0     H27491   9.322   2.087   8.444 -1.9359 -1.2947 -1.5333
  204MOL0     H27492   9.617   2.335   8.397 -2.9636  0.8329  0.0878
  204MOL0     H27493   9.605   2.167   8.461  1.1002  1.3056  1.5888
  204MOL0     H27494   9.584   2.202   8.169 -1.3966  2.3557  0.5625
  204MOL0     H27495   9.748   2.210   8.245  0.0029  0.8059  1.8843
  204MOL0     H27496   9.617   1.982   8.159 -0.7498 -2.2254  1.2651
  204MOL0     H27497   9.542   1.985   8.300 -2.2994 -0.4119 -4.1453
  204MOL0     H27498   9.828   1.926   8.239  0.0265 -1.2044 -0.3070
  204MOL0     H27499   9.734   1.875   8.377 -1.6495  0.7694 -0.9794
  204MOL0     H27500   9.955   2.260   8.462  0.7275  1.4851  0.8971
  204MOL0     H27501  10.205   2.277   8.504  0.2711  1.2923 -1.3274
  204MOL0     H27502  10.589   2.058   8.649 -1.9821 -0.3828 -3.6649
  204MOL0     H27503  10.837   2.120   8.705  1.2494  0.3320 -2.0434
  204MOL0     H27504  10.982   2.369   8.776  0.6110 -0.5011  0.7069
  204MOL0     H27505  11.061   2.214   8.747  1.0664  0.9230  2.4278
  204MOL0     H27506  11.164   2.479   8.720 -1.5277 -1.5143  3.2775
  204MOL0     H27507  11.243   2.345   8.772 -0.6476  0.6868  0.9713
  204MOL0     H27508  11.195   2.393   8.460 -0.9239  1.2918  0.6195
  204MOL0     H27509  11.331   2.433   8.551 -0.6758  1.2787  0.6328
  204MOL0     H27510  11.334   2.221   8.425  1.1451 -0.6449  0.8006
  204MOL0     H27511  11.227   2.145   8.536  0.2296 -1.7414  0.8730
  204MOL0     H27512  11.390   2.138   8.714  0.1157 -0.5899  0.2667
  204MOL0     H27513  11.480   2.272   8.638 -0.2699  0.1367  3.6275
  204MOL0     H27514  11.454   1.995   8.508 -2.4943  1.6163  0.3730
  204MOL0     H27515  11.553   2.133   8.466  0.3354  0.6446 -0.5038
  204MOL0     H27516  11.586   2.039   8.741  2.2692  3.3269  0.9083
  204MOL0     H27517  11.711   2.080   8.634 -1.3155  0.9472  0.8045
  204MOL0     H27518  11.578   1.805   8.612  0.9276 -1.3571 -2.2410
  204MOL0     H27519  11.707   1.873   8.514 -1.6155 -3.0020 -1.7314
  204MOL0     H27520  10.826   2.431   8.424  2.0690 -2.3791 -0.3215
  204MOL0     H27521  10.560   2.401   8.400  0.7019  1.8538  0.9003
  204MOL0     H27522  10.254   1.894   8.299 -1.1214 -0.2951 -1.5435
  204MOL0     H27523  10.013   1.870   8.296  0.2698 -0.7708  0.3349
  204MOL0     H27524   8.378   1.694   7.891 -0.7117 -1.0546  0.8649
  204MOL0     H27525   8.142   1.656   7.871 -1.3892 -1.5092  1.2403
  204MOL0     H27526   7.767   1.602   8.061 -0.2775 -0.0147  0.2320
  204MOL0     H27527   7.521   1.561   8.041 -1.1941  0.4582  1.5061
  204MOL0     H27528   7.288   1.644   8.130  3.0347  0.2536 -1.7490
  204MOL0     H27529   7.267   1.539   7.975 -2.0417  0.4535 -2.2329
  204MOL0     H27530   7.102   1.773   8.015 -2.8545  0.2650  2.6236
  204MOL0     H27531   7.064   1.623   8.106  1.6375 -3.2098 -1.0944
  204MOL0     H27532   7.065   1.491   7.887  3.8907 -0.1382  0.6995
  204MOL0     H27533   7.125   1.617   7.805 -1.2596 -0.7002 -1.3416
  204MOL0     H27534   6.918   1.755   7.839  2.2599  0.3113  1.9746
  204MOL0     H27535   6.899   1.598   7.748  1.0219  1.4491 -1.3240
  204MOL0     H27536   6.648   1.542   8.085  0.1848 -1.2017 -0.2292
  204MOL0     H27537   7.456   1.953   7.897  0.5703  0.1838  1.0598
  204MOL0     H27538   7.711   2.107   7.994 -5.0446  1.1727 -0.3601
  204MOL0     H27539   7.796   2.053   7.849 -0.9086 -0.3893 -1.7850
  204MOL0     H27540   7.630   2.082   7.836 -0.9271 -1.4914  0.8190
  205MOL0     O27541   3.873   9.770   0.623  0.0536  0.4032 -0.1312
  205MOL0     C27542   3.899   9.798   0.735 -0.4409  0.3377  0.1700
  205MOL0     O27543   3.816   9.860   0.826 -0.2816 -0.7362  0.1416
  205MOL0     C27544   3.690   9.896   0.791 -0.4382 -0.4702  0.0569
  205MOL0     C27545   3.647  10.024   0.774 -0.0377 -0.3506 -0.0604
  205MOL0     C27546   3.514  10.048   0.766  0.5719  0.3641  1.1329
  205MOL0     C27547   3.419   9.955   0.790 -1.0502 -0.1819 -0.4675
  205MOL0     O27548   3.282   9.991   0.794  0.1921  0.0504 -0.2171
  205MOL0     C27549   3.182   9.891   0.752 -0.0702  0.2379 -0.0743
  205MOL0     C27550   3.045   9.961   0.756  0.4882  1.1992  0.4441
  205MOL0     C27551   2.937   9.856   0.701  0.7032  0.7161  0.0147
  205MOL0     C27552   2.787   9.901   0.724 -0.0444  0.0864 -0.2858
  205MOL0     C27553   2.683   9.801   0.675 -0.4427 -0.0043  0.3940
  205MOL0     C27554   2.546   9.820   0.732  0.5324 -0.1380 -0.2396
  205MOL0     C27555   2.438   9.742   0.658  0.9613 -0.6271  0.8797
  205MOL0     C27556   2.329   9.717   0.754  0.3239  0.1197 -0.0563
  205MOL0     N27557   2.260   9.847   0.778  0.5044  0.3049 -0.3674
  205MOL0     C27558   2.211   9.927   0.682  0.5951  0.3908 -0.1627
  205MOL0     C27559   2.149  10.030   0.741 -0.7576 -0.3519 -0.1515
  205MOL0     C27560   2.073  10.130   0.656 -0.3337 -0.0769 -0.5311
  205MOL0     C27561   2.019  10.246   0.738  0.2755 -0.7955 -0.1954
  205MOL0     C27562   2.122  10.361   0.748  0.5419 -0.6286  0.4624
  205MOL0     C27563   2.050  10.503   0.775 -0.7837  0.1001  0.1294
  205MOL0     O27564   2.007  10.566   0.652  0.0082 -0.1487 -0.6388
  205MOL0     C27565   2.098  10.622   0.558  0.1789  0.0677  0.8595
  205MOL0     C27566   2.045  10.709   0.467 -0.1493 -0.0710  0.1163
  205MOL0     C27567   2.115  10.768   0.362  0.1474 -0.0798  0.1828
  205MOL0     C27568   2.253  10.749   0.356  0.9199  1.2323 -0.5295
  205MOL0     C27569   2.339  10.814   0.254  0.2203  0.1125 -0.0532
  205MOL0     O27570   2.460  10.755   0.225  0.8684 -0.0785  0.7187
  205MOL0     C27571   2.523  10.792   0.109 -0.1844 -0.2239 -0.0757
  205MOL0     C27572   2.566  10.927   0.090 -0.8212  0.4680  0.0818
  205MOL0     C27573   2.635  10.967  -0.026  0.1935 -0.2741 -0.0802
  205MOL0     C27574   2.655  10.870  -0.125 -1.1741  0.2266 -0.6608
  205MOL0     O27575   2.712  10.915  -0.232  0.4458 -0.5347 -0.6325
  205MOL0     C27576   2.761  10.826  -0.336 -0.0865  0.5953  0.6744
  205MOL0     C27577   2.788  10.891  -0.473 -0.3695  0.0660  0.4481
  205MOL0     C27578   2.873  10.798  -0.563  0.8722  0.9173 -1.0140
  205MOL0     C27579   2.928  10.861  -0.684 -0.2185 -0.1443 -0.2492
  205MOL0     C27580   3.064  10.799  -0.734  0.4654  0.0697  0.5449
  205MOL0     C27581   3.019  10.692  -0.823  0.5207 -0.3309  0.4950
  205MOL0     C27582   3.149  10.630  -0.871  0.0189  0.5226  0.2776
  205MOL0     C27583   3.122  10.491  -0.920 -0.6239  0.1740 -0.8251
  205MOL0    Cl27584   3.278  10.422  -0.967  0.3423  0.0089 -0.0077
  205MOL0     C27585   2.622  10.735  -0.098  0.4237  0.6626 -0.0560
  205MOL0     C27586   2.550  10.693   0.012 -0.5043 -0.4608  0.7544
  205MOL0     O27587   2.286  10.903   0.193 -0.0132 -0.6077 -1.0870
  205MOL0     C27588   2.310  10.674   0.452 -0.2209  0.5384 -1.0918
  205MOL0     C27589   2.235  10.612   0.555  0.5102  0.4427  0.3244
  205MOL0     N27590   2.181  10.022   0.873 -0.1329  0.1177 -0.2113
  205MOL0     N27591   2.245   9.917   0.895  0.3352 -0.4959  0.0679
  205MOL0     C27592   3.464   9.818   0.782  1.4272  0.8516 -0.2104
  205MOL0     C27593   3.597   9.791   0.792 -0.7768  0.3591 -0.2820
  205MOL0     C27594   4.045   9.799   0.773 -1.2155 -0.6682 -0.3303
  205MOL0     C27595   4.084   9.898   0.864 -0.9479 -0.6035 -0.0427
  205MOL0     C27596   4.220   9.928   0.895 -0.4341  0.2906 -0.6685
  205MOL0     C27597   4.322   9.850   0.839 -0.3033  0.1872 -0.4708
  205MOL0     O27598   4.450   9.887   0.865 -0.5799  0.5942  0.3446
  205MOL0     C27599   4.563   9.824   0.791 -0.1728 -0.0080 -0.3640
  205MOL0     C27600   4.698   9.849   0.857  0.3622  0.2395  0.3249
  205MOL0     C27601   4.742   9.732   0.943 -0.0334  0.1278 -0.4415
  205MOL0     C27602   4.812   9.614   0.866  0.1706 -0.9895 -0.2274
  205MOL0     C27603   4.911   9.530   0.948 -0.1870 -0.2824 -0.1238
  205MOL0     C27604   4.992   9.462   1.002 -0.0971 -0.3344 -0.4093
  205MOL0     C27605   4.278   9.742   0.753  0.0248  0.2345 -1.0370
  205MOL0     C27606   4.142   9.717   0.722  1.2350  0.2053  0.2487
  205MOL0     C27607   4.115   9.609   0.613 -1.0635  0.3338 -0.1398
  205MOL0     H27608   3.721  10.103   0.768  1.8959 -2.1556 -1.4277
  205MOL0     H27609   3.476  10.150   0.756  1.3156  0.6955  1.5958
  205MOL0     H27610   3.208   9.860   0.650 -2.2688  1.1201 -0.9631
  205MOL0     H27611   3.179   9.803   0.818  0.5846  0.4171  0.1950
  205MOL0     H27612   3.054  10.047   0.688 -3.6176 -0.3281 -2.3895
  205MOL0     H27613   3.029   9.989   0.860 -1.0592 -1.6107  1.0505
  205MOL0     H27614   2.954   9.761   0.753 -0.0127 -1.3130 -3.1529
  205MOL0     H27615   2.955   9.826   0.597  1.1954 -0.4770  0.4194
  205MOL0     H27616   2.770   9.924   0.830 -0.6399 -2.5558  0.2666
  205MOL0     H27617   2.760   9.984   0.658  1.7950 -0.4351 -1.7875
  205MOL0     H27618   2.677   9.810   0.566 -1.4437 -0.2273  0.4137
  205MOL0     H27619   2.718   9.698   0.687  0.3829  0.1324 -0.7158
  205MOL0     H27620   2.559   9.799   0.838  1.2038  0.7406 -0.1314
  205MOL0     H27621   2.516   9.924   0.718 -0.3029 -0.4387 -0.7602
  205MOL0     H27622   2.484   9.650   0.620 -1.2248 -0.2008 -3.3711
  205MOL0     H27623   2.402   9.793   0.568 -0.0915 -2.3266  0.2752
  205MOL0     H27624   2.264   9.633   0.728 -0.5467  0.9630 -0.7019
  205MOL0     H27625   2.380   9.685   0.845  0.5584 -1.2793 -0.6576
  205MOL0     H27626   2.225   9.910   0.576  0.7024 -1.6322  0.1392
  205MOL0     H27627   2.147  10.169   0.585  2.8922 -0.3756  2.4124
  205MOL0     H27628   1.993  10.073   0.608 -1.3878  1.6846 -0.9779
  205MOL0     H27629   1.930  10.294   0.698 -1.1952 -2.1275  1.3505
  205MOL0     H27630   1.987  10.206   0.835 -0.5518  2.8615  1.2328
  205MOL0     H27631   2.189  10.359   0.661  0.7956  0.0213  0.6374
  205MOL0     H27632   2.186  10.354   0.836  1.1205  3.6174  0.5898
  205MOL0     H27633   2.124  10.563   0.829  0.5615 -1.2117 -0.1808
  205MOL0     H27634   1.974  10.478   0.850  1.6944 -3.2080  1.8294
  205MOL0     H27635   1.939  10.726   0.478 -0.0866  0.0852  0.4895
  205MOL0     H27636   2.062  10.821   0.285 -0.1487 -1.5995 -0.7065
  205MOL0     H27637   2.547  11.005   0.163  0.4037 -1.2691  2.3798
  205MOL0     H27638   2.662  11.071  -0.037  1.8265 -0.5912  0.5294
  205MOL0     H27639   2.852  10.772  -0.308 -0.0733  0.8718  1.1804
  205MOL0     H27640   2.693  10.743  -0.355 -3.1388  3.1482 -0.4783
  205MOL0     H27641   2.691  10.902  -0.522  0.3182 -2.9332 -1.8566
  205MOL0     H27642   2.831  10.991  -0.467 -0.0338 -0.0594  0.1784
  205MOL0     H27643   2.948  10.748  -0.500  0.2843 -0.2875 -1.2431
  205MOL0     H27644   2.816  10.709  -0.592  1.4256  0.0880  0.2874
  205MOL0     H27645   2.959  10.959  -0.647 -3.2256  1.0060 -0.4880
  205MOL0     H27646   2.855  10.876  -0.764  0.3235  0.6373 -0.6110
  205MOL0     H27647   3.118  10.756  -0.650 -0.0074 -0.3862  0.6205
  205MOL0     H27648   3.125  10.869  -0.792  2.5425 -1.5667  0.6494
  205MOL0     H27649   2.954  10.621  -0.769  1.4394 -1.2455  0.4405
  205MOL0     H27650   2.967  10.724  -0.913  1.4934 -2.2369 -0.8096
  205MOL0     H27651   3.218  10.618  -0.787 -0.4324 -0.1314  0.5681
  205MOL0     H27652   3.212  10.683  -0.943  1.8300 -0.6195  0.9314
  205MOL0     H27653   3.083  10.428  -0.839  1.5132 -1.4011 -0.9210
  205MOL0     H27654   3.050  10.490  -1.003 -1.4083  0.0491 -0.1560
  205MOL0     H27655   2.631  10.656  -0.171  0.8304  0.2207  0.4686
  205MOL0     H27656   2.527  10.588   0.026 -1.1456 -0.6631 -1.3763
  205MOL0     H27657   2.416  10.657   0.436 -0.7591 -3.9345 -1.1095
  205MOL0     H27658   2.295  10.543   0.613 -0.2425  1.0460  1.8619
  205MOL0     H27659   3.397   9.734   0.797  0.8001  1.5966  1.3474
  205MOL0     H27660   3.638   9.691   0.800  1.8758  1.3622 -0.5104
  205MOL0     H27661   4.016   9.975   0.900  0.9027  0.6973  0.7920
  205MOL0     H27662   4.240  10.015   0.957 -0.0830  0.5644 -1.1617
  205MOL0     H27663   4.554   9.865   0.690 -3.1961  2.8217  0.8742
  205MOL0     H27664   4.543   9.717   0.779  0.8305 -0.2929  0.3854
  205MOL0     H27665   4.683   9.943   0.912 -4.8222 -0.3586  0.4486
  205MOL0     H27666   4.775   9.865   0.782  0.4364  0.6868  0.4925
  205MOL0     H27667   4.651   9.693   0.989  1.5600 -3.5724 -0.0182
  205MOL0     H27668   4.816   9.776   1.011 -0.5813  2.1880 -1.1077
  205MOL0     H27669   4.725   9.555   0.834 -0.8089  0.5066 -0.4134
  205MOL0     H27670   4.863   9.672   0.788 -0.2015 -0.6573 -0.2305
  205MOL0     H27671   5.052   9.378   1.031  4.1712  2.2639 -0.7996
  205MOL0     H27672   4.344   9.674   0.699 -1.4973 -1.9840 -0.2244
  205MOL0     H27673   4.101   9.658   0.516  2.1735  1.8022  0.0116
  205MOL0     H27674   4.198   9.538   0.605 -0.6221  0.8445 -0.2007
  205MOL0     H27675   4.029   9.541   0.620  0.6675 -2.0151 -0.4296
  206MOL0     O27676   3.923   0.849   9.178  0.0119 -0.3372 -0.2107
  206MOL0     C27677   3.867   0.749   9.220 -0.5448 -0.2579  0.9637
  206MOL0     O27678   3.916   0.666   9.312  0.1494 -0.3616  0.5943
  206MOL0     C27679   4.048   0.678   9.355 -0.0291 -0.1192 -0.6838
  206MOL0     C27680   4.072   0.699   9.495  0.6163 -0.0939 -0.0517
  206MOL0     C27681   4.196   0.726   9.539  0.7961 -0.0885  0.0622
  206MOL0     C27682   4.310   0.729   9.455  0.3816  0.7400 -1.3669
  206MOL0     O27683   4.437   0.759   9.496  0.1039  0.0393  0.0973
  206MOL0     C27684   4.550   0.728   9.413 -1.0775  0.0371  0.1817
  206MOL0     C27685   4.601   0.580   9.415 -0.3336 -0.1729  1.1240
  206MOL0     C27686   4.605   0.523   9.553  0.3401 -0.1414  0.2529
  206MOL0     C27687   4.593   0.370   9.548  0.2258  0.0277 -0.1874
  206MOL0     C27688   4.602   0.303   9.686  0.7238 -0.5859 -0.4076
  206MOL0     C27689   4.581   0.145   9.660  0.5585  0.5307 -0.2670
  206MOL0     C27690   4.443   0.112   9.594  0.5699  0.4955  0.0433
  206MOL0     C27691   4.415  -0.038   9.583  0.3591 -0.2337  0.1382
  206MOL0     N27692   4.333  -0.101   9.692  0.0259 -0.2364 -0.3143
  206MOL0     C27693   4.379  -0.187   9.787  0.3387 -0.0494 -0.4004
  206MOL0     C27694   4.266  -0.220   9.858 -0.3900 -0.2270 -0.0530
  206MOL0     C27695   4.259  -0.310   9.971 -0.0562  0.1050 -0.0866
  206MOL0     C27696   4.180  -0.444   9.941  0.9446 -0.0791 -0.1810
  206MOL0     C27697   4.273  -0.562   9.904  0.0761  0.8291 -0.3400
  206MOL0     C27698   4.366  -0.534   9.796  0.3826  0.0440 -0.1617
  206MOL0     O27699   4.312  -0.480   9.677  0.6384  0.7098  0.5345
  206MOL0     C27700   4.242  -0.551   9.579 -0.0433  0.4120 -0.0751
  206MOL0     C27701   4.194  -0.471   9.471  0.1206 -0.0705 -0.1149
  206MOL0     C27702   4.117  -0.530   9.368  0.0767 -0.0611  0.5471
  206MOL0     C27703   4.096  -0.666   9.370  0.1168  0.5061 -0.4087
  206MOL0     C27704   4.029  -0.737   9.260  0.1149  0.2014 -0.8070
  206MOL0     O27705   4.002  -0.671   9.147  0.0821 -0.5781 -0.4974
  206MOL0     C27706   3.938  -0.719   9.038  0.1432 -0.3220  0.3901
  206MOL0     C27707   3.978  -0.837   8.967  0.9296  0.6549  0.6410
  206MOL0     C27708   3.894  -0.874   8.862  0.3602 -0.4441  0.1516
  206MOL0     C27709   3.774  -0.803   8.819 -0.4209  0.2341 -0.2113
  206MOL0     O27710   3.689  -0.842   8.724 -0.5010 -0.5695 -0.2119
  206MOL0     C27711   3.742  -0.949   8.636 -0.3532 -0.2103 -0.1164
  206MOL0     C27712   3.650  -0.966   8.524 -0.5717  0.0009  0.5135
  206MOL0     C27713   3.641  -0.851   8.421  0.0217 -0.2466  0.2408
  206MOL0     C27714   3.538  -0.885   8.308 -0.6706  0.6353  0.1137
  206MOL0     C27715   3.573  -0.812   8.178 -0.3335  0.1254  0.0425
  206MOL0     C27716   3.472  -0.833   8.062  0.1077 -0.6535 -0.4703
  206MOL0     C27717   3.546  -0.832   7.922  0.6417  0.3321  0.1290
  206MOL0     C27718   3.457  -0.848   7.802 -0.0440 -0.6902 -0.0992
  206MOL0    Cl27719   3.557  -0.820   7.664 -0.0168 -0.1885  0.2282
  206MOL0     C27720   3.745  -0.688   8.895 -0.4002  0.1804 -0.5957
  206MOL0     C27721   3.822  -0.645   9.000 -0.0307  0.0774  0.0539
  206MOL0     O27722   4.007  -0.859   9.278  0.1618 -0.1356  0.4908
  206MOL0     C27723   4.153  -0.741   9.474  0.3971  0.2793 -0.0029
  206MOL0     C27724   4.224  -0.695   9.579 -0.3006  0.5710 -0.4639
  206MOL0     N27725   4.156  -0.152   9.800 -0.3455  0.3269 -1.3651
  206MOL0     N27726   4.194  -0.086   9.701 -1.6249 -0.2413 -0.8603
  206MOL0     C27727   4.288   0.688   9.326 -0.0466 -0.4556  0.1973
  206MOL0     C27728   4.156   0.663   9.277 -0.0366 -0.0361 -0.1559
  206MOL0     C27729   3.729   0.725   9.164  0.1513  0.2390 -0.1548
  206MOL0     C27730   3.654   0.616   9.219 -0.0103  0.0136  0.6509
  206MOL0     C27731   3.534   0.566   9.159  0.3504 -0.4179 -0.1404
  206MOL0     C27732   3.481   0.639   9.051 -0.1944 -0.1673  0.1383
  206MOL0     O27733   3.358   0.595   9.004 -0.0689 -0.8444  0.2500
  206MOL0     C27734   3.283   0.656   8.893 -0.2116  0.0331  0.0253
  206MOL0     C27735   3.317   0.598   8.753 -0.3747 -0.3118  0.3082
  206MOL0     C27736   3.325   0.437   8.753 -0.2553 -0.7479 -0.1354
  206MOL0     C27737   3.185   0.389   8.742  0.1756 -0.4840 -0.4943
  206MOL0     C27738   3.144   0.376   8.599  0.8553 -0.1381 -0.0040
  206MOL0     C27739   3.130   0.332   8.484  0.5591  0.7077  0.4174
  206MOL0     C27740   3.550   0.747   8.999 -0.1291 -0.0339  0.3513
  206MOL0     C27741   3.677   0.783   9.046 -0.0187 -0.0293  1.1988
  206MOL0     C27742   3.738   0.898   8.970  0.4421 -0.5477 -0.1254
  206MOL0     H27743   3.981   0.705   9.553  0.9495 -0.8315  0.5703
  206MOL0     H27744   4.222   0.753   9.641 -1.7065  0.4371  0.6163
  206MOL0     H27745   4.544   0.769   9.311  0.3445  1.3607  0.5850
  206MOL0     H27746   4.633   0.777   9.464 -1.1004  1.3507 -0.9838
  206MOL0     H27747   4.696   0.570   9.362  0.2393  0.0383  2.0806
  206MOL0     H27748   4.529   0.525   9.353  0.5676 -0.5327  0.3769
  206MOL0     H27749   4.526   0.564   9.616  1.1907 -0.6268  1.6904
  206MOL0     H27750   4.703   0.546   9.597  0.2824 -0.9983  0.8536
  206MOL0     H27751   4.489   0.352   9.521  0.2318  1.0933 -0.9836
  206MOL0     H27752   4.668   0.327   9.482 -1.5714 -0.2723 -2.1409
  206MOL0     H27753   4.701   0.314   9.731  0.9102 -1.1669 -0.6590
  206MOL0     H27754   4.528   0.348   9.753 -0.2812  1.5879 -2.7856
  206MOL0     H27755   4.652   0.108   9.585 -1.2932 -2.4275 -0.6865
  206MOL0     H27756   4.580   0.095   9.757 -2.1188 -1.6818 -1.3264
  206MOL0     H27757   4.434   0.151   9.492  0.9832 -0.9995 -0.5957
  206MOL0     H27758   4.355   0.146   9.650 -0.6402 -0.5884 -1.1036
  206MOL0     H27759   4.348  -0.043   9.497  1.2912  3.5707 -1.0051
  206MOL0     H27760   4.504  -0.099   9.561  0.0150 -0.7973  0.2893
  206MOL0     H27761   4.478  -0.212   9.825  0.1773 -1.2973 -0.7610
  206MOL0     H27762   4.360  -0.332  10.008 -0.0802  1.3499  0.7823
  206MOL0     H27763   4.203  -0.253  10.045  2.4748  1.6402  0.8030
  206MOL0     H27764   4.126  -0.479  10.030 -0.9674  1.8337 -0.5023
  206MOL0     H27765   4.105  -0.430   9.862 -1.5610 -0.5970  1.9654
  206MOL0     H27766   4.212  -0.641   9.859  0.6796 -0.8183  1.5480
  206MOL0     H27767   4.321  -0.596   9.997 -1.5946  1.8026  0.9322
  206MOL0     H27768   4.406  -0.632   9.769 -1.3126 -0.5494 -0.6386
  206MOL0     H27769   4.440  -0.470   9.844 -0.4521  0.7959  0.1563
  206MOL0     H27770   4.202  -0.363   9.484 -0.7948 -0.2144  2.2942
  206MOL0     H27771   4.076  -0.462   9.293 -3.6276  0.3180  2.6474
  206MOL0     H27772   4.065  -0.894   8.998  1.5327  1.6306  0.7917
  206MOL0     H27773   3.923  -0.970   8.818 -0.7033 -0.6150 -0.2096
  206MOL0     H27774   3.836  -0.913   8.593 -1.6114  0.6987 -2.3030
  206MOL0     H27775   3.746  -1.038   8.700  2.0737  0.0798  0.2255
  206MOL0     H27776   3.690  -1.057   8.479  1.4659  1.4350 -0.7603
  206MOL0     H27777   3.549  -0.997   8.552 -1.0366 -2.5494 -3.2718
  206MOL0     H27778   3.616  -0.756   8.468 -2.3146 -0.7476  0.1254
  206MOL0     H27779   3.742  -0.845   8.381 -1.1866  0.9219 -2.8871
  206MOL0     H27780   3.441  -0.863   8.352 -0.6506  1.5318 -0.2739
  206MOL0     H27781   3.536  -0.993   8.287 -2.1873  0.6782 -0.0392
  206MOL0     H27782   3.668  -0.855   8.146 -0.0987  0.9339 -0.3802
  206MOL0     H27783   3.590  -0.704   8.180  0.6618  0.0822 -2.2349
  206MOL0     H27784   3.422  -0.930   8.074 -0.8057 -0.1696 -0.2414
  206MOL0     H27785   3.390  -0.760   8.065  1.3554  0.7928 -0.1467
  206MOL0     H27786   3.602  -0.926   7.920 -0.2336 -0.1986 -0.0761
  206MOL0     H27787   3.612  -0.746   7.908  1.4809 -0.4892 -1.2105
  206MOL0     H27788   3.413  -0.948   7.804  2.1901 -1.8057 -1.8277
  206MOL0     H27789   3.378  -0.772   7.792  2.8388  2.6442  0.2619
  206MOL0     H27790   3.657  -0.630   8.867  2.0417  3.4273 -2.2267
  206MOL0     H27791   3.805  -0.556   9.059 -1.3486 -0.0692 -0.0674
  206MOL0     H27792   4.152  -0.850   9.474 -0.0136  0.2273  2.2108
  206MOL0     H27793   4.257  -0.771   9.649 -3.4178 -1.7712 -1.3111
  206MOL0     H27794   4.356   0.688   9.241 -0.1857  2.5451 -0.0372
  206MOL0     H27795   4.134   0.639   9.174 -1.6128 -0.1905  0.2037
  206MOL0     H27796   3.690   0.566   9.308 -0.9632 -1.4978  0.2169
  206MOL0     H27797   3.476   0.482   9.196 -1.1865 -1.4059 -4.2464
  206MOL0     H27798   3.305   0.764   8.891  1.0947 -0.2264 -2.1007
  206MOL0     H27799   3.177   0.649   8.919  0.0607 -1.5399  0.8470
  206MOL0     H27800   3.415   0.638   8.726  0.4372  0.0258  3.3396
  206MOL0     H27801   3.246   0.632   8.677 -2.1689  3.0732  3.2092
  206MOL0     H27802   3.369   0.404   8.847  0.4072  0.3633 -0.0463
  206MOL0     H27803   3.393   0.400   8.675  0.7856 -0.2698  0.5358
  206MOL0     H27804   3.187   0.289   8.787 -1.8659  0.4688  1.9497
  206MOL0     H27805   3.108   0.450   8.790  0.0562 -1.3080  0.3830
  206MOL0     H27806   3.121   0.289   8.386 -0.5385  0.0353  0.8008
  206MOL0     H27807   3.503   0.803   8.918  0.4918 -0.3869 -0.2633
  206MOL0     H27808   3.721   0.982   9.038 -2.7894 -2.9838  2.4231
  206MOL0     H27809   3.843   0.881   8.947  1.1600  0.0672  2.3321
  206MOL0     H27810   3.687   0.910   8.874 -1.8136 -1.1952  0.9058
  207MOL0     O27811   4.457  10.557   0.064 -0.7181 -0.0993 -0.4883
  207MOL0     C27812   4.562  10.608   0.092 -0.7335  0.0268  0.3652
  207MOL0     O27813   4.615  10.725   0.046 -0.4832 -0.1328  0.4212
  207MOL0     C27814   4.526  10.818   0.004  0.3155 -0.6960 -0.1392
  207MOL0     C27815   4.464  10.904   0.098 -1.1195  0.3773  0.5971
  207MOL0     C27816   4.361  10.978   0.051  0.5550  0.1990 -0.8483
  207MOL0     C27817   4.321  11.000  -0.082 -0.1220  0.1071 -0.1644
  207MOL0     O27818   4.221  11.078  -0.123 -0.2284 -0.4728 -0.5549
  207MOL0     C27819   4.121  11.125  -0.035  0.2831  0.2620  0.2549
  207MOL0     C27820   4.024  11.202  -0.125 -0.1510  0.4050  0.0291
  207MOL0     C27821   3.898  11.234  -0.038  0.5742  0.6514 -0.0926
  207MOL0     C27822   3.794  11.303  -0.129  0.0381 -0.1442  0.3326
  207MOL0     C27823   3.692  11.212  -0.202  1.1685 -0.2181 -0.7272
  207MOL0     C27824   3.624  11.298  -0.303 -0.5298  0.3222 -0.0863
  207MOL0     C27825   3.532  11.210  -0.394 -0.1719  0.5424 -0.6409
  207MOL0     C27826   3.504  11.257  -0.536  0.2661 -0.3404  0.1876
  207MOL0     N27827   3.476  11.402  -0.538  0.6771  0.1103 -0.1318
  207MOL0     C27828   3.562  11.499  -0.581  0.1629  1.0471  0.6719
  207MOL0     C27829   3.511  11.618  -0.531 -0.3498  0.4523 -0.7772
  207MOL0     C27830   3.560  11.764  -0.539  0.2142  0.4764 -0.6769
  207MOL0     C27831   3.713  11.759  -0.494 -0.0964 -0.8508 -0.0161
  207MOL0     C27832   3.726  11.764  -0.335  0.1378 -0.6197 -0.0567
  207MOL0     C27833   3.875  11.760  -0.301 -1.5526 -0.1688 -0.7113
  207MOL0     O27834   3.884  11.700  -0.167  0.2100  0.4692 -0.0941
  207MOL0     C27835   4.007  11.662  -0.120 -0.1958  0.1028 -0.8726
  207MOL0     C27836   4.130  11.690  -0.183  0.3429 -0.0313  0.0626
  207MOL0     C27837   4.245  11.617  -0.134  0.3080 -0.1967  0.7989
  207MOL0     C27838   4.237  11.516  -0.031 -0.5081  0.0109 -0.0017
  207MOL0     C27839   4.351  11.430  -0.011 -1.1898  1.2620  0.0174
  207MOL0     O27840   4.461  11.450  -0.095  0.0695 -0.5239  0.0155
  207MOL0     C27841   4.570  11.375  -0.064  0.4985  0.1597  0.8083
  207MOL0     C27842   4.570  11.249  -0.106 -0.4021  0.0107  0.0628
  207MOL0     C27843   4.683  11.174  -0.094  0.0452 -0.4503  0.5245
  207MOL0     C27844   4.800  11.225  -0.034  0.6058  0.0617  0.6880
  207MOL0     O27845   4.920  11.157  -0.032  0.5390 -0.3240  0.4140
  207MOL0     C27846   4.956  11.108  -0.161 -0.1567  0.5126 -0.4776
  207MOL0     C27847   5.095  11.031  -0.157 -0.5899 -0.4428 -0.7442
  207MOL0     C27848   5.088  10.915  -0.056  0.4701  0.2157  0.7945
  207MOL0     C27849   5.221  10.833  -0.045  0.8798 -0.2045  0.3839
  207MOL0     C27850   5.210  10.689   0.024  1.2932  0.6966  0.3103
  207MOL0     C27851   5.122  10.603  -0.068 -0.5087  0.1360 -0.4140
  207MOL0     C27852   5.142  10.457  -0.023 -0.0717  0.5864 -0.3181
  207MOL0     C27853   5.068  10.361  -0.115  0.4619  0.8077 -0.5787
  207MOL0    Cl27854   4.888  10.375  -0.076 -0.2614  0.5415  0.3309
  207MOL0     C27855   4.794  11.353   0.010 -0.3439  0.2843  0.3878
  207MOL0     C27856   4.685  11.434  -0.012  0.0152  0.1931  0.3212
  207MOL0     O27857   4.348  11.345   0.079  0.1698 -0.0154 -0.3597
  207MOL0     C27858   4.114  11.503   0.032  0.2829  0.2608 -0.4681
  207MOL0     C27859   4.002  11.571  -0.017 -0.9130 -0.2308 -0.5091
  207MOL0     N27860   3.391  11.596  -0.472 -0.9507 -0.8865 -0.7841
  207MOL0     N27861   3.365  11.463  -0.470 -0.7037 -0.6702  0.3101
  207MOL0     C27862   4.388  10.920  -0.181  0.4196  0.0239 -0.1165
  207MOL0     C27863   4.492  10.828  -0.138 -0.5617 -0.0427 -0.5037
  207MOL0     C27864   4.654  10.529   0.181 -0.2104  1.7377  0.0583
  207MOL0     C27865   4.795  10.573   0.202 -0.1670  1.2819  0.6385
  207MOL0     C27866   4.889  10.517   0.286 -0.3233  0.1795 -0.3877
  207MOL0     C27867   4.845  10.409   0.361 -0.9063  0.3309  1.2471
  207MOL0     O27868   4.926  10.358   0.471  0.2009 -0.3285 -0.4887
  207MOL0     C27869   5.068  10.388   0.484 -0.8848  0.4552 -0.8255
  207MOL0     C27870   5.150  10.263   0.494  0.0323 -0.2021 -0.3252
  207MOL0     C27871   5.133  10.169   0.376 -0.9920  0.9170 -0.4219
  207MOL0     C27872   5.260  10.097   0.338 -0.0933  0.4461 -0.3529
  207MOL0     C27873   5.328  10.188   0.238 -0.8059  0.2897  0.3733
  207MOL0     C27874   5.386  10.257   0.152  0.2212  0.4189 -1.4167
  207MOL0     C27875   4.714  10.369   0.350  0.1549  0.5688 -0.5115
  207MOL0     C27876   4.619  10.413   0.261  0.0193 -0.8380  1.0159
  207MOL0     C27877   4.492  10.329   0.233  0.3642 -0.1192 -0.4185
  207MOL0     H27878   4.495  10.899   0.202 -0.4716 -2.3393  0.3749
  207MOL0     H27879   4.309  11.024   0.134 -1.3279 -0.2425 -1.7223
  207MOL0     H27880   4.064  11.040   0.003 -1.9871  1.2610 -0.7155
  207MOL0     H27881   4.163  11.193   0.040  2.2584 -2.9323  2.3046
  207MOL0     H27882   3.986  11.140  -0.207  1.0254  0.0954 -0.3046
  207MOL0     H27883   4.094  11.284  -0.145  3.6537 -2.3375  0.9345
  207MOL0     H27884   3.913  11.298   0.049 -0.4901 -3.3252  3.3466
  207MOL0     H27885   3.850  11.140  -0.007 -0.6132  1.9436  2.2197
  207MOL0     H27886   3.740  11.378  -0.071 -0.1595  1.7569 -2.1060
  207MOL0     H27887   3.848  11.366  -0.201 -1.7212  0.5292 -0.4505
  207MOL0     H27888   3.744  11.125  -0.241  3.3430  0.7508 -0.1427
  207MOL0     H27889   3.626  11.171  -0.125 -2.6943  0.6859 -3.2659
  207MOL0     H27890   3.584  11.388  -0.256  2.2042  3.0908 -2.5885
  207MOL0     H27891   3.695  11.358  -0.361  1.0967  0.7918  2.2733
  207MOL0     H27892   3.437  11.205  -0.339  1.1647  1.7329  1.9539
  207MOL0     H27893   3.568  11.107  -0.398 -3.2737 -0.6913  0.5083
  207MOL0     H27894   3.584  11.246  -0.610  0.0585 -1.5041  0.1220
  207MOL0     H27895   3.423  11.194  -0.574  0.4114  0.4403 -1.5228
  207MOL0     H27896   3.658  11.483  -0.629  1.3509 -1.9415  3.6064
  207MOL0     H27897   3.540  11.804  -0.639 -3.2901  1.3355  0.2204
  207MOL0     H27898   3.500  11.829  -0.475 -0.3089  0.4965 -1.1698
  207MOL0     H27899   3.761  11.668  -0.532 -0.8301 -1.4914  0.5460
  207MOL0     H27900   3.763  11.843  -0.543  1.4536 -2.9210 -2.1750
  207MOL0     H27901   3.666  11.683  -0.293  3.6265 -2.1168  2.4233
  207MOL0     H27902   3.684  11.860  -0.303 -0.2663 -1.5245  2.2727
  207MOL0     H27903   3.918  11.860  -0.299  1.3793 -1.3479 -0.2706
  207MOL0     H27904   3.939  11.704  -0.369 -0.8504  2.4310 -2.3120
  207MOL0     H27905   4.143  11.758  -0.267  0.5618 -2.4128 -1.9431
  207MOL0     H27906   4.343  11.634  -0.178 -0.0811 -0.8533 -0.3768
  207MOL0     H27907   4.475  11.209  -0.143 -0.4535  0.7749 -0.6687
  207MOL0     H27908   4.669  11.078  -0.143  0.0506  0.0650 -0.5198
  207MOL0     H27909   4.883  11.041  -0.208  1.9364 -1.9629 -0.3783
  207MOL0     H27910   4.971  11.184  -0.239 -1.4919  0.5106 -0.7627
  207MOL0     H27911   5.109  10.997  -0.260 -0.0501  1.4525 -1.3404
  207MOL0     H27912   5.167  11.105  -0.122 -1.0600 -0.3347  0.0062
  207MOL0     H27913   5.057  10.953   0.041 -1.1381  0.7721  0.1038
  207MOL0     H27914   5.006  10.848  -0.085  2.8913 -2.9355  0.7002
  207MOL0     H27915   5.303  10.887   0.003 -0.1019 -0.5705  2.5788
  207MOL0     H27916   5.257  10.814  -0.146 -0.5701 -1.5271  0.0707
  207MOL0     H27917   5.174  10.703   0.127  1.5174  1.4208  0.2983
  207MOL0     H27918   5.306  10.638   0.025  2.3259  2.5530  0.8458
  207MOL0     H27919   5.020  10.629  -0.040 -0.0458 -0.1252  1.6290
  207MOL0     H27920   5.137  10.609  -0.176  0.8560 -0.8627 -0.3123
  207MOL0     H27921   5.120  10.444   0.083 -0.6968  0.2567 -0.4819
  207MOL0     H27922   5.249  10.437  -0.026 -0.2967 -0.9895  0.8207
  207MOL0     H27923   5.097  10.391  -0.216  1.8849  2.0094  0.1633
  207MOL0     H27924   5.081  10.256  -0.084 -2.1617  1.3901  3.2214
  207MOL0     H27925   4.884  11.404   0.043 -0.0271 -1.3549  2.2740
  207MOL0     H27926   4.668  11.540   0.007  0.2903  0.4718 -0.9434
  207MOL0     H27927   4.102  11.434   0.114 -1.3176  0.3578 -0.5807
  207MOL0     H27928   3.911  11.539   0.033  0.0399 -3.8153 -0.8015
  207MOL0     H27929   4.356  10.929  -0.284  0.2544  0.9985  0.0095
  207MOL0     H27930   4.545  10.774  -0.216 -1.0311 -1.9254  0.4313
  207MOL0     H27931   4.816  10.665   0.148 -3.1722  2.1110  0.6973
  207MOL0     H27932   4.983  10.570   0.295 -1.0034  1.9386 -2.5881
  207MOL0     H27933   5.084  10.449   0.574 -2.7817  1.4039 -1.0926
  207MOL0     H27934   5.111  10.456   0.409  0.9986  0.3618  0.0948
  207MOL0     H27935   5.128  10.215   0.590  1.5336  0.2196  0.2664
  207MOL0     H27936   5.250  10.307   0.495 -0.7864  1.8312  1.3315
  207MOL0     H27937   5.095  10.231   0.294  2.4308  3.5138 -0.3029
  207MOL0     H27938   5.055  10.101   0.411  0.5737 -0.3026  0.8609
  207MOL0     H27939   5.307  10.077   0.435 -0.2784 -2.2122 -0.7253
  207MOL0     H27940   5.237  10.003   0.286  0.6733  1.3482 -2.4051
  207MOL0     H27941   5.426  10.314   0.071 -1.0992  0.8829 -1.7669
  207MOL0     H27942   4.688  10.287   0.417  0.2870  0.3590 -0.7160
  207MOL0     H27943   4.497  10.224   0.262 -2.5793 -0.4343 -0.6830
  207MOL0     H27944   4.400  10.379   0.266  0.9953  0.6169  0.2642
  207MOL0     H27945   4.495  10.319   0.124  0.7903 -0.8299 -0.3475
  208MOL0     O27946   7.165   3.707   6.848 -0.0310  0.0821 -0.4946
  208MOL0     C27947   7.127   3.815   6.883  0.2626 -0.2680  0.9181
  208MOL0     O27948   7.155   3.934   6.808  1.1162 -0.1392  0.2122
  208MOL0     C27949   7.244   3.916   6.696  0.7388 -0.3041 -0.5081
  208MOL0     C27950   7.255   3.799   6.609  0.4719  0.1304 -0.2657
  208MOL0     C27951   7.340   3.807   6.500  0.0176  0.0363  0.0100
  208MOL0     C27952   7.431   3.909   6.482  0.3466 -0.1918 -0.1253
  208MOL0     O27953   7.516   3.894   6.382  0.3587 -0.6165 -0.6289
  208MOL0     C27954   7.529   3.998   6.294 -0.2123 -1.3619  0.1361
  208MOL0     C27955   7.610   3.967   6.169 -0.0059 -0.1184 -0.5481
  208MOL0     C27956   7.758   3.977   6.189 -0.8078 -0.9653 -0.8379
  208MOL0     C27957   7.824   3.945   6.317  0.4860  0.1760  0.4262
  208MOL0     C27958   7.970   3.926   6.304 -0.6074 -0.5186 -0.0388
  208MOL0     C27959   8.004   3.807   6.394  0.1490 -0.2100 -0.1186
  208MOL0     C27960   8.152   3.765   6.395 -0.1112  0.3286  0.0858
  208MOL0     C27961   8.232   3.875   6.467  0.6096 -0.3239  0.7347
  208MOL0     N27962   8.369   3.871   6.412  0.1144 -0.3770 -0.2188
  208MOL0     C27963   8.464   3.777   6.439  0.2914 -0.6188 -0.7576
  208MOL0     C27964   8.564   3.808   6.356  0.8647  0.3790 -0.1498
  208MOL0     C27965   8.682   3.721   6.338 -0.4560  0.1550 -0.3868
  208MOL0     C27966   8.768   3.694   6.453  0.2361  0.2413  0.8533
  208MOL0     C27967   8.770   3.794   6.567 -0.3946  0.5159 -0.2467
  208MOL0     C27968   8.886   3.753   6.666 -0.2462 -1.1318 -0.3819
  208MOL0     O27969   8.865   3.846   6.780  0.0190 -0.1190 -0.2994
  208MOL0     C27970   8.974   3.854   6.869  0.0677  0.1199 -0.1438
  208MOL0     C27971   8.982   3.967   6.948 -0.2905 -0.6226  0.6312
  208MOL0     C27972   9.075   3.973   7.048  0.4711 -1.3332  0.8526
  208MOL0     C27973   9.167   3.877   7.073  0.1615 -0.1971  0.1883
  208MOL0     C27974   9.258   3.892   7.188 -0.4157  0.1180 -0.0447
  208MOL0     O27975   9.295   4.017   7.227  0.1072 -0.1911 -0.0470
  208MOL0     C27976   9.397   4.036   7.323 -0.3179  0.5511  0.9363
  208MOL0     C27977   9.529   4.075   7.291 -0.5278 -1.2090  0.3431
  208MOL0     C27978   9.628   4.103   7.386  0.1164  0.4144 -0.5005
  208MOL0     C27979   9.596   4.084   7.521 -0.6868 -1.0872  0.0567
  208MOL0     O27980   9.677   4.108   7.631 -0.3057  0.0990 -0.3530
  208MOL0     C27981   9.816   4.156   7.607  0.0231  0.0675 -0.1361
  208MOL0     C27982   9.906   4.040   7.562  0.1668  0.0327 -0.9901
  208MOL0     C27983   9.901   3.906   7.640 -0.0014 -0.3536 -0.1835
  208MOL0     C27984   9.928   3.912   7.787 -0.1862 -0.3233  0.0360
  208MOL0     C27985   9.933   3.777   7.860 -0.4404  0.2396  0.3606
  208MOL0     C27986  10.003   3.799   8.000 -0.2470  0.0112 -0.9014
  208MOL0     C27987   9.960   3.925   8.087  0.2254  0.3795 -0.2451
  208MOL0     C27988   9.982   3.904   8.239  1.1449  0.1670  0.5052
  208MOL0    Cl27989   9.908   4.031   8.346 -0.3097  0.0527 -0.0317
  208MOL0     C27990   9.468   4.043   7.554 -1.2873 -1.0178 -0.7505
  208MOL0     C27991   9.370   4.020   7.456  0.4375 -0.4963  0.1956
  208MOL0     O27992   9.309   3.787   7.228 -1.5674 -0.4707 -0.0958
  208MOL0     C27993   9.171   3.761   6.987  0.6219  0.1104  0.1891
  208MOL0     C27994   9.076   3.759   6.879  0.2367 -0.1602  0.0201
  208MOL0     N27995   8.527   3.918   6.275 -0.1631 -0.7997  0.3129
  208MOL0     N27996   8.416   3.957   6.320 -0.5236  0.6910 -0.9999
  208MOL0     C27997   7.408   4.025   6.566 -0.3091 -0.7895  0.3211
  208MOL0     C27998   7.320   4.035   6.669 -0.4295  0.2025 -1.1226
  208MOL0     C27999   7.055   3.823   7.005 -1.0977 -0.7298  0.0443
  208MOL0     C28000   7.121   3.838   7.131  0.3858 -0.1501 -0.7241
  208MOL0     C28001   7.045   3.850   7.249 -0.4829  0.4826  0.1641
  208MOL0     C28002   6.905   3.852   7.254  0.0236  0.5758 -0.1186
  208MOL0     O28003   6.820   3.859   7.362 -0.4884 -0.6849 -0.2100
  208MOL0     C28004   6.879   3.852   7.491 -0.5080  0.3547 -0.2916
  208MOL0     C28005   6.777   3.866   7.616 -0.0254 -0.1389 -0.2622
  208MOL0     C28006   6.674   3.979   7.608  0.9676  0.0585 -0.3801
  208MOL0     C28007   6.576   3.974   7.723 -0.3568  0.1452 -0.5345
  208MOL0     C28008   6.483   3.865   7.700 -1.2088  0.1405 -0.7768
  208MOL0     C28009   6.416   3.758   7.688 -0.5244 -0.4415 -0.2677
  208MOL0     C28010   6.843   3.846   7.129  0.8942  0.7155 -0.0544
  208MOL0     C28011   6.917   3.823   7.013  0.7619  0.2630  1.0089
  208MOL0     C28012   6.836   3.832   6.884  0.8862  0.3195  0.8613
  208MOL0     H28013   7.190   3.712   6.621  1.1042 -0.2942  0.1415
  208MOL0     H28014   7.338   3.733   6.421 -0.2901 -1.4387  1.3620
  208MOL0     H28015   7.427   4.027   6.266  0.0549 -1.1187 -0.6203
  208MOL0     H28016   7.570   4.086   6.345  1.5240 -2.2927  0.4197
  208MOL0     H28017   7.590   4.034   6.085  2.9540  1.2790 -0.2945
  208MOL0     H28018   7.584   3.864   6.142  2.3673 -1.1289  0.6751
  208MOL0     H28019   7.795   4.071   6.149  0.4419 -1.2098 -0.3118
  208MOL0     H28020   7.784   3.896   6.120 -1.5384 -1.7991 -0.1678
  208MOL0     H28021   7.808   4.036   6.375 -0.2741 -0.5150  1.3428
  208MOL0     H28022   7.775   3.860   6.365 -1.4664  0.8042 -0.3679
  208MOL0     H28023   7.993   3.907   6.199 -1.6412  0.7215 -0.5148
  208MOL0     H28024   8.015   4.015   6.349 -1.4064  0.2033 -0.6282
  208MOL0     H28025   7.979   3.822   6.500 -2.6730  1.1844 -0.8729
  208MOL0     H28026   7.947   3.716   6.375 -0.4767 -0.2927  1.8511
  208MOL0     H28027   8.188   3.752   6.293  0.3935 -0.3858  0.3454
  208MOL0     H28028   8.153   3.667   6.444  0.0141  1.3965  2.3788
  208MOL0     H28029   8.199   3.976   6.444  0.0411 -0.5981  0.3243
  208MOL0     H28030   8.235   3.857   6.575  0.1028  0.2258  0.8454
  208MOL0     H28031   8.485   3.720   6.530  1.2979 -0.8145 -1.1092
  208MOL0     H28032   8.681   3.627   6.284  1.2413  0.3424 -0.8239
  208MOL0     H28033   8.744   3.782   6.272  1.2186 -0.7762  0.2559
  208MOL0     H28034   8.740   3.594   6.487  3.5288 -1.4487 -0.8953
  208MOL0     H28035   8.872   3.685   6.421 -0.0085  1.8286 -0.5248
  208MOL0     H28036   8.677   3.798   6.625 -2.0461 -1.3666 -2.6047
  208MOL0     H28037   8.803   3.892   6.529  2.2250 -0.2860 -0.2707
  208MOL0     H28038   8.984   3.773   6.621 -1.3361  0.1056 -2.3541
  208MOL0     H28039   8.878   3.653   6.708 -1.8461 -1.4063 -1.2567
  208MOL0     H28040   8.916   4.050   6.925  1.0853  0.6316  1.0661
  208MOL0     H28041   9.072   4.064   7.108  2.3954  0.3631 -1.4363
  208MOL0     H28042   9.547   4.093   7.186  0.9997  0.5201  0.8486
  208MOL0     H28043   9.723   4.133   7.345 -1.2179  0.5122 -3.7858
  208MOL0     H28044   9.818   4.239   7.536  1.7048 -1.2178 -1.6942
  208MOL0     H28045   9.855   4.191   7.703 -0.3001 -2.3441  0.9599
  208MOL0     H28046   9.873   4.014   7.462  0.9281 -0.3133 -1.1615
  208MOL0     H28047  10.009   4.076   7.561  0.7600 -1.4586  0.6627
  208MOL0     H28048   9.798   3.870   7.633 -0.5790  1.1689  0.0607
  208MOL0     H28049   9.967   3.839   7.585 -0.4749  0.5953 -1.9783
  208MOL0     H28050   9.855   3.974   7.840 -1.3235 -2.0204  0.5178
  208MOL0     H28051  10.019   3.972   7.799  0.2056 -0.7258 -0.8223
  208MOL0     H28052   9.998   3.699   7.819  2.9588  0.5426  4.4691
  208MOL0     H28053   9.837   3.726   7.865  0.2527 -1.5679 -2.3500
  208MOL0     H28054   9.989   3.712   8.065  2.0943  1.1459  1.3427
  208MOL0     H28055  10.111   3.804   7.981 -0.5143  1.1174 -2.2913
  208MOL0     H28056   9.856   3.960   8.089  0.7955  2.1411  0.3013
  208MOL0     H28057  10.012   4.016   8.056 -1.9428  1.2480 -1.5340
  208MOL0     H28058   9.938   3.806   8.260  1.8556 -0.0600  0.9974
  208MOL0     H28059  10.090   3.911   8.257  1.0561 -1.5609  2.0909
  208MOL0     H28060   9.437   4.029   7.657 -2.2750  0.5936 -0.7994
  208MOL0     H28061   9.278   3.985   7.501  1.6886 -1.7122  1.9276
  208MOL0     H28062   9.243   3.682   7.005 -1.4384 -2.3785 -1.7293
  208MOL0     H28063   9.071   3.675   6.810 -1.1899  0.4154 -0.6225
  208MOL0     H28064   7.475   4.110   6.554 -1.6166  0.2308 -0.0107
  208MOL0     H28065   7.308   4.123   6.732 -0.6441  0.6212 -1.7341
  208MOL0     H28066   7.229   3.843   7.144  0.0271  1.4365  2.6111
  208MOL0     H28067   7.093   3.878   7.342  0.9158  0.1992 -0.4520
  208MOL0     H28068   6.954   3.928   7.513  1.1896 -1.9392  2.5548
  208MOL0     H28069   6.945   3.766   7.498  0.5339  0.4796 -5.2027
  208MOL0     H28070   6.839   3.879   7.706 -0.7527  0.9651  0.1031
  208MOL0     H28071   6.723   3.772   7.612 -0.0016 -0.1241 -1.1118
  208MOL0     H28072   6.621   3.970   7.513  2.3550  1.9251 -1.4062
  208MOL0     H28073   6.724   4.076   7.619 -1.5614  1.5069 -0.8794
  208MOL0     H28074   6.616   3.961   7.824 -0.6111 -3.1405 -0.7320
  208MOL0     H28075   6.518   4.066   7.718  0.1237  0.4298 -0.9305
  208MOL0     H28076   6.372   3.661   7.679 -1.8215  0.0831  0.2512
  208MOL0     H28077   6.739   3.874   7.118  0.1222 -2.8513 -4.7433
  208MOL0     H28078   6.855   3.744   6.822 -0.6951 -1.0592  2.2253
  208MOL0     H28079   6.729   3.842   6.908  1.3402 -0.7694  3.6985
  208MOL0     H28080   6.871   3.925   6.838  0.3722  0.7808  1.3731
  209MOL0     O28081   1.369   9.097   2.891  0.5268  0.6067 -0.4509
  209MOL0     C28082   1.349   9.206   2.833 -0.8691 -0.4637 -0.4097
  209MOL0     O28083   1.382   9.230   2.709  0.4518  0.1210 -0.0495
  209MOL0     C28084   1.492   9.184   2.649 -0.2240  0.4611  0.7523
  209MOL0     C28085   1.615   9.183   2.710  0.1590 -1.1110  0.5470
  209MOL0     C28086   1.732   9.127   2.648 -0.9240  0.0184  0.4193
  209MOL0     C28087   1.723   9.077   2.514  0.4232  0.4017  0.7053
  209MOL0     O28088   1.823   9.020   2.445  0.2610 -0.1638  0.1416
  209MOL0     C28089   1.943   8.973   2.513  0.3784  0.4042 -0.4336
  209MOL0     C28090   2.029   8.895   2.420 -0.4704 -0.4346 -0.2478
  209MOL0     C28091   2.066   8.978   2.289  0.9163  0.7216 -0.1697
  209MOL0     C28092   2.158   8.898   2.203  0.5289 -0.1869 -0.6590
  209MOL0     C28093   2.294   8.892   2.268  0.3151 -0.7512  0.1638
  209MOL0     C28094   2.406   8.902   2.160  0.9325  0.8883 -0.4534
  209MOL0     C28095   2.549   8.902   2.221 -0.5222 -0.4413 -0.2486
  209MOL0     C28096   2.653   8.844   2.124  0.9470 -0.2414  0.0876
  209MOL0     N28097   2.653   8.923   2.001 -0.2506  0.3963 -0.0799
  209MOL0     C28098   2.613   8.867   1.886  1.1716  0.2497  0.1020
  209MOL0     C28099   2.636   8.968   1.798  0.6052 -0.4013  0.0956
  209MOL0     C28100   2.612   8.934   1.654 -0.1646  1.0322 -0.5439
  209MOL0     C28101   2.474   8.984   1.599  0.2285 -0.0484 -0.8259
  209MOL0     C28102   2.466   9.142   1.607  0.9564  0.3788 -0.4189
  209MOL0     C28103   2.583   9.206   1.525  0.4047 -0.5358  0.0202
  209MOL0     O28104   2.594   9.348   1.505 -0.1008  1.0240 -0.0453
  209MOL0     C28105   2.665   9.416   1.599  0.2018  0.0348  0.6079
  209MOL0     C28106   2.683   9.380   1.733 -1.1253  0.8327 -0.4955
  209MOL0     C28107   2.754   9.458   1.823  0.7819  0.3019 -0.7476
  209MOL0     C28108   2.812   9.581   1.773  0.2144 -0.1234 -0.8200
  209MOL0     C28109   2.874   9.668   1.866  0.3048 -0.6387  0.0653
  209MOL0     O28110   2.854   9.639   2.000  0.5096  0.3535 -0.2475
  209MOL0     C28111   2.845   9.737   2.095 -0.4846 -0.9804  0.3410
  209MOL0     C28112   2.730   9.809   2.125 -0.1576  0.2385 -0.2807
  209MOL0     C28113   2.732   9.907   2.224  0.6529  0.2816  0.7385
  209MOL0     C28114   2.857   9.945   2.283 -0.5738 -0.9033 -0.0134
  209MOL0     O28115   2.846  10.057   2.364 -0.2336  0.7127 -0.0579
  209MOL0     C28116   2.905  10.037   2.496  0.4047  0.0314 -0.6037
  209MOL0     C28117   2.877  10.157   2.583 -0.5121  0.4641 -0.1997
  209MOL0     C28118   2.945  10.290   2.523 -0.2039 -0.7244 -0.1356
  209MOL0     C28119   2.864  10.418   2.545  0.4528 -0.6506  1.3988
  209MOL0     C28120   2.874  10.504   2.416  0.3658  0.2034 -0.5749
  209MOL0     C28121   2.793  10.642   2.427 -0.1013 -0.4780  0.5029
  209MOL0     C28122   2.647  10.622   2.436 -0.7324  0.2684 -0.4997
  209MOL0     C28123   2.576  10.753   2.435  0.5558 -1.1895 -0.1447
  209MOL0    Cl28124   2.531  10.794   2.276 -0.1312  0.1561 -0.1777
  209MOL0     C28125   2.974   9.879   2.253 -0.5643 -0.1238 -0.3352
  209MOL0     C28126   2.959   9.771   2.166 -0.1935 -0.4864  0.1543
  209MOL0     O28127   2.915   9.773   1.826  0.0722 -0.0828 -0.0400
  209MOL0     C28128   2.796   9.616   1.640 -0.4764 -0.1931 -0.2434
  209MOL0     C28129   2.729   9.533   1.550  0.7551  0.1283  0.5382
  209MOL0     N28130   2.676   9.082   1.866  1.4035 -0.8384  0.2574
  209MOL0     N28131   2.694   9.052   1.990  0.1141  0.1612 -0.3814
  209MOL0     C28132   1.604   9.093   2.451  0.3969  0.6516  0.0375
  209MOL0     C28133   1.488   9.145   2.514  0.1822  0.4640  0.6282
  209MOL0     C28134   1.297   9.312   2.907 -0.7267 -0.4046  0.0342
  209MOL0     C28135   1.364   9.435   2.897  0.2554 -0.1330  0.0574
  209MOL0     C28136   1.300   9.553   2.947 -1.4039  0.9062  0.6821
  209MOL0     C28137   1.192   9.542   3.027 -0.2225  0.8782 -0.1124
  209MOL0     O28138   1.126   9.647   3.084 -0.1073 -0.4962  0.3131
  209MOL0     C28139   1.199   9.766   3.098 -0.5424 -0.2899 -0.1876
  209MOL0     C28140   1.126   9.861   3.192  0.0388 -0.1392  0.3572
  209MOL0     C28141   1.211   9.979   3.242  0.2714  0.0382 -0.7652
  209MOL0     C28142   1.174  10.114   3.174 -0.8124  0.9107 -0.7637
  209MOL0     C28143   1.226  10.115   3.042  0.7129  0.0641  0.1902
  209MOL0     C28144   1.288  10.104   2.939 -0.9277 -0.5615  0.3128
  209MOL0     C28145   1.123   9.417   3.036  0.3835 -0.4874  1.2497
  209MOL0     C28146   1.169   9.303   2.972 -0.1773  0.0958 -0.0277
  209MOL0     C28147   1.081   9.185   2.976  0.8064 -0.2527 -0.2846
  209MOL0     H28148   1.613   9.212   2.814  2.7233 -2.2823  1.0052
  209MOL0     H28149   1.829   9.135   2.697 -0.1617 -0.4138 -0.9615
  209MOL0     H28150   1.994   9.050   2.572 -1.3799  1.8722 -0.7111
  209MOL0     H28151   1.909   8.908   2.593  2.5123  2.0063  1.9274
  209MOL0     H28152   1.964   8.810   2.401  0.6798 -0.7579 -3.4782
  209MOL0     H28153   2.125   8.861   2.462  1.6700  3.2736 -1.6331
  209MOL0     H28154   2.098   9.079   2.320  0.9734 -0.1122  2.8352
  209MOL0     H28155   1.978   8.987   2.225  0.3213 -2.8037 -0.0113
  209MOL0     H28156   2.116   8.801   2.175 -0.9718 -0.8838  3.3764
  209MOL0     H28157   2.149   8.950   2.107 -1.8710  0.8690  0.0589
  209MOL0     H28158   2.309   8.981   2.330  1.8048  0.2579 -1.5302
  209MOL0     H28159   2.304   8.798   2.324 -1.7817 -3.4043 -3.5044
  209MOL0     H28160   2.402   8.814   2.096 -1.0292  0.9179 -0.4273
  209MOL0     H28161   2.395   8.989   2.094  0.1765  1.6459  0.6244
  209MOL0     H28162   2.552   8.851   2.318  2.0395  2.2130  1.2285
  209MOL0     H28163   2.573   9.007   2.242  0.8257 -0.7621 -0.1002
  209MOL0     H28164   2.757   8.857   2.155  1.5621  1.3533 -2.3163
  209MOL0     H28165   2.634   8.737   2.110 -0.4316  0.2333 -2.1390
  209MOL0     H28166   2.574   8.766   1.879  1.4981  0.1100  0.2631
  209MOL0     H28167   2.693   8.978   1.595  0.1670  2.1694  0.7077
  209MOL0     H28168   2.618   8.826   1.641 -4.8742  0.5187 -0.2653
  209MOL0     H28169   2.447   8.956   1.497 -1.5341  2.2749 -1.0910
  209MOL0     H28170   2.394   8.950   1.666 -0.2964  0.9807 -0.9031
  209MOL0     H28171   2.471   9.179   1.710  1.9607  3.9283 -1.6211
  209MOL0     H28172   2.377   9.193   1.569  2.8835  4.6704  0.2372
  209MOL0     H28173   2.579   9.161   1.426  2.6872 -0.7849 -0.0168
  209MOL0     H28174   2.673   9.175   1.579  0.2041  0.1751  0.7907
  209MOL0     H28175   2.626   9.297   1.774  0.4444 -1.9879 -3.5958
  209MOL0     H28176   2.753   9.427   1.927  2.4523  1.4589 -0.3324
  209MOL0     H28177   2.639   9.795   2.067 -1.0456  0.9613  0.8883
  209MOL0     H28178   2.644   9.965   2.251 -1.8580 -2.6423 -0.6002
  209MOL0     H28179   2.856   9.946   2.533 -1.1417 -0.0097 -2.5573
  209MOL0     H28180   3.012  10.017   2.491  0.1799 -0.9757 -3.4925
  209MOL0     H28181   2.769  10.169   2.590 -0.3359  1.9111  0.5543
  209MOL0     H28182   2.905  10.140   2.687 -0.7843 -4.1618 -0.6860
  209MOL0     H28183   3.044  10.316   2.563  0.7461 -2.3340 -1.3390
  209MOL0     H28184   2.960  10.284   2.415  0.2176 -4.0261 -0.0169
  209MOL0     H28185   2.904  10.475   2.629  1.5186  0.4345  0.1976
  209MOL0     H28186   2.758  10.399   2.564 -0.8863  3.6281 -0.3781
  209MOL0     H28187   2.844  10.451   2.324  0.8678  0.4093 -0.8595
  209MOL0     H28188   2.975  10.539   2.393  0.0108  1.9311  0.4019
  209MOL0     H28189   2.832  10.697   2.514 -3.1771  0.0211  1.6704
  209MOL0     H28190   2.804  10.696   2.332 -3.2458  0.3118  0.4841
  209MOL0     H28191   2.627  10.581   2.535 -2.3344  3.2442  0.5109
  209MOL0     H28192   2.601  10.557   2.360 -0.0264 -0.2961 -0.4582
  209MOL0     H28193   2.473  10.737   2.468 -0.4841  2.7504 -0.9846
  209MOL0     H28194   2.612  10.820   2.513 -3.9008  0.6000  0.6772
  209MOL0     H28195   3.069   9.903   2.299 -0.5273  0.3114 -0.6398
  209MOL0     H28196   3.048   9.716   2.136 -0.7026 -1.4520  0.3898
  209MOL0     H28197   2.822   9.718   1.615  1.5356 -0.9139 -1.2706
  209MOL0     H28198   2.714   9.566   1.447 -0.0182  1.4098  1.0374
  209MOL0     H28199   1.605   9.069   2.345  1.5783 -2.1424  0.6183
  209MOL0     H28200   1.391   9.149   2.465  0.5999 -1.9901 -0.5907
  209MOL0     H28201   1.454   9.444   2.837  1.7233 -1.7258  1.8736
  209MOL0     H28202   1.335   9.655   2.932  0.7099  0.1302  0.0433
  209MOL0     H28203   1.202   9.814   3.000 -1.9245  0.0857 -0.0755
  209MOL0     H28204   1.303   9.743   3.122 -0.3895 -2.7756 -2.6869
  209MOL0     H28205   1.092   9.798   3.274 -0.3429  0.2634  0.5171
  209MOL0     H28206   1.040   9.913   3.148  0.7630  0.4980 -0.3370
  209MOL0     H28207   1.319   9.959   3.239 -0.0199 -2.3497  1.2478
  209MOL0     H28208   1.187   9.979   3.348  0.7725  1.4090 -0.6296
  209MOL0     H28209   1.066  10.127   3.176 -1.2737 -1.4896 -3.6251
  209MOL0     H28210   1.220  10.196   3.230 -0.2763 -0.3119  0.6640
  209MOL0     H28211   1.333  10.095   2.842  1.5022  1.8298  1.0696
  209MOL0     H28212   1.023   9.425   3.079  0.1748 -1.9745  1.0637
  209MOL0     H28213   1.034   9.175   3.074  0.6125 -0.0927 -0.3590
  209MOL0     H28214   1.003   9.213   2.904  0.9039 -3.6737 -1.9280
  209MOL0     H28215   1.124   9.092   2.935  0.6651  1.4188 -4.8505
  210MOL0     O28216   2.977   3.271   2.300 -0.4412  0.5092 -0.6541
  210MOL0     C28217   2.914   3.258   2.407 -0.4882  0.0861 -0.2865
  210MOL0     O28218   2.973   3.272   2.528 -0.2007 -0.4556 -0.2278
  210MOL0     C28219   3.100   3.325   2.542 -0.3295 -0.0442 -1.1578
  210MOL0     C28220   3.153   3.434   2.471  0.1643 -0.0684  0.0880
  210MOL0     C28221   3.286   3.474   2.495  0.0661  0.1527 -0.4786
  210MOL0     C28222   3.365   3.401   2.581  0.4996  0.6469  0.0304
  210MOL0     O28223   3.490   3.452   2.603  0.1754  0.3830 -0.4100
  210MOL0     C28224   3.594   3.357   2.601 -0.3241  1.0487  0.0680
  210MOL0     C28225   3.727   3.427   2.624 -0.3889 -0.2222 -0.7706
  210MOL0     C28226   3.743   3.484   2.767  0.3029 -0.0317  0.4471
  210MOL0     C28227   3.779   3.381   2.868 -0.2632  0.0372  0.4946
  210MOL0     C28228   3.745   3.410   3.011 -0.0907  1.1510  0.0072
  210MOL0     C28229   3.830   3.522   3.073  0.4202  0.7729  0.2976
  210MOL0     C28230   3.984   3.489   3.093  0.1639 -0.2590 -0.0376
  210MOL0     C28231   4.039   3.617   3.156 -0.3390  1.0349  0.1182
  210MOL0     N28232   4.190   3.587   3.143 -0.8414 -0.2829  0.2498
  210MOL0     C28233   4.270   3.633   3.042  0.7462 -0.0541  0.3594
  210MOL0     C28234   4.395   3.581   3.057 -0.0930 -0.3092 -0.5661
  210MOL0     C28235   4.514   3.621   2.980  0.1669  0.2053 -0.0244
  210MOL0     C28236   4.502   3.578   2.832  0.9157  0.4525 -1.8128
  210MOL0     C28237   4.616   3.622   2.749 -0.8187 -0.9621  0.5449
  210MOL0     C28238   4.745   3.641   2.820 -0.2712  0.1513  0.3814
  210MOL0     O28239   4.849   3.657   2.714  0.3050  0.1743 -0.4670
  210MOL0     C28240   4.979   3.647   2.744  0.1448 -0.7526  0.0021
  210MOL0     C28241   5.053   3.541   2.689 -0.3033  0.3487 -1.7604
  210MOL0     C28242   5.185   3.534   2.714  0.3324 -0.9229 -0.5658
  210MOL0     C28243   5.251   3.623   2.794 -0.3230  1.2568 -0.7136
  210MOL0     C28244   5.397   3.599   2.822  0.4243 -0.3294 -0.2610
  210MOL0     O28245   5.459   3.691   2.911  0.6285  0.8465  0.3055
  210MOL0     C28246   5.572   3.649   2.971 -0.1825 -0.2500 -0.4703
  210MOL0     C28247   5.687   3.645   2.899 -0.3749  0.1231  0.5353
  210MOL0     C28248   5.811   3.612   2.950 -0.0926 -0.2074 -0.3651
  210MOL0     C28249   5.827   3.586   3.090  0.4941  0.0146  0.5267
  210MOL0     O28250   5.955   3.555   3.145  0.3701 -0.0148 -0.8096
  210MOL0     C28251   5.961   3.548   3.288  0.0986 -0.0997 -0.0435
  210MOL0     C28252   6.107   3.525   3.322  0.1315 -0.9980  0.6164
  210MOL0     C28253   6.128   3.489   3.469  0.0121 -0.9489  0.4968
  210MOL0     C28254   6.271   3.516   3.503 -0.8012 -0.0512 -0.0085
  210MOL0     C28255   6.320   3.402   3.601 -1.1799  0.1779  0.6769
  210MOL0     C28256   6.256   3.424   3.738 -0.6286 -0.4061 -0.4369
  210MOL0     C28257   6.249   3.298   3.825  0.9393 -0.3827 -1.1050
  210MOL0     C28258   6.179   3.336   3.957  0.2841  0.1979  0.8409
  210MOL0    Cl28259   6.302   3.427   4.052  0.3690 -0.2671  0.2128
  210MOL0     C28260   5.710   3.594   3.168 -0.1297  0.0622  0.9202
  210MOL0     C28261   5.585   3.624   3.108 -0.6464 -0.2645  0.6185
  210MOL0     O28262   5.447   3.491   2.789 -1.0511  0.2364 -0.2713
  210MOL0     C28263   5.182   3.728   2.859  0.1435 -0.3546  1.1862
  210MOL0     C28264   5.044   3.743   2.833  0.7341 -0.1781 -0.3739
  210MOL0     N28265   4.381   3.495   3.165 -0.3227 -0.2320 -0.0923
  210MOL0     N28266   4.267   3.502   3.219 -0.4133  0.2476  0.2126
  210MOL0     C28267   3.313   3.292   2.654 -0.2763  0.0233 -0.1622
  210MOL0     C28268   3.185   3.251   2.633 -0.2458 -0.1855 -0.0911
  210MOL0     C28269   2.770   3.229   2.400 -0.7855 -0.1208  0.2006
  210MOL0     C28270   2.705   3.210   2.520 -0.5842  1.0180  0.4879
  210MOL0     C28271   2.573   3.151   2.525  0.0197 -0.2144  0.2376
  210MOL0     C28272   2.497   3.145   2.406  0.7651  0.6916  0.1170
  210MOL0     O28273   2.365   3.109   2.392 -0.3510 -0.6549 -0.1083
  210MOL0     C28274   2.304   3.051   2.505  0.2893 -1.1241 -0.0382
  210MOL0     C28275   2.164   2.996   2.460  0.7957 -0.2877 -0.4196
  210MOL0     C28276   2.080   3.079   2.351 -0.7754 -0.3843  0.0046
  210MOL0     C28277   1.955   3.003   2.319  0.4231 -0.4239  0.0698
  210MOL0     C28278   1.871   2.959   2.427 -0.1104 -0.4620 -1.3723
  210MOL0     C28279   1.818   2.906   2.519 -0.0794 -0.0608 -0.4676
  210MOL0     C28280   2.561   3.182   2.291 -0.1802  0.0954  0.6462
  210MOL0     C28281   2.699   3.216   2.276 -0.5005  0.3520 -0.0777
  210MOL0     C28282   2.750   3.228   2.133 -0.8850 -0.4314 -1.0694
  210MOL0     H28283   3.085   3.481   2.401 -0.9178 -1.2884  0.2719
  210MOL0     H28284   3.319   3.549   2.425 -1.2355  1.1505 -0.0547
  210MOL0     H28285   3.579   3.283   2.680 -1.2058  0.1557 -0.8941
  210MOL0     H28286   3.606   3.305   2.506  1.4418 -1.4568  1.5618
  210MOL0     H28287   3.748   3.504   2.549  1.0094 -2.2481 -2.6316
  210MOL0     H28288   3.808   3.354   2.610 -1.6569 -1.4005 -2.5007
  210MOL0     H28289   3.642   3.512   2.799  1.4200  2.3748  2.1396
  210MOL0     H28290   3.819   3.561   2.784 -0.5945  0.4172  2.7478
  210MOL0     H28291   3.741   3.281   2.846  1.2273 -1.2756  3.3613
  210MOL0     H28292   3.885   3.362   2.855 -0.8125 -3.0587 -0.2987
  210MOL0     H28293   3.644   3.451   3.020 -0.2969  0.8093 -0.6739
  210MOL0     H28294   3.757   3.323   3.075  0.9737  0.7817 -0.6699
  210MOL0     H28295   3.815   3.622   3.029 -0.5096  0.1715 -0.8031
  210MOL0     H28296   3.796   3.528   3.177  0.4393  0.7457  0.3054
  210MOL0     H28297   4.036   3.466   2.999 -0.9244 -2.0141 -0.2526
  210MOL0     H28298   3.996   3.398   3.153  2.9923 -0.0715 -0.2057
  210MOL0     H28299   4.013   3.709   3.104 -0.9548  0.6537 -0.2621
  210MOL0     H28300   4.016   3.630   3.262  3.6009  0.7811  1.1418
  210MOL0     H28301   4.244   3.707   2.966 -0.9581 -2.3178 -1.4318
  210MOL0     H28302   4.531   3.728   2.994  2.2607 -0.0630 -0.2356
  210MOL0     H28303   4.593   3.564   3.029  0.6366 -0.7474 -1.8119
  210MOL0     H28304   4.506   3.469   2.832  0.9548  0.2048  3.6889
  210MOL0     H28305   4.409   3.620   2.792 -0.1152 -0.4061 -0.4070
  210MOL0     H28306   4.604   3.724   2.710  3.5798  0.2651  1.8009
  210MOL0     H28307   4.629   3.551   2.667  2.2706 -0.9299  0.8929
  210MOL0     H28308   4.767   3.551   2.879 -1.4235 -1.0583 -0.9929
  210MOL0     H28309   4.741   3.731   2.883  0.9373  1.5223 -1.3944
  210MOL0     H28310   5.007   3.470   2.621 -2.1776 -0.7598  0.5337
  210MOL0     H28311   5.243   3.451   2.675  3.4679  1.8778 -2.4288
  210MOL0     H28312   5.674   3.669   2.794 -0.4286  0.7432  0.6836
  210MOL0     H28313   5.903   3.622   2.893  0.7367 -1.2230  0.7515
  210MOL0     H28314   5.918   3.638   3.332  0.3534 -0.9780  2.1103
  210MOL0     H28315   5.904   3.461   3.320 -0.6827 -0.0453 -1.2241
  210MOL0     H28316   6.135   3.437   3.263 -1.3485 -1.2545  0.2572
  210MOL0     H28317   6.168   3.614   3.304 -0.3468 -0.0458  3.1976
  210MOL0     H28318   6.056   3.540   3.535 -2.0085 -0.6030 -1.8242
  210MOL0     H28319   6.103   3.383   3.483 -1.8440 -0.9868 -2.2990
  210MOL0     H28320   6.285   3.612   3.554  1.3798 -1.2559  1.8750
  210MOL0     H28321   6.345   3.500   3.423  0.0692  3.2058 -0.0136
  210MOL0     H28322   6.426   3.402   3.627 -1.0624  1.2552  0.2601
  210MOL0     H28323   6.291   3.306   3.557  0.5251  0.6266 -1.6187
  210MOL0     H28324   6.310   3.506   3.786  2.2881 -2.5232  0.2000
  210MOL0     H28325   6.152   3.453   3.718 -0.2990 -0.0797 -1.7451
  210MOL0     H28326   6.342   3.254   3.861 -0.8675 -2.8534  0.8886
  210MOL0     H28327   6.181   3.228   3.777  0.2802 -1.3786  1.1240
  210MOL0     H28328   6.086   3.390   3.939 -2.8330 -3.3139  4.4104
  210MOL0     H28329   6.147   3.247   4.013  1.5638 -3.5309 -3.6950
  210MOL0     H28330   5.715   3.568   3.273  3.0548 -0.6599  0.6795
  210MOL0     H28331   5.494   3.636   3.167 -0.6452  1.1509  0.3756
  210MOL0     H28332   5.232   3.808   2.913  1.1756  1.0208 -1.6013
  210MOL0     H28333   4.977   3.824   2.863 -0.8340 -1.5835  0.1154
  210MOL0     H28334   3.375   3.228   2.715  1.2394  1.2713 -0.3115
  210MOL0     H28335   3.144   3.169   2.690 -0.2750  1.1895  1.9705
  210MOL0     H28336   2.765   3.219   2.610  0.2985  3.6732 -0.2586
  210MOL0     H28337   2.538   3.125   2.624  2.3879  0.1596  1.2348
  210MOL0     H28338   2.295   3.127   2.583  0.7998 -2.2058  1.1010
  210MOL0     H28339   2.366   2.968   2.540  0.7348  0.2745  2.7204
  210MOL0     H28340   2.106   2.996   2.553 -2.5757  3.9094 -2.1495
  210MOL0     H28341   2.182   2.892   2.431  1.3231 -0.5299  0.7230
  210MOL0     H28342   2.144   3.092   2.263 -0.7612 -1.4248 -0.1465
  210MOL0     H28343   2.053   3.181   2.380 -3.3569 -1.0227  0.1076
  210MOL0     H28344   1.895   3.054   2.244 -2.0768 -1.9406  0.9356
  210MOL0     H28345   1.992   2.915   2.266 -4.3017 -0.7547 -3.2040
  210MOL0     H28346   1.774   2.854   2.601 -0.2459  1.7694  0.6649
  210MOL0     H28347   2.494   3.170   2.207 -1.4898  0.9125  1.5390
  210MOL0     H28348   2.843   3.177   2.106 -0.1553  0.8974 -1.1307
  210MOL0     H28349   2.676   3.187   2.064 -3.6382 -0.1974  1.5436
  210MOL0     H28350   2.769   3.334   2.114 -1.0446 -0.5931 -2.2293
  211MOL0     O28351   2.765   6.273   4.408 -0.5456  0.6652  0.4781
  211MOL0     C28352   2.825   6.235   4.507 -1.7922  0.4887  0.2379
  211MOL0     O28353   2.762   6.206   4.629 -0.5256  0.3509 -0.6847
  211MOL0     C28354   2.628   6.222   4.659  0.7102 -0.2747 -0.3646
  211MOL0     C28355   2.574   6.135   4.756 -0.6200  0.0777 -0.3888
  211MOL0     C28356   2.444   6.151   4.805  0.3438  0.7241 -0.4007
  211MOL0     C28357   2.361   6.244   4.753 -0.1082 -0.4738  0.3513
  211MOL0     O28358   2.235   6.251   4.812 -0.0486  0.4424 -0.0201
  211MOL0     C28359   2.168   6.370   4.777  0.3056  0.7077  0.2082
  211MOL0     C28360   2.031   6.361   4.838 -0.1395  0.8806  0.3254
  211MOL0     C28361   1.920   6.452   4.777  0.4672  0.2611 -0.4014
  211MOL0     C28362   1.871   6.428   4.628  0.5889  0.6653 -0.1704
  211MOL0     C28363   1.739   6.516   4.589 -0.1361  0.0541  0.2071
  211MOL0     C28364   1.774   6.663   4.565  0.7162 -0.1684 -0.3131
  211MOL0     C28365   1.669   6.769   4.540 -0.9642 -0.6027  0.6059
  211MOL0     C28366   1.580   6.800   4.657 -0.2531  0.0482 -0.9376
  211MOL0     N28367   1.443   6.850   4.619  0.1821  0.0525 -0.7685
  211MOL0     C28368   1.327   6.834   4.693  0.0218 -0.1978 -0.0027
  211MOL0     C28369   1.228   6.885   4.620  0.2419  0.5240  0.0778
  211MOL0     C28370   1.076   6.887   4.652 -0.6051  0.9995  0.2246
  211MOL0     C28371   1.022   6.745   4.603  0.6165 -0.1819 -0.6406
  211MOL0     C28372   0.882   6.730   4.651  0.1446 -0.0503  0.4337
  211MOL0     C28373   0.809   6.601   4.608 -0.8513 -0.0275  0.9477
  211MOL0     O28374   0.670   6.626   4.614  0.4058 -0.2255 -0.3365
  211MOL0     C28375   0.597   6.517   4.608  0.1862  0.1582 -0.7404
  211MOL0     C28376   0.588   6.434   4.718  0.0333 -1.1028 -0.7992
  211MOL0     C28377   0.512   6.318   4.714 -0.2521  0.7086 -0.5941
  211MOL0     C28378   0.461   6.274   4.588  0.1994 -0.8894  0.3599
  211MOL0     C28379   0.395   6.145   4.569  0.7503  0.0072  0.2245
  211MOL0     O28380   0.380   6.105   4.433 -0.1979  0.4672  0.3025
  211MOL0     C28381   0.291   6.012   4.385  0.0511  0.4738 -0.6563
  211MOL0     C28382   0.323   5.948   4.264  0.4107 -0.4571  0.5864
  211MOL0     C28383   0.241   5.855   4.208 -0.0894 -0.2392 -0.6181
  211MOL0     C28384   0.121   5.824   4.271  0.0991  0.6952 -0.8254
  211MOL0     O28385   0.016   5.759   4.215  0.0770 -0.0897  0.1521
  211MOL0     C28386   0.015   5.744   4.074  0.4860  1.1611  0.4767
  211MOL0     C28387  -0.122   5.681   4.023 -0.1203  0.2260 -0.2812
  211MOL0     C28388  -0.103   5.645   3.876 -0.1858 -0.3506 -0.9682
  211MOL0     C28389  -0.227   5.632   3.790  0.1030  0.5806 -0.0138
  211MOL0     C28390  -0.197   5.640   3.637  0.3081 -0.2390 -0.9025
  211MOL0     C28391  -0.336   5.662   3.579 -0.6440 -0.5608 -0.2094
  211MOL0     C28392  -0.319   5.637   3.427  0.1347  0.1160  0.4589
  211MOL0     C28393  -0.413   5.722   3.338 -0.5267 -0.8259  0.3351
  211MOL0    Cl28394  -0.375   5.682   3.160  0.1457  0.1243 -0.4735
  211MOL0     C28395   0.092   5.881   4.389  0.3159 -0.1356 -0.8288
  211MOL0     C28396   0.173   5.975   4.454 -0.1385  0.0171 -0.2531
  211MOL0     O28397   0.377   6.078   4.672 -0.0334  0.0174  0.3548
  211MOL0     C28398   0.477   6.356   4.472 -0.2460  0.1869 -0.4002
  211MOL0     C28399   0.541   6.475   4.492 -0.4832  0.1724  0.3868
  211MOL0     N28400   1.287   6.951   4.513 -0.3717 -0.0953  0.2830
  211MOL0     N28401   1.416   6.920   4.509  0.0185  0.7021  0.3036
  211MOL0     C28402   2.417   6.332   4.653  0.2773  0.1307 -0.0939
  211MOL0     C28403   2.547   6.328   4.608 -0.2497 -0.0110  0.6297
  211MOL0     C28404   2.969   6.214   4.488 -0.6186 -0.3065 -0.7245
  211MOL0     C28405   3.032   6.119   4.578 -0.2452 -0.2968  0.4208
  211MOL0     C28406   3.171   6.102   4.565 -0.8578  0.0144  0.4582
  211MOL0     C28407   3.244   6.175   4.463 -0.4124 -0.2191  0.2692
  211MOL0     O28408   3.380   6.155   4.460 -0.6618 -0.0692 -1.2191
  211MOL0     C28409   3.471   6.269   4.465 -0.4724  0.4020 -0.5946
  211MOL0     C28410   3.605   6.194   4.439 -0.1562 -0.1082 -0.0540
  211MOL0     C28411   3.729   6.281   4.406  0.4673  1.2664  1.5707
  211MOL0     C28412   3.750   6.420   4.467  0.1369  0.7429  1.1063
  211MOL0     C28413   3.740   6.400   4.613 -0.3277 -0.8093 -0.3156
  211MOL0     C28414   3.719   6.396   4.730  0.0139  0.4369  0.7706
  211MOL0     C28415   3.185   6.264   4.381  0.5141  0.3216  0.8772
  211MOL0     C28416   3.049   6.290   4.397  0.0650  0.6800 -0.2793
  211MOL0     C28417   3.010   6.393   4.293  0.5073  0.1941  0.4343
  211MOL0     H28418   2.634   6.052   4.793 -1.8732 -0.4024  0.6485
  211MOL0     H28419   2.401   6.098   4.889 -2.0832  0.2267 -1.8696
  211MOL0     H28420   2.221   6.459   4.812 -0.6325  1.0713  0.7347
  211MOL0     H28421   2.140   6.365   4.672 -0.1214 -0.3206  0.3545
  211MOL0     H28422   2.033   6.390   4.943  0.3977  2.1113 -0.0064
  211MOL0     H28423   2.012   6.253   4.831  1.8532  0.3133  2.4239
  211MOL0     H28424   1.953   6.555   4.793 -2.2492  1.1655 -0.2052
  211MOL0     H28425   1.825   6.427   4.825  0.8274  0.1184  0.2398
  211MOL0     H28426   1.955   6.449   4.561 -0.3517  1.1469 -1.2376
  211MOL0     H28427   1.841   6.324   4.612 -1.5726  0.9336  1.6094
  211MOL0     H28428   1.685   6.483   4.499 -1.9220 -0.8898  1.5722
  211MOL0     H28429   1.668   6.500   4.670  1.5605 -2.6414  1.2946
  211MOL0     H28430   1.839   6.708   4.640 -3.5495 -0.4922  4.1069
  211MOL0     H28431   1.836   6.642   4.478  3.4447  0.2150  1.4441
  211MOL0     H28432   1.592   6.729   4.473 -0.5644  3.3405 -2.5800
  211MOL0     H28433   1.705   6.855   4.483 -3.9559  1.3103  1.3801
  211MOL0     H28434   1.561   6.706   4.710  2.5826  0.7869  1.6687
  211MOL0     H28435   1.619   6.867   4.734 -4.1339  0.9823  0.4475
  211MOL0     H28436   1.310   6.773   4.781  0.5811 -0.6785 -0.2172
  211MOL0     H28437   1.059   6.920   4.755  0.0905  2.0782  0.0211
  211MOL0     H28438   1.026   6.957   4.585  0.9675  2.7078  0.7482
  211MOL0     H28439   1.035   6.743   4.494 -0.0114  0.0993 -0.7253
  211MOL0     H28440   1.087   6.671   4.651 -0.2393  0.3652  1.4847
  211MOL0     H28441   0.821   6.811   4.610  0.2611 -0.5349 -0.7170
  211MOL0     H28442   0.893   6.738   4.760  3.7049  0.0502  0.1658
  211MOL0     H28443   0.851   6.528   4.677  0.8977  0.2631  0.2496
  211MOL0     H28444   0.847   6.577   4.509  1.0988 -0.6620  1.8117
  211MOL0     H28445   0.640   6.457   4.810 -0.5793 -2.5578 -0.0629
  211MOL0     H28446   0.502   6.247   4.796  4.3785 -0.3666 -0.6737
  211MOL0     H28447   0.411   5.985   4.211  0.2188  0.6773  1.0375
  211MOL0     H28448   0.273   5.795   4.123  0.0826 -0.4174 -0.4260
  211MOL0     H28449   0.022   5.842   4.026 -0.0452 -1.7437 -6.8405
  211MOL0     H28450   0.097   5.676   4.048  1.9259  2.3357  1.7235
  211MOL0     H28451  -0.146   5.592   4.082 -0.6873 -1.2766 -2.6467
  211MOL0     H28452  -0.198   5.760   4.026 -0.1954  0.1975 -1.2303
  211MOL0     H28453  -0.037   5.723   3.836  1.0039 -1.5645 -1.4711
  211MOL0     H28454  -0.047   5.551   3.869  0.4360  0.1140 -2.9127
  211MOL0     H28455  -0.293   5.708   3.832  0.3183  0.3937  0.6914
  211MOL0     H28456  -0.272   5.534   3.809  0.6015  0.3652  0.0768
  211MOL0     H28457  -0.148   5.544   3.615 -1.6079 -1.6442  0.6663
  211MOL0     H28458  -0.129   5.720   3.606  1.7020 -1.3256 -0.8044
  211MOL0     H28459  -0.414   5.604   3.628  1.1235 -0.0710  3.5745
  211MOL0     H28460  -0.363   5.767   3.592  1.6452 -0.0551  0.9092
  211MOL0     H28461  -0.348   5.532   3.418 -0.6368  0.1000  2.6742
  211MOL0     H28462  -0.216   5.645   3.392  0.7070 -2.3348  1.4280
  211MOL0     H28463  -0.520   5.700   3.349 -0.8004 -0.8392 -1.9242
  211MOL0     H28464  -0.399   5.828   3.359  0.5294 -1.5306  3.8914
  211MOL0     H28465  -0.004   5.847   4.428 -0.6492  0.3938 -2.6386
  211MOL0     H28466   0.150   6.035   4.541  0.5546  1.1353 -0.8234
  211MOL0     H28467   0.429   6.327   4.379 -1.0289 -0.0994  0.0827
  211MOL0     H28468   0.544   6.546   4.411  1.4159  1.1411  1.2455
  211MOL0     H28469   2.357   6.406   4.602  0.0616 -0.0292 -0.0750
  211MOL0     H28470   2.573   6.392   4.525  0.2926 -0.5533  0.3803
  211MOL0     H28471   2.974   6.056   4.645  0.7492 -2.1246 -0.3597
  211MOL0     H28472   3.219   6.021   4.620  1.3316  1.2061  0.4205
  211MOL0     H28473   3.474   6.317   4.564  1.1438 -0.9976  0.0933
  211MOL0     H28474   3.449   6.349   4.394  0.2208 -0.1369 -1.4401
  211MOL0     H28475   3.588   6.136   4.347 -0.5286 -2.8811  1.6435
  211MOL0     H28476   3.633   6.130   4.523 -0.1836 -2.4310 -1.6889
  211MOL0     H28477   3.720   6.295   4.297  1.1066 -0.8120  1.2130
  211MOL0     H28478   3.820   6.225   4.426 -0.1717  0.0735  1.2490
  211MOL0     H28479   3.846   6.467   4.446  1.1885 -1.3761  0.9208
  211MOL0     H28480   3.669   6.485   4.432  0.3498  1.1775  1.4085
  211MOL0     H28481   3.709   6.401   4.836  3.6291 -0.4103  1.2756
  211MOL0     H28482   3.249   6.299   4.301  1.3496  0.2986  1.5206
  211MOL0     H28483   3.040   6.493   4.326 -2.4250  1.1002  0.5877
  211MOL0     H28484   3.055   6.368   4.196 -2.6306  2.9303 -1.9567
  211MOL0     H28485   2.903   6.392   4.273  0.0122  2.3743  2.4697
  212MOL0     O28486   5.894  10.900   4.322  0.3958 -1.0871 -0.0257
  212MOL0     C28487   5.978  10.809   4.320 -0.7425 -0.1331 -0.1456
  212MOL0     O28488   6.109  10.809   4.367 -1.3240 -0.3750  0.0117
  212MOL0     C28489   6.153  10.933   4.421 -0.2786  0.3433 -1.2420
  212MOL0     C28490   6.145  10.941   4.562  0.5768 -0.1043  0.2873
  212MOL0     C28491   6.200  11.050   4.628  0.0711 -0.5834 -0.4144
  212MOL0     C28492   6.253  11.163   4.556 -0.2869  1.0528 -0.1283
  212MOL0     O28493   6.311  11.263   4.640  0.7122 -0.2135  0.3898
  212MOL0     C28494   6.380  11.372   4.563  0.7064 -0.0810 -0.0574
  212MOL0     C28495   6.517  11.324   4.504 -0.0041 -0.0815 -0.0065
  212MOL0     C28496   6.578  11.445   4.437 -0.4008  0.5925 -0.1637
  212MOL0     C28497   6.717  11.408   4.388  1.1190  0.3557  0.7300
  212MOL0     C28498   6.800  11.532   4.367 -0.7513 -0.5858 -0.1828
  212MOL0     C28499   6.946  11.495   4.317  0.4867  0.5862  0.0136
  212MOL0     C28500   7.029  11.618   4.317  0.2787  0.9298 -1.4033
  212MOL0     C28501   6.984  11.730   4.221  0.5757  0.1606  0.0227
  212MOL0     N28502   6.955  11.687   4.081  0.6347  0.7792 -0.3854
  212MOL0     C28503   7.039  11.679   3.976 -0.8045  0.6058  0.9129
  212MOL0     C28504   6.962  11.611   3.884 -0.4543 -0.9448  0.5232
  212MOL0     C28505   7.012  11.589   3.749 -0.4900 -0.3182 -0.4639
  212MOL0     C28506   7.021  11.442   3.722  0.1438 -0.1779 -0.0865
  212MOL0     C28507   6.898  11.368   3.658 -0.6264 -0.7332 -0.3952
  212MOL0     C28508   6.776  11.355   3.745  0.2500 -0.0644  0.3800
  212MOL0     O28509   6.687  11.257   3.692 -0.4068 -0.1830 -0.4198
  212MOL0     C28510   6.558  11.293   3.667 -0.7775  0.1826 -0.7267
  212MOL0     C28511   6.496  11.228   3.560 -1.3694  0.8285 -0.0531
  212MOL0     C28512   6.355  11.218   3.545 -0.5895 -0.4839 -0.4722
  212MOL0     C28513   6.273  11.290   3.631  0.3344 -0.5220  0.4015
  212MOL0     C28514   6.118  11.296   3.602  0.1942  0.1791  0.2527
  212MOL0     O28515   6.075  11.234   3.490  0.1294 -0.1894 -0.0482
  212MOL0     C28516   5.946  11.238   3.448  0.5404 -0.0789 -1.0301
  212MOL0     C28517   5.929  11.213   3.310 -0.0619  0.1816 -0.8288
  212MOL0     C28518   5.798  11.202   3.246 -0.2712  0.2806 -0.4499
  212MOL0     C28519   5.686  11.250   3.320 -0.9318  0.4553  0.8679
  212MOL0     O28520   5.564  11.249   3.254  0.4199  0.6399 -0.8470
  212MOL0     C28521   5.443  11.280   3.325  0.2743 -0.6775  0.2324
  212MOL0     C28522   5.334  11.262   3.229 -0.1033  0.8008 -0.2060
  212MOL0     C28523   5.198  11.314   3.289 -0.0562 -1.1480 -0.1791
  212MOL0     C28524   5.076  11.292   3.187 -0.2606 -0.4272 -0.5689
  212MOL0     C28525   4.941  11.338   3.239  0.2805 -0.2754 -0.4205
  212MOL0     C28526   4.909  11.489   3.231 -0.0386  1.2545 -0.1263
  212MOL0     C28527   4.902  11.530   3.084 -0.1400  0.4653  0.0106
  212MOL0     C28528   4.777  11.495   3.012  0.7836 -0.3517 -0.1101
  212MOL0    Cl28529   4.805  11.528   2.836  0.7490  0.3234 -0.4123
  212MOL0     C28530   5.707  11.259   3.460 -0.1580  0.4327 -0.3301
  212MOL0     C28531   5.829  11.246   3.525 -0.5298 -0.2962 -0.3565
  212MOL0     O28532   6.051  11.384   3.664 -0.5522 -0.0505 -0.8467
  212MOL0     C28533   6.333  11.375   3.732 -0.1417  0.8840  0.3090
  212MOL0     C28534   6.475  11.365   3.755  0.5927  0.2931 -0.0926
  212MOL0     N28535   6.843  11.581   3.937  0.1222  0.5663 -0.1529
  212MOL0     N28536   6.823  11.636   4.052 -0.5729  0.9763  0.7291
  212MOL0     C28537   6.253  11.156   4.415 -0.8954  0.1856  0.1254
  212MOL0     C28538   6.206  11.041   4.351  0.0481  0.5749  0.2596
  212MOL0     C28539   5.923  10.679   4.292 -0.0126  0.5367  0.5388
  212MOL0     C28540   5.816  10.635   4.367  0.4857  0.1033  0.1709
  212MOL0     C28541   5.753  10.508   4.360  0.1152 -0.4559  0.2919
  212MOL0     C28542   5.813  10.419   4.256 -0.0847  0.5675  0.3423
  212MOL0     O28543   5.768  10.296   4.227  0.6344  0.4816 -0.8335
  212MOL0     C28544   5.720  10.209   4.332 -0.6561 -0.3183  0.0288
  212MOL0     C28545   5.569  10.191   4.317  0.8492  1.1826  0.6586
  212MOL0     C28546   5.540  10.113   4.182  0.6708 -0.5327 -0.1563
  212MOL0     C28547   5.399  10.107   4.124  1.0129  0.4988 -0.5451
  212MOL0     C28548   5.312  10.006   4.196 -0.5881 -0.6202  1.4306
  212MOL0     C28549   5.245   9.935   4.262 -0.5425  0.4039  0.1000
  212MOL0     C28550   5.903  10.472   4.166  0.7331  0.2200  1.4914
  212MOL0     C28551   5.967  10.595   4.188 -0.4687 -0.0961 -0.0481
  212MOL0     C28552   6.091  10.626   4.105 -0.3281 -0.0894 -0.3459
  212MOL0     H28553   6.090  10.866   4.618  0.4151 -0.4786 -0.3644
  212MOL0     H28554   6.209  11.043   4.736  1.3655 -1.6541 -0.5688
  212MOL0     H28555   6.311  11.411   4.487 -0.1060  0.6329  1.0173
  212MOL0     H28556   6.395  11.456   4.631  1.5114  0.3489 -0.7482
  212MOL0     H28557   6.498  11.262   4.415 -1.6895  2.8948 -1.8866
  212MOL0     H28558   6.586  11.271   4.570  0.4300 -0.7177 -0.9451
  212MOL0     H28559   6.591  11.518   4.518 -1.3933  0.0036  0.5420
  212MOL0     H28560   6.520  11.482   4.353  2.3318 -2.8043 -3.9459
  212MOL0     H28561   6.769  11.331   4.445  0.1582 -1.8967 -1.2429
  212MOL0     H28562   6.700  11.356   4.293  1.0543 -1.4337  1.6976
  212MOL0     H28563   6.752  11.610   4.308 -1.7479 -0.0894  1.2307
  212MOL0     H28564   6.812  11.577   4.466  1.6599 -0.3005 -0.5571
  212MOL0     H28565   6.989  11.423   4.386  0.9434  2.3516  1.6499
  212MOL0     H28566   6.945  11.437   4.224 -1.9702  1.4590 -0.6049
  212MOL0     H28567   7.128  11.580   4.290  0.4400  0.8911 -0.7651
  212MOL0     H28568   7.027  11.659   4.418  0.6078  1.6901 -1.6979
  212MOL0     H28569   6.893  11.781   4.256 -0.9848 -0.6722 -2.5286
  212MOL0     H28570   7.061  11.808   4.210  0.8401 -0.1981 -0.7461
  212MOL0     H28571   7.143  11.702   3.955 -0.8094 -0.5071 -0.4723
  212MOL0     H28572   6.937  11.633   3.682  0.0839 -2.0797 -2.3773
  212MOL0     H28573   7.108  11.639   3.733  1.0667 -2.3318  1.8775
  212MOL0     H28574   7.106  11.414   3.658  1.7304 -4.4108  3.3692
  212MOL0     H28575   7.042  11.389   3.816 -2.9671 -0.4787  0.5320
  212MOL0     H28576   6.930  11.267   3.632  0.2639 -0.0585 -2.1573
  212MOL0     H28577   6.879  11.434   3.572 -1.5790 -3.8198 -2.7240
  212MOL0     H28578   6.718  11.448   3.743 -2.9012 -1.8929  0.6768
  212MOL0     H28579   6.795  11.328   3.850  0.3626  0.5314  0.5166
  212MOL0     H28580   6.566  11.188   3.487 -0.5165  1.3642  0.4496
  212MOL0     H28581   6.315  11.163   3.460 -0.5977  3.0601 -2.9723
  212MOL0     H28582   6.014  11.200   3.244  0.2224  0.0457 -0.4410
  212MOL0     H28583   5.783  11.176   3.141 -2.6470 -3.5095  0.6250
  212MOL0     H28584   5.417  11.214   3.409 -2.5549  1.7215  1.4281
  212MOL0     H28585   5.453  11.380   3.368  1.1900 -1.2784  1.5102
  212MOL0     H28586   5.363  11.312   3.136  4.7497 -1.6097 -0.3191
  212MOL0     H28587   5.321  11.154   3.214 -0.4934  0.7964  0.1594
  212MOL0     H28588   5.174  11.268   3.386 -2.0361 -1.2958 -0.6981
  212MOL0     H28589   5.208  11.420   3.313  4.5423 -1.9547  2.8748
  212MOL0     H28590   5.057  11.184   3.180 -0.0738 -0.6535  1.6534
  212MOL0     H28591   5.101  11.343   3.094  4.7591  2.9347  2.1482
  212MOL0     H28592   4.929  11.285   3.333 -2.2313 -1.0582 -1.1157
  212MOL0     H28593   4.865  11.287   3.180  1.2769 -0.7067 -1.3794
  212MOL0     H28594   4.820  11.503   3.293 -0.1300  0.1316  0.0275
  212MOL0     H28595   4.986  11.546   3.283  2.7334 -2.1692 -0.1474
  212MOL0     H28596   4.972  11.481   3.016 -1.6902  0.5165 -1.7033
  212MOL0     H28597   4.915  11.638   3.078  4.3384  0.1675  1.2548
  212MOL0     H28598   4.752  11.391   3.033 -2.1508  0.3961  0.5532
  212MOL0     H28599   4.683  11.543   3.042  0.0748 -1.1705 -0.9825
  212MOL0     H28600   5.620  11.266   3.526  0.6505  3.0155  0.5772
  212MOL0     H28601   5.835  11.263   3.632  1.4767  2.0409 -0.7436
  212MOL0     H28602   6.264  11.425   3.799  1.3068  2.8389  0.4191
  212MOL0     H28603   6.506  11.422   3.841 -2.1441  2.7174 -0.5624
  212MOL0     H28604   6.305  11.233   4.359  1.4251 -0.5863  1.1181
  212MOL0     H28605   6.211  11.021   4.244 -2.6414  0.8767 -0.0017
  212MOL0     H28606   5.788  10.705   4.445  0.1957 -0.6206  0.7336
  212MOL0     H28607   5.673  10.474   4.424 -0.1187 -0.8491 -0.2000
  212MOL0     H28608   5.736  10.251   4.432  3.4070  0.6225 -0.8590
  212MOL0     H28609   5.768  10.111   4.338 -1.8314 -0.8876  0.4403
  212MOL0     H28610   5.525  10.291   4.324  2.3624  1.8359  1.0623
  212MOL0     H28611   5.535  10.132   4.402  0.3465  1.0716  0.3873
  212MOL0     H28612   5.579  10.011   4.191  3.2928  0.3903 -0.1084
  212MOL0     H28613   5.607  10.161   4.110  2.6737 -3.1676 -0.1989
  212MOL0     H28614   5.359  10.208   4.122  1.0125  0.5601  1.0441
  212MOL0     H28615   5.412  10.082   4.019 -2.2611 -0.9156 -0.7439
  212MOL0     H28616   5.174   9.884   4.326  1.7303 -2.8506  0.2782
  212MOL0     H28617   5.940  10.408   4.086 -0.3197  1.0607  0.2850
  212MOL0     H28618   6.113  10.538   4.043 -1.9724 -1.5757  1.1050
  212MOL0     H28619   6.079  10.715   4.041  1.3606 -1.0578 -2.1352
  212MOL0     H28620   6.173  10.653   4.172 -0.6666  0.7382 -0.2580
  213MOL0     O28621   1.767   0.126   2.943 -0.7074  0.1941 -0.7935
  213MOL0     C28622   1.852   0.062   3.008 -0.3148 -0.0722  0.1687
  213MOL0     O28623   1.950   0.114   3.082 -0.1174  0.9712 -0.2111
  213MOL0     C28624   1.962   0.247   3.075 -0.1012  0.2757 -0.7816
  213MOL0     C28625   2.029   0.301   2.961 -0.3694  0.5350  0.2526
  213MOL0     C28626   2.052   0.442   2.954  0.5865 -0.7850  0.5519
  213MOL0     C28627   1.989   0.523   3.049  0.4174  0.0589 -0.4970
  213MOL0     O28628   1.992   0.664   3.029  0.1956  0.4537  0.5851
  213MOL0     C28629   2.115   0.734   2.985 -0.3712 -0.1701  0.7650
  213MOL0     C28630   2.106   0.888   2.982  0.2984  0.0343 -0.5060
  213MOL0     C28631   1.976   0.941   2.927  0.5021  0.1972  0.1130
  213MOL0     C28632   1.861   0.959   3.034  0.8298 -0.3100  0.1691
  213MOL0     C28633   1.895   1.036   3.165  0.4034 -0.7448  0.3465
  213MOL0     C28634   1.930   1.186   3.152 -0.1819  0.6771 -0.3963
  213MOL0     C28635   1.987   1.246   3.282 -0.1045 -0.5235  0.5043
  213MOL0     C28636   2.107   1.337   3.268  0.0058 -0.0778  0.5106
  213MOL0     N28637   2.222   1.242   3.252 -0.1561 -0.3720  0.4556
  213MOL0     C28638   2.271   1.191   3.139 -1.2728 -0.0901  0.1632
  213MOL0     C28639   2.365   1.097   3.177 -0.5840 -0.2302  0.3347
  213MOL0     C28640   2.461   1.016   3.093  0.3343 -0.0251 -0.1677
  213MOL0     C28641   2.516   1.087   2.969  0.2745 -0.4970 -0.8006
  213MOL0     C28642   2.607   1.002   2.878  0.3623 -0.0107  0.6308
  213MOL0     C28643   2.549   0.875   2.817  0.3243 -0.1569  0.3699
  213MOL0     O28644   2.446   0.904   2.718 -0.3735  0.0371  0.2751
  213MOL0     C28645   2.375   0.792   2.689  0.6108  0.4175 -0.6734
  213MOL0     C28646   2.416   0.661   2.707  0.0183 -0.1465  0.1002
  213MOL0     C28647   2.335   0.553   2.667  1.0343  0.2593 -0.2798
  213MOL0     C28648   2.204   0.576   2.613  0.5594 -1.0030 -0.3351
  213MOL0     C28649   2.109   0.468   2.573 -1.0405 -0.1176 -0.4443
  213MOL0     O28650   1.993   0.496   2.517  0.6733 -0.0800  0.0797
  213MOL0     C28651   1.884   0.402   2.517  0.3361 -1.4049  0.0532
  213MOL0     C28652   1.851   0.315   2.623  0.7248 -0.1742  0.2876
  213MOL0     C28653   1.748   0.218   2.604 -0.5880  0.0660 -0.4532
  213MOL0     C28654   1.671   0.212   2.484 -0.3295  0.0328 -0.3627
  213MOL0     O28655   1.557   0.132   2.465 -0.1960 -0.7808 -1.1326
  213MOL0     C28656   1.552   0.015   2.537  0.0945 -0.0462  0.1369
  213MOL0     C28657   1.483  -0.093   2.451  0.7293  0.7255  0.6415
  213MOL0     C28658   1.325  -0.077   2.433  0.3627 -0.1407 -0.4544
  213MOL0     C28659   1.260  -0.195   2.356 -0.3320  0.5005 -0.0495
  213MOL0     C28660   1.135  -0.143   2.291 -0.2161  0.0732 -0.8707
  213MOL0     C28661   1.086  -0.269   2.210 -0.0350  0.1888 -0.1747
  213MOL0     C28662   0.949  -0.225   2.163 -0.0176  0.0635 -0.4055
  213MOL0     C28663   0.892  -0.303   2.045 -0.2359  0.5026 -0.2405
  213MOL0    Cl28664   0.949  -0.281   1.877 -0.1148 -0.2782 -0.3991
  213MOL0     C28665   1.699   0.309   2.387 -0.8408 -1.5625  0.1921
  213MOL0     C28666   1.801   0.404   2.405 -0.0296  0.8782  0.1104
  213MOL0     O28667   2.148   0.359   2.614 -0.0887  0.1649  0.1050
  213MOL0     C28668   2.155   0.712   2.602 -0.7542  0.7637  0.4446
  213MOL0     C28669   2.237   0.820   2.648  0.3074 -0.2758 -0.6491
  213MOL0     N28670   2.378   1.097   3.317  0.3766 -0.1362  0.2508
  213MOL0     N28671   2.292   1.174   3.361 -0.2748 -1.0828  0.2081
  213MOL0     C28672   1.915   0.474   3.152  0.2568  0.4760 -0.2321
  213MOL0     C28673   1.909   0.336   3.172 -0.5481 -0.1346  0.1154
  213MOL0     C28674   1.844  -0.090   3.010 -0.7190 -0.1434  0.0614
  213MOL0     C28675   1.954  -0.163   3.068 -0.1674  0.5795 -0.7870
  213MOL0     C28676   1.937  -0.303   3.093 -0.8178  0.4971  0.0102
  213MOL0     C28677   1.831  -0.370   3.040 -0.8528  0.6195 -0.1850
  213MOL0     O28678   1.827  -0.511   3.044 -0.7573  0.4469  0.9105
  213MOL0     C28679   1.862  -0.572   2.913  0.0316  0.7768  0.3332
  213MOL0     C28680   1.905  -0.720   2.921  0.6648 -0.1644  0.4115
  213MOL0     C28681   2.038  -0.764   3.003  0.8116 -0.4599  0.2442
  213MOL0     C28682   2.083  -0.901   2.953 -0.0907 -0.8249 -0.5103
  213MOL0     C28683   2.197  -0.941   3.036 -0.1650  0.3281  0.0409
  213MOL0     C28684   2.291  -0.979   3.103  0.4371 -0.2282  0.3356
  213MOL0     C28685   1.727  -0.304   2.976  0.5143  0.2955 -0.5528
  213MOL0     C28686   1.730  -0.170   2.971 -0.7145 -1.1162 -0.0774
  213MOL0     C28687   1.621  -0.102   2.901 -0.9674  0.1153 -0.4375
  213MOL0     H28688   2.074   0.241   2.882  0.6454 -0.6551  1.6638
  213MOL0     H28689   2.104   0.492   2.873 -0.2782 -0.9919 -0.1399
  213MOL0     H28690   2.195   0.704   3.053 -0.5266 -1.4558  0.4100
  213MOL0     H28691   2.149   0.688   2.892 -0.6981 -2.4752  1.7276
  213MOL0     H28692   2.185   0.918   2.912  0.5338  2.1243  0.5782
  213MOL0     H28693   2.128   0.921   3.084 -1.3252 -1.4197  0.3659
  213MOL0     H28694   1.938   0.869   2.854  0.4382  1.9030 -1.5995
  213MOL0     H28695   1.997   1.028   2.864  1.7927 -0.6802 -0.7018
  213MOL0     H28696   1.774   1.010   2.989  1.5920 -0.2327 -1.2699
  213MOL0     H28697   1.832   0.857   3.058 -1.1999 -0.2472 -1.6805
  213MOL0     H28698   1.816   1.029   3.240  0.6684  0.1480  0.7156
  213MOL0     H28699   1.986   0.995   3.210  1.1417  0.2114 -0.2272
  213MOL0     H28700   1.993   1.204   3.064  1.2566  0.8645  0.6392
  213MOL0     H28701   1.840   1.242   3.122  0.2337  0.7710 -1.5434
  213MOL0     H28702   2.018   1.168   3.352  0.5670 -0.4311  0.3180
  213MOL0     H28703   1.915   1.317   3.323 -1.9426  0.2923 -3.6635
  213MOL0     H28704   2.102   1.414   3.191  0.2475  1.0837  1.6183
  213MOL0     H28705   2.119   1.392   3.362 -0.5638  1.7634 -0.4615
  213MOL0     H28706   2.243   1.207   3.035 -0.8168  0.2332  0.0846
  213MOL0     H28707   2.543   0.992   3.162  0.2873 -0.0006 -0.1035
  213MOL0     H28708   2.417   0.917   3.076  0.6150 -0.1029 -0.4492
  213MOL0     H28709   2.430   1.128   2.915 -0.6047  1.1396  1.6779
  213MOL0     H28710   2.579   1.163   3.016  0.5593 -0.1769 -1.6862
  213MOL0     H28711   2.709   0.987   2.916 -0.2173 -1.3964  1.7228
  213MOL0     H28712   2.629   1.055   2.785  4.2965 -1.9131  0.2909
  213MOL0     H28713   2.506   0.830   2.907  2.4699  0.1146  1.5911
  213MOL0     H28714   2.628   0.812   2.775  0.5595  0.5436 -0.2632
  213MOL0     H28715   2.512   0.626   2.744 -0.0256 -0.0049  0.3468
  213MOL0     H28716   2.374   0.453   2.685 -2.6836 -1.3549 -0.4076
  213MOL0     H28717   1.916   0.323   2.710  1.5263 -0.1115 -0.3065
  213MOL0     H28718   1.738   0.152   2.690  3.0126  0.3314  0.3444
  213MOL0     H28719   1.651  -0.029   2.545 -0.2836 -1.0573 -0.5644
  213MOL0     H28720   1.504   0.023   2.635  2.1773  0.1699  1.1921
  213MOL0     H28721   1.536  -0.105   2.356  0.8397 -0.5485  0.8399
  213MOL0     H28722   1.504  -0.192   2.492 -2.3409 -0.1258  0.4018
  213MOL0     H28723   1.276  -0.066   2.530 -0.1169  0.4998 -0.7628
  213MOL0     H28724   1.297   0.010   2.373  1.8438  0.2135 -0.6831
  213MOL0     H28725   1.235  -0.281   2.420 -3.1403  1.0014 -0.3332
  213MOL0     H28726   1.325  -0.229   2.275  0.2374 -0.5672  0.8252
  213MOL0     H28727   1.154  -0.051   2.237  1.5724  1.4862  1.9213
  213MOL0     H28728   1.060  -0.126   2.369  0.9332  1.6337 -0.0486
  213MOL0     H28729   1.152  -0.271   2.122 -0.8503  2.7432 -0.9309
  213MOL0     H28730   1.085  -0.362   2.267 -0.0813  0.7138  0.6866
  213MOL0     H28731   0.951  -0.121   2.126  0.3134 -0.1661 -1.0479
  213MOL0     H28732   0.878  -0.236   2.245  3.1171  0.7412  2.5960
  213MOL0     H28733   0.911  -0.407   2.075  2.2820  1.9392  3.9706
  213MOL0     H28734   0.784  -0.288   2.039  0.0486  3.0713  0.1270
  213MOL0     H28735   1.634   0.333   2.304 -0.3272  1.6504  0.5743
  213MOL0     H28736   1.820   0.471   2.322  3.0454  1.0997  0.8759
  213MOL0     H28737   2.062   0.724   2.547 -1.1484 -1.2902  0.5888
  213MOL0     H28738   2.208   0.924   2.654 -3.0036 -1.1307 -0.1468
  213MOL0     H28739   1.869   0.538   3.227  0.4229 -0.1152  0.3843
  213MOL0     H28740   1.865   0.286   3.258 -0.1240 -1.8627 -0.6211
  213MOL0     H28741   2.051  -0.118   3.083  0.9554 -1.4991 -1.4354
  213MOL0     H28742   2.009  -0.362   3.149 -2.6973  0.0754  2.1402
  213MOL0     H28743   1.933  -0.515   2.852  0.6180 -1.7308 -1.5000
  213MOL0     H28744   1.772  -0.576   2.852 -0.2082 -0.3571  0.7366
  213MOL0     H28745   1.929  -0.745   2.817 -1.2215 -2.3125  0.4334
  213MOL0     H28746   1.815  -0.777   2.942  0.0879  0.6509  0.2063
  213MOL0     H28747   2.030  -0.757   3.112  1.9791 -0.4654  0.3354
  213MOL0     H28748   2.124  -0.700   2.983  0.8385 -0.6583 -0.2994
  213MOL0     H28749   1.998  -0.970   2.958 -0.4157 -0.7244 -3.2688
  213MOL0     H28750   2.088  -0.894   2.844 -2.4234  3.8318 -0.5858
  213MOL0     H28751   2.384  -0.994   3.155 -0.2760 -0.0020  1.7318
  213MOL0     H28752   1.641  -0.360   2.938 -0.7444  2.5559 -1.2072
  213MOL0     H28753   1.541  -0.175   2.888 -1.2790 -0.0425  1.8770
  213MOL0     H28754   1.583  -0.010   2.946  2.2269  1.7228 -0.7396
  213MOL0     H28755   1.672  -0.072   2.809  1.2178  1.5296  1.1368
  214MOL0     O28756  10.753   0.392   8.160 -0.0587 -0.7423  0.1021
  214MOL0     C28757  10.817   0.496   8.192  0.3715  0.6531  0.0362
  214MOL0     O28758  10.812   0.558   8.310  0.3548  0.1836 -0.6873
  214MOL0     C28759  10.784   0.483   8.421 -0.4189 -0.8268 -0.4743
  214MOL0     C28760  10.727   0.552   8.535  0.8029  0.8824  0.9078
  214MOL0     C28761  10.671   0.493   8.643  0.3986 -0.3095  0.4308
  214MOL0     C28762  10.675   0.356   8.656 -0.3115  0.0936 -0.4111
  214MOL0     O28763  10.610   0.302   8.762 -0.5503 -0.3612 -0.4261
  214MOL0     C28764  10.635   0.168   8.796 -0.4664  1.5409 -0.4980
  214MOL0     C28765  10.614   0.162   8.949  0.0712 -0.6883  0.6134
  214MOL0     C28766  10.597   0.026   9.018 -0.1542 -0.2644  0.1725
  214MOL0     C28767  10.724  -0.045   9.079  0.1748  0.2673 -0.7767
  214MOL0     C28768  10.679  -0.183   9.130  0.1258  0.4282  0.1170
  214MOL0     C28769  10.606  -0.166   9.265  0.4901  0.0844  0.3367
  214MOL0     C28770  10.564  -0.302   9.327  0.3622 -0.3320 -0.1531
  214MOL0     C28771  10.413  -0.320   9.356  0.6400  0.6735  0.5455
  214MOL0     N28772  10.349  -0.237   9.460 -0.2226 -0.1416 -0.5608
  214MOL0     C28773  10.379  -0.100   9.493 -0.2345 -0.1933 -0.1619
  214MOL0     C28774  10.298  -0.083   9.606 -0.2124  0.0567 -0.0425
  214MOL0     C28775  10.297   0.055   9.678 -0.2605 -0.7823 -0.0613
  214MOL0     C28776  10.296   0.044   9.833  0.4549 -0.0934  0.6979
  214MOL0     C28777  10.286   0.189   9.886  0.3727 -0.4714  0.1870
  214MOL0     C28778  10.244   0.187  10.031  0.5456  0.2558  0.7298
  214MOL0     O28779  10.111   0.129  10.049  0.0424  0.1590 -0.3999
  214MOL0     C28780  10.096   0.035  10.147 -0.0936 -0.3571 -0.4395
  214MOL0     C28781  10.172  -0.080  10.150 -0.4269  0.5772 -1.1265
  214MOL0     C28782  10.175  -0.161  10.269  0.3674  0.5784  0.5158
  214MOL0     C28783  10.107  -0.114  10.382 -0.6377  0.6817  0.9161
  214MOL0     C28784  10.113  -0.183  10.514  0.9831 -0.0140 -0.8194
  214MOL0     O28785  10.053  -0.118  10.625  1.0284  0.1756  0.2512
  214MOL0     C28786  10.050  -0.174  10.748  0.1784 -0.8220 -0.4857
  214MOL0     C28787  10.026  -0.304  10.783 -0.0081  0.1526 -0.1948
  214MOL0     C28788  10.031  -0.340  10.919  1.0273  0.0103 -0.5556
  214MOL0     C28789  10.053  -0.244  11.018 -0.0009 -0.4140 -0.3575
  214MOL0     O28790  10.027  -0.278  11.147 -0.1510  1.0388  0.2971
  214MOL0     C28791  10.086  -0.388  11.224  0.5914 -0.7343 -0.1423
  214MOL0     C28792  10.201  -0.329  11.320  0.7691 -0.2091 -0.2377
  214MOL0     C28793  10.137  -0.204  11.398  0.0461  0.8550  0.4166
  214MOL0     C28794  10.180  -0.196  11.542 -0.9159  0.3767 -0.6089
  214MOL0     C28795  10.328  -0.183  11.548  0.0531  0.3402 -0.9713
  214MOL0     C28796  10.380  -0.141  11.692  0.5148 -0.4715  0.4169
  214MOL0     C28797  10.359   0.010  11.718  0.9236 -0.1964 -0.2316
  214MOL0     C28798  10.390   0.061  11.859  0.7471  0.0411  0.1129
  214MOL0    Cl28799  10.561   0.020  11.922  0.5709  0.4457  0.3707
  214MOL0     C28800  10.072  -0.114  10.982 -0.3340 -0.4128 -0.1287
  214MOL0     C28801  10.066  -0.077  10.843 -0.1254 -1.1612 -0.2778
  214MOL0     O28802  10.179  -0.286  10.520  0.2277  0.3879  0.1500
  214MOL0     C28803  10.018  -0.006  10.367  0.0964  0.0266 -0.6739
  214MOL0     C28804  10.015   0.068  10.256 -0.1724 -0.0162  0.6317
  214MOL0     N28805  10.225  -0.197   9.633 -0.1423 -1.1557  0.0823
  214MOL0     N28806  10.267  -0.290   9.554  0.4523  0.1125 -0.0121
  214MOL0     C28807  10.761   0.284   8.567 -1.0721  0.4623  0.9815
  214MOL0     C28808  10.805   0.349   8.448  0.0086 -0.5386  0.2894
  214MOL0     C28809  10.886   0.570   8.077  0.5211 -0.0901 -1.1829
  214MOL0     C28810  10.943   0.692   8.115 -0.1303  1.2983 -0.2832
  214MOL0     C28811  10.988   0.781   8.021 -0.1367 -0.2350 -0.3591
  214MOL0     C28812  10.979   0.752   7.887  0.5925 -0.6262 -0.0955
  214MOL0     O28813  11.041   0.838   7.792 -0.3603 -0.5140  0.2084
  214MOL0     C28814  11.063   0.977   7.816  0.2514 -0.1772 -0.1248
  214MOL0     C28815  11.115   1.044   7.688  1.0170 -0.0450  0.2375
  214MOL0     C28816  11.265   1.013   7.648  0.9361 -0.0376  0.2520
  214MOL0     C28817  11.363   1.023   7.770  0.3904  0.2762 -0.5453
  214MOL0     C28818  11.403   0.894   7.822 -0.0168  0.7299  0.0387
  214MOL0     C28819  11.424   0.791   7.874 -0.0845 -0.8278  0.1391
  214MOL0     C28820  10.926   0.638   7.850  0.2685  0.3753 -0.3637
  214MOL0     C28821  10.872   0.547   7.937  0.7198  0.6443 -0.2451
  214MOL0     C28822  10.805   0.423   7.872 -1.1141  0.0784 -0.2393
  214MOL0     H28823  10.726   0.661   8.534  2.6202  0.9515 -1.1190
  214MOL0     H28824  10.612   0.545   8.718  0.7798 -2.6251  2.4765
  214MOL0     H28825  10.569   0.093   8.752  0.3261  0.3712  0.2477
  214MOL0     H28826  10.736   0.132   8.774 -0.7152 -1.5153  2.5534
  214MOL0     H28827  10.522   0.220   8.962  0.0226 -0.1395 -1.8328
  214MOL0     H28828  10.702   0.215   8.989  1.0764 -0.6865 -1.4856
  214MOL0     H28829  10.551  -0.039   8.943 -0.2219  1.1812 -1.1075
  214MOL0     H28830  10.516   0.042   9.091  0.3219 -2.4052  1.2319
  214MOL0     H28831  10.793  -0.061   8.996  0.2339 -1.8601 -0.3643
  214MOL0     H28832  10.773   0.014   9.156  1.6789 -2.6048  0.6140
  214MOL0     H28833  10.600  -0.215   9.061  2.1474 -2.1519 -1.2068
  214MOL0     H28834  10.757  -0.259   9.119 -1.1322 -1.0596  1.0147
  214MOL0     H28835  10.666  -0.113   9.339 -0.3440  0.6530  0.6226
  214MOL0     H28836  10.514  -0.110   9.244  0.3968 -0.1778  0.0458
  214MOL0     H28837  10.617  -0.315   9.422  0.7414  1.2272 -0.1299
  214MOL0     H28838  10.597  -0.385   9.263  1.3694 -0.3726  0.4034
  214MOL0     H28839  10.362  -0.307   9.260 -0.3890 -1.3710  0.7470
  214MOL0     H28840  10.395  -0.426   9.380  0.8786  0.2340 -1.0557
  214MOL0     H28841  10.448  -0.038   9.436 -2.4315 -0.5834 -3.5092
  214MOL0     H28842  10.379   0.121   9.647  1.0405 -0.9733  2.6539
  214MOL0     H28843  10.199   0.100   9.664 -0.4905 -1.2281  0.0933
  214MOL0     H28844  10.217  -0.030   9.850  2.5739 -2.5141  0.5885
  214MOL0     H28845  10.385  -0.007   9.871  1.5784 -2.0264 -3.8149
  214MOL0     H28846  10.220   0.254   9.828  2.1356 -0.3332 -1.7704
  214MOL0     H28847  10.388   0.224   9.871 -0.1776  0.6050 -1.2888
  214MOL0     H28848  10.238   0.286  10.076 -0.4167  0.4993  0.0951
  214MOL0     H28849  10.325   0.141  10.089  0.7649  0.2299  0.4052
  214MOL0     H28850  10.234  -0.111  10.066 -1.2171  0.5207 -1.6935
  214MOL0     H28851  10.227  -0.256  10.264 -0.7417 -0.1245  1.8158
  214MOL0     H28852   9.999  -0.380  10.710 -1.8866 -0.5771  1.1537
  214MOL0     H28853  10.011  -0.439  10.958 -2.8641  0.6505 -0.5356
  214MOL0     H28854  10.015  -0.432  11.294  3.7786 -1.2510  3.0357
  214MOL0     H28855  10.134  -0.468  11.166  2.6620 -0.1789  0.7193
  214MOL0     H28856  10.231  -0.415  11.382  0.9580 -0.7122 -1.0080
  214MOL0     H28857  10.277  -0.295  11.248 -2.0441  1.6200 -2.5564
  214MOL0     H28858  10.167  -0.114  11.343 -0.5020  0.6129 -0.2962
  214MOL0     H28859  10.028  -0.216  11.392  0.2436 -0.6593 -1.0019
  214MOL0     H28860  10.159  -0.289  11.595  4.0683 -0.5016  0.3030
  214MOL0     H28861  10.124  -0.116  11.592 -0.4007  0.3009  0.0951
  214MOL0     H28862  10.363  -0.107  11.477 -1.3469  1.8085 -0.1366
  214MOL0     H28863  10.379  -0.272  11.509  0.8713  0.0881  0.5743
  214MOL0     H28864  10.331  -0.195  11.773  0.5932  0.2976  0.9872
  214MOL0     H28865  10.486  -0.158  11.714  0.3434 -1.5035  0.4900
  214MOL0     H28866  10.258   0.048  11.701  1.3745  1.5011  0.6176
  214MOL0     H28867  10.419   0.062  11.642 -1.0733  2.6406 -0.0390
  214MOL0     H28868  10.367   0.167  11.857 -2.7431 -0.4914  2.8203
  214MOL0     H28869  10.318   0.018  11.929  0.5962  0.6700  0.3482
  214MOL0     H28870  10.087  -0.044  11.063 -0.7581 -2.1593  1.5196
  214MOL0     H28871  10.067   0.032  10.837 -1.7934 -1.0407  0.7268
  214MOL0     H28872   9.960   0.024  10.454  2.6377 -0.4156  1.2747
  214MOL0     H28873   9.949   0.153  10.244  2.1397  1.8542  0.5357
  214MOL0     H28874  10.788   0.178   8.570 -4.4706 -0.6231 -1.3101
  214MOL0     H28875  10.870   0.297   8.379  2.3055  2.7171 -0.2427
  214MOL0     H28876  10.959   0.716   8.220 -2.7068  0.4639  0.3864
  214MOL0     H28877  11.036   0.866   8.068 -2.9379  0.6133  1.2371
  214MOL0     H28878  11.139   0.999   7.892 -0.6374  1.5148  0.3130
  214MOL0     H28879  10.964   1.022   7.831  0.4174  0.3445 -0.5789
  214MOL0     H28880  11.119   1.153   7.701  0.0374 -0.2495  3.0330
  214MOL0     H28881  11.051   1.019   7.603  3.9466  0.0358 -2.1464
  214MOL0     H28882  11.288   1.083   7.567 -2.2168  0.8059 -0.0618
  214MOL0     H28883  11.264   0.908   7.618  1.0594 -0.0793  0.3916
  214MOL0     H28884  11.459   1.059   7.731  1.3462 -0.5339  0.9733
  214MOL0     H28885  11.328   1.085   7.853 -0.1972 -2.9331  1.7944
  214MOL0     H28886  11.449   0.696   7.917  0.0917 -0.7315  0.2485
  214MOL0     H28887  10.923   0.622   7.743 -1.6535 -0.5150 -0.2276
  214MOL0     H28888  10.840   0.422   7.768  0.4746  1.8672  0.2165
  214MOL0     H28889  10.821   0.325   7.918 -2.6528 -0.3165 -0.4634
  214MOL0     H28890  10.697   0.440   7.862 -0.8613  0.3295 -3.7762
  215MOL0     O28891   5.187   3.646  11.016  0.2631  0.2339  0.0367
  215MOL0     C28892   5.151   3.532  11.048 -0.6686  1.1182  0.0822
  215MOL0     O28893   5.220   3.418  11.050 -0.4191 -0.3332  0.7273
  215MOL0     C28894   5.350   3.420  11.008  0.3663  0.4508  1.4376
  215MOL0     C28895   5.460   3.443  11.096 -0.1345 -0.2036 -0.5193
  215MOL0     C28896   5.599   3.445  11.059 -0.2995 -0.7401 -0.0338
  215MOL0     C28897   5.630   3.423  10.922  0.5802  0.1958 -0.8868
  215MOL0     O28898   5.764   3.420  10.885 -0.0884 -0.3584  1.0391
  215MOL0     C28899   5.814   3.543  10.814 -0.6072  0.6017 -0.2710
  215MOL0     C28900   5.831   3.505  10.674  0.2681 -0.3932  0.8403
  215MOL0     C28901   5.789   3.630  10.590  0.0440 -0.2000 -0.0985
  215MOL0     C28902   5.797   3.587  10.440 -0.0100 -1.2023  0.1866
  215MOL0     C28903   5.692   3.667  10.362  0.4018  0.2835 -0.0577
  215MOL0     C28904   5.570   3.575  10.339  0.2969 -0.0598 -0.4665
  215MOL0     C28905   5.485   3.553  10.471 -0.9379 -0.7165 -0.2020
  215MOL0     C28906   5.357   3.473  10.451 -0.1417 -0.0279  0.0556
  215MOL0     N28907   5.389   3.338  10.407  0.2724  0.5890  0.2125
  215MOL0     C28908   5.508   3.266  10.430 -0.7355  0.2488 -0.3122
  215MOL0     C28909   5.497   3.145  10.376 -0.1806  0.2594 -0.2789
  215MOL0     C28910   5.601   3.042  10.382 -0.4733  0.0173  0.8049
  215MOL0     C28911   5.593   2.946  10.498  0.6046  0.1271  0.4373
  215MOL0     C28912   5.723   2.891  10.556  0.1478  0.2639 -0.8286
  215MOL0     C28913   5.814   2.816  10.472 -0.2445 -0.1373  1.2883
  215MOL0     O28914   5.941   2.802  10.538  0.6728 -0.7551  0.2388
  215MOL0     C28915   6.017   2.714  10.481 -0.3986  0.4444 -0.7149
  215MOL0     C28916   5.985   2.576  10.470  0.0818 -0.3819  0.7742
  215MOL0     C28917   6.064   2.478  10.425  0.9340  0.2327 -0.1049
  215MOL0     C28918   6.189   2.518  10.386 -0.1981 -0.3043  0.0417
  215MOL0     C28919   6.283   2.434  10.310 -0.2248  0.7202 -0.6240
  215MOL0     O28920   6.412   2.472  10.302  0.2566 -0.1743  0.1754
  215MOL0     C28921   6.504   2.401  10.223  0.2455  0.4802 -0.8222
  215MOL0     C28922   6.474   2.344  10.093  0.5009 -0.3186 -0.7363
  215MOL0     C28923   6.580   2.293  10.017 -0.4784  0.2223 -0.8049
  215MOL0     C28924   6.706   2.275  10.067  0.8542  0.5534  0.2087
  215MOL0     O28925   6.814   2.215  10.008 -0.7271  0.7902  0.0732
  215MOL0     C28926   6.787   2.125   9.895 -0.1592 -0.5609 -0.2068
  215MOL0     C28927   6.919   2.051   9.858 -0.6858  1.2929  0.1194
  215MOL0     C28928   6.959   1.941   9.962  0.2633 -0.3075  0.4993
  215MOL0     C28929   7.101   1.889   9.941  0.4870  0.3683  0.0284
  215MOL0     C28930   7.150   1.797  10.061 -0.1175  0.9013 -0.1292
  215MOL0     C28931   7.291   1.747  10.065 -1.0342 -0.5444  0.4489
  215MOL0     C28932   7.332   1.669  10.190  0.4559  1.1308  1.1974
  215MOL0     C28933   7.327   1.735  10.325 -0.3436  0.8121  0.3221
  215MOL0    Cl28934   7.455   1.864  10.334 -0.4638  0.1612 -0.2902
  215MOL0     C28935   6.737   2.330  10.191 -1.0308 -0.1309  0.0155
  215MOL0     C28936   6.639   2.393  10.268  0.0738 -1.2767  0.5359
  215MOL0     O28937   6.247   2.326  10.266 -0.4059  0.6419 -0.4638
  215MOL0     C28938   6.234   2.656  10.406  0.9895  0.3530  0.8557
  215MOL0     C28939   6.146   2.756  10.459 -0.2176 -0.1467 -0.8977
  215MOL0     N28940   5.379   3.142  10.304  0.1282 -0.8950 -0.2384
  215MOL0     N28941   5.308   3.253  10.334 -0.8345  0.6198  0.2913
  215MOL0     C28942   5.522   3.396  10.828 -0.4209  0.0104 -0.5466
  215MOL0     C28943   5.389   3.398  10.876  0.8550  0.0948 -0.5405
  215MOL0     C28944   5.009   3.521  11.075  0.1659  0.8016  0.2949
  215MOL0     C28945   4.923   3.569  10.981  0.1600  0.8094 -0.1937
  215MOL0     C28946   4.787   3.559  11.007  0.7032  0.0199  0.1200
  215MOL0     C28947   4.732   3.511  11.130 -0.3227  0.8148 -0.8117
  215MOL0     O28948   4.599   3.499  11.155 -1.1141  0.4008  0.2384
  215MOL0     C28949   4.523   3.410  11.076 -0.6923  0.6736  0.9699
  215MOL0     C28950   4.389   3.481  11.043 -0.8257  0.3529  0.9686
  215MOL0     C28951   4.400   3.596  10.939  0.5349 -0.1394 -0.6816
  215MOL0     C28952   4.256   3.650  10.903 -0.2785  0.2446 -0.2464
  215MOL0     C28953   4.171   3.558  10.816  0.3032 -0.1594  0.9084
  215MOL0     C28954   4.093   3.481  10.749 -0.0323 -0.2362 -0.2700
  215MOL0     C28955   4.823   3.469  11.226  0.1319 -0.1179 -0.4703
  215MOL0     C28956   4.962   3.475  11.197  0.4776  0.7051  0.1277
  215MOL0     C28957   5.060   3.439  11.310 -0.8812  0.9362  0.3914
  215MOL0     H28958   5.437   3.460  11.200 -1.2999  0.8373 -0.9288
  215MOL0     H28959   5.675   3.463  11.135  0.2291  2.9801 -1.2391
  215MOL0     H28960   5.748   3.629  10.832 -0.6422  0.9468 -1.9181
  215MOL0     H28961   5.910   3.572  10.858 -1.4243 -1.2206  3.0434
  215MOL0     H28962   5.769   3.416  10.660  1.8133 -1.1747 -1.6037
  215MOL0     H28963   5.933   3.473  10.651  1.3146  2.9914  0.1507
  215MOL0     H28964   5.852   3.718  10.603 -2.3439  2.2044 -3.3048
  215MOL0     H28965   5.687   3.662  10.615 -0.3424  0.3070 -2.1525
  215MOL0     H28966   5.896   3.606  10.397 -0.2147 -1.5476 -0.4656
  215MOL0     H28967   5.790   3.481  10.412 -2.3993  0.0554 -5.3934
  215MOL0     H28968   5.658   3.761  10.406  0.3106  1.6766 -2.8377
  215MOL0     H28969   5.739   3.674  10.263  0.4503 -1.7655 -0.2117
  215MOL0     H28970   5.500   3.635  10.279 -0.6208 -0.8371 -0.1940
  215MOL0     H28971   5.588   3.484  10.282 -0.6310 -1.8946  2.0154
  215MOL0     H28972   5.458   3.648  10.517  1.9051 -0.4217  1.0496
  215MOL0     H28973   5.554   3.508  10.543  2.4191  3.2705 -0.5112
  215MOL0     H28974   5.308   3.471  10.548 -2.1293  1.0171 -0.8566
  215MOL0     H28975   5.284   3.507  10.376  0.9097 -0.9738 -1.4745
  215MOL0     H28976   5.595   3.302  10.482  0.8090 -2.8350 -0.5240
  215MOL0     H28977   5.588   2.984  10.290  0.7137 -2.4534  2.1260
  215MOL0     H28978   5.697   3.094  10.380  0.5542 -1.8377  0.2655
  215MOL0     H28979   5.550   2.996  10.585  0.6738 -0.3061  0.7180
  215MOL0     H28980   5.527   2.863  10.471 -1.9984  2.8656 -2.5394
  215MOL0     H28981   5.708   2.829  10.645  1.5967  0.1765 -0.6338
  215MOL0     H28982   5.783   2.975  10.593 -0.3967  0.1273  0.4305
  215MOL0     H28983   5.830   2.866  10.376  1.3953  0.0914  1.6577
  215MOL0     H28984   5.769   2.718  10.451  2.1983 -0.7030 -2.0064
  215MOL0     H28985   5.887   2.545  10.503 -0.7932  1.4805  0.0788
  215MOL0     H28986   6.037   2.374  10.416  0.7515  0.3743 -1.2878
  215MOL0     H28987   6.376   2.355  10.048 -1.1152  0.5113  2.6033
  215MOL0     H28988   6.561   2.283   9.911  0.5907 -0.1731 -0.9669
  215MOL0     H28989   6.701   2.060   9.917 -3.3376  3.5034  0.7457
  215MOL0     H28990   6.755   2.181   9.806 -0.8261 -0.3955  0.1244
  215MOL0     H28991   6.906   1.988   9.769 -1.6387 -1.7691  2.2553
  215MOL0     H28992   7.001   2.121   9.845 -0.5398  0.8837 -1.3662
  215MOL0     H28993   6.958   1.985  10.062 -6.2551  3.4902 -0.6265
  215MOL0     H28994   6.893   1.853   9.965 -0.8878  0.5546  2.4239
  215MOL0     H28995   7.161   1.980   9.930  1.2313 -0.1947 -0.6204
  215MOL0     H28996   7.102   1.825   9.853  2.5301 -0.1302  0.3653
  215MOL0     H28997   7.091   1.704  10.062  0.1085  0.6797  3.0676
  215MOL0     H28998   7.126   1.847  10.155 -2.3190  0.5809 -0.4608
  215MOL0     H28999   7.307   1.684   9.977  2.1586  1.8302 -0.8415
  215MOL0     H29000   7.357   1.833  10.054  0.1360 -1.6373 -1.8191
  215MOL0     H29001   7.435   1.635  10.177 -0.3325 -0.4730 -1.9063
  215MOL0     H29002   7.273   1.578  10.199  0.4930  0.8891 -0.7076
  215MOL0     H29003   7.220   1.754  10.337 -0.5294 -0.3047  0.5308
  215MOL0     H29004   7.357   1.657  10.395  0.7299 -0.1127 -1.1222
  215MOL0     H29005   6.837   2.313  10.230 -0.8843  0.9695  0.1538
  215MOL0     H29006   6.672   2.427  10.365 -0.0871 -1.6925  0.7367
  215MOL0     H29007   6.336   2.685  10.381  1.2897 -0.9460  0.5013
  215MOL0     H29008   6.169   2.860  10.480  2.1727 -1.2738  2.9990
  215MOL0     H29009   5.538   3.368  10.724  0.8678 -0.9348 -0.1259
  215MOL0     H29010   5.303   3.375  10.813 -2.9576  2.3963  3.2626
  215MOL0     H29011   4.958   3.615  10.890 -1.0942  3.3288  0.4817
  215MOL0     H29012   4.714   3.598  10.936  0.2411 -1.8835 -0.5287
  215MOL0     H29013   4.502   3.322  11.137  0.0000 -0.3865 -0.2576
  215MOL0     H29014   4.579   3.373  10.989  0.4116 -2.1002  2.7183
  215MOL0     H29015   4.347   3.519  11.137 -1.8707  1.0234  0.2554
  215MOL0     H29016   4.332   3.398  11.000 -0.7024  0.3791  0.7502
  215MOL0     H29017   4.446   3.563  10.845 -2.0452  1.9484 -2.8430
  215MOL0     H29018   4.460   3.680  10.974 -0.4176  0.4192 -0.3681
  215MOL0     H29019   4.196   3.672  10.991 -0.3511  1.5122 -0.5981
  215MOL0     H29020   4.263   3.749  10.857 -0.7757  0.9289  1.0948
  215MOL0     H29021   4.035   3.415  10.687 -0.2971  0.4076 -0.7234
  215MOL0     H29022   4.789   3.425  11.320  0.1605  4.0524  1.7681
  215MOL0     H29023   5.017   3.450  11.410  1.9102 -0.2279  1.8329
  215MOL0     H29024   5.106   3.341  11.293  1.4090  1.9301  0.5034
  215MOL0     H29025   5.137   3.517  11.309  0.1095 -0.0017  0.8137
  216MOL0     O29026   1.135   3.289   8.936 -0.2936 -0.4689  0.0364
  216MOL0     C29027   1.071   3.312   9.039 -0.5356  0.4750  0.6540
  216MOL0     O29028   1.023   3.439   9.070 -1.0337  0.2575  0.0149
  216MOL0     C29029   1.039   3.533   8.969 -0.1046 -0.2824 -0.1813
  216MOL0     C29030   0.915   3.579   8.917 -0.2454  0.8252  0.3400
  216MOL0     C29031   0.922   3.681   8.825  1.2711 -0.1496 -0.1674
  216MOL0     C29032   1.038   3.741   8.776  0.2581  0.2604 -0.1489
  216MOL0     O29033   1.031   3.846   8.689  0.0810 -0.8208  0.1054
  216MOL0     C29034   0.968   3.821   8.563  0.2106  0.2388 -0.2413
  216MOL0     C29035   0.981   3.949   8.483 -0.6263  0.1198 -0.2420
  216MOL0     C29036   0.853   3.977   8.393 -0.5659 -0.3458  0.1299
  216MOL0     C29037   0.824   3.866   8.305 -0.2584  0.1585  0.1128
  216MOL0     C29038   0.931   3.846   8.201  0.7558  0.8530  0.1613
  216MOL0     C29039   0.893   3.761   8.069  0.4768 -0.3379 -0.8442
  216MOL0     C29040   0.807   3.631   8.104  0.8755  0.2868 -0.4955
  216MOL0     C29041   0.801   3.536   7.991  0.2894 -0.7178 -0.2186
  216MOL0     N29042   0.727   3.587   7.878  0.0894  0.5833  0.2476
  216MOL0     C29043   0.589   3.582   7.860  0.0253 -0.0731  0.5813
  216MOL0     C29044   0.579   3.623   7.732  0.0048  1.1046  0.4509
  216MOL0     C29045   0.440   3.641   7.661 -0.3413  0.0433  0.5506
  216MOL0     C29046   0.367   3.784   7.669  0.2434  0.5599  0.0047
  216MOL0     C29047   0.214   3.798   7.624  0.1101  0.5423 -0.0353
  216MOL0     C29048   0.171   3.710   7.508 -0.2333 -0.4179 -1.0735
  216MOL0     O29049   0.055   3.774   7.449  0.6979 -0.2329 -0.4800
  216MOL0     C29050  -0.007   3.718   7.343 -1.4529 -0.9864  1.2215
  216MOL0     C29051  -0.147   3.714   7.352  0.3047 -0.2287 -0.1715
  216MOL0     C29052  -0.219   3.667   7.252  0.5987 -0.2156  0.2530
  216MOL0     C29053  -0.147   3.607   7.137  0.0270 -0.1957 -0.3862
  216MOL0     C29054  -0.225   3.529   7.030  0.2766 -0.1298  0.6248
  216MOL0     O29055  -0.169   3.526   6.898 -0.1840  0.0072 -0.1640
  216MOL0     C29056  -0.231   3.441   6.811 -1.1517  0.2225  0.3170
  216MOL0     C29057  -0.361   3.465   6.762  0.4206 -0.0832  0.6702
  216MOL0     C29058  -0.413   3.380   6.669  0.1372  0.7766  0.1135
  216MOL0     C29059  -0.349   3.266   6.621 -0.1251  0.4312 -0.7797
  216MOL0     O29060  -0.419   3.173   6.546  0.4189 -0.0289  0.2863
  216MOL0     C29061  -0.338   3.073   6.478  0.8538 -0.0495  0.6094
  216MOL0     C29062  -0.423   2.969   6.399 -0.2513  0.0567  0.0158
  216MOL0     C29063  -0.534   2.912   6.488 -1.0632 -0.4386  0.3426
  216MOL0     C29064  -0.652   2.847   6.413  0.4600  0.3739  0.3511
  216MOL0     C29065  -0.588   2.737   6.323 -0.2457 -0.4253  0.4773
  216MOL0     C29066  -0.699   2.641   6.278 -0.3874  0.1337 -0.6086
  216MOL0     C29067  -0.637   2.529   6.189  0.2199 -0.3472 -0.1425
  216MOL0     C29068  -0.732   2.455   6.105  0.8190  0.4673  0.4548
  216MOL0    Cl29069  -0.842   2.553   6.007 -0.3596  0.2155  0.0199
  216MOL0     C29070  -0.217   3.239   6.677 -0.3173 -0.7180 -0.1079
  216MOL0     C29071  -0.160   3.326   6.771  0.8084  0.4630  0.2642
  216MOL0     O29072  -0.325   3.471   7.061 -0.2073  0.3347  0.7491
  216MOL0     C29073  -0.010   3.602   7.125 -0.3008  0.6517 -1.2424
  216MOL0     C29074   0.061   3.661   7.231 -0.2669 -0.0513  0.0407
  216MOL0     N29075   0.696   3.640   7.662  0.4985 -0.2721 -0.1603
  216MOL0     N29076   0.786   3.627   7.754  0.4360 -0.0043 -1.5643
  216MOL0     C29077   1.161   3.699   8.833  0.2965 -0.3443  0.5188
  216MOL0     C29078   1.156   3.594   8.933  0.2806 -0.8187  0.0099
  216MOL0     C29079   1.050   3.208   9.145 -0.4767 -0.1927 -0.7427
  216MOL0     C29080   1.017   3.252   9.270  1.0893  0.3051 -1.1023
  216MOL0     C29081   0.996   3.171   9.382  0.5177  1.1013 -0.6775
  216MOL0     C29082   0.984   3.033   9.368 -0.7765 -0.0614  0.3547
  216MOL0     O29083   0.959   2.943   9.468 -0.0235  0.3838  0.5700
  216MOL0     C29084   0.837   2.975   9.543  0.1242  0.6188  0.7213
  216MOL0     C29085   0.754   2.859   9.567  0.1238 -0.1921  0.5260
  216MOL0     C29086   0.673   2.813   9.439  0.3090 -0.0481 -0.3750
  216MOL0     C29087   0.617   2.672   9.474 -0.0420  0.5366 -0.1633
  216MOL0     C29088   0.720   2.578   9.489  0.4373  0.3516 -0.1153
  216MOL0     C29089   0.795   2.485   9.477 -0.8983 -0.2946  1.3850
  216MOL0     C29090   1.013   2.983   9.242 -0.8660  0.3343  0.5544
  216MOL0     C29091   1.058   3.069   9.130 -0.4697  0.7616  0.1547
  216MOL0     C29092   1.103   3.001   9.003  0.3510 -0.6078 -0.0824
  216MOL0     H29093   0.819   3.544   8.953  0.0002  0.8912  1.0937
  216MOL0     H29094   0.829   3.715   8.781  1.1323 -0.1091  0.1613
  216MOL0     H29095   1.014   3.735   8.512 -0.8562 -1.3365  1.3347
  216MOL0     H29096   0.861   3.802   8.571  0.3315  0.1247  1.4431
  216MOL0     H29097   1.064   3.948   8.411 -0.5115 -0.7731 -0.1138
  216MOL0     H29098   0.983   4.032   8.553 -4.4551  0.4294 -0.2892
  216MOL0     H29099   0.881   4.074   8.353  2.9431 -1.4525 -0.4141
  216MOL0     H29100   0.768   4.002   8.458 -0.0210  1.9531  0.0291
  216MOL0     H29101   0.795   3.773   8.354 -1.0747 -1.7730 -3.6778
  216MOL0     H29102   0.732   3.901   8.258 -0.5567 -0.8350 -0.0713
  216MOL0     H29103   0.967   3.943   8.168  3.7828  0.3069  1.5693
  216MOL0     H29104   1.018   3.800   8.248  3.1393  2.3145 -2.5468
  216MOL0     H29105   0.839   3.832   8.005  0.6639  3.1683  2.5297
  216MOL0     H29106   0.982   3.729   8.014  2.0537 -2.2111  2.5149
  216MOL0     H29107   0.704   3.655   8.128 -0.2803 -2.4089 -2.2695
  216MOL0     H29108   0.858   3.587   8.190 -1.1863  0.5129  0.9022
  216MOL0     H29109   0.899   3.514   7.947  1.3570  0.7098  1.3196
  216MOL0     H29110   0.744   3.450   8.028 -1.3607  0.5780  0.3071
  216MOL0     H29111   0.505   3.570   7.928 -0.7971  1.4168 -0.1387
  216MOL0     H29112   0.449   3.617   7.555  0.9472  0.3857  0.5641
  216MOL0     H29113   0.377   3.564   7.708  0.4805 -0.1522  1.3705
  216MOL0     H29114   0.365   3.803   7.777 -0.4807 -1.8529  0.4618
  216MOL0     H29115   0.432   3.858   7.621  2.5680  0.4975  2.7803
  216MOL0     H29116   0.191   3.904   7.605 -1.8421 -0.0655 -1.2798
  216MOL0     H29117   0.155   3.756   7.706 -0.1003  1.2506  0.1851
  216MOL0     H29118   0.154   3.612   7.553  1.9609  0.0491  0.9575
  216MOL0     H29119   0.247   3.716   7.429 -0.5737  2.7449 -1.2679
  216MOL0     H29120  -0.190   3.754   7.443 -0.1895  1.5737 -1.1735
  216MOL0     H29121  -0.327   3.665   7.259  0.6149  0.9155  1.3915
  216MOL0     H29122  -0.424   3.549   6.792  0.5969  0.1901  0.2820
  216MOL0     H29123  -0.518   3.390   6.642  0.2761 -0.8053 -1.2394
  216MOL0     H29124  -0.263   3.114   6.409 -1.7577  1.3354 -1.5872
  216MOL0     H29125  -0.283   3.016   6.554  2.9403  0.3800 -0.4888
  216MOL0     H29126  -0.479   3.019   6.320  0.8452 -1.7662 -2.0176
  216MOL0     H29127  -0.344   2.902   6.362  2.2356  2.1827  1.0882
  216MOL0     H29128  -0.489   2.832   6.548  0.7729  0.2993  0.0309
  216MOL0     H29129  -0.566   2.992   6.556  2.0464  2.0879 -0.8805
  216MOL0     H29130  -0.707   2.925   6.360 -2.8391 -1.5208  0.6836
  216MOL0     H29131  -0.721   2.820   6.493  1.6124  3.2259  2.4442
  216MOL0     H29132  -0.506   2.685   6.373  1.9223 -0.6112 -2.9378
  216MOL0     H29133  -0.542   2.785   6.237 -0.9082  2.0925  1.4352
  216MOL0     H29134  -0.756   2.598   6.361 -1.8700  0.9558 -1.1534
  216MOL0     H29135  -0.774   2.690   6.215  0.1698  0.0561 -1.3498
  216MOL0     H29136  -0.584   2.460   6.256  2.5693  0.6283 -0.9058
  216MOL0     H29137  -0.561   2.572   6.123  1.4104 -0.2146  1.2543
  216MOL0     H29138  -0.686   2.373   6.049 -0.6340 -0.2347  0.2354
  216MOL0     H29139  -0.794   2.403   6.178 -0.4923  1.3595  0.0110
  216MOL0     H29140  -0.143   3.165   6.648  2.0358 -0.6603  4.8016
  216MOL0     H29141  -0.060   3.320   6.813 -0.3165  1.7611  3.4242
  216MOL0     H29142   0.047   3.562   7.042 -2.5656  0.3847 -2.7722
  216MOL0     H29143   0.168   3.666   7.218  0.3092  0.1562  3.7013
  216MOL0     H29144   1.258   3.746   8.815 -0.2646  1.6132  2.1116
  216MOL0     H29145   1.252   3.587   8.984  0.0061 -0.1832  0.6279
  216MOL0     H29146   0.995   3.355   9.294 -0.1005 -0.4625  1.3259
  216MOL0     H29147   0.975   3.219   9.477 -0.3204 -0.3959 -0.0624
  216MOL0     H29148   0.785   3.061   9.500 -0.1721  1.7310  3.1236
  216MOL0     H29149   0.857   3.018   9.642 -2.0192  1.2416  0.9397
  216MOL0     H29150   0.681   2.876   9.648  0.0264 -0.0144  0.4010
  216MOL0     H29151   0.822   2.780   9.599 -0.1412 -0.5724  0.1646
  216MOL0     H29152   0.736   2.799   9.351  3.1770 -2.3273  1.7980
  216MOL0     H29153   0.593   2.885   9.422  1.0161  1.7041  2.8056
  216MOL0     H29154   0.549   2.673   9.559 -0.7687 -0.6374 -0.7077
  216MOL0     H29155   0.544   2.628   9.405 -1.2004  3.0125 -0.6260
  216MOL0     H29156   0.863   2.404   9.461 -2.5134 -1.7365  1.4264
  216MOL0     H29157   1.022   2.876   9.229 -3.0919  0.2470 -0.7506
  216MOL0     H29158   1.213   3.004   8.998  0.4765 -0.7131  1.8534
  216MOL0     H29159   1.094   2.893   8.994  2.1793 -0.7757 -0.4689
  216MOL0     H29160   1.039   3.034   8.921  1.0223 -4.2252 -2.2855
  217MOL0     O29161   6.438   3.842   5.842 -0.5487 -0.4609 -0.6949
  217MOL0     C29162   6.441   3.804   5.958  0.5690 -0.5052 -0.8939
  217MOL0     O29163   6.556   3.795   6.034 -0.0742 -0.5511 -0.4441
  217MOL0     C29164   6.666   3.850   5.987 -0.3381  0.6779 -0.9743
  217MOL0     C29165   6.713   3.807   5.865 -0.3754  0.6339 -0.8217
  217MOL0     C29166   6.842   3.833   5.814 -0.0625 -0.3738  0.0133
  217MOL0     C29167   6.930   3.901   5.899  0.8603 -0.3428 -0.0010
  217MOL0     O29168   7.052   3.934   5.851 -0.3630  0.8563  0.2608
  217MOL0     C29169   7.163   3.984   5.936 -0.4218  1.8419 -0.8155
  217MOL0     C29170   7.293   3.968   5.849 -0.7801 -0.1138 -0.0656
  217MOL0     C29171   7.320   3.809   5.816 -0.0086 -0.1844  0.5854
  217MOL0     C29172   7.470   3.766   5.818 -0.7208 -0.0244  0.7261
  217MOL0     C29173   7.542   3.841   5.706 -0.7360  0.5246 -0.2768
  217MOL0     C29174   7.694   3.813   5.698  0.8079  0.4630  1.5232
  217MOL0     C29175   7.770   3.896   5.809 -0.8361  0.2173  0.0483
  217MOL0     C29176   7.921   3.889   5.779 -0.2825 -0.1874 -0.9500
  217MOL0     N29177   8.003   3.980   5.851  0.0381  0.9432  0.4528
  217MOL0     C29178   8.116   4.030   5.793  0.5720  0.1352 -0.5850
  217MOL0     C29179   8.147   4.144   5.870  0.2666  0.1073 -0.1978
  217MOL0     C29180   8.264   4.240   5.846  0.4552  0.9236  0.4434
  217MOL0     C29181   8.385   4.169   5.898  0.0253 -0.5689 -0.1898
  217MOL0     C29182   8.504   4.251   5.853  0.4547  0.0186 -0.4154
  217MOL0     C29183   8.623   4.221   5.940 -0.2845 -0.1210  0.1048
  217MOL0     O29184   8.612   4.266   6.075  0.2125 -0.1425 -0.6480
  217MOL0     C29185   8.713   4.236   6.159 -0.6785 -0.9246 -0.7867
  217MOL0     C29186   8.774   4.337   6.241 -0.1862  0.3611 -1.1955
  217MOL0     C29187   8.883   4.317   6.322  0.8562  0.3697  1.2174
  217MOL0     C29188   8.939   4.190   6.321 -0.9730  0.2389 -0.5895
  217MOL0     C29189   9.073   4.160   6.378  0.1960 -0.2404 -0.6720
  217MOL0     O29190   9.109   4.247   6.469  0.0278  0.1337 -0.1966
  217MOL0     C29191   9.227   4.230   6.538  0.0086 -0.0733  0.4413
  217MOL0     C29192   9.359   4.213   6.489  0.0756 -0.5367  1.3666
  217MOL0     C29193   9.466   4.188   6.572  0.0217  0.0646 -0.3476
  217MOL0     C29194   9.455   4.185   6.711  0.5521  0.5905  0.6039
  217MOL0     O29195   9.568   4.183   6.786 -0.1140  0.3313  0.0033
  217MOL0     C29196   9.569   4.270   6.904  0.1973 -0.2415  1.0972
  217MOL0     C29197   9.690   4.247   6.986 -0.1071 -0.3494 -0.1058
  217MOL0     C29198   9.813   4.315   6.916  0.2149 -0.2644  0.1993
  217MOL0     C29199   9.935   4.315   7.011 -0.6957 -0.3271 -0.1127
  217MOL0     C29200  10.062   4.387   6.966 -0.0280  0.0121 -0.2610
  217MOL0     C29201  10.175   4.363   7.064 -0.4801  0.8103 -0.1851
  217MOL0     C29202  10.171   4.409   7.207 -0.4723 -0.9355 -0.1841
  217MOL0     C29203  10.146   4.559   7.221  1.4969 -0.3296 -0.6060
  217MOL0    Cl29204  10.296   4.661   7.202  0.2235 -0.4977 -0.2935
  217MOL0     C29205   9.324   4.190   6.762 -0.4782  0.0700  0.1887
  217MOL0     C29206   9.210   4.214   6.678 -0.2284  0.0313 -0.0977
  217MOL0     O29207   9.135   4.062   6.339 -0.3283 -0.3701 -0.5912
  217MOL0     C29208   8.875   4.088   6.261  0.4966  0.5603 -0.1826
  217MOL0     C29209   8.767   4.112   6.176  0.5376 -0.4439 -0.0409
  217MOL0     N29210   8.049   4.151   5.967  0.4559 -0.4704  0.5648
  217MOL0     N29211   7.957   4.054   5.948 -0.4477 -1.1428  0.1592
  217MOL0     C29212   6.893   3.938   6.033  0.8620  0.0128 -0.2556
  217MOL0     C29213   6.763   3.913   6.070  0.1623 -0.0626  0.5371
  217MOL0     C29214   6.315   3.755   6.012 -0.4404  0.1587 -0.0075
  217MOL0     C29215   6.200   3.793   5.947  0.5705 -0.7269  0.9584
  217MOL0     C29216   6.075   3.738   5.985  0.4962 -0.5713 -0.6810
  217MOL0     C29217   6.062   3.645   6.089 -0.0343  0.1706 -0.5866
  217MOL0     O29218   5.936   3.598   6.116 -0.8706 -0.0938 -0.6528
  217MOL0     C29219   5.911   3.504   6.219  0.3081  0.1693  0.9381
  217MOL0     C29220   5.913   3.548   6.356  0.1446 -0.1635  0.2177
  217MOL0     C29221   5.798   3.478   6.439 -0.0893 -1.0062  0.9078
  217MOL0     C29222   5.821   3.489   6.596 -0.5793  0.1154 -0.2478
  217MOL0     C29223   5.911   3.380   6.643  0.2496  0.6737  0.9123
  217MOL0     C29224   5.968   3.298   6.709  0.2681  1.0254  0.5268
  217MOL0     C29225   6.174   3.616   6.165 -1.3478 -0.3694 -0.1604
  217MOL0     C29226   6.304   3.662   6.127  0.1242 -0.3484  0.6008
  217MOL0     C29227   6.425   3.607   6.189  0.0033  0.5305 -0.1442
  217MOL0     H29228   6.649   3.734   5.816 -1.2616  1.2599 -0.6287
  217MOL0     H29229   6.889   3.791   5.726  2.0885 -0.1639  1.0133
  217MOL0     H29230   7.147   4.091   5.956  0.3579  1.5956  1.3490
  217MOL0     H29231   7.167   3.930   6.030  1.6926  0.2883 -1.7130
  217MOL0     H29232   7.381   4.003   5.903  1.5910 -0.7450 -3.2067
  217MOL0     H29233   7.285   4.031   5.760  0.7228 -1.7968 -1.4752
  217MOL0     H29234   7.283   3.802   5.713 -1.1853  3.5464  0.5864
  217MOL0     H29235   7.262   3.737   5.874 -0.5175 -3.1386 -3.1871
  217MOL0     H29236   7.514   3.782   5.917 -0.0206  0.9693  0.2683
  217MOL0     H29237   7.478   3.659   5.793 -1.6237  0.2986 -1.1579
  217MOL0     H29238   7.492   3.803   5.617 -1.1581 -2.8088  1.2461
  217MOL0     H29239   7.524   3.949   5.706  0.5980  0.7823 -0.9809
  217MOL0     H29240   7.719   3.709   5.720  1.2414  0.7881  2.6012
  217MOL0     H29241   7.732   3.832   5.597 -1.3406  0.0823  0.5891
  217MOL0     H29242   7.772   3.841   5.904  2.1615 -0.5390 -0.3505
  217MOL0     H29243   7.733   3.997   5.829  1.6302  0.8949  1.7778
  217MOL0     H29244   7.950   3.785   5.795  1.5679  0.4728  0.3881
  217MOL0     H29245   7.936   3.911   5.673  0.6292 -1.2368 -1.0634
  217MOL0     H29246   8.161   3.993   5.702  1.7520 -0.4495  0.2174
  217MOL0     H29247   8.275   4.267   5.741 -2.0837  0.1407 -0.1114
  217MOL0     H29248   8.248   4.341   5.886 -1.0685  1.7303 -2.0015
  217MOL0     H29249   8.364   4.154   6.004 -3.0687 -1.9533 -0.8609
  217MOL0     H29250   8.401   4.070   5.853 -1.2481 -0.4887 -0.8932
  217MOL0     H29251   8.486   4.359   5.857  1.6494  0.3133 -2.0553
  217MOL0     H29252   8.520   4.221   5.749 -3.3580  0.5751 -1.2847
  217MOL0     H29253   8.712   4.264   5.892 -0.7970 -2.0909 -2.8798
  217MOL0     H29254   8.636   4.113   5.929 -2.6641 -0.5732  1.0860
  217MOL0     H29255   8.746   4.442   6.241  1.8198  0.9899  1.0448
  217MOL0     H29256   8.919   4.400   6.381 -1.7216  1.3111  1.5973
  217MOL0     H29257   9.359   4.228   6.381  0.5753  1.3801  1.5946
  217MOL0     H29258   9.563   4.186   6.522  0.0014  1.6774 -0.4845
  217MOL0     H29259   9.569   4.373   6.867  0.3577 -0.6590 -0.1109
  217MOL0     H29260   9.486   4.249   6.971  0.3509 -3.7293  0.3851
  217MOL0     H29261   9.688   4.290   7.087  1.2799  0.4963 -0.4080
  217MOL0     H29262   9.711   4.140   6.992  1.3021 -0.1362 -0.8183
  217MOL0     H29263   9.844   4.247   6.835  0.0645 -1.3578  1.0283
  217MOL0     H29264   9.774   4.412   6.887  2.1958  0.6988  0.5879
  217MOL0     H29265   9.958   4.212   7.039 -1.0821 -0.2290  0.6066
  217MOL0     H29266   9.914   4.366   7.106 -1.3412 -1.5318  0.4151
  217MOL0     H29267  10.042   4.494   6.951  3.1274  1.0641  1.9201
  217MOL0     H29268  10.087   4.344   6.869  1.7681 -1.7440  0.9155
  217MOL0     H29269  10.186   4.254   7.060  1.4778  1.0180 -1.5286
  217MOL0     H29270  10.273   4.394   7.026  0.8853 -0.6834  1.8778
  217MOL0     H29271  10.257   4.387   7.270  1.0282  1.7080 -1.1194
  217MOL0     H29272  10.080   4.362   7.245 -0.7503 -1.5009 -1.4925
  217MOL0     H29273  10.068   4.594   7.152  0.5769  0.9445  1.0220
  217MOL0     H29274  10.112   4.580   7.322  1.3236  0.5450 -0.8321
  217MOL0     H29275   9.312   4.185   6.869  1.6835 -0.1730  0.4687
  217MOL0     H29276   9.116   4.225   6.731  0.7292 -0.2372  1.7283
  217MOL0     H29277   8.906   3.984   6.250 -1.0342  0.1693 -1.0852
  217MOL0     H29278   8.732   4.028   6.117 -0.1580 -0.6324  0.6274
  217MOL0     H29279   6.969   3.978   6.098  2.7126  0.6982 -2.6673
  217MOL0     H29280   6.737   3.952   6.168 -2.4455 -1.3187  0.4192
  217MOL0     H29281   6.190   3.865   5.866 -1.0588  0.4044  2.0986
  217MOL0     H29282   5.988   3.781   5.936  0.4467 -2.0083 -1.9412
  217MOL0     H29283   5.985   3.424   6.217 -1.2336 -1.3306  0.9821
  217MOL0     H29284   5.810   3.468   6.195 -0.2782  1.6952  0.9857
  217MOL0     H29285   5.916   3.658   6.351  0.8817 -0.0562  2.2281
  217MOL0     H29286   6.012   3.522   6.395 -0.5252  0.7223  2.7148
  217MOL0     H29287   5.786   3.376   6.399 -0.0568  0.1767 -2.4021
  217MOL0     H29288   5.704   3.529   6.417  0.9310  0.3502 -0.5003
  217MOL0     H29289   5.877   3.581   6.613 -0.1151 -0.0277 -0.9519
  217MOL0     H29290   5.728   3.475   6.653 -0.7642  3.4603  0.4470
  217MOL0     H29291   6.017   3.222   6.766 -1.4162 -0.6569 -0.1777
  217MOL0     H29292   6.180   3.544   6.246 -3.7548 -0.1056  0.3156
  217MOL0     H29293   6.487   3.553   6.116 -0.1566  0.0813  0.0489
  217MOL0     H29294   6.483   3.693   6.224  0.7293 -1.2261  3.3774
  217MOL0     H29295   6.400   3.542   6.273  0.2334 -0.4665 -0.8297
  218MOL0     O29296   9.244  11.152   5.276 -0.1190 -0.4151 -0.2877
  218MOL0     C29297   9.355  11.202   5.291 -0.4230  0.3343 -0.8875
  218MOL0     O29298   9.430  11.249   5.191  0.5011  0.3461 -0.4502
  218MOL0     C29299   9.395  11.214   5.066  0.3907  1.2292 -0.1071
  218MOL0     C29300   9.294  11.279   4.998  0.8552  1.4645 -0.7612
  218MOL0     C29301   9.261  11.257   4.862  0.0480 -0.0145  0.2664
  218MOL0     C29302   9.329  11.165   4.787  0.5906 -0.9658 -0.2136
  218MOL0     O29303   9.287  11.154   4.654 -0.5563 -0.6039  0.7346
  218MOL0     C29304   9.304  11.031   4.583  0.0055  0.7915 -0.6804
  218MOL0     C29305   9.197  10.933   4.633  0.8956  0.0571  0.4119
  218MOL0     C29306   9.196  10.805   4.543 -0.5197 -0.6598 -0.8723
  218MOL0     C29307   9.094  10.811   4.427 -0.4843 -0.7061  0.1894
  218MOL0     C29308   9.095  10.694   4.318  0.1490  0.8619 -0.1199
  218MOL0     C29309   9.226  10.661   4.247  0.1477 -0.7046  0.1257
  218MOL0     C29310   9.298  10.782   4.177  0.6841 -0.2646  0.3000
  218MOL0     C29311   9.415  10.735   4.096 -0.4037  0.0847  0.5319
  218MOL0     N29312   9.430  10.794   3.966  0.9008  0.3846  1.2127
  218MOL0     C29313   9.479  10.924   3.943  0.7267  0.2772  0.0606
  218MOL0     C29314   9.457  10.939   3.815 -0.1387  1.1948 -0.2360
  218MOL0     C29315   9.512  11.050   3.734  0.4389  1.2787  0.4972
  218MOL0     C29316   9.635  10.984   3.666  0.6155  0.0544  0.6529
  218MOL0     C29317   9.700  11.069   3.565 -0.2611 -0.0976  0.0981
  218MOL0     C29318   9.784  11.003   3.447  0.0114 -0.2897 -0.3522
  218MOL0     O29319   9.857  11.105   3.394  0.2732  0.2699 -0.8432
  218MOL0     C29320   9.916  11.077   3.281  1.1997  0.0841  0.1114
  218MOL0     C29321   9.938  11.186   3.202  0.3088  0.2517  0.4044
  218MOL0     C29322  10.004  11.179   3.080 -0.6767  1.6182  1.0966
  218MOL0     C29323  10.044  11.053   3.036 -0.0558  0.9724 -1.1303
  218MOL0     C29324  10.092  11.037   2.897  0.3019  0.4604 -0.4568
  218MOL0     O29325  10.037  11.123   2.796 -0.3084  0.1628 -0.6286
  218MOL0     C29326  10.089  11.110   2.668 -0.2906 -0.1687  0.2138
  218MOL0     C29327  10.178  11.207   2.619  0.4421 -0.9260  0.2330
  218MOL0     C29328  10.243  11.202   2.485 -0.5544  0.4838 -0.6990
  218MOL0     C29329  10.198  11.105   2.401  0.2954  0.2852  0.7394
  218MOL0     O29330  10.258  11.097   2.278 -0.2603  0.1050 -1.1907
  218MOL0     C29331  10.182  11.174   2.180  0.2700  0.9111 -0.7815
  218MOL0     C29332  10.263  11.219   2.060  0.7065 -0.1306 -0.3128
  218MOL0     C29333  10.321  11.104   1.975  0.7898  0.5704  0.1985
  218MOL0     C29334  10.382  11.175   1.845 -0.0136 -0.1755 -0.3247
  218MOL0     C29335  10.476  11.089   1.761 -0.8813  0.0373  0.3309
  218MOL0     C29336  10.392  11.005   1.656  0.0149  0.2990  0.5421
  218MOL0     C29337  10.475  10.947   1.534  0.1728 -0.1259 -0.0982
  218MOL0     C29338  10.418  10.820   1.463  0.1307 -0.3316  0.6848
  218MOL0    Cl29339  10.434  10.668   1.561  0.2902 -0.4538  0.7867
  218MOL0     C29340  10.090  11.027   2.440  0.1038 -0.3935 -0.8062
  218MOL0     C29341  10.046  11.012   2.576  0.4223 -0.2568 -0.6149
  218MOL0     O29342  10.182  10.951   2.877  0.2031 -0.0547 -0.7942
  218MOL0     C29343  10.012  10.938   3.116 -0.5814 -0.2140 -0.2361
  218MOL0     C29344   9.959  10.949   3.237 -0.4763  0.2189 -0.3107
  218MOL0     N29345   9.384  10.835   3.761 -0.1315  0.1228 -0.0446
  218MOL0     N29346   9.371  10.743   3.853 -0.7447 -0.1851 -1.0925
  218MOL0     C29347   9.438  11.099   4.852  0.4444 -0.1386 -0.0596
  218MOL0     C29348   9.469  11.115   4.993  0.0772 -0.0688  0.5520
  218MOL0     C29349   9.402  11.233   5.426 -0.4332  0.1196 -0.6810
  218MOL0     C29350   9.502  11.329   5.437 -0.3075  0.4434 -0.7078
  218MOL0     C29351   9.564  11.354   5.561  0.2900 -0.4986 -0.8382
  218MOL0     C29352   9.523  11.294   5.687  0.0129  0.6739  0.3412
  218MOL0     O29353   9.570  11.321   5.805  0.7043  0.4503  0.7203
  218MOL0     C29354   9.695  11.384   5.809  0.0022  0.2846 -0.4215
  218MOL0     C29355   9.725  11.390   5.960 -0.6736 -0.3550 -0.0050
  218MOL0     C29356   9.706  11.252   6.017 -0.5454 -0.3088 -0.0171
  218MOL0     C29357   9.790  11.223   6.149  0.2154 -0.1603  0.0951
  218MOL0     C29358   9.751  11.308   6.259 -0.5863 -0.3900  1.2612
  218MOL0     C29359   9.748  11.366   6.361  0.0315  0.0091  0.5900
  218MOL0     C29360   9.423  11.195   5.668 -0.7512 -0.4530  0.2772
  218MOL0     C29361   9.363  11.163   5.549 -0.0882  0.1903  0.0323
  218MOL0     C29362   9.275  11.045   5.557 -1.0285 -0.1672 -0.1589
  218MOL0     H29363   9.231  11.336   5.065  0.7557  0.9411 -0.4031
  218MOL0     H29364   9.188  11.325   4.819  1.2403  0.0370 -1.8124
  218MOL0     H29365   9.272  11.043   4.479 -0.6144 -3.2504 -1.1463
  218MOL0     H29366   9.401  10.981   4.574 -0.6847 -0.7920  0.1972
  218MOL0     H29367   9.102  10.987   4.643  1.5055  1.3670 -0.5436
  218MOL0     H29368   9.215  10.907   4.738 -0.5687 -1.6011  0.2753
  218MOL0     H29369   9.172  10.720   4.607  1.2534 -1.1731 -0.8238
  218MOL0     H29370   9.299  10.781   4.513 -0.2836 -0.2518 -0.4076
  218MOL0     H29371   8.995  10.823   4.472  0.0023  2.7799  0.5987
  218MOL0     H29372   9.116  10.910   4.387 -0.9014  0.3297  2.3680
  218MOL0     H29373   9.074  10.605   4.378  0.4245 -0.9400 -2.5296
  218MOL0     H29374   9.021  10.706   4.239 -2.6886 -1.5125  1.9728
  218MOL0     H29375   9.291  10.621   4.326  0.4878  0.3298  0.3828
  218MOL0     H29376   9.214  10.590   4.165  1.0580 -2.3605  1.3698
  218MOL0     H29377   9.332  10.861   4.246  2.1098 -0.9807  0.4545
  218MOL0     H29378   9.228  10.829   4.108  1.5590  1.2314  0.3786
  218MOL0     H29379   9.505  10.758   4.155 -1.1809  2.6262  0.8259
  218MOL0     H29380   9.411  10.626   4.090  1.9818 -0.2485  2.9384
  218MOL0     H29381   9.531  10.983   4.018  0.0277 -2.4414  2.8845
  218MOL0     H29382   9.445  11.071   3.650  1.1378  0.7649 -0.2077
  218MOL0     H29383   9.537  11.143   3.785  0.9099  2.5812 -1.9668
  218MOL0     H29384   9.704  10.958   3.747 -0.8546 -1.8032  1.3878
  218MOL0     H29385   9.605  10.892   3.615 -1.0244  0.6585  0.4727
  218MOL0     H29386   9.768  11.133   3.622 -1.8510  0.8733  0.9605
  218MOL0     H29387   9.622  11.127   3.514 -1.0635 -2.0170 -0.9515
  218MOL0     H29388   9.729  10.955   3.364  0.8116 -2.9535  0.5427
  218MOL0     H29389   9.840  10.925   3.499 -1.0464  0.8390  2.6997
  218MOL0     H29390   9.898  11.282   3.234  2.7767  1.5455 -0.1467
  218MOL0     H29391  10.011  11.266   3.015  2.7713 -0.4342 -1.6628
  218MOL0     H29392  10.195  11.291   2.685  0.7057 -1.2529  0.5871
  218MOL0     H29393  10.315  11.279   2.459  1.9727 -0.4756  2.7381
  218MOL0     H29394  10.119  11.098   2.134  2.0509 -0.9164 -0.3613
  218MOL0     H29395  10.119  11.250   2.225  0.6185  1.6254 -1.4702
  218MOL0     H29396  10.204  11.279   1.989  1.5124  0.6867 -0.3000
  218MOL0     H29397  10.357  11.255   2.102 -0.3044 -2.1059  4.1923
  218MOL0     H29398  10.404  11.055   2.026  0.5204 -0.9751 -0.8060
  218MOL0     H29399  10.243  11.038   1.937  0.0804  0.5340  1.6653
  218MOL0     H29400  10.442  11.259   1.881  1.1487 -1.0317 -0.2111
  218MOL0     H29401  10.291  11.205   1.791 -1.9670 -2.6603  1.3682
  218MOL0     H29402  10.536  11.022   1.825  1.3850  0.5770 -1.1143
  218MOL0     H29403  10.547  11.155   1.710  2.5421 -1.4801  2.7401
  218MOL0     H29404  10.333  10.919   1.691  1.8835 -0.4039  2.1958
  218MOL0     H29405  10.323  11.078   1.613 -1.5330 -0.7569  1.1304
  218MOL0     H29406  10.571  10.919   1.578  0.7571 -0.1016 -1.3286
  218MOL0     H29407  10.500  11.033   1.470 -2.4869  0.6748 -0.2054
  218MOL0     H29408  10.314  10.846   1.441 -0.6971 -0.4587  3.9421
  218MOL0     H29409  10.467  10.800   1.367 -1.6376  0.2084 -0.3851
  218MOL0     H29410  10.051  10.969   2.357  2.6833 -0.3865 -2.1548
  218MOL0     H29411   9.975  10.936   2.606 -2.4275  2.0049 -1.1656
  218MOL0     H29412  10.047  10.847   3.068 -0.5632 -1.4851  2.0431
  218MOL0     H29413   9.957  10.852   3.287  2.0879  1.0974  1.7223
  218MOL0     H29414   9.515  11.032   4.815  0.8488  0.1420  0.2576
  218MOL0     H29415   9.553  11.070   5.045 -0.9162 -3.2395 -0.3670
  218MOL0     H29416   9.550  11.385   5.357  1.4282  2.0263  1.3300
  218MOL0     H29417   9.637  11.434   5.563  1.2465 -1.3055  2.2013
  218MOL0     H29418   9.689  11.489   5.777 -0.5459  0.7490  1.0867
  218MOL0     H29419   9.769  11.334   5.747 -1.3700 -0.4155 -1.5552
  218MOL0     H29420   9.672  11.471   6.010  1.8093  2.7143 -1.9144
  218MOL0     H29421   9.832  11.413   5.962 -0.3507 -1.6695  2.7751
  218MOL0     H29422   9.750  11.173   5.955  0.9891  0.5444 -0.0753
  218MOL0     H29423   9.603  11.234   6.050 -0.5405 -0.6570 -0.1783
  218MOL0     H29424   9.771  11.121   6.184 -2.9228  1.2056  3.0538
  218MOL0     H29425   9.896  11.237   6.127  0.5256 -0.7130  1.1511
  218MOL0     H29426   9.742  11.431   6.446 -0.4104  0.3919  0.2673
  218MOL0     H29427   9.391  11.142   5.757  2.4175 -0.5766  1.4751
  218MOL0     H29428   9.271  11.002   5.658  1.2766  0.9563  0.4774
  218MOL0     H29429   9.175  11.077   5.528 -0.6112 -0.4099 -1.9503
  218MOL0     H29430   9.305  10.965   5.488  0.3266  0.1371  0.0521
  219MOL0     O29431   1.899   0.682   3.652 -0.3758 -0.1766 -0.4079
  219MOL0     C29432   1.928   0.573   3.617  0.6403 -0.7750  0.8537
  219MOL0     O29433   2.053   0.523   3.608  0.4230 -1.0393 -0.0425
  219MOL0     C29434   2.169   0.598   3.601  0.0628 -0.5999  1.1352
  219MOL0     C29435   2.282   0.548   3.658 -0.9429  0.4690 -0.1527
  219MOL0     C29436   2.396   0.621   3.660  0.6203  0.1480  1.0874
  219MOL0     C29437   2.411   0.749   3.595  0.3143 -0.7390 -0.5378
  219MOL0     O29438   2.538   0.801   3.587  1.0225 -0.0085 -0.1014
  219MOL0     C29439   2.571   0.880   3.480 -0.5194  0.8634  0.1208
  219MOL0     C29440   2.722   0.909   3.477  0.0378 -0.5647  1.0349
  219MOL0     C29441   2.770   0.981   3.597  0.2841 -0.1535  0.0768
  219MOL0     C29442   2.915   1.024   3.567  0.2652 -0.1755 -0.6529
  219MOL0     C29443   2.959   1.116   3.674 -0.2291  0.8914 -0.6594
  219MOL0     C29444   3.055   1.228   3.638  0.2200 -0.2189 -0.4069
  219MOL0     C29445   3.009   1.303   3.509 -0.4249 -0.6444  0.0773
  219MOL0     C29446   3.092   1.432   3.496  0.2449 -0.1028  0.9167
  219MOL0     N29447   3.119   1.515   3.611  0.1070  0.0753  0.3538
  219MOL0     C29448   3.236   1.522   3.676  0.5654  0.6688 -0.6971
  219MOL0     C29449   3.223   1.626   3.766  0.1070  0.0447  1.2173
  219MOL0     C29450   3.322   1.702   3.856 -1.3343 -0.0423 -0.0322
  219MOL0     C29451   3.471   1.679   3.808 -0.7361 -0.5977 -0.0528
  219MOL0     C29452   3.566   1.719   3.913  0.8628 -0.4071 -0.0701
  219MOL0     C29453   3.718   1.712   3.887  0.4359  0.6478 -0.7859
  219MOL0     O29454   3.758   1.587   3.854 -1.1488  0.2827 -0.5042
  219MOL0     C29455   3.789   1.506   3.966  0.0007  0.1475  0.0240
  219MOL0     C29456   3.821   1.543   4.097 -0.1477 -0.5666  0.1627
  219MOL0     C29457   3.828   1.444   4.197  0.9987 -0.4783 -0.0770
  219MOL0     C29458   3.807   1.311   4.171 -0.0554  0.1359  0.3745
  219MOL0     C29459   3.836   1.197   4.262 -0.4470 -0.5700  0.1782
  219MOL0     O29460   3.863   1.072   4.211  0.0893 -0.4144 -0.2041
  219MOL0     C29461   3.890   0.972   4.300 -0.4333  0.7372  0.4909
  219MOL0     C29462   3.962   0.865   4.246  0.4983 -0.0632 -0.4512
  219MOL0     C29463   4.011   0.750   4.312  0.1950  0.1513  0.7556
  219MOL0     C29464   3.982   0.740   4.448  0.4596 -0.5438 -0.1026
  219MOL0     O29465   4.032   0.631   4.519 -0.7007  0.5777 -0.0282
  219MOL0     C29466   3.968   0.514   4.478 -0.0560 -0.9318  0.5137
  219MOL0     C29467   4.000   0.406   4.564 -0.3539  0.0828  0.6558
  219MOL0     C29468   3.986   0.422   4.721 -0.8416 -0.0500 -0.0468
  219MOL0     C29469   3.873   0.512   4.777 -0.3538 -0.1851 -0.2794
  219MOL0     C29470   3.894   0.545   4.925 -0.9101 -0.3834 -0.1525
  219MOL0     C29471   4.032   0.616   4.948 -0.3731  0.1977 -0.0249
  219MOL0     C29472   4.034   0.709   5.072  0.0834  1.0964 -0.0087
  219MOL0     C29473   4.016   0.855   5.024 -0.4553 -0.4296 -0.2528
  219MOL0    Cl29474   3.858   0.895   4.970 -0.1263 -0.2303  0.4807
  219MOL0     C29475   3.892   0.832   4.512  0.3292  0.1623 -0.5789
  219MOL0     C29476   3.843   0.938   4.435  0.9478 -0.2739 -1.2077
  219MOL0     O29477   3.828   1.229   4.377  0.2535 -0.3094 -0.6034
  219MOL0     C29478   3.787   1.269   4.042  0.8736  0.2730 -0.1207
  219MOL0     C29479   3.774   1.370   3.940 -0.1515  0.6390 -0.0633
  219MOL0     N29480   3.091   1.665   3.752 -0.0595 -0.1577  0.7143
  219MOL0     N29481   3.029   1.597   3.656  0.0951 -0.2506 -0.2810
  219MOL0     C29482   2.293   0.797   3.532 -0.9095 -0.5715  0.1073
  219MOL0     C29483   2.176   0.716   3.528  0.6308 -0.4887 -0.6773
  219MOL0     C29484   1.823   0.468   3.578  0.6871  0.0846 -0.1489
  219MOL0     C29485   1.871   0.333   3.571  0.3985  0.8795 -0.2417
  219MOL0     C29486   1.785   0.229   3.528 -1.0394  0.2010  0.1141
  219MOL0     C29487   1.658   0.260   3.477 -0.0154 -0.2559 -0.2766
  219MOL0     O29488   1.581   0.176   3.403 -0.2998  0.7573 -0.7287
  219MOL0     C29489   1.641   0.058   3.353 -0.5252 -0.4499 -0.5200
  219MOL0     C29490   1.548  -0.009   3.253  0.2122 -0.0914  0.0362
  219MOL0     C29491   1.408  -0.035   3.305  1.0762  0.2511 -0.2868
  219MOL0     C29492   1.322  -0.142   3.219  0.3129 -0.1790 -0.6013
  219MOL0     C29493   1.391  -0.266   3.197  1.3133  1.0250  0.2038
  219MOL0     C29494   1.451  -0.376   3.172  0.1433  0.3927 -0.3903
  219MOL0     C29495   1.609   0.382   3.478 -0.3333 -1.3415 -0.1727
  219MOL0     C29496   1.682   0.490   3.539 -0.7386 -0.3210  0.1385
  219MOL0     C29497   1.624   0.629   3.543  0.2799 -0.7475 -0.0478
  219MOL0     H29498   2.296   0.455   3.712 -2.2002  2.1695  3.4479
  219MOL0     H29499   2.482   0.579   3.709  1.5707  0.4140 -0.2810
  219MOL0     H29500   2.533   0.823   3.395 -2.4997  0.3425  1.3094
  219MOL0     H29501   2.515   0.974   3.485 -1.0895  0.5883 -0.7971
  219MOL0     H29502   2.745   0.978   3.395 -2.2657  0.6183  1.2987
  219MOL0     H29503   2.788   0.825   3.454  0.6406 -1.3821  5.0897
  219MOL0     H29504   2.758   0.911   3.681 -0.5010  1.0872  1.0344
  219MOL0     H29505   2.706   1.068   3.611 -0.1532 -0.7617  2.3120
  219MOL0     H29506   2.969   0.930   3.556 -1.2129 -1.1545  0.1144
  219MOL0     H29507   2.920   1.077   3.471 -0.6523 -0.3498 -0.8050
  219MOL0     H29508   2.871   1.164   3.719 -1.8007  0.0244 -2.6232
  219MOL0     H29509   3.000   1.053   3.753 -0.9496  1.7345  0.4118
  219MOL0     H29510   3.064   1.292   3.726  3.1772  0.2488 -0.9583
  219MOL0     H29511   3.151   1.182   3.614 -1.1968 -3.2237 -0.7001
  219MOL0     H29512   2.902   1.323   3.512 -0.4035  0.5994 -3.1213
  219MOL0     H29513   3.035   1.248   3.418  1.3197 -0.3420  0.3535
  219MOL0     H29514   3.179   1.412   3.433 -0.3459  1.2193 -0.3809
  219MOL0     H29515   3.025   1.491   3.432 -0.1608  1.7422  2.9125
  219MOL0     H29516   3.324   1.459   3.662 -0.8623 -1.7095  0.3977
  219MOL0     H29517   3.306   1.810   3.865 -0.4989  0.0613  0.3465
  219MOL0     H29518   3.314   1.672   3.960 -0.7704  1.4145  0.4567
  219MOL0     H29519   3.502   1.575   3.795  1.7976  0.3309 -2.7259
  219MOL0     H29520   3.481   1.734   3.714 -2.2150  0.2166  0.2348
  219MOL0     H29521   3.551   1.657   4.002  0.6543  0.9611  0.8792
  219MOL0     H29522   3.537   1.819   3.947 -1.0272 -0.8166 -0.3612
  219MOL0     H29523   3.781   1.757   3.965  0.0352 -0.6292  0.3023
  219MOL0     H29524   3.712   1.770   3.794  0.5255  1.9928  0.0186
  219MOL0     H29525   3.819   1.647   4.130 -2.5925 -0.0155 -1.4634
  219MOL0     H29526   3.845   1.473   4.300 -2.4270 -0.6481  0.6362
  219MOL0     H29527   3.991   0.871   4.141  2.0559  1.9274  0.0321
  219MOL0     H29528   4.080   0.683   4.261  0.7041 -0.0868  1.7450
  219MOL0     H29529   3.859   0.525   4.482  0.0484  0.0623  1.1850
  219MOL0     H29530   4.008   0.498   4.377 -0.4478  1.4117 -0.0888
  219MOL0     H29531   3.936   0.320   4.544 -1.4736  1.1222 -0.4709
  219MOL0     H29532   4.101   0.372   4.539  0.2216  1.4374  1.0630
  219MOL0     H29533   3.983   0.323   4.769 -0.0255  0.6173  1.4446
  219MOL0     H29534   4.082   0.469   4.740 -0.5073  0.8770 -3.3976
  219MOL0     H29535   3.777   0.461   4.774 -0.3524 -0.2741  0.7298
  219MOL0     H29536   3.859   0.599   4.712 -3.3507 -0.2872  0.1274
  219MOL0     H29537   3.891   0.453   4.983  0.6166 -0.2755  0.1256
  219MOL0     H29538   3.805   0.597   4.963 -1.2365  0.0921 -1.4969
  219MOL0     H29539   4.105   0.535   4.957 -1.5348 -0.8865 -0.0741
  219MOL0     H29540   4.050   0.681   4.862  4.9489 -0.3864  0.2981
  219MOL0     H29541   4.133   0.698   5.117  0.6363  0.3051 -1.3555
  219MOL0     H29542   3.963   0.676   5.148  1.1119 -0.4550  0.3271
  219MOL0     H29543   4.028   0.919   5.112 -1.9088  2.8235 -2.2491
  219MOL0     H29544   4.091   0.891   4.953 -1.2554 -0.2558 -1.0224
  219MOL0     H29545   3.849   0.798   4.606  0.8162  2.4597  0.5644
  219MOL0     H29546   3.783   1.010   4.491  2.6327 -0.6928  1.3186
  219MOL0     H29547   3.769   1.166   4.011  0.8206  0.0587  0.6024
  219MOL0     H29548   3.766   1.350   3.834  2.3539  0.2700 -0.2408
  219MOL0     H29549   2.290   0.890   3.477 -0.6496 -1.6671 -1.8646
  219MOL0     H29550   2.085   0.744   3.475 -0.0966  0.1753  0.8436
  219MOL0     H29551   1.971   0.305   3.604  0.9256 -0.1183 -2.5030
  219MOL0     H29552   1.818   0.126   3.539 -0.7821 -0.1841 -3.2373
  219MOL0     H29553   1.670  -0.011   3.434  1.0622 -1.1893 -1.6712
  219MOL0     H29554   1.735   0.074   3.300 -1.4948 -0.3513 -2.2896
  219MOL0     H29555   1.592  -0.098   3.206 -0.7070  1.5024 -4.3533
  219MOL0     H29556   1.542   0.062   3.170  0.9553 -1.7104 -1.5001
  219MOL0     H29557   1.353   0.059   3.305  0.4865 -0.0286 -2.4362
  219MOL0     H29558   1.418  -0.083   3.402  1.2616  1.6280  0.3918
  219MOL0     H29559   1.227  -0.156   3.271  0.6927 -1.9984 -0.3022
  219MOL0     H29560   1.294  -0.096   3.124 -3.1563 -1.5748 -0.3926
  219MOL0     H29561   1.527  -0.447   3.148 -0.5789 -0.2160 -0.9194
  219MOL0     H29562   1.517   0.393   3.422  0.8415  0.8079 -1.8608
  219MOL0     H29563   1.625   0.671   3.644  0.9281 -0.9361  0.0280
  219MOL0     H29564   1.690   0.690   3.480 -0.5654 -1.2234 -1.4646
  219MOL0     H29565   1.521   0.626   3.507  1.0572  0.8784 -2.7345
  220MOL0     O29566   3.140   0.834   7.506  0.0718 -0.2623 -0.1381
  220MOL0     C29567   3.212   0.864   7.602  0.6786  0.1222  0.5756
  220MOL0     O29568   3.322   0.941   7.594  0.0454 -0.1963 -0.4944
  220MOL0     C29569   3.354   0.998   7.475 -0.3749  0.5323  0.0037
  220MOL0     C29570   3.261   1.075   7.408 -0.0028  0.3066  0.1417
  220MOL0     C29571   3.290   1.125   7.274  0.1241 -0.5569  0.6672
  220MOL0     C29572   3.408   1.093   7.208  0.4792  0.5963  0.0635
  220MOL0     O29573   3.434   1.129   7.075  0.7288  0.7200 -0.0142
  220MOL0     C29574   3.445   1.271   7.049  0.2088  0.2302  0.8385
  220MOL0     C29575   3.538   1.290   6.928  0.2352 -0.2225 -0.4323
  220MOL0     C29576   3.543   1.449   6.911 -0.1704  0.5616 -0.2410
  220MOL0     C29577   3.659   1.488   6.826  0.3562 -1.1732  0.7580
  220MOL0     C29578   3.652   1.641   6.829 -0.0684  0.0953  0.4954
  220MOL0     C29579   3.745   1.690   6.724 -0.1344  0.3275  0.2529
  220MOL0     C29580   3.890   1.627   6.730  0.0423  0.2105 -0.4271
  220MOL0     C29581   3.988   1.706   6.647 -0.3249 -0.2768  0.3760
  220MOL0     N29582   3.962   1.752   6.511  0.4941 -0.3049 -0.1946
  220MOL0     C29583   3.937   1.668   6.406 -1.0952  0.2732  0.3670
  220MOL0     C29584   3.915   1.753   6.303 -0.5552 -1.4424  0.3528
  220MOL0     C29585   3.885   1.726   6.158  0.4141 -0.7224  0.6971
  220MOL0     C29586   3.998   1.786   6.084  0.3227 -0.6420  0.1221
  220MOL0     C29587   3.976   1.788   5.929 -1.0315  0.4832  0.2859
  220MOL0     C29588   4.111   1.821   5.858 -0.1475  1.2650 -0.4926
  220MOL0     O29589   4.078   1.817   5.721  0.3616  0.8613 -0.0798
  220MOL0     C29590   4.180   1.854   5.640 -0.0067  0.7275  1.2656
  220MOL0     C29591   4.151   1.847   5.498 -0.4969  0.2520  0.5849
  220MOL0     C29592   4.235   1.883   5.392 -0.7157 -0.3018 -0.0596
  220MOL0     C29593   4.367   1.927   5.431 -0.7694  0.0406 -0.9394
  220MOL0     C29594   4.457   1.969   5.327  0.2391 -0.0647  0.1283
  220MOL0     O29595   4.508   2.090   5.352 -0.5880  1.0860  0.1715
  220MOL0     C29596   4.605   2.153   5.263 -0.0866  0.0018 -0.6898
  220MOL0     C29597   4.587   2.164   5.121  0.8390 -0.2773 -0.5295
  220MOL0     C29598   4.675   2.237   5.042 -0.2587  0.0250  0.7515
  220MOL0     C29599   4.785   2.291   5.098  0.2196  0.0852  0.3373
  220MOL0     O29600   4.865   2.367   5.018 -0.0440 -0.1794 -0.1993
  220MOL0     C29601   4.971   2.295   4.951  0.3443 -0.3475 -0.7574
  220MOL0     C29602   4.937   2.230   4.824 -0.0329  0.3514 -0.2164
  220MOL0     C29603   4.863   2.326   4.730  0.9380 -0.7450  0.3235
  220MOL0     C29604   4.801   2.248   4.612 -1.2504 -0.0048  0.4987
  220MOL0     C29605   4.894   2.173   4.526 -0.8183  0.6420 -0.4337
  220MOL0     C29606   5.002   2.246   4.457  0.0905 -0.0427 -0.0522
  220MOL0     C29607   5.077   2.172   4.359 -0.8122 -0.3552  0.3166
  220MOL0     C29608   5.130   2.042   4.413 -1.1378 -0.9810 -0.2908
  220MOL0    Cl29609   5.215   2.080   4.567  0.3697  0.3722 -0.0009
  220MOL0     C29610   4.813   2.278   5.232 -0.3859 -0.1552 -0.6240
  220MOL0     C29611   4.716   2.218   5.318  0.0563 -0.2131  0.3691
  220MOL0     O29612   4.475   1.904   5.228  0.4486  0.7190 -0.2842
  220MOL0     C29613   4.405   1.941   5.571 -0.0250  0.0652  1.3568
  220MOL0     C29614   4.317   1.898   5.669  0.1858 -0.1303  0.2361
  220MOL0     N29615   3.899   1.888   6.357 -0.3164  0.2017  0.3708
  220MOL0     N29616   3.921   1.881   6.485  0.5153  0.7886 -0.4389
  220MOL0     C29617   3.503   1.012   7.279 -0.4404  0.0461  0.9662
  220MOL0     C29618   3.479   0.969   7.411 -0.2317 -0.4220 -0.7327
  220MOL0     C29619   3.180   0.794   7.730 -0.7694  0.0492 -0.2080
  220MOL0     C29620   3.124   0.662   7.734  0.2954  0.9499  0.3436
  220MOL0     C29621   3.108   0.590   7.856 -0.1880 -0.1843  0.1890
  220MOL0     C29622   3.134   0.648   7.973 -0.6035 -0.6409 -0.0302
  220MOL0     O29623   3.112   0.583   8.092 -0.5853 -0.6004 -0.8443
  220MOL0     C29624   3.165   0.633   8.215 -0.0169 -0.8776  0.4286
  220MOL0     C29625   3.315   0.623   8.221 -0.5163  0.5032 -0.6652
  220MOL0     C29626   3.377   0.648   8.357 -0.2614 -0.4722 -0.5831
  220MOL0     C29627   3.361   0.797   8.396  0.2818  0.4491  0.8867
  220MOL0     C29628   3.427   0.835   8.523 -0.5298  0.6772  1.0855
  220MOL0     C29629   3.463   0.901   8.620 -0.0171 -0.7601  0.3112
  220MOL0     C29630   3.191   0.778   7.973  0.3433 -0.1571 -0.6067
  220MOL0     C29631   3.211   0.857   7.855  0.0579 -0.0831  0.2860
  220MOL0     C29632   3.244   1.001   7.881 -0.5617 -0.3487 -0.5752
  220MOL0     H29633   3.168   1.099   7.459 -0.3574  0.6790 -0.6637
  220MOL0     H29634   3.215   1.180   7.219 -1.5264 -2.0694  1.3285
  220MOL0     H29635   3.347   1.308   7.019  0.1535 -0.7722 -0.2799
  220MOL0     H29636   3.482   1.323   7.138  0.2827 -0.1580  1.0375
  220MOL0     H29637   3.500   1.240   6.838  1.4968  0.3656 -1.3120
  220MOL0     H29638   3.637   1.248   6.948  0.0079  0.3064  2.0186
  220MOL0     H29639   3.563   1.487   7.012  1.0602 -2.0422  0.5638
  220MOL0     H29640   3.451   1.495   6.874  1.6896  3.0405 -2.2063
  220MOL0     H29641   3.753   1.446   6.861 -0.4812 -1.6197  2.6262
  220MOL0     H29642   3.640   1.453   6.724  4.6135  0.2003 -0.7189
  220MOL0     H29643   3.555   1.672   6.789  0.3223  1.1497  0.3060
  220MOL0     H29644   3.650   1.685   6.929  0.2047  1.1536  0.0549
  220MOL0     H29645   3.702   1.692   6.623  0.4160 -1.2566 -0.0433
  220MOL0     H29646   3.764   1.792   6.759 -3.6291  0.9796  0.6368
  220MOL0     H29647   3.891   1.530   6.680  0.4641 -1.6195  2.8566
  220MOL0     H29648   3.939   1.623   6.828 -0.7250  1.8579  0.0533
  220MOL0     H29649   4.019   1.791   6.709 -0.9420 -1.5555  2.5250
  220MOL0     H29650   4.082   1.649   6.640  0.4925  1.1233 -0.3999
  220MOL0     H29651   3.945   1.560   6.402 -0.9929  0.1619  2.3632
  220MOL0     H29652   3.876   1.619   6.138  2.8984 -1.0231  0.8962
  220MOL0     H29653   3.785   1.762   6.129  1.2627 -0.1681 -1.7621
  220MOL0     H29654   4.004   1.893   6.105  3.1499 -0.6118 -0.4045
  220MOL0     H29655   4.092   1.739   6.116  0.3980 -0.0513  0.7839
  220MOL0     H29656   3.888   1.850   5.912 -2.1055 -0.9467  0.5194
  220MOL0     H29657   3.936   1.690   5.903  2.6218 -1.2071  0.4346
  220MOL0     H29658   4.191   1.751   5.882 -1.4599 -0.0623  0.1474
  220MOL0     H29659   4.152   1.916   5.892 -1.2971  0.8253  2.4213
  220MOL0     H29660   4.047   1.821   5.482  0.1566 -2.1187 -0.2331
  220MOL0     H29661   4.207   1.867   5.288 -2.2123 -2.1038  0.5725
  220MOL0     H29662   4.499   2.113   5.084  0.8352 -1.6586  1.2289
  220MOL0     H29663   4.667   2.229   4.934  2.5114 -6.7769  0.5390
  220MOL0     H29664   5.056   2.361   4.930  0.5078 -1.7889 -6.0037
  220MOL0     H29665   5.013   2.228   5.027  0.2902  1.5144  1.0076
  220MOL0     H29666   5.029   2.186   4.783 -0.6507 -0.8233 -0.3784
  220MOL0     H29667   4.875   2.143   4.844 -0.4544  0.6431 -0.2464
  220MOL0     H29668   4.781   2.378   4.781  1.9372 -0.1208  1.3221
  220MOL0     H29669   4.936   2.392   4.683  0.6980  0.2326  1.2735
  220MOL0     H29670   4.742   2.313   4.546  0.5318  0.2030 -0.9670
  220MOL0     H29671   4.735   2.181   4.667 -0.9071  0.4925  1.5464
  220MOL0     H29672   4.845   2.113   4.449  1.9832 -3.6625  0.7447
  220MOL0     H29673   4.939   2.097   4.592 -1.0383  1.3005  0.5040
  220MOL0     H29674   4.957   2.333   4.409  1.6333 -0.5734 -2.6562
  220MOL0     H29675   5.071   2.280   4.533 -2.5734 -0.8482  2.9561
  220MOL0     H29676   5.158   2.234   4.319 -2.8693  2.3136 -0.0276
  220MOL0     H29677   5.010   2.157   4.273  0.7306  0.6233 -1.1155
  220MOL0     H29678   5.049   1.973   4.439 -2.5315 -0.1184 -2.1412
  220MOL0     H29679   5.203   1.994   4.347  2.7238  1.9377  1.4419
  220MOL0     H29680   4.902   2.334   5.260  0.7955 -1.1967 -2.0724
  220MOL0     H29681   4.744   2.214   5.423  1.0129  1.8630  0.2345
  220MOL0     H29682   4.505   1.982   5.584  1.1925 -0.7135 -3.4372
  220MOL0     H29683   4.351   1.893   5.772  2.9431  0.4733 -0.5604
  220MOL0     H29684   3.593   0.980   7.228 -0.0570  2.2944  0.1326
  220MOL0     H29685   3.560   0.919   7.463 -0.3569 -0.1229 -0.2340
  220MOL0     H29686   3.092   0.611   7.644  4.0312  0.1253 -0.6758
  220MOL0     H29687   3.069   0.488   7.856 -0.0584 -0.2393  1.2319
  220MOL0     H29688   3.128   0.564   8.292  1.2100  0.4645  2.3059
  220MOL0     H29689   3.117   0.728   8.236  0.7038 -0.3886 -0.0908
  220MOL0     H29690   3.370   0.690   8.154 -1.2969  1.6964 -0.1357
  220MOL0     H29691   3.342   0.522   8.187 -1.1692  0.3210 -0.6526
  220MOL0     H29692   3.480   0.615   8.349 -0.3555 -1.3362  1.1638
  220MOL0     H29693   3.336   0.586   8.438  1.5729  0.5620  1.2425
  220MOL0     H29694   3.388   0.862   8.313 -1.7339 -0.4924 -0.5901
  220MOL0     H29695   3.254   0.812   8.412 -0.3700  0.2961 -2.6601
  220MOL0     H29696   3.478   0.966   8.703  2.5035 -0.9003  0.0666
  220MOL0     H29697   3.207   0.827   8.068 -0.7275 -4.0723  1.7982
  220MOL0     H29698   3.298   1.019   7.974  0.8951 -0.8716 -1.2957
  220MOL0     H29699   3.310   1.043   7.805 -0.2775 -0.8165 -0.5897
  220MOL0     H29700   3.155   1.064   7.876  1.2233  2.2010 -3.4740
  221MOL0     O29701   3.522   3.640   7.960  0.0900  0.9287  0.1794
  221MOL0     C29702   3.576   3.675   8.067 -0.1857  0.1947 -0.1028
  221MOL0     O29703   3.678   3.607   8.128 -0.5352  0.0825  0.1378
  221MOL0     C29704   3.713   3.489   8.074 -0.2334  1.1448  1.1214
  221MOL0     C29705   3.659   3.370   8.108  0.5404 -0.0900 -0.5129
  221MOL0     C29706   3.700   3.253   8.051  0.3486  0.3714 -0.1618
  221MOL0     C29707   3.807   3.257   7.957  0.8521  0.2410 -0.3621
  221MOL0     O29708   3.843   3.141   7.899 -0.2123  0.1834 -0.3764
  221MOL0     C29709   3.959   3.138   7.810 -0.1137 -0.6462 -0.4069
  221MOL0     C29710   3.994   2.989   7.779 -0.0816  0.0066  0.6376
  221MOL0     C29711   3.916   2.943   7.653 -0.3827 -0.7929 -0.2799
  221MOL0     C29712   3.965   2.808   7.609  0.1769  0.3973 -0.2251
  221MOL0     C29713   3.905   2.687   7.688 -0.6063  0.1600  0.3183
  221MOL0     C29714   3.911   2.556   7.599  0.3774  0.1036  0.4532
  221MOL0     C29715   3.816   2.579   7.482  0.0476 -0.4895  0.6975
  221MOL0     C29716   3.738   2.460   7.420 -0.3127  0.4289 -0.8631
  221MOL0     N29717   3.812   2.338   7.413  0.2916 -0.1454  0.1732
  221MOL0     C29718   3.945   2.330   7.399 -0.8129 -0.1811 -0.0745
  221MOL0     C29719   3.975   2.203   7.411 -0.4262  0.4245  0.4650
  221MOL0     C29720   4.106   2.146   7.380 -0.1318 -0.1036 -0.7369
  221MOL0     C29721   4.167   2.200   7.253  0.0428  0.0623  0.0063
  221MOL0     C29722   4.310   2.141   7.240  0.5023 -0.0064 -1.2991
  221MOL0     C29723   4.382   2.187   7.103 -0.7165 -0.2175 -0.3290
  221MOL0     O29724   4.489   2.093   7.074  0.2881  0.5989  0.4538
  221MOL0     C29725   4.551   2.094   6.951 -0.5540 -0.4136  0.6590
  221MOL0     C29726   4.507   2.186   6.857  0.2585 -0.8118 -0.4123
  221MOL0     C29727   4.549   2.194   6.726 -0.4812  0.5614 -0.1409
  221MOL0     C29728   4.645   2.100   6.675  0.3826  0.2332 -0.0407
  221MOL0     C29729   4.678   2.094   6.533 -0.3245 -0.3091  0.0372
  221MOL0     O29730   4.715   1.977   6.470  0.1378  1.0720  0.0888
  221MOL0     C29731   4.772   1.976   6.343  0.5591  0.3106 -0.8365
  221MOL0     C29732   4.732   1.869   6.256  0.2844 -0.5794  0.8922
  221MOL0     C29733   4.775   1.862   6.125  0.8061  0.5971  0.3162
  221MOL0     C29734   4.869   1.956   6.076 -0.1438  0.0713 -0.1768
  221MOL0     O29735   4.901   1.944   5.944  0.3882 -0.0601  0.8623
  221MOL0     C29736   4.948   2.064   5.886  1.4037  0.0716 -0.3379
  221MOL0     C29737   4.947   2.034   5.740 -0.1154 -0.3521 -0.3290
  221MOL0     C29738   5.005   2.145   5.651  0.1570 -0.6143  0.5361
  221MOL0     C29739   5.056   2.085   5.518  0.4889 -0.5791 -1.0443
  221MOL0     C29740   5.136   2.189   5.439  0.3869 -0.3429 -0.7780
  221MOL0     C29741   5.181   2.139   5.302  0.1219 -0.6714 -0.5462
  221MOL0     C29742   5.262   2.006   5.324  0.5106  0.1692  0.2729
  221MOL0     C29743   5.360   1.973   5.205 -0.2397  0.4542  0.1524
  221MOL0    Cl29744   5.476   2.109   5.175  0.1442  0.2351  0.1155
  221MOL0     C29745   4.908   2.064   6.158 -0.7352  0.3981 -0.0107
  221MOL0     C29746   4.849   2.077   6.284  0.4110 -0.7649 -0.5897
  221MOL0     O29747   4.686   2.207   6.484  0.0689  0.2577  0.1057
  221MOL0     C29748   4.697   2.017   6.770 -0.5995  0.5729 -0.0064
  221MOL0     C29749   4.653   2.008   6.902 -0.7165  0.7626  0.0751
  221MOL0     N29750   3.858   2.135   7.410 -0.1276  0.3269  0.1442
  221MOL0     N29751   3.760   2.215   7.413 -0.6541 -0.4887  0.1629
  221MOL0     C29752   3.874   3.377   7.934  0.2949  1.1918  0.6082
  221MOL0     C29753   3.823   3.493   7.987 -0.4495  0.8299 -0.5425
  221MOL0     C29754   3.532   3.801   8.128  0.7282  0.6287 -0.2131
  221MOL0     C29755   3.433   3.883   8.048  0.6981  0.5893 -0.4523
  221MOL0     C29756   3.388   3.999   8.108  0.4204 -0.3307  0.1711
  221MOL0     C29757   3.451   4.054   8.218  0.1187  0.0402  0.4756
  221MOL0     O29758   3.402   4.176   8.256  0.1877  0.0610 -0.5233
  221MOL0     C29759   3.487   4.263   8.327 -1.3458 -0.4467  0.1381
  221MOL0     C29760   3.475   4.276   8.484  0.0398  1.1398  0.1080
  221MOL0     C29761   3.322   4.271   8.520 -0.9546  0.2892 -0.2415
  221MOL0     C29762   3.301   4.293   8.666 -0.9936 -0.8394 -1.4439
  221MOL0     C29763   3.358   4.414   8.723 -0.1887  0.3414 -0.5291
  221MOL0     C29764   3.428   4.506   8.759 -0.1003 -0.5897  0.1150
  221MOL0     C29765   3.542   3.980   8.286 -0.1883 -0.9041 -0.2527
  221MOL0     C29766   3.584   3.851   8.249  1.2830 -0.0940  0.3988
  221MOL0     C29767   3.677   3.781   8.348 -0.9908 -0.1531 -0.5843
  221MOL0     H29768   3.583   3.363   8.186  1.8639 -0.1844  0.8245
  221MOL0     H29769   3.655   3.160   8.082  2.2906 -0.5632  0.0019
  221MOL0     H29770   3.963   3.200   7.720  1.4524 -2.4561 -1.6746
  221MOL0     H29771   4.040   3.180   7.872 -1.3819  2.1823 -0.4966
  221MOL0     H29772   3.966   2.927   7.865  3.1998  1.6503  3.0916
  221MOL0     H29773   4.101   2.979   7.762  0.4131  2.2722  1.9931
  221MOL0     H29774   3.945   3.000   7.565  1.0719  0.3824  0.9192
  221MOL0     H29775   3.807   2.939   7.664 -0.4317 -0.2979 -0.5590
  221MOL0     H29776   3.934   2.816   7.504 -0.8129 -0.9119 -0.0624
  221MOL0     H29777   4.074   2.802   7.610  0.1744 -0.0261 -1.3140
  221MOL0     H29778   3.968   2.677   7.777 -2.0177 -2.4965  1.1167
  221MOL0     H29779   3.809   2.705   7.737  0.8919  0.4624  3.3610
  221MOL0     H29780   4.015   2.546   7.565 -0.1435  0.7702 -1.4309
  221MOL0     H29781   3.868   2.478   7.663 -1.7567 -0.0995 -1.1324
  221MOL0     H29782   3.867   2.610   7.390 -0.9397 -1.5960 -0.2396
  221MOL0     H29783   3.748   2.661   7.508  0.7392  0.4716 -0.3854
  221MOL0     H29784   3.649   2.440   7.481  0.4736  0.3838  0.3003
  221MOL0     H29785   3.712   2.483   7.316 -0.1722 -2.8713 -1.7602
  221MOL0     H29786   4.019   2.409   7.409 -1.9507  0.9388 -0.2989
  221MOL0     H29787   4.170   2.164   7.466  1.8306 -1.1730 -1.8870
  221MOL0     H29788   4.092   2.039   7.362 -0.9726 -0.1417  0.0926
  221MOL0     H29789   4.103   2.165   7.172  2.0458 -1.1222 -1.1456
  221MOL0     H29790   4.171   2.310   7.253 -0.3050  0.2345 -4.1509
  221MOL0     H29791   4.300   2.032   7.233 -0.7961  0.0877 -1.2353
  221MOL0     H29792   4.369   2.159   7.330 -2.5782 -0.0949  0.8969
  221MOL0     H29793   4.418   2.287   7.130  0.6394 -1.2844  2.1999
  221MOL0     H29794   4.301   2.186   7.030 -2.2064  1.3798  1.2090
  221MOL0     H29795   4.441   2.267   6.884  1.2812 -0.4917  1.3071
  221MOL0     H29796   4.497   2.268   6.665  0.1779  3.2465  2.3284
  221MOL0     H29797   4.673   1.793   6.306 -1.3356  2.7939  4.6741
  221MOL0     H29798   4.744   1.785   6.054  2.3955 -0.4833  0.7576
  221MOL0     H29799   4.881   2.149   5.900  1.2302  0.0921 -1.2695
  221MOL0     H29800   5.043   2.106   5.920  2.8794 -1.5123 -2.2620
  221MOL0     H29801   5.012   1.946   5.727 -0.3349 -0.0185 -6.0397
  221MOL0     H29802   4.848   2.011   5.702  0.8728 -5.1371 -0.6826
  221MOL0     H29803   4.943   2.234   5.637  0.0456 -0.4694  1.7787
  221MOL0     H29804   5.089   2.186   5.709  0.0486 -1.0478  1.0090
  221MOL0     H29805   4.978   2.046   5.452 -1.5864 -0.9323  1.4758
  221MOL0     H29806   5.129   2.005   5.534 -0.1556 -1.1098 -0.7363
  221MOL0     H29807   5.223   2.219   5.498  0.5817  2.2545 -2.2445
  221MOL0     H29808   5.067   2.274   5.440  0.6650 -0.1150  0.3903
  221MOL0     H29809   5.101   2.130   5.228 -3.0725 -0.9424  2.6268
  221MOL0     H29810   5.246   2.223   5.277 -1.1098  0.5808  0.2810
  221MOL0     H29811   5.185   1.932   5.347 -2.3809  2.8439 -0.0827
  221MOL0     H29812   5.324   2.017   5.413  0.4447  1.1642  0.2029
  221MOL0     H29813   5.412   1.880   5.230  1.9161  1.7264  0.6463
  221MOL0     H29814   5.309   1.944   5.112  0.0501 -0.5988  0.3104
  221MOL0     H29815   4.965   2.145   6.113  2.7824 -2.1427 -0.5635
  221MOL0     H29816   4.861   2.160   6.352 -0.4502 -2.6791  2.0409
  221MOL0     H29817   4.766   1.945   6.728 -1.7715  1.3462 -3.6213
  221MOL0     H29818   4.693   1.933   6.970 -1.8147  0.1399  0.0508
  221MOL0     H29819   3.964   3.394   7.875  0.5511 -0.2008  0.5717
  221MOL0     H29820   3.880   3.585   7.981 -2.9327  2.5791  0.5019
  221MOL0     H29821   3.388   3.849   7.955 -2.5451 -0.1828  1.2604
  221MOL0     H29822   3.306   4.051   8.060  0.8132  1.5878  1.4506
  221MOL0     H29823   3.468   4.366   8.297 -0.7581 -0.8983 -1.9936
  221MOL0     H29824   3.589   4.237   8.297 -1.2584 -3.9631  2.7658
  221MOL0     H29825   3.529   4.366   8.515  0.4634  0.1237  2.4978
  221MOL0     H29826   3.525   4.196   8.539 -1.3342  0.3215  0.2067
  221MOL0     H29827   3.295   4.174   8.477  0.8242  0.6617 -2.3956
  221MOL0     H29828   3.262   4.349   8.472  0.5444  1.2340 -0.6325
  221MOL0     H29829   3.197   4.306   8.697 -0.6584 -2.0487  0.3252
  221MOL0     H29830   3.346   4.213   8.727  1.2016  2.3796  1.5956
  221MOL0     H29831   3.492   4.584   8.794  1.8746 -0.2406 -3.7401
  221MOL0     H29832   3.587   4.036   8.368  0.8647 -1.1081 -0.6863
  221MOL0     H29833   3.635   3.683   8.375  1.1585 -1.0354 -0.2169
  221MOL0     H29834   3.773   3.764   8.298 -1.1416 -2.8580 -0.1221
  221MOL0     H29835   3.684   3.826   8.448 -2.0074 -4.0928  1.4641
  222MOL0     O29836   2.338   4.781   2.539 -0.3044 -0.0105  0.0272
  222MOL0     C29837   2.289   4.888   2.576  0.3380 -0.7324 -0.8645
  222MOL0     O29838   2.345   5.015   2.576 -0.0022  1.2842  0.6364
  222MOL0     C29839   2.474   5.032   2.519 -0.5619 -0.1333 -0.2147
  222MOL0     C29840   2.513   4.966   2.397 -0.3682 -0.2251 -0.3152
  222MOL0     C29841   2.643   5.001   2.354  0.0770 -0.7018  0.0874
  222MOL0     C29842   2.733   5.090   2.425 -0.5076  1.1183  0.0662
  222MOL0     O29843   2.866   5.111   2.389 -0.6661 -0.1355  0.2655
  222MOL0     C29844   2.900   5.086   2.247  0.5818 -0.3348 -0.8973
  222MOL0     C29845   3.031   5.160   2.212  0.5010 -0.1541  0.2290
  222MOL0     C29846   3.090   5.132   2.079 -0.3522  0.0096  0.3023
  222MOL0     C29847   2.989   5.132   1.966  0.2274  0.6735  0.3205
  222MOL0     C29848   3.058   5.075   1.841 -0.2452 -0.9198  0.6309
  222MOL0     C29849   2.963   5.097   1.727  0.1465  0.1094  0.0365
  222MOL0     C29850   2.960   5.240   1.679 -0.9646 -0.1254 -1.1461
  222MOL0     C29851   2.847   5.286   1.599  0.4611  0.1514  0.7310
  222MOL0     N29852   2.797   5.198   1.485  0.1193 -0.4741 -1.0859
  222MOL0     C29853   2.861   5.114   1.402  0.2309  0.3620  0.2168
  222MOL0     C29854   2.771   5.074   1.303  0.3491  0.4616 -0.8104
  222MOL0     C29855   2.774   4.993   1.180  0.4944  0.5853 -0.1936
  222MOL0     C29856   2.738   4.844   1.192 -0.2278  0.6633  1.1326
  222MOL0     C29857   2.756   4.776   1.062 -0.0197 -0.0361  0.2455
  222MOL0     C29858   2.745   4.626   1.073 -0.5761  0.0359 -1.0404
  222MOL0     O29859   2.761   4.565   0.941 -0.7807 -0.1068  0.1066
  222MOL0     C29860   2.819   4.445   0.935 -0.5279  0.5410  0.1015
  222MOL0     C29861   2.886   4.381   1.040  0.4825 -0.4350 -0.1622
  222MOL0     C29862   2.951   4.260   1.019 -0.9023 -0.5144  1.2289
  222MOL0     C29863   2.965   4.214   0.892 -0.4515  0.5842  0.7535
  222MOL0     C29864   3.067   4.107   0.860  0.8033 -0.2327 -0.6232
  222MOL0     O29865   3.034   4.023   0.755  0.7543 -0.3748 -0.6611
  222MOL0     C29866   3.138   3.963   0.692  0.0834 -0.2199 -0.2982
  222MOL0     C29867   3.115   3.829   0.655 -0.2305  0.2444  0.0301
  222MOL0     C29868   3.212   3.765   0.576  0.0570 -0.4761  0.0023
  222MOL0     C29869   3.331   3.838   0.540  0.0794 -0.4138  0.0098
  222MOL0     O29870   3.434   3.774   0.473 -0.5667 -0.5251 -0.0928
  222MOL0     C29871   3.415   3.654   0.398  0.1925  0.6187  0.7496
  222MOL0     C29872   3.526   3.552   0.428 -0.0471  0.3377  0.3574
  222MOL0     C29873   3.538   3.499   0.570  0.2347 -0.0249  0.5384
  222MOL0     C29874   3.410   3.426   0.617 -0.6338  0.2937  0.5556
  222MOL0     C29875   3.402   3.385   0.759  0.0439 -0.0331 -0.3368
  222MOL0     C29876   3.261   3.329   0.800 -0.3365 -0.4668 -0.3957
  222MOL0     C29877   3.260   3.187   0.751 -0.4044 -0.0404  0.2687
  222MOL0     C29878   3.140   3.103   0.799 -0.4844  0.0521  0.1408
  222MOL0    Cl29879   2.978   3.129   0.717  0.3663 -0.2556  0.3981
  222MOL0     C29880   3.349   3.967   0.578  0.5595 -0.9498 -0.6571
  222MOL0     C29881   3.259   4.033   0.655  0.5022 -0.6801 -0.4081
  222MOL0     O29882   3.164   4.094   0.932  0.4613  0.2173 -0.4677
  222MOL0     C29883   2.898   4.280   0.781 -0.6203 -0.0753 -1.2337
  222MOL0     C29884   2.821   4.393   0.810  0.5905 -0.7759 -1.4048
  222MOL0     N29885   2.648   5.145   1.330  0.1081  0.8443  0.0331
  222MOL0     N29886   2.669   5.218   1.431  0.2275  0.6782 -0.8569
  222MOL0     C29887   2.683   5.149   2.537 -0.9243 -0.4136  0.1440
  222MOL0     C29888   2.553   5.131   2.582 -0.1618 -0.6084  0.2571
  222MOL0     C29889   2.149   4.882   2.619 -0.1755 -0.0163 -1.2833
  222MOL0     C29890   2.112   4.995   2.696 -0.3887  0.0046  0.1658
  222MOL0     C29891   1.984   5.030   2.743 -0.4209  0.3188  0.2907
  222MOL0     C29892   1.890   4.931   2.727  0.0203  0.0551 -1.0979
  222MOL0     O29893   1.763   4.935   2.769  0.1603 -0.1639 -0.1964
  222MOL0     C29894   1.728   5.044   2.865 -0.6138  1.2393  0.2263
  222MOL0     C29895   1.602   4.999   2.936  0.6359 -1.0263  0.1246
  222MOL0     C29896   1.504   5.118   2.960 -0.5011  0.3943  0.5090
  222MOL0     C29897   1.434   5.094   3.102  0.1661 -0.1472  0.4433
  222MOL0     C29898   1.322   4.999   3.094  0.0823 -0.0036 -0.3419
  222MOL0     C29899   1.218   4.937   3.088  0.1743  0.8227  0.5755
  222MOL0     C29900   1.928   4.810   2.680 -0.0005  0.6158  0.7657
  222MOL0     C29901   2.056   4.778   2.624  0.0252 -1.1832  0.0675
  222MOL0     C29902   2.093   4.647   2.587 -0.4703  0.6369  0.7310
  222MOL0     H29903   2.448   4.900   2.341 -1.2263 -2.0229  2.5801
  222MOL0     H29904   2.686   4.966   2.261  0.1232 -0.0199 -0.1537
  222MOL0     H29905   2.918   4.979   2.233 -0.4533 -0.5995 -0.2983
  222MOL0     H29906   2.810   5.117   2.194 -0.8092 -2.5604  0.0319
  222MOL0     H29907   3.094   5.114   2.289 -1.3676 -2.5983  0.4048
  222MOL0     H29908   3.018   5.268   2.223 -0.5753  0.0158 -2.0938
  222MOL0     H29909   3.134   5.032   2.090 -0.1921  0.2392  2.0857
  222MOL0     H29910   3.169   5.204   2.057 -0.2255  0.6219  2.5103
  222MOL0     H29911   2.915   5.052   1.978 -2.2145  2.4115 -2.2108
  222MOL0     H29912   2.932   5.224   1.956 -2.4229 -0.6645  2.0818
  222MOL0     H29913   3.147   5.134   1.817 -1.0838 -0.1412 -0.6886
  222MOL0     H29914   3.090   4.971   1.843  1.1550 -0.5158  2.1181
  222MOL0     H29915   3.005   5.045   1.640  2.0186  0.7311  0.4998
  222MOL0     H29916   2.869   5.048   1.750  0.3107  1.6478  5.4327
  222MOL0     H29917   3.053   5.245   1.622  0.2387 -0.9522  0.6662
  222MOL0     H29918   2.966   5.304   1.767  0.8595 -0.9806 -0.6175
  222MOL0     H29919   2.767   5.298   1.672 -0.4830  1.0521 -0.3947
  222MOL0     H29920   2.871   5.383   1.553 -2.9673  1.8852  2.2227
  222MOL0     H29921   2.963   5.078   1.403 -0.1648 -0.9597 -1.5602
  222MOL0     H29922   2.718   5.036   1.097  1.3705 -0.4114 -1.3343
  222MOL0     H29923   2.870   4.994   1.127 -0.8460 -1.9746 -2.9753
  222MOL0     H29924   2.816   4.813   1.263 -0.6787  1.3875  1.9607
  222MOL0     H29925   2.635   4.827   1.224  0.8049 -0.4998  4.2194
  222MOL0     H29926   2.858   4.793   1.025 -0.2297  1.6291  0.3442
  222MOL0     H29927   2.690   4.821   0.987 -0.6137 -0.3375  0.5850
  222MOL0     H29928   2.652   4.595   1.122  1.6722 -2.5159  2.0943
  222MOL0     H29929   2.818   4.597   1.149 -0.6628 -2.1131 -1.7105
  222MOL0     H29930   2.899   4.421   1.140  0.4580  2.7933 -1.3326
  222MOL0     H29931   3.008   4.217   1.101 -0.0240 -1.2792  0.2381
  222MOL0     H29932   3.016   3.790   0.675 -1.0235  1.3742 -1.4841
  222MOL0     H29933   3.203   3.657   0.568  0.4031 -0.7687  2.5422
  222MOL0     H29934   3.318   3.605   0.412 -0.0015  1.4766  2.8997
  222MOL0     H29935   3.414   3.681   0.293  2.1219 -0.3618  0.4418
  222MOL0     H29936   3.513   3.471   0.356  1.4118  2.3568 -2.3401
  222MOL0     H29937   3.620   3.601   0.399  0.1560 -0.1384  0.2025
  222MOL0     H29938   3.626   3.434   0.571  1.8664  1.9554  4.1946
  222MOL0     H29939   3.563   3.587   0.630 -1.5373  0.6420  0.3524
  222MOL0     H29940   3.396   3.350   0.539 -1.3932  0.8990  0.0855
  222MOL0     H29941   3.320   3.484   0.593 -0.4628  0.7063  0.9064
  222MOL0     H29942   3.429   3.472   0.821 -0.3246 -1.0368  1.3010
  222MOL0     H29943   3.480   3.313   0.785  0.9121  0.7649 -0.6626
  222MOL0     H29944   3.240   3.326   0.907 -3.2610 -1.5705 -0.8955
  222MOL0     H29945   3.178   3.387   0.758  0.4527  2.8956  2.2335
  222MOL0     H29946   3.358   3.148   0.782 -0.0609  0.8477  0.3476
  222MOL0     H29947   3.268   3.204   0.643  1.6387  1.2447  0.5538
  222MOL0     H29948   3.168   2.998   0.796 -2.0248 -0.7024  4.4296
  222MOL0     H29949   3.135   3.114   0.908 -0.6017  1.0633  0.0497
  222MOL0     H29950   3.445   4.012   0.557  0.1916 -0.5379 -1.5042
  222MOL0     H29951   3.276   4.137   0.680  2.9453 -0.8417 -1.1443
  222MOL0     H29952   2.900   4.235   0.683  0.4290 -1.3088 -0.6793
  222MOL0     H29953   2.764   4.438   0.729 -0.2767  3.2459  1.1673
  222MOL0     H29954   2.751   5.203   2.601  0.6189 -1.1555 -0.8101
  222MOL0     H29955   2.522   5.172   2.677  1.6948 -0.9696  1.0529
  222MOL0     H29956   2.186   5.072   2.719 -0.0353 -0.5744  1.0130
  222MOL0     H29957   1.962   5.126   2.789  0.1549  1.9912 -2.6625
  222MOL0     H29958   1.720   5.133   2.803 -0.3447 -0.2577 -2.1188
  222MOL0     H29959   1.809   5.046   2.939  0.6963  0.1653 -1.1093
  222MOL0     H29960   1.637   4.967   3.035  1.3996  3.8638  1.7011
  222MOL0     H29961   1.554   4.918   2.881  2.0940 -1.8338 -0.0098
  222MOL0     H29962   1.433   5.140   2.880 -4.2569 -0.4084  3.3150
  222MOL0     H29963   1.565   5.208   2.973  1.4709 -0.5222 -1.5794
  222MOL0     H29964   1.504   5.056   3.178  0.8483 -2.6062 -1.2716
  222MOL0     H29965   1.379   5.185   3.125 -2.3008 -0.7745 -2.3790
  222MOL0     H29966   1.125   4.884   3.090  1.9668 -2.9736 -2.9925
  222MOL0     H29967   1.870   4.719   2.690  0.3809  0.0718 -1.4562
  222MOL0     H29968   2.005   4.586   2.604 -0.5381  0.2221 -0.9680
  222MOL0     H29969   2.131   4.656   2.485  1.3330  1.2177  1.3972
  222MOL0     H29970   2.181   4.611   2.642 -0.5462  0.2724  0.6166
  223MOL0     O29971   9.579   1.612   3.561  0.2550  0.5165  0.0166
  223MOL0     C29972   9.604   1.521   3.632 -0.0972  0.5632  0.1238
  223MOL0     O29973   9.705   1.419   3.603  0.5288  0.3439 -0.1520
  223MOL0     C29974   9.727   1.393   3.467  0.2669 -0.2924 -0.0625
  223MOL0     C29975   9.848   1.422   3.403  0.0149  0.1075 -1.0474
  223MOL0     C29976   9.864   1.396   3.260  1.5676 -0.4560 -0.7171
  223MOL0     C29977   9.761   1.346   3.187  0.1501  0.2381  0.6114
  223MOL0     O29978   9.775   1.323   3.055 -0.5169 -0.0895 -0.0119
  223MOL0     C29979   9.778   1.185   3.020  0.0336  0.9528  0.4356
  223MOL0     C29980   9.794   1.168   2.874 -0.1209  0.2706 -0.0192
  223MOL0     C29981   9.939   1.205   2.827 -0.0540 -0.0473 -0.2497
  223MOL0     C29982   9.933   1.180   2.673 -0.6067  0.9460 -0.2243
  223MOL0     C29983  10.053   1.243   2.607 -0.6778  0.0818 -0.4630
  223MOL0     C29984  10.079   1.175   2.466  1.3525 -0.7729 -0.3895
  223MOL0     C29985  10.203   1.239   2.404 -0.0074 -0.5304  0.2379
  223MOL0     C29986  10.324   1.148   2.404 -0.1901 -0.8084 -0.0941
  223MOL0     N29987  10.444   1.222   2.366  0.4994 -0.2593  0.2492
  223MOL0     C29988  10.488   1.341   2.413 -0.8644 -0.2747 -0.5807
  223MOL0     C29989  10.580   1.388   2.329 -0.2908 -0.0531  0.0827
  223MOL0     C29990  10.670   1.510   2.363 -0.3510 -0.4523  0.5062
  223MOL0     C29991  10.752   1.505   2.494 -0.5956 -0.0156 -0.0862
  223MOL0     C29992  10.871   1.412   2.487  0.4911 -0.6379  0.4877
  223MOL0     C29993  10.953   1.399   2.615 -0.0603  0.3842  0.9481
  223MOL0     O29994  11.035   1.275   2.604 -0.4813 -0.2142  0.6279
  223MOL0     C29995  11.160   1.305   2.553  0.1897  1.0306 -0.1189
  223MOL0     C29996  11.247   1.355   2.642  0.1882  0.1252  0.2082
  223MOL0     C29997  11.371   1.401   2.593 -0.2905  0.1582 -0.5422
  223MOL0     C29998  11.406   1.394   2.454 -0.2671 -0.4773  0.7038
  223MOL0     C29999  11.546   1.411   2.425 -1.2737 -0.0187  0.4355
  223MOL0     O30000  11.628   1.465   2.525  0.0377 -0.0642 -0.3066
  223MOL0     C30001  11.766   1.440   2.516 -0.5504  0.7269  1.3359
  223MOL0     C30002  11.853   1.537   2.468 -1.0192  0.0165  0.1046
  223MOL0     C30003  11.995   1.510   2.452 -0.0572 -0.6077  0.4335
  223MOL0     C30004  12.047   1.389   2.475  0.0907 -0.3840 -0.0273
  223MOL0     O30005  12.182   1.364   2.456  0.0717 -0.8310 -0.5877
  223MOL0     C30006  12.263   1.428   2.558  0.4851  0.2849 -0.9186
  223MOL0     C30007  12.412   1.453   2.528 -0.7850 -0.3852  0.3558
  223MOL0     C30008  12.476   1.557   2.616 -0.5490 -0.1703 -0.7252
  223MOL0     C30009  12.616   1.602   2.571 -1.0177 -0.1281  0.2675
  223MOL0     C30010  12.680   1.717   2.668  0.7031 -0.1488  0.1860
  223MOL0     C30011  12.717   1.661   2.806 -0.2282 -0.0948  0.9692
  223MOL0     C30012  12.789   1.770   2.897 -0.4569 -0.1705 -0.4888
  223MOL0     C30013  12.754   1.914   2.861  0.3175 -1.0717 -0.7528
  223MOL0    Cl30014  12.583   1.953   2.914 -0.5204  0.3417  0.0676
  223MOL0     C30015  11.956   1.291   2.520 -1.0017  0.3330  0.5691
  223MOL0     C30016  11.824   1.316   2.548 -0.2446  0.6054 -0.7174
  223MOL0     O30017  11.588   1.361   2.318  0.0226  0.1634 -0.2027
  223MOL0     C30018  11.308   1.347   2.366 -0.7197 -0.0472 -0.4555
  223MOL0     C30019  11.182   1.314   2.417  0.5330 -0.2350 -0.1089
  223MOL0     N30020  10.603   1.298   2.235  0.3302 -0.0207 -0.1721
  223MOL0     N30021  10.522   1.208   2.255 -0.1655 -0.3819  0.7109
  223MOL0     C30022   9.634   1.333   3.248  0.0567  0.0343  0.0213
  223MOL0     C30023   9.618   1.358   3.381  0.5171  0.0127 -0.3909
  223MOL0     C30024   9.549   1.522   3.767 -0.0091  0.1793 -0.6676
  223MOL0     C30025   9.558   1.647   3.826  0.3015  0.0179  0.0063
  223MOL0     C30026   9.503   1.664   3.954 -0.4840  0.2236 -0.0293
  223MOL0     C30027   9.444   1.562   4.030 -0.3867  0.0271 -0.5200
  223MOL0     O30028   9.376   1.573   4.151  0.2887  0.0816  0.6168
  223MOL0     C30029   9.359   1.699   4.209 -0.4661 -0.8047 -0.1600
  223MOL0     C30030   9.243   1.703   4.299  0.2071  0.9589 -0.1705
  223MOL0     C30031   9.209   1.838   4.366 -0.4385  0.3103  0.1193
  223MOL0     C30032   9.068   1.836   4.431  0.2305  1.2342  0.0166
  223MOL0     C30033   9.065   1.760   4.561 -0.7959 -0.1045 -0.1081
  223MOL0     C30034   9.069   1.702   4.673  0.3122 -0.7326  0.0845
  223MOL0     C30035   9.442   1.430   3.969 -0.2281  0.3008 -1.0133
  223MOL0     C30036   9.490   1.414   3.837 -0.3806 -0.2796  1.0086
  223MOL0     C30037   9.448   1.287   3.764 -0.5649 -0.5120 -0.4002
  223MOL0     H30038   9.939   1.441   3.460  1.5172 -1.0290 -2.9475
  223MOL0     H30039   9.965   1.409   3.223  1.5756 -0.7562 -0.8063
  223MOL0     H30040   9.850   1.124   3.076 -1.4775 -0.9839  0.3521
  223MOL0     H30041   9.682   1.147   3.055  0.6219  0.9907  2.1742
  223MOL0     H30042   9.719   1.238   2.835  0.0210  1.4687  1.7359
  223MOL0     H30043   9.775   1.068   2.833 -0.7930  0.1128  0.6472
  223MOL0     H30044  10.024   1.150   2.868  1.9413  2.6937 -0.4480
  223MOL0     H30045   9.950   1.313   2.843  0.6924  0.1195 -1.6484
  223MOL0     H30046   9.943   1.072   2.659  0.1280  1.1064 -0.9965
  223MOL0     H30047   9.839   1.195   2.619  0.0864  3.0752 -0.9413
  223MOL0     H30048  10.041   1.349   2.583 -2.5884  0.3602  1.4666
  223MOL0     H30049  10.137   1.242   2.678 -1.8248  1.7724  0.9760
  223MOL0     H30050  10.098   1.070   2.491 -0.4323 -1.4195 -1.5661
  223MOL0     H30051   9.988   1.193   2.409  1.6214  0.9735 -0.3243
  223MOL0     H30052  10.228   1.328   2.463  0.3173 -1.6023  1.7651
  223MOL0     H30053  10.180   1.261   2.299  0.9183 -0.8123 -0.0351
  223MOL0     H30054  10.345   1.103   2.502  1.8175  0.4855  0.1436
  223MOL0     H30055  10.308   1.073   2.326 -0.6810 -1.0318  0.2144
  223MOL0     H30056  10.446   1.403   2.493 -1.3288 -1.4812  0.1373
  223MOL0     H30057  10.731   1.534   2.276 -1.8200 -1.3776 -0.8442
  223MOL0     H30058  10.602   1.594   2.384 -2.1804 -2.0988  1.5666
  223MOL0     H30059  10.785   1.606   2.520  1.1313 -0.8037  0.9629
  223MOL0     H30060  10.681   1.471   2.570  0.2715  1.3949  1.4330
  223MOL0     H30061  10.936   1.434   2.402  0.4112 -0.7222  0.4046
  223MOL0     H30062  10.833   1.316   2.452  2.4820 -1.7369  1.1683
  223MOL0     H30063  10.884   1.406   2.699 -0.6985  4.6942  0.2684
  223MOL0     H30064  11.019   1.486   2.623  2.3337 -1.1174 -0.8168
  223MOL0     H30065  11.227   1.359   2.749 -1.3347  3.3260 -0.0939
  223MOL0     H30066  11.430   1.437   2.677 -2.3376  0.7471  0.7118
  223MOL0     H30067  11.818   1.635   2.438 -1.4243  0.3195  1.4972
  223MOL0     H30068  12.059   1.594   2.428 -1.9442  0.5994 -0.6893
  223MOL0     H30069  12.224   1.530   2.563 -0.2147  0.0119 -0.6153
  223MOL0     H30070  12.245   1.372   2.651 -1.6394 -0.8670 -1.9673
  223MOL0     H30071  12.465   1.357   2.534 -2.7521 -1.5750 -0.4653
  223MOL0     H30072  12.415   1.487   2.424  0.5731 -0.0265  0.4819
  223MOL0     H30073  12.412   1.646   2.621  1.2765  1.3022 -2.1475
  223MOL0     H30074  12.473   1.516   2.717 -1.2034  1.0590 -0.2226
  223MOL0     H30075  12.610   1.646   2.471  0.9543  2.8830  1.3175
  223MOL0     H30076  12.684   1.518   2.581 -0.0667  0.7722  1.6285
  223MOL0     H30077  12.610   1.801   2.678  1.1856  0.4398 -1.0497
  223MOL0     H30078  12.765   1.765   2.618 -1.8032  2.8464 -1.5780
  223MOL0     H30079  12.628   1.613   2.847 -1.7954 -0.7457 -2.7989
  223MOL0     H30080  12.791   1.581   2.798  0.4497  0.6173 -0.2562
  223MOL0     H30081  12.897   1.763   2.881 -0.0512  1.6648  1.0615
  223MOL0     H30082  12.782   1.742   3.003  1.7774  0.7261 -0.0286
  223MOL0     H30083  12.806   1.982   2.930  0.7797  1.6129 -3.5218
  223MOL0     H30084  12.782   1.947   2.760 -2.9507  3.0121 -0.5577
  223MOL0     H30085  11.991   1.188   2.518 -3.7435 -0.6979 -2.0505
  223MOL0     H30086  11.766   1.228   2.576  2.1006 -0.6565  0.4927
  223MOL0     H30087  11.313   1.331   2.259  0.9480  0.9462 -0.5655
  223MOL0     H30088  11.101   1.269   2.360  1.3261 -2.3997  0.3625
  223MOL0     H30089   9.543   1.309   3.195 -0.5794 -1.2890  1.6097
  223MOL0     H30090   9.513   1.357   3.409  0.4097  2.1649 -0.5315
  223MOL0     H30091   9.608   1.737   3.791 -1.5405  1.6120  1.2508
  223MOL0     H30092   9.508   1.764   3.995  1.8337 -0.5518  1.8588
  223MOL0     H30093   9.342   1.768   4.126  0.4354 -2.4438 -1.7887
  223MOL0     H30094   9.444   1.728   4.272 -1.6176 -1.7590  1.9149
  223MOL0     H30095   9.243   1.623   4.374  5.7599 -1.6577 -2.3293
  223MOL0     H30096   9.156   1.675   4.240  0.7187  1.1646 -1.0319
  223MOL0     H30097   9.204   1.915   4.288  1.8693  1.0754  0.6474
  223MOL0     H30098   9.287   1.863   4.438  0.1853  0.0511 -0.4477
  223MOL0     H30099   9.021   1.934   4.444  1.9067  2.4561 -2.3688
  223MOL0     H30100   9.001   1.779   4.366  1.7454 -1.9441  1.0283
  223MOL0     H30101   9.061   1.674   4.777 -3.9124  1.4748  0.5628
  223MOL0     H30102   9.386   1.354   4.023  1.1170 -1.7426 -2.3668
  223MOL0     H30103   9.357   1.249   3.811 -1.4586  0.6346 -1.1618
  223MOL0     H30104   9.443   1.302   3.655 -2.2628 -0.5102 -0.3463
  223MOL0     H30105   9.526   1.213   3.786 -0.4493 -0.3141 -0.1482
  224MOL0     O30106   6.929   8.599  11.097  0.4648 -0.0674 -0.3504
  224MOL0     C30107   7.041   8.659  11.092  0.9918 -0.9683 -0.5250
  224MOL0     O30108   7.126   8.678  10.982 -0.1221  0.1859  0.6098
  224MOL0     C30109   7.107   8.593  10.878 -0.3201 -0.5295  0.4824
  224MOL0     C30110   7.160   8.644  10.761 -0.2692  0.8872  0.9634
  224MOL0     C30111   7.174   8.555  10.652 -0.0011  0.3511  0.5056
  224MOL0     C30112   7.112   8.434  10.650  1.1719 -0.7045 -0.8985
  224MOL0     O30113   7.108   8.353  10.539 -0.1038 -0.2924  0.5501
  224MOL0     C30114   7.234   8.338  10.486  1.0869 -0.2494 -0.0541
  224MOL0     C30115   7.250   8.205  10.408  0.8677  1.1133 -0.0777
  224MOL0     C30116   7.218   8.078  10.493  0.1681 -0.4806  0.6675
  224MOL0     C30117   7.243   7.947  10.422 -0.3060  0.0132 -1.3007
  224MOL0     C30118   7.202   7.821  10.506  0.8841 -0.2103 -0.3339
  224MOL0     C30119   7.055   7.787  10.526 -0.5406  0.0826  0.4860
  224MOL0     C30120   7.023   7.661  10.599 -0.6066  1.0446  0.2733
  224MOL0     C30121   7.072   7.532  10.531 -0.0240 -0.1749 -0.5446
  224MOL0     N30122   7.056   7.418  10.627 -0.6531  0.2412 -0.9201
  224MOL0     C30123   7.151   7.323  10.669  0.2349 -0.3091  0.2318
  224MOL0     C30124   7.083   7.221  10.722 -0.5976  0.5168 -0.3375
  224MOL0     C30125   7.130   7.096  10.794 -0.0476  0.0421 -0.2284
  224MOL0     C30126   7.275   7.116  10.846 -0.0043 -0.6831  0.0792
  224MOL0     C30127   7.342   6.999  10.923  0.0236 -0.2988 -0.0744
  224MOL0     C30128   7.302   6.981  11.077 -0.5870 -0.2929  0.2863
  224MOL0     O30129   7.159   6.981  11.096 -0.1068  0.2326 -0.2421
  224MOL0     C30130   7.097   6.869  11.153 -0.0943 -0.2775  0.1160
  224MOL0     C30131   7.147   6.804  11.265  0.3241 -0.6046 -0.6270
  224MOL0     C30132   7.083   6.707  11.333 -0.9722 -0.5832  0.0066
  224MOL0     C30133   6.958   6.662  11.288 -0.4252  0.6224  0.3321
  224MOL0     C30134   6.898   6.539  11.354 -0.6027 -0.0355  0.6369
  224MOL0     O30135   6.984   6.460  11.437 -0.5431  0.2842 -0.0682
  224MOL0     C30136   6.934   6.366  11.513  0.4312 -0.4718  0.4625
  224MOL0     C30137   7.016   6.259  11.534  0.1965  0.5506 -0.1563
  224MOL0     C30138   6.986   6.160  11.631  0.4816 -0.9742  0.0139
  224MOL0     C30139   6.870   6.178  11.706 -0.4224 -0.4149 -0.0405
  224MOL0     O30140   6.820   6.096  11.801 -0.1166  0.9023 -0.8541
  224MOL0     C30141   6.892   5.973  11.820  0.7856  1.0408 -0.5308
  224MOL0     C30142   6.805   5.870  11.897  0.2613 -0.1826  0.6480
  224MOL0     C30143   6.898   5.762  11.937  0.2959 -0.3542 -0.1944
  224MOL0     C30144   6.814   5.662  12.023 -0.8180  0.8097  0.7726
  224MOL0     C30145   6.906   5.536  12.055 -0.3252  0.2464 -0.2334
  224MOL0     C30146   7.004   5.579  12.182  0.6823  0.4257 -0.6271
  224MOL0     C30147   6.951   5.642  12.312 -0.1597  0.2253  0.2894
  224MOL0     C30148   6.844   5.546  12.370  0.0167 -0.8685  1.1386
  224MOL0    Cl30149   6.930   5.417  12.452 -0.4085  0.1774 -0.2130
  224MOL0     C30150   6.791   6.293  11.687 -1.9204 -0.0028  0.3517
  224MOL0     C30151   6.824   6.391  11.599 -0.6155 -0.4869 -0.1739
  224MOL0     O30152   6.777   6.519  11.329  0.1724  0.6318 -0.8586
  224MOL0     C30153   6.895   6.733  11.180 -0.6197 -0.8495 -0.0165
  224MOL0     C30154   6.965   6.841  11.119 -0.5931  0.0830  0.2101
  224MOL0     N30155   6.953   7.251  10.712 -0.0315  0.7725 -0.0053
  224MOL0     N30156   6.939   7.368  10.663  0.0750  0.9102 -0.3972
  224MOL0     C30157   7.079   8.381  10.771  0.4288  0.3361 -0.7531
  224MOL0     C30158   7.065   8.465  10.883 -0.4365  0.1235  0.5927
  224MOL0     C30159   7.072   8.734  11.214 -0.7810  0.2527  0.3788
  224MOL0     C30160   7.114   8.864  11.193 -0.3882 -0.3152  0.3608
  224MOL0     C30161   7.171   8.934  11.299  0.1685  0.4774 -0.1166
  224MOL0     C30162   7.180   8.888  11.428 -0.1255 -0.3230  0.5179
  224MOL0     O30163   7.251   8.966  11.525 -0.4856 -0.5987 -0.2146
  224MOL0     C30164   7.237   8.926  11.657  0.3844  0.2872  1.0175
  224MOL0     C30165   7.301   9.034  11.740 -0.6600  0.1108 -1.0216
  224MOL0     C30166   7.253   9.015  11.883 -0.3536 -0.0544 -0.0264
  224MOL0     C30167   7.297   9.130  11.971  0.3531  0.0344  0.1201
  224MOL0     C30168   7.445   9.132  11.985 -0.4435  0.0109  0.0030
  224MOL0     C30169   7.569   9.128  11.998 -0.9797  0.1067 -0.2914
  224MOL0     C30170   7.133   8.759  11.452  0.4784 -0.4486  0.9527
  224MOL0     C30171   7.079   8.678  11.351 -0.6122  0.3246 -0.4652
  224MOL0     C30172   7.024   8.545  11.391  0.8204 -0.5579  0.3122
  224MOL0     H30173   7.205   8.743  10.763  2.2552 -0.1386  3.8684
  224MOL0     H30174   7.228   8.590  10.565  0.7952 -0.8680  0.4849
  224MOL0     H30175   7.265   8.422  10.423 -0.2025  0.4380  0.1999
  224MOL0     H30176   7.302   8.335  10.572  0.0556 -1.5020  0.7703
  224MOL0     H30177   7.354   8.200  10.375  0.2405 -1.7981 -1.9968
  224MOL0     H30178   7.185   8.208  10.320  1.9576  1.3832 -0.8917
  224MOL0     H30179   7.111   8.085  10.515  0.2703 -1.0201  1.3814
  224MOL0     H30180   7.282   8.079  10.581  1.0014 -1.4675  0.0956
  224MOL0     H30181   7.200   7.943  10.322 -1.3144  1.6384 -0.9645
  224MOL0     H30182   7.352   7.940  10.419 -0.3196  0.0215 -1.9122
  224MOL0     H30183   7.243   7.741  10.444  1.0447 -1.7570  1.6734
  224MOL0     H30184   7.266   7.831  10.595  1.9883 -2.0099 -0.8864
  224MOL0     H30185   7.015   7.872  10.582  1.6062  2.6426 -1.5703
  224MOL0     H30186   7.014   7.785  10.425  2.5235 -3.2485 -0.9080
  224MOL0     H30187   6.914   7.650  10.607 -0.3471 -0.8288  1.7676
  224MOL0     H30188   7.060   7.676  10.700  0.8055 -3.2883  0.5875
  224MOL0     H30189   7.017   7.511  10.439 -0.7851 -2.4923  0.3923
  224MOL0     H30190   7.178   7.546  10.508  0.2718  0.7821  1.1749
  224MOL0     H30191   7.257   7.325  10.646  0.3873  1.2218  0.9640
  224MOL0     H30192   7.058   7.077  10.874 -1.8548 -0.3630 -1.8766
  224MOL0     H30193   7.137   7.008  10.730 -5.9800 -0.7918 -0.3032
  224MOL0     H30194   7.341   7.129  10.760 -0.9556 -2.3520 -0.9636
  224MOL0     H30195   7.281   7.202  10.913  1.1255  1.9036 -3.0925
  224MOL0     H30196   7.447   7.026  10.935 -0.3796  0.5449  1.9875
  224MOL0     H30197   7.341   6.903  10.870  0.8449 -1.5308  2.0103
  224MOL0     H30198   7.364   7.055  11.129 -1.0781 -0.0961  0.6013
  224MOL0     H30199   7.346   6.886  11.107 -2.1350 -1.5445 -1.1974
  224MOL0     H30200   7.242   6.848  11.292  0.2034 -0.3216 -0.6515
  224MOL0     H30201   7.124   6.654  11.418 -1.9671  1.3852  1.7964
  224MOL0     H30202   7.105   6.242  11.474 -0.4502 -1.2686 -0.6646
  224MOL0     H30203   7.058   6.080  11.646 -0.4784 -1.3717  3.2413
  224MOL0     H30204   6.906   5.914  11.729  0.0799 -1.6367  0.9843
  224MOL0     H30205   6.982   5.986  11.881 -0.8017 -0.1307  2.2392
  224MOL0     H30206   6.750   5.927  11.972 -0.8977 -0.8713  0.3336
  224MOL0     H30207   6.732   5.821  11.833 -0.0653  0.8269  0.2311
  224MOL0     H30208   6.944   5.713  11.850  0.3526  0.3485 -0.5692
  224MOL0     H30209   6.978   5.818  11.987 -0.2452  2.3065 -2.0798
  224MOL0     H30210   6.723   5.638  11.966 -0.5602 -0.4004  0.8442
  224MOL0     H30211   6.769   5.710  12.110 -4.3984  0.0493 -0.4468
  224MOL0     H30212   6.957   5.531  11.959 -0.9233  1.5469 -0.6420
  224MOL0     H30213   6.854   5.444  12.085  2.9378 -1.3972  0.9698
  224MOL0     H30214   7.061   5.486  12.191  1.1357  0.6518 -1.0786
  224MOL0     H30215   7.075   5.655  12.148  1.2823 -0.5733 -1.7165
  224MOL0     H30216   6.903   5.738  12.293 -2.7575 -0.8156  1.0867
  224MOL0     H30217   7.043   5.647  12.370  1.3447  3.0709 -2.1005
  224MOL0     H30218   6.792   5.612  12.441  0.8180 -1.8219  2.6546
  224MOL0     H30219   6.770   5.516  12.295 -1.5544  3.2375  0.7853
  224MOL0     H30220   6.728   6.301  11.776  0.1376 -2.5402  2.1979
  224MOL0     H30221   6.778   6.487  11.619 -0.7907 -0.9028  1.5674
  224MOL0     H30222   6.799   6.695  11.148 -0.0904  0.6677 -3.9577
  224MOL0     H30223   6.918   6.878  11.028 -0.7286 -1.8308 -0.5558
  224MOL0     H30224   7.034   8.283  10.781 -1.4914  1.2968  0.8111
  224MOL0     H30225   7.048   8.423  10.982  3.3768 -0.1426  1.3268
  224MOL0     H30226   7.109   8.920  11.100 -1.9986 -0.9701  0.0171
  224MOL0     H30227   7.209   9.033  11.275 -3.9257  1.5921 -3.1406
  224MOL0     H30228   7.292   8.834  11.677  2.1362  0.5942 -1.7163
  224MOL0     H30229   7.135   8.910  11.691 -0.3065  1.9300 -0.1139
  224MOL0     H30230   7.252   9.127  11.709 -0.2500  0.4945 -0.5262
  224MOL0     H30231   7.408   9.047  11.721 -0.0793 -1.6708  0.7552
  224MOL0     H30232   7.271   8.918  11.930 -1.1680 -0.3318 -0.2605
  224MOL0     H30233   7.144   9.025  11.877 -0.1492  4.3239  0.2558
  224MOL0     H30234   7.271   9.230  11.938  1.2639  0.1381 -0.3243
  224MOL0     H30235   7.243   9.123  12.065 -1.2579 -0.1791 -0.7824
  224MOL0     H30236   7.671   9.117  12.029 -1.3484  1.2307  1.4819
  224MOL0     H30237   7.145   8.707  11.547  1.5621 -0.7519  0.6724
  224MOL0     H30238   7.032   8.473  11.309 -1.2490  1.8337 -2.1998
  224MOL0     H30239   7.056   8.518  11.492 -0.8337  1.4581  1.4532
  224MOL0     H30240   6.919   8.574  11.399 -0.1958 -2.5261 -3.4027
  225MOL0     O30241   5.203   9.399   7.005 -0.4041  0.5654 -0.3973
  225MOL0     C30242   5.241   9.479   7.094  0.5592  0.0023  0.7304
  225MOL0     O30243   5.158   9.542   7.184  0.0550 -0.7677 -0.6658
  225MOL0     C30244   5.041   9.473   7.209 -0.5487 -0.2956  0.1672
  225MOL0     C30245   5.025   9.381   7.317  0.2955  0.2781 -0.0737
  225MOL0     C30246   4.912   9.306   7.325 -0.0434 -0.1094  0.4969
  225MOL0     C30247   4.806   9.337   7.234 -0.3695 -0.5152  0.2008
  225MOL0     O30248   4.691   9.271   7.260 -0.2568  0.5595  0.7266
  225MOL0     C30249   4.675   9.162   7.168  0.3793  0.8456 -0.6130
  225MOL0     C30250   4.551   9.077   7.209 -0.0858 -0.1680  0.4338
  225MOL0     C30251   4.543   9.009   7.350 -0.5226 -1.0107  0.0247
  225MOL0     C30252   4.675   8.938   7.379  0.4969  0.2535 -0.9116
  225MOL0     C30253   4.671   8.830   7.492  0.2724  0.6785 -0.8777
  225MOL0     C30254   4.604   8.702   7.438 -0.6220  0.6790  0.0146
  225MOL0     C30255   4.613   8.581   7.544 -0.1312  0.2965 -0.2983
  225MOL0     C30256   4.744   8.537   7.589 -0.2221  0.3101  0.1615
  225MOL0     N30257   4.738   8.402   7.661  1.3212 -0.2112  0.6471
  225MOL0     C30258   4.691   8.367   7.784 -0.2354  0.6652  0.3161
  225MOL0     C30259   4.736   8.246   7.807  0.2257  0.3668  0.6463
  225MOL0     C30260   4.732   8.182   7.943  0.5590  0.4184 -0.7557
  225MOL0     C30261   4.612   8.090   7.945  0.5812 -0.2575 -0.5674
  225MOL0     C30262   4.498   8.135   8.041  0.4280  0.4825 -0.4658
  225MOL0     C30263   4.398   8.230   7.970 -0.3051  0.5703  0.3690
  225MOL0     O30264   4.285   8.234   8.051  0.3228 -0.0327  0.4134
  225MOL0     C30265   4.181   8.141   8.024 -1.0783 -0.7217 -0.1898
  225MOL0     C30266   4.072   8.157   8.107 -0.4805 -0.4845 -0.2199
  225MOL0     C30267   3.961   8.066   8.099  0.1907 -0.3290 -0.6733
  225MOL0     C30268   3.952   7.961   8.007 -0.0687  0.5582  0.1538
  225MOL0     C30269   3.836   7.867   7.996  0.0599  0.1837 -0.3835
  225MOL0     O30270   3.828   7.795   7.882 -0.0277  0.0495  0.3830
  225MOL0     C30271   3.719   7.713   7.875  0.4270  1.2055  1.2720
  225MOL0     C30272   3.688   7.599   7.959  0.0349 -0.0168 -0.0747
  225MOL0     C30273   3.573   7.530   7.950  0.4531  1.0517 -0.3369
  225MOL0     C30274   3.486   7.550   7.838 -0.1607 -0.2123 -0.4670
  225MOL0     O30275   3.376   7.471   7.830 -0.6127  0.0987  1.0181
  225MOL0     C30276   3.292   7.480   7.712 -0.5013  0.1060  0.1050
  225MOL0     C30277   3.172   7.388   7.717  0.0477 -0.3009 -0.4528
  225MOL0     C30278   3.053   7.420   7.813 -0.5991 -0.2626  0.2180
  225MOL0     C30279   3.093   7.413   7.957 -0.1106 -0.0292 -0.4821
  225MOL0     C30280   2.970   7.384   8.042 -0.1702 -0.4535  0.0594
  225MOL0     C30281   2.974   7.423   8.194 -0.7638  0.8675 -0.1913
  225MOL0     C30282   2.940   7.574   8.210 -1.2889 -0.7822 -0.2173
  225MOL0     C30283   2.956   7.619   8.358  0.9909  0.1385 -0.7194
  225MOL0    Cl30284   2.848   7.756   8.391  0.4131 -0.6494  0.0236
  225MOL0     C30285   3.521   7.650   7.747  0.6187  0.3428  0.8047
  225MOL0     C30286   3.633   7.735   7.769 -0.0985 -0.6772  0.6134
  225MOL0     O30287   3.752   7.867   8.088  0.5452 -0.1014  0.1500
  225MOL0     C30288   4.060   7.959   7.917  0.4831  0.0615  0.1872
  225MOL0     C30289   4.172   8.040   7.925 -0.4637  0.3787  0.3573
  225MOL0     N30290   4.805   8.196   7.698  0.1647  0.0041 -0.1006
  225MOL0     N30291   4.804   8.292   7.605  0.4355 -0.2771 -0.1857
  225MOL0     C30292   4.813   9.430   7.135 -0.2806  0.8640  0.5848
  225MOL0     C30293   4.935   9.501   7.122 -0.0668 -0.2549  0.0450
  225MOL0     C30294   5.387   9.495   7.129 -0.9808 -0.7786  0.2295
  225MOL0     C30295   5.429   9.526   7.263  0.1458  0.0711  0.3342
  225MOL0     C30296   5.563   9.522   7.302  0.4372 -0.2638  0.0977
  225MOL0     C30297   5.661   9.515   7.211 -0.4944  0.5956  0.2232
  225MOL0     O30298   5.784   9.537   7.260 -0.5635 -0.7420 -0.2785
  225MOL0     C30299   5.885   9.518   7.167 -1.2094 -0.4591 -0.4130
  225MOL0     C30300   6.020   9.531   7.224  0.1560 -0.0967  0.8295
  225MOL0     C30301   6.055   9.448   7.347 -0.2838  0.8700  0.0946
  225MOL0     C30302   6.054   9.295   7.311  0.9179  0.5578  0.1349
  225MOL0     C30303   6.128   9.226   7.419  0.1017  0.0296  0.2422
  225MOL0     C30304   6.187   9.177   7.514  0.1301  0.3441  0.5230
  225MOL0     C30305   5.627   9.494   7.072 -0.1748  0.7162  0.0607
  225MOL0     C30306   5.487   9.481   7.029 -0.3697 -0.5467 -0.2992
  225MOL0     C30307   5.457   9.490   6.876 -0.6063 -0.0049 -0.6666
  225MOL0     H30308   5.111   9.367   7.381  0.6144 -1.2850 -0.7875
  225MOL0     H30309   4.889   9.220   7.387 -0.9457 -0.2439 -0.0191
  225MOL0     H30310   4.653   9.202   7.069  0.3832  2.2916 -0.0463
  225MOL0     H30311   4.760   9.092   7.163 -2.1843 -2.7176  1.1649
  225MOL0     H30312   4.548   8.999   7.133  2.6810 -0.6263  0.6779
  225MOL0     H30313   4.461   9.136   7.195 -1.0008 -1.1858  1.6998
  225MOL0     H30314   4.455   8.946   7.365 -1.2671  0.4848  2.6438
  225MOL0     H30315   4.513   9.081   7.427 -2.2103  1.0441 -2.3862
  225MOL0     H30316   4.703   8.884   7.288  0.8771  0.7450 -1.0914
  225MOL0     H30317   4.751   9.014   7.401 -0.0926  0.9181 -1.1268
  225MOL0     H30318   4.771   8.807   7.529 -0.8651  0.0232  2.0029
  225MOL0     H30319   4.617   8.876   7.574 -1.1884 -1.7558 -0.3540
  225MOL0     H30320   4.501   8.712   7.403  0.2488  0.5462 -2.8528
  225MOL0     H30321   4.665   8.662   7.357  2.3967 -2.4562  3.4254
  225MOL0     H30322   4.559   8.495   7.504  0.2569 -0.1955  0.2291
  225MOL0     H30323   4.556   8.613   7.631 -0.8345  1.3429 -1.1243
  225MOL0     H30324   4.819   8.532   7.509  0.0705  1.5369  0.3453
  225MOL0     H30325   4.765   8.616   7.661  0.4623  0.5005 -0.2375
  225MOL0     H30326   4.638   8.426   7.858  1.8637  3.2213 -0.0847
  225MOL0     H30327   4.818   8.116   7.959 -0.0127 -0.2180 -0.1917
  225MOL0     H30328   4.719   8.257   8.021 -0.9371 -0.8131  0.2574
  225MOL0     H30329   4.579   8.074   7.842  3.5899 -2.8769 -1.2572
  225MOL0     H30330   4.649   7.993   7.978  0.3557 -0.1728 -0.0613
  225MOL0     H30331   4.526   8.166   8.142 -0.9668  1.0736 -0.2411
  225MOL0     H30332   4.448   8.039   8.057  0.8025  0.3749  0.1128
  225MOL0     H30333   4.374   8.201   7.867  0.5389 -1.1813  0.6380
  225MOL0     H30334   4.432   8.334   7.960 -3.0763  1.4366 -1.0989
  225MOL0     H30335   4.073   8.240   8.177  0.4081  1.0969 -2.0317
  225MOL0     H30336   3.887   8.077   8.177  2.1285  0.1551  1.1795
  225MOL0     H30337   3.756   7.571   8.038 -1.7576 -0.0286  1.5292
  225MOL0     H30338   3.550   7.444   8.013  0.8212  1.2939  0.1428
  225MOL0     H30339   3.261   7.585   7.708  1.7314  0.7782 -2.7201
  225MOL0     H30340   3.347   7.445   7.624  2.5621  0.8277  1.6236
  225MOL0     H30341   3.125   7.389   7.619  0.7215 -0.0457 -0.7780
  225MOL0     H30342   3.200   7.283   7.727 -2.1187 -1.1337 -2.3210
  225MOL0     H30343   3.023   7.518   7.775  1.2084  0.1858 -0.1513
  225MOL0     H30344   2.968   7.353   7.795  0.1338 -2.0395  2.7297
  225MOL0     H30345   3.144   7.503   7.993 -2.0716  0.4866  1.2128
  225MOL0     H30346   3.158   7.326   7.967 -1.4610 -1.0505 -0.2982
  225MOL0     H30347   2.962   7.275   8.037 -1.5888 -0.3315 -0.8673
  225MOL0     H30348   2.884   7.432   7.994 -0.5057 -2.9743 -2.0424
  225MOL0     H30349   2.893   7.365   8.239 -1.7404  2.1192 -0.3086
  225MOL0     H30350   3.074   7.402   8.233 -0.2332  0.7548 -1.5408
  225MOL0     H30351   2.837   7.592   8.178 -1.3718 -0.9809 -0.0650
  225MOL0     H30352   3.009   7.645   8.164  0.2828 -2.5412 -0.6930
  225MOL0     H30353   2.916   7.542   8.424  2.2257  1.2005  1.3883
  225MOL0     H30354   3.059   7.637   8.392  0.4024  3.2739 -0.2335
  225MOL0     H30355   3.457   7.670   7.662 -0.3288 -3.9152  0.2963
  225MOL0     H30356   3.648   7.805   7.687 -0.4900  0.0663  1.1675
  225MOL0     H30357   4.057   7.886   7.836  2.1996  0.8633 -0.6634
  225MOL0     H30358   4.250   8.017   7.853  2.1168 -1.2569  3.4146
  225MOL0     H30359   4.726   9.462   7.079 -2.2074  3.6444  4.6689
  225MOL0     H30360   4.940   9.574   7.042 -0.4077 -0.6898 -0.3777
  225MOL0     H30361   5.353   9.540   7.339  0.6377 -0.0634  0.8530
  225MOL0     H30362   5.577   9.538   7.409 -1.8625  2.9414  0.0473
  225MOL0     H30363   5.877   9.597   7.092 -0.8291 -0.3419 -0.3297
  225MOL0     H30364   5.878   9.425   7.109 -0.4843 -0.9169  0.2079
  225MOL0     H30365   6.022   9.634   7.259  1.5764  0.8880 -1.9203
  225MOL0     H30366   6.095   9.518   7.145 -0.7373 -1.8757  0.2183
  225MOL0     H30367   5.983   9.467   7.427 -0.7635  1.4294 -0.4573
  225MOL0     H30368   6.154   9.478   7.383 -0.4682  1.9318 -0.2459
  225MOL0     H30369   5.955   9.253   7.295  0.4811  1.7824 -0.5867
  225MOL0     H30370   6.116   9.287   7.221  1.4910 -1.3530  0.6474
  225MOL0     H30371   6.238   9.131   7.597  2.4859  1.4346 -0.2205
  225MOL0     H30372   5.694   9.483   6.988 -2.4238  0.1655 -1.7447
  225MOL0     H30373   5.404   9.397   6.853 -1.3726  0.0379  0.8077
  225MOL0     H30374   5.415   9.586   6.847  1.2345  0.7505 -0.9405
  225MOL0     H30375   5.546   9.505   6.814 -0.7726 -0.0697 -0.9247
  226MOL0     O30376   7.228   3.101   8.420 -0.7938 -0.0115  0.3435
  226MOL0     C30377   7.207   2.983   8.462 -0.5668  0.1865  0.3151
  226MOL0     O30378   7.301   2.887   8.456 -0.1626 -0.3049  0.5993
  226MOL0     C30379   7.425   2.891   8.398  0.3894  0.3420 -0.6467
  226MOL0     C30380   7.487   3.004   8.336  0.3562 -0.6059 -0.0654
  226MOL0     C30381   7.617   2.993   8.295  0.3731  1.2548 -0.3719
  226MOL0     C30382   7.686   2.863   8.293  0.1379 -0.1762  0.5648
  226MOL0     O30383   7.815   2.859   8.242 -0.2858  0.4221 -1.1473
  226MOL0     C30384   7.904   2.959   8.280  0.0106 -0.1012  0.4087
  226MOL0     C30385   8.038   2.915   8.241  0.0276 -0.6486  0.1946
  226MOL0     C30386   8.134   3.036   8.224  0.5932  0.1159  0.5492
  226MOL0     C30387   8.151   3.124   8.356  0.0998  0.2003  0.9455
  226MOL0     C30388   8.186   3.269   8.332 -0.7470 -0.8147 -0.8337
  226MOL0     C30389   8.312   3.280   8.239 -0.0892 -0.8700 -0.2485
  226MOL0     C30390   8.344   3.435   8.216  0.0451  0.9105  0.6395
  226MOL0     C30391   8.248   3.512   8.141  0.4294 -1.3015 -0.6596
  226MOL0     N30392   8.190   3.453   8.019  0.0271 -1.3055  0.2516
  226MOL0     C30393   8.070   3.394   8.012 -1.2538 -0.3685 -0.4020
  226MOL0     C30394   8.064   3.339   7.891  0.5549 -0.6008  0.5659
  226MOL0     C30395   7.931   3.271   7.850  1.1722 -0.2370  0.7491
  226MOL0     C30396   7.799   3.323   7.915 -0.4747  0.2615 -0.2265
  226MOL0     C30397   7.680   3.263   7.843  0.6844  0.6174  0.3697
  226MOL0     C30398   7.555   3.267   7.926 -0.8676 -0.7996  0.2003
  226MOL0     O30399   7.565   3.381   8.013 -0.2799 -0.1875  0.5427
  226MOL0     C30400   7.448   3.420   8.069  0.1205  0.6017 -0.3910
  226MOL0     C30401   7.361   3.330   8.129  0.0570  1.6586 -0.7269
  226MOL0     C30402   7.244   3.372   8.194 -0.4010 -0.2552  0.5870
  226MOL0     C30403   7.225   3.512   8.206 -0.0890  0.3643 -0.3681
  226MOL0     C30404   7.112   3.570   8.278 -0.0741 -0.2754 -0.2424
  226MOL0     O30405   7.061   3.503   8.387  0.5509 -0.0243  0.6999
  226MOL0     C30406   6.939   3.552   8.431  0.2426  0.3765 -0.2554
  226MOL0     C30407   6.931   3.609   8.557 -1.1260  0.5321  0.2875
  226MOL0     C30408   6.812   3.660   8.601 -0.5257 -0.8072 -0.2108
  226MOL0     C30409   6.692   3.642   8.533 -0.1333  0.7617 -0.8269
  226MOL0     O30410   6.583   3.691   8.592  0.8289 -0.0578 -0.0532
  226MOL0     C30411   6.465   3.613   8.589  1.1215  1.1071  0.0851
  226MOL0     C30412   6.484   3.494   8.689  1.3240  0.0772  0.5058
  226MOL0     C30413   6.339   3.464   8.727  0.6460 -0.7906 -0.1754
  226MOL0     C30414   6.334   3.323   8.785  0.2198 -0.2976  0.1924
  226MOL0     C30415   6.417   3.301   8.915  0.4849  0.6586  0.2799
  226MOL0     C30416   6.331   3.321   9.038 -0.9299 -1.2240 -1.2949
  226MOL0     C30417   6.425   3.299   9.154  0.0016 -0.4119  0.4910
  226MOL0     C30418   6.382   3.358   9.283  1.0266  0.4507 -0.2330
  226MOL0    Cl30419   6.512   3.286   9.389  0.1788 -0.0344  0.0938
  226MOL0     C30420   6.702   3.553   8.424 -0.2900 -0.1528 -0.5141
  226MOL0     C30421   6.821   3.509   8.364 -0.1649  0.9714 -1.2387
  226MOL0     O30422   7.088   3.680   8.244  0.3085 -0.3903  0.2458
  226MOL0     C30423   7.323   3.599   8.159 -0.3307 -0.7273 -0.1153
  226MOL0     C30424   7.431   3.548   8.086 -0.1247 -0.2616 -0.4356
  226MOL0     N30425   8.168   3.388   7.817 -0.4185  0.1588  0.6530
  226MOL0     N30426   8.244   3.448   7.898 -0.0253 -0.8254 -0.3245
  226MOL0     C30427   7.619   2.756   8.341  0.6160  0.4431 -0.7241
  226MOL0     C30428   7.495   2.766   8.400  0.2578 -0.7062  0.0591
  226MOL0     C30429   7.087   2.953   8.538 -0.1452  0.1810 -0.8930
  226MOL0     C30430   7.077   2.822   8.589 -0.1788  0.5076 -0.2089
  226MOL0     C30431   6.967   2.783   8.662 -0.3623  0.5898  0.7063
  226MOL0     C30432   6.856   2.869   8.680 -0.1776 -0.1672 -0.0153
  226MOL0     O30433   6.756   2.804   8.754  0.3083 -0.4820  0.3076
  226MOL0     C30434   6.665   2.894   8.818 -0.4879  0.5478 -0.5625
  226MOL0     C30435   6.546   2.821   8.879 -0.4592  0.2255  0.4604
  226MOL0     C30436   6.460   2.736   8.780 -0.5514 -0.3231 -1.5483
  226MOL0     C30437   6.376   2.833   8.681  0.3699 -1.0357 -0.3826
  226MOL0     C30438   6.285   2.925   8.757  0.3720  0.1807  0.3700
  226MOL0     C30439   6.209   2.997   8.813 -0.3539  0.7106 -0.3561
  226MOL0     C30440   6.864   2.995   8.639 -0.9053 -0.0216 -0.9628
  226MOL0     C30441   6.976   3.037   8.559  0.5067 -0.5864 -0.5130
  226MOL0     C30442   6.970   3.179   8.510  0.7380 -0.6608 -0.7903
  226MOL0     H30443   7.434   3.098   8.323  0.6199 -0.5525 -0.8414
  226MOL0     H30444   7.648   3.088   8.252 -1.2320  1.9761  0.0061
  226MOL0     H30445   7.878   3.044   8.216 -0.1137  0.5555  1.3096
  226MOL0     H30446   7.899   2.969   8.389 -0.0547 -0.5450  0.4453
  226MOL0     H30447   8.028   2.860   8.146  1.6034  1.2856 -1.1904
  226MOL0     H30448   8.090   2.849   8.311  0.1221  0.2538  1.0042
  226MOL0     H30449   8.109   3.094   8.134 -3.0034 -1.1423  0.5898
  226MOL0     H30450   8.234   2.994   8.207  0.2738 -1.2543  1.8389
  226MOL0     H30451   8.069   3.113   8.427 -0.8616  1.5381  0.0963
  226MOL0     H30452   8.235   3.068   8.399 -1.8600 -3.5260  0.3662
  226MOL0     H30453   8.103   3.326   8.290  1.9986  4.8344  0.4456
  226MOL0     H30454   8.215   3.318   8.425 -3.4900 -0.0138 -0.3060
  226MOL0     H30455   8.403   3.242   8.288  0.8134  3.2751  1.7876
  226MOL0     H30456   8.296   3.246   8.137  0.2976 -0.4783 -0.4460
  226MOL0     H30457   8.437   3.449   8.159  0.7596 -0.6817  1.3392
  226MOL0     H30458   8.363   3.485   8.311 -1.2328  0.2998  1.2370
  226MOL0     H30459   8.157   3.535   8.196 -0.1384 -1.7746 -1.3767
  226MOL0     H30460   8.295   3.600   8.095  0.3289 -0.2571  1.1543
  226MOL0     H30461   7.997   3.391   8.092 -1.6416  2.6580 -0.5298
  226MOL0     H30462   7.919   3.267   7.741 -1.5577  3.6106  0.7203
  226MOL0     H30463   7.949   3.167   7.878  3.1064 -0.9243 -2.4470
  226MOL0     H30464   7.791   3.293   8.020 -0.5283 -0.1270 -0.3395
  226MOL0     H30465   7.787   3.432   7.916  1.4313  0.5974 -3.0051
  226MOL0     H30466   7.708   3.164   7.804  3.1469  1.6442 -0.6302
  226MOL0     H30467   7.650   3.334   7.765  1.5570  0.8255  0.2171
  226MOL0     H30468   7.537   3.176   7.985  0.3472 -0.3987  1.2405
  226MOL0     H30469   7.467   3.277   7.863 -0.6700  0.4663  0.1033
  226MOL0     H30470   7.381   3.224   8.141 -0.8076  1.4775 -0.8209
  226MOL0     H30471   7.186   3.287   8.228  1.7344 -1.9551  0.2014
  226MOL0     H30472   7.026   3.614   8.610 -1.1488  0.4178  0.3399
  226MOL0     H30473   6.814   3.706   8.700 -3.6307 -0.5464 -0.1625
  226MOL0     H30474   6.379   3.671   8.624 -2.6704 -3.8748 -0.0035
  226MOL0     H30475   6.451   3.585   8.484 -1.1179 -1.8143  1.0432
  226MOL0     H30476   6.537   3.410   8.644  1.8022 -0.6599  2.3519
  226MOL0     H30477   6.552   3.531   8.766  1.0933  0.2809  0.6167
  226MOL0     H30478   6.308   3.537   8.802 -0.1545  0.0801 -1.3037
  226MOL0     H30479   6.263   3.473   8.649  0.5547  2.7864  0.1626
  226MOL0     H30480   6.358   3.246   8.711 -2.5929 -1.8181  0.7089
  226MOL0     H30481   6.227   3.311   8.806 -0.7297  1.6127 -2.9925
  226MOL0     H30482   6.496   3.377   8.912 -1.1700  2.4420 -1.7290
  226MOL0     H30483   6.460   3.200   8.916  2.4134  1.3327 -2.3645
  226MOL0     H30484   6.295   3.424   9.043  3.2710  0.4741 -2.1518
  226MOL0     H30485   6.244   3.254   9.034 -2.1048  0.3188 -2.9678
  226MOL0     H30486   6.521   3.339   9.122  0.6658 -0.8518  1.8694
  226MOL0     H30487   6.449   3.193   9.171  1.0316  0.1020  2.5944
  226MOL0     H30488   6.370   3.467   9.287 -0.4034  0.2761  1.7919
  226MOL0     H30489   6.287   3.311   9.309 -1.2730  3.8530 -1.6739
  226MOL0     H30490   6.614   3.518   8.372 -0.9847  0.5954  0.1461
  226MOL0     H30491   6.835   3.450   8.274 -1.6487 -3.5609  1.1756
  226MOL0     H30492   7.307   3.705   8.176 -1.7842 -1.0242  0.5260
  226MOL0     H30493   7.507   3.615   8.047 -0.3696  0.9440  1.0742
  226MOL0     H30494   7.669   2.660   8.334 -1.8633 -0.9449 -0.3645
  226MOL0     H30495   7.451   2.678   8.446 -0.5434 -0.7317 -0.7334
  226MOL0     H30496   7.154   2.746   8.582 -3.1475 -2.7251 -0.4006
  226MOL0     H30497   6.961   2.681   8.699  1.9461  0.8084  1.8235
  226MOL0     H30498   6.624   2.973   8.755  0.6273  0.7774 -1.0182
  226MOL0     H30499   6.730   2.941   8.892  0.9498  0.3457 -1.6578
  226MOL0     H30500   6.492   2.899   8.933 -1.5228  0.9289 -1.5236
  226MOL0     H30501   6.594   2.758   8.955 -0.5425  0.1670  0.4658
  226MOL0     H30502   6.388   2.691   8.850  1.9644 -1.1186  0.6868
  226MOL0     H30503   6.526   2.655   8.750  0.0497 -0.8425  0.9483
  226MOL0     H30504   6.433   2.902   8.619 -3.1996  2.6512  0.0374
  226MOL0     H30505   6.326   2.773   8.604  1.8689 -0.6303 -1.7276
  226MOL0     H30506   6.139   3.065   8.857  0.3455  1.4154 -0.2968
  226MOL0     H30507   6.784   3.064   8.662  0.0188  0.1517  2.2099
  226MOL0     H30508   6.942   3.173   8.405  1.7863 -4.7329 -1.0146
  226MOL0     H30509   6.897   3.242   8.562  2.4999 -0.2964  1.4120
  226MOL0     H30510   7.058   3.243   8.523  1.3134 -1.4051 -0.9735
  227MOL0     O30511   0.287   7.796   4.639  0.0171 -0.1679  0.3350
  227MOL0     C30512   0.331   7.905   4.612  0.4220 -0.1048  1.1271
  227MOL0     O30513   0.284   7.982   4.514 -0.3769  0.5407 -0.0720
  227MOL0     C30514   0.170   7.956   4.435  0.7644 -0.9478 -1.5253
  227MOL0     C30515   0.110   8.070   4.398  0.2833 -0.2771 -0.9205
  227MOL0     C30516   0.007   8.067   4.309  0.5853 -0.1988  0.5699
  227MOL0     C30517  -0.053   7.953   4.267 -0.5416  0.5972  0.1025
  227MOL0     O30518  -0.164   7.961   4.188  0.0536  0.0648  0.2496
  227MOL0     C30519  -0.236   7.842   4.150  0.9591  0.1498  0.2290
  227MOL0     C30520  -0.331   7.858   4.033  0.0379 -0.6844  0.1903
  227MOL0     C30521  -0.450   7.755   4.042  0.1370 -0.3092 -0.0601
  227MOL0     C30522  -0.527   7.762   3.907  0.0278  0.4688  0.0144
  227MOL0     C30523  -0.662   7.692   3.896 -0.6543  0.0971 -0.6608
  227MOL0     C30524  -0.733   7.731   3.769 -0.4415  1.1699  0.5166
  227MOL0     C30525  -0.869   7.645   3.757 -0.3664 -0.2285  0.5830
  227MOL0     C30526  -0.839   7.500   3.696 -0.5050  0.4916 -0.4185
  227MOL0     N30527  -0.965   7.435   3.635 -0.3048  0.0810 -0.4719
  227MOL0     C30528  -1.058   7.391   3.733 -0.1374  1.0035  0.2876
  227MOL0     C30529  -1.127   7.302   3.658 -1.3685  0.8649  0.3101
  227MOL0     C30530  -1.261   7.248   3.713  0.7702 -0.4601 -0.1304
  227MOL0     C30531  -1.309   7.302   3.850 -0.0275 -0.2641  0.4190
  227MOL0     C30532  -1.457   7.259   3.856 -0.3273  0.2920 -0.4975
  227MOL0     C30533  -1.503   7.312   3.991 -0.3857 -0.2922 -0.8167
  227MOL0     O30534  -1.636   7.280   4.016  0.2826  0.4908  0.2258
  227MOL0     C30535  -1.738   7.352   3.958 -0.3625  0.2634  0.2517
  227MOL0     C30536  -1.864   7.302   3.983  1.1165  0.2639 -1.0068
  227MOL0     C30537  -1.978   7.360   3.924 -0.5518 -0.1557 -0.7906
  227MOL0     C30538  -1.971   7.478   3.848 -0.3049  0.2737  0.9447
  227MOL0     C30539  -2.094   7.543   3.800 -0.0490 -1.5624 -0.4964
  227MOL0     O30540  -2.110   7.681   3.788  0.1064  0.4586 -0.7369
  227MOL0     C30541  -2.237   7.723   3.772 -0.2645 -0.8910  0.4096
  227MOL0     C30542  -2.323   7.732   3.880 -0.7051  0.0107  0.2006
  227MOL0     C30543  -2.453   7.779   3.859  0.3664  0.4608  0.0696
  227MOL0     C30544  -2.505   7.815   3.734 -0.7186  0.5053  0.8206
  227MOL0     O30545  -2.629   7.847   3.703 -0.4557 -0.1204 -0.4867
  227MOL0     C30546  -2.733   7.775   3.762 -0.2021 -0.0707  0.1256
  227MOL0     C30547  -2.835   7.750   3.647  0.6052 -0.6158  0.8384
  227MOL0     C30548  -2.775   7.666   3.534 -0.0495 -0.0230  0.5606
  227MOL0     C30549  -2.733   7.518   3.572  0.5736  0.8649  0.2656
  227MOL0     C30550  -2.693   7.452   3.435  0.2947  0.9728  1.2786
  227MOL0     C30551  -2.603   7.326   3.459  0.8128 -0.6648  0.4714
  227MOL0     C30552  -2.580   7.263   3.322  1.0079 -0.7891  0.7507
  227MOL0     C30553  -2.504   7.134   3.324 -0.0079 -0.2046 -0.0766
  227MOL0    Cl30554  -2.621   6.997   3.380 -0.5898  0.3471 -0.3721
  227MOL0     C30555  -2.412   7.814   3.627  0.0424  0.6099  0.0583
  227MOL0     C30556  -2.280   7.764   3.641 -0.2820 -0.2112 -0.2425
  227MOL0     O30557  -2.185   7.467   3.757 -0.0920  0.0230  0.6464
  227MOL0     C30558  -1.844   7.526   3.818  0.1281  1.1095  0.2080
  227MOL0     C30559  -1.731   7.473   3.886  0.9067 -0.7522 -0.0950
  227MOL0     N30560  -1.073   7.285   3.527 -1.0326  1.1502 -0.7517
  227MOL0     N30561  -0.964   7.355   3.524  0.9335 -0.0693  1.6736
  227MOL0     C30562   0.000   7.827   4.320 -0.1031 -0.2403 -0.3799
  227MOL0     C30563   0.110   7.839   4.402  0.8848  0.7961  0.3113
  227MOL0     C30564   0.440   7.961   4.701 -0.3638  0.7448 -0.0787
  227MOL0     C30565   0.457   7.902   4.834  0.5298 -0.4944  0.3467
  227MOL0     C30566   0.548   7.957   4.933  0.3723  0.4870  0.2021
  227MOL0     C30567   0.623   8.074   4.909 -0.1308  0.3691  0.6113
  227MOL0     O30568   0.700   8.133   5.009  0.8800  0.3130 -0.3096
  227MOL0     C30569   0.783   8.250   5.011  0.3636 -0.4957 -0.2536
  227MOL0     C30570   0.904   8.259   4.909  0.5190 -0.4815  0.1957
  227MOL0     C30571   1.041   8.272   4.977  0.0715  1.4143  0.0623
  227MOL0     C30572   1.078   8.139   5.049  0.1090 -0.9514 -0.1674
  227MOL0     C30573   1.064   8.137   5.194 -0.6651  0.1516 -0.4683
  227MOL0     C30574   1.046   8.126   5.316  0.1722  0.6370  0.4603
  227MOL0     C30575   0.604   8.136   4.786  0.3159  0.1608  0.2692
  227MOL0     C30576   0.513   8.084   4.686  0.7247  0.4800  0.2808
  227MOL0     C30577   0.500   8.169   4.564 -0.5819 -0.7653  0.5777
  227MOL0     H30578   0.142   8.163   4.444 -0.0491 -0.9013  0.6388
  227MOL0     H30579  -0.040   8.154   4.264  0.0310 -1.5973 -1.7722
  227MOL0     H30580  -0.172   7.754   4.141 -1.3775 -2.0909  3.2731
  227MOL0     H30581  -0.302   7.823   4.235  0.8192  0.8651  0.2928
  227MOL0     H30582  -0.275   7.834   3.942 -3.4126 -3.1525 -1.4787
  227MOL0     H30583  -0.375   7.958   4.039  2.4106  0.3716  1.5801
  227MOL0     H30584  -0.510   7.793   4.124 -3.0507 -0.7022 -2.0492
  227MOL0     H30585  -0.415   7.655   4.068  0.0721  0.0149  1.3618
  227MOL0     H30586  -0.564   7.864   3.893 -0.6753  0.2844  0.4680
  227MOL0     H30587  -0.454   7.747   3.827  1.5848  2.2904  0.9944
  227MOL0     H30588  -0.649   7.584   3.906 -2.5880 -0.0349  1.2961
  227MOL0     H30589  -0.728   7.719   3.979  1.3297 -1.4340  1.5460
  227MOL0     H30590  -0.739   7.838   3.746  0.1777  1.0887 -0.0653
  227MOL0     H30591  -0.669   7.684   3.694  1.1152  1.1659  1.7992
  227MOL0     H30592  -0.927   7.686   3.673  0.4369 -1.5181 -0.6407
  227MOL0     H30593  -0.915   7.644   3.856  2.8254 -0.3289  2.1679
  227MOL0     H30594  -0.762   7.494   3.619 -3.1138 -2.5015 -3.0998
  227MOL0     H30595  -0.806   7.429   3.773 -2.3608  3.7077  3.7610
  227MOL0     H30596  -1.097   7.427   3.828 -1.9812  1.5920 -0.6304
  227MOL0     H30597  -1.331   7.280   3.637 -0.3561  0.8455  1.3974
  227MOL0     H30598  -1.255   7.139   3.726  2.4208 -0.2209  1.6949
  227MOL0     H30599  -1.261   7.242   3.928  0.3197 -1.0285 -0.3639
  227MOL0     H30600  -1.290   7.408   3.869  2.9203 -0.6017 -0.1796
  227MOL0     H30601  -1.458   7.150   3.865 -1.4400  0.4595  2.2990
  227MOL0     H30602  -1.520   7.283   3.769 -1.3857 -0.9082 -0.0990
  227MOL0     H30603  -1.494   7.420   3.999  1.5837 -0.4574 -0.2964
  227MOL0     H30604  -1.438   7.277   4.072  0.6747 -1.2410 -2.0380
  227MOL0     H30605  -1.870   7.213   4.045  0.3437  2.5314  2.5025
  227MOL0     H30606  -2.074   7.311   3.939 -0.5648 -0.5414 -2.0429
  227MOL0     H30607  -2.277   7.721   3.978  0.2685 -2.1881 -0.4521
  227MOL0     H30608  -2.521   7.772   3.942 -1.5992  1.3317 -1.3996
  227MOL0     H30609  -2.692   7.683   3.805  1.0686  0.9363  1.1663
  227MOL0     H30610  -2.782   7.828   3.844  1.5643 -0.6041  1.6008
  227MOL0     H30611  -2.925   7.702   3.686 -1.5161  3.2774  1.2744
  227MOL0     H30612  -2.864   7.850   3.613  0.2038 -1.2598 -0.7900
  227MOL0     H30613  -2.848   7.650   3.454  1.9477  0.0150 -1.3720
  227MOL0     H30614  -2.685   7.708   3.488  0.4067 -1.8763 -0.3167
  227MOL0     H30615  -2.818   7.466   3.617 -1.2217  1.0230 -2.6657
  227MOL0     H30616  -2.650   7.517   3.643  1.2520 -1.7539 -0.4567
  227MOL0     H30617  -2.637   7.515   3.366  0.2976 -2.2660 -2.0070
  227MOL0     H30618  -2.788   7.422   3.388  1.1432 -3.5488  1.9899
  227MOL0     H30619  -2.511   7.362   3.507  0.3395 -2.6121  3.0444
  227MOL0     H30620  -2.648   7.258   3.531 -0.4486  0.1144  0.4338
  227MOL0     H30621  -2.527   7.342   3.268  1.2001  0.0378  2.0950
  227MOL0     H30622  -2.666   7.246   3.257  1.7966  1.0880 -0.9081
  227MOL0     H30623  -2.473   7.090   3.228  0.5553  1.7966 -0.8680
  227MOL0     H30624  -2.417   7.143   3.389 -0.2464  4.3499 -0.0881
  227MOL0     H30625  -2.448   7.849   3.531  0.0339 -1.3848 -0.7140
  227MOL0     H30626  -2.214   7.773   3.555 -0.2774  1.6302 -0.0967
  227MOL0     H30627  -1.846   7.595   3.734 -2.8620 -0.0904 -0.8438
  227MOL0     H30628  -1.646   7.532   3.853 -1.5676  0.7382 -4.7121
  227MOL0     H30629  -0.048   7.730   4.319 -3.0000  1.0810 -2.5759
  227MOL0     H30630   0.151   7.745   4.437 -4.8892 -1.9770  0.6943
  227MOL0     H30631   0.404   7.815   4.871 -3.0596  0.9029 -1.1207
  227MOL0     H30632   0.545   7.907   5.030 -1.1141 -2.8767 -1.4094
  227MOL0     H30633   0.812   8.257   5.116 -3.5672  1.7570  0.8657
  227MOL0     H30634   0.724   8.341   4.996 -0.6185 -0.7311  1.9197
  227MOL0     H30635   0.903   8.349   4.845 -1.0669 -0.9228 -0.4512
  227MOL0     H30636   0.896   8.170   4.845  1.6153  0.3121 -1.1120
  227MOL0     H30637   1.043   8.354   5.049 -3.8875 -0.4384  2.6250
  227MOL0     H30638   1.115   8.287   4.898 -0.1423 -2.3079 -1.0407
  227MOL0     H30639   1.027   8.049   5.015 -1.4909 -0.2541  0.2786
  227MOL0     H30640   1.185   8.129   5.028  0.0609  1.7248 -2.3701
  227MOL0     H30641   1.038   8.123   5.423  0.8051 -0.8906  0.4984
  227MOL0     H30642   0.666   8.221   4.760  0.1868 -0.5127 -2.5424
  227MOL0     H30643   0.410   8.230   4.574  0.4160  1.4368 -2.4813
  227MOL0     H30644   0.588   8.233   4.553  0.5058 -2.1711  0.7667
  227MOL0     H30645   0.499   8.119   4.466 -0.3100  0.9184 -0.3228
  228MOL0     O30646  11.410   7.383   2.785 -0.2300  0.8699 -0.2203
  228MOL0     C30647  11.474   7.472   2.732  0.2295 -0.5114 -0.6255
  228MOL0     O30648  11.532   7.462   2.620  0.1284  0.3439 -0.6335
  228MOL0     C30649  11.646   7.379   2.623  0.8523 -0.3475  1.0342
  228MOL0     C30650  11.700   7.309   2.731 -0.3316  0.2640  1.1236
  228MOL0     C30651  11.826   7.260   2.724 -0.4155  0.5335 -0.0519
  228MOL0     C30652  11.904   7.278   2.613  0.6320 -0.4738  0.0085
  228MOL0     O30653  12.037   7.234   2.619 -0.1501  0.0836 -0.1899
  228MOL0     C30654  12.098   7.208   2.500 -0.8149 -0.1726  0.5063
  228MOL0     C30655  12.238   7.156   2.543 -0.4112  0.0137  0.0118
  228MOL0     C30656  12.282   7.058   2.439 -0.0922  0.2380  1.0618
  228MOL0     C30657  12.428   7.009   2.448  0.0220 -0.1051 -0.7538
  228MOL0     C30658  12.466   6.910   2.337 -0.5353  0.1215  0.2719
  228MOL0     C30659  12.601   6.845   2.378  0.3922  1.2616 -0.1396
  228MOL0     C30660  12.652   6.747   2.282  1.5101 -0.7229  0.8568
  228MOL0     C30661  12.675   6.815   2.146 -0.1489 -0.2076  0.4571
  228MOL0     N30662  12.762   6.722   2.070 -0.3927  0.1121  0.0788
  228MOL0     C30663  12.886   6.671   2.117  0.2343  0.2576  0.3709
  228MOL0     C30664  12.934   6.614   1.999 -0.8392  0.1547 -0.0009
  228MOL0     C30665  13.068   6.552   1.971  0.4538 -0.3521  0.7251
  228MOL0     C30666  13.129   6.494   2.098 -0.6765 -0.1354  0.6516
  228MOL0     C30667  13.220   6.374   2.074 -0.5017  1.3753  0.4014
  228MOL0     C30668  13.351   6.394   1.990 -0.0045  0.2841 -0.1271
  228MOL0     O30669  13.438   6.472   2.065 -1.0190  0.2253 -0.7683
  228MOL0     C30670  13.556   6.515   2.016 -1.0230  0.2545 -0.8294
  228MOL0     C30671  13.651   6.541   2.111  0.1718 -0.0119 -1.1688
  228MOL0     C30672  13.784   6.573   2.077 -0.1121  0.3250  0.3339
  228MOL0     C30673  13.819   6.588   1.939 -0.0242  0.6955 -0.2420
  228MOL0     C30674  13.959   6.629   1.900  0.4530  0.9127 -0.9541
  228MOL0     O30675  14.029   6.702   1.987  0.0363  0.0793  0.0397
  228MOL0     C30676  14.155   6.717   1.960 -0.3274 -0.8227 -0.4948
  228MOL0     C30677  14.204   6.834   1.897 -0.5780  0.6381  0.5314
  228MOL0     C30678  14.339   6.849   1.878  0.3218 -0.2928 -0.1619
  228MOL0     C30679  14.432   6.765   1.937  0.0712  1.4628  0.2131
  228MOL0     O30680  14.570   6.767   1.923 -0.2692  0.3591  0.2302
  228MOL0     C30681  14.629   6.868   1.842  0.4606 -1.2056  0.4518
  228MOL0     C30682  14.777   6.865   1.825  0.0299  0.5464 -0.0088
  228MOL0     C30683  14.858   6.897   1.951  0.0346 -0.3842 -0.4153
  228MOL0     C30684  15.011   6.857   1.921  0.4056 -0.3464  0.2784
  228MOL0     C30685  15.098   6.960   1.989  0.3957  0.8450  0.1304
  228MOL0     C30686  15.240   6.937   1.986 -0.1837 -0.1869 -0.7835
  228MOL0     C30687  15.316   7.067   2.033 -1.0762  0.4442 -0.1883
  228MOL0     C30688  15.466   7.054   2.024  0.3465  0.4027  0.6687
  228MOL0    Cl30689  15.519   7.117   1.877  0.1580 -0.0896 -0.2170
  228MOL0     C30690  14.384   6.650   2.008  0.0806 -0.5841  0.9759
  228MOL0     C30691  14.248   6.634   2.025  0.4667 -1.3102 -0.0920
  228MOL0     O30692  13.996   6.581   1.796 -0.0606 -0.3266 -0.4612
  228MOL0     C30693  13.721   6.562   1.845  1.8268 -0.3375 -0.4825
  228MOL0     C30694  13.592   6.537   1.876  0.2360  0.6527 -0.8332
  228MOL0     N30695  12.842   6.619   1.895 -0.8707 -0.2942 -0.1404
  228MOL0     N30696  12.734   6.663   1.948  0.0475 -0.5439 -0.5659
  228MOL0     C30697  11.844   7.337   2.501  0.4273 -0.1767 -0.5012
  228MOL0     C30698  11.719   7.385   2.505 -0.0221  1.2739 -0.1333
  228MOL0     C30699  11.471   7.614   2.791  0.7024  0.3148 -0.6399
  228MOL0     C30700  11.557   7.709   2.732 -0.0363  0.9130  0.5915
  228MOL0     C30701  11.546   7.841   2.764  0.1671 -0.0228 -0.1829
  228MOL0     C30702  11.464   7.892   2.868 -0.6789 -0.2439  0.7851
  228MOL0     O30703  11.454   8.024   2.894 -0.4166 -1.2514  0.2215
  228MOL0     C30704  11.390   8.099   2.782  0.3572  0.5153  0.4421
  228MOL0     C30705  11.412   8.253   2.800 -0.0321  0.4470  0.1955
  228MOL0     C30706  11.556   8.309   2.777 -0.3741 -0.0914  0.0485
  228MOL0     C30707  11.554   8.464   2.763 -0.5378 -0.9686  0.3397
  228MOL0     C30708  11.551   8.484   2.619  0.1125 -0.2209  0.0306
  228MOL0     C30709  11.530   8.505   2.503 -0.3036  0.9381  0.1344
  228MOL0     C30710  11.396   7.802   2.942 -0.1689  0.8056  0.9311
  228MOL0     C30711  11.391   7.668   2.897  0.1012  0.0620 -0.1536
  228MOL0     C30712  11.292   7.589   2.978  0.5300 -0.8295  0.2127
  228MOL0     H30713  11.651   7.293   2.827 -5.1858  1.3975 -0.8770
  228MOL0     H30714  11.863   7.200   2.807  0.1529  1.1198  0.1306
  228MOL0     H30715  12.039   7.133   2.447  0.0085 -2.2102  2.2766
  228MOL0     H30716  12.118   7.294   2.437 -0.3628  0.9026  2.0445
  228MOL0     H30717  12.227   7.101   2.637 -1.9004  0.9666  0.4230
  228MOL0     H30718  12.314   7.235   2.547  0.6041 -0.9529  0.3755
  228MOL0     H30719  12.278   7.094   2.335  1.2697 -3.3057 -0.3940
  228MOL0     H30720  12.217   6.970   2.446 -1.0681  0.9306  0.8869
  228MOL0     H30721  12.495   7.094   2.435 -0.4706  0.1892 -1.4085
  228MOL0     H30722  12.442   6.960   2.545 -1.9288  0.8020  0.0550
  228MOL0     H30723  12.395   6.828   2.322 -1.5570  0.6571  1.9056
  228MOL0     H30724  12.473   6.967   2.244  0.7268  0.5904  0.6337
  228MOL0     H30725  12.675   6.922   2.402  1.9516 -0.3471  0.3810
  228MOL0     H30726  12.587   6.796   2.475  1.3756  0.8306 -0.2140
  228MOL0     H30727  12.578   6.670   2.260 -0.5977  1.3664  0.1920
  228MOL0     H30728  12.739   6.701   2.330  1.3817  0.2957  2.1206
  228MOL0     H30729  12.579   6.822   2.094 -0.9988  0.5270  2.0129
  228MOL0     H30730  12.731   6.908   2.164  4.8762 -3.2919  3.3483
  228MOL0     H30731  12.935   6.668   2.213  0.0019 -0.3889  0.4693
  228MOL0     H30732  13.060   6.482   1.888 -0.9427 -0.0333  0.5541
  228MOL0     H30733  13.135   6.634   1.945  0.4205 -0.4449  0.3418
  228MOL0     H30734  13.177   6.578   2.148  0.5536  1.8167 -3.4054
  228MOL0     H30735  13.046   6.462   2.162 -0.6123 -0.4368  0.5884
  228MOL0     H30736  13.161   6.299   2.020  1.6268  0.5199 -0.8675
  228MOL0     H30737  13.237   6.342   2.177 -3.8843  2.1258  1.3107
  228MOL0     H30738  13.318   6.436   1.895 -1.5715 -2.0278 -0.6928
  228MOL0     H30739  13.398   6.302   1.954 -0.6137 -0.9368  1.9961
  228MOL0     H30740  13.623   6.529   2.215  2.5451 -2.9641 -0.7317
  228MOL0     H30741  13.859   6.606   2.148  0.8229  1.2413 -1.0371
  228MOL0     H30742  14.142   6.901   1.837 -0.8181 -0.0543 -0.0106
  228MOL0     H30743  14.368   6.935   1.818 -1.1707  1.1271  1.0348
  228MOL0     H30744  14.578   6.866   1.746 -0.2883 -1.5706  0.8532
  228MOL0     H30745  14.614   6.966   1.889  2.9730 -0.1334 -0.8035
  228MOL0     H30746  14.805   6.768   1.784 -1.4430 -1.3977  3.2101
  228MOL0     H30747  14.815   6.934   1.749  1.8413 -1.0105 -0.6038
  228MOL0     H30748  14.847   7.006   1.950 -0.3370 -0.4002 -1.9088
  228MOL0     H30749  14.812   6.860   2.043 -2.4300  2.4045 -0.3477
  228MOL0     H30750  15.023   6.839   1.813 -1.1407 -1.4658  0.2422
  228MOL0     H30751  15.033   6.765   1.975  3.1427  0.8632  1.3689
  228MOL0     H30752  15.069   6.961   2.095  4.2276  0.6566  1.3488
  228MOL0     H30753  15.073   7.057   1.946  0.1683  0.8145  0.1920
  228MOL0     H30754  15.271   6.848   2.041 -0.8439  0.7443  1.1865
  228MOL0     H30755  15.261   6.908   1.882  0.9925 -1.5764 -0.1953
  228MOL0     H30756  15.293   7.079   2.139  1.6925 -0.8709  0.6448
  228MOL0     H30757  15.277   7.153   1.979 -0.2861  1.1966  0.4195
  228MOL0     H30758  15.514   7.112   2.104  1.6155 -0.4940  0.5820
  228MOL0     H30759  15.499   6.951   2.038  4.3300  1.4904  0.6517
  228MOL0     H30760  14.451   6.572   2.041 -3.1918 -4.2636 -0.3627
  228MOL0     H30761  14.207   6.544   2.069 -3.4886  0.5950  0.5914
  228MOL0     H30762  13.741   6.580   1.739 -1.0051  0.6179 -0.9647
  228MOL0     H30763  13.522   6.522   1.794 -0.5978 -0.0741 -0.0082
  228MOL0     H30764  11.891   7.343   2.403 -0.9466  0.1164 -1.1652
  228MOL0     H30765  11.678   7.444   2.424 -0.7471 -0.5915 -1.1916
  228MOL0     H30766  11.627   7.683   2.653 -2.2427 -0.1342 -1.1242
  228MOL0     H30767  11.596   7.927   2.719 -1.2477  0.8696 -0.1127
  228MOL0     H30768  11.282   8.081   2.773  0.5136  0.3851 -1.7872
  228MOL0     H30769  11.441   8.060   2.694  1.5173 -0.6859  1.6079
  228MOL0     H30770  11.373   8.270   2.901  1.1950 -3.0751  1.4051
  228MOL0     H30771  11.343   8.310   2.737 -1.0487  0.7501  1.5189
  228MOL0     H30772  11.599   8.265   2.687  1.0811 -2.4715  1.7813
  228MOL0     H30773  11.617   8.281   2.864  0.7781  1.4531 -0.2042
  228MOL0     H30774  11.463   8.510   2.803 -2.5871 -3.1146 -1.5205
  228MOL0     H30775  11.644   8.510   2.804 -0.1523  0.5612 -2.0030
  228MOL0     H30776  11.523   8.496   2.396 -0.1809 -2.3586  0.3041
  228MOL0     H30777  11.336   7.833   3.027  1.5838 -0.9324  2.9283
  228MOL0     H30778  11.229   7.526   2.914 -0.9207  1.0360 -0.2666
  228MOL0     H30779  11.349   7.535   3.054  1.3559  1.1654  1.0631
  228MOL0     H30780  11.215   7.640   3.036 -2.5430 -1.2874 -3.1100
  229MOL0     O30781   8.946   4.814   2.581  0.0491  0.7009 -0.2135
  229MOL0     C30782   9.039   4.892   2.558 -0.4137 -0.3023  0.0374
  229MOL0     O30783   9.153   4.849   2.491 -0.4275  0.3215  0.3961
  229MOL0     C30784   9.141   4.730   2.426  0.4495 -0.8712  0.7516
  229MOL0     C30785   9.218   4.624   2.452 -0.5994  0.7179 -0.0359
  229MOL0     C30786   9.207   4.504   2.377 -0.1159 -0.0578  0.2344
  229MOL0     C30787   9.114   4.486   2.279  0.1570 -0.6334  0.3845
  229MOL0     O30788   9.112   4.381   2.192 -0.0179  0.4180 -0.1479
  229MOL0     C30789   9.013   4.348   2.091  0.3917  0.4530 -0.3747
  229MOL0     C30790   8.877   4.311   2.161  0.2813 -0.4891  0.9592
  229MOL0     C30791   8.788   4.232   2.064 -0.0088  0.4295 -0.1615
  229MOL0     C30792   8.644   4.214   2.108  0.2361 -0.0480 -0.0032
  229MOL0     C30793   8.554   4.335   2.072 -0.0361 -0.1494  0.1497
  229MOL0     C30794   8.513   4.329   1.921  0.4469 -0.7204 -0.1870
  229MOL0     C30795   8.425   4.449   1.884 -0.4776  0.7550 -0.9545
  229MOL0     C30796   8.280   4.400   1.865  1.4150  0.4619  0.1147
  229MOL0     N30797   8.212   4.351   1.989 -0.1861  0.7461  0.0190
  229MOL0     C30798   8.203   4.415   2.115 -0.4422 -0.8414  0.0216
  229MOL0     C30799   8.167   4.321   2.208  0.1723  0.3986  0.5382
  229MOL0     C30800   8.157   4.355   2.360 -1.2951  0.2954 -0.1915
  229MOL0     C30801   8.104   4.249   2.454  1.1441  0.0682 -0.2712
  229MOL0     C30802   8.217   4.203   2.545 -0.7611  0.2357  1.1456
  229MOL0     C30803   8.177   4.095   2.643 -0.1489  0.6438 -0.1947
  229MOL0     O30804   8.092   4.152   2.749  0.5169  0.0206  0.3801
  229MOL0     C30805   8.067   4.074   2.862  0.4649 -0.4331 -0.9869
  229MOL0     C30806   8.005   4.124   2.974 -0.5704 -0.2328  0.6026
  229MOL0     C30807   7.984   4.052   3.089  0.0081  0.8063  0.7585
  229MOL0     C30808   8.026   3.913   3.098  0.1354  0.2339  0.6892
  229MOL0     C30809   8.009   3.821   3.223 -0.1991 -0.0707  1.0367
  229MOL0     O30810   7.997   3.888   3.340  0.6729  0.5350  0.5928
  229MOL0     C30811   8.002   3.817   3.454  0.7577 -0.2320 -0.0890
  229MOL0     C30812   7.890   3.751   3.500  1.2405  0.0028  0.6076
  229MOL0     C30813   7.895   3.691   3.628  0.1285 -1.3064 -0.0618
  229MOL0     C30814   8.005   3.692   3.705  0.3203 -0.4689  0.4005
  229MOL0     O30815   7.995   3.656   3.840 -0.3207 -0.9743  0.4777
  229MOL0     C30816   7.974   3.770   3.922 -0.1208  0.1179 -0.6118
  229MOL0     C30817   7.920   3.728   4.059  0.7768 -0.8042  0.5285
  229MOL0     C30818   8.025   3.645   4.141  0.5430 -0.8207  1.2608
  229MOL0     C30819   7.990   3.667   4.283  0.4828 -0.2738  0.8771
  229MOL0     C30820   8.075   3.572   4.372 -0.4069 -0.3337  1.2649
  229MOL0     C30821   8.021   3.438   4.398  0.2689  0.1072  0.7752
  229MOL0     C30822   7.961   3.422   4.528  0.4363 -0.4200  0.2175
  229MOL0     C30823   7.875   3.297   4.541  0.5553 -0.1862  0.5496
  229MOL0    Cl30824   7.975   3.154   4.563 -0.0004 -0.3031  0.2296
  229MOL0     C30825   8.117   3.752   3.654  0.2770 -0.7773  0.1490
  229MOL0     C30826   8.120   3.807   3.525 -0.4608  0.0410  0.3472
  229MOL0     O30827   8.017   3.698   3.213  0.0135  0.0792  1.5400
  229MOL0     C30828   8.099   3.861   2.982  0.4684  0.1618 -0.1752
  229MOL0     C30829   8.097   3.936   2.865  0.1528  0.9179  0.4459
  229MOL0     N30830   8.147   4.205   2.131  0.9078 -0.7402  1.0991
  229MOL0     N30831   8.175   4.217   2.003  0.0442 -0.8908 -0.1821
  229MOL0     C30832   9.025   4.593   2.263  0.5695  0.5707  0.1803
  229MOL0     C30833   9.036   4.714   2.335 -0.1135  0.6717 -0.6427
  229MOL0     C30834   9.046   5.036   2.603 -0.0281  0.1538  0.0626
  229MOL0     C30835   9.167   5.097   2.603 -0.8834  0.1836 -0.4536
  229MOL0     C30836   9.182   5.222   2.642 -0.5022 -1.1424  0.1554
  229MOL0     C30837   9.072   5.299   2.663 -0.1399  0.1813  1.0869
  229MOL0     O30838   9.076   5.434   2.689 -0.2553 -0.2927  0.1489
  229MOL0     C30839   8.968   5.488   2.761 -0.1211 -0.0893  0.8878
  229MOL0     C30840   9.008   5.626   2.811 -0.0313  0.2265 -0.6142
  229MOL0     C30841   9.091   5.609   2.940 -0.6827 -0.0223 -0.5528
  229MOL0     C30842   9.036   5.540   3.070 -0.8910 -0.3555  0.8859
  229MOL0     C30843   8.893   5.571   3.089  0.4613  0.1229  0.7994
  229MOL0     C30844   8.785   5.621   3.112 -0.4747  0.0913 -0.5496
  229MOL0     C30845   8.944   5.234   2.662  0.1791 -0.3979  0.0348
  229MOL0     C30846   8.934   5.100   2.653  0.3724  0.2000  0.3707
  229MOL0     C30847   8.793   5.041   2.654 -0.2540 -0.4073 -0.3546
  229MOL0     H30848   9.287   4.632   2.536  0.3168 -2.2487 -0.3853
  229MOL0     H30849   9.294   4.440   2.390  1.0053  1.0869 -1.3511
  229MOL0     H30850   8.996   4.432   2.023  0.3264 -0.4257 -1.4893
  229MOL0     H30851   9.053   4.268   2.027  0.3047  1.2856 -1.5007
  229MOL0     H30852   8.821   4.400   2.191 -1.7224 -1.1676 -0.5506
  229MOL0     H30853   8.897   4.250   2.249  0.9819  1.5251  2.2652
  229MOL0     H30854   8.826   4.129   2.067 -0.5943  0.2263  0.9325
  229MOL0     H30855   8.787   4.286   1.969  0.4672  3.6959  1.5633
  229MOL0     H30856   8.604   4.122   2.062  2.5461  0.0679 -2.5130
  229MOL0     H30857   8.655   4.195   2.215 -1.3360  4.7883  1.2631
  229MOL0     H30858   8.464   4.330   2.134  1.6388 -0.0819  2.7713
  229MOL0     H30859   8.606   4.430   2.082 -2.6268  1.2355  1.4502
  229MOL0     H30860   8.604   4.345   1.862  0.3465 -0.6942 -0.3347
  229MOL0     H30861   8.477   4.230   1.895  1.6786 -1.7381  1.6977
  229MOL0     H30862   8.463   4.492   1.791  0.4907  2.0249 -0.0046
  229MOL0     H30863   8.423   4.536   1.950  0.6797  0.7687 -0.9196
  229MOL0     H30864   8.232   4.484   1.813  0.2341 -0.5338 -0.4459
  229MOL0     H30865   8.265   4.322   1.790 -3.0136 -2.0255  3.1463
  229MOL0     H30866   8.245   4.511   2.143  1.2476 -2.0045  1.7261
  229MOL0     H30867   8.263   4.365   2.383 -2.1120  1.0985  3.9433
  229MOL0     H30868   8.111   4.454   2.365 -0.4619  0.9257 -3.2335
  229MOL0     H30869   8.022   4.288   2.515  2.0264  0.0075  1.0092
  229MOL0     H30870   8.064   4.160   2.404 -0.5996  0.6626  0.0087
  229MOL0     H30871   8.250   4.288   2.606  2.3387  0.5763 -0.8318
  229MOL0     H30872   8.297   4.172   2.478  0.6083  3.5464  1.0978
  229MOL0     H30873   8.260   4.050   2.700 -1.0127 -2.2906 -1.0891
  229MOL0     H30874   8.128   4.009   2.596  1.5072  0.9290 -2.6017
  229MOL0     H30875   7.968   4.221   2.942  2.9975  1.1976  0.2972
  229MOL0     H30876   7.919   4.091   3.167 -0.5333  0.4962  0.4716
  229MOL0     H30877   7.796   3.745   3.447  1.1391  2.3279  0.4233
  229MOL0     H30878   7.812   3.636   3.672 -2.0461  3.7852  3.0171
  229MOL0     H30879   8.069   3.817   3.945 -1.5529  0.8436  5.6893
  229MOL0     H30880   7.902   3.834   3.870 -2.6042  0.2259  2.5651
  229MOL0     H30881   7.879   3.814   4.112 -0.1181  1.1278 -2.9997
  229MOL0     H30882   7.839   3.658   4.035  0.8437 -1.0159  0.9143
  229MOL0     H30883   8.009   3.540   4.114 -0.9911 -0.1048 -0.9742
  229MOL0     H30884   8.124   3.683   4.113 -0.6424  3.6700  2.2735
  229MOL0     H30885   7.885   3.655   4.311  0.7420  1.3499  2.7985
  229MOL0     H30886   8.029   3.764   4.315 -0.3161  0.2685  0.2435
  229MOL0     H30887   8.100   3.628   4.462  2.0860  3.1157 -1.2932
  229MOL0     H30888   8.173   3.553   4.327 -0.1759 -1.5457  2.2180
  229MOL0     H30889   7.943   3.420   4.324  1.0342  0.9898 -0.2864
  229MOL0     H30890   8.100   3.365   4.377 -0.3506 -0.3715  0.0989
  229MOL0     H30891   7.899   3.511   4.543  2.0549  0.4359  2.4969
  229MOL0     H30892   8.042   3.426   4.601  0.8250 -1.0753 -0.1669
  229MOL0     H30893   7.816   3.303   4.633 -0.3418 -3.8848  0.3834
  229MOL0     H30894   7.814   3.280   4.452  0.3838  2.5134  0.0877
  229MOL0     H30895   8.213   3.755   3.704  0.7321 -0.9289 -0.6896
  229MOL0     H30896   8.212   3.851   3.488 -0.6490  0.5593  0.4802
  229MOL0     H30897   8.131   3.758   2.991 -0.1172  0.0155  0.3846
  229MOL0     H30898   8.136   3.886   2.777  1.7113  2.4326  0.2059
  229MOL0     H30899   8.952   4.584   2.184  0.2955  2.2578  0.2009
  229MOL0     H30900   8.962   4.790   2.309 -1.5833 -0.1616  0.9362
  229MOL0     H30901   9.251   5.040   2.565 -1.0666 -0.6331  0.3336
  229MOL0     H30902   9.283   5.262   2.634 -1.4183  1.6132  1.2820
  229MOL0     H30903   8.937   5.415   2.837  2.1480 -0.4436  1.5436
  229MOL0     H30904   8.890   5.501   2.685  0.1054 -0.7457  0.5358
  229MOL0     H30905   8.911   5.676   2.818  0.1276  0.4529  0.0753
  229MOL0     H30906   9.067   5.681   2.737  2.9927 -1.3927  0.4388
  229MOL0     H30907   9.126   5.706   2.977  3.8297 -1.6930  0.1276
  229MOL0     H30908   9.183   5.563   2.904 -0.0513 -0.4813  1.5094
  229MOL0     H30909   9.058   5.433   3.075  1.0913  0.0129  0.8471
  229MOL0     H30910   9.093   5.578   3.156  5.3535 -1.8951 -1.9792
  229MOL0     H30911   8.694   5.668   3.143  0.9712  1.3956  1.9780
  229MOL0     H30912   8.851   5.285   2.686  0.1791 -0.3943  0.0278
  229MOL0     H30913   8.789   4.941   2.700 -0.6406 -1.7126 -3.0108
  229MOL0     H30914   8.734   5.107   2.719  1.1520  0.9011 -0.3625
  229MOL0     H30915   8.746   5.026   2.556  0.9020 -1.5695 -0.7622
  230MOL0     O30916  11.116  10.715   5.207 -0.6631 -0.2355 -0.0146
  230MOL0     C30917  11.048  10.800   5.267 -0.2523 -0.2123  0.3893
  230MOL0     O30918  11.086  10.874   5.372  0.2280  0.2640  0.3418
  230MOL0     C30919  11.201  10.835   5.438  0.1907 -0.1382 -0.2873
  230MOL0     C30920  11.300  10.929   5.469 -1.0181 -0.4335 -0.2586
  230MOL0     C30921  11.408  10.886   5.555  0.2131 -0.4423  0.3533
  230MOL0     C30922  11.427  10.757   5.590 -0.0083 -0.2946  0.1976
  230MOL0     O30923  11.528  10.721   5.670 -0.7057 -0.5491 -0.1868
  230MOL0     C30924  11.486  10.696   5.807  0.6005 -0.2801  0.4449
  230MOL0     C30925  11.584  10.694   5.913  1.1399  0.8832  0.3366
  230MOL0     C30926  11.616  10.837   5.968 -0.2688 -0.5055  0.4100
  230MOL0     C30927  11.684  10.819   6.101 -0.4807 -0.5705 -0.0020
  230MOL0     C30928  11.720  10.960   6.165  0.9112  0.0602 -0.7775
  230MOL0     C30929  11.831  11.031   6.085 -0.1391 -0.3447  0.5166
  230MOL0     C30930  11.897  11.142   6.162  0.6297 -0.1734 -0.0335
  230MOL0     C30931  12.020  11.199   6.086  0.1232 -0.3650  0.5753
  230MOL0     N30932  12.095  11.297   6.163  0.1592 -0.2331 -0.0978
  230MOL0     C30933  12.189  11.387   6.101  0.1674  0.0037  0.3120
  230MOL0     C30934  12.223  11.476   6.208  0.7890  0.2327  0.4128
  230MOL0     C30935  12.329  11.580   6.201 -0.3072  0.5877 -0.2696
  230MOL0     C30936  12.419  11.606   6.321  1.1371 -0.9835 -0.3181
  230MOL0     C30937  12.436  11.763   6.356  1.1367 -0.3742 -0.2349
  230MOL0     C30938  12.557  11.796   6.446 -1.2945  0.2096 -0.5903
  230MOL0     O30939  12.680  11.752   6.377  0.8561 -0.2528  0.2908
  230MOL0     C30940  12.799  11.798   6.418 -0.0304 -0.2860 -0.3315
  230MOL0     C30941  12.816  11.872   6.537  0.3988  0.0333  0.5702
  230MOL0     C30942  12.940  11.928   6.574  1.1787 -0.4212  0.2723
  230MOL0     C30943  13.057  11.912   6.499 -0.1370  0.4369  0.6993
  230MOL0     C30944  13.190  11.956   6.540 -0.3558 -0.3016  0.8593
  230MOL0     O30945  13.206  12.014   6.665 -1.5633 -0.2416  0.9468
  230MOL0     C30946  13.335  12.040   6.708 -0.2959 -0.4626  0.0861
  230MOL0     C30947  13.450  11.981   6.671  0.7096 -0.1221  0.9526
  230MOL0     C30948  13.572  12.037   6.725 -0.0708  0.6799  0.2664
  230MOL0     C30949  13.572  12.148   6.804  0.0480 -0.2748 -0.9128
  230MOL0     O30950  13.684  12.196   6.864  1.2021  0.1542 -0.2673
  230MOL0     C30951  13.772  12.244   6.766 -0.2357 -1.3412 -0.4484
  230MOL0     C30952  13.880  12.335   6.826 -0.0646  0.3576  0.6610
  230MOL0     C30953  13.987  12.389   6.725 -0.7181  0.4426 -0.1570
  230MOL0     C30954  13.954  12.380   6.585  0.3453 -0.4781 -0.0789
  230MOL0     C30955  14.069  12.438   6.503 -0.5502 -0.2227  0.1857
  230MOL0     C30956  14.044  12.465   6.349 -0.3092 -0.5471  0.1422
  230MOL0     C30957  14.178  12.505   6.284 -0.2894  0.2097 -0.5529
  230MOL0     C30958  14.146  12.494   6.135  0.4242  0.4521  0.5282
  230MOL0    Cl30959  14.148  12.319   6.068  0.2018 -0.2488 -0.0793
  230MOL0     C30960  13.454  12.202   6.841  0.2847  0.3479  0.3798
  230MOL0     C30961  13.333  12.146   6.794  0.5813 -0.2327  0.3936
  230MOL0     O30962  13.272  11.931   6.461  0.6492  0.5891  0.5659
  230MOL0     C30963  13.037  11.833   6.385 -0.4203  0.6410 -0.5153
  230MOL0     C30964  12.913  11.786   6.341  0.5607  0.3910  0.4151
  230MOL0     N30965  12.133  11.451   6.310  0.0421  0.1862 -0.0505
  230MOL0     N30966  12.059  11.356   6.285  0.0653 -0.8589  0.5864
  230MOL0     C30967  11.340  10.660   5.545 -0.3395  0.6260 -0.8958
  230MOL0     C30968  11.224  10.697   5.469 -0.2782  0.0447  0.0147
  230MOL0     C30969  10.919  10.829   5.215 -0.1626  0.1342  0.0008
  230MOL0     C30970  10.906  10.905   5.096  0.6565 -0.7338 -0.5444
  230MOL0     C30971  10.786  10.955   5.046  0.3905  0.2586 -0.7753
  230MOL0     C30972  10.669  10.926   5.127 -1.0424 -0.7446  0.6359
  230MOL0     O30973  10.546  10.981   5.118 -0.2091 -0.0405 -0.4920
  230MOL0     C30974  10.487  11.009   4.982 -0.4847  0.1761 -0.4737
  230MOL0     C30975  10.436  11.151   4.961 -0.4014  0.2202 -1.0308
  230MOL0     C30976  10.291  11.182   5.008 -0.1890  0.5097 -0.1190
  230MOL0     C30977  10.195  11.111   4.912 -0.0757 -0.8067  0.7270
  230MOL0     C30978  10.210  11.146   4.767  0.4803 -0.4399  0.0685
  230MOL0     C30979  10.218  11.168   4.643  0.6719 -0.0556  0.3421
  230MOL0     C30980  10.673  10.844   5.231  0.5584  1.7708  0.3820
  230MOL0     C30981  10.796  10.798   5.281  0.8228  0.3676 -0.6246
  230MOL0     C30982  10.788  10.715   5.406  0.1788  0.3683 -0.9955
  230MOL0     H30983  11.279  11.029   5.432 -0.9450 -0.2304  0.2387
  230MOL0     H30984  11.475  10.957   5.601 -0.3264 -1.0725  2.2079
  230MOL0     H30985  11.407  10.764   5.840  0.3348 -1.4889  2.4747
  230MOL0     H30986  11.445  10.596   5.797  1.1514 -0.6086  1.3572
  230MOL0     H30987  11.673  10.642   5.878 -0.6008 -2.0490 -0.0935
  230MOL0     H30988  11.538  10.628   5.988 -1.1108 -0.9049 -2.4118
  230MOL0     H30989  11.533  10.907   5.977  0.6327  0.5013  1.1834
  230MOL0     H30990  11.685  10.885   5.897 -1.3462  1.2612  0.4817
  230MOL0     H30991  11.620  10.763   6.169  0.0376 -0.0250  0.9593
  230MOL0     H30992  11.779  10.766   6.089  1.0227  2.3705 -2.5660
  230MOL0     H30993  11.638  11.032   6.170  0.2300 -0.6250 -1.7120
  230MOL0     H30994  11.754  10.933   6.265 -0.9435 -0.9320 -0.3637
  230MOL0     H30995  11.915  10.961   6.086  0.7008  0.6425  1.6146
  230MOL0     H30996  11.801  11.062   5.984 -1.7185  0.7617  1.3019
  230MOL0     H30997  11.928  11.107   6.261 -0.9286 -2.2391 -0.2172
  230MOL0     H30998  11.830  11.228   6.175  0.5517 -0.4785  1.8834
  230MOL0     H30999  12.087  11.115   6.065  0.3322  0.4262 -2.5342
  230MOL0     H31000  11.981  11.242   5.993 -0.6032  3.2725  2.3634
  230MOL0     H31001  12.223  11.367   6.000 -2.6684 -1.8055 -0.4142
  230MOL0     H31002  12.390  11.557   6.113  1.8343  2.8417  0.5055
  230MOL0     H31003  12.273  11.672   6.182 -3.8823 -0.4958  3.7213
  230MOL0     H31004  12.364  11.567   6.407 -0.1265  0.0773 -0.6132
  230MOL0     H31005  12.521  11.572   6.302  0.8380 -2.5014  0.6280
  230MOL0     H31006  12.349  11.803   6.409  2.6903  1.1491  1.2560
  230MOL0     H31007  12.422  11.821   6.264  0.3867 -0.3708 -0.1228
  230MOL0     H31008  12.556  11.738   6.539  3.6719  3.4282  1.9310
  230MOL0     H31009  12.552  11.904   6.459  0.3968  0.6387 -2.8468
  230MOL0     H31010  12.738  11.867   6.612  2.2343  2.2557  2.8290
  230MOL0     H31011  12.953  11.957   6.678  1.3429 -1.2983  0.5059
  230MOL0     H31012  13.454  11.900   6.598 -3.4686 -3.2328  3.7392
  230MOL0     H31013  13.662  11.986   6.690 -1.3459 -0.3709 -1.6754
  230MOL0     H31014  13.816  12.158   6.714  1.3660 -2.5892  2.6746
  230MOL0     H31015  13.717  12.311   6.700  0.8353 -0.5714 -0.5947
  230MOL0     H31016  13.819  12.420   6.856 -1.1319 -0.0748 -0.2224
  230MOL0     H31017  13.921  12.282   6.912  0.0622  1.2536  1.1578
  230MOL0     H31018  14.018  12.490   6.752 -2.7911  0.3686  3.0098
  230MOL0     H31019  14.072  12.322   6.742 -1.5953 -0.0967  2.5728
  230MOL0     H31020  13.858  12.431   6.571  0.9650  1.5716  2.4243
  230MOL0     H31021  13.936  12.276   6.557 -1.5297 -0.7208  1.7596
  230MOL0     H31022  14.161  12.379   6.501  0.4003  1.1992 -1.9580
  230MOL0     H31023  14.101  12.534   6.546 -0.4380 -0.8145  1.4547
  230MOL0     H31024  14.010  12.371   6.303  1.0240  0.5303 -3.3322
  230MOL0     H31025  13.975  12.549   6.334 -0.0425 -0.5824 -1.4908
  230MOL0     H31026  14.259  12.434   6.302 -0.4037  0.4871  1.2216
  230MOL0     H31027  14.216  12.602   6.318  1.8609 -0.4040 -1.0751
  230MOL0     H31028  14.053  12.544   6.107  0.9712  2.3511  1.9207
  230MOL0     H31029  14.232  12.532   6.079 -2.2587  3.6638 -1.8148
  230MOL0     H31030  13.448  12.289   6.905 -1.6777 -0.6321  1.6255
  230MOL0     H31031  13.234  12.177   6.828  0.2316  1.0126 -1.6242
  230MOL0     H31032  13.115  11.783   6.327  1.1008 -1.6780  3.1307
  230MOL0     H31033  12.904  11.722   6.254 -1.7851  0.6925  0.3904
  230MOL0     H31034  11.334  10.556   5.575 -0.3623  1.6884  3.2768
  230MOL0     H31035  11.145  10.624   5.452 -1.2969  0.3566  2.9037
  230MOL0     H31036  10.987  10.938   5.032 -2.3216 -0.3607 -4.4495
  230MOL0     H31037  10.790  11.027   4.965  0.6322  0.3445 -0.6869
  230MOL0     H31038  10.412  10.935   4.953 -0.5243  0.2130 -0.4636
  230MOL0     H31039  10.569  11.006   4.910  0.8907  0.3226  1.0186
  230MOL0     H31040  10.452  11.172   4.855 -2.9937 -1.3409 -1.8205
  230MOL0     H31041  10.504  11.216   5.017  0.6230 -0.1895 -1.7647
  230MOL0     H31042  10.282  11.291   5.019 -1.9314  0.2821  1.2404
  230MOL0     H31043  10.277  11.144   5.110  0.7336  0.2613 -0.0722
  230MOL0     H31044  10.205  11.002   4.916 -0.8898 -1.0047 -1.3749
  230MOL0     H31045  10.093  11.131   4.949 -0.1936 -2.4549  1.3943
  230MOL0     H31046  10.206  11.194   4.540 -2.7537  3.3520  1.3503
  230MOL0     H31047  10.581  10.820   5.283  1.7195  0.2717  1.8615
  230MOL0     H31048  10.699  10.745   5.463  0.3950 -2.7362  1.2349
  230MOL0     H31049  10.791  10.608   5.382 -1.4039  0.2854 -0.9156
  230MOL0     H31050  10.874  10.742   5.468  0.1352  2.5995 -1.8080
  231MOL0     O31051   2.868   4.124   8.830 -0.2821  0.2910 -0.2419
  231MOL0     C31052   2.833   4.006   8.845  0.3581  0.1023 -0.6330
  231MOL0     O31053   2.707   3.971   8.901 -0.7083  0.3810 -0.6152
  231MOL0     C31054   2.626   4.070   8.944  0.4452 -0.1319  0.3044
  231MOL0     C31055   2.519   4.107   8.859 -0.6566  0.6159 -0.2502
  231MOL0     C31056   2.438   4.213   8.890  0.1199 -0.5696 -0.2139
  231MOL0     C31057   2.453   4.288   9.006 -0.5387 -0.3744  0.0653
  231MOL0     O31058   2.400   4.410   9.039 -0.0238  1.0828  0.0366
  231MOL0     C31059   2.287   4.454   8.955 -0.2431  0.1696 -0.1361
  231MOL0     C31060   2.242   4.590   9.011 -0.8255 -0.4599  0.2957
  231MOL0     C31061   2.137   4.671   8.931  0.3309  0.0918 -0.9633
  231MOL0     C31062   2.091   4.799   9.017 -0.1089 -0.1033 -0.5094
  231MOL0     C31063   1.983   4.870   8.934  0.0875  0.8689  0.2400
  231MOL0     C31064   1.918   4.991   8.994  0.5467 -0.0459 -0.0355
  231MOL0     C31065   1.834   4.971   9.122 -0.0679 -0.3350  0.1952
  231MOL0     C31066   1.773   5.106   9.167 -0.5464  0.2031 -0.4672
  231MOL0     N31067   1.684   5.079   9.280 -1.5983 -0.4624  0.4767
  231MOL0     C31068   1.554   5.033   9.277  0.5127  0.0644 -0.1815
  231MOL0     C31069   1.535   4.980   9.396  0.1712  0.0293  0.0695
  231MOL0     C31070   1.419   4.908   9.450 -0.4234 -0.7530 -0.5696
  231MOL0     C31071   1.449   4.757   9.469  0.4983  0.1335  0.2076
  231MOL0     C31072   1.324   4.696   9.522  0.1595  1.0807  0.1754
  231MOL0     C31073   1.346   4.546   9.556  0.8265 -0.5526 -0.2432
  231MOL0     O31074   1.416   4.484   9.450 -0.1772  0.7355  0.5164
  231MOL0     C31075   1.429   4.346   9.439 -0.1532 -0.6431 -0.4949
  231MOL0     C31076   1.541   4.290   9.383  0.4078 -1.1811 -0.5791
  231MOL0     C31077   1.551   4.150   9.377 -0.1019 -0.6358 -0.1729
  231MOL0     C31078   1.448   4.069   9.423  0.2670  0.2035  0.1242
  231MOL0     C31079   1.456   3.918   9.402  0.0570 -0.7027 -0.3297
  231MOL0     O31080   1.574   3.858   9.360 -0.2520  0.0849 -0.9267
  231MOL0     C31081   1.576   3.735   9.317  0.0903  0.1305  1.1120
  231MOL0     C31082   1.478   3.677   9.233 -0.2994 -0.3194  0.7465
  231MOL0     C31083   1.497   3.545   9.181 -0.1629 -0.0440  0.3514
  231MOL0     C31084   1.614   3.467   9.215 -0.3484  0.0974  0.7340
  231MOL0     O31085   1.617   3.338   9.192  0.2679  0.4310  0.6225
  231MOL0     C31086   1.510   3.266   9.139 -0.8238 -0.2358  0.3105
  231MOL0     C31087   1.575   3.141   9.080  0.3042  0.5467  0.2447
  231MOL0     C31088   1.685   3.178   8.975  0.3846  0.1839  0.7906
  231MOL0     C31089   1.749   3.056   8.895 -0.0178 -0.0580 -1.0343
  231MOL0     C31090   1.646   2.961   8.821  0.1859 -0.9842  0.2969
  231MOL0     C31091   1.534   3.035   8.743  0.6615  0.4269 -0.3089
  231MOL0     C31092   1.421   2.931   8.712 -0.9268  0.2807 -0.4846
  231MOL0     C31093   1.291   2.989   8.662 -0.8009 -0.5308  0.1110
  231MOL0    Cl31094   1.177   2.862   8.660  0.3612 -0.1476 -0.2895
  231MOL0     C31095   1.702   3.523   9.303 -0.4081 -0.3062  0.1825
  231MOL0     C31096   1.690   3.659   9.341 -0.0729  0.4069  0.1533
  231MOL0     O31097   1.351   3.860   9.408 -0.0223 -0.2192 -0.0360
  231MOL0     C31098   1.336   4.127   9.466  0.2461 -0.1830  0.3031
  231MOL0     C31099   1.326   4.261   9.483 -0.3172 -0.1426 -0.2909
  231MOL0     N31100   1.638   5.015   9.476 -0.5364 -0.0549 -0.7703
  231MOL0     N31101   1.728   5.057   9.405 -0.3438 -1.1701 -0.3194
  231MOL0     C31102   2.543   4.237   9.106  0.3437 -0.0092 -0.5978
  231MOL0     C31103   2.628   4.128   9.075  0.6295  0.0703  0.1693
  231MOL0     C31104   2.905   3.902   8.779 -0.6494  0.6225  0.1936
  231MOL0     C31105   2.844   3.775   8.757 -0.3525  0.4586 -0.9771
  231MOL0     C31106   2.903   3.663   8.699 -0.5517 -0.1217 -0.2860
  231MOL0     C31107   3.033   3.675   8.654  0.5350  0.5906 -0.5416
  231MOL0     O31108   3.092   3.565   8.594  0.2010  0.1104  0.9110
  231MOL0     C31109   3.198   3.501   8.661  0.4228  1.2878 -0.0191
  231MOL0     C31110   3.327   3.519   8.581  0.6123 -0.6219 -0.3259
  231MOL0     C31111   3.352   3.427   8.450 -0.6949  0.1640  0.8481
  231MOL0     C31112   3.416   3.285   8.493 -0.0261  0.6034 -0.2269
  231MOL0     C31113   3.545   3.306   8.563 -0.1892  0.3221 -0.2555
  231MOL0     C31114   3.646   3.355   8.607  0.2804  0.1160 -0.8723
  231MOL0     C31115   3.103   3.797   8.667 -0.3372 -0.2717 -0.6190
  231MOL0     C31116   3.029   3.912   8.710  0.2694 -0.1468  1.1590
  231MOL0     C31117   3.101   4.046   8.702 -0.4609 -0.2692  0.2353
  231MOL0     H31118   2.515   4.048   8.768  0.8652 -0.6005  0.4196
  231MOL0     H31119   2.363   4.232   8.814  1.3616 -1.8684 -1.8489
  231MOL0     H31120   2.313   4.471   8.850  0.5591  3.8741  0.5175
  231MOL0     H31121   2.194   4.396   8.963 -0.7595  0.7569 -1.5956
  231MOL0     H31122   2.332   4.652   9.014 -1.7917  1.0125 -0.0680
  231MOL0     H31123   2.201   4.567   9.110  1.3045  0.9866  1.5918
  231MOL0     H31124   2.049   4.607   8.920 -2.2162  3.4654 -1.7962
  231MOL0     H31125   2.179   4.695   8.833  0.3632  0.5362 -0.8449
  231MOL0     H31126   2.048   4.775   9.114  1.7221 -1.6035 -0.0312
  231MOL0     H31127   2.181   4.860   9.024  0.4686 -1.1208  1.4903
  231MOL0     H31128   2.021   4.888   8.833  1.1563  1.4507  0.7357
  231MOL0     H31129   1.899   4.799   8.933 -0.0296  0.8313  3.1467
  231MOL0     H31130   1.999   5.061   9.020 -0.4563  1.0368  0.2454
  231MOL0     H31131   1.862   5.040   8.914 -0.0103 -0.3477  0.1690
  231MOL0     H31132   1.886   4.922   9.205 -3.0398 -2.1885  1.1424
  231MOL0     H31133   1.759   4.894   9.102  1.1358 -2.1839  2.2992
  231MOL0     H31134   1.858   5.164   9.206 -0.8450 -0.4561  1.2779
  231MOL0     H31135   1.711   5.158   9.094 -0.0729 -1.5718 -2.2380
  231MOL0     H31136   1.495   5.031   9.186  2.1160  1.0419 -1.2995
  231MOL0     H31137   1.385   4.942   9.549  0.6973 -1.9771  0.2760
  231MOL0     H31138   1.331   4.917   9.386 -2.4638  0.2899  2.1390
  231MOL0     H31139   1.471   4.701   9.378  0.8396 -2.6626  1.9043
  231MOL0     H31140   1.540   4.730   9.523 -0.0788  2.9216  2.8472
  231MOL0     H31141   1.246   4.692   9.446  0.9990  1.7376 -0.7467
  231MOL0     H31142   1.285   4.749   9.609  0.7559 -0.9601  1.7927
  231MOL0     H31143   1.246   4.504   9.572 -0.3999  1.9517 -0.9258
  231MOL0     H31144   1.390   4.539   9.656 -1.3837  0.5913  0.9002
  231MOL0     H31145   1.621   4.361   9.368  1.8689 -1.8670  3.0525
  231MOL0     H31146   1.639   4.103   9.333  3.3335  3.2606  1.8404
  231MOL0     H31147   1.396   3.742   9.204 -0.0232 -0.9931 -1.7917
  231MOL0     H31148   1.424   3.496   9.118  0.8268 -0.8804 -0.1748
  231MOL0     H31149   1.443   3.242   9.222 -2.1258 -0.4302 -0.7617
  231MOL0     H31150   1.456   3.313   9.056  2.3137  2.8089 -0.2296
  231MOL0     H31151   1.622   3.073   9.152  1.1123 -2.0320 -2.4808
  231MOL0     H31152   1.487   3.091   9.039  0.6987 -1.4602  1.7089
  231MOL0     H31153   1.643   3.249   8.903 -2.2881 -1.9827  0.0602
  231MOL0     H31154   1.769   3.230   9.022  2.5155 -1.6471 -0.7715
  231MOL0     H31155   1.811   2.998   8.964 -0.4866  1.4700  0.7189
  231MOL0     H31156   1.825   3.093   8.826  1.9856 -2.2952 -0.1901
  231MOL0     H31157   1.598   2.895   8.893 -2.4192  0.9949  0.5391
  231MOL0     H31158   1.706   2.910   8.746 -0.4100  1.4305 -1.9645
  231MOL0     H31159   1.500   3.128   8.790 -0.4996  1.3307 -2.7360
  231MOL0     H31160   1.585   3.077   8.656  0.2538 -0.4109 -0.9731
  231MOL0     H31161   1.396   2.868   8.798 -3.7133 -0.8925 -2.0231
  231MOL0     H31162   1.458   2.867   8.631  0.0027 -0.6412  0.6200
  231MOL0     H31163   1.268   3.072   8.729  1.5764 -0.0381  0.4003
  231MOL0     H31164   1.309   3.044   8.569  0.4155  0.6400  0.9980
  231MOL0     H31165   1.785   3.457   9.323  0.5444  0.4729 -0.9956
  231MOL0     H31166   1.767   3.693   9.410  1.0600 -0.9550 -0.4018
  231MOL0     H31167   1.248   4.076   9.504 -0.0223  0.0540  0.0062
  231MOL0     H31168   1.235   4.303   9.524  1.1223  3.7622 -0.6665
  231MOL0     H31169   2.559   4.288   9.200 -0.8302 -1.7087  0.5975
  231MOL0     H31170   2.686   4.096   9.161 -0.0993  0.2642  0.7469
  231MOL0     H31171   2.746   3.755   8.800  0.0681 -0.1924 -0.3009
  231MOL0     H31172   2.857   3.564   8.706 -2.9582  0.8584 -1.0444
  231MOL0     H31173   3.172   3.395   8.667  0.7794  1.2291  0.5851
  231MOL0     H31174   3.203   3.537   8.764  1.2424 -1.5473  1.0313
  231MOL0     H31175   3.413   3.512   8.649  0.8545  1.9434 -0.2764
  231MOL0     H31176   3.320   3.624   8.550 -0.6307 -0.4775  0.3800
  231MOL0     H31177   3.416   3.488   8.386 -1.8703  1.3946  0.7898
  231MOL0     H31178   3.258   3.419   8.395 -0.1712 -0.4966  0.0383
  231MOL0     H31179   3.345   3.233   8.557 -0.5101  2.4279  0.8050
  231MOL0     H31180   3.430   3.218   8.409 -0.5705 -0.0012  0.1598
  231MOL0     H31181   3.723   3.418   8.647 -2.2361  3.0047 -0.0924
  231MOL0     H31182   3.200   3.813   8.621 -0.5734 -1.1200 -1.4374
  231MOL0     H31183   3.120   4.088   8.801 -0.0281  1.9603 -0.7289
  231MOL0     H31184   3.192   4.020   8.647 -0.4387  1.0933 -0.3973
  231MOL0     H31185   3.041   4.121   8.649 -0.2792 -0.1889  0.1430
  232MOL0     O31186   8.903   1.893   8.585  0.5645  0.1430 -0.5792
  232MOL0     C31187   8.884   1.944   8.694 -0.0094 -0.3392 -0.0658
  232MOL0     O31188   8.978   1.999   8.775  0.0872 -0.0650 -0.9732
  232MOL0     C31189   9.114   1.959   8.771  0.2692  0.6900 -1.2681
  232MOL0     C31190   9.209   2.050   8.716 -0.5520 -0.0180 -0.8395
  232MOL0     C31191   9.344   2.013   8.695 -0.1702  0.2149  0.5980
  232MOL0     C31192   9.394   1.889   8.726 -0.0611 -0.6435 -0.2984
  232MOL0     O31193   9.528   1.872   8.713  0.1757 -0.4813  0.4558
  232MOL0     C31194   9.586   1.746   8.727 -0.5344  0.2926 -0.2036
  232MOL0     C31195   9.736   1.754   8.682 -0.0812 -0.1924 -0.1235
  232MOL0     C31196   9.823   1.857   8.755 -0.7627 -1.3077  0.8495
  232MOL0     C31197   9.976   1.837   8.713 -0.0616  0.4269  1.0003
  232MOL0     C31198  10.057   1.957   8.773 -0.9090 -0.4629  0.3791
  232MOL0     C31199  10.210   1.948   8.734  0.1508  0.1374  0.0671
  232MOL0     C31200  10.291   2.060   8.796  0.1952 -0.2270 -0.0485
  232MOL0     C31201  10.291   2.062   8.949 -0.4882  0.4339  1.4405
  232MOL0     N31202  10.349   1.944   9.019 -0.0827  0.4718  0.8278
  232MOL0     C31203  10.282   1.886   9.129  0.0266  0.9619  0.0660
  232MOL0     C31204  10.359   1.791   9.181 -0.0229 -0.3205 -0.0361
  232MOL0     C31205  10.333   1.709   9.295 -0.1937  0.4345 -0.6639
  232MOL0     C31206  10.384   1.777   9.428  0.6618  0.7727 -0.1674
  232MOL0     C31207  10.538   1.804   9.440  0.3137 -0.3498  0.3895
  232MOL0     C31208  10.579   1.861   9.582 -1.1185 -0.3929 -0.0710
  232MOL0     O31209  10.472   1.946   9.629 -0.2788 -0.0880 -0.3344
  232MOL0     C31210  10.471   2.067   9.557 -0.2967  0.0440 -0.4808
  232MOL0     C31211  10.345   2.126   9.548  0.1546 -0.8620 -0.9879
  232MOL0     C31212  10.325   2.239   9.474  0.1055 -0.3004  0.2130
  232MOL0     C31213  10.434   2.302   9.398  0.6434  0.4579 -0.5300
  232MOL0     C31214  10.413   2.417   9.310  0.7792 -0.6128 -0.1322
  232MOL0     O31215  10.283   2.472   9.304 -1.1127  0.6904  0.2590
  232MOL0     C31216  10.255   2.581   9.215 -0.0575 -0.6661  0.7991
  232MOL0     C31217  10.316   2.609   9.094  0.6364  0.5816  0.4779
  232MOL0     C31218  10.271   2.711   9.006 -0.2594 -0.4042  0.2192
  232MOL0     C31219  10.164   2.799   9.041 -0.5363 -0.6766 -0.6146
  232MOL0     O31220  10.126   2.911   8.967  0.9493 -0.6627 -0.4753
  232MOL0     C31221  10.137   3.038   9.039 -0.3973  0.5310  0.1158
  232MOL0     C31222  10.253   3.121   8.982 -0.2518 -0.3210 -0.6133
  232MOL0     C31223  10.377   3.028   8.954 -0.6195 -1.2151 -0.4906
  232MOL0     C31224  10.485   3.126   8.911  0.0697  1.0911 -0.1736
  232MOL0     C31225  10.611   3.067   8.854  0.0977  1.0484 -0.3750
  232MOL0     C31226  10.725   3.165   8.828  0.6253  0.3655 -0.0442
  232MOL0     C31227  10.846   3.090   8.779 -0.1802 -0.9726 -0.2178
  232MOL0     C31228  10.941   3.057   8.889  0.0732  0.2029 -0.5035
  232MOL0    Cl31229  11.044   2.918   8.846 -0.0482  0.3611 -0.0094
  232MOL0     C31230  10.103   2.774   9.163  0.2215 -0.4353  1.1759
  232MOL0     C31231  10.151   2.670   9.246 -0.3599  0.7183 -0.3921
  232MOL0     O31232  10.515   2.461   9.251 -0.3318 -0.0866 -0.0028
  232MOL0     C31233  10.551   2.237   9.411  0.3090 -0.8831  0.3686
  232MOL0     C31234  10.570   2.131   9.493  0.3538 -0.3872 -0.0614
  232MOL0     N31235  10.474   1.792   9.104  1.3328 -0.6270  0.3090
  232MOL0     N31236  10.466   1.880   9.006  0.1638 -0.9203  0.1054
  232MOL0     C31237   9.300   1.800   8.774  0.2330  0.0819 -0.3202
  232MOL0     C31238   9.159   1.829   8.805  0.9795  0.1732  0.7680
  232MOL0     C31239   8.741   1.947   8.728  0.7317  0.0344 -1.1123
  232MOL0     C31240   8.715   1.951   8.867 -0.0203  1.0577  0.3057
  232MOL0     C31241   8.576   1.945   8.911 -0.3686 -0.1944 -0.1244
  232MOL0     C31242   8.464   1.952   8.821  0.6292 -0.4108 -0.0300
  232MOL0     O31243   8.337   1.956   8.860  0.6411 -0.2369 -0.3737
  232MOL0     C31244   8.309   1.977   9.005  0.4435 -0.1061 -0.1587
  232MOL0     C31245   8.156   1.981   9.027 -0.1002 -0.0971  0.2431
  232MOL0     C31246   8.082   1.838   9.035 -0.3950 -0.6530 -0.6352
  232MOL0     C31247   7.936   1.858   8.993 -0.0861  0.4386 -0.7641
  232MOL0     C31248   7.877   1.726   8.997 -0.3194 -0.3313 -0.0825
  232MOL0     C31249   7.849   1.605   9.018  0.0105  0.0472  0.6151
  232MOL0     C31250   8.498   1.965   8.683  0.5368  0.0836 -0.1919
  232MOL0     C31251   8.630   1.955   8.634 -0.1795  0.0662  1.0537
  232MOL0     C31252   8.644   1.972   8.481  0.6467  0.2367  0.1041
  232MOL0     H31253   9.177   2.149   8.685  1.1154  0.9161  0.2661
  232MOL0     H31254   9.408   2.089   8.650 -0.7189  0.8046  0.7908
  232MOL0     H31255   9.584   1.718   8.833 -1.4202 -2.3820 -0.8375
  232MOL0     H31256   9.530   1.677   8.663  0.6389 -1.6764  0.7996
  232MOL0     H31257   9.740   1.778   8.576 -0.1181 -0.1102 -0.1065
  232MOL0     H31258   9.792   1.662   8.703  0.8139  0.2490 -0.5098
  232MOL0     H31259   9.810   1.841   8.863 -1.8268 -0.8322  0.7955
  232MOL0     H31260   9.791   1.958   8.730 -0.3522 -1.1750  0.8501
  232MOL0     H31261  10.013   1.740   8.747  0.0617 -1.1979 -3.1503
  232MOL0     H31262   9.989   1.844   8.604  1.9621  0.4294  1.2149
  232MOL0     H31263  10.015   2.057   8.761 -2.1731 -0.6357  2.6264
  232MOL0     H31264  10.062   1.941   8.882 -0.0705 -1.2471  0.2387
  232MOL0     H31265  10.258   1.858   8.773 -0.3933  0.5216  1.6778
  232MOL0     H31266  10.211   1.939   8.625 -1.1900  0.5465  0.0066
  232MOL0     H31267  10.255   2.153   8.750 -3.6268 -0.5657  1.8761
  232MOL0     H31268  10.391   2.037   8.757  0.8438 -0.3107  1.5670
  232MOL0     H31269  10.358   2.146   8.968 -0.9295  1.4138 -0.9764
  232MOL0     H31270  10.188   2.083   8.978 -1.9770  1.5446 -3.5930
  232MOL0     H31271  10.181   1.907   9.163  0.3014  0.2523  1.3738
  232MOL0     H31272  10.228   1.692   9.318  0.1931 -1.4295 -0.1043
  232MOL0     H31273  10.379   1.611   9.279  0.0080  0.4750 -0.3497
  232MOL0     H31274  10.346   1.879   9.444  0.5136  0.6312  0.4094
  232MOL0     H31275  10.346   1.723   9.516  0.8519  0.8688 -0.0270
  232MOL0     H31276  10.562   1.875   9.360  2.8281 -0.9808  0.5079
  232MOL0     H31277  10.594   1.712   9.422  1.4260 -0.3414  3.2914
  232MOL0     H31278  10.675   1.913   9.580 -1.2896 -0.0286  0.7425
  232MOL0     H31279  10.602   1.768   9.636  1.1161 -1.1708 -2.1768
  232MOL0     H31280  10.259   2.076   9.592 -0.4823 -0.6800 -2.0149
  232MOL0     H31281  10.220   2.265   9.473 -0.1029 -1.0516 -1.7485
  232MOL0     H31282  10.392   2.540   9.059  0.7806 -0.4287  2.6466
  232MOL0     H31283  10.320   2.727   8.910 -0.2594  0.3922  0.3477
  232MOL0     H31284  10.042   3.092   9.027 -0.3413  0.8060  0.8917
  232MOL0     H31285  10.161   3.015   9.143 -1.1589 -3.2098 -0.3903
  232MOL0     H31286  10.232   3.169   8.886  2.5624 -0.6710 -1.4945
  232MOL0     H31287  10.289   3.197   9.052 -0.6149 -2.4157  2.0390
  232MOL0     H31288  10.410   2.980   9.047 -0.0956  0.3385  0.1636
  232MOL0     H31289  10.356   2.959   8.872 -1.1437 -0.5110 -0.9602
  232MOL0     H31290  10.529   3.180   8.996  3.7771  1.0139 -1.8561
  232MOL0     H31291  10.452   3.203   8.841 -0.1024  2.1677  1.0479
  232MOL0     H31292  10.588   3.008   8.765  1.8310 -3.2994  1.7774
  232MOL0     H31293  10.640   3.001   8.936  1.2087  1.2610 -0.5796
  232MOL0     H31294  10.688   3.234   8.752  1.9924  1.7175  0.4673
  232MOL0     H31295  10.756   3.234   8.907  1.6022  2.0384 -1.8087
  232MOL0     H31296  10.905   3.138   8.700 -0.7086 -2.4423 -1.5642
  232MOL0     H31297  10.820   3.000   8.722 -2.4287  0.0258 -0.8542
  232MOL0     H31298  11.013   3.136   8.908  1.0097  0.4757 -4.3103
  232MOL0     H31299  10.897   3.024   8.983  0.6311 -3.3030 -1.3019
  232MOL0     H31300  10.029   2.837   9.210 -1.3530 -1.0734 -0.3494
  232MOL0     H31301  10.114   2.668   9.348 -0.2902  1.7806 -0.3270
  232MOL0     H31302  10.639   2.279   9.366  0.2574  0.0116  1.0759
  232MOL0     H31303  10.671   2.091   9.483  0.0697 -0.4056 -4.4125
  232MOL0     H31304   9.328   1.702   8.811 -1.8882 -0.2428  0.6422
  232MOL0     H31305   9.094   1.755   8.850 -0.7657 -0.0094 -1.8446
  232MOL0     H31306   8.798   1.942   8.936  2.7920 -1.3418 -3.0736
  232MOL0     H31307   8.560   1.934   9.018  1.1042  1.2357  0.2608
  232MOL0     H31308   8.347   2.069   9.049  0.4088 -0.3440  0.3780
  232MOL0     H31309   8.347   1.890   9.061  0.5770  0.0851  0.0486
  232MOL0     H31310   8.130   2.031   8.933  2.8225 -2.7749 -2.2413
  232MOL0     H31311   8.134   2.044   9.113  0.6441 -2.0477  1.9179
  232MOL0     H31312   8.092   1.798   9.137  1.4671 -0.1980 -0.6032
  232MOL0     H31313   8.136   1.765   8.974 -0.8154 -2.0354  0.5831
  232MOL0     H31314   7.874   1.921   9.057 -0.0447 -0.6961  0.4392
  232MOL0     H31315   7.937   1.886   8.888  1.0509  0.8564 -0.6547
  232MOL0     H31316   7.842   1.501   9.041  0.2093  0.0967  0.9138
  232MOL0     H31317   8.421   2.005   8.618  1.7254  3.5287  0.3048
  232MOL0     H31318   8.745   1.946   8.449 -0.5522 -5.2456 -0.2572
  232MOL0     H31319   8.578   1.906   8.424 -1.4275  2.7279 -0.5961
  232MOL0     H31320   8.619   2.073   8.446  0.1342  0.1431  0.1801
  233MOL0     O31321   8.986   1.613   0.277 -1.2345  0.0921 -0.4410
  233MOL0     C31322   9.019   1.724   0.238 -0.6874 -0.0601 -0.3459
  233MOL0     O31323   9.084   1.818   0.315 -0.4453 -0.1165  0.3136
  233MOL0     C31324   9.151   1.783   0.427 -0.7183  0.0963  0.8470
  233MOL0     C31325   9.249   1.687   0.420  0.0790  0.8954 -0.4007
  233MOL0     C31326   9.328   1.658   0.529 -1.1264 -0.1509 -0.4364
  233MOL0     C31327   9.295   1.714   0.657 -0.2844 -0.5700 -0.2660
  233MOL0     O31328   9.367   1.687   0.777  0.4536 -0.1088  0.7727
  233MOL0     C31329   9.496   1.636   0.758  0.5975  0.2682  1.1966
  233MOL0     C31330   9.563   1.613   0.888  0.8170 -0.6334  0.5221
  233MOL0     C31331   9.707   1.597   0.862 -0.3291 -0.5376  0.1674
  233MOL0     C31332   9.796   1.556   0.983  0.4991 -0.8953 -0.2084
  233MOL0     C31333   9.941   1.532   0.951 -0.5435 -0.2826  0.4371
  233MOL0     C31334  10.035   1.663   0.959 -0.1417  0.0959 -0.1891
  233MOL0     C31335  10.171   1.651   0.881 -0.7065  0.3293 -0.2779
  233MOL0     C31336  10.261   1.758   0.940  0.4089 -0.8898  0.4340
  233MOL0     N31337  10.248   1.906   0.900 -0.1485  0.0276  0.2314
  233MOL0     C31338  10.162   1.994   0.955  0.6214  1.4081  0.9156
  233MOL0     C31339  10.189   2.121   0.908  0.6643  0.4523 -0.3883
  233MOL0     C31340  10.120   2.244   0.950 -0.2862  0.3585 -0.3117
  233MOL0     C31341  10.009   2.274   0.846  0.2062 -0.1968 -1.0489
  233MOL0     C31342  10.075   2.332   0.717  0.0966  0.2755 -0.0302
  233MOL0     C31343   9.978   2.416   0.632  0.4310  0.0722  0.4149
  233MOL0     O31344   9.854   2.341   0.598 -0.8084 -0.8223  0.3866
  233MOL0     C31345   9.768   2.386   0.494  0.1064 -0.8137 -0.1836
  233MOL0     C31346   9.773   2.513   0.442  0.1125 -0.2955  0.6976
  233MOL0     C31347   9.682   2.552   0.346  0.3994  0.2448  0.1251
  233MOL0     C31348   9.592   2.468   0.285  0.4575  0.0673  0.1431
  233MOL0     C31349   9.499   2.506   0.179  0.3546 -0.3673  0.5034
  233MOL0     O31350   9.517   2.625   0.125  0.1646  0.2050  0.4357
  233MOL0     C31351   9.435   2.687   0.030  0.4313 -0.2430 -0.5389
  233MOL0     C31352   9.421   2.825   0.040  0.1453  0.6915  0.2263
  233MOL0     C31353   9.332   2.891  -0.047 -0.9504 -0.3116  0.4761
  233MOL0     C31354   9.274   2.824  -0.149  0.0719  0.5219  0.1870
  233MOL0     O31355   9.212   2.914  -0.237  0.1956  0.8796  0.4895
  233MOL0     C31356   9.170   2.867  -0.369 -0.2525 -0.2427  0.9011
  233MOL0     C31357   9.125   2.979  -0.466  1.5524 -0.2358  0.7649
  233MOL0     C31358   9.061   2.916  -0.580 -0.7197  1.1245 -0.0857
  233MOL0     C31359   9.036   3.011  -0.698 -0.0385 -0.1290 -0.5075
  233MOL0     C31360   8.959   2.935  -0.802 -0.4063  0.0009 -0.2557
  233MOL0     C31361   8.896   3.023  -0.917 -0.3567 -0.6727 -0.1253
  233MOL0     C31362   8.790   3.124  -0.870 -0.5159 -0.4164 -0.6102
  233MOL0     C31363   8.711   3.190  -0.979 -0.3976 -0.6912  0.4594
  233MOL0    Cl31364   8.588   3.301  -0.906 -0.4997 -0.7015  0.0988
  233MOL0     C31365   9.299   2.687  -0.163  0.2178  1.0652 -0.3707
  233MOL0     C31366   9.368   2.618  -0.067  0.3122  0.6982  0.3227
  233MOL0     O31367   9.413   2.423   0.148  0.0299 -0.6367 -0.0906
  233MOL0     C31368   9.588   2.339   0.334 -1.0477  0.2555  0.3111
  233MOL0     C31369   9.679   2.300   0.436  0.2918  0.6980  0.2058
  233MOL0     N31370  10.308   2.103   0.837 -0.8348 -0.8780 -0.4334
  233MOL0     N31371  10.343   1.976   0.837 -0.1151 -1.1884 -0.4704
  233MOL0     C31372   9.190   1.806   0.668 -0.7105 -0.5140 -0.0305
  233MOL0     C31373   9.128   1.843   0.548  0.4061 -0.1733 -1.2613
  233MOL0     C31374   8.972   1.766   0.110  0.2619 -0.5302 -0.9314
  233MOL0     C31375   8.962   1.900   0.081 -0.0781 -0.1042  0.0259
  233MOL0     C31376   8.917   1.952  -0.036  0.7288 -0.5224 -0.1801
  233MOL0     C31377   8.891   1.860  -0.142  0.0731 -0.1439  0.4294
  233MOL0     O31378   8.834   1.881  -0.269 -0.1285  0.1463 -0.1013
  233MOL0     C31379   8.778   2.015  -0.274  0.1691  0.6477  0.3348
  233MOL0     C31380   8.715   2.041  -0.402 -0.8303  0.0088  0.1140
  233MOL0     C31381   8.674   2.184  -0.422 -0.2356 -0.2970  0.2551
  233MOL0     C31382   8.600   2.205  -0.554  0.4074  0.5508 -0.1655
  233MOL0     C31383   8.483   2.115  -0.576 -0.6480  0.6135  0.1197
  233MOL0     C31384   8.378   2.056  -0.593 -0.7736 -0.1199  0.7529
  233MOL0     C31385   8.930   1.724  -0.122 -0.3921 -0.2445 -0.1717
  233MOL0     C31386   8.951   1.671   0.004 -0.5223 -0.5384  0.0654
  233MOL0     C31387   8.987   1.521   0.011 -0.4870  0.2504  0.0142
  233MOL0     H31388   9.270   1.637   0.326  1.6576  0.2255  0.2554
  233MOL0     H31389   9.416   1.597   0.509  0.1772  2.2413 -2.6493
  233MOL0     H31390   9.493   1.537   0.711 -2.1331  1.1225 -0.6627
  233MOL0     H31391   9.547   1.707   0.692 -2.1150  1.7079  0.4766
  233MOL0     H31392   9.523   1.524   0.937  2.3019 -2.2839 -1.1054
  233MOL0     H31393   9.547   1.701   0.952  1.8141  0.2481 -0.3946
  233MOL0     H31394   9.747   1.686   0.813 -4.1406  0.5488 -1.3179
  233MOL0     H31395   9.726   1.514   0.794  0.6937 -2.8894  3.0977
  233MOL0     H31396   9.787   1.635   1.058 -1.4499 -0.7047 -0.5955
  233MOL0     H31397   9.767   1.464   1.033 -0.1975  0.8027  2.7302
  233MOL0     H31398   9.983   1.460   1.021  2.6750 -0.0799 -1.1121
  233MOL0     H31399   9.945   1.487   0.851  1.8709  0.1450  0.2857
  233MOL0     H31400   9.981   1.753   0.929 -4.2561 -1.4199  1.8893
  233MOL0     H31401  10.067   1.687   1.061 -0.2813  3.4328 -0.8189
  233MOL0     H31402  10.138   1.669   0.778 -2.8934  3.3802  0.8190
  233MOL0     H31403  10.224   1.556   0.893 -1.0624  0.3042  1.2401
  233MOL0     H31404  10.265   1.761   1.050  1.4660  3.2047  0.4329
  233MOL0     H31405  10.358   1.722   0.906 -0.4559 -1.1423 -1.9714
  233MOL0     H31406  10.077   1.984   1.023 -0.2969  5.1816  0.5640
  233MOL0     H31407  10.077   2.229   1.049  0.9361  4.0951  0.9623
  233MOL0     H31408  10.189   2.329   0.946  0.1620 -0.0382 -1.0719
  233MOL0     H31409   9.952   2.184   0.823 -1.5723  0.3038  1.0648
  233MOL0     H31410   9.930   2.338   0.887 -2.1201 -2.8533 -1.0659
  233MOL0     H31411  10.117   2.259   0.646  2.1484  2.0493 -0.7716
  233MOL0     H31412  10.160   2.393   0.749  1.3015 -0.8568 -0.9443
  233MOL0     H31413  10.018   2.470   0.546 -2.9788  1.0052 -0.7542
  233MOL0     H31414   9.944   2.497   0.697  1.1584  3.0358 -2.6653
  233MOL0     H31415   9.842   2.592   0.471  1.3149 -0.2881 -1.9276
  233MOL0     H31416   9.692   2.656   0.317 -1.3776 -0.1564 -2.3163
  233MOL0     H31417   9.483   2.875   0.114 -0.2790  1.6567 -0.0530
  233MOL0     H31418   9.322   2.999  -0.040  2.2057  0.3140 -2.1758
  233MOL0     H31419   9.252   2.813  -0.417 -1.5679 -4.5247  3.0315
  233MOL0     H31420   9.097   2.789  -0.351 -0.3308 -1.1738 -2.6253
  233MOL0     H31421   9.048   3.039  -0.417  4.2697  2.1160  2.4805
  233MOL0     H31422   9.199   3.051  -0.501 -0.0928  0.6751 -0.9840
  233MOL0     H31423   9.126   2.838  -0.621  0.7218  1.9740  0.5056
  233MOL0     H31424   8.967   2.876  -0.541  0.7771 -0.9696  1.5583
  233MOL0     H31425   9.126   3.055  -0.741 -2.3792  1.8022 -3.8406
  233MOL0     H31426   8.985   3.101  -0.665  0.9068  0.0408  0.5765
  233MOL0     H31427   8.873   2.880  -0.763  0.7779 -0.0807  2.4880
  233MOL0     H31428   9.024   2.860  -0.848  0.0808 -0.0501  0.5008
  233MOL0     H31429   8.978   3.079  -0.965 -1.7610  1.5429 -0.0709
  233MOL0     H31430   8.862   2.949  -0.989  3.2265 -3.3821  0.6501
  233MOL0     H31431   8.835   3.203  -0.809 -1.0215  0.3459 -1.2119
  233MOL0     H31432   8.732   3.066  -0.797 -1.5921  1.3027 -0.0532
  233MOL0     H31433   8.769   3.252  -1.048  0.9441  0.1563  2.2544
  233MOL0     H31434   8.674   3.105  -1.037 -1.1364 -0.1941  0.1884
  233MOL0     H31435   9.255   2.631  -0.245  0.7720 -0.2039  0.1738
  233MOL0     H31436   9.377   2.510  -0.071  1.7297  0.8328 -0.9355
  233MOL0     H31437   9.513   2.267   0.302 -1.0537  1.0458 -1.6227
  233MOL0     H31438   9.679   2.201   0.481 -1.1941 -0.1644 -1.5384
  233MOL0     H31439   9.181   1.872   0.754 -0.0628 -0.6491  0.1481
  233MOL0     H31440   9.051   1.919   0.556  0.2960 -0.4467  1.4228
  233MOL0     H31441   8.977   1.973   0.160 -0.5036  1.2041 -1.0647
  233MOL0     H31442   8.904   2.060  -0.042  1.2348 -0.4634 -0.2815
  233MOL0     H31443   8.863   2.084  -0.261  1.0634 -0.6863  1.9043
  233MOL0     H31444   8.703   2.036  -0.197  1.5468  1.4834  1.4896
  233MOL0     H31445   8.637   1.964  -0.411 -0.3049 -0.5043 -0.1574
  233MOL0     H31446   8.791   2.020  -0.478  0.7238  0.5152  1.4657
  233MOL0     H31447   8.751   2.262  -0.412  0.8134 -0.4881 -4.2235
  233MOL0     H31448   8.596   2.200  -0.346 -0.1859 -0.0248  0.2509
  233MOL0     H31449   8.558   2.306  -0.560 -0.6521  0.2400  1.4193
  233MOL0     H31450   8.672   2.187  -0.635  2.2434 -1.0218  1.7234
  233MOL0     H31451   8.293   1.992  -0.598  0.0139 -1.1833  0.4419
  233MOL0     H31452   8.920   1.658  -0.207 -0.4901  0.6486 -0.8658
  233MOL0     H31453   9.004   1.497  -0.095  1.8380  1.5729  0.0262
  233MOL0     H31454   9.074   1.496   0.072 -0.7516 -0.8455 -0.0221
  233MOL0     H31455   8.900   1.471   0.054 -1.4027  2.0630  0.3474
  234MOL0     O31456   4.903   0.295  11.372  0.2141 -0.2788 -0.0084
  234MOL0     C31457   4.873   0.400  11.429  0.0730 -0.4507 -0.4153
  234MOL0     O31458   4.890   0.421  11.566  0.5227  0.2329 -1.0486
  234MOL0     C31459   4.955   0.322  11.640  0.4794  0.1961  1.3023
  234MOL0     C31460   4.925   0.188  11.652  0.5684  0.2644 -0.4716
  234MOL0     C31461   5.000   0.093  11.727  0.1958 -0.4960  0.2935
  234MOL0     C31462   5.112   0.136  11.796  0.1176  0.1567 -0.7999
  234MOL0     O31463   5.185   0.039  11.860  0.3814 -0.5954  0.0279
  234MOL0     C31464   5.327   0.076  11.878 -0.4615  0.3717 -0.6448
  234MOL0     C31465   5.415  -0.040  11.944 -0.2592  0.4901  0.6339
  234MOL0     C31466   5.571  -0.008  11.931  0.3400  0.3615  0.6180
  234MOL0     C31467   5.659  -0.114  11.996  0.5648 -0.1232  0.2956
  234MOL0     C31468   5.809  -0.088  11.994 -0.6378 -0.1631  0.7705
  234MOL0     C31469   5.868  -0.055  11.854  0.0655  0.4923 -0.5891
  234MOL0     C31470   6.017  -0.058  11.855 -0.0602 -0.5169  0.1458
  234MOL0     C31471   6.072  -0.066  11.712 -0.3687 -0.4822  0.9178
  234MOL0     N31472   6.218  -0.108  11.699 -0.3698  0.1092  0.8980
  234MOL0     C31473   6.297  -0.054  11.592 -0.4998 -0.0071 -0.2069
  234MOL0     C31474   6.385  -0.148  11.567 -0.3748 -0.8604  0.2073
  234MOL0     C31475   6.495  -0.127  11.462 -0.2824  0.7647 -0.2539
  234MOL0     C31476   6.442  -0.147  11.325 -0.7897 -0.4028  0.3839
  234MOL0     C31477   6.373  -0.286  11.314 -0.9410 -0.5720 -0.1907
  234MOL0     C31478   6.328  -0.324  11.183  0.6703  0.0711 -0.1072
  234MOL0     O31479   6.433  -0.363  11.100  0.4600  0.2279 -0.1159
  234MOL0     C31480   6.425  -0.363  10.955  0.4937  1.1964 -0.7850
  234MOL0     C31481   6.313  -0.318  10.878 -0.5807  0.2895 -1.3910
  234MOL0     C31482   6.314  -0.333  10.741  0.4069 -0.0024  0.2474
  234MOL0     C31483   6.425  -0.384  10.677 -0.0025  1.3891  0.1700
  234MOL0     C31484   6.426  -0.409  10.532  0.4564 -0.2477 -0.5465
  234MOL0     O31485   6.528  -0.478  10.474  0.1108 -0.5159 -0.3898
  234MOL0     C31486   6.538  -0.488  10.335  0.1006  0.8432 -0.2512
  234MOL0     C31487   6.488  -0.396  10.245 -0.0677 -1.1746  0.0232
  234MOL0     C31488   6.504  -0.414  10.104 -0.2775 -0.5386 -0.0766
  234MOL0     C31489   6.588  -0.522  10.058  0.0156 -0.7857 -0.0115
  234MOL0     O31490   6.597  -0.556   9.934  0.5547  0.6054  0.9017
  234MOL0     C31491   6.491  -0.513   9.839 -0.8203 -0.5814  0.6353
  234MOL0     C31492   6.505  -0.583   9.699 -0.2122 -0.0346 -0.3578
  234MOL0     C31493   6.403  -0.558   9.594  0.8903  0.1781  0.2944
  234MOL0     C31494   6.277  -0.635   9.612  0.1309  0.4196 -0.6455
  234MOL0     C31495   6.157  -0.585   9.524 -0.0359 -0.2969  0.3908
  234MOL0     C31496   6.070  -0.702   9.501  0.7184  0.0705  0.4003
  234MOL0     C31497   5.965  -0.657   9.396  0.3692  0.0731  0.5922
  234MOL0     C31498   5.855  -0.755   9.363  0.5781  0.1327 -0.0519
  234MOL0    Cl31499   5.775  -0.824   9.515  0.1907  0.0812  0.0467
  234MOL0     C31500   6.657  -0.596  10.154 -0.1938 -0.6878  0.0599
  234MOL0     C31501   6.637  -0.577  10.291 -0.3440 -0.3558  0.4250
  234MOL0     O31502   6.318  -0.382  10.477 -0.1137 -0.1830  0.5397
  234MOL0     C31503   6.531  -0.434  10.751 -0.9806  0.4644  0.6548
  234MOL0     C31504   6.523  -0.425  10.891 -0.1828 -0.1798  0.4472
  234MOL0     N31505   6.364  -0.254  11.660 -0.5357 -1.3836 -0.2010
  234MOL0     N31506   6.258  -0.235  11.730  0.1616 -0.2974 -0.5906
  234MOL0     C31507   5.162   0.271  11.772  0.4790 -0.2861  0.6123
  234MOL0     C31508   5.071   0.359  11.707 -0.6599 -0.0987 -0.4380
  234MOL0     C31509   4.808   0.504  11.349 -0.0705 -0.0208  0.0700
  234MOL0     C31510   4.782   0.622  11.419  0.2831 -0.3261 -0.6082
  234MOL0     C31511   4.745   0.734  11.347 -0.1838  0.0329 -0.0580
  234MOL0     C31512   4.744   0.738  11.206 -0.4790  0.2112 -0.4625
  234MOL0     O31513   4.743   0.857  11.135  0.0527 -0.2076 -0.2697
  234MOL0     C31514   4.698   0.860  10.997 -0.6615 -0.4556 -0.0102
  234MOL0     C31515   4.552   0.802  10.976 -0.8232 -0.2830 -0.5326
  234MOL0     C31516   4.488   0.832  10.843  0.7279  0.2683  0.4605
  234MOL0     C31517   4.339   0.778  10.842  0.0308  0.4537  0.4019
  234MOL0     C31518   4.273   0.850  10.735  0.9193 -0.2126 -0.0403
  234MOL0     C31519   4.226   0.908  10.643 -0.3935  0.5989  0.8619
  234MOL0     C31520   4.750   0.618  11.140 -0.0481 -0.0613 -0.2062
  234MOL0     C31521   4.771   0.496  11.211 -0.2623  0.0596 -0.0937
  234MOL0     C31522   4.753   0.373  11.132  0.3142  0.9590  1.8804
  234MOL0     H31523   4.842   0.148  11.594  0.4191  0.6344 -0.5154
  234MOL0     H31524   4.964  -0.008  11.718  1.0410 -0.8081  0.3253
  234MOL0     H31525   5.382   0.101  11.787  0.2849 -0.1327 -0.3462
  234MOL0     H31526   5.351   0.150  11.954  0.4912 -0.7584  0.1853
  234MOL0     H31527   5.394  -0.140  11.905  0.9502  1.2135 -2.1343
  234MOL0     H31528   5.395  -0.041  12.052 -2.2947  0.7052  0.3008
  234MOL0     H31529   5.604   0.087  11.973  3.3814  0.1703 -1.1147
  234MOL0     H31530   5.580  -0.003  11.822 -2.8991 -0.6083  0.1919
  234MOL0     H31531   5.621  -0.102  12.098  0.0437 -1.2009  0.2349
  234MOL0     H31532   5.645  -0.213  11.952  1.6087  0.6882 -2.0558
  234MOL0     H31533   5.817  -0.010  12.070 -4.8521  0.2745  1.0088
  234MOL0     H31534   5.870  -0.168  12.037  0.4128  1.0667  1.6411
  234MOL0     H31535   5.830  -0.131  11.785 -0.0080 -3.7142  3.5972
  234MOL0     H31536   5.835   0.045  11.826  1.3591  1.4477  1.1069
  234MOL0     H31537   6.071  -0.132  11.915  0.7235 -1.6814 -1.8878
  234MOL0     H31538   6.046   0.039  11.895 -1.1782 -0.2241  0.2685
  234MOL0     H31539   6.005  -0.125  11.648  1.1129  0.0774 -1.2370
  234MOL0     H31540   6.055   0.035  11.673 -1.2646 -0.2192  1.9155
  234MOL0     H31541   6.282   0.046  11.554 -1.7798 -0.0897  0.0541
  234MOL0     H31542   6.536  -0.028  11.480  0.5809  1.3819 -4.6963
  234MOL0     H31543   6.585  -0.188  11.475 -0.4261  0.6844  0.4579
  234MOL0     H31544   6.381  -0.062  11.294 -1.3885 -1.6173 -1.9793
  234MOL0     H31545   6.530  -0.144  11.259  1.4996 -0.8520  3.2199
  234MOL0     H31546   6.285  -0.285  11.379 -0.4066  1.9775  0.6258
  234MOL0     H31547   6.441  -0.363  11.352 -0.3308 -1.9921 -3.7362
  234MOL0     H31548   6.266  -0.247  11.137  1.6012  1.5567  1.0027
  234MOL0     H31549   6.267  -0.415  11.187  1.8685 -0.8980 -2.2250
  234MOL0     H31550   6.227  -0.284  10.934  0.3966  0.0068  0.3471
  234MOL0     H31551   6.219  -0.298  10.703  0.6533  1.0043  0.5103
  234MOL0     H31552   6.431  -0.310  10.278  1.1443 -0.9576  1.6530
  234MOL0     H31553   6.472  -0.337  10.035 -0.8152 -1.4130 -0.8167
  234MOL0     H31554   6.389  -0.514   9.879 -1.1100 -0.4451 -0.0769
  234MOL0     H31555   6.509  -0.406   9.827 -0.1742 -0.5702  1.5919
  234MOL0     H31556   6.606  -0.554   9.668  0.2024  5.1744  4.2580
  234MOL0     H31557   6.511  -0.689   9.728 -0.7616  0.2640  0.9255
  234MOL0     H31558   6.385  -0.450   9.586 -3.1840 -0.4169 -0.4658
  234MOL0     H31559   6.448  -0.580   9.497  0.5838 -1.1093  0.4308
  234MOL0     H31560   6.250  -0.628   9.717 -0.1815 -1.2491 -0.5874
  234MOL0     H31561   6.289  -0.744   9.612 -0.5720  0.2646  2.1682
  234MOL0     H31562   6.190  -0.543   9.428  0.3787 -1.9104 -0.2126
  234MOL0     H31563   6.103  -0.511   9.582  2.2868  2.0470 -0.2616
  234MOL0     H31564   6.128  -0.784   9.458 -1.2849 -1.0373 -0.2930
  234MOL0     H31565   6.019  -0.745   9.588 -1.3909  1.4973 -0.0524
  234MOL0     H31566   6.022  -0.639   9.304  0.6542  2.3530  1.1474
  234MOL0     H31567   5.920  -0.561   9.422  1.4272  2.0496 -3.8684
  234MOL0     H31568   5.787  -0.701   9.297 -1.6931  0.8719  2.6862
  234MOL0     H31569   5.899  -0.838   9.309  1.2646  1.5941 -1.8537
  234MOL0     H31570   6.740  -0.656  10.119  1.8241  0.8111  2.0496
  234MOL0     H31571   6.706  -0.639  10.347  2.4421  1.5500 -0.7003
  234MOL0     H31572   6.610  -0.494  10.706 -0.5104  1.3241  0.3131
  234MOL0     H31573   6.612  -0.462  10.941 -0.8248 -1.3087  0.7863
  234MOL0     H31574   5.258   0.307  11.807  1.0932  0.4759 -1.6708
  234MOL0     H31575   5.093   0.465  11.700 -3.9687  0.5574 -3.8736
  234MOL0     H31576   4.790   0.633  11.526 -0.3512 -0.6311 -0.5188
  234MOL0     H31577   4.722   0.833  11.385 -3.3702 -0.8413  0.5638
  234MOL0     H31578   4.769   0.808  10.932 -1.4967 -2.7207  0.8076
  234MOL0     H31579   4.701   0.964  10.963  0.5907 -0.8909 -1.3479
  234MOL0     H31580   4.492   0.838  11.060  0.7396  1.3607 -0.0598
  234MOL0     H31581   4.543   0.696  11.000 -1.4150 -0.2471 -0.5779
  234MOL0     H31582   4.542   0.808  10.751  0.8620  1.6957  0.1453
  234MOL0     H31583   4.493   0.940  10.827  0.5608  0.2739  0.4364
  234MOL0     H31584   4.349   0.670  10.829 -2.5249  0.3322 -1.0482
  234MOL0     H31585   4.273   0.808  10.924 -0.7624  0.4525 -0.2295
  234MOL0     H31586   4.186   0.957  10.556  1.5426 -0.2391 -0.5706
  234MOL0     H31587   4.753   0.615  11.031  3.0438 -3.0130 -0.2312
  234MOL0     H31588   4.688   0.370  11.045  0.5152  0.3059  1.7426
  234MOL0     H31589   4.848   0.332  11.096 -0.6059  0.2989  0.1132
  234MOL0     H31590   4.703   0.301  11.198 -3.5618  3.6452  2.1980
  235MOL0     O31591   5.244   7.521  11.317 -0.2903  0.2372  0.0015
  235MOL0     C31592   5.175   7.417  11.322  0.3376  0.3600  0.1594
  235MOL0     O31593   5.040   7.408  11.321 -0.2343 -0.3996  0.2169
  235MOL0     C31594   4.964   7.520  11.330 -0.0554 -0.5844 -0.6743
  235MOL0     C31595   4.984   7.619  11.429 -0.1150 -0.2430 -0.4251
  235MOL0     C31596   4.902   7.735  11.432  0.0680  0.1708 -0.3739
  235MOL0     C31597   4.810   7.757  11.336  0.9691  0.1024  0.3417
  235MOL0     O31598   4.756   7.888  11.339 -0.0669 -0.1273 -0.4754
  235MOL0     C31599   4.620   7.911  11.293  1.3402 -0.3713 -0.6479
  235MOL0     C31600   4.558   8.045  11.348  0.3122  1.2512 -0.3082
  235MOL0     C31601   4.551   8.059  11.503 -0.0192 -0.6539 -0.3077
  235MOL0     C31602   4.450   8.164  11.550  0.3342 -0.9958 -0.3258
  235MOL0     C31603   4.476   8.216  11.692  0.0672 -0.7706  0.2319
  235MOL0     C31604   4.487   8.103  11.800 -0.2055 -0.8125 -0.6622
  235MOL0     C31605   4.511   8.162  11.936  0.0427 -0.2928 -0.4834
  235MOL0     C31606   4.547   8.053  12.031 -1.2849 -0.1816  0.6123
  235MOL0     N31607   4.565   8.102  12.169 -0.1693 -0.0683 -0.4251
  235MOL0     C31608   4.491   8.195  12.242 -0.2093 -1.0069 -0.1378
  235MOL0     C31609   4.555   8.216  12.357  0.3403 -0.1941  0.5063
  235MOL0     C31610   4.494   8.307  12.449  0.8866  0.4383  0.3093
  235MOL0     C31611   4.384   8.227  12.522  0.0742  0.3619 -0.1979
  235MOL0     C31612   4.317   8.312  12.633  0.2698  0.6226  0.4285
  235MOL0     C31613   4.170   8.318  12.620 -0.2047  0.3691 -0.5788
  235MOL0     O31614   4.108   8.193  12.603  0.9914 -0.1915  0.3543
  235MOL0     C31615   3.973   8.208  12.554 -0.5340 -0.2037 -0.6980
  235MOL0     C31616   3.937   8.136  12.441 -0.3789 -0.3378  0.2090
  235MOL0     C31617   3.805   8.140  12.402 -0.9958 -0.0689  0.3762
  235MOL0     C31618   3.708   8.209  12.468 -0.2202  0.1983 -0.6343
  235MOL0     C31619   3.566   8.201  12.430  0.0733  0.3875 -1.2731
  235MOL0     O31620   3.479   8.308  12.443  0.2523 -0.1290  0.0832
  235MOL0     C31621   3.346   8.283  12.421 -0.2955 -0.3613 -1.3073
  235MOL0     C31622   3.267   8.207  12.511 -0.4641  0.4919  0.0369
  235MOL0     C31623   3.135   8.191  12.504 -0.4684 -0.1205 -0.0064
  235MOL0     C31624   3.072   8.280  12.418 -0.5519  0.2278 -0.9656
  235MOL0     O31625   2.939   8.284  12.422  0.5149  0.0495 -0.0003
  235MOL0     C31626   2.874   8.261  12.300  1.3932 -0.5826 -0.0754
  235MOL0     C31627   2.724   8.222  12.335  0.7950  0.7161  0.0373
  235MOL0     C31628   2.650   8.183  12.209  0.8490 -0.0830  0.3290
  235MOL0     C31629   2.504   8.126  12.223  0.2904  0.2252 -0.3164
  235MOL0     C31630   2.411   8.235  12.252 -0.0386  0.0259 -0.7772
  235MOL0     C31631   2.271   8.182  12.239 -0.9818 -0.3328  0.0023
  235MOL0     C31632   2.222   8.201  12.092  0.3783  0.1651  0.3235
  235MOL0     C31633   2.083   8.150  12.060  0.7359 -0.4666  0.3660
  235MOL0    Cl31634   2.049   7.991  12.118  0.1344 -0.1292  0.3937
  235MOL0     C31635   3.139   8.376  12.326 -0.9954  0.6172  0.0405
  235MOL0     C31636   3.280   8.369  12.327 -0.4298  0.5825  0.0507
  235MOL0     O31637   3.537   8.093  12.388  0.8359 -0.5623 -0.2112
  235MOL0     C31638   3.752   8.284  12.582  0.3751 -0.3692  0.1990
  235MOL0     C31639   3.879   8.279  12.630  0.4758 -0.1688 -0.7181
  235MOL0     N31640   4.662   8.139  12.363 -0.6289 -0.2001 -0.1132
  235MOL0     N31641   4.665   8.076  12.255 -0.0832  0.0456 -0.5474
  235MOL0     C31642   4.783   7.656  11.242 -0.1279 -0.3154  0.5822
  235MOL0     C31643   4.865   7.544  11.237 -0.3384  0.2034  0.0447
  235MOL0     C31644   5.244   7.293  11.342 -0.4648 -0.3594  1.0762
  235MOL0     C31645   5.206   7.215  11.454 -0.4456  0.6572  0.1967
  235MOL0     C31646   5.258   7.081  11.469  0.3743  0.1825 -0.2783
  235MOL0     C31647   5.350   7.029  11.381 -0.1565  0.0291 -0.4301
  235MOL0     O31648   5.401   6.902  11.384 -0.1453 -0.1167 -0.4319
  235MOL0     C31649   5.398   6.827  11.511  0.4335 -0.1843 -0.0761
  235MOL0     C31650   5.513   6.715  11.498  0.5303  0.0958  0.0937
  235MOL0     C31651   5.585   6.684  11.626 -0.1385  0.4622 -0.3645
  235MOL0     C31652   5.488   6.624  11.719 -1.0771  0.9113 -0.4312
  235MOL0     C31653   5.550   6.574  11.848  0.4338  0.0031 -0.7506
  235MOL0     C31654   5.590   6.522  11.947 -0.4646 -0.3975 -0.2737
  235MOL0     C31655   5.405   7.108  11.280 -0.2472  0.4553  0.1348
  235MOL0     C31656   5.352   7.239  11.256  0.6047 -0.0511 -0.1555
  235MOL0     C31657   5.405   7.309  11.132 -0.2127 -0.7144 -0.1617
  235MOL0     H31658   5.060   7.600  11.504 -0.2269 -1.1784 -0.5368
  235MOL0     H31659   4.922   7.815  11.502 -0.2126  0.0249 -0.1255
  235MOL0     H31660   4.620   7.912  11.184  0.3390 -1.9695 -0.6919
  235MOL0     H31661   4.550   7.834  11.328  2.5387 -0.7790  1.0184
  235MOL0     H31662   4.454   8.049  11.314 -0.2297 -1.5298  0.7737
  235MOL0     H31663   4.620   8.132  11.323  2.3578 -0.1666 -0.4630
  235MOL0     H31664   4.645   8.083  11.552 -0.4092 -3.2537  1.9602
  235MOL0     H31665   4.523   7.965  11.551  3.3782 -1.5768  0.0567
  235MOL0     H31666   4.456   8.249  11.481 -1.7708 -1.4563 -1.1402
  235MOL0     H31667   4.351   8.119  11.545 -0.4910  0.6448  0.6163
  235MOL0     H31668   4.568   8.275  11.692 -0.4317  0.1967 -3.2723
  235MOL0     H31669   4.399   8.289  11.719  1.7766  1.1424  0.2244
  235MOL0     H31670   4.388   8.056  11.794 -1.2210  1.0882  0.1404
  235MOL0     H31671   4.569   8.035  11.775 -1.0742 -2.7340  1.3730
  235MOL0     H31672   4.421   8.220  11.958 -0.5803 -1.1133 -0.8216
  235MOL0     H31673   4.592   8.235  11.921  1.1589 -1.3937  0.0693
  235MOL0     H31674   4.478   7.968  12.035  0.6758 -1.8383  1.1186
  235MOL0     H31675   4.641   8.010  11.997 -0.7201 -0.3256  2.2638
  235MOL0     H31676   4.408   8.248  12.195  1.1459  1.4222  0.0338
  235MOL0     H31677   4.560   8.340  12.529  0.8265  0.5609  0.3082
  235MOL0     H31678   4.437   8.394  12.414 -2.0229 -1.2019  0.6460
  235MOL0     H31679   4.315   8.182  12.450 -0.1188  0.3365  0.0008
  235MOL0     H31680   4.430   8.132  12.553 -1.1661  0.2008  1.2400
  235MOL0     H31681   4.353   8.415  12.638  3.2207 -0.3466  3.2442
  235MOL0     H31682   4.347   8.271  12.730  0.7204  1.5916  0.7155
  235MOL0     H31683   4.141   8.385  12.538 -0.3709 -2.0801 -2.6437
  235MOL0     H31684   4.124   8.365  12.708  2.9087  1.0131  0.8349
  235MOL0     H31685   4.020   8.089  12.389 -0.9985 -1.8060  0.5073
  235MOL0     H31686   3.781   8.082  12.313  1.1069  2.4194 -2.0040
  235MOL0     H31687   3.332   8.156  12.582  0.6513 -1.1195 -2.0270
  235MOL0     H31688   3.103   8.118  12.578 -0.7103  0.2990  0.3098
  235MOL0     H31689   2.880   8.363  12.261  1.2297 -0.8645 -0.8588
  235MOL0     H31690   2.932   8.193  12.237  0.6310  1.5700 -3.3547
  235MOL0     H31691   2.717   8.139  12.406 -1.2408  1.7552  1.1396
  235MOL0     H31692   2.678   8.309  12.384 -1.6451 -0.5319  0.1238
  235MOL0     H31693   2.657   8.251  12.124 -0.2409 -2.4315 -1.7997
  235MOL0     H31694   2.707   8.103  12.160  1.6075  2.1006 -2.5817
  235MOL0     H31695   2.502   8.049  12.301  1.4434  1.4519  0.9937
  235MOL0     H31696   2.471   8.072  12.134 -1.0479  1.5228 -0.6419
  235MOL0     H31697   2.428   8.319  12.184  3.5455  0.4917  0.4848
  235MOL0     H31698   2.440   8.268  12.353  1.1066 -1.5534 -0.5517
  235MOL0     H31699   2.266   8.078  12.274 -1.6004 -0.8097 -1.4404
  235MOL0     H31700   2.212   8.245  12.307  1.6590 -0.3633  2.5235
  235MOL0     H31701   2.287   8.145  12.025 -1.4181 -1.7763  0.1054
  235MOL0     H31702   2.228   8.308  12.069  4.4319  0.8087  3.2126
  235MOL0     H31703   2.008   8.215  12.107 -2.9179 -2.3865 -2.2475
  235MOL0     H31704   2.066   8.152  11.952 -0.1001  0.2308  0.5017
  235MOL0     H31705   3.076   8.440  12.265  1.1114  3.3811  0.5889
  235MOL0     H31706   3.325   8.436  12.254 -0.7491  1.9225  1.0588
  235MOL0     H31707   3.699   8.347  12.651 -1.1215 -2.1383  0.7396
  235MOL0     H31708   3.898   8.330  12.724 -0.9013 -1.4659  0.3124
  235MOL0     H31709   4.713   7.671  11.161  1.6367  1.2707 -0.7478
  235MOL0     H31710   4.833   7.474  11.160 -1.1978 -0.4227  0.9488
  235MOL0     H31711   5.130   7.257  11.518 -0.7676  0.2680  0.0757
  235MOL0     H31712   5.204   7.016  11.537 -1.9631 -0.2540 -2.4058
  235MOL0     H31713   5.308   6.770  11.533  0.2844 -0.3235 -0.9976
  235MOL0     H31714   5.416   6.895  11.595  0.2674  0.1080 -0.2727
  235MOL0     H31715   5.584   6.761  11.430  1.8489 -1.2308  0.5082
  235MOL0     H31716   5.477   6.631  11.438  1.2346 -0.4031  0.3493
  235MOL0     H31717   5.636   6.772  11.665 -2.5237  2.8580 -2.2656
  235MOL0     H31718   5.663   6.613  11.595  2.3387  2.9451 -0.1857
  235MOL0     H31719   5.414   6.698  11.750 -0.5447  0.3976  2.2621
  235MOL0     H31720   5.439   6.541  11.667  0.3644  0.8889 -1.8307
  235MOL0     H31721   5.614   6.473  12.040 -4.5653 -0.6552  0.8738
  235MOL0     H31722   5.490   7.065  11.227 -1.3433 -0.6624 -0.7678
  235MOL0     H31723   5.474   7.250  11.071  0.4193  0.0462 -0.1988
  235MOL0     H31724   5.316   7.335  11.075 -0.7021  0.9163  1.2708
  235MOL0     H31725   5.450   7.402  11.169 -2.6107  0.1995  0.6199
  236MOL0     O31726   0.657   5.787   4.223  0.2972  0.1063 -0.0569
  236MOL0     C31727   0.598   5.706   4.299 -0.6327  0.4415  0.8084
  236MOL0     O31728   0.607   5.701   4.438  0.5330 -1.3850  1.5349
  236MOL0     C31729   0.672   5.804   4.501  0.1064 -0.6727  0.4250
  236MOL0     C31730   0.790   5.865   4.457  0.7194 -0.3722 -0.3008
  236MOL0     C31731   0.848   5.962   4.541 -0.4303 -0.1179  0.3425
  236MOL0     C31732   0.789   5.994   4.662 -0.8662  0.4010  0.4631
  236MOL0     O31733   0.860   6.076   4.748 -0.7907 -0.4495  0.1635
  236MOL0     C31734   0.811   6.118   4.879  0.2802 -0.4237 -0.3234
  236MOL0     C31735   0.903   6.208   4.968 -0.3868  0.0940 -0.2905
  236MOL0     C31736   0.923   6.354   4.916  0.4260 -0.0606 -0.6975
  236MOL0     C31737   1.030   6.423   4.989 -0.5903 -0.8046  0.1793
  236MOL0     C31738   0.995   6.491   5.124  0.1169  0.3407 -0.4022
  236MOL0     C31739   1.113   6.553   5.184 -0.5380  0.1986  0.2577
  236MOL0     C31740   1.096   6.617   5.320  0.3658 -0.0472 -0.9908
  236MOL0     C31741   1.220   6.684   5.381  0.0124  0.0522 -0.3316
  236MOL0     N31742   1.241   6.822   5.333 -0.2727 -0.6984  0.1167
  236MOL0     C31743   1.175   6.943   5.372  0.6323 -0.1917  0.4579
  236MOL0     C31744   1.247   7.038   5.308  0.3737  0.2709  0.5165
  236MOL0     C31745   1.211   7.181   5.324 -0.0363 -0.0128 -0.8844
  236MOL0     C31746   1.242   7.243   5.457 -1.2563  0.2370 -0.3602
  236MOL0     C31747   1.392   7.267   5.468  0.2977  0.1147 -0.0006
  236MOL0     C31748   1.418   7.332   5.604 -0.8389  0.5084 -0.8857
  236MOL0     O31749   1.556   7.316   5.631  0.1216  0.4044 -0.6608
  236MOL0     C31750   1.598   7.354   5.753 -0.2198  0.1171 -0.3963
  236MOL0     C31751   1.711   7.295   5.803  0.0584  1.2399  0.3271
  236MOL0     C31752   1.762   7.327   5.925 -0.1400  1.8754  0.9448
  236MOL0     C31753   1.710   7.441   5.989  0.6906  0.9198  0.2646
  236MOL0     C31754   1.766   7.479   6.123 -0.7957  0.9571  0.3284
  236MOL0     O31755   1.845   7.383   6.190  0.0779  0.0876 -0.3432
  236MOL0     C31756   1.870   7.395   6.336 -0.5098  1.1483 -0.4089
  236MOL0     C31757   1.779   7.448   6.424  0.4030  1.0432 -0.5926
  236MOL0     C31758   1.816   7.452   6.562  0.4072 -0.6882 -0.2673
  236MOL0     C31759   1.946   7.412   6.606 -0.1765 -0.3654  0.4263
  236MOL0     O31760   1.979   7.408   6.747 -0.1853 -0.9861  0.5901
  236MOL0     C31761   1.981   7.535   6.805  0.3320 -0.2109  0.3612
  236MOL0     C31762   2.058   7.543   6.931  0.4253 -0.2132  0.3803
  236MOL0     C31763   2.210   7.546   6.914  0.0845 -0.1593 -0.3514
  236MOL0     C31764   2.289   7.494   7.029 -0.2142 -0.1614 -0.2463
  236MOL0     C31765   2.445   7.492   7.009 -0.4629 -0.3553 -0.1483
  236MOL0     C31766   2.516   7.349   7.030 -0.8744 -0.1778  0.5560
  236MOL0     C31767   2.488   7.254   6.910  0.2437  0.4593  0.2885
  236MOL0     C31768   2.565   7.124   6.931 -0.0667  0.1177 -0.5178
  236MOL0    Cl31769   2.537   7.024   6.787 -0.0213 -0.4016  0.4606
  236MOL0     C31770   2.033   7.359   6.511 -0.6189  0.5144  0.0051
  236MOL0     C31771   1.998   7.356   6.377 -0.0227 -0.5370  0.1172
  236MOL0     O31772   1.745   7.591   6.162 -0.3002 -0.1538  0.8733
  236MOL0     C31773   1.605   7.509   5.932 -0.2871 -0.1793 -0.4287
  236MOL0     C31774   1.543   7.463   5.817 -0.1951 -0.3434 -0.0258
  236MOL0     N31775   1.347   6.983   5.238  0.0805 -0.7905 -0.7695
  236MOL0     N31776   1.342   6.855   5.246 -0.7185  0.5983  0.0206
  236MOL0     C31777   0.666   5.943   4.702 -0.3474  0.7181 -0.1089
  236MOL0     C31778   0.611   5.843   4.620 -0.4301 -0.5109  1.1732
  236MOL0     C31779   0.520   5.595   4.238  0.0041  0.1028  0.5154
  236MOL0     C31780   0.402   5.571   4.296 -0.2448  1.0327 -0.3761
  236MOL0     C31781   0.305   5.494   4.235  0.0701 -0.8669  0.0862
  236MOL0     C31782   0.347   5.425   4.115  1.1511  0.1268 -0.5685
  236MOL0     O31783   0.261   5.328   4.065  0.0341 -0.3185 -0.7137
  236MOL0     C31784   0.118   5.341   4.087 -0.3518 -0.0985  0.3545
  236MOL0     C31785   0.056   5.229   4.004 -0.8739  0.0303 -0.2049
  236MOL0     C31786  -0.078   5.197   4.056  0.2606  0.1413  0.6675
  236MOL0     C31787  -0.147   5.095   3.966  0.6493  0.2313  0.7045
  236MOL0     C31788  -0.210   5.169   3.848  0.0678  0.2200 -0.1214
  236MOL0     C31789  -0.268   5.215   3.750 -0.3548 -0.3032  0.4669
  236MOL0     C31790   0.477   5.421   4.066 -0.3860 -0.8419 -0.0328
  236MOL0     C31791   0.564   5.516   4.116 -0.0106 -0.1606  1.0716
  236MOL0     C31792   0.701   5.516   4.048  0.4216  0.9260 -0.3151
  236MOL0     H31793   0.848   5.837   4.370 -1.0473 -1.0516 -1.3270
  236MOL0     H31794   0.948   5.997   4.520 -0.8189  0.5333 -0.4793
  236MOL0     H31795   0.711   6.162   4.881 -0.0799 -1.0940  3.6392
  236MOL0     H31796   0.787   6.023   4.929  1.2060 -0.1005  0.7498
  236MOL0     H31797   1.003   6.166   4.983  0.0774  1.0014 -0.7438
  236MOL0     H31798   0.871   6.209   5.073  3.6151  0.2139  1.1043
  236MOL0     H31799   0.839   6.416   4.949  2.5449  2.4668  0.3249
  236MOL0     H31800   0.936   6.359   4.808  0.8378 -0.5499 -0.6738
  236MOL0     H31801   1.116   6.358   5.005  0.3090  0.3243  0.0739
  236MOL0     H31802   1.070   6.503   4.926  0.3970  2.0021  3.9772
  236MOL0     H31803   0.922   6.572   5.114  1.1936  1.4944  0.6510
  236MOL0     H31804   0.950   6.417   5.191 -1.8117  2.6924  1.0608
  236MOL0     H31805   1.187   6.473   5.188  0.8407  1.3737 -0.8646
  236MOL0     H31806   1.160   6.635   5.129 -1.7838  1.4162  0.9279
  236MOL0     H31807   1.078   6.535   5.389  0.9246  0.0878 -0.6804
  236MOL0     H31808   1.006   6.678   5.323 -0.6757 -1.5209 -1.2490
  236MOL0     H31809   1.228   6.687   5.490  3.2652 -0.4249 -0.4350
  236MOL0     H31810   1.304   6.620   5.350 -0.2453 -1.6620  2.2599
  236MOL0     H31811   1.103   6.971   5.448  0.8230  0.3655  0.4404
  236MOL0     H31812   1.255   7.238   5.241 -0.8926 -1.5165 -2.4472
  236MOL0     H31813   1.104   7.188   5.300  0.1102  0.0630 -1.5417
  236MOL0     H31814   1.188   7.338   5.451 -1.8224  0.0261  0.9304
  236MOL0     H31815   1.195   7.186   5.538 -3.3412 -0.1008 -1.7133
  236MOL0     H31816   1.422   7.341   5.393 -0.0100  0.5603  0.3113
  236MOL0     H31817   1.438   7.167   5.468 -0.4728 -0.2468 -0.0037
  236MOL0     H31818   1.360   7.287   5.685  0.8865  0.9948  0.6916
  236MOL0     H31819   1.399   7.439   5.597 -1.1942  0.6179  1.1735
  236MOL0     H31820   1.737   7.209   5.744 -0.1056  1.7449 -0.4987
  236MOL0     H31821   1.846   7.264   5.954 -0.3650  0.7853 -0.6679
  236MOL0     H31822   1.677   7.477   6.401  0.4744  1.9847  0.1718
  236MOL0     H31823   1.747   7.496   6.633  0.2794  0.1505 -0.8814
  236MOL0     H31824   2.015   7.612   6.734 -1.1847 -0.2740 -0.4653
  236MOL0     H31825   1.878   7.554   6.834 -0.2185 -4.6018  1.9440
  236MOL0     H31826   2.021   7.623   6.995  1.7545 -0.0569  0.9861
  236MOL0     H31827   2.038   7.446   6.977  1.6631 -0.7695 -0.2048
  236MOL0     H31828   2.241   7.487   6.828  1.6883 -1.6438  1.1538
  236MOL0     H31829   2.242   7.648   6.887  0.4366 -0.1446  0.1032
  236MOL0     H31830   2.263   7.393   7.062  1.5927 -0.9998 -1.2026
  236MOL0     H31831   2.279   7.564   7.112 -2.0564 -1.3954  0.6315
  236MOL0     H31832   2.486   7.555   7.089 -1.6174  0.6134 -0.2976
  236MOL0     H31833   2.471   7.540   6.914 -3.5194  1.8169 -0.0440
  236MOL0     H31834   2.624   7.362   7.040 -0.2935 -3.6307  0.1099
  236MOL0     H31835   2.496   7.293   7.122  1.3235 -0.3443  1.0072
  236MOL0     H31836   2.521   7.297   6.815  0.0917 -3.2483 -1.6362
  236MOL0     H31837   2.381   7.234   6.907  0.5701 -1.4200  0.0182
  236MOL0     H31838   2.671   7.137   6.957 -0.0406 -1.8608  0.5249
  236MOL0     H31839   2.511   7.076   7.013  1.4380 -0.8980 -0.0812
  236MOL0     H31840   2.128   7.321   6.547 -0.2899  2.1479  0.9676
  236MOL0     H31841   2.061   7.315   6.299 -0.4999  1.4086 -1.3854
  236MOL0     H31842   1.574   7.601   5.980 -0.2823  1.1222 -2.7904
  236MOL0     H31843   1.459   7.518   5.776  2.5071  2.7564 -1.9096
  236MOL0     H31844   0.607   5.977   4.786 -2.6437  3.8668 -2.7271
  236MOL0     H31845   0.513   5.802   4.642  0.0020 -1.0154  2.2049
  236MOL0     H31846   0.374   5.639   4.375 -0.9996  1.6936 -1.1850
  236MOL0     H31847   0.203   5.481   4.271 -0.5895  0.6867 -1.1013
  236MOL0     H31848   0.079   5.440   4.062  0.5157  0.4475  1.1026
  236MOL0     H31849   0.099   5.321   4.193 -1.4731 -0.3625  0.1185
  236MOL0     H31850   0.123   5.142   4.005 -0.3762  0.3782 -1.3636
  236MOL0     H31851   0.052   5.243   3.896 -0.1636 -0.5259 -0.3062
  236MOL0     H31852  -0.142   5.283   4.077 -2.0516 -1.1326 -0.7450
  236MOL0     H31853  -0.072   5.149   4.154 -2.6237 -0.1966  0.7576
  236MOL0     H31854  -0.079   5.018   3.930 -1.5997 -0.6315 -2.0736
  236MOL0     H31855  -0.228   5.038   4.014 -2.0407  1.0917 -2.4237
  236MOL0     H31856  -0.312   5.253   3.660 -5.5510  0.4247  2.9381
  236MOL0     H31857   0.514   5.353   3.989  0.2262 -0.2164 -0.3035
  236MOL0     H31858   0.764   5.449   4.108 -0.4713  0.3341 -0.0237
  236MOL0     H31859   0.691   5.460   3.955 -0.0724  1.1260 -0.3816
  236MOL0     H31860   0.745   5.615   4.034  3.6320 -0.4338 -0.7681
  237MOL0     O31861   3.910   3.119   2.707 -0.1670  0.2221 -0.1526
  237MOL0     C31862   3.951   3.036   2.781 -0.0258 -0.4392  0.8064
  237MOL0     O31863   3.877   2.982   2.881  0.0796  0.1393 -0.5405
  237MOL0     C31864   3.749   3.012   2.886 -0.0751  0.4843  0.5349
  237MOL0     C31865   3.654   2.974   2.790  0.3368  0.4963  0.1023
  237MOL0     C31866   3.519   3.014   2.804 -0.6904  0.9540 -0.7145
  237MOL0     C31867   3.482   3.078   2.928  0.0163  1.0129  0.5042
  237MOL0     O31868   3.352   3.115   2.941  0.5549  0.1603  0.2830
  237MOL0     C31869   3.307   3.117   3.076  0.1290  0.2083  0.2273
  237MOL0     C31870   3.157   3.128   3.062 -0.0890 -0.5617 -0.3460
  237MOL0     C31871   3.091   2.996   2.997  1.0979 -0.3044  0.1598
  237MOL0     C31872   2.933   3.010   3.020 -0.6016 -0.4500  0.1535
  237MOL0     C31873   2.858   2.892   2.965  0.5178 -0.1332  0.0461
  237MOL0     C31874   2.703   2.893   2.977  0.1514  0.0868 -0.9365
  237MOL0     C31875   2.634   2.827   2.858 -0.2826  0.6538 -0.0625
  237MOL0     C31876   2.476   2.834   2.858 -0.7530  0.2740  0.7354
  237MOL0     N31877   2.416   2.714   2.795 -0.3066 -0.3790  0.1100
  237MOL0     C31878   2.293   2.728   2.747 -0.4413 -0.2924 -0.4922
  237MOL0     C31879   2.248   2.597   2.727  0.2400 -0.8516  0.2296
  237MOL0     C31880   2.110   2.544   2.667 -0.4384 -0.1077 -0.2936
  237MOL0     C31881   1.991   2.642   2.669  0.1593 -0.3691  0.2810
  237MOL0     C31882   1.945   2.679   2.799  0.8159 -0.3676 -1.2032
  237MOL0     C31883   1.920   2.563   2.894  0.6144 -1.7284 -0.0349
  237MOL0     O31884   2.038   2.521   2.965  0.4205  0.1399 -0.0738
  237MOL0     C31885   2.094   2.611   3.056  0.7649 -0.0011  0.1360
  237MOL0     C31886   2.239   2.612   3.051  0.9505  0.1319  0.9056
  237MOL0     C31887   2.311   2.682   3.147  0.3715 -0.8193 -0.3646
  237MOL0     C31888   2.246   2.764   3.241  0.2867 -0.3537 -0.0480
  237MOL0     C31889   2.330   2.845   3.334 -0.0927 -0.6009  1.1266
  237MOL0     O31890   2.278   2.854   3.456 -0.5864 -0.2139  0.0485
  237MOL0     C31891   2.338   2.947   3.542 -0.5007 -0.3222  0.1664
  237MOL0     C31892   2.450   2.920   3.614  0.1971 -0.3585 -0.2533
  237MOL0     C31893   2.517   3.012   3.694 -0.6566 -0.3526 -0.1406
  237MOL0     C31894   2.451   3.138   3.727  0.4361 -0.2120 -0.2492
  237MOL0     O31895   2.512   3.223   3.814  0.0167  0.4791  0.3267
  237MOL0     C31896   2.651   3.237   3.784 -0.5204 -1.2136 -0.8163
  237MOL0     C31897   2.704   3.360   3.868 -0.1183  0.1975  0.2927
  237MOL0     C31898   2.651   3.484   3.800 -0.3211  0.0318 -1.0672
  237MOL0     C31899   2.656   3.605   3.898  0.7826 -0.0371  0.1899
  237MOL0     C31900   2.797   3.664   3.918 -0.5245  0.1475 -0.1082
  237MOL0     C31901   2.793   3.792   4.005  0.8120  0.1400  0.3598
  237MOL0     C31902   2.767   3.768   4.161 -0.3721  0.7858  1.0142
  237MOL0     C31903   2.771   3.900   4.236 -0.6873 -0.1646 -0.3643
  237MOL0    Cl31904   2.890   4.021   4.168  0.2305 -0.3838  0.0588
  237MOL0     C31905   2.329   3.164   3.664 -0.5416 -0.4548 -0.3679
  237MOL0     C31906   2.278   3.077   3.571  0.3195  0.6973  0.9117
  237MOL0     O31907   2.415   2.913   3.284 -0.1012  0.3685  0.0135
  237MOL0     C31908   2.102   2.762   3.250 -0.6061  0.3123 -0.1826
  237MOL0     C31909   2.026   2.686   3.154  0.3918  0.5129 -0.6969
  237MOL0     N31910   2.349   2.513   2.760 -0.7408 -0.6970 -0.4945
  237MOL0     N31911   2.451   2.582   2.801  0.5061  0.4739  0.3381
  237MOL0     C31912   3.572   3.099   3.026  0.5528  0.3504 -0.4200
  237MOL0     C31913   3.707   3.074   3.003  0.2817  0.4621 -0.0312
  237MOL0     C31914   4.100   2.986   2.779 -0.3189 -0.4078  0.8804
  237MOL0     C31915   4.128   2.850   2.755  0.6582  0.0459 -0.4233
  237MOL0     C31916   4.255   2.797   2.746 -0.8272  0.4400 -0.5739
  237MOL0     C31917   4.357   2.891   2.778 -0.1231  0.3211  0.8690
  237MOL0     O31918   4.487   2.844   2.769 -0.0171  0.4616  0.1077
  237MOL0     C31919   4.556   2.843   2.639  0.6244 -0.2794 -0.9751
  237MOL0     C31920   4.708   2.848   2.652 -0.4013 -0.3654  0.2145
  237MOL0     C31921   4.766   2.918   2.532  0.6160 -0.2708  0.6788
  237MOL0     C31922   4.729   2.851   2.396  0.2206 -0.2689  0.0234
  237MOL0     C31923   4.761   2.703   2.402 -0.3130  0.5115 -0.2683
  237MOL0     C31924   4.758   2.581   2.418  0.4813  0.3379  0.1640
  237MOL0     C31925   4.334   3.027   2.812  0.0083 -0.3835 -0.5906
  237MOL0     C31926   4.207   3.074   2.805  0.7327 -0.3203 -0.3759
  237MOL0     C31927   4.171   3.218   2.848 -0.9907  0.4333  0.6601
  237MOL0     H31928   3.679   2.915   2.702  0.6765 -0.8319  1.0498
  237MOL0     H31929   3.448   2.997   2.724 -0.4517  1.7715 -1.1174
  237MOL0     H31930   3.325   3.018   3.119 -3.4321 -0.8086 -0.3532
  237MOL0     H31931   3.347   3.200   3.136 -1.2531  0.3014  1.0590
  237MOL0     H31932   3.122   3.218   3.012  0.4863  0.9053  1.7741
  237MOL0     H31933   3.118   3.137   3.164  3.1127 -0.3963  0.9837
  237MOL0     H31934   3.136   2.908   3.044  0.5128 -1.3494 -1.1727
  237MOL0     H31935   3.114   2.998   2.890 -0.1340 -3.0935 -0.2352
  237MOL0     H31936   2.925   3.017   3.129  2.5218 -1.6436  0.5595
  237MOL0     H31937   2.895   3.100   2.972 -3.1985 -1.8543 -0.6405
  237MOL0     H31938   2.899   2.874   2.865  1.1564 -0.0635  0.2887
  237MOL0     H31939   2.897   2.805   3.018  1.2063 -0.6276 -1.2193
  237MOL0     H31940   2.665   2.833   3.060  1.1171  0.4866 -0.1806
  237MOL0     H31941   2.665   2.995   2.986  0.6179  0.0997  1.5225
  237MOL0     H31942   2.671   2.725   2.851  0.8881  1.0376  0.3214
  237MOL0     H31943   2.675   2.883   2.774  3.1876  2.3090  2.4675
  237MOL0     H31944   2.439   2.843   2.961 -0.9222 -0.1598  0.7142
  237MOL0     H31945   2.455   2.923   2.799  0.4883 -0.0760 -0.2847
  237MOL0     H31946   2.234   2.819   2.740 -0.9739 -0.3761  1.9743
  237MOL0     H31947   2.121   2.492   2.571 -1.2829 -2.1479  0.6657
  237MOL0     H31948   2.085   2.458   2.729  1.8546 -4.4634 -4.6195
  237MOL0     H31949   2.017   2.735   2.617 -1.9553  0.8535  1.2887
  237MOL0     H31950   1.906   2.602   2.611  0.4739  0.1621 -0.5704
  237MOL0     H31951   1.851   2.733   2.788  1.1551 -0.1486 -3.4179
  237MOL0     H31952   2.004   2.751   2.857 -0.9170  0.6736 -0.6800
  237MOL0     H31953   1.876   2.482   2.834 -3.5934  0.3501 -0.1560
  237MOL0     H31954   1.833   2.594   2.953 -0.4976  0.3050 -2.5243
  237MOL0     H31955   2.297   2.550   2.984  0.4400 -0.2886  0.8426
  237MOL0     H31956   2.418   2.691   3.132  0.3543 -2.0295 -1.3036
  237MOL0     H31957   2.511   2.834   3.588  0.0936  0.0370 -1.9274
  237MOL0     H31958   2.610   2.981   3.742  0.0318  2.4981  0.5555
  237MOL0     H31959   2.706   3.148   3.817 -0.9841 -0.5867  1.9122
  237MOL0     H31960   2.669   3.246   3.677 -0.7249  1.2932 -0.6954
  237MOL0     H31961   2.664   3.343   3.968 -0.4997 -5.1579 -0.4478
  237MOL0     H31962   2.813   3.362   3.874 -0.1402  0.4338  0.6134
  237MOL0     H31963   2.715   3.525   3.721  2.4361 -0.2631  0.8580
  237MOL0     H31964   2.547   3.463   3.772 -1.1790  1.0199  1.1158
  237MOL0     H31965   2.616   3.573   3.995  1.1831  0.7536  0.6264
  237MOL0     H31966   2.596   3.687   3.858 -0.8311  0.0492  2.5973
  237MOL0     H31967   2.823   3.700   3.818 -2.1709  1.4003 -0.1288
  237MOL0     H31968   2.856   3.586   3.967 -1.2115  1.1939  2.5952
  237MOL0     H31969   2.888   3.844   3.989  1.2237 -0.2240  1.4946
  237MOL0     H31970   2.712   3.853   3.963  0.9080 -1.7668 -2.8725
  237MOL0     H31971   2.842   3.695   4.191  0.1590  1.5682  1.6456
  237MOL0     H31972   2.669   3.723   4.180  0.5642 -0.7655  2.4604
  237MOL0     H31973   2.672   3.946   4.226 -0.6222  0.2913  0.8650
  237MOL0     H31974   2.781   3.888   4.345  0.0607  0.2885 -0.3754
  237MOL0     H31975   2.280   3.257   3.690  2.0754  0.5414  1.4575
  237MOL0     H31976   2.190   3.099   3.512  1.6183 -0.2894 -1.5315
  237MOL0     H31977   2.048   2.829   3.315 -0.5596 -0.3583  0.5570
  237MOL0     H31978   1.918   2.690   3.155  0.1577 -2.8393  1.4006
  237MOL0     H31979   3.553   3.132   3.128  1.6301  4.3981 -1.3736
  237MOL0     H31980   3.778   3.090   3.083  1.2515  1.1584 -0.9946
  237MOL0     H31981   4.045   2.781   2.757 -2.7138  3.7147 -1.4799
  237MOL0     H31982   4.277   2.691   2.742 -0.9687  0.2174  2.5554
  237MOL0     H31983   4.522   2.932   2.584 -0.1352  0.2263  0.2696
  237MOL0     H31984   4.529   2.753   2.584  1.2473 -1.7879  1.1033
  237MOL0     H31985   4.736   2.742   2.660 -0.2959 -0.4033 -0.5660
  237MOL0     H31986   4.735   2.903   2.742 -2.1976  3.1806 -1.1951
  237MOL0     H31987   4.876   2.916   2.534  0.5983 -1.7144  1.4581
  237MOL0     H31988   4.741   3.024   2.535  0.3069 -0.3323  0.3656
  237MOL0     H31989   4.624   2.867   2.373  0.1931  1.6136  1.2310
  237MOL0     H31990   4.785   2.905   2.320 -0.9310 -0.4247 -0.9589
  237MOL0     H31991   4.759   2.474   2.427 -2.2965  0.2503  0.1965
  237MOL0     H31992   4.412   3.100   2.832  0.0304 -0.3289 -0.8757
  237MOL0     H31993   4.097   3.260   2.779 -0.1577  0.7299 -0.0664
  237MOL0     H31994   4.118   3.209   2.943 -1.4034 -1.9892  0.2605
  237MOL0     H31995   4.251   3.292   2.851  1.5681 -2.0574 -1.3166
  238MOL0     O31996   2.748   3.072   9.891  0.4339  0.6830  0.1117
  238MOL0     C31997   2.702   3.047   9.779  0.9713 -0.5532 -0.7880
  238MOL0     O31998   2.656   2.928   9.736 -0.1615  0.0389 -0.5037
  238MOL0     C31999   2.627   2.830   9.825  0.6157 -0.5711 -0.0366
  238MOL0     C32000   2.620   2.693   9.791  0.3290  0.8785 -0.5158
  238MOL0     C32001   2.555   2.601   9.868  0.8585 -0.0747 -0.6030
  238MOL0     C32002   2.475   2.639   9.983 -0.0295  0.7451  1.3714
  238MOL0     O32003   2.416   2.554  10.070  0.0726  0.0727  0.2457
  238MOL0     C32004   2.312   2.481  10.008 -0.0161  0.4829  0.3461
  238MOL0     C32005   2.201   2.471  10.110  1.2231 -0.5160  0.2332
  238MOL0     C32006   2.131   2.608  10.129  0.2554 -0.0440  0.9722
  238MOL0     C32007   1.988   2.599  10.190 -0.3675 -0.5901 -0.6999
  238MOL0     C32008   1.930   2.739  10.193  0.8967 -1.0201 -0.1984
  238MOL0     C32009   1.778   2.732  10.244 -0.3732  0.2530 -0.2786
  238MOL0     C32010   1.759   2.751  10.394 -0.2029 -0.1185 -0.4074
  238MOL0     C32011   1.636   2.834  10.426 -0.5867 -0.4614 -0.3387
  238MOL0     N32012   1.505   2.789  10.393 -0.1111 -0.0757 -0.5183
  238MOL0     C32013   1.401   2.873  10.356  0.9070 -0.8718  0.0383
  238MOL0     C32014   1.291   2.786  10.356  0.0390 -0.7288  0.5204
  238MOL0     C32015   1.157   2.827  10.299 -0.6128 -0.4131 -0.8987
  238MOL0     C32016   1.040   2.794  10.397 -0.3545 -0.3147 -0.7808
  238MOL0     C32017   0.901   2.821  10.334  1.1464  0.5434  0.8030
  238MOL0     C32018   0.893   2.964  10.286  0.6063 -0.2382  0.6429
  238MOL0     O32019   0.908   3.062  10.384 -0.4877 -0.2343 -0.1570
  238MOL0     C32020   0.842   3.182  10.373  1.2353  0.0056  0.3088
  238MOL0     C32021   0.843   3.257  10.487 -0.5857 -0.3241  0.7442
  238MOL0     C32022   0.781   3.387  10.492 -0.8991 -0.2920  0.2134
  238MOL0     C32023   0.727   3.444  10.379  0.8684 -0.4922 -0.6150
  238MOL0     C32024   0.659   3.568  10.398 -0.6735  0.5486 -0.0193
  238MOL0     O32025   0.704   3.650  10.493 -0.6989 -0.0665 -0.3425
  238MOL0     C32026   0.617   3.730  10.553  0.5722 -0.8279 -0.5411
  238MOL0     C32027   0.594   3.859  10.502 -0.3659  0.3384 -0.4554
  238MOL0     C32028   0.507   3.942  10.568  1.1204 -0.1653 -0.0973
  238MOL0     C32029   0.455   3.918  10.694 -0.4421  0.5166 -0.4906
  238MOL0     O32030   0.374   4.016  10.750  0.8529 -0.3133  0.6168
  238MOL0     C32031   0.345   4.008  10.887 -0.3723 -0.1248  0.2315
  238MOL0     C32032   0.273   4.135  10.932 -0.6077  0.7719 -0.1182
  238MOL0     C32033   0.153   4.185  10.842 -0.3165 -1.2315 -0.3847
  238MOL0     C32034   0.032   4.096  10.802  0.6761  0.5150  0.2134
  238MOL0     C32035   0.001   4.014  10.926  0.2419  0.0164  0.2280
  238MOL0     C32036  -0.058   4.092  11.048 -0.9591 -0.0884  1.1963
  238MOL0     C32037  -0.191   4.037  11.085  0.3698  0.2386 -0.3026
  238MOL0     C32038  -0.258   4.112  11.193 -0.0638 -0.2149 -0.0278
  238MOL0    Cl32039  -0.284   4.286  11.137 -0.1966 -0.2372  0.1533
  238MOL0     C32040   0.503   3.797  10.758  0.5107 -0.3655 -0.0118
  238MOL0     C32041   0.578   3.702  10.684 -0.5075  0.3538  0.9548
  238MOL0     O32042   0.570   3.602  10.321 -0.3356 -0.4653  0.4669
  238MOL0     C32043   0.724   3.361  10.262 -0.1941  0.5845 -0.2795
  238MOL0     C32044   0.777   3.234  10.260 -0.6727 -0.0667  0.3744
  238MOL0     N32045   1.336   2.652  10.384 -0.3551 -0.6006 -0.0231
  238MOL0     N32046   1.458   2.667  10.406 -0.4133  1.0124  0.0829
  238MOL0     C32047   2.471   2.777  10.014 -0.3463 -0.6890  0.3270
  238MOL0     C32048   2.550   2.868   9.937 -0.0856 -0.6259  0.0832
  238MOL0     C32049   2.713   3.161   9.677  0.9388  1.1387 -0.4904
  238MOL0     C32050   2.832   3.237   9.681  1.0913 -0.2184 -0.3687
  238MOL0     C32051   2.856   3.339   9.584  0.4075  0.2428 -0.4295
  238MOL0     C32052   2.744   3.376   9.502 -0.5536  0.3628 -0.4200
  238MOL0     O32053   2.766   3.493   9.430  0.3548 -0.1489  0.2234
  238MOL0     C32054   2.732   3.496   9.290  0.0818  0.2332 -0.1413
  238MOL0     C32055   2.799   3.388   9.215 -0.0775  0.0858 -0.3032
  238MOL0     C32056   2.790   3.421   9.066 -0.0280  0.3800  0.9531
  238MOL0     C32057   2.921   3.389   8.995 -0.5741  0.5096 -0.1462
  238MOL0     C32058   2.890   3.329   8.869 -0.5665 -0.3124 -0.6020
  238MOL0     C32059   2.881   3.283   8.755  0.3027  0.1371 -0.3302
  238MOL0     C32060   2.622   3.303   9.501 -1.0072 -0.4658  1.0778
  238MOL0     C32061   2.605   3.194   9.582  0.6978 -0.2460 -1.5760
  238MOL0     C32062   2.460   3.124   9.582 -0.8755 -0.0214  0.6868
  238MOL0     H32063   2.667   2.651   9.703  2.3836  0.9565  0.5013
  238MOL0     H32064   2.559   2.496   9.842  1.1142 -0.0374 -0.7216
  238MOL0     H32065   2.267   2.532   9.922 -1.0369  0.5225  0.8933
  238MOL0     H32066   2.347   2.382   9.979  0.4350  1.2908 -2.1129
  238MOL0     H32067   2.225   2.431  10.209  1.4944  1.5837  1.0661
  238MOL0     H32068   2.141   2.393  10.063  0.5607 -0.4848  1.0128
  238MOL0     H32069   2.129   2.655  10.030  2.6681 -2.9332 -0.6249
  238MOL0     H32070   2.185   2.667  10.204 -0.6703 -0.2550  1.8236
  238MOL0     H32071   1.918   2.540  10.130 -3.1390  0.8041  0.9571
  238MOL0     H32072   1.997   2.550  10.288  2.6669  0.1337 -0.5040
  238MOL0     H32073   1.979   2.814  10.255 -0.0457 -0.8166  0.3237
  238MOL0     H32074   1.927   2.769  10.088 -0.3955  0.7544  0.2796
  238MOL0     H32075   1.711   2.795  10.185 -0.9822 -0.9292 -0.9009
  238MOL0     H32076   1.737   2.632  10.226  0.2095 -0.0972  0.2628
  238MOL0     H32077   1.845   2.803  10.437 -0.7955  1.5510 -1.1372
  238MOL0     H32078   1.762   2.650  10.436  2.2744  0.4923  1.0698
  238MOL0     H32079   1.640   2.843  10.535  0.4288  1.7315 -0.5072
  238MOL0     H32080   1.656   2.935  10.390 -0.2629 -0.4766 -0.2082
  238MOL0     H32081   1.393   2.979  10.338 -3.8402 -0.7455  1.5241
  238MOL0     H32082   1.160   2.934  10.273 -2.7159 -0.5189 -1.7137
  238MOL0     H32083   1.140   2.785  10.200 -0.2395  0.4425 -1.3386
  238MOL0     H32084   1.045   2.696  10.445  1.0064  1.5032  3.1770
  238MOL0     H32085   1.040   2.870  10.476 -5.8641  0.5745 -1.2099
  238MOL0     H32086   0.822   2.788  10.402 -0.7861 -2.6160 -2.6085
  238MOL0     H32087   0.899   2.761  10.243 -0.3194  1.2517  0.3409
  238MOL0     H32088   0.799   2.973  10.230  1.2417  0.8852 -0.2879
  238MOL0     H32089   0.959   2.983  10.201 -1.1270 -1.1789 -0.9846
  238MOL0     H32090   0.894   3.215  10.573  0.8695  1.4327  0.7950
  238MOL0     H32091   0.775   3.443  10.585  2.0098  0.0349  0.2903
  238MOL0     H32092   0.647   3.887  10.411 -0.3143  0.2754 -0.4451
  238MOL0     H32093   0.482   4.026  10.504  1.4882 -1.4716 -2.0512
  238MOL0     H32094   0.292   3.914  10.900  2.2866 -1.8623 -0.5414
  238MOL0     H32095   0.443   3.985  10.931  1.6703  1.1723 -3.2296
  238MOL0     H32096   0.235   4.119  11.034  1.8983 -1.4011  0.6000
  238MOL0     H32097   0.339   4.223  10.935  0.9689 -0.3734  2.4435
  238MOL0     H32098   0.117   4.261  10.912  0.0561 -1.7503  0.3829
  238MOL0     H32099   0.204   4.230  10.757 -0.6072 -2.4672 -1.2417
  238MOL0     H32100   0.058   4.022  10.726 -1.2949 -0.3459  0.3220
  238MOL0     H32101  -0.052   4.153  10.761  1.1954 -0.2439 -2.0551
  238MOL0     H32102   0.096   3.967  10.954  0.8081  0.5895 -0.6687
  238MOL0     H32103  -0.068   3.934  10.895  1.3273 -0.3352 -1.4099
  238MOL0     H32104   0.011   4.102  11.133  0.5217  0.7092 -0.0591
  238MOL0     H32105  -0.069   4.193  11.008  2.5091  0.0614  0.3260
  238MOL0     H32106  -0.195   3.933  11.119 -0.3543  0.5137  0.4912
  238MOL0     H32107  -0.261   4.052  11.002  0.5010 -0.0336 -0.4618
  238MOL0     H32108  -0.349   4.059  11.222  1.4365 -3.0816 -0.1716
  238MOL0     H32109  -0.195   4.115  11.283 -1.7649  1.4477  1.1770
  238MOL0     H32110   0.477   3.767  10.859  0.7276  0.4475  0.2991
  238MOL0     H32111   0.610   3.613  10.737 -1.4691 -0.9276 -0.5194
  238MOL0     H32112   0.689   3.409  10.171  1.2838  3.7956  0.7103
  238MOL0     H32113   0.760   3.178  10.169 -0.2778  0.0003  0.2583
  238MOL0     H32114   2.416   2.822  10.095 -1.4454  0.8176 -1.1848
  238MOL0     H32115   2.536   2.972   9.965 -0.0034 -1.5770  4.4432
  238MOL0     H32116   2.908   3.221   9.758 -0.2327  1.8811  1.4994
  238MOL0     H32117   2.940   3.407   9.575 -0.7734  1.7685 -0.2028
  238MOL0     H32118   2.767   3.596   9.267 -0.0435  0.2822 -0.1183
  238MOL0     H32119   2.624   3.492   9.274 -0.2879  1.4192  1.7297
  238MOL0     H32120   2.747   3.293   9.234  2.4109 -1.2139  0.4986
  238MOL0     H32121   2.904   3.372   9.240  0.0601 -0.6272 -1.2538
  238MOL0     H32122   2.758   3.524   9.050  1.4415  0.5489 -1.3160
  238MOL0     H32123   2.707   3.361   9.027  0.1157  1.7152 -1.5558
  238MOL0     H32124   2.989   3.475   8.985  0.0208 -0.0064 -0.5978
  238MOL0     H32125   2.985   3.318   9.050 -1.8759  0.6719  1.6731
  238MOL0     H32126   2.862   3.254   8.654 -1.7174  0.2235 -0.0192
  238MOL0     H32127   2.540   3.328   9.434 -0.5006 -1.3713  0.0813
  238MOL0     H32128   2.391   3.163   9.507 -1.2935 -2.2597 -0.1610
  238MOL0     H32129   2.480   3.020   9.555  0.6901  0.8943 -2.0836
  238MOL0     H32130   2.419   3.127   9.683  0.4208 -3.0971  1.4121
  239MOL0     O32131   9.259   5.862   3.319 -0.3632  0.6908  1.1893
  239MOL0     C32132   9.291   5.862   3.201  0.5358  0.1706  0.2518
  239MOL0     O32133   9.221   5.921   3.105 -0.1196  0.2970  0.3503
  239MOL0     C32134   9.113   5.993   3.139  0.7412 -0.1894  0.6028
  239MOL0     C32135   9.137   6.124   3.170  0.2762 -0.0157 -0.0612
  239MOL0     C32136   9.037   6.210   3.193 -0.3946 -0.4052 -0.4824
  239MOL0     C32137   8.902   6.166   3.178 -0.1235  0.7013  0.0097
  239MOL0     O32138   8.808   6.253   3.202  0.2833  0.2341 -0.3446
  239MOL0     C32139   8.717   6.220   3.295  0.4588  0.1540 -0.2619
  239MOL0     C32140   8.649   6.348   3.338 -0.8443  0.6660  0.5140
  239MOL0     C32141   8.752   6.463   3.378  0.2096 -0.6477 -0.2578
  239MOL0     C32142   8.802   6.541   3.257  1.1377 -0.4979  0.4104
  239MOL0     C32143   8.870   6.672   3.283  0.4192  0.2614  0.1328
  239MOL0     C32144   8.995   6.648   3.359  0.3449  0.0773  0.2877
  239MOL0     C32145   9.107   6.747   3.311 -0.3125  0.2787  0.1505
  239MOL0     C32146   9.251   6.697   3.363 -0.5828  0.4839  0.5794
  239MOL0     N32147   9.308   6.576   3.296 -0.5779 -0.0686 -0.3773
  239MOL0     C32148   9.407   6.571   3.197  0.3806 -0.0411  0.2631
  239MOL0     C32149   9.438   6.442   3.183  0.1852  0.0026 -0.3069
  239MOL0     C32150   9.532   6.400   3.074  0.1162  0.1078 -0.3563
  239MOL0     C32151   9.662   6.345   3.138  0.0923  0.6000 -0.7377
  239MOL0     C32152   9.668   6.200   3.186 -0.7044  0.0967  0.3867
  239MOL0     C32153   9.654   6.095   3.074  0.4319 -0.9351 -0.7530
  239MOL0     O32154   9.745   6.131   2.965 -0.6697  0.0575 -0.0888
  239MOL0     C32155   9.762   6.053   2.848 -0.1706 -0.0566  0.4295
  239MOL0     C32156   9.681   5.945   2.812  0.0020  1.0772  0.1420
  239MOL0     C32157   9.685   5.876   2.688 -0.7906  0.3206  0.1134
  239MOL0     C32158   9.772   5.928   2.588 -0.4372 -0.2446 -0.6560
  239MOL0     C32159   9.784   5.855   2.458 -0.5640 -1.2188 -0.6416
  239MOL0     O32160   9.901   5.892   2.379  0.0009  0.1966  0.4803
  239MOL0     C32161   9.932   5.822   2.260 -0.1710 -0.3315  0.7213
  239MOL0     C32162  10.065   5.801   2.207 -0.5245 -0.8693  0.1598
  239MOL0     C32163  10.095   5.733   2.086 -0.5024 -0.2517  1.3988
  239MOL0     C32164   9.985   5.675   2.011  0.2060  0.1415  0.2666
  239MOL0     O32165  10.003   5.585   1.908  0.3517  0.1928  0.8744
  239MOL0     C32166  10.132   5.595   1.844 -1.2284  0.1807  0.3262
  239MOL0     C32167  10.130   5.479   1.742 -0.0706 -0.7307  0.2758
  239MOL0     C32168  10.247   5.477   1.633 -0.4618 -0.3277  0.2351
  239MOL0     C32169  10.246   5.367   1.534  0.2846 -0.1004  0.7378
  239MOL0     C32170  10.345   5.393   1.413 -0.3301  0.2668 -1.4018
  239MOL0     C32171  10.345   5.273   1.322 -0.4312  0.5258 -0.7757
  239MOL0     C32172  10.422   5.284   1.196 -0.0951  0.2887  0.6977
  239MOL0     C32173  10.361   5.204   1.077 -0.1782  0.1543 -0.1451
  239MOL0    Cl32174  10.342   5.026   1.102  0.1384 -0.1903 -0.3358
  239MOL0     C32175   9.855   5.704   2.052  0.3594 -0.2151 -0.1351
  239MOL0     C32176   9.827   5.777   2.178 -0.4646  1.1071 -0.0081
  239MOL0     O32177   9.707   5.762   2.432 -0.0518  0.5883 -0.6668
  239MOL0     C32178   9.870   6.024   2.625 -0.2586  0.5186 -0.3327
  239MOL0     C32179   9.858   6.093   2.750  0.0095  0.9295  0.4636
  239MOL0     N32180   9.374   6.369   3.279  0.1608 -0.1163  0.3138
  239MOL0     N32181   9.293   6.444   3.338 -0.1852  0.4240  0.1435
  239MOL0     C32182   8.873   6.029   3.146  0.8372 -0.2866 -0.0114
  239MOL0     C32183   8.984   5.944   3.130  0.6313 -0.2392  0.0108
  239MOL0     C32184   9.411   5.784   3.157 -0.2874  0.2119  0.4042
  239MOL0     C32185   9.415   5.714   3.038  0.1566  0.0667 -0.2923
  239MOL0     C32186   9.526   5.641   2.992  0.9762 -0.0043 -0.4014
  239MOL0     C32187   9.645   5.632   3.077  0.6504  0.2442  0.2043
  239MOL0     O32188   9.760   5.558   3.040  0.3699 -0.8611  0.6911
  239MOL0     C32189   9.751   5.461   2.940  1.3494  0.5613  0.6907
  239MOL0     C32190   9.860   5.357   2.967  0.1345 -0.4782  0.3480
  239MOL0     C32191   9.822   5.234   2.882 -0.5888  0.7503 -0.1044
  239MOL0     C32192   9.939   5.142   2.910  0.1157 -0.2237  0.2096
  239MOL0     C32193   9.944   5.027   2.815  0.2367  0.0120 -0.3810
  239MOL0     C32194   9.949   4.929   2.739  1.3342  0.0721 -0.0998
  239MOL0     C32195   9.647   5.706   3.191 -0.3479  0.7544  0.3111
  239MOL0     C32196   9.536   5.778   3.231 -0.5467  0.8311 -0.5737
  239MOL0     C32197   9.544   5.839   3.366 -0.2549 -0.6333  0.2669
  239MOL0     H32198   9.236   6.159   3.142  1.6510 -2.3919  1.5339
  239MOL0     H32199   9.055   6.316   3.212 -1.6311 -0.2994  0.2540
  239MOL0     H32200   8.640   6.159   3.247  1.0105 -0.7810  0.0141
  239MOL0     H32201   8.760   6.159   3.375 -1.0267 -0.5930  0.0142
  239MOL0     H32202   8.596   6.325   3.430 -3.0427  1.1692 -0.5717
  239MOL0     H32203   8.569   6.388   3.276 -0.3480  2.9895  1.2465
  239MOL0     H32204   8.833   6.405   3.423 -0.2329 -1.4110 -0.4133
  239MOL0     H32205   8.704   6.527   3.452  0.5509 -0.0212 -0.5772
  239MOL0     H32206   8.875   6.484   3.199  2.1032 -1.6506  2.6389
  239MOL0     H32207   8.718   6.564   3.191  2.3731  0.5369 -0.8735
  239MOL0     H32208   8.900   6.722   3.190  0.1674 -1.2409 -0.7895
  239MOL0     H32209   8.802   6.740   3.336  0.5371  0.0179  0.5966
  239MOL0     H32210   8.978   6.664   3.465 -1.3923  0.7369 -0.0599
  239MOL0     H32211   9.030   6.545   3.351  1.4291  0.4124  0.6054
  239MOL0     H32212   9.079   6.846   3.348  0.1681  1.4815 -2.4370
  239MOL0     H32213   9.106   6.758   3.202  4.4185  0.4173 -0.1029
  239MOL0     H32214   9.316   6.780   3.332 -1.9440  1.7378  0.9853
  239MOL0     H32215   9.255   6.688   3.472  4.2092 -0.1538  0.5837
  239MOL0     H32216   9.437   6.644   3.122  0.8490  0.6304  1.0933
  239MOL0     H32217   9.489   6.318   3.015 -0.8021 -0.7157  1.3848
  239MOL0     H32218   9.550   6.483   3.005  0.1899  1.4005  1.1834
  239MOL0     H32219   9.744   6.369   3.069 -0.0512  0.7417 -0.8597
  239MOL0     H32220   9.687   6.414   3.220 -2.9056  2.3646 -1.1561
  239MOL0     H32221   9.583   6.187   3.253  1.0458 -0.3065  2.6833
  239MOL0     H32222   9.754   6.179   3.251 -0.4401  0.1493  0.0526
  239MOL0     H32223   9.553   6.082   3.033  0.3638 -0.1050 -0.8697
  239MOL0     H32224   9.668   5.993   3.109  2.4239 -2.4113 -5.0423
  239MOL0     H32225   9.605   5.906   2.879  1.0764 -2.9869 -0.7391
  239MOL0     H32226   9.609   5.802   2.667 -1.3127  0.6819  0.7122
  239MOL0     H32227  10.149   5.841   2.264  1.2396 -2.1416 -1.4002
  239MOL0     H32228  10.199   5.717   2.060 -0.6724  1.7880 -0.9327
  239MOL0     H32229  10.149   5.685   1.784 -1.6129 -1.7500 -2.8548
  239MOL0     H32230  10.209   5.565   1.916 -0.8480 -3.2664 -1.3165
  239MOL0     H32231  10.129   5.382   1.791 -0.2824 -0.2584  1.2360
  239MOL0     H32232  10.037   5.503   1.690  0.3897  1.3984  0.3279
  239MOL0     H32233  10.239   5.565   1.569  2.5095 -1.0898 -1.3719
  239MOL0     H32234  10.344   5.480   1.683 -0.9198  2.6064  1.1090
  239MOL0     H32235  10.142   5.358   1.502  0.3732  1.4770 -0.0862
  239MOL0     H32236  10.262   5.275   1.591  1.1577 -0.7866 -0.5758
  239MOL0     H32237  10.444   5.409   1.457 -0.8399 -1.6498  0.6348
  239MOL0     H32238  10.323   5.476   1.346  2.7860  2.7116  0.3694
  239MOL0     H32239  10.377   5.185   1.378  1.1233  0.6759 -1.3624
  239MOL0     H32240  10.244   5.242   1.297 -0.1616 -1.5161  0.5024
  239MOL0     H32241  10.517   5.233   1.216 -1.0529 -0.1784  4.9144
  239MOL0     H32242  10.429   5.384   1.151 -1.2771  0.6828  1.3541
  239MOL0     H32243  10.268   5.250   1.042  0.4512  0.5125 -1.4010
  239MOL0     H32244  10.422   5.223   0.988 -2.9472  0.7861 -2.0243
  239MOL0     H32245   9.780   5.657   1.989  0.1870  1.0460 -0.9059
  239MOL0     H32246   9.722   5.766   2.201 -1.1862  2.8073 -2.1183
  239MOL0     H32247   9.954   6.042   2.558 -0.6215 -3.4646 -2.2073
  239MOL0     H32248   9.921   6.181   2.759 -2.2921  2.5605  1.6482
  239MOL0     H32249   8.769   5.999   3.137  0.4751  0.8426  0.1913
  239MOL0     H32250   8.970   5.836   3.126  0.6536 -0.2778  0.7696
  239MOL0     H32251   9.328   5.724   2.973 -1.1234  0.1730  1.3727
  239MOL0     H32252   9.512   5.586   2.899  0.8651 -0.0234 -0.3737
  239MOL0     H32253   9.765   5.501   2.839  1.5050 -1.8810 -0.3471
  239MOL0     H32254   9.657   5.405   2.939  3.2245 -2.8786 -0.1830
  239MOL0     H32255   9.848   5.328   3.072  0.4673 -1.0048  0.2467
  239MOL0     H32256   9.952   5.411   2.946 -0.9132  0.8608 -1.0110
  239MOL0     H32257   9.801   5.271   2.782  1.0945 -0.6618 -1.0291
  239MOL0     H32258   9.727   5.190   2.913 -0.6777 -0.1752 -1.6282
  239MOL0     H32259  10.034   5.193   2.895  0.6038 -0.9716  0.6704
  239MOL0     H32260   9.936   5.108   3.014 -0.5458  1.2697  0.7061
  239MOL0     H32261   9.952   4.848   2.670  0.4839 -0.0243 -0.0363
  239MOL0     H32262   9.746   5.716   3.236 -0.3549 -1.8231  1.0510
  239MOL0     H32263   9.644   5.831   3.409 -0.7266 -3.0847  1.0599
  239MOL0     H32264   9.508   5.942   3.357 -1.2033 -0.5905  3.3655
  239MOL0     H32265   9.486   5.787   3.442  1.1405  0.4347  2.1661
  240MOL0     O32266   2.180   0.003   8.644  0.1127  0.4875  0.4419
  240MOL0     C32267   2.078  -0.036   8.696  1.1526 -0.6719  0.2626
  240MOL0     O32268   1.975   0.051   8.728  0.0109 -0.3599  0.0120
  240MOL0     C32269   2.018   0.180   8.719 -0.0866  0.3604 -0.2689
  240MOL0     C32270   2.098   0.247   8.811 -0.7535  0.0842  0.8862
  240MOL0     C32271   2.141   0.377   8.793  0.1946  0.2432 -0.3185
  240MOL0     C32272   2.090   0.448   8.687 -0.2898 -0.2379 -0.0326
  240MOL0     O32273   2.114   0.580   8.687  0.4071 -0.5455 -0.0525
  240MOL0     C32274   2.025   0.655   8.608  0.2212 -0.6886 -0.0560
  240MOL0     C32275   2.033   0.801   8.663  0.1429 -0.1836  0.6144
  240MOL0     C32276   1.936   0.899   8.599 -0.1736 -0.6026  0.2900
  240MOL0     C32277   1.943   1.039   8.670 -1.1727  0.4835  0.1997
  240MOL0     C32278   1.829   1.122   8.615  0.2982 -0.2987  0.7924
  240MOL0     C32279   1.838   1.277   8.641 -0.0161 -0.3875  1.2439
  240MOL0     C32280   1.893   1.306   8.785 -0.4327 -0.0438  0.3929
  240MOL0     C32281   1.901   1.466   8.783 -0.3953  0.0758  0.5073
  240MOL0     N32282   1.920   1.534   8.912  0.1771 -0.7279  0.0219
  240MOL0     C32283   1.833   1.532   9.017 -0.0520  1.0835 -0.1005
  240MOL0     C32284   1.863   1.638   9.097 -0.4118 -0.0932  0.1135
  240MOL0     C32285   1.777   1.695   9.210 -0.0051 -0.8308 -0.3087
  240MOL0     C32286   1.650   1.761   9.156  0.0872 -0.4778  0.0529
  240MOL0     C32287   1.517   1.700   9.212  0.5896 -0.2458 -0.3113
  240MOL0     C32288   1.403   1.794   9.191  0.0735 -0.3844 -0.6599
  240MOL0     O32289   1.399   1.862   9.057 -0.3987  0.3016 -0.1886
  240MOL0     C32290   1.306   1.953   9.020 -0.1861  1.2026  0.5234
  240MOL0     C32291   1.304   2.004   8.886 -0.9685 -0.3255 -0.2390
  240MOL0     C32292   1.212   2.105   8.839 -0.2804 -0.1322 -0.4201
  240MOL0     C32293   1.124   2.171   8.928 -0.0309  0.6881  0.1507
  240MOL0     C32294   1.041   2.278   8.871  0.6336  0.6365 -0.4860
  240MOL0     O32295   0.974   2.343   8.967  0.5990  0.2785  0.3508
  240MOL0     C32296   0.902   2.453   8.934 -0.1213  0.0208  0.3497
  240MOL0     C32297   0.773   2.455   8.990  0.5040 -0.3246  0.1647
  240MOL0     C32298   0.702   2.574   8.982  0.2478 -0.0824 -0.1945
  240MOL0     C32299   0.749   2.686   8.918  0.2072 -0.3272  0.1679
  240MOL0     O32300   0.656   2.787   8.905 -0.4115 -0.0260 -0.0228
  240MOL0     C32301   0.713   2.919   8.910 -0.0882  1.5448  0.6928
  240MOL0     C32302   0.731   2.967   9.039  0.4039  0.2324 -1.1690
  240MOL0     C32303   0.596   3.015   9.094  0.2734  0.5437  0.1672
  240MOL0     C32304   0.628   3.119   9.207  0.8229  0.6776  0.6762
  240MOL0     C32305   0.505   3.165   9.284  0.3403  0.1728  0.2648
  240MOL0     C32306   0.548   3.276   9.376  0.1113  0.2480 -0.2347
  240MOL0     C32307   0.450   3.284   9.501 -0.6137 -0.2132  0.5040
  240MOL0     C32308   0.522   3.364   9.607 -0.7255  0.2862 -0.9182
  240MOL0    Cl32309   0.682   3.310   9.659  0.3551  0.2013  0.0791
  240MOL0     C32310   0.883   2.677   8.863 -0.5118  0.3679  0.7754
  240MOL0     C32311   0.954   2.560   8.864 -0.1420 -0.0330 -0.2376
  240MOL0     O32312   1.045   2.303   8.747  0.3416 -1.1404 -0.8327
  240MOL0     C32313   1.122   2.118   9.060  0.0151 -0.9209  0.2077
  240MOL0     C32314   1.212   2.012   9.100 -1.2766  0.6682 -0.4733
  240MOL0     N32315   1.963   1.715   9.035 -0.0860 -0.0108 -0.8422
  240MOL0     N32316   1.997   1.643   8.930 -0.0258 -0.9876 -0.2545
  240MOL0     C32317   2.021   0.377   8.585 -0.8562  0.2330 -0.0346
  240MOL0     C32318   1.983   0.242   8.595  0.0532 -0.7568  0.1784
  240MOL0     C32319   2.054  -0.178   8.724 -0.2930  0.5757 -0.1479
  240MOL0     C32320   2.160  -0.266   8.759 -0.0210  0.7003  0.9018
  240MOL0     C32321   2.132  -0.390   8.818  0.0002 -0.7661 -0.0127
  240MOL0     C32322   2.005  -0.444   8.822 -0.6057  0.3188  0.2316
  240MOL0     O32323   2.004  -0.563   8.876  0.1860  0.2884 -0.5875
  240MOL0     C32324   1.904  -0.586   8.971  0.6300  0.6266 -0.6690
  240MOL0     C32325   1.832  -0.720   8.939 -0.5942 -0.2581  0.0367
  240MOL0     C32326   1.933  -0.840   8.971 -0.6882 -1.5081  1.0545
  240MOL0     C32327   1.883  -0.984   8.920 -0.2143 -0.3889  0.3503
  240MOL0     C32328   1.786  -1.048   9.012 -0.8565  0.5559 -0.9310
  240MOL0     C32329   1.698  -1.090   9.089 -0.3703 -0.6800  0.6920
  240MOL0     C32330   1.900  -0.372   8.766 -0.1899  0.0574 -0.7172
  240MOL0     C32331   1.927  -0.238   8.730  0.6598 -0.0749 -0.0952
  240MOL0     C32332   1.821  -0.166   8.664  0.7247 -0.1954  0.2220
  240MOL0     H32333   2.119   0.187   8.899 -1.5688  2.0989  2.5255
  240MOL0     H32334   2.204   0.421   8.869 -1.1453  0.8016  0.4898
  240MOL0     H32335   2.060   0.662   8.504 -0.4411 -1.3230 -0.3288
  240MOL0     H32336   1.923   0.620   8.620 -0.3678  1.2160  0.9904
  240MOL0     H32337   2.136   0.831   8.646 -0.6494  1.2856 -2.3139
  240MOL0     H32338   2.007   0.785   8.768  0.0707 -3.1495  0.2363
  240MOL0     H32339   1.834   0.858   8.599 -0.6395 -0.1901 -5.3144
  240MOL0     H32340   1.966   0.922   8.497  0.1693 -0.9295  0.3146
  240MOL0     H32341   1.934   1.021   8.777 -0.2137  0.3422  0.2590
  240MOL0     H32342   2.037   1.086   8.642 -1.2681  0.6464  0.1535
  240MOL0     H32343   1.824   1.117   8.506 -0.7658  1.9468  0.6742
  240MOL0     H32344   1.740   1.080   8.663  1.6936  0.0696  3.9486
  240MOL0     H32345   1.908   1.315   8.567 -4.4030  2.3795 -1.9938
  240MOL0     H32346   1.739   1.315   8.614  0.1332 -1.8969 -1.8514
  240MOL0     H32347   1.995   1.273   8.805 -1.2006 -2.7572  0.2485
  240MOL0     H32348   1.838   1.265   8.870  0.3521 -3.4213 -0.5612
  240MOL0     H32349   1.986   1.488   8.717 -0.0890 -2.6954 -0.1407
  240MOL0     H32350   1.817   1.517   8.736 -0.0045  2.3717  2.1071
  240MOL0     H32351   1.754   1.462   9.042 -0.1307  0.8564 -0.9248
  240MOL0     H32352   1.765   1.615   9.284 -0.8382  1.2541  1.9530
  240MOL0     H32353   1.836   1.777   9.251 -0.2367 -0.0178 -1.5665
  240MOL0     H32354   1.655   1.866   9.187  2.1531 -0.9491  1.5085
  240MOL0     H32355   1.645   1.750   9.048  1.5721 -1.8664  0.0847
  240MOL0     H32356   1.522   1.680   9.320 -2.5956  1.6164  0.3233
  240MOL0     H32357   1.501   1.610   9.152  0.2953  0.3622 -1.1683
  240MOL0     H32358   1.413   1.871   9.269 -0.3041 -1.4082  0.4249
  240MOL0     H32359   1.307   1.747   9.213  0.4880 -0.8230  0.2681
  240MOL0     H32360   1.378   1.962   8.820 -0.9570 -0.1226 -0.3567
  240MOL0     H32361   1.217   2.127   8.732 -0.4865  2.4943  0.0332
  240MOL0     H32362   0.720   2.383   9.052 -1.8217  2.8121  2.1138
  240MOL0     H32363   0.607   2.579   9.033  1.7015  0.1053  2.6520
  240MOL0     H32364   0.810   2.911   8.858  0.4608 -1.6074  2.0074
  240MOL0     H32365   0.649   2.984   8.850  1.6966  1.9545 -0.8817
  240MOL0     H32366   0.776   2.892   9.105  0.6743  1.0466 -0.3944
  240MOL0     H32367   0.807   3.046   9.034  2.6556 -1.2829  3.1923
  240MOL0     H32368   0.547   3.062   9.009 -0.7609 -0.2608  0.3037
  240MOL0     H32369   0.540   2.930   9.135  1.8406  0.0236  1.3647
  240MOL0     H32370   0.686   3.208   9.178  2.6470 -0.3345  1.0273
  240MOL0     H32371   0.696   3.064   9.273  1.0792  1.7695  1.3625
  240MOL0     H32372   0.452   3.085   9.336 -0.9183  1.6359  1.2860
  240MOL0     H32373   0.434   3.211   9.215 -0.5395 -0.3921  0.7771
  240MOL0     H32374   0.652   3.262   9.406  0.6173 -1.2484 -2.4357
  240MOL0     H32375   0.544   3.368   9.317 -4.3915 -0.7217 -1.8393
  240MOL0     H32376   0.420   3.182   9.524 -3.6462  0.4604  0.0354
  240MOL0     H32377   0.360   3.344   9.482  0.0288  1.2769  1.9201
  240MOL0     H32378   0.546   3.460   9.562  2.8572 -0.2951 -0.5927
  240MOL0     H32379   0.463   3.372   9.699  2.2282  3.2560  0.9492
  240MOL0     H32380   0.924   2.757   8.803 -0.1305 -1.0254 -0.8890
  240MOL0     H32381   1.045   2.558   8.806 -1.7022  1.5457 -2.9269
  240MOL0     H32382   1.064   2.162   9.141  0.7861  1.3401 -0.3780
  240MOL0     H32383   1.201   1.984   9.205 -5.5584 -0.6794 -1.0689
  240MOL0     H32384   1.999   0.426   8.491 -2.0223 -0.9869 -0.4138
  240MOL0     H32385   1.926   0.199   8.513  1.2593 -1.8085 -0.1355
  240MOL0     H32386   2.263  -0.236   8.748  0.3067 -1.1461 -2.3228
  240MOL0     H32387   2.205  -0.450   8.871  1.3772 -0.1315 -1.1379
  240MOL0     H32388   1.830  -0.505   8.977  0.0360 -0.0039  1.3962
  240MOL0     H32389   1.949  -0.588   9.071  0.7974 -0.6169 -0.7640
  240MOL0     H32390   1.812  -0.713   8.832 -3.5761  0.5369  0.5427
  240MOL0     H32391   1.739  -0.743   8.993 -0.1508 -4.0145 -0.4817
  240MOL0     H32392   1.978  -0.843   9.071  3.3370  2.6051 -0.3241
  240MOL0     H32393   2.018  -0.822   8.905 -2.1733  2.6182 -0.0669
  240MOL0     H32394   1.846  -0.956   8.821  1.1445  0.4817  0.0581
  240MOL0     H32395   1.960  -1.060   8.905  0.0384 -0.4557  1.8590
  240MOL0     H32396   1.620  -1.118   9.157 -2.4710 -3.8183 -2.6415
  240MOL0     H32397   1.803  -0.413   8.743 -1.0749  2.4024 -1.5028
  240MOL0     H32398   1.792  -0.082   8.728 -1.2496 -2.3220  2.3435
  240MOL0     H32399   1.832  -0.135   8.560  0.1384 -2.0136 -0.4380
  240MOL0     H32400   1.734  -0.233   8.664  1.4381 -1.1395 -0.2104
  241MOL0     O32401   5.123   8.554  10.175 -0.4580 -0.7177 -0.2600
  241MOL0     C32402   5.100   8.599  10.284  1.2091 -0.2053  0.2144
  241MOL0     O32403   5.052   8.524  10.392 -0.2431  0.2527 -0.4084
  241MOL0     C32404   5.089   8.394  10.397 -0.0190  0.3650 -0.4157
  241MOL0     C32405   5.212   8.339  10.334 -0.0516 -0.0187 -0.4494
  241MOL0     C32406   5.248   8.204  10.360  0.9313  0.5877 -0.1235
  241MOL0     C32407   5.171   8.128  10.448 -0.0848 -0.0084  0.6008
  241MOL0     O32408   5.221   8.005  10.474 -0.4778  0.3603  0.2972
  241MOL0     C32409   5.126   7.900  10.507  0.4345 -0.0172  0.3841
  241MOL0     C32410   5.136   7.849  10.646  0.7680  0.2956  0.2065
  241MOL0     C32411   5.061   7.716  10.662 -0.0412  0.5323 -0.3217
  241MOL0     C32412   5.038   7.686  10.807  0.1454 -0.9353 -0.1335
  241MOL0     C32413   4.962   7.553  10.822  0.5734  0.1812 -0.1387
  241MOL0     C32414   5.042   7.431  10.835 -1.0917  0.2995 -0.8803
  241MOL0     C32415   4.964   7.303  10.818  0.0161  0.0773  0.4960
  241MOL0     C32416   4.844   7.284  10.922  0.6909 -0.1671 -0.0957
  241MOL0     N32417   4.755   7.168  10.893  0.7406 -0.4978 -0.3390
  241MOL0     C32418   4.628   7.159  10.934 -0.4119  0.2288 -0.2143
  241MOL0     C32419   4.586   7.042  10.879 -0.1333 -1.1396  0.2006
  241MOL0     C32420   4.439   6.985  10.905 -0.5377 -0.8417  0.5186
  241MOL0     C32421   4.427   6.838  10.907  0.4417 -0.7570  0.4243
  241MOL0     C32422   4.506   6.785  11.034  0.3477  0.3605  0.2999
  241MOL0     C32423   4.522   6.633  11.040  0.2877  0.4061  0.6521
  241MOL0     O32424   4.625   6.592  11.131  0.8561 -0.0554 -0.7782
  241MOL0     C32425   4.594   6.552  11.259 -0.0981  0.2166  1.3111
  241MOL0     C32426   4.702   6.517  11.344 -0.1387 -0.3991 -0.5334
  241MOL0     C32427   4.682   6.479  11.480  0.3726 -0.0305  0.6515
  241MOL0     C32428   4.545   6.481  11.533 -0.2436 -0.0352  0.0458
  241MOL0     C32429   4.506   6.445  11.675  0.0424 -0.0944 -0.5925
  241MOL0     O32430   4.379   6.404  11.703 -1.0739 -0.5771  0.2475
  241MOL0     C32431   4.334   6.371  11.830 -0.4862 -0.0242 -0.0085
  241MOL0     C32432   4.189   6.374  11.840  0.4007 -0.8979 -0.0283
  241MOL0     C32433   4.125   6.346  11.960  0.7493  0.2539  0.0137
  241MOL0     C32434   4.197   6.323  12.077  0.6993 -0.8633  0.4582
  241MOL0     O32435   4.139   6.313  12.197  0.2715 -0.1319  0.1166
  241MOL0     C32436   3.997   6.276  12.186 -0.7518  0.1222  0.3962
  241MOL0     C32437   3.963   6.238  12.331 -0.2425 -0.5355 -0.0937
  241MOL0     C32438   3.815   6.200  12.340 -0.0285 -0.5318  0.6740
  241MOL0     C32439   3.787   6.151  12.495 -0.6344 -0.2471  0.0896
  241MOL0     C32440   3.637   6.125  12.501 -0.5610 -0.5733  0.3985
  241MOL0     C32441   3.578   6.078  12.637  0.1202 -0.6565  0.2760
  241MOL0     C32442   3.434   6.064  12.627  0.2243 -0.8007  0.1228
  241MOL0     C32443   3.375   5.982  12.749 -0.5415  0.6471  0.2338
  241MOL0    Cl32444   3.458   5.827  12.786  0.2649  0.3049 -0.0489
  241MOL0     C32445   4.338   6.313  12.054  1.1541  0.0062 -0.3417
  241MOL0     C32446   4.409   6.340  11.941  0.5144  1.1374 -0.9167
  241MOL0     O32447   4.601   6.439  11.757  0.3108  0.2756  0.0500
  241MOL0     C32448   4.441   6.520  11.449 -0.8052 -0.1010 -0.4114
  241MOL0     C32449   4.466   6.552  11.314  0.3508 -0.7647 -0.3782
  241MOL0     N32450   4.684   6.987  10.796 -1.4725  0.0870 -0.6900
  241MOL0     N32451   4.787   7.063  10.820  0.1009 -0.1854  0.6307
  241MOL0     C32452   5.050   8.183  10.500 -0.6570  0.7926 -0.3090
  241MOL0     C32453   5.010   8.307  10.474  0.3946 -0.8754  0.0659
  241MOL0     C32454   5.106   8.748  10.298  0.5420  0.2576  0.3921
  241MOL0     C32455   5.177   8.797  10.412 -0.0600 -0.3508  0.6113
  241MOL0     C32456   5.217   8.927  10.422 -0.2893  0.8968 -0.2555
  241MOL0     C32457   5.166   9.024  10.334  0.8156  0.4524  0.8256
  241MOL0     O32458   5.173   9.157  10.356  0.0386 -0.4416 -0.9056
  241MOL0     C32459   5.198   9.209  10.488  0.2142 -0.1130 -0.1146
  241MOL0     C32460   5.223   9.359  10.483  0.5853 -0.2706 -0.4035
  241MOL0     C32461   5.356   9.393  10.426 -0.2089  1.1923 -0.5273
  241MOL0     C32462   5.380   9.540  10.393  0.3813 -0.8776  0.7891
  241MOL0     C32463   5.304   9.588  10.277 -0.5187  0.0610 -0.1501
  241MOL0     C32464   5.244   9.636  10.193  0.1755  0.4080  0.8986
  241MOL0     C32465   5.073   8.979  10.230  0.7073  0.6217 -0.3984
  241MOL0     C32466   5.047   8.842  10.208  0.1431  0.0752  1.0171
  241MOL0     C32467   4.952   8.808  10.102  0.8697 -0.0398  1.0643
  241MOL0     H32468   5.267   8.403  10.266 -3.3483  2.9454 -0.5950
  241MOL0     H32469   5.337   8.169  10.308 -0.3637  0.1079 -2.1338
  241MOL0     H32470   5.027   7.931  10.474  0.8064  0.6204 -0.1752
  241MOL0     H32471   5.166   7.819  10.444  3.2379 -0.0002  1.9629
  241MOL0     H32472   5.094   7.914  10.723  2.2383 -3.1433  4.3306
  241MOL0     H32473   5.239   7.836  10.683  0.5164  2.3446  1.8647
  241MOL0     H32474   5.128   7.640  10.620  1.6345  1.7913 -0.0400
  241MOL0     H32475   4.968   7.724  10.605  1.2167  0.6147 -2.5020
  241MOL0     H32476   5.139   7.673  10.847 -0.3771 -1.8897  0.9401
  241MOL0     H32477   4.986   7.768  10.857  0.9514  0.3373 -1.3106
  241MOL0     H32478   4.904   7.561  10.914 -1.0339  0.5731 -1.1403
  241MOL0     H32479   4.891   7.536  10.740  2.0489 -3.2876 -0.8839
  241MOL0     H32480   5.126   7.442  10.765 -0.9562  0.1748 -0.7363
  241MOL0     H32481   5.079   7.434  10.938  1.7482  1.9295 -1.8465
  241MOL0     H32482   5.037   7.223  10.834  0.1066 -0.0680 -0.5175
  241MOL0     H32483   4.923   7.298  10.716 -2.6910  0.2216  1.5021
  241MOL0     H32484   4.875   7.284  11.027 -3.4393  2.4896  1.3593
  241MOL0     H32485   4.780   7.372  10.914 -0.4665 -0.8425  1.2321
  241MOL0     H32486   4.569   7.231  10.990 -1.4787 -0.5811 -0.2539
  241MOL0     H32487   4.422   7.020  11.008  5.2990 -0.9717  1.9159
  241MOL0     H32488   4.354   7.024  10.849 -1.3756 -1.1680  1.5365
  241MOL0     H32489   4.323   6.811  10.929  0.7305 -1.4924  0.9092
  241MOL0     H32490   4.475   6.804  10.815  2.3839  1.0636  0.6839
  241MOL0     H32491   4.453   6.804  11.128  1.5759 -0.4289  1.1771
  241MOL0     H32492   4.604   6.833  11.033  2.0234 -2.6496  2.8876
  241MOL0     H32493   4.565   6.605  10.943  0.9210 -0.0707  1.0679
  241MOL0     H32494   4.434   6.570  11.056  0.9024 -0.3721  1.0189
  241MOL0     H32495   4.803   6.519  11.303  0.0388 -1.1279 -0.1411
  241MOL0     H32496   4.759   6.444  11.548  1.4980 -2.4978 -1.6999
  241MOL0     H32497   4.147   6.393  11.742  1.4234  2.4194  0.0647
  241MOL0     H32498   4.016   6.340  11.954  0.7833  1.0055 -2.3629
  241MOL0     H32499   3.939   6.359  12.147 -1.2207 -1.0307 -1.4767
  241MOL0     H32500   3.989   6.184  12.127  1.8991  0.4820 -0.6730
  241MOL0     H32501   4.013   6.149  12.371 -1.8479 -2.6873 -2.5227
  241MOL0     H32502   3.989   6.327  12.388 -0.8195 -1.0513  1.0204
  241MOL0     H32503   3.743   6.272  12.301 -0.8909 -0.4189  2.3869
  241MOL0     H32504   3.806   6.113  12.274  2.3620 -1.8294  1.9303
  241MOL0     H32505   3.816   6.227  12.568 -1.1867  0.2959 -0.2520
  241MOL0     H32506   3.860   6.072  12.515  1.2462  1.5182  0.6281
  241MOL0     H32507   3.605   6.045  12.433 -2.5070  1.2135 -0.9170
  241MOL0     H32508   3.593   6.221  12.474  0.9054  0.1314  0.3978
  241MOL0     H32509   3.623   5.982  12.661 -1.3857 -0.7982  2.8655
  241MOL0     H32510   3.595   6.159  12.709 -2.0694 -1.2180  1.5221
  241MOL0     H32511   3.420   6.003  12.537  1.0213 -1.1352  0.2170
  241MOL0     H32512   3.376   6.156  12.615 -2.2010 -1.8995  2.3907
  241MOL0     H32513   3.372   6.038  12.843 -0.5785  0.4702  0.3370
  241MOL0     H32514   3.269   5.974  12.724 -0.6300  3.6628 -0.8845
  241MOL0     H32515   4.385   6.275  12.144 -2.4110 -0.3373  1.5453
  241MOL0     H32516   4.517   6.332  11.952  0.4191 -0.1019 -0.7372
  241MOL0     H32517   4.344   6.532  11.496  0.1949  0.7019  1.5658
  241MOL0     H32518   4.383   6.585  11.253 -0.1656 -1.5025 -0.0897
  241MOL0     H32519   5.008   8.131  10.586  1.3834 -0.7378 -0.1514
  241MOL0     H32520   4.912   8.339  10.508  0.3583 -0.1413 -0.6736
  241MOL0     H32521   5.219   8.728  10.484 -1.9447 -0.2212  1.8785
  241MOL0     H32522   5.272   8.958  10.510 -0.3933  1.1339 -0.2736
  241MOL0     H32523   5.284   9.167  10.541 -1.0244  0.7449  2.7801
  241MOL0     H32524   5.116   9.185  10.557 -1.6281 -0.0729 -2.1795
  241MOL0     H32525   5.217   9.389  10.588  0.9169 -0.2706 -0.3832
  241MOL0     H32526   5.138   9.414  10.441  0.8378  0.1875 -0.3164
  241MOL0     H32527   5.369   9.343  10.330 -3.0234  1.7987 -1.3298
  241MOL0     H32528   5.436   9.364  10.495  0.0243 -0.5339 -1.4585
  241MOL0     H32529   5.343   9.609  10.469 -0.7033  1.2573 -1.5431
  241MOL0     H32530   5.485   9.559  10.369 -0.1916  0.3617 -0.9723
  241MOL0     H32531   5.181   9.670  10.113  0.0935  0.5952  1.0420
  241MOL0     H32532   5.019   9.058  10.179  1.4376  2.5246  1.5909
  241MOL0     H32533   4.988   8.830  10.001 -2.5338 -0.5280 -0.3742
  241MOL0     H32534   4.917   8.705  10.106 -2.5765  0.8200 -2.1316
  241MOL0     H32535   4.862   8.869  10.113  0.0349 -0.8325 -0.9214
  242MOL0     O32536   7.718   0.568   8.374 -0.2333 -0.6085 -0.4432
  242MOL0     C32537   7.634   0.481   8.378 -1.0607 -0.4412  0.7448
  242MOL0     O32538   7.658   0.346   8.418 -0.2859  0.1750  0.1354
  242MOL0     C32539   7.791   0.319   8.412 -0.4268 -0.0231  1.1262
  242MOL0     C32540   7.863   0.272   8.526 -0.5366  0.7369  0.4752
  242MOL0     C32541   7.989   0.220   8.509  0.8413  0.6392 -0.5719
  242MOL0     C32542   8.051   0.195   8.387 -1.0726 -0.2576  0.2454
  242MOL0     O32543   8.164   0.118   8.386  0.4624  0.6612  0.1322
  242MOL0     C32544   8.167   0.018   8.283  0.7094  0.7280 -0.1284
  242MOL0     C32545   8.286  -0.065   8.312  0.4590  0.2878 -0.1858
  242MOL0     C32546   8.328  -0.152   8.203 -0.9144 -0.2510 -0.0472
  242MOL0     C32547   8.225  -0.249   8.152 -1.0400  0.4388  0.3437
  242MOL0     C32548   8.262  -0.346   8.040 -0.3618  0.0409  0.2949
  242MOL0     C32549   8.366  -0.447   8.075  0.3960  0.6251 -0.4022
  242MOL0     C32550   8.417  -0.530   7.958  0.0665 -0.4773  0.2092
  242MOL0     C32551   8.501  -0.459   7.854  0.4618 -0.0873 -0.1448
  242MOL0     N32552   8.599  -0.367   7.901 -0.1021 -0.3807  0.1769
  242MOL0     C32553   8.729  -0.408   7.932  0.4190  0.4935 -0.3342
  242MOL0     C32554   8.767  -0.300   7.997  0.2423 -0.0916  0.4567
  242MOL0     C32555   8.911  -0.274   8.028  0.2392 -0.6407 -0.9220
  242MOL0     C32556   9.008  -0.285   7.915  0.5957 -0.1509  0.7582
  242MOL0     C32557   9.126  -0.190   7.930  0.0340  0.3991  0.1465
  242MOL0     C32558   9.209  -0.232   8.043  1.3146  0.0760 -0.1953
  242MOL0     O32559   9.252  -0.363   8.025 -0.4059 -0.1061 -0.1166
  242MOL0     C32560   9.371  -0.387   7.950  0.0805  1.3775 -0.2550
  242MOL0     C32561   9.369  -0.503   7.884 -1.0029  0.2580 -0.3388
  242MOL0     C32562   9.468  -0.543   7.796  0.4405  1.0626  0.1987
  242MOL0     C32563   9.595  -0.476   7.790  0.3552 -0.5256  0.0028
  242MOL0     C32564   9.709  -0.515   7.701  0.3783  0.2742  0.4778
  242MOL0     O32565   9.677  -0.605   7.615  0.9375  1.2084 -0.1662
  242MOL0     C32566   9.755  -0.635   7.509  0.1761  0.7227 -0.3451
  242MOL0     C32567   9.896  -0.667   7.518 -0.7358  0.0296 -0.0418
  242MOL0     C32568   9.972  -0.710   7.405  0.3328 -0.8208  0.1412
  242MOL0     C32569   9.911  -0.722   7.276  0.4084  0.4461 -0.8114
  242MOL0     O32570   9.978  -0.770   7.164 -0.0535 -0.3715 -0.7651
  242MOL0     C32571   9.972  -0.694   7.042  0.1171 -0.8533 -0.3810
  242MOL0     C32572  10.090  -0.735   6.959 -0.2625 -0.5303 -0.4204
  242MOL0     C32573  10.082  -0.880   6.901 -0.9599 -0.3905  0.0127
  242MOL0     C32574  10.213  -0.916   6.834 -0.5493 -0.0233 -0.1915
  242MOL0     C32575  10.200  -1.074   6.801 -0.0123  0.1633 -0.5920
  242MOL0     C32576  10.309  -1.123   6.713  0.2142 -0.3404  0.5436
  242MOL0     C32577  10.367  -1.264   6.742  0.6272 -0.0305  0.0180
  242MOL0     C32578  10.507  -1.271   6.669 -0.7098  0.2932  0.0438
  242MOL0    Cl32579  10.524  -1.241   6.500  0.0895  0.1583  0.3010
  242MOL0     C32580   9.777  -0.689   7.270 -0.4875 -0.7124  0.0913
  242MOL0     C32581   9.699  -0.641   7.387 -0.1871  0.2319  1.1088
  242MOL0     O32582   9.811  -0.450   7.695  0.3755 -0.2608 -0.1485
  242MOL0     C32583   9.602  -0.361   7.873  0.3961 -0.5300 -0.9798
  242MOL0     C32584   9.488  -0.318   7.953 -1.1821 -1.0959 -0.6214
  242MOL0     N32585   8.672  -0.194   7.997 -0.1822 -0.4512 -0.4706
  242MOL0     N32586   8.567  -0.247   7.950 -0.7322  0.4001  0.2513
  242MOL0     C32587   7.990   0.245   8.274  0.9105  0.9620 -0.1120
  242MOL0     C32588   7.871   0.318   8.286  0.1887 -0.2292  0.6521
  242MOL0     C32589   7.495   0.527   8.371  0.5695 -0.1257 -0.2181
  242MOL0     C32590   7.397   0.466   8.445  0.1659 -0.6427  1.2051
  242MOL0     C32591   7.259   0.501   8.445  0.8692  0.4751 -0.6732
  242MOL0     C32592   7.218   0.607   8.358  0.7317 -0.4472  0.1343
  242MOL0     O32593   7.090   0.662   8.346 -0.1253  0.0908  0.1074
  242MOL0     C32594   6.991   0.589   8.409  0.0057  0.4851  0.0108
  242MOL0     C32595   6.856   0.644   8.369  0.0097  1.7098 -0.5629
  242MOL0     C32596   6.794   0.599   8.231 -0.1542 -1.6644  0.3709
  242MOL0     C32597   6.671   0.686   8.215 -0.5294  0.4838 -0.5128
  242MOL0     C32598   6.562   0.649   8.311 -0.1423  0.3375 -0.2013
  242MOL0     C32599   6.463   0.622   8.368 -0.0485 -0.3499  0.1607
  242MOL0     C32600   7.319   0.667   8.279  0.1724  0.0881 -0.0712
  242MOL0     C32601   7.453   0.627   8.279 -0.4786  0.7676  0.6269
  242MOL0     C32602   7.536   0.690   8.175 -0.0914 -0.0168  0.2264
  242MOL0     H32603   7.818   0.262   8.624  1.6744 -0.2667  1.4574
  242MOL0     H32604   8.037   0.163   8.589 -0.3809 -1.8697 -1.5296
  242MOL0     H32605   8.080  -0.048   8.295  0.6514  0.8680  0.2337
  242MOL0     H32606   8.179   0.051   8.179 -0.9177  0.9594 -0.2703
  242MOL0     H32607   8.272  -0.129   8.400 -0.8659  0.3758 -0.3000
  242MOL0     H32608   8.377  -0.012   8.339  1.4223 -2.0131  1.4377
  242MOL0     H32609   8.411  -0.206   8.249 -1.7628 -0.7931  0.9125
  242MOL0     H32610   8.378  -0.086   8.131  0.5185 -1.0607  0.1792
  242MOL0     H32611   8.191  -0.316   8.231  1.2287  2.0500  2.8714
  242MOL0     H32612   8.144  -0.183   8.117 -0.9229 -0.3553 -1.5635
  242MOL0     H32613   8.184  -0.401   7.986 -0.0176  0.6509 -0.8616
  242MOL0     H32614   8.312  -0.284   7.965 -0.6428  1.1683  1.0172
  242MOL0     H32615   8.441  -0.378   8.116  0.5470  1.3792 -1.9100
  242MOL0     H32616   8.323  -0.520   8.144 -1.4928  1.6607 -0.4043
  242MOL0     H32617   8.335  -0.576   7.903  0.0976 -0.6033  0.2687
  242MOL0     H32618   8.475  -0.612   8.001 -0.1436  0.5130  2.5671
  242MOL0     H32619   8.552  -0.524   7.783  2.8067  1.1574  0.2948
  242MOL0     H32620   8.430  -0.403   7.792  3.4042  0.8662 -2.9496
  242MOL0     H32621   8.775  -0.503   7.906 -1.2191 -0.4648  0.1429
  242MOL0     H32622   8.914  -0.178   8.079  0.8547 -1.2733  0.3007
  242MOL0     H32623   8.947  -0.347   8.102  2.1293 -0.5324 -1.6705
  242MOL0     H32624   9.035  -0.388   7.893 -1.5843 -0.3750 -1.2078
  242MOL0     H32625   8.954  -0.255   7.825 -0.2338 -0.6677  1.0817
  242MOL0     H32626   9.098  -0.085   7.944 -0.5308  0.0474  2.0484
  242MOL0     H32627   9.199  -0.204   7.850  1.2681 -2.0824  1.5789
  242MOL0     H32628   9.157  -0.223   8.139  0.1025  0.4603 -0.8603
  242MOL0     H32629   9.294  -0.166   8.063  2.4817 -1.7855  1.3632
  242MOL0     H32630   9.278  -0.562   7.893 -1.3904  1.0961  2.0787
  242MOL0     H32631   9.446  -0.633   7.739  2.5553  0.2664  0.5656
  242MOL0     H32632   9.959  -0.669   7.607 -0.0897 -3.1817 -0.4402
  242MOL0     H32633  10.075  -0.741   7.401  1.1858  1.5312 -5.0333
  242MOL0     H32634   9.884  -0.699   6.977  1.1123  1.1519 -1.9954
  242MOL0     H32635   9.986  -0.586   7.057 -0.6423 -0.8424  0.3336
  242MOL0     H32636  10.092  -0.662   6.877 -0.7628  1.6829  1.4376
  242MOL0     H32637  10.187  -0.711   7.004 -0.6182  3.0543 -1.2233
  242MOL0     H32638  10.057  -0.949   6.983  1.4354  0.4363  1.5370
  242MOL0     H32639  10.000  -0.884   6.829  0.6219 -4.8973 -1.9109
  242MOL0     H32640  10.297  -0.895   6.901 -2.4697  0.3395  2.2287
  242MOL0     H32641  10.214  -0.866   6.736  0.0984 -2.2828 -1.4084
  242MOL0     H32642  10.103  -1.095   6.754 -0.4789  0.7261  0.0960
  242MOL0     H32643  10.189  -1.128   6.895  0.3628  1.4526  0.2164
  242MOL0     H32644  10.277  -1.110   6.609  0.2054  1.8062  0.7581
  242MOL0     H32645  10.393  -1.054   6.725  0.5724 -0.3802 -1.3001
  242MOL0     H32646  10.307  -1.339   6.692 -1.9570  1.5538  0.5658
  242MOL0     H32647  10.372  -1.295   6.847 -2.2080 -1.5597 -0.2103
  242MOL0     H32648  10.572  -1.210   6.733  0.4637 -3.5195  2.8327
  242MOL0     H32649  10.551  -1.370   6.683  0.4557  0.4203 -2.2263
  242MOL0     H32650   9.734  -0.686   7.171 -0.2198 -1.3240 -0.0452
  242MOL0     H32651   9.601  -0.595   7.371 -0.7896 -1.1424  0.7032
  242MOL0     H32652   9.689  -0.296   7.883 -0.7414  0.8070  0.6154
  242MOL0     H32653   9.492  -0.229   8.015 -1.3132 -1.1134 -0.5878
  242MOL0     H32654   8.036   0.223   8.178  0.6263 -0.5899  0.0806
  242MOL0     H32655   7.817   0.342   8.195  1.6471  0.3732 -0.0860
  242MOL0     H32656   7.434   0.380   8.499 -0.8685 -1.0285  1.3168
  242MOL0     H32657   7.202   0.427   8.500  0.2044  1.8198  0.4950
  242MOL0     H32658   6.997   0.588   8.518  0.1379 -0.3310  0.0009
  242MOL0     H32659   6.981   0.487   8.370 -1.2663  0.2460  0.9011
  242MOL0     H32660   6.867   0.752   8.354 -3.0491  2.3625  1.0334
  242MOL0     H32661   6.784   0.621   8.448  1.2175  1.2983  0.4505
  242MOL0     H32662   6.754   0.498   8.242 -3.8805 -0.1849  2.4578
  242MOL0     H32663   6.854   0.628   8.144  2.2242  2.3912  3.0546
  242MOL0     H32664   6.691   0.793   8.223 -2.6030  0.7831  1.8696
  242MOL0     H32665   6.640   0.673   8.110  1.4628  0.8768 -1.1845
  242MOL0     H32666   6.371   0.606   8.420  0.4015 -0.8017  0.8388
  242MOL0     H32667   7.284   0.751   8.220  1.9291  0.3782 -0.7646
  242MOL0     H32668   7.597   0.611   8.130 -0.2379 -0.0335  0.0551
  242MOL0     H32669   7.481   0.739   8.094 -0.5063 -0.0991  0.4589
  242MOL0     H32670   7.589   0.775   8.217  0.7698  0.9583 -2.5796
  243MOL0     O32671   9.863   0.220   5.544 -0.2049 -0.1576  0.2740
  243MOL0     C32672   9.814   0.285   5.638  0.0795  0.1307  0.0429
  243MOL0     O32673   9.880   0.328   5.748 -0.3823 -0.6919  0.8082
  243MOL0     C32674  10.020   0.322   5.731 -0.8871  0.3850 -0.3941
  243MOL0     C32675  10.103   0.209   5.750 -0.5054 -0.2391 -0.6148
  243MOL0     C32676  10.235   0.226   5.718 -0.2467 -0.8360  0.4265
  243MOL0     C32677  10.291   0.347   5.679 -0.8412  0.3785  0.5402
  243MOL0     O32678  10.426   0.344   5.644  0.1479  0.3995 -0.3693
  243MOL0     C32679  10.481   0.468   5.606 -0.4410 -0.0344  0.8598
  243MOL0     C32680  10.629   0.451   5.566 -0.4524  0.1992  0.0080
  243MOL0     C32681  10.712   0.401   5.688 -0.0588 -0.1974  0.3896
  243MOL0     C32682  10.863   0.409   5.658 -0.3764  0.2112  0.4541
  243MOL0     C32683  10.946   0.421   5.786  0.7108 -0.5771  0.0840
  243MOL0     C32684  11.081   0.501   5.772  0.1396  0.3321 -0.2424
  243MOL0     C32685  11.171   0.438   5.667 -0.0925 -0.5597 -0.1284
  243MOL0     C32686  11.239   0.314   5.716 -0.4394 -0.2933 -0.6997
  243MOL0     N32687  11.319   0.256   5.609  0.2168 -0.2725 -0.0952
  243MOL0     C32688  11.267   0.167   5.511 -0.5248 -0.5167 -0.4291
  243MOL0     C32689  11.372   0.143   5.428 -0.9089 -0.0864  0.5536
  243MOL0     C32690  11.385   0.041   5.314  0.7559 -0.7738  0.6453
  243MOL0     C32691  11.486  -0.068   5.355  0.9753  0.0605 -0.1735
  243MOL0     C32692  11.480  -0.174   5.242 -1.5028 -0.6158 -1.3288
  243MOL0     C32693  11.574  -0.286   5.273  0.2245  0.1346 -0.7829
  243MOL0     O32694  11.635  -0.333   5.154  0.8525 -0.4997  0.2473
  243MOL0     C32695  11.560  -0.410   5.070  0.4344 -0.6127  0.1281
  243MOL0     C32696  11.477  -0.515   5.126 -0.5781  0.2878  0.2348
  243MOL0     C32697  11.382  -0.573   5.037 -0.2802  0.1430  0.1398
  243MOL0     C32698  11.381  -0.544   4.902 -0.2908 -0.7957  0.4410
  243MOL0     C32699  11.275  -0.600   4.812  0.0994 -0.6335 -0.3126
  243MOL0     O32700  11.153  -0.641   4.856 -0.4107 -0.4932 -0.4997
  243MOL0     C32701  11.100  -0.746   4.799 -0.0059  1.4727 -0.5381
  243MOL0     C32702  11.038  -0.747   4.665  0.4967  0.6686 -0.4794
  243MOL0     C32703  10.949  -0.850   4.633  0.2439 -0.4845 -0.0466
  243MOL0     C32704  10.912  -0.952   4.715 -0.0774 -0.7398 -0.0003
  243MOL0     O32705  10.826  -1.044   4.656  0.2020  0.3534 -0.2935
  243MOL0     C32706  10.770  -1.143   4.742 -0.7124 -0.4627  0.2942
  243MOL0     C32707  10.643  -1.190   4.664  0.3345  0.0070 -1.0198
  243MOL0     C32708  10.514  -1.113   4.711 -0.2902 -0.4203  0.7406
  243MOL0     C32709  10.430  -1.182   4.818  0.7176 -0.9455 -0.1010
  243MOL0     C32710  10.289  -1.109   4.826  0.8849  0.4735  0.5085
  243MOL0     C32711  10.210  -1.156   4.946 -0.2131  0.0912  0.7587
  243MOL0     C32712  10.136  -1.050   5.027  1.1220  0.5692  0.7680
  243MOL0     C32713  10.036  -1.118   5.119  0.1009  0.3164 -0.0799
  243MOL0    Cl32714  10.123  -1.180   5.260 -0.2227 -0.2450  0.0933
  243MOL0     C32715  10.978  -0.965   4.841  0.1047  0.2252 -0.8143
  243MOL0     C32716  11.071  -0.864   4.887  0.1092  0.5554  0.6034
  243MOL0     O32717  11.303  -0.603   4.694  0.1624  0.7757 -0.0215
  243MOL0     C32718  11.476  -0.462   4.850 -0.2354 -0.1064  0.0946
  243MOL0     C32719  11.562  -0.390   4.931  0.7302 -0.4715 -0.4033
  243MOL0     N32720  11.478   0.229   5.458 -0.4511 -0.5784  0.1214
  243MOL0     N32721  11.445   0.292   5.567  0.4163 -0.1649  0.2598
  243MOL0     C32722  10.214   0.464   5.680 -0.4906  0.3594  0.0794
  243MOL0     C32723  10.081   0.452   5.711  0.4800  0.5956 -0.2846
  243MOL0     C32724   9.660   0.288   5.647 -0.2080 -0.7514  1.1941
  243MOL0     C32725   9.603   0.325   5.774  0.4780 -0.9821  0.1048
  243MOL0     C32726   9.463   0.352   5.788 -0.1160 -0.2347  0.5947
  243MOL0     C32727   9.380   0.339   5.681 -0.4715  0.0657 -0.8640
  243MOL0     O32728   9.247   0.384   5.685 -0.2693  1.0010 -0.9114
  243MOL0     C32729   9.189   0.441   5.804 -0.3474 -0.8221 -0.4390
  243MOL0     C32730   9.037   0.462   5.806 -0.7938  0.2810 -0.6784
  243MOL0     C32731   8.978   0.473   5.953 -0.0828  0.3396 -0.5958
  243MOL0     C32732   8.991   0.616   6.017  0.2925  0.0034  0.3425
  243MOL0     C32733   8.952   0.607   6.159 -1.1880 -0.5318  0.1421
  243MOL0     C32734   8.928   0.583   6.271 -1.1409 -0.4884 -0.6949
  243MOL0     C32735   9.433   0.306   5.558 -0.6651 -0.1556 -0.1961
  243MOL0     C32736   9.571   0.266   5.540  0.0750  0.2544 -0.4132
  243MOL0     C32737   9.621   0.238   5.397 -0.5590  0.8370 -0.1139
  243MOL0     H32738  10.071   0.109   5.777  0.4449 -1.0147 -2.2042
  243MOL0     H32739  10.305   0.143   5.717 -0.6539 -1.4666 -4.6020
  243MOL0     H32740  10.422   0.513   5.526  1.4374 -0.2178 -0.7250
  243MOL0     H32741  10.481   0.538   5.690 -0.4934  3.1864 -1.6112
  243MOL0     H32742  10.671   0.547   5.533 -3.0861  0.2457 -4.0736
  243MOL0     H32743  10.633   0.385   5.479 -3.5459 -0.8057  0.4852
  243MOL0     H32744  10.673   0.304   5.720 -1.7859 -0.3116 -1.7979
  243MOL0     H32745  10.684   0.467   5.770 -0.5781 -0.1380  0.1680
  243MOL0     H32746  10.878   0.319   5.598  0.6131 -0.9619  2.3655
  243MOL0     H32747  10.884   0.498   5.597  0.3686 -0.7195 -0.6988
  243MOL0     H32748  10.884   0.472   5.860  0.0045 -0.9039 -0.2722
  243MOL0     H32749  10.966   0.321   5.825 -0.3894 -0.3208  1.3579
  243MOL0     H32750  11.059   0.603   5.739 -1.4086 -1.3518 -5.2916
  243MOL0     H32751  11.129   0.504   5.870 -1.7107 -1.8173  0.8288
  243MOL0     H32752  11.245   0.506   5.624 -1.0393 -0.8271 -2.2970
  243MOL0     H32753  11.118   0.404   5.578  1.1579 -1.0697 -0.7105
  243MOL0     H32754  11.297   0.332   5.807  2.1508  0.0416 -2.3358
  243MOL0     H32755  11.166   0.236   5.738 -1.9524  1.1867 -0.2544
  243MOL0     H32756  11.173   0.113   5.506  0.3200 -2.3500  2.1279
  243MOL0     H32757  11.289  -0.004   5.289  0.7636 -1.7175  2.2195
  243MOL0     H32758  11.426   0.081   5.220 -0.3080 -0.0642  0.4655
  243MOL0     H32759  11.586  -0.025   5.367  0.9781 -0.5222  2.3957
  243MOL0     H32760  11.453  -0.120   5.445  0.9161 -2.6570 -1.6399
  243MOL0     H32761  11.527  -0.131   5.153 -3.5231  1.7424 -1.3620
  243MOL0     H32762  11.377  -0.199   5.218 -2.1994  0.7305  0.1238
  243MOL0     H32763  11.507  -0.358   5.322 -0.8211  0.9562 -0.9551
  243MOL0     H32764  11.654  -0.262   5.343 -0.8927 -1.9244  1.3384
  243MOL0     H32765  11.485  -0.541   5.231  1.9327  1.1866  0.3499
  243MOL0     H32766  11.308  -0.638   5.083 -0.7570  1.9575  2.1579
  243MOL0     H32767  11.065  -0.672   4.591  2.5198 -0.4083 -0.8965
  243MOL0     H32768  10.904  -0.845   4.534 -1.3619  0.2220  0.6730
  243MOL0     H32769  10.841  -1.226   4.746 -0.7789 -0.7615 -2.6647
  243MOL0     H32770  10.761  -1.113   4.847  0.7056 -1.9993  0.9009
  243MOL0     H32771  10.663  -1.167   4.559  0.3328  1.5596 -0.6977
  243MOL0     H32772  10.632  -1.297   4.684  2.2518  0.2605  2.1657
  243MOL0     H32773  10.530  -1.012   4.750 -2.8193  0.4838 -0.3471
  243MOL0     H32774  10.459  -1.100   4.618  1.6420 -1.6791 -0.6640
  243MOL0     H32775  10.469  -1.174   4.920  0.9883  2.7678 -0.3701
  243MOL0     H32776  10.419  -1.288   4.793 -1.6145 -0.4449 -1.4801
  243MOL0     H32777  10.242  -1.121   4.728  1.2400  2.0507  0.1251
  243MOL0     H32778  10.314  -1.005   4.845  3.3769 -0.1540  1.0684
  243MOL0     H32779  10.146  -1.237   4.912  0.1110  0.6086 -1.1952
  243MOL0     H32780  10.273  -1.210   5.017 -0.2504  0.5579  1.1506
  243MOL0     H32781  10.091  -0.980   4.956  0.3285 -0.8538 -0.1697
  243MOL0     H32782  10.211  -1.009   5.096  0.5894  0.0688  1.6534
  243MOL0     H32783   9.955  -1.050   5.147 -0.9864 -0.6614 -0.7641
  243MOL0     H32784   9.990  -1.207   5.074 -2.5928  2.8533 -2.8804
  243MOL0     H32785  10.951  -1.045   4.909  0.6233  1.4304  0.8732
  243MOL0     H32786  11.109  -0.855   4.988 -0.3346  0.3685  0.7910
  243MOL0     H32787  11.472  -0.443   4.743  1.6531  0.6274  0.1215
  243MOL0     H32788  11.631  -0.316   4.891  2.3862 -2.3508 -1.1639
  243MOL0     H32789  10.267   0.555   5.653 -0.0382 -0.0893 -0.5968
  243MOL0     H32790  10.027   0.544   5.694 -1.8613 -1.0181 -2.2202
  243MOL0     H32791   9.670   0.358   5.853 -0.9522  2.3948  0.0696
  243MOL0     H32792   9.434   0.398   5.882  2.5208  2.7036  0.1202
  243MOL0     H32793   9.243   0.533   5.828 -1.1342 -0.6246  0.6312
  243MOL0     H32794   9.211   0.367   5.882  2.2018  2.0693  1.8332
  243MOL0     H32795   8.994   0.376   5.753 -2.3478 -0.2651  1.3777
  243MOL0     H32796   9.007   0.548   5.746 -0.9472  1.5464  1.1532
  243MOL0     H32797   9.027   0.401   6.019 -1.7588  1.0371  1.5778
  243MOL0     H32798   8.871   0.450   5.951  0.6269 -3.3808 -1.4216
  243MOL0     H32799   9.096   0.646   6.010  0.8877 -1.9030  0.5191
  243MOL0     H32800   8.921   0.679   5.962  1.1233 -0.4162 -1.2426
  243MOL0     H32801   8.925   0.558   6.375 -3.5288  2.2065  0.0267
  243MOL0     H32802   9.372   0.314   5.469  0.3217 -0.2120 -0.8991
  243MOL0     H32803   9.685   0.323   5.370 -1.4727  2.3629  2.2078
  243MOL0     H32804   9.678   0.144   5.393 -1.2777  0.3037  1.4702
  243MOL0     H32805   9.541   0.228   5.323  0.7217 -1.5017 -1.3074
  244MOL0     O32806   7.806   2.450  11.003 -0.3153  0.2520  0.2007
  244MOL0     C32807   7.685   2.445  10.992  0.8314  0.5856  0.2908
  244MOL0     O32808   7.604   2.544  11.018  0.4735 -0.5180 -0.2317
  244MOL0     C32809   7.645   2.661  11.087  0.6454  0.0336  0.6363
  244MOL0     C32810   7.651   2.782  11.017  0.1396 -0.6147  0.8325
  244MOL0     C32811   7.673   2.897  11.088 -0.3496  0.4646 -0.5412
  244MOL0     C32812   7.696   2.898  11.229 -0.4338 -0.3292  0.1403
  244MOL0     O32813   7.696   3.018  11.285 -0.0828 -0.0396 -0.0329
  244MOL0     C32814   7.763   3.029  11.416  1.1570  0.1592 -0.4273
  244MOL0     C32815   7.746   3.169  11.481 -0.4981 -0.0299  1.2595
  244MOL0     C32816   7.815   3.278  11.402  0.4074 -0.2600  0.1126
  244MOL0     C32817   7.814   3.416  11.477 -1.5025  0.0168 -0.2060
  244MOL0     C32818   7.906   3.434  11.602 -0.7987  0.2143  0.5297
  244MOL0     C32819   8.061   3.422  11.581 -0.2369  0.3760  0.1565
  244MOL0     C32820   8.130   3.433  11.714 -0.5947  1.6152  0.2895
  244MOL0     C32821   8.119   3.314  11.817 -0.1590 -0.0260 -0.2093
  244MOL0     N32822   8.130   3.178  11.760 -0.1566 -0.0043  0.5283
  244MOL0     C32823   8.248   3.116  11.781  0.0877 -0.0182 -0.1294
  244MOL0     C32824   8.235   3.010  11.700  0.6268 -0.3221 -0.6073
  244MOL0     C32825   8.346   2.934  11.656 -0.5851  0.9715 -0.3731
  244MOL0     C32826   8.401   2.833  11.767 -0.2104  0.2747  0.0926
  244MOL0     C32827   8.524   2.767  11.712  0.7647  0.0722  0.1503
  244MOL0     C32828   8.568   2.662  11.823  0.0755 -0.4522 -0.3447
  244MOL0     O32829   8.674   2.596  11.760  0.5512  0.2012 -0.1605
  244MOL0     C32830   8.673   2.462  11.791  0.5017  0.6164  0.4393
  244MOL0     C32831   8.714   2.371  11.688  0.3796 -0.1193 -0.3317
  244MOL0     C32832   8.709   2.238  11.718 -0.1811 -0.2380  0.8520
  244MOL0     C32833   8.685   2.185  11.844  0.0110  0.0502 -0.1754
  244MOL0     C32834   8.698   2.039  11.868  0.9696  0.5794 -0.3269
  244MOL0     O32835   8.716   1.995  12.000 -0.8145 -0.2103 -0.2596
  244MOL0     C32836   8.702   1.860  12.030 -0.2811  0.9467  0.5745
  244MOL0     C32837   8.805   1.765  12.020 -0.0480 -0.7469  0.6183
  244MOL0     C32838   8.780   1.632  12.049 -0.2104 -0.0113 -0.0356
  244MOL0     C32839   8.654   1.584  12.093  0.1195  0.0313  0.0047
  244MOL0     O32840   8.624   1.450  12.121 -0.0860 -0.5713  0.8846
  244MOL0     C32841   8.732   1.360  12.115 -0.2717  0.3859 -0.2277
  244MOL0     C32842   8.683   1.220  12.160  0.1606  0.5131 -0.0912
  244MOL0     C32843   8.646   1.226  12.315 -0.5963  0.2148 -0.5428
  244MOL0     C32844   8.494   1.248  12.337 -0.6440 -1.2143  0.2345
  244MOL0     C32845   8.448   1.268  12.481 -0.0336  0.2549 -0.6614
  244MOL0     C32846   8.427   1.142  12.570  0.2930  0.1108 -1.0586
  244MOL0     C32847   8.353   1.172  12.709 -0.5808  0.3792  0.7347
  244MOL0     C32848   8.391   1.074  12.822 -1.0283  0.8425 -0.0248
  244MOL0    Cl32849   8.316   1.104  12.978  0.6009 -0.2892 -0.3865
  244MOL0     C32850   8.550   1.682  12.107 -0.8052  0.7817  0.4876
  244MOL0     C32851   8.584   1.810  12.078 -0.0367 -0.5147 -0.6451
  244MOL0     O32852   8.677   1.966  11.770 -0.4566  0.2310  0.1370
  244MOL0     C32853   8.648   2.280  11.944  0.6209  0.5593  0.2351
  244MOL0     C32854   8.637   2.414  11.916  0.2843 -0.5001 -0.9043
  244MOL0     N32855   8.113   2.995  11.645  0.4069 -0.5879 -0.1326
  244MOL0     N32856   8.053   3.101  11.670 -0.0626  0.2535 -1.0938
  244MOL0     C32857   7.709   2.775  11.294 -0.2695 -0.9232 -0.1671
  244MOL0     C32858   7.685   2.660  11.218  0.3936  0.2670 -0.2953
  244MOL0     C32859   7.623   2.317  10.943  0.5679 -1.0094  0.0243
  244MOL0     C32860   7.512   2.316  10.856  0.0979 -0.9211  0.3515
  244MOL0     C32861   7.447   2.203  10.818  0.8392  1.2364 -1.1743
  244MOL0     C32862   7.489   2.076  10.863 -0.2431 -0.0062 -0.1831
  244MOL0     O32863   7.412   1.965  10.850 -0.5304  0.3012  0.7045
  244MOL0     C32864   7.366   1.936  10.714  1.0420  0.1906  0.4459
  244MOL0     C32865   7.220   1.894  10.714  0.0514 -0.5231  0.7343
  244MOL0     C32866   7.127   2.008  10.752  0.4674  1.1830 -0.2038
  244MOL0     C32867   7.100   2.100  10.640 -0.0599  0.3627 -0.3461
  244MOL0     C32868   7.030   2.040  10.529  0.0737  0.4262 -0.2989
  244MOL0     C32869   6.985   1.969  10.440 -0.1394 -0.4474 -0.4986
  244MOL0     C32870   7.607   2.079  10.940 -0.7858  0.3657 -0.3018
  244MOL0     C32871   7.670   2.191  10.991 -0.0408 -0.4834  0.2877
  244MOL0     C32872   7.787   2.164  11.092 -0.4183 -1.1381  0.1907
  244MOL0     H32873   7.635   2.780  10.910  0.3498  2.2757  0.6465
  244MOL0     H32874   7.646   2.988  11.035  0.8170  1.1663  0.0420
  244MOL0     H32875   7.712   2.953  11.477 -0.7622 -0.8380 -3.0755
  244MOL0     H32876   7.868   3.003  11.403  2.2512  1.5613  3.9933
  244MOL0     H32877   7.787   3.159  11.582 -0.9249 -1.4628  1.3084
  244MOL0     H32878   7.646   3.212  11.489 -0.1453  1.0917  0.0384
  244MOL0     H32879   7.770   3.278  11.302  0.0365  1.0707  0.2520
  244MOL0     H32880   7.917   3.242  11.387  0.0878 -1.2594  0.3052
  244MOL0     H32881   7.851   3.490  11.405  2.4133 -2.1903 -0.7565
  244MOL0     H32882   7.713   3.443  11.510 -0.9566  0.5007  1.0983
  244MOL0     H32883   7.897   3.529  11.654  0.1209 -1.0066  3.0932
  244MOL0     H32884   7.870   3.358  11.673  1.9318 -2.1191 -0.4162
  244MOL0     H32885   8.089   3.329  11.532  0.9279 -0.6948  2.6615
  244MOL0     H32886   8.091   3.495  11.505  1.4366 -1.0251 -0.5835
  244MOL0     H32887   8.124   3.532  11.762  4.0112  1.2889  2.0625
  244MOL0     H32888   8.237   3.441  11.691  0.3139 -0.1600  3.3014
  244MOL0     H32889   8.193   3.341  11.892 -0.9304  1.8220 -0.0487
  244MOL0     H32890   8.026   3.318  11.874 -0.5421 -0.2298 -0.8035
  244MOL0     H32891   8.338   3.131  11.840  0.9567  1.8031 -1.8213
  244MOL0     H32892   8.325   2.879  11.564  1.2662  1.5342 -1.1894
  244MOL0     H32893   8.429   3.003  11.638 -1.0497  1.3547 -1.0800
  244MOL0     H32894   8.415   2.888  11.861  0.4663  0.1105  0.0950
  244MOL0     H32895   8.318   2.766  11.791  0.6223 -0.5324  0.7807
  244MOL0     H32896   8.612   2.831  11.706  0.6278  0.4577  1.7931
  244MOL0     H32897   8.494   2.723  11.616  0.0968 -0.1340  0.4472
  244MOL0     H32898   8.477   2.601  11.827 -1.0559  1.1555 -0.7034
  244MOL0     H32899   8.595   2.717  11.914  1.0776 -0.7144 -0.4739
  244MOL0     H32900   8.757   2.410  11.596  2.6541  0.0973  0.7447
  244MOL0     H32901   8.733   2.182  11.629  0.6283  2.9066 -1.0349
  244MOL0     H32902   8.898   1.810  11.990 -0.5100  0.4144  0.8662
  244MOL0     H32903   8.859   1.560  12.028 -1.7046 -2.1244  1.1641
  244MOL0     H32904   8.763   1.346  12.010  0.6400 -0.2759  0.1175
  244MOL0     H32905   8.817   1.389  12.177  0.8733  1.4801 -2.2009
  244MOL0     H32906   8.595   1.182  12.108 -1.6511 -2.9447  4.7612
  244MOL0     H32907   8.765   1.150  12.141 -0.4192 -0.6083  1.3554
  244MOL0     H32908   8.695   1.143  12.366 -0.7776 -0.2697 -1.1523
  244MOL0     H32909   8.697   1.310  12.365 -1.9043 -0.2849  1.8076
  244MOL0     H32910   8.429   1.173  12.293 -1.4855 -0.5153  0.2643
  244MOL0     H32911   8.471   1.350  12.305 -0.3958 -0.8533  1.1652
  244MOL0     H32912   8.353   1.321  12.471  1.3975  3.2136  0.0517
  244MOL0     H32913   8.501   1.344  12.541  1.7261 -0.7012 -0.9336
  244MOL0     H32914   8.373   1.070  12.508  0.8366 -0.5723 -0.7478
  244MOL0     H32915   8.522   1.093  12.595 -0.3635 -1.5566 -1.6871
  244MOL0     H32916   8.247   1.185  12.687 -0.7663  4.2708  2.9367
  244MOL0     H32917   8.383   1.276  12.730  1.0799  0.1218 -0.1993
  244MOL0     H32918   8.384   0.969  12.792  2.9578  0.3853  0.1879
  244MOL0     H32919   8.497   1.090  12.843 -1.1150 -0.3819  1.5537
  244MOL0     H32920   8.449   1.645  12.119 -0.7584  0.7197  0.7019
  244MOL0     H32921   8.509   1.888  12.081  2.9863  2.6525 -0.0911
  244MOL0     H32922   8.604   2.242  12.035 -1.4233  3.1718  0.4578
  244MOL0     H32923   8.587   2.477  11.989 -1.8490 -2.2776 -0.7052
  244MOL0     H32924   7.736   2.771  11.399  2.2391 -4.1479 -0.7480
  244MOL0     H32925   7.669   2.567  11.271  0.2105  0.6789  0.3855
  244MOL0     H32926   7.474   2.403  10.802 -0.4831 -1.3494  0.0631
  244MOL0     H32927   7.350   2.215  10.771 -0.2943 -0.2282  0.6641
  244MOL0     H32928   7.416   1.847  10.675 -1.7316 -0.6403 -1.5410
  244MOL0     H32929   7.381   2.022  10.647  1.4726  0.0798  0.3968
  244MOL0     H32930   7.218   1.805  10.776  2.4752 -2.3195 -1.4995
  244MOL0     H32931   7.189   1.858  10.615 -2.1750 -1.0180  1.5704
  244MOL0     H32932   7.167   2.055  10.842 -0.9743  0.9466  0.5863
  244MOL0     H32933   7.024   1.980  10.774  0.1326  1.4072 -1.3868
  244MOL0     H32934   7.059   2.186  10.692  0.4019  0.6429 -0.4366
  244MOL0     H32935   7.197   2.136  10.604  0.6599 -0.8676  0.3083
  244MOL0     H32936   6.940   1.929  10.351  1.7358  1.1232 -2.2673
  244MOL0     H32937   7.652   1.982  10.961 -1.1306  0.3993  0.6378
  244MOL0     H32938   7.743   2.173  11.192  1.4468  0.9770  0.8892
  244MOL0     H32939   7.833   2.066  11.081 -1.9071 -1.7998 -0.5049
  244MOL0     H32940   7.868   2.237  11.084 -1.1611 -0.4565 -1.5278
  245MOL0     O32941   0.190   3.796   1.376 -0.4617 -0.0835  0.5318
  245MOL0     C32942   0.221   3.676   1.400  0.9389  0.2153  0.4281
  245MOL0     O32943   0.196   3.611   1.518  0.3789  0.0487  0.3096
  245MOL0     C32944   0.111   3.670   1.609  0.2641 -0.4385  0.4468
  245MOL0     C32945   0.160   3.776   1.684  0.9222  0.0593  0.5208
  245MOL0     C32946   0.071   3.851   1.765 -0.2809 -0.4758 -0.2665
  245MOL0     C32947  -0.057   3.812   1.780 -1.4101 -0.0173 -0.1877
  245MOL0     O32948  -0.133   3.861   1.880 -0.1384 -0.5038  0.0674
  245MOL0     C32949  -0.086   3.930   1.998  0.1017 -0.8444  0.0710
  245MOL0     C32950  -0.132   4.075   2.000  0.5187 -0.5648 -0.0796
  245MOL0     C32951  -0.108   4.137   2.139  0.3044  0.4880  0.0189
  245MOL0     C32952   0.023   4.202   2.163 -0.0373  0.3757  0.4917
  245MOL0     C32953   0.023   4.259   2.306  0.5184 -0.3785 -0.6531
  245MOL0     C32954  -0.074   4.378   2.338  0.3722 -0.1099  0.5658
  245MOL0     C32955  -0.062   4.479   2.228  0.2363 -1.0559  0.4047
  245MOL0     C32956   0.069   4.548   2.210 -0.1858  0.4570 -0.0434
  245MOL0     N32957   0.062   4.675   2.134 -0.6835  0.5346 -0.7997
  245MOL0     C32958   0.169   4.770   2.119 -0.1575  0.1382 -0.2925
  245MOL0     C32959   0.123   4.849   2.018 -0.1781 -0.8090  0.3008
  245MOL0     C32960   0.196   4.978   1.987  1.0398 -0.2249  0.4752
  245MOL0     C32961   0.318   4.955   1.899 -0.0595 -1.6750 -0.0578
  245MOL0     C32962   0.382   5.084   1.862 -0.0849 -0.5117 -0.7071
  245MOL0     C32963   0.291   5.213   1.844  0.0842 -0.7304  0.4909
  245MOL0     O32964   0.221   5.213   1.723 -0.6243  0.5033 -0.2973
  245MOL0     C32965   0.146   5.323   1.684 -0.5842  0.6219  0.0571
  245MOL0     C32966   0.089   5.316   1.555 -0.3218 -0.2432 -0.3982
  245MOL0     C32967   0.038   5.425   1.492  0.0199 -0.5498  0.0223
  245MOL0     C32968   0.028   5.552   1.565  0.3528  0.5065  0.9013
  245MOL0     C32969  -0.029   5.678   1.506  0.0345 -0.4481 -0.2914
  245MOL0     O32970  -0.091   5.774   1.587 -0.3639 -0.2313 -0.1210
  245MOL0     C32971  -0.153   5.866   1.506  0.0385 -0.2790  0.4516
  245MOL0     C32972  -0.279   5.842   1.452 -0.4908  0.7686 -0.1286
  245MOL0     C32973  -0.336   5.940   1.371 -0.7316  0.0149  0.1861
  245MOL0     C32974  -0.282   6.064   1.344 -0.2656 -0.4640 -0.3669
  245MOL0     O32975  -0.343   6.142   1.254  0.6447 -0.5847  1.0356
  245MOL0     C32976  -0.410   6.253   1.320 -0.0924  0.3855  0.7486
  245MOL0     C32977  -0.539   6.270   1.242 -0.5634  0.1439  0.3324
  245MOL0     C32978  -0.640   6.161   1.267  0.1641 -0.3556 -0.0499
  245MOL0     C32979  -0.782   6.215   1.272  1.0776 -0.1562  0.4570
  245MOL0     C32980  -0.817   6.299   1.394  0.3655  0.1679 -0.1599
  245MOL0     C32981  -0.965   6.327   1.416  0.4034  0.1345 -0.2511
  245MOL0     C32982  -1.045   6.333   1.288 -0.0697 -0.0447  0.0344
  245MOL0     C32983  -1.193   6.383   1.300  0.2117  0.4162 -0.2673
  245MOL0    Cl32984  -1.300   6.273   1.399 -0.1218  0.1352 -0.0511
  245MOL0     C32985  -0.154   6.086   1.406  0.4704 -0.2068  0.2248
  245MOL0     C32986  -0.095   5.993   1.495 -0.6995  0.0271  0.5212
  245MOL0     O32987  -0.039   5.674   1.390  0.0330  0.5225  0.4974
  245MOL0     C32988   0.074   5.552   1.695  0.0350  0.5323  0.0659
  245MOL0     C32989   0.134   5.445   1.754 -0.1289  0.1884 -0.3696
  245MOL0     N32990  -0.010   4.802   1.981  0.3111  0.9455  0.0338
  245MOL0     N32991  -0.033   4.698   2.041  0.0290 -0.2235  0.2366
  245MOL0     C32992  -0.105   3.706   1.705  0.0567  0.1169  0.4704
  245MOL0     C32993  -0.018   3.632   1.628  0.3077  0.2868  0.4993
  245MOL0     C32994   0.278   3.608   1.283 -1.3873  0.5247  0.3201
  245MOL0     C32995   0.366   3.681   1.188  0.5466 -1.0505 -0.5831
  245MOL0     C32996   0.439   3.618   1.090  0.9947 -0.4843 -0.1899
  245MOL0     C32997   0.436   3.483   1.072  0.1170  0.3664 -0.0535
  245MOL0     O32998   0.503   3.408   0.967  0.7451  1.2588  0.0141
  245MOL0     C32999   0.411   3.351   0.868  0.7091  0.6086  0.8150
  245MOL0     C33000   0.416   3.200   0.856 -1.0238  0.8584 -0.5837
  245MOL0     C33001   0.311   3.151   0.750 -0.3168  0.2844 -0.2777
  245MOL0     C33002   0.165   3.144   0.789  0.2112  0.2531 -0.1642
  245MOL0     C33003   0.150   3.083   0.932  0.7759 -0.1025  0.3347
  245MOL0     C33004   0.150   3.056   1.053  0.5163  0.5026 -1.2707
  245MOL0     C33005   0.354   3.407   1.166 -0.3518 -0.1505  0.4123
  245MOL0     C33006   0.282   3.466   1.272 -0.1179 -0.8853 -0.4039
  245MOL0     C33007   0.218   3.375   1.369 -0.3045  0.0434  0.5987
  245MOL0     H33008   0.262   3.805   1.662  0.8254 -0.7689 -1.2089
  245MOL0     H33009   0.119   3.927   1.826  0.6988 -0.9821 -0.3722
  245MOL0     H33010  -0.136   3.888   2.086 -0.2001  1.0503  0.8545
  245MOL0     H33011   0.022   3.924   2.018  0.4593 -1.3106 -1.8338
  245MOL0     H33012  -0.239   4.073   1.977  0.5296  0.2878 -0.2507
  245MOL0     H33013  -0.067   4.124   1.925 -0.8765  0.1086 -0.8898
  245MOL0     H33014  -0.140   4.063   2.212  1.4555 -0.4295 -0.3774
  245MOL0     H33015  -0.175   4.223   2.141  2.1468  2.1259 -2.5165
  245MOL0     H33016   0.111   4.137   2.160  0.8925  1.5439  1.3915
  245MOL0     H33017   0.036   4.283   2.092 -0.1274 -0.7165 -0.8083
  245MOL0     H33018  -0.010   4.192   2.386  1.5666 -1.1084 -0.8051
  245MOL0     H33019   0.127   4.289   2.321 -0.2894  1.6301  1.5213
  245MOL0     H33020  -0.175   4.340   2.349  0.6718 -0.3692  2.7571
  245MOL0     H33021  -0.045   4.414   2.437 -0.6988  1.1131  0.4647
  245MOL0     H33022  -0.140   4.556   2.240  0.2044 -0.9703 -0.3231
  245MOL0     H33023  -0.088   4.426   2.136  0.4820  0.8241 -0.8175
  245MOL0     H33024   0.098   4.574   2.312 -3.2168  2.9403  0.3199
  245MOL0     H33025   0.147   4.492   2.156  0.0779  1.9242 -1.2497
  245MOL0     H33026   0.262   4.780   2.174 -0.1873 -2.5372  0.3769
  245MOL0     H33027   0.121   5.039   1.936  2.8677 -0.2843 -2.5047
  245MOL0     H33028   0.218   5.027   2.083 -1.8052  0.3546  0.9326
  245MOL0     H33029   0.390   4.884   1.941 -0.7516 -1.6964  1.1012
  245MOL0     H33030   0.279   4.915   1.805 -2.1543  1.9477 -0.9195
  245MOL0     H33031   0.435   5.058   1.770 -1.3812 -0.9885 -1.3433
  245MOL0     H33032   0.459   5.117   1.932  0.3550 -2.2674 -0.2994
  245MOL0     H33033   0.368   5.291   1.832  0.4837 -1.1907  0.0145
  245MOL0     H33034   0.242   5.227   1.941  1.2424  0.0525  1.0015
  245MOL0     H33035   0.074   5.222   1.504 -2.6096  0.5031 -1.2643
  245MOL0     H33036   0.009   5.415   1.388  2.3415  0.4315 -0.7955
  245MOL0     H33037  -0.321   5.745   1.480  1.2086  0.3137  1.0106
  245MOL0     H33038  -0.433   5.914   1.330 -1.9824  1.3675  2.1355
  245MOL0     H33039  -0.438   6.226   1.422 -0.9767 -0.5965  0.2658
  245MOL0     H33040  -0.359   6.350   1.319 -0.0225  0.4009 -1.9085
  245MOL0     H33041  -0.574   6.370   1.269  2.9535  0.7739  3.1974
  245MOL0     H33042  -0.522   6.270   1.134  0.8609  2.0481  0.5097
  245MOL0     H33043  -0.635   6.084   1.190  0.2245 -1.9947  1.5237
  245MOL0     H33044  -0.620   6.106   1.359  0.8568 -0.0914 -0.0360
  245MOL0     H33045  -0.848   6.127   1.263  2.7519 -1.3500 -0.7376
  245MOL0     H33046  -0.799   6.275   1.182 -0.4956  0.9263  1.4333
  245MOL0     H33047  -0.758   6.391   1.385  1.7269 -0.6629  0.0411
  245MOL0     H33048  -0.774   6.263   1.488  3.7223  0.2987 -1.5025
  245MOL0     H33049  -1.014   6.248   1.474  0.7536 -0.8290 -1.2344
  245MOL0     H33050  -0.977   6.418   1.474 -3.1467  0.3185 -1.0261
  245MOL0     H33051  -1.054   6.237   1.237 -0.3727  1.0072 -1.9922
  245MOL0     H33052  -0.982   6.384   1.214  3.4190 -4.5664 -0.6103
  245MOL0     H33053  -1.184   6.479   1.352 -1.8594 -0.4262  1.7946
  245MOL0     H33054  -1.238   6.404   1.203 -1.8213  0.3751  0.6153
  245MOL0     H33055  -0.109   6.183   1.386 -2.0584  1.2739  1.1221
  245MOL0     H33056  -0.001   6.026   1.539 -0.9692 -0.0781  1.1716
  245MOL0     H33057   0.062   5.632   1.768 -1.0413  1.2386 -0.8452
  245MOL0     H33058   0.167   5.463   1.855  0.4526  0.6478 -0.6345
  245MOL0     H33059  -0.209   3.679   1.719  0.2828  0.0725  2.4796
  245MOL0     H33060  -0.061   3.561   1.558  2.3326 -0.3285 -0.1608
  245MOL0     H33061   0.364   3.789   1.198  0.6949 -0.6325 -3.9886
  245MOL0     H33062   0.498   3.680   1.024 -1.2315  2.6389  0.5067
  245MOL0     H33063   0.438   3.392   0.770  0.1533  0.9326  0.7941
  245MOL0     H33064   0.310   3.392   0.877  0.3256  0.1741 -1.0077
  245MOL0     H33065   0.400   3.150   0.952 -1.1518 -0.3206 -1.2064
  245MOL0     H33066   0.520   3.182   0.829 -0.1441 -2.6764  3.8943
  245MOL0     H33067   0.345   3.050   0.727 -2.2676 -0.4195 -0.2606
  245MOL0     H33068   0.322   3.209   0.658  1.2653  0.4593 -0.0142
  245MOL0     H33069   0.108   3.237   0.787  0.0747  0.1706 -2.6447
  245MOL0     H33070   0.112   3.080   0.718 -0.6051  0.4190  0.2744
  245MOL0     H33071   0.142   3.023   1.154 -0.1671  2.1913 -0.7271
  245MOL0     H33072   0.353   3.300   1.147  0.2953 -0.0536 -0.2270
  245MOL0     H33073   0.113   3.402   1.383 -0.5240  1.8602 -3.3101
  245MOL0     H33074   0.222   3.280   1.315 -0.2676  2.4255 -4.0869
  245MOL0     H33075   0.267   3.365   1.467 -1.1891 -1.6181  0.9204
  246MOL0     O33076   4.676   2.596   1.708 -0.3081  0.2509  0.4888
  246MOL0     C33077   4.701   2.657   1.810 -0.9747 -0.4648 -0.6965
  246MOL0     O33078   4.633   2.764   1.860  0.4326 -0.0973  0.4886
  246MOL0     C33079   4.525   2.805   1.773  0.3412  0.2059 -0.9455
  246MOL0     C33080   4.557   2.873   1.657 -0.8735  0.2065  0.8659
  246MOL0     C33081   4.461   2.912   1.561 -0.6621 -0.4284 -0.0377
  246MOL0     C33082   4.324   2.903   1.594  0.6206 -1.0320 -0.5313
  246MOL0     O33083   4.215   2.937   1.523  0.0589  0.4139 -0.2583
  246MOL0     C33084   4.234   2.959   1.378  0.6912  0.8026 -0.8567
  246MOL0     C33085   4.098   2.936   1.313 -0.2270  0.0697  0.4221
  246MOL0     C33086   4.116   2.975   1.167 -0.5235 -0.1690 -1.2529
  246MOL0     C33087   3.984   2.974   1.082  0.6425  0.2915 -0.4594
  246MOL0     C33088   3.947   2.826   1.085  0.9017  0.0515  0.5435
  246MOL0     C33089   3.871   2.791   0.959 -0.1188  0.4663 -0.8848
  246MOL0     C33090   3.837   2.638   0.949 -0.2775 -0.3155  0.8160
  246MOL0     C33091   3.731   2.589   1.052 -0.0829  0.4537  0.4652
  246MOL0     N33092   3.723   2.443   1.029 -0.0039  0.4159 -0.5994
  246MOL0     C33093   3.615   2.379   0.971  0.0711 -0.0762 -0.3060
  246MOL0     C33094   3.629   2.250   1.008  0.0008  0.9204  0.8828
  246MOL0     C33095   3.538   2.134   0.979 -0.8123  0.3992 -0.6530
  246MOL0     C33096   3.547   2.065   0.845  0.5947 -0.2798  0.9200
  246MOL0     C33097   3.474   1.931   0.843  0.3654 -0.5838  0.4729
  246MOL0     C33098   3.464   1.879   0.693  0.0851  0.7052  0.4662
  246MOL0     O33099   3.596   1.839   0.638  1.0230  0.2783  0.1108
  246MOL0     C33100   3.693   1.773   0.718  0.2242  0.1903  0.9176
  246MOL0     C33101   3.828   1.810   0.716 -0.4635 -0.3996  0.0458
  246MOL0     C33102   3.921   1.748   0.800 -0.3112  1.0307  0.3113
  246MOL0     C33103   3.890   1.628   0.868  0.8092  0.1965 -0.0746
  246MOL0     C33104   3.994   1.547   0.941  0.7245 -1.0601 -0.2222
  246MOL0     O33105   4.124   1.557   0.892 -0.0081  0.3433 -0.5557
  246MOL0     C33106   4.208   1.456   0.930  0.7795 -0.4581 -0.2035
  246MOL0     C33107   4.179   1.323   0.913 -0.3079 -0.2574  0.9788
  246MOL0     C33108   4.273   1.223   0.948  0.1891  0.1573 -0.7774
  246MOL0     C33109   4.397   1.255   0.999  0.3009 -0.0021  0.2219
  246MOL0     O33110   4.491   1.166   1.043 -0.1643 -0.0618  0.3438
  246MOL0     C33111   4.475   1.027   1.011  0.5733  0.1652  0.1917
  246MOL0     C33112   4.619   0.958   1.015  0.1085 -0.5629 -0.3307
  246MOL0     C33113   4.723   1.035   0.936  0.7119  0.1291  0.2764
  246MOL0     C33114   4.860   1.016   1.005 -0.5632  0.5899  0.1791
  246MOL0     C33115   4.875   1.104   1.136  0.1574  0.1211  1.4601
  246MOL0     C33116   5.022   1.110   1.173  0.3133 -0.1599 -0.5359
  246MOL0     C33117   5.092   0.972   1.178 -0.6906 -0.1378 -0.6274
  246MOL0     C33118   5.202   0.963   1.289  0.1317 -0.3270  0.7285
  246MOL0    Cl33119   5.316   1.079   1.226  0.0725 -0.4440 -0.2910
  246MOL0     C33120   4.431   1.392   1.013 -0.2966 -0.7503  0.1047
  246MOL0     C33121   4.329   1.496   0.987  0.2241 -0.4131 -0.6313
  246MOL0     O33122   3.959   1.489   1.051  0.2558 -0.2092 -0.9557
  246MOL0     C33123   3.755   1.590   0.873 -0.6793  0.8324  0.9816
  246MOL0     C33124   3.662   1.664   0.807  0.4082  0.8355 -0.3123
  246MOL0     N33125   3.748   2.235   1.079  0.5329  0.1630  0.6924
  246MOL0     N33126   3.803   2.352   1.090  0.4264  0.1667  0.7994
  246MOL0     C33127   4.289   2.833   1.712 -1.1863  0.4515 -0.4622
  246MOL0     C33128   4.392   2.781   1.803 -0.4633 -0.0082  0.2639
  246MOL0     C33129   4.799   2.599   1.900  0.8771  0.1930  0.2789
  246MOL0     C33130   4.814   2.463   1.905  0.3098  0.2255  0.6739
  246MOL0     C33131   4.891   2.401   1.998  0.9016 -0.4306 -0.2648
  246MOL0     C33132   4.979   2.465   2.082  0.3622 -0.3785  0.0756
  246MOL0     O33133   5.065   2.391   2.163 -0.1339  0.4895 -0.1386
  246MOL0     C33134   5.205   2.421   2.166 -0.7356  0.1146 -0.4715
  246MOL0     C33135   5.282   2.339   2.269  0.2974  0.6049 -0.5528
  246MOL0     C33136   5.279   2.390   2.419  0.8786  0.5687 -0.1550
  246MOL0     C33137   5.138   2.391   2.482  0.2266  0.3467  0.5541
  246MOL0     C33138   5.059   2.271   2.450  0.1721 -0.0310  1.0271
  246MOL0     C33139   4.989   2.170   2.437 -0.1509 -0.1720 -0.5216
  246MOL0     C33140   4.967   2.603   2.089  0.4586  0.3697 -0.1559
  246MOL0     C33141   4.871   2.671   2.009  0.5415 -0.2362 -0.5292
  246MOL0     C33142   4.878   2.815   2.021  0.1214  0.6704  0.0910
  246MOL0     H33143   4.661   2.896   1.632 -1.4703  1.3768 -0.6828
  246MOL0     H33144   4.507   2.976   1.487 -0.7205  0.4333  0.6506
  246MOL0     H33145   4.269   3.061   1.359 -2.0295  1.4254 -3.2042
  246MOL0     H33146   4.312   2.893   1.338  2.1073  1.2826  0.9165
  246MOL0     H33147   4.030   3.011   1.354 -0.1315 -0.2528  1.1804
  246MOL0     H33148   4.064   2.833   1.313  1.7774 -0.6726 -1.1818
  246MOL0     H33149   4.188   2.904   1.125  1.7380  0.5023  1.1512
  246MOL0     H33150   4.157   3.077   1.167 -1.2926  0.2498  1.7492
  246MOL0     H33151   3.901   3.040   1.107  1.1009  0.1047  1.6891
  246MOL0     H33152   4.008   2.987   0.976 -0.3179  0.3058 -0.6823
  246MOL0     H33153   4.036   2.764   1.091  1.9504  1.0226 -2.8916
  246MOL0     H33154   3.883   2.815   1.174  1.1175 -0.3141  0.6536
  246MOL0     H33155   3.779   2.851   0.966  0.4464  1.2665 -0.0389
  246MOL0     H33156   3.923   2.828   0.870  2.3999  0.0589  0.3402
  246MOL0     H33157   3.929   2.578   0.951  1.0894  1.6209 -0.2123
  246MOL0     H33158   3.790   2.612   0.854 -4.8734 -1.1055  3.0200
  246MOL0     H33159   3.755   2.612   1.156  1.4969  0.0626  0.2092
  246MOL0     H33160   3.640   2.647   1.035 -0.8906 -0.6268  0.9733
  246MOL0     H33161   3.527   2.426   0.927  0.4617 -1.1635 -2.3477
  246MOL0     H33162   3.553   2.062   1.060  1.0028  0.2277 -1.1129
  246MOL0     H33163   3.436   2.174   0.978 -2.2160 -2.8069  0.6012
  246MOL0     H33164   3.497   2.132   0.775 -0.5000 -1.1464  0.8472
  246MOL0     H33165   3.649   2.044   0.810  0.0197  1.8868 -2.5313
  246MOL0     H33166   3.369   1.954   0.864  0.9011  2.1168  0.5097
  246MOL0     H33167   3.531   1.863   0.906  1.4850 -0.1651 -0.0530
  246MOL0     H33168   3.424   1.957   0.627  1.4751  1.3712  0.3791
  246MOL0     H33169   3.390   1.798   0.692  0.5213  0.2155 -2.8825
  246MOL0     H33170   3.858   1.901   0.665 -0.9405  1.9436  3.5410
  246MOL0     H33171   4.025   1.781   0.802  1.0091 -2.5710 -1.1098
  246MOL0     H33172   4.099   1.297   0.845  0.8648 -0.8450 -0.2331
  246MOL0     H33173   4.246   1.121   0.923 -0.9358  0.6266 -1.5624
  246MOL0     H33174   4.417   0.979   1.090 -0.6006 -0.4263 -0.9907
  246MOL0     H33175   4.445   1.012   0.907 -0.3514 -0.0861  0.4839
  246MOL0     H33176   4.652   0.945   1.119 -1.6939 -2.3072  0.0719
  246MOL0     H33177   4.609   0.855   0.982  0.5333 -0.1665 -1.7526
  246MOL0     H33178   4.732   0.995   0.835 -2.0182  1.9064 -0.8013
  246MOL0     H33179   4.695   1.141   0.927  0.4081 -0.0135 -0.5321
  246MOL0     H33180   4.924   1.059   0.927 -0.9294  3.2964  1.2400
  246MOL0     H33181   4.885   0.912   1.024 -0.8136  0.7966  1.8101
  246MOL0     H33182   4.819   1.054   1.216 -2.7426  0.7285 -0.0618
  246MOL0     H33183   4.849   1.209   1.119  2.1500  0.6987  1.6935
  246MOL0     H33184   5.064   1.174   1.095 -1.0142  3.5289  1.5145
  246MOL0     H33185   5.038   1.159   1.269 -0.5467 -1.4288  0.2885
  246MOL0     H33186   5.147   0.962   1.084  3.2282  2.8441  1.0900
  246MOL0     H33187   5.018   0.893   1.195 -0.4261 -0.2343  0.1121
  246MOL0     H33188   5.149   0.987   1.382  0.6783  2.8656  0.3205
  246MOL0     H33189   5.232   0.858   1.299 -1.0379 -0.9362 -1.6432
  246MOL0     H33190   4.528   1.428   1.048 -0.5086 -0.9244  0.8875
  246MOL0     H33191   4.341   1.602   1.008  4.3691 -0.7874 -0.1509
  246MOL0     H33192   3.713   1.505   0.926 -1.6096  0.5832 -0.1172
  246MOL0     H33193   3.555   1.650   0.822  0.8932 -0.0424  3.1258
  246MOL0     H33194   4.185   2.816   1.737 -1.5579  0.3439 -1.9997
  246MOL0     H33195   4.355   2.732   1.892  0.4691 -0.9311  0.1625
  246MOL0     H33196   4.759   2.401   1.835 -1.0166  2.2266 -0.1669
  246MOL0     H33197   4.892   2.292   2.001  1.4147 -0.4878 -1.7001
  246MOL0     H33198   5.220   2.529   2.169  0.8813 -0.0501 -1.6216
  246MOL0     H33199   5.245   2.397   2.067  1.2036  1.2832 -0.0157
  246MOL0     H33200   5.388   2.349   2.246  0.2224  3.6964 -0.0158
  246MOL0     H33201   5.239   2.238   2.266  0.4925  0.5490 -2.0862
  246MOL0     H33202   5.318   2.492   2.424 -0.0822  0.9827 -0.9190
  246MOL0     H33203   5.340   2.327   2.484  0.3828  0.1882 -0.0487
  246MOL0     H33204   5.151   2.397   2.590  0.9638  2.7108  0.3880
  246MOL0     H33205   5.081   2.480   2.453 -0.7514 -1.4034 -3.6413
  246MOL0     H33206   4.935   2.078   2.438 -0.1771 -0.1555 -0.0268
  246MOL0     H33207   5.040   2.647   2.156 -0.2730 -0.4883  1.2475
  246MOL0     H33208   4.852   2.857   1.923 -1.1451  2.3107  1.0817
  246MOL0     H33209   4.807   2.835   2.101 -0.6536 -1.3801 -0.0192
  246MOL0     H33210   4.979   2.854   2.038  0.9583 -1.8399  1.3947
  247MOL0     O33211   1.805   7.501   3.364 -0.0982 -0.8571  0.7956
  247MOL0     C33212   1.903   7.473   3.437  0.1814  0.8007  0.5740
  247MOL0     O33213   1.994   7.555   3.470 -0.3381  0.3621  0.8747
  247MOL0     C33214   1.962   7.685   3.472  0.6318 -0.4630  0.5769
  247MOL0     C33215   1.856   7.732   3.543 -0.2152 -0.2284  0.3473
  247MOL0     C33216   1.821   7.865   3.539 -0.7340  0.6662  0.2250
  247MOL0     C33217   1.901   7.961   3.468 -0.0634 -0.6078  0.4471
  247MOL0     O33218   1.876   8.096   3.455  0.2709  0.3331 -0.9204
  247MOL0     C33219   1.766   8.154   3.532  0.3698 -0.2057  0.0215
  247MOL0     C33220   1.810   8.295   3.554 -0.1260 -0.3189 -0.5538
  247MOL0     C33221   1.723   8.369   3.654 -0.0516 -0.3771 -0.4577
  247MOL0     C33222   1.789   8.504   3.696 -0.1180  0.4455 -0.0986
  247MOL0     C33223   1.692   8.579   3.794 -0.6032 -0.7616  0.0653
  247MOL0     C33224   1.757   8.714   3.832 -0.2278 -0.9394  0.1499
  247MOL0     C33225   1.652   8.804   3.894 -0.2554 -1.2827 -0.4661
  247MOL0     C33226   1.698   8.953   3.915 -0.0598  0.1662  0.2165
  247MOL0     N33227   1.792   8.971   4.025 -0.5098  0.1126 -0.7767
  247MOL0     C33228   1.919   8.924   4.011 -0.7412  0.9137 -0.0945
  247MOL0     C33229   1.969   8.944   4.138  0.3523 -0.1956 -0.4335
  247MOL0     C33230   2.107   8.921   4.193 -0.0665 -0.1011  0.1220
  247MOL0     C33231   2.178   9.057   4.223 -0.4471  0.5097 -0.3866
  247MOL0     C33232   2.313   9.023   4.265 -0.4397 -1.2063 -0.6240
  247MOL0     C33233   2.400   9.154   4.298  0.8225  0.4584  0.3558
  247MOL0     O33234   2.539   9.117   4.312  0.1532  0.6821  0.4229
  247MOL0     C33235   2.642   9.141   4.217  0.0301 -1.2175  0.5661
  247MOL0     C33236   2.777   9.123   4.260 -0.4833  0.2060 -0.3707
  247MOL0     C33237   2.885   9.142   4.174  0.3909 -0.9899  0.2641
  247MOL0     C33238   2.857   9.154   4.027  0.4679 -0.2583  0.2130
  247MOL0     C33239   2.971   9.158   3.925  0.1089 -0.2931 -0.2845
  247MOL0     O33240   2.936   9.172   3.804 -0.1772 -0.2935 -0.2305
  247MOL0     C33241   3.020   9.183   3.693 -0.2186  0.6033  0.3561
  247MOL0     C33242   2.968   9.209   3.557  0.1134 -0.3940  0.3934
  247MOL0     C33243   3.056   9.240   3.447  0.0920  0.4974 -0.0489
  247MOL0     C33244   3.194   9.231   3.465  0.8314  0.7236 -0.5681
  247MOL0     O33245   3.292   9.261   3.377 -0.2344 -0.1573  0.3501
  247MOL0     C33246   3.246   9.330   3.253  0.3742  0.3062  0.1623
  247MOL0     C33247   3.376   9.372   3.172  0.7123 -0.0304  0.4577
  247MOL0     C33248   3.427   9.507   3.225  0.1729 -0.0819  0.4976
  247MOL0     C33249   3.365   9.630   3.154 -0.1215  0.6333  0.0711
  247MOL0     C33250   3.355   9.747   3.243  0.0637 -0.9014  0.4844
  247MOL0     C33251   3.491   9.816   3.269 -0.2582 -0.5723 -1.6323
  247MOL0     C33252   3.538   9.925   3.176 -0.3620  0.6166 -0.0514
  247MOL0     C33253   3.656  10.000   3.241 -0.4155 -0.7054  1.3720
  247MOL0    Cl33254   3.728  10.130   3.153  0.1555  0.1242  0.1096
  247MOL0     C33255   3.241   9.204   3.589  0.1021  0.2502 -0.0538
  247MOL0     C33256   3.159   9.190   3.698 -0.8677  0.5357 -0.1477
  247MOL0     O33257   3.083   9.160   3.975  0.6337  0.0271  0.0724
  247MOL0     C33258   2.719   9.186   3.992  0.2655 -1.0794 -0.1496
  247MOL0     C33259   2.617   9.187   4.082  0.6359  0.5372 -0.0250
  247MOL0     N33260   1.870   8.993   4.213 -0.4127  0.7718 -0.1981
  247MOL0     N33261   1.764   8.995   4.151  0.0361  0.6598  0.4051
  247MOL0     C33262   2.017   7.909   3.403 -0.1094  0.1181 -0.0859
  247MOL0     C33263   2.045   7.777   3.409 -0.2947 -0.1325  0.6014
  247MOL0     C33264   1.918   7.341   3.505  0.7074 -0.8989  1.2256
  247MOL0     C33265   1.963   7.318   3.639  0.4557 -0.6876  1.2994
  247MOL0     C33266   1.986   7.187   3.682 -0.2421  0.0831 -0.2766
  247MOL0     C33267   1.959   7.075   3.606 -0.2081 -0.1292 -0.3223
  247MOL0     O33268   1.998   6.961   3.666 -1.0876  0.3121 -0.7762
  247MOL0     C33269   1.972   6.826   3.613 -0.1633 -0.4077  0.4603
  247MOL0     C33270   1.825   6.795   3.611  0.4862  0.4852  0.0500
  247MOL0     C33271   1.780   6.645   3.627  1.0109 -0.1306 -0.0338
  247MOL0     C33272   1.820   6.548   3.521  0.0892  0.0246  0.1200
  247MOL0     C33273   1.949   6.483   3.536 -0.4468  0.8390 -0.8136
  247MOL0     C33274   2.059   6.436   3.532 -0.0149  0.1093  0.1115
  247MOL0     C33275   1.913   7.099   3.476  0.2979 -0.6064  0.0362
  247MOL0     C33276   1.892   7.227   3.422 -0.7256  0.4267 -0.5033
  247MOL0     C33277   1.866   7.238   3.270  0.6540  0.5966  0.7565
  247MOL0     H33278   1.802   7.653   3.594  0.9564 -2.1100 -1.2028
  247MOL0     H33279   1.738   7.902   3.599 -0.0795  1.8696  0.4337
  247MOL0     H33280   1.669   8.141   3.483 -0.1575  1.1740  0.6342
  247MOL0     H33281   1.752   8.120   3.635  0.2571  1.8983  0.7560
  247MOL0     H33282   1.812   8.356   3.463  1.4612  0.7099  0.1109
  247MOL0     H33283   1.914   8.299   3.588  1.1780 -0.8295 -4.0763
  247MOL0     H33284   1.705   8.313   3.746  0.5590  0.9141  0.4731
  247MOL0     H33285   1.627   8.395   3.608 -0.5091  0.3327  0.8507
  247MOL0     H33286   1.885   8.484   3.745 -1.0687 -0.0718  1.6711
  247MOL0     H33287   1.802   8.569   3.609 -1.2908 -0.6507 -1.1320
  247MOL0     H33288   1.596   8.591   3.744  0.2278 -1.6712 -1.8616
  247MOL0     H33289   1.672   8.521   3.884  0.1773  0.0404  0.7749
  247MOL0     H33290   1.847   8.690   3.889  0.5459  0.1569 -0.5782
  247MOL0     H33291   1.792   8.771   3.746  0.7060 -0.0740  1.0706
  247MOL0     H33292   1.620   8.758   3.988 -0.4811  1.7222  1.0462
  247MOL0     H33293   1.562   8.808   3.831  0.5395 -0.7746 -1.6073
  247MOL0     H33294   1.727   9.007   3.824 -0.1806  0.3005  0.2573
  247MOL0     H33295   1.607   9.005   3.947 -0.2316 -0.8817  1.5383
  247MOL0     H33296   1.960   8.878   3.922  3.3113  0.4719  1.8067
  247MOL0     H33297   2.107   8.869   4.289  0.6704  1.9834  1.3039
  247MOL0     H33298   2.165   8.852   4.132  1.2157  2.3518 -1.5712
  247MOL0     H33299   2.188   9.123   4.137 -1.4838  1.3555  0.1194
  247MOL0     H33300   2.126   9.107   4.304  2.7430  0.1150  2.1095
  247MOL0     H33301   2.355   8.973   4.177  2.2799  0.5289 -0.4257
  247MOL0     H33302   2.306   8.969   4.360  1.0043 -1.1731 -0.4724
  247MOL0     H33303   2.363   9.215   4.381 -2.4339 -0.0832 -0.5655
  247MOL0     H33304   2.385   9.221   4.213 -0.2275 -0.5954 -0.3233
  247MOL0     H33305   2.786   9.099   4.366 -0.7470 -1.5565 -0.7252
  247MOL0     H33306   2.988   9.137   4.208  1.0597 -0.4821 -1.6120
  247MOL0     H33307   2.862   9.229   3.547 -0.4405 -0.8326  3.9365
  247MOL0     H33308   3.012   9.270   3.353 -1.7453  0.7545  0.8511
  247MOL0     H33309   3.189   9.262   3.189 -0.7865  1.4773 -0.0706
  247MOL0     H33310   3.181   9.414   3.279  0.9671  0.9590 -0.4245
  247MOL0     H33311   3.448   9.290   3.178 -0.3150 -1.0690 -0.8845
  247MOL0     H33312   3.338   9.380   3.070 -2.9449 -5.4608  0.9682
  247MOL0     H33313   3.413   9.513   3.334 -0.5998  0.3486  0.3771
  247MOL0     H33314   3.534   9.511   3.206  0.2354 -2.2321  0.1123
  247MOL0     H33315   3.267   9.599   3.117 -1.9172  0.1014  4.5945
  247MOL0     H33316   3.417   9.658   3.062 -0.8780 -1.7300 -1.1584
  247MOL0     H33317   3.313   9.718   3.339  2.0478 -3.6490  0.6406
  247MOL0     H33318   3.293   9.823   3.194  2.2472  0.7113  0.0811
  247MOL0     H33319   3.486   9.859   3.369  0.0045 -1.7545 -1.0907
  247MOL0     H33320   3.573   9.744   3.270  1.4001  1.1775  1.3286
  247MOL0     H33321   3.453   9.993   3.160 -1.5560 -0.2474  2.2021
  247MOL0     H33322   3.568   9.864   3.090 -1.0551 -3.1008  2.1445
  247MOL0     H33323   3.632  10.034   3.342 -1.8239 -1.7896  1.4385
  247MOL0     H33324   3.732   9.923   3.251 -0.2117 -0.6527  0.3353
  247MOL0     H33325   3.348   9.193   3.600  0.3695  0.2636 -2.1917
  247MOL0     H33326   3.216   9.155   3.783  0.6333 -2.3009 -2.1646
  247MOL0     H33327   2.686   9.213   3.892  1.0088 -2.6735 -0.8557
  247MOL0     H33328   2.514   9.209   4.055 -0.2182 -0.3767  2.2444
  247MOL0     H33329   2.071   7.980   3.341 -4.0961  0.0618 -4.0951
  247MOL0     H33330   2.131   7.738   3.355 -1.2351 -1.8978  0.2882
  247MOL0     H33331   1.975   7.404   3.704 -0.5294  0.3905  0.1037
  247MOL0     H33332   2.031   7.176   3.780 -2.1414 -0.9628  0.5280
  247MOL0     H33333   2.024   6.759   3.683  0.4941 -0.7618 -0.3391
  247MOL0     H33334   2.019   6.823   3.514  0.2857  2.0061  0.5479
  247MOL0     H33335   1.784   6.827   3.515 -0.9620  1.0857  0.8330
  247MOL0     H33336   1.779   6.862   3.684  0.8010  1.4847 -0.6442
  247MOL0     H33337   1.670   6.646   3.635  0.8839 -1.5131 -1.2898
  247MOL0     H33338   1.825   6.610   3.720 -0.2860 -0.1570  0.6074
  247MOL0     H33339   1.743   6.472   3.505  1.1649 -1.5221  1.8824
  247MOL0     H33340   1.821   6.608   3.430 -0.0956 -0.4623 -0.2008
  247MOL0     H33341   2.156   6.393   3.546 -0.1931 -0.1414  0.5952
  247MOL0     H33342   1.905   7.019   3.403  1.9440  1.8269 -3.0642
  247MOL0     H33343   1.780   7.299   3.240  0.1916 -0.6891 -0.6812
  247MOL0     H33344   1.959   7.277   3.228  1.2742 -0.7672  0.8337
  247MOL0     H33345   1.855   7.138   3.228  1.2575  0.5630  0.6731
  248MOL0     O33346   0.109   9.645  11.353  0.5683  0.1230 -0.3562
  248MOL0     C33347   0.144   9.759  11.364 -0.6977 -0.5538 -0.1852
  248MOL0     O33348   0.060   9.863  11.344  0.1430  0.0604 -0.0222
  248MOL0     C33349  -0.067   9.851  11.383  0.4454 -0.6311 -0.3991
  248MOL0     C33350  -0.158   9.939  11.321 -0.0034 -0.4758 -0.0469
  248MOL0     C33351  -0.288   9.962  11.358  0.1796  0.5417 -0.0168
  248MOL0     C33352  -0.346   9.873  11.453 -0.1139 -0.2373 -0.6597
  248MOL0     O33353  -0.479   9.888  11.486 -0.4649  0.6431  0.1715
  248MOL0     C33354  -0.558   9.766  11.535  0.3464  0.9412 -0.5424
  248MOL0     C33355  -0.576   9.776  11.685  0.0491 -0.2068 -0.7341
  248MOL0     C33356  -0.698   9.871  11.713  0.7352  0.8864  0.0770
  248MOL0     C33357  -0.753   9.849  11.855  1.1519 -0.4237  0.7942
  248MOL0     C33358  -0.889   9.920  11.858 -0.7673  0.0451  0.0928
  248MOL0     C33359  -0.989   9.849  11.945 -0.9091 -0.2398 -0.1497
  248MOL0     C33360  -1.101   9.934  11.987  0.4346  0.0818 -0.2436
  248MOL0     C33361  -1.186   9.985  11.864  0.5130  0.2402 -0.0883
  248MOL0     N33362  -1.296  10.058  11.911  0.7592 -1.1026 -0.0256
  248MOL0     C33363  -1.310  10.195  11.903  0.9853 -0.2841  0.5261
  248MOL0     C33364  -1.440  10.219  11.933  0.1805  0.9647  0.5168
  248MOL0     C33365  -1.509  10.357  11.947  0.4198 -0.1106  0.0750
  248MOL0     C33366  -1.621  10.373  11.839 -0.3896 -0.3376  0.3043
  248MOL0     C33367  -1.760  10.411  11.895  0.0250 -0.4252  0.6411
  248MOL0     C33368  -1.810  10.299  11.987  0.5049  0.5784  0.3953
  248MOL0     O33369  -1.861  10.347  12.117 -0.0902  0.2727 -0.2174
  248MOL0     C33370  -1.948  10.265  12.185  0.6211  0.3009  0.9658
  248MOL0     C33371  -1.972  10.128  12.161 -0.1551 -0.1328 -0.2751
  248MOL0     C33372  -2.055  10.052  12.242  0.4588  0.7316 -0.6970
  248MOL0     C33373  -2.108  10.112  12.358  0.4695  0.4388 -0.5518
  248MOL0     C33374  -2.186  10.023  12.460 -0.0437 -0.0324  0.0806
  248MOL0     O33375  -2.230  10.082  12.573  0.3003 -0.1883 -0.0822
  248MOL0     C33376  -2.311  10.014  12.665 -1.0406 -0.9359  0.2262
  248MOL0     C33377  -2.446  10.033  12.658 -0.2778 -0.1706 -0.2097
  248MOL0     C33378  -2.528   9.969  12.748  1.0684 -0.0832 -0.9227
  248MOL0     C33379  -2.474   9.891  12.861  0.0692 -0.2210  1.3659
  248MOL0     O33380  -2.547   9.813  12.949  0.2900  0.1998 -0.1991
  248MOL0     C33381  -2.683   9.792  12.923 -0.0312 -0.2897  0.5483
  248MOL0     C33382  -2.742   9.663  12.994 -0.2001  0.1533  0.3600
  248MOL0     C33383  -2.769   9.683  13.142  1.5536  0.4991 -0.1219
  248MOL0     C33384  -2.865   9.579  13.192  0.1846  0.6559  0.4135
  248MOL0     C33385  -2.793   9.446  13.228  0.4239  0.0868 -0.6666
  248MOL0     C33386  -2.693   9.452  13.347  0.3104  0.1853  0.8562
  248MOL0     C33387  -2.651   9.307  13.376  0.0481  1.1214 -0.4994
  248MOL0     C33388  -2.651   9.195  13.273 -0.0446 -0.3862  0.5374
  248MOL0    Cl33389  -2.539   9.067  13.315  0.1212  0.0449  0.0040
  248MOL0     C33390  -2.332   9.874  12.868  0.0563  0.3068  0.2648
  248MOL0     C33391  -2.254   9.937  12.767  0.0622  0.6285 -1.0989
  248MOL0     O33392  -2.203   9.911  12.425  0.2568 -0.2824 -0.5063
  248MOL0     C33393  -2.109  10.253  12.369  0.5564 -0.1762 -0.3102
  248MOL0     C33394  -2.017  10.322  12.290 -0.4319  0.6509 -0.1548
  248MOL0     N33395  -1.500  10.098  11.975  0.6344 -0.1068 -0.3585
  248MOL0     N33396  -1.414  10.003  11.954  0.1827  0.7386 -0.3622
  248MOL0     C33397  -0.260   9.775  11.513  0.5408  0.0789  0.2216
  248MOL0     C33398  -0.123   9.767  11.484 -0.9929 -0.3753  0.3507
  248MOL0     C33399   0.301   9.765  11.367  1.1273 -0.7593 -0.2518
  248MOL0     C33400   0.353   9.892  11.322  0.5534  0.1472  0.6493
  248MOL0     C33401   0.488   9.894  11.304  1.2104  0.5575 -0.5123
  248MOL0     C33402   0.576   9.791  11.333  0.6593  0.9786  0.1247
  248MOL0     O33403   0.708   9.813  11.288  0.7128 -0.2419 -0.7889
  248MOL0     C33404   0.807   9.726  11.333  0.6423  0.5790 -0.0321
  248MOL0     C33405   0.839   9.622  11.216 -0.2669 -0.0311  0.0548
  248MOL0     C33406   0.917   9.696  11.100  0.0923  0.0512 -0.5760
  248MOL0     C33407   0.959   9.606  10.974 -0.5866 -0.5885 -0.1158
  248MOL0     C33408   0.850   9.567  10.894  0.7268  0.8970 -0.4352
  248MOL0     C33409   0.748   9.550  10.826 -0.7354 -0.0926  1.0361
  248MOL0     C33410   0.524   9.672  11.376 -0.2166 -0.1865  0.0482
  248MOL0     C33411   0.390   9.660  11.400  0.0783  0.1319 -0.6954
  248MOL0     C33412   0.345   9.521  11.445  0.1084 -0.0368  0.2120
  248MOL0     H33413  -0.115   9.996  11.240 -1.6847  0.6321 -0.2054
  248MOL0     H33414  -0.349  10.034  11.303  0.0737 -0.6711 -1.5360
  248MOL0     H33415  -0.656   9.753  11.488  0.5955 -0.3960 -0.7264
  248MOL0     H33416  -0.509   9.670  11.515 -1.6031 -0.5828  1.4880
  248MOL0     H33417  -0.481   9.819  11.716 -0.3477  0.6141 -0.6411
  248MOL0     H33418  -0.584   9.673  11.721 -0.8790 -0.2699 -1.0753
  248MOL0     H33419  -0.776   9.855  11.639  1.1424  2.1595 -0.6693
  248MOL0     H33420  -0.675   9.978  11.705  1.7801  0.7607  1.0279
  248MOL0     H33421  -0.773   9.746  11.883 -2.4210  0.2974  1.4476
  248MOL0     H33422  -0.675   9.888  11.920  1.3964 -1.5909  1.2153
  248MOL0     H33423  -0.871  10.021  11.895  1.7374 -0.2948 -0.0292
  248MOL0     H33424  -0.937   9.935  11.761 -1.8917 -0.4187  0.5625
  248MOL0     H33425  -1.025   9.756  11.901 -3.8031  0.5505  0.2642
  248MOL0     H33426  -0.934   9.812  12.031  4.8408  0.6118 -2.9701
  248MOL0     H33427  -1.061  10.012  12.051 -2.4278 -0.6224  2.6437
  248MOL0     H33428  -1.169   9.877  12.051 -2.6065  2.1297 -1.4215
  248MOL0     H33429  -1.122  10.050  11.803  1.4229 -0.5521  0.0124
  248MOL0     H33430  -1.222   9.901  11.804 -1.3502  0.8488  0.1092
  248MOL0     H33431  -1.237  10.275  11.900  1.7708 -0.8885  2.3029
  248MOL0     H33432  -1.549  10.361  12.049 -0.6193  0.3076 -0.3261
  248MOL0     H33433  -1.426  10.427  11.931  2.5139 -2.1683  1.3287
  248MOL0     H33434  -1.598  10.436  11.753  2.5828 -0.0589  1.1987
  248MOL0     H33435  -1.647  10.274  11.799  1.3362 -0.0621 -1.6282
  248MOL0     H33436  -1.832  10.441  11.818 -1.9771  4.4069  3.9045
  248MOL0     H33437  -1.750  10.499  11.958 -0.0063  0.2519 -0.2770
  248MOL0     H33438  -1.731  10.225  12.000  1.2070  1.5909  2.2352
  248MOL0     H33439  -1.894  10.247  11.939 -0.3254  2.4104 -0.2177
  248MOL0     H33440  -1.911  10.075  12.089 -0.2978  3.0268 -2.9642
  248MOL0     H33441  -2.059   9.946  12.218 -3.4285  0.7769 -0.9183
  248MOL0     H33442  -2.491  10.107  12.593  1.1566 -0.1554 -1.2237
  248MOL0     H33443  -2.635   9.988  12.748  0.7535 -1.6433 -2.5933
  248MOL0     H33444  -2.729   9.882  12.965 -0.5836 -1.4568  2.5788
  248MOL0     H33445  -2.702   9.781  12.816 -0.3845  0.3463  0.5376
  248MOL0     H33446  -2.836   9.648  12.941  0.2154 -2.9680  0.3359
  248MOL0     H33447  -2.676   9.578  12.977  1.7211  1.8318 -1.0537
  248MOL0     H33448  -2.680   9.670  13.203  0.1898 -1.4106  1.5855
  248MOL0     H33449  -2.812   9.782  13.164  0.3045  0.1410 -0.8707
  248MOL0     H33450  -2.937   9.569  13.110  0.4829  0.2187  0.2038
  248MOL0     H33451  -2.921   9.614  13.279  0.3410 -0.5340  1.0083
  248MOL0     H33452  -2.736   9.420  13.138  0.8456  2.1842 -1.0631
  248MOL0     H33453  -2.873   9.373  13.241  0.5548 -0.5848 -3.1756
  248MOL0     H33454  -2.607   9.514  13.320  0.4386 -0.7279 -0.9391
  248MOL0     H33455  -2.743   9.494  13.435 -1.6121 -2.1767  0.9938
  248MOL0     H33456  -2.707   9.278  13.465 -0.0593  1.5968 -0.4071
  248MOL0     H33457  -2.549   9.327  13.411 -0.4604  5.6525 -0.9339
  248MOL0     H33458  -2.754   9.161  13.259  0.4361 -1.5508 -0.2257
  248MOL0     H33459  -2.616   9.233  13.177 -1.6716 -1.3235 -0.4705
  248MOL0     H33460  -2.282   9.806  12.936 -1.4641 -1.0269  0.1040
  248MOL0     H33461  -2.147   9.917  12.758  0.1462  0.5902 -0.0678
  248MOL0     H33462  -2.148  10.293  12.461 -3.9535 -2.0306 -1.1724
  248MOL0     H33463  -1.993  10.427  12.301 -1.7560  1.1780 -1.8222
  248MOL0     H33464  -0.306   9.712  11.588  1.3702 -0.7720  0.0329
  248MOL0     H33465  -0.062   9.687  11.525 -2.0226 -2.1254 -1.3678
  248MOL0     H33466   0.288   9.975  11.297 -0.7507 -0.4186  1.9763
  248MOL0     H33467   0.526   9.986  11.259 -1.0699  1.0149 -1.6398
  248MOL0     H33468   0.785   9.683  11.432 -2.4987  0.4768 -0.6752
  248MOL0     H33469   0.900   9.781  11.347  1.0891 -0.5676  1.8693
  248MOL0     H33470   0.749   9.572  11.178  0.9349 -1.6699 -0.7511
  248MOL0     H33471   0.899   9.545  11.266 -0.4839  1.1850  2.3419
  248MOL0     H33472   1.014   9.733  11.135 -0.9367  3.5695 -1.1118
  248MOL0     H33473   0.868   9.789  11.071  0.1984  0.3779  0.2701
  248MOL0     H33474   1.030   9.657  10.908 -0.8128  2.5921  1.9113
  248MOL0     H33475   1.014   9.523  11.020  3.1851  3.4656  3.5862
  248MOL0     H33476   0.658   9.545  10.768 -0.3930 -1.7329  0.5890
  248MOL0     H33477   0.595   9.592  11.391 -0.9690 -1.0913 -1.0601
  248MOL0     H33478   0.280   9.475  11.370  1.2034 -2.2578  0.5393
  248MOL0     H33479   0.432   9.454  11.447 -2.6863 -4.0942 -0.9130
  248MOL0     H33480   0.300   9.512  11.544 -1.4751  0.4799 -0.4208
  249MOL0     O33481   6.147   8.373   2.917 -1.2106 -0.0984  0.3323
  249MOL0     C33482   6.192   8.344   3.029 -0.3003 -0.1755  1.2881
  249MOL0     O33483   6.131   8.286   3.132 -0.6909  0.2568 -0.0093
  249MOL0     C33484   5.998   8.269   3.113 -0.2079  0.1684  0.1963
  249MOL0     C33485   5.907   8.379   3.114  0.0450 -0.8952 -0.0357
  249MOL0     C33486   5.773   8.352   3.116 -0.3144  0.3397  0.1149
  249MOL0     C33487   5.724   8.220   3.110 -0.1569  0.3943 -0.9988
  249MOL0     O33488   5.592   8.203   3.103 -0.2249 -0.2904  0.1972
  249MOL0     C33489   5.524   8.212   2.977 -0.6156  0.5565 -0.6247
  249MOL0     C33490   5.545   8.087   2.891 -1.0198 -0.3971  0.5883
  249MOL0     C33491   5.509   7.951   2.968  0.5312  0.5616  0.0249
  249MOL0     C33492   5.448   7.859   2.864  0.0527  0.6566 -0.4190
  249MOL0     C33493   5.428   7.701   2.917  1.2461 -1.3057  0.4970
  249MOL0     C33494   5.559   7.641   2.967 -0.4691  0.6104  0.5218
  249MOL0     C33495   5.529   7.490   3.000  0.2451 -0.7208  0.0210
  249MOL0     C33496   5.599   7.458   3.133 -0.6313 -0.0387  0.1431
  249MOL0     N33497   5.742   7.461   3.137  0.6267  0.1297 -0.1084
  249MOL0     C33498   5.821   7.535   3.219  0.4722 -0.0018  0.4829
  249MOL0     C33499   5.949   7.500   3.186  0.7585 -0.3537  0.3143
  249MOL0     C33500   6.065   7.562   3.250  0.1198  0.0535  0.4007
  249MOL0     C33501   6.129   7.663   3.159 -0.0426  0.6296 -0.7674
  249MOL0     C33502   6.041   7.782   3.113  0.2834 -0.4411  0.1559
  249MOL0     C33503   5.932   7.749   3.011 -0.2196  0.1568 -0.0075
  249MOL0     O33504   5.927   7.860   2.916 -0.8620 -1.0227 -0.4372
  249MOL0     C33505   6.028   7.892   2.829  0.5327  0.4089 -0.1875
  249MOL0     C33506   6.140   7.806   2.814 -0.2588 -0.0635 -0.1690
  249MOL0     C33507   6.248   7.839   2.730  0.3155  0.1491  0.0071
  249MOL0     C33508   6.243   7.959   2.652  0.4161 -0.0764 -0.4803
  249MOL0     C33509   6.350   7.991   2.561  1.3068  0.4483  0.4002
  249MOL0     O33510   6.468   7.919   2.571 -0.2265  0.1114 -0.4888
  249MOL0     C33511   6.571   7.953   2.491 -0.2686  0.3642  0.2439
  249MOL0     C33512   6.556   8.015   2.358  0.1053 -0.8518 -1.2569
  249MOL0     C33513   6.661   8.041   2.278  0.2354  0.4883  0.1111
  249MOL0     C33514   6.792   8.003   2.318 -0.0744  0.3818 -0.2818
  249MOL0     O33515   6.902   8.028   2.246 -0.7709 -0.1568 -0.2376
  249MOL0     C33516   6.977   7.921   2.199  0.3949  0.5744 -0.0039
  249MOL0     C33517   7.119   7.982   2.185 -0.2351  0.3272  0.1407
  249MOL0     C33518   7.210   7.871   2.118  0.1050 -0.4926 -0.2116
  249MOL0     C33519   7.361   7.905   2.123 -0.7317 -0.1408 -0.6919
  249MOL0     C33520   7.438   7.826   2.024 -1.2089  0.6563  0.2630
  249MOL0     C33521   7.591   7.853   2.030  1.0381  0.1858  1.0769
  249MOL0     C33522   7.655   7.735   2.103 -0.9513 -0.2770 -0.0308
  249MOL0     C33523   7.802   7.771   2.138  0.8690  0.4560 -0.5789
  249MOL0    Cl33524   7.913   7.644   2.084 -0.0629  0.3633  0.1217
  249MOL0     C33525   6.808   7.942   2.445  0.1425  0.5153  0.6219
  249MOL0     C33526   6.698   7.911   2.525 -0.3503  0.2371 -0.5057
  249MOL0     O33527   6.336   8.089   2.487 -0.4462 -0.1440  0.0396
  249MOL0     C33528   6.134   8.051   2.674  0.7184  0.3841  0.0254
  249MOL0     C33529   6.032   8.019   2.771 -0.9346 -0.0627 -0.4646
  249MOL0     N33530   5.941   7.418   3.071 -0.5844  0.4981  0.2395
  249MOL0     N33531   5.819   7.406   3.037 -1.6741 -0.1992 -0.8633
  249MOL0     C33532   5.813   8.116   3.108  0.5355 -0.4459  0.0877
  249MOL0     C33533   5.956   8.138   3.103  1.2448 -0.1075  0.4093
  249MOL0     C33534   6.334   8.367   3.059 -0.3116 -0.1542 -0.2313
  249MOL0     C33535   6.358   8.427   3.180 -0.2653  0.2850 -0.3577
  249MOL0     C33536   6.486   8.435   3.233 -0.4056 -0.2887  0.7850
  249MOL0     C33537   6.593   8.387   3.157 -0.6214 -0.6194  0.4629
  249MOL0     O33538   6.708   8.420   3.207  0.2758 -0.1374 -0.5948
  249MOL0     C33539   6.820   8.333   3.193  0.3922  0.2798 -0.2432
  249MOL0     C33540   6.910   8.350   3.314 -0.0526 -0.2747  0.4326
  249MOL0     C33541   6.950   8.495   3.343 -0.0169  0.9949 -0.5284
  249MOL0     C33542   7.001   8.567   3.223  0.7950  0.3065 -0.1954
  249MOL0     C33543   7.100   8.498   3.139  0.5618  1.1860 -0.1088
  249MOL0     C33544   7.167   8.419   3.078 -0.1252  0.0066  0.1875
  249MOL0     C33545   6.571   8.339   3.025  0.4347  0.4337 -0.0915
  249MOL0     C33546   6.444   8.335   2.974 -0.4739  0.2619 -0.1907
  249MOL0     C33547   6.418   8.287   2.835  0.4807 -0.7182  0.5712
  249MOL0     H33548   5.952   8.478   3.119  0.5772 -1.1751  0.7883
  249MOL0     H33549   5.693   8.422   3.094  0.6180  0.9300 -1.6284
  249MOL0     H33550   5.416   8.201   2.987 -0.7013 -0.7764 -2.6006
  249MOL0     H33551   5.539   8.310   2.930  1.6670  0.1437 -0.8817
  249MOL0     H33552   5.646   8.080   2.849 -1.0384 -1.2509  0.6746
  249MOL0     H33553   5.489   8.100   2.798  3.9019 -0.8029 -2.8455
  249MOL0     H33554   5.437   7.962   3.050  0.1780 -1.5293  0.0442
  249MOL0     H33555   5.599   7.903   3.008 -1.4237 -2.6874  0.9020
  249MOL0     H33556   5.350   7.894   2.829 -2.1328 -1.6645  2.8377
  249MOL0     H33557   5.510   7.847   2.774 -0.3006 -0.4913 -0.5260
  249MOL0     H33558   5.359   7.706   3.002 -1.5142 -3.0677 -1.4901
  249MOL0     H33559   5.377   7.649   2.835  0.9350  0.7581 -0.6956
  249MOL0     H33560   5.644   7.651   2.900  0.9449  0.4967  2.2293
  249MOL0     H33561   5.584   7.691   3.062  2.7372  2.2704 -1.0338
  249MOL0     H33562   5.571   7.421   2.926  1.7718  1.2727 -1.0469
  249MOL0     H33563   5.422   7.468   3.011 -0.2992  0.7249 -1.8805
  249MOL0     H33564   5.555   7.536   3.195  0.8458  4.0093 -3.3845
  249MOL0     H33565   5.569   7.360   3.171  0.0756  0.1323  1.1506
  249MOL0     H33566   5.798   7.595   3.307 -0.8752  0.7791 -0.3686
  249MOL0     H33567   6.026   7.597   3.347 -3.8989 -0.3110 -0.9074
  249MOL0     H33568   6.141   7.486   3.267  2.5600  2.0645 -0.9173
  249MOL0     H33569   6.197   7.706   3.234 -2.2388 -1.3773  2.6346
  249MOL0     H33570   6.177   7.609   3.076  0.3227 -0.1323 -0.0730
  249MOL0     H33571   6.113   7.856   3.076 -1.6661  1.0456 -0.8004
  249MOL0     H33572   5.985   7.833   3.192  0.7870  1.2341 -0.5199
  249MOL0     H33573   5.833   7.729   3.053  1.1217 -4.2305  1.6949
  249MOL0     H33574   5.962   7.657   2.959  0.3630  0.8395 -0.9036
  249MOL0     H33575   6.142   7.705   2.854 -0.4544  0.2432  0.6432
  249MOL0     H33576   6.319   7.758   2.714 -1.6321 -1.7651  0.5697
  249MOL0     H33577   6.462   8.035   2.309  1.4000 -0.9907 -3.9568
  249MOL0     H33578   6.646   8.097   2.186 -0.9872 -0.6347 -0.4001
  249MOL0     H33579   6.978   7.835   2.266 -0.5797 -0.3670 -1.1569
  249MOL0     H33580   6.933   7.889   2.104  0.6592  2.1683 -0.6922
  249MOL0     H33581   7.116   8.074   2.125  1.3373  0.9586  0.9609
  249MOL0     H33582   7.156   8.001   2.286  1.0320 -2.3609  0.2792
  249MOL0     H33583   7.198   7.771   2.159 -2.3026  0.2025  0.9725
  249MOL0     H33584   7.193   7.869   2.010  0.4667 -0.3906 -0.2741
  249MOL0     H33585   7.392   7.869   2.221  2.1373 -1.1818 -1.8551
  249MOL0     H33586   7.376   8.013   2.119 -1.7321  0.0612  0.4972
  249MOL0     H33587   7.411   7.856   1.922 -0.2246  2.7697  0.5584
  249MOL0     H33588   7.410   7.721   2.031 -1.0051  0.7246  3.2540
  249MOL0     H33589   7.627   7.843   1.927 -2.7194 -2.2201 -0.1993
  249MOL0     H33590   7.616   7.945   2.084 -0.5503  0.4920  1.3371
  249MOL0     H33591   7.645   7.646   2.041 -1.7264  1.3295 -2.3672
  249MOL0     H33592   7.598   7.720   2.195 -1.7271  2.2045 -0.0339
  249MOL0     H33593   7.835   7.868   2.099  0.5163 -0.0866 -2.3099
  249MOL0     H33594   7.810   7.778   2.247 -2.1520 -0.2877 -0.2270
  249MOL0     H33595   6.911   7.927   2.478 -0.0942  1.7780  2.0194
  249MOL0     H33596   6.704   7.867   2.624 -1.4242 -3.9916 -2.1263
  249MOL0     H33597   6.122   8.147   2.624  2.0816  1.0311  0.8665
  249MOL0     H33598   5.946   8.083   2.791  1.1553  2.2450  1.7328
  249MOL0     H33599   5.773   8.015   3.114  0.2388 -0.3420 -0.1231
  249MOL0     H33600   6.027   8.057   3.098  3.9300  1.8538  3.4048
  249MOL0     H33601   6.275   8.469   3.236 -0.4968 -1.5159  0.7333
  249MOL0     H33602   6.499   8.480   3.331  0.3448  3.7996 -0.9982
  249MOL0     H33603   6.868   8.360   3.099 -1.8243  3.5755 -0.5884
  249MOL0     H33604   6.793   8.226   3.196 -1.0696  0.6375  0.7008
  249MOL0     H33605   7.005   8.300   3.291  0.4133  0.6883  0.2188
  249MOL0     H33606   6.863   8.302   3.401 -1.7059 -1.7338 -1.2048
  249MOL0     H33607   7.026   8.516   3.418 -0.0451 -1.0819  0.1382
  249MOL0     H33608   6.854   8.542   3.370  1.7050  3.6227  1.4875
  249MOL0     H33609   6.913   8.587   3.161 -0.8470  0.0839  1.9425
  249MOL0     H33610   7.042   8.664   3.251 -0.5135 -0.0183  3.3614
  249MOL0     H33611   7.238   8.376   3.010  1.6715  2.3028  0.4725
  249MOL0     H33612   6.660   8.300   2.976 -0.5400 -3.7029  1.0058
  249MOL0     H33613   6.376   8.364   2.770  1.7411 -1.2633 -0.9388
  249MOL0     H33614   6.510   8.245   2.795  1.7564  0.9705  1.5483
  249MOL0     H33615   6.340   8.211   2.830  0.0521 -0.4225  2.0851
  250MOL0     O33616   0.911   7.331   0.801 -0.1325  0.5358  0.4605
  250MOL0     C33617   0.972   7.282   0.895 -0.2376  0.1719  0.0516
  250MOL0     O33618   1.072   7.348   0.956  0.6270 -0.3444 -0.8807
  250MOL0     C33619   1.105   7.476   0.939  0.3869 -0.6316 -0.7429
  250MOL0     C33620   1.061   7.581   1.021  0.7746 -0.6281 -0.6526
  250MOL0     C33621   1.100   7.712   1.001  0.6620  0.7772 -0.2713
  250MOL0     C33622   1.186   7.738   0.888  0.4234 -0.2141  0.0706
  250MOL0     O33623   1.223   7.867   0.866  0.0865  0.1844  0.2154
  250MOL0     C33624   1.365   7.880   0.830 -0.0924  0.3967  0.2752
  250MOL0     C33625   1.391   8.024   0.861 -0.3756  0.5162  1.0344
  250MOL0     C33626   1.549   8.052   0.840 -0.4312  0.3108 -0.0940
  250MOL0     C33627   1.570   8.207   0.841 -0.2735 -0.1455  0.0545
  250MOL0     C33628   1.721   8.248   0.840 -0.5999 -0.1227 -1.3275
  250MOL0     C33629   1.811   8.176   0.947 -0.2766  0.2801  0.0564
  250MOL0     C33630   1.934   8.270   0.964  1.2843  0.1659 -0.1313
  250MOL0     C33631   2.023   8.189   1.072  0.3322 -0.7295 -0.4032
  250MOL0     N33632   2.126   8.286   1.121 -0.0800  0.6506  0.8636
  250MOL0     C33633   2.260   8.260   1.119 -0.6306 -0.6971 -1.1984
  250MOL0     C33634   2.319   8.369   1.172  0.4673 -1.2058  0.8054
  250MOL0     C33635   2.466   8.378   1.208 -0.7985 -0.2734  0.0274
  250MOL0     C33636   2.536   8.241   1.238  0.6035 -0.6890  0.0596
  250MOL0     C33637   2.685   8.262   1.275 -0.2286  0.3117 -0.0049
  250MOL0     C33638   2.743   8.132   1.330  0.5860  0.5224  0.6115
  250MOL0     O33639   2.868   8.173   1.380 -0.1861 -0.5410  0.1477
  250MOL0     C33640   2.966   8.079   1.380  0.0645  0.3741 -0.2670
  250MOL0     C33641   3.088   8.123   1.440  0.7254  0.1255 -0.0155
  250MOL0     C33642   3.215   8.052   1.433 -0.4153  1.3362  0.1895
  250MOL0     C33643   3.212   7.934   1.361 -0.5997  0.3190  0.2656
  250MOL0     C33644   3.340   7.855   1.356 -0.9539 -0.3756  0.2527
  250MOL0     O33645   3.441   7.889   1.442  0.9029 -0.2397  0.5088
  250MOL0     C33646   3.572   7.879   1.406 -1.2313 -0.1011 -0.0436
  250MOL0     C33647   3.620   7.888   1.273  0.2748  0.2423  0.2310
  250MOL0     C33648   3.748   7.844   1.235 -0.3954 -0.6836 -0.2206
  250MOL0     C33649   3.845   7.817   1.339 -0.0016  0.4182  0.1086
  250MOL0     O33650   3.977   7.792   1.311  0.6617 -1.0520 -0.2905
  250MOL0     C33651   4.054   7.909   1.321  0.2796 -0.8946  0.0337
  250MOL0     C33652   4.201   7.866   1.362  0.4970  0.4173 -0.0702
  250MOL0     C33653   4.304   7.969   1.316  0.9897 -0.3484  0.9864
  250MOL0     C33654   4.438   7.925   1.367 -0.3982 -0.4503 -0.0995
  250MOL0     C33655   4.543   8.036   1.374  0.3951 -0.5626  0.4410
  250MOL0     C33656   4.674   7.991   1.442  0.8519  0.4553 -0.3672
  250MOL0     C33657   4.739   7.852   1.403 -0.0118  0.2696 -0.2969
  250MOL0     C33658   4.780   7.757   1.523 -0.1224  0.2488  0.6537
  250MOL0    Cl33659   4.953   7.784   1.561 -0.0860  0.2137  0.1556
  250MOL0     C33660   3.798   7.820   1.473 -0.9863  0.4357 -0.0611
  250MOL0     C33661   3.661   7.842   1.506 -0.3282 -0.5686 -0.1807
  250MOL0     O33662   3.350   7.778   1.266 -0.3459  0.2906  0.3302
  250MOL0     C33663   3.096   7.881   1.296  0.1820  0.6775 -0.1507
  250MOL0     C33664   2.973   7.954   1.318 -0.4989  0.2413 -0.2749
  250MOL0     N33665   2.219   8.464   1.195  0.0329  0.0088  0.0678
  250MOL0     N33666   2.108   8.416   1.171  0.5895 -0.1744  0.6600
  250MOL0     C33667   1.222   7.635   0.803 -0.7455 -0.2460  0.3744
  250MOL0     C33668   1.192   7.506   0.836  0.3081  0.3943  0.3922
  250MOL0     C33669   0.933   7.145   0.942 -0.2002  0.7154  0.4213
  250MOL0     C33670   0.835   7.075   0.871 -0.3246  0.9762 -0.3269
  250MOL0     C33671   0.790   6.953   0.921 -0.6605  0.1166 -0.5450
  250MOL0     C33672   0.858   6.885   1.019 -0.8652 -0.6457  0.7399
  250MOL0     O33673   0.821   6.772   1.075  0.2341  0.1565  0.6426
  250MOL0     C33674   0.886   6.657   1.025 -0.0329  0.5223 -0.1208
  250MOL0     C33675   0.794   6.540   1.010 -0.9821  0.2771 -0.5524
  250MOL0     C33676   0.741   6.504   1.151 -0.0441 -0.4271  0.9885
  250MOL0     C33677   0.665   6.378   1.160  0.1266 -0.0333 -0.1565
  250MOL0     C33678   0.528   6.392   1.090 -0.1066 -0.6077  0.1727
  250MOL0     C33679   0.410   6.398   1.042  0.5706 -0.4049  0.4855
  250MOL0     C33680   0.955   6.954   1.083 -0.0388  0.0971 -0.0008
  250MOL0     C33681   0.985   7.083   1.059 -0.4819  0.4074  0.3410
  250MOL0     C33682   1.086   7.148   1.157 -0.3488 -0.5225  0.6372
  250MOL0     H33683   1.007   7.549   1.109  1.0199  0.3066 -0.1489
  250MOL0     H33684   1.069   7.791   1.068  0.9763 -0.5923  1.5600
  250MOL0     H33685   1.423   7.809   0.889 -2.4004 -2.6561 -0.8466
  250MOL0     H33686   1.368   7.865   0.722 -1.1943  1.3439  0.0898
  250MOL0     H33687   1.359   8.045   0.964 -1.3716 -3.2379  1.6797
  250MOL0     H33688   1.348   8.089   0.785  2.4018  0.4687 -0.6976
  250MOL0     H33689   1.588   8.001   0.751  0.5181  2.6554 -1.1243
  250MOL0     H33690   1.600   8.004   0.924 -0.7365  0.3306  0.1055
  250MOL0     H33691   1.531   8.252   0.749  1.6362 -0.7401 -1.1049
  250MOL0     H33692   1.528   8.249   0.933  1.2495  1.1976  0.1793
  250MOL0     H33693   1.760   8.225   0.740  0.1020  0.3744 -1.1694
  250MOL0     H33694   1.714   8.356   0.850  1.9392  0.0504 -0.7021
  250MOL0     H33695   1.757   8.160   1.040 -0.1744  0.5107  0.1566
  250MOL0     H33696   1.824   8.073   0.912 -0.0960  0.8618 -1.7058
  250MOL0     H33697   1.892   8.356   1.016 -5.6142 -1.9987 -1.1740
  250MOL0     H33698   1.981   8.289   0.867  0.0948 -2.4290 -1.3263
  250MOL0     H33699   1.962   8.143   1.150 -0.2560 -2.4176 -1.8077
  250MOL0     H33700   2.067   8.108   1.014 -2.2021 -1.3868 -1.5083
  250MOL0     H33701   2.319   8.169   1.111  0.3247 -0.0251 -2.0659
  250MOL0     H33702   2.519   8.434   1.131 -1.0201  0.0665  0.1231
  250MOL0     H33703   2.466   8.436   1.301  2.7537 -0.3393  0.2037
  250MOL0     H33704   2.482   8.206   1.326 -1.9591  1.8324 -0.3570
  250MOL0     H33705   2.539   8.176   1.151 -2.3949 -0.7224 -0.1068
  250MOL0     H33706   2.705   8.342   1.348  1.3277 -1.8191  2.0799
  250MOL0     H33707   2.736   8.277   1.179  1.1001 -0.1295  0.5997
  250MOL0     H33708   2.751   8.073   1.238 -1.0845  0.4841  0.4631
  250MOL0     H33709   2.673   8.086   1.400  0.5653  1.6233  1.3380
  250MOL0     H33710   3.073   8.220   1.487 -4.0589 -0.4425  0.1289
  250MOL0     H33711   3.305   8.097   1.472  0.1388 -1.8805  3.1212
  250MOL0     H33712   3.550   7.912   1.193  2.1298  0.8824 -1.2620
  250MOL0     H33713   3.786   7.851   1.133 -0.0221  2.4007  0.0162
  250MOL0     H33714   4.063   7.977   1.236 -1.5495  0.4941  0.8852
  250MOL0     H33715   4.021   7.968   1.407  3.7902  1.7894 -0.2345
  250MOL0     H33716   4.199   7.853   1.471  1.6190  0.5374 -0.0280
  250MOL0     H33717   4.233   7.775   1.311  3.6507  1.9009 -1.0369
  250MOL0     H33718   4.303   7.980   1.207 -0.8799 -0.3238  0.9705
  250MOL0     H33719   4.276   8.067   1.357  0.1980 -0.1786  0.0833
  250MOL0     H33720   4.474   7.849   1.297 -3.4551 -0.4729 -1.7955
  250MOL0     H33721   4.439   7.886   1.469  0.6609  3.3362  1.4964
  250MOL0     H33722   4.507   8.125   1.426  1.0891  1.2500 -1.9982
  250MOL0     H33723   4.556   8.056   1.267  2.7956 -1.5178  0.4850
  250MOL0     H33724   4.746   8.070   1.420 -0.1257  0.5630 -3.6397
  250MOL0     H33725   4.667   7.990   1.551 -3.7490 -0.8415 -0.4467
  250MOL0     H33726   4.815   7.859   1.324  0.3262 -1.8306 -0.2050
  250MOL0     H33727   4.667   7.789   1.350  0.1660 -3.0390  2.9938
  250MOL0     H33728   4.720   7.787   1.610  0.0224  2.9990 -0.1205
  250MOL0     H33729   4.762   7.655   1.487  1.0942  0.3629 -0.3272
  250MOL0     H33730   3.872   7.795   1.548  0.9468  0.9006 -1.7286
  250MOL0     H33731   3.616   7.838   1.605 -0.6594  1.4611 -0.2208
  250MOL0     H33732   3.084   7.783   1.250 -0.6501  0.9882 -0.6161
  250MOL0     H33733   2.885   7.926   1.261 -0.9265 -2.0838  1.3911
  250MOL0     H33734   1.283   7.648   0.714 -0.1000  0.3647  0.8943
  250MOL0     H33735   1.218   7.426   0.767 -0.1515  1.9885 -1.7196
  250MOL0     H33736   0.791   7.124   0.784 -0.6043 -0.2177 -0.8705
  250MOL0     H33737   0.694   6.910   0.891 -2.3470  1.9460  1.8386
  250MOL0     H33738   0.964   6.618   1.091 -0.7262 -1.0028 -0.1682
  250MOL0     H33739   0.924   6.670   0.923 -1.1532 -0.3474 -0.6548
  250MOL0     H33740   0.841   6.463   0.948  0.7334  1.1477 -0.3948
  250MOL0     H33741   0.713   6.575   0.946  1.5708 -0.0757 -4.2538
  250MOL0     H33742   0.674   6.584   1.184  0.1313  0.1872 -0.0891
  250MOL0     H33743   0.818   6.495   1.228  1.4747 -3.1132 -0.6793
  250MOL0     H33744   0.716   6.299   1.106 -1.1141 -0.6354 -0.4872
  250MOL0     H33745   0.644   6.352   1.264 -0.2519 -2.2170 -0.7420
  250MOL0     H33746   0.307   6.394   1.012  1.0756  0.9016 -1.5665
  250MOL0     H33747   0.998   6.898   1.166  1.0075  0.4364 -0.2998
  250MOL0     H33748   1.170   7.160   1.088 -0.9686 -2.5637 -0.5700
  250MOL0     H33749   1.049   7.243   1.195 -2.2162 -0.5470 -0.9893
  250MOL0     H33750   1.095   7.081   1.243 -2.3551 -0.8218  0.6525
  251MOL0     O33751   2.493   6.885   4.395 -0.1401 -0.0151  0.8281
  251MOL0     C33752   2.569   6.797   4.432 -0.4063  0.3509  0.6381
  251MOL0     O33753   2.543   6.661   4.415 -0.1398 -0.6615 -0.0505
  251MOL0     C33754   2.418   6.615   4.372  0.6153 -0.0814  0.7820
  251MOL0     C33755   2.417   6.544   4.251 -0.6271 -0.9714  0.8766
  251MOL0     C33756   2.312   6.474   4.206  0.0147  0.2252  0.4619
  251MOL0     C33757   2.193   6.478   4.277 -0.0656  0.3014  0.3629
  251MOL0     O33758   2.076   6.403   4.259  0.1822  0.1606  0.2772
  251MOL0     C33759   2.113   6.268   4.257 -0.3325  0.1609 -0.3415
  251MOL0     C33760   2.190   6.219   4.385 -0.4147  0.8249  0.3307
  251MOL0     C33761   2.248   6.068   4.393 -0.1816  0.6352 -0.6269
  251MOL0     C33762   2.377   6.037   4.310 -0.2631 -0.6169  0.0347
  251MOL0     C33763   2.429   5.894   4.349 -0.8138  0.0730 -0.3063
  251MOL0     C33764   2.563   5.842   4.288  0.4266 -0.4448 -0.3551
  251MOL0     C33765   2.682   5.924   4.345 -0.2561  0.4745 -0.3510
  251MOL0     C33766   2.815   5.848   4.364  0.0231  0.2608  0.0372
  251MOL0     N33767   2.879   5.838   4.230  0.4121 -0.4004 -0.5057
  251MOL0     C33768   2.925   5.957   4.172 -0.0513 -0.9546  0.1682
  251MOL0     C33769   2.986   5.910   4.064  0.1172 -0.4817  1.2415
  251MOL0     C33770   3.053   5.982   3.941  0.2922  0.0774 -0.4007
  251MOL0     C33771   3.186   6.040   3.963  0.8362  0.0509 -0.0232
  251MOL0     C33772   3.299   5.950   4.018 -0.3658  0.5147 -0.2925
  251MOL0     C33773   3.433   6.012   3.976 -0.6254 -0.2591 -0.8009
  251MOL0     O33774   3.541   5.923   4.015  0.7421 -0.3188  0.4574
  251MOL0     C33775   3.652   5.970   4.073  0.2740  0.2670 -1.3131
  251MOL0     C33776   3.738   5.887   4.146 -0.0318  0.6509  0.5931
  251MOL0     C33777   3.869   5.926   4.178 -0.2387  0.0942  0.3639
  251MOL0     C33778   3.914   6.062   4.163 -0.1056 -0.0627 -0.0567
  251MOL0     C33779   4.052   6.106   4.193  0.0963  1.2947  0.0943
  251MOL0     O33780   4.133   6.010   4.245 -0.2805 -0.7875  0.3646
  251MOL0     C33781   4.265   6.037   4.265 -0.8602  0.7024 -0.0518
  251MOL0     C33782   4.351   5.916   4.281  0.0065  0.2195  0.0517
  251MOL0     C33783   4.485   5.931   4.288  1.3533 -0.1300 -0.8163
  251MOL0     C33784   4.543   6.054   4.278 -0.7179 -0.5009 -0.6867
  251MOL0     O33785   4.684   6.066   4.271  0.9850  0.6912 -0.3659
  251MOL0     C33786   4.757   6.162   4.352  0.5494 -0.5769 -0.1222
  251MOL0     C33787   4.899   6.139   4.378 -0.3763  0.3538  0.7558
  251MOL0     C33788   4.987   6.143   4.254  0.3982  0.0513  0.1615
  251MOL0     C33789   5.133   6.101   4.272 -0.0317 -0.3620 -1.1004
  251MOL0     C33790   5.209   6.216   4.327 -0.6586 -0.5322  0.1422
  251MOL0     C33791   5.359   6.184   4.365 -0.1016 -0.0678  0.0480
  251MOL0     C33792   5.360   6.101   4.494  0.9167 -0.5712  0.8175
  251MOL0     C33793   5.486   6.042   4.531  0.3184 -0.6869 -0.5681
  251MOL0    Cl33794   5.534   5.926   4.398 -0.0397  0.0369 -0.1180
  251MOL0     C33795   4.469   6.164   4.273 -0.0625 -0.4791  0.9585
  251MOL0     C33796   4.332   6.165   4.270 -0.2410 -0.1631 -0.4031
  251MOL0     O33797   4.089   6.211   4.146  0.3763 -0.1015 -0.0198
  251MOL0     C33798   3.826   6.146   4.093  0.5753  1.1399 -0.1150
  251MOL0     C33799   3.699   6.099   4.053  0.0514 -0.4748  0.8884
  251MOL0     N33800   2.982   5.770   4.066 -0.1478 -0.5690 -0.0806
  251MOL0     N33801   2.890   5.732   4.148 -0.3807 -0.1741 -0.2754
  251MOL0     C33802   2.193   6.556   4.395  0.5362 -0.3295  0.8574
  251MOL0     C33803   2.310   6.620   4.444 -0.4645  0.1070  0.4286
  251MOL0     C33804   2.695   6.854   4.488 -0.8776  0.8340 -0.2154
  251MOL0     C33805   2.711   6.992   4.500  0.6334 -0.1830 -0.1238
  251MOL0     C33806   2.831   7.048   4.540  0.0044 -0.0902 -0.5525
  251MOL0     C33807   2.934   6.972   4.589 -0.7762 -0.0171  0.4833
  251MOL0     O33808   3.053   7.035   4.625 -1.0075  0.0766  0.5538
  251MOL0     C33809   3.101   7.118   4.521 -1.3722  0.1102 -0.3677
  251MOL0     C33810   3.243   7.149   4.555 -0.6111  1.0549  0.1088
  251MOL0     C33811   3.335   7.194   4.439 -0.9197 -0.1386  0.0361
  251MOL0     C33812   3.376   7.080   4.349  0.5467  0.3190  1.2433
  251MOL0     C33813   3.438   7.143   4.229 -0.3103  0.1687 -0.1224
  251MOL0     C33814   3.509   7.191   4.145  0.2978 -0.1600  0.5997
  251MOL0     C33815   2.920   6.833   4.589 -0.4021  0.3198  0.7546
  251MOL0     C33816   2.805   6.776   4.538  0.1337  0.6465  0.5416
  251MOL0     C33817   2.816   6.618   4.529  0.4977 -0.7113  0.8674
  251MOL0     H33818   2.504   6.532   4.187 -1.4307 -2.6103  0.0366
  251MOL0     H33819   2.323   6.433   4.107 -0.1348  0.3178  0.4076
  251MOL0     H33820   2.019   6.211   4.258 -0.0423 -0.3244 -0.6904
  251MOL0     H33821   2.161   6.234   4.165 -1.8078 -2.1994 -0.3411
  251MOL0     H33822   2.117   6.228   4.466  0.8217 -4.9200  2.5847
  251MOL0     H33823   2.274   6.287   4.398 -0.8624  1.6164 -0.7392
  251MOL0     H33824   2.175   5.995   4.357 -0.4613  0.6712 -0.1431
  251MOL0     H33825   2.277   6.037   4.494 -1.8513 -0.6991 -0.5088
  251MOL0     H33826   2.366   6.055   4.203  1.9362  0.2934 -0.0826
  251MOL0     H33827   2.449   6.116   4.334 -0.1093 -0.9302  0.6347
  251MOL0     H33828   2.432   5.896   4.458  1.2412 -2.5556 -0.1957
  251MOL0     H33829   2.343   5.831   4.324 -1.1721  0.2112  0.5314
  251MOL0     H33830   2.579   5.738   4.319 -2.0413 -0.6167  0.5602
  251MOL0     H33831   2.571   5.860   4.181  0.1942  0.6607 -0.1943
  251MOL0     H33832   2.640   5.948   4.443 -0.5989  0.0773 -0.4004
  251MOL0     H33833   2.697   6.017   4.288  0.1341  2.5006  2.8040
  251MOL0     H33834   2.886   5.900   4.430 -1.7593  0.2390  2.0852
  251MOL0     H33835   2.808   5.750   4.412  4.3453  0.4501  1.4752
  251MOL0     H33836   2.896   6.059   4.197  1.3955 -0.1097 -1.3617
  251MOL0     H33837   3.061   5.913   3.856 -0.4371 -0.3136 -0.1655
  251MOL0     H33838   2.992   6.068   3.911 -0.5021 -0.6447 -0.8909
  251MOL0     H33839   3.216   6.068   3.861  1.1636 -1.5638 -0.4013
  251MOL0     H33840   3.175   6.132   4.020  2.1112 -0.0470  0.4047
  251MOL0     H33841   3.286   5.845   3.990  0.7884  0.6460 -1.4650
  251MOL0     H33842   3.292   5.951   4.127 -0.9691 -0.9181 -0.2964
  251MOL0     H33843   3.438   6.110   4.024 -2.4820 -1.0736  1.2441
  251MOL0     H33844   3.441   6.032   3.869  0.2064 -0.0328 -0.7017
  251MOL0     H33845   3.701   5.787   4.171 -0.8618  0.2529 -1.9333
  251MOL0     H33846   3.942   5.864   4.230  1.9957  3.4287  1.5252
  251MOL0     H33847   4.319   5.813   4.291 -0.7053  0.5650  1.6543
  251MOL0     H33848   4.543   5.842   4.307 -0.8832 -1.6389 -0.6208
  251MOL0     H33849   4.752   6.255   4.294  0.5375 -0.7350 -0.3756
  251MOL0     H33850   4.705   6.182   4.446 -2.2536  3.7240 -2.2310
  251MOL0     H33851   4.939   6.208   4.452 -1.5144  1.0657  0.7342
  251MOL0     H33852   4.898   6.035   4.413  0.2930 -1.1572 -3.1811
  251MOL0     H33853   4.935   6.077   4.184 -1.3356 -0.6345  1.9836
  251MOL0     H33854   4.992   6.244   4.212  2.7264  2.1237  4.6703
  251MOL0     H33855   5.177   6.074   4.175  3.1846  1.0030 -0.1242
  251MOL0     H33856   5.140   6.009   4.331  1.2387 -0.3871 -1.2731
  251MOL0     H33857   5.147   6.244   4.413 -0.1363  2.0428 -0.2345
  251MOL0     H33858   5.222   6.298   4.256  0.5749 -0.8980 -0.0806
  251MOL0     H33859   5.394   6.129   4.277 -2.7291  0.7944 -1.6488
  251MOL0     H33860   5.425   6.270   4.379  2.3639 -1.8757  0.2920
  251MOL0     H33861   5.287   6.020   4.501  1.9212 -1.3504  2.8487
  251MOL0     H33862   5.332   6.171   4.573 -0.3427  0.2147 -0.2776
  251MOL0     H33863   5.546   6.134   4.531 -1.9062  0.8576  0.7679
  251MOL0     H33864   5.484   5.995   4.629  1.6846 -0.0304 -0.1874
  251MOL0     H33865   4.506   6.266   4.267  0.4663 -0.7613 -1.6297
  251MOL0     H33866   4.294   6.263   4.246  2.8890  1.4256  0.6394
  251MOL0     H33867   3.854   6.248   4.070 -0.4535  0.7665 -3.4650
  251MOL0     H33868   3.641   6.169   3.992  1.4313 -0.9548 -1.0648
  251MOL0     H33869   2.101   6.557   4.452  0.4099 -0.0413  0.6523
  251MOL0     H33870   2.330   6.670   4.538 -0.1879 -2.5387  1.8675
  251MOL0     H33871   2.635   7.068   4.486 -0.2056  0.1939  4.9200
  251MOL0     H33872   2.842   7.155   4.528 -2.3634 -0.0651 -4.3864
  251MOL0     H33873   3.048   7.214   4.520 -1.3477  0.1462  0.4920
  251MOL0     H33874   3.090   7.072   4.423 -0.1668 -3.3007  0.9523
  251MOL0     H33875   3.284   7.057   4.599 -0.9780  0.0752 -1.4997
  251MOL0     H33876   3.249   7.223   4.635  3.7870 -0.4591  1.5081
  251MOL0     H33877   3.427   7.238   4.478  0.9362  0.1923 -4.1484
  251MOL0     H33878   3.278   7.264   4.377 -1.1596  0.0147  0.4249
  251MOL0     H33879   3.446   7.017   4.405 -1.4090 -1.0534  2.2704
  251MOL0     H33880   3.283   7.039   4.308 -0.2380  2.4124  0.7964
  251MOL0     H33881   3.576   7.228   4.070  1.3310 -3.3815 -0.2370
  251MOL0     H33882   3.009   6.784   4.626  1.0831  1.3004 -1.3016
  251MOL0     H33883   2.918   6.584   4.551  1.1703  0.6543 -0.0059
  251MOL0     H33884   2.759   6.579   4.614 -0.5250  1.9670  1.5199
  251MOL0     H33885   2.798   6.571   4.432  2.4693 -2.3754  1.2328
  252MOL0     O33886   4.770   4.688   7.603 -0.3645  0.4149  0.6975
  252MOL0     C33887   4.822   4.681   7.490  0.8647 -0.0312  0.2170
  252MOL0     O33888   4.826   4.789   7.404 -0.6208  0.3318  0.0396
  252MOL0     C33889   4.791   4.919   7.434  0.5022 -0.6581 -0.9538
  252MOL0     C33890   4.705   4.965   7.539 -0.3353  0.4327 -0.2697
  252MOL0     C33891   4.681   5.099   7.561 -0.2322 -0.2677 -0.3809
  252MOL0     C33892   4.732   5.193   7.465  0.4555  0.2259 -0.1937
  252MOL0     O33893   4.703   5.327   7.469 -0.6062  0.3870 -0.1071
  252MOL0     C33894   4.656   5.397   7.585  0.4250 -0.0349 -0.9070
  252MOL0     C33895   4.714   5.538   7.555  0.2940  0.2027 -0.0524
  252MOL0     C33896   4.675   5.635   7.668 -0.5599  0.1595 -0.3314
  252MOL0     C33897   4.716   5.583   7.815  0.5734  0.2141  1.0397
  252MOL0     C33898   4.720   5.695   7.918  0.7098 -0.4895  0.2702
  252MOL0     C33899   4.823   5.652   8.024 -0.4154 -0.2386 -0.2346
  252MOL0     C33900   4.825   5.748   8.144 -0.1539 -0.4175 -0.0838
  252MOL0     C33901   4.884   5.888   8.111  0.0671  0.5019 -0.0752
  252MOL0     N33902   5.031   5.894   8.079  0.5858  0.1174 -0.0711
  252MOL0     C33903   5.122   5.979   8.135 -0.2116 -0.2532  0.6277
  252MOL0     C33904   5.241   5.954   8.067  0.3484 -0.5468 -0.3034
  252MOL0     C33905   5.370   6.024   8.096 -0.1010  0.2803 -0.6362
  252MOL0     C33906   5.492   5.950   8.053  0.0087  0.8777 -0.4164
  252MOL0     C33907   5.626   6.034   8.058  0.5938 -0.4049 -0.2205
  252MOL0     C33908   5.745   5.939   8.056  0.0654 -0.5354  0.8390
  252MOL0     O33909   5.746   5.858   7.942  0.0507 -0.2164 -0.2241
  252MOL0     C33910   5.812   5.907   7.837 -0.7844  0.2522  0.4065
  252MOL0     C33911   5.835   5.816   7.740 -0.9016  0.4881 -0.3244
  252MOL0     C33912   5.910   5.838   7.630  0.5156 -0.1800  0.3049
  252MOL0     C33913   5.961   5.969   7.611  0.3696  0.6377  0.2871
  252MOL0     C33914   6.020   6.011   7.488  0.2564 -0.4136  0.9567
  252MOL0     O33915   6.036   6.147   7.468  0.4945  0.0257 -0.0537
  252MOL0     C33916   6.066   6.202   7.346 -0.2975  0.7632 -0.0266
  252MOL0     C33917   6.118   6.140   7.235  0.0882 -0.0873  0.7263
  252MOL0     C33918   6.146   6.216   7.115  0.2823  0.0761  0.2669
  252MOL0     C33919   6.137   6.355   7.120 -1.1765  0.2789  0.6660
  252MOL0     O33920   6.193   6.420   7.006  0.5385 -0.1123 -0.4526
  252MOL0     C33921   6.236   6.554   7.028 -0.0471  0.4599 -0.3712
  252MOL0     C33922   6.138   6.669   6.990  0.5085  1.4978  0.1941
  252MOL0     C33923   6.102   6.650   6.841  0.7326 -0.4168 -0.6773
  252MOL0     C33924   6.039   6.781   6.797 -0.7921 -0.0399 -0.8867
  252MOL0     C33925   5.972   6.774   6.652 -0.3801 -0.8727  0.0438
  252MOL0     C33926   5.963   6.917   6.587  0.7737  0.1289  0.0697
  252MOL0     C33927   5.894   6.903   6.451  0.2717  0.9194  0.0242
  252MOL0     C33928   5.871   7.041   6.386 -0.2069 -0.0860 -0.0734
  252MOL0    Cl33929   5.736   7.048   6.270  0.3655 -0.2010 -0.0326
  252MOL0     C33930   6.071   6.416   7.227  0.0206 -0.2954  0.2210
  252MOL0     C33931   6.044   6.342   7.346  0.4188  0.0004 -0.9197
  252MOL0     O33932   6.035   5.922   7.403  0.3006 -0.0710 -1.0460
  252MOL0     C33933   5.936   6.062   7.710  0.5437 -0.0405  0.5829
  252MOL0     C33934   5.865   6.032   7.825  0.1562  0.2111 -0.2278
  252MOL0     N33935   5.207   5.867   7.962 -0.1377  0.6916 -0.4689
  252MOL0     N33936   5.085   5.834   7.969  0.2465  0.0870 -0.3799
  252MOL0     C33937   4.810   5.156   7.367 -0.3218  0.4029  0.3767
  252MOL0     C33938   4.844   5.012   7.354  0.1783  0.7937  0.6473
  252MOL0     C33939   4.888   4.560   7.440 -0.2366  0.5555  0.4565
  252MOL0     C33940   4.995   4.578   7.339  0.0257  0.6768  0.6066
  252MOL0     C33941   5.042   4.457   7.283  0.2216  0.4349 -0.5110
  252MOL0     C33942   5.002   4.330   7.329 -0.1690  0.1347  0.1309
  252MOL0     O33943   5.057   4.215   7.278  0.9096 -0.0216  0.3091
  252MOL0     C33944   5.198   4.202   7.278 -0.5766 -0.4342 -0.1149
  252MOL0     C33945   5.254   4.258   7.421 -0.6157 -0.0820 -0.6553
  252MOL0     C33946   5.395   4.193   7.444  1.8262  0.4570  0.0653
  252MOL0     C33947   5.428   4.212   7.588  0.1201  0.4589  0.2800
  252MOL0     C33948   5.557   4.149   7.617 -0.2594 -0.0402 -0.2330
  252MOL0     C33949   5.667   4.094   7.619  0.0263 -0.2198  0.5856
  252MOL0     C33950   4.909   4.313   7.442  0.1740 -0.5226  0.0926
  252MOL0     C33951   4.865   4.430   7.504  0.1522  0.5404  1.4746
  252MOL0     C33952   4.798   4.411   7.633 -0.7037 -0.0347  0.0782
  252MOL0     H33953   4.656   4.888   7.599  0.1966  1.2541  1.2839
  252MOL0     H33954   4.618   5.127   7.645  3.0356  1.6026  1.6681
  252MOL0     H33955   4.547   5.394   7.594  0.4440  1.6587  0.1378
  252MOL0     H33956   4.682   5.362   7.685 -2.3016  0.4508  0.0613
  252MOL0     H33957   4.670   5.574   7.461  0.2779 -2.3954 -1.1102
  252MOL0     H33958   4.823   5.545   7.546  0.2687 -0.4802 -1.0221
  252MOL0     H33959   4.570   5.666   7.669 -1.2697 -2.1073  0.1943
  252MOL0     H33960   4.734   5.724   7.644 -0.8022  0.4878  0.2807
  252MOL0     H33961   4.643   5.505   7.837 -3.2414  1.3313 -5.3077
  252MOL0     H33962   4.814   5.538   7.797 -1.0014 -1.7224 -4.7389
  252MOL0     H33963   4.736   5.791   7.868  0.5638  1.3283  3.4579
  252MOL0     H33964   4.620   5.708   7.961 -0.5402 -1.4748 -2.1500
  252MOL0     H33965   4.813   5.547   8.054  2.2167 -0.5467 -0.2643
  252MOL0     H33966   4.921   5.647   7.976 -1.9595  0.4872 -3.7644
  252MOL0     H33967   4.899   5.699   8.208  1.3810  0.2852 -1.2524
  252MOL0     H33968   4.727   5.752   8.193 -0.9920 -0.6136 -1.6851
  252MOL0     H33969   4.841   5.920   8.016  0.7186  1.0990 -0.1783
  252MOL0     H33970   4.855   5.953   8.194  2.2414  1.0070  0.3477
  252MOL0     H33971   5.103   6.040   8.223 -2.6530 -1.6834  1.2023
  252MOL0     H33972   5.364   6.126   8.056  1.3138 -0.0035 -1.6176
  252MOL0     H33973   5.373   6.036   8.205  1.1811  1.9553 -0.8232
  252MOL0     H33974   5.517   5.867   8.120  1.6737 -0.1861 -2.2162
  252MOL0     H33975   5.476   5.911   7.952  0.3844  2.3449 -1.0738
  252MOL0     H33976   5.623   6.087   8.153  0.0984 -3.0827  1.3413
  252MOL0     H33977   5.630   6.107   7.976  1.2038  1.3225  1.2873
  252MOL0     H33978   5.731   5.884   8.149  1.8141 -0.5361  1.1312
  252MOL0     H33979   5.843   5.984   8.071  0.6640 -0.9934 -1.2870
  252MOL0     H33980   5.781   5.722   7.749  2.8525 -1.8673 -0.6173
  252MOL0     H33981   5.924   5.764   7.551  1.8349  1.1889 -0.8001
  252MOL0     H33982   6.115   6.031   7.237 -2.7488 -0.1397  3.7460
  252MOL0     H33983   6.166   6.160   7.024 -1.5006  0.7057 -0.5611
  252MOL0     H33984   6.256   6.568   7.135  1.1701 -4.6414  0.3109
  252MOL0     H33985   6.330   6.571   6.976  0.4766 -0.8219  0.1119
  252MOL0     H33986   6.057   6.679   7.062 -1.1814  0.3991 -1.4688
  252MOL0     H33987   6.200   6.760   6.997 -0.7731  2.4748 -0.6470
  252MOL0     H33988   6.191   6.625   6.783  1.5023 -0.4242  0.4813
  252MOL0     H33989   6.022   6.575   6.837 -0.2631  0.3223  2.4749
  252MOL0     H33990   6.114   6.861   6.795  0.5407 -1.1473  1.0177
  252MOL0     H33991   5.958   6.797   6.868 -1.7117 -0.7391 -1.7609
  252MOL0     H33992   5.875   6.725   6.652 -1.0741  0.4226 -1.0555
  252MOL0     H33993   6.039   6.714   6.590 -0.9363 -1.2537 -0.1971
  252MOL0     H33994   5.899   6.987   6.641  1.0960  0.3864  0.1217
  252MOL0     H33995   6.065   6.955   6.575  2.0219 -2.4439  1.6743
  252MOL0     H33996   5.795   6.862   6.474  0.5452  1.4128  2.4543
  252MOL0     H33997   5.958   6.846   6.384 -1.3819  0.7679 -1.4934
  252MOL0     H33998   5.841   7.106   6.468  0.2277 -2.8479  2.4512
  252MOL0     H33999   5.974   7.068   6.359  1.2089  0.4330  4.9279
  252MOL0     H34000   6.061   6.524   7.228  1.2934 -0.1469  1.4832
  252MOL0     H34001   5.995   6.384   7.433  0.9278 -0.6466 -0.3042
  252MOL0     H34002   5.958   6.167   7.691  0.2310  0.2989  1.9854
  252MOL0     H34003   5.872   6.096   7.912 -2.1537 -2.0637  1.7822
  252MOL0     H34004   4.854   5.234   7.306  1.5151 -1.2499 -0.5263
  252MOL0     H34005   4.897   4.983   7.264  1.3523 -1.4362  1.9922
  252MOL0     H34006   5.014   4.676   7.296  0.4157  0.6838  0.7947
  252MOL0     H34007   5.115   4.458   7.203 -1.1576 -0.7770 -1.8340
  252MOL0     H34008   5.240   4.265   7.199 -0.0862 -1.0854 -0.3853
  252MOL0     H34009   5.229   4.099   7.263  1.7036 -0.5269  3.8465
  252MOL0     H34010   5.190   4.225   7.503  0.1623  0.3013  0.1272
  252MOL0     H34011   5.286   4.362   7.415 -0.6519 -0.0508 -0.3222
  252MOL0     H34012   5.476   4.236   7.385  2.4397 -0.8751 -0.1004
  252MOL0     H34013   5.385   4.084   7.438 -0.0852  0.3515  2.9949
  252MOL0     H34014   5.444   4.315   7.623  1.2092  1.2302 -2.2638
  252MOL0     H34015   5.342   4.171   7.643 -0.5659  1.8729  0.3081
  252MOL0     H34016   5.756   4.035   7.619  1.2175  1.4945 -0.0879
  252MOL0     H34017   4.900   4.210   7.475  0.8288 -0.8109 -0.5919
  252MOL0     H34018   4.857   4.454   7.715 -1.2641 -0.4502  0.7092
  252MOL0     H34019   4.696   4.452   7.630 -0.3728  0.7688 -2.6769
  252MOL0     H34020   4.779   4.310   7.669  1.1817  0.5755  3.2002
  253MOL0     O34021   5.714   4.745   6.354  0.4137  0.3498  0.1958
  253MOL0     C34022   5.668   4.847   6.408 -0.4481 -0.4917  0.3416
  253MOL0     O34023   5.547   4.867   6.431 -0.4042 -0.3659 -0.1664
  253MOL0     C34024   5.449   4.771   6.432 -1.0846  0.1842  0.9354
  253MOL0     C34025   5.353   4.777   6.334  0.1978 -0.0021  0.5868
  253MOL0     C34026   5.248   4.689   6.345 -0.0612 -0.2249 -0.3595
  253MOL0     C34027   5.231   4.593   6.445  0.3281  0.4031  0.7181
  253MOL0     O34028   5.119   4.505   6.460 -0.0175 -0.2171  0.5478
  253MOL0     C34029   5.023   4.493   6.356  0.7607  0.3446  1.4109
  253MOL0     C34030   4.929   4.370   6.378  0.4125 -0.5087  0.7965
  253MOL0     C34031   4.827   4.355   6.260  0.1571 -0.2913  0.2053
  253MOL0     C34032   4.842   4.231   6.173  0.2083  0.1352  0.4790
  253MOL0     C34033   4.759   4.229   6.041  0.0233  0.8060  0.7302
  253MOL0     C34034   4.775   4.101   5.950  0.2969  0.2656  0.0135
  253MOL0     C34035   4.924   4.070   5.926 -0.5329 -0.5192  0.0412
  253MOL0     C34036   5.007   4.168   5.837 -0.1016 -0.1779 -0.4978
  253MOL0     N34037   5.036   4.299   5.887 -0.8688  0.1699 -0.2948
  253MOL0     C34038   5.005   4.416   5.812  0.0195 -0.5434 -0.5258
  253MOL0     C34039   5.068   4.520   5.876 -0.1059 -0.5979  0.3714
  253MOL0     C34040   5.083   4.662   5.835  0.0514  0.1606 -0.8224
  253MOL0     C34041   4.961   4.715   5.757  0.5758 -0.6194 -0.3523
  253MOL0     C34042   4.968   4.869   5.761 -0.4463  0.3625  0.5440
  253MOL0     C34043   4.848   4.935   5.687 -0.2798  0.0886  0.0251
  253MOL0     O34044   4.724   4.920   5.757  0.3380  0.5184  0.9675
  253MOL0     C34045   4.609   4.972   5.713 -0.2051  0.0288 -0.0454
  253MOL0     C34046   4.487   4.964   5.788  0.4456  0.9488 -1.2913
  253MOL0     C34047   4.367   5.032   5.756 -0.1099  0.1569  0.1618
  253MOL0     C34048   4.369   5.126   5.652  0.8192  0.2439  0.6656
  253MOL0     C34049   4.238   5.193   5.611  0.4794  0.5906  0.5435
  253MOL0     O34050   4.119   5.143   5.666  0.4147  0.1804 -0.2299
  253MOL0     C34051   4.002   5.187   5.612 -0.1705  0.4334  0.6135
  253MOL0     C34052   3.951   5.314   5.644  0.4209 -0.2194 -0.8884
  253MOL0     C34053   3.822   5.346   5.618  0.0062 -0.0542 -0.2799
  253MOL0     C34054   3.749   5.269   5.524  0.1383 -0.2963  0.4758
  253MOL0     O34055   3.630   5.307   5.478 -0.1139 -1.0603  0.2100
  253MOL0     C34056   3.632   5.437   5.417 -0.2236 -0.4779 -0.1519
  253MOL0     C34057   3.513   5.472   5.327  0.6213  1.1020  0.6306
  253MOL0     C34058   3.391   5.445   5.412 -0.3446 -0.3155 -0.5468
  253MOL0     C34059   3.270   5.515   5.346  0.2742 -0.1515 -0.3851
  253MOL0     C34060   3.154   5.496   5.445 -0.3726 -0.3894  0.6521
  253MOL0     C34061   3.083   5.364   5.461 -0.0101 -1.4975 -0.6763
  253MOL0     C34062   2.948   5.367   5.525  0.6344 -0.4576  0.1477
  253MOL0     C34063   2.890   5.232   5.571  0.1431 -0.1214  1.0596
  253MOL0    Cl34064   2.834   5.129   5.439 -0.5337  0.1335 -0.5124
  253MOL0     C34065   3.803   5.141   5.480 -0.1664 -0.2490  0.5632
  253MOL0     C34066   3.921   5.105   5.526 -0.6587  0.8081 -0.0881
  253MOL0     O34067   4.238   5.269   5.516  0.5267 -0.3718  0.5007
  253MOL0     C34068   4.484   5.128   5.568 -0.0597 -0.5529  0.1569
  253MOL0     C34069   4.607   5.054   5.597 -0.5260  0.4336 -0.4259
  253MOL0     N34070   5.146   4.465   5.983 -0.0358  0.6636  0.4849
  253MOL0     N34071   5.124   4.334   5.988  0.2323 -1.0156  1.1161
  253MOL0     C34072   5.333   4.573   6.537  0.4390 -0.1781 -0.5498
  253MOL0     C34073   5.439   4.668   6.539  1.1523  0.3990 -0.6392
  253MOL0     C34074   5.754   4.969   6.437 -0.6799 -0.5391 -0.9236
  253MOL0     C34075   5.714   5.063   6.540 -0.5417 -0.9176  1.5897
  253MOL0     C34076   5.796   5.168   6.572 -0.2116 -0.7919 -0.6734
  253MOL0     C34077   5.924   5.183   6.506 -0.2726 -0.0279  0.3411
  253MOL0     O34078   6.011   5.282   6.540 -0.0868 -0.0096  0.9115
  253MOL0     C34079   5.970   5.406   6.595 -0.2300 -0.5637  0.4635
  253MOL0     C34080   6.057   5.514   6.541 -0.4979  0.2898  0.2320
  253MOL0     C34081   6.205   5.486   6.554  0.5527 -0.0612  0.2516
  253MOL0     C34082   6.296   5.616   6.534  1.2767  0.6291 -0.0577
  253MOL0     C34083   6.433   5.566   6.518 -0.1502  0.2313  0.4292
  253MOL0     C34084   6.548   5.516   6.513 -0.4756  0.2668 -0.1968
  253MOL0     C34085   5.957   5.101   6.405  0.2177  0.5487  0.5348
  253MOL0     C34086   5.874   4.993   6.368 -0.4972 -0.5342  0.4488
  253MOL0     C34087   5.917   4.922   6.244 -0.9498  0.0722  0.3550
  253MOL0     H34088   5.351   4.861   6.265 -1.3149  0.0775  0.6939
  253MOL0     H34089   5.171   4.692   6.268 -1.6007  1.1484  1.1486
  253MOL0     H34090   4.959   4.578   6.332 -3.6621 -2.8956  0.4255
  253MOL0     H34091   5.080   4.469   6.266 -0.0351  2.0967  0.3984
  253MOL0     H34092   4.880   4.397   6.472  1.0659 -0.4991  1.1391
  253MOL0     H34093   4.981   4.275   6.397  2.9424 -0.0298 -2.7952
  253MOL0     H34094   4.830   4.445   6.198 -3.5438 -0.2563 -0.1223
  253MOL0     H34095   4.725   4.351   6.298 -0.7440  1.9171 -1.7220
  253MOL0     H34096   4.949   4.221   6.155  1.2794  4.6332  2.9869
  253MOL0     H34097   4.822   4.139   6.230 -2.0978 -0.3957 -1.0515
  253MOL0     H34098   4.654   4.236   6.071 -0.1910 -1.5076  0.6573
  253MOL0     H34099   4.778   4.314   5.974 -5.3130  1.1630 -0.7519
  253MOL0     H34100   4.730   4.016   6.002 -1.1196  2.0029  1.7774
  253MOL0     H34101   4.711   4.102   5.861  0.7952 -2.8316 -0.4915
  253MOL0     H34102   4.933   3.971   5.881  0.0779 -1.6460  2.5384
  253MOL0     H34103   4.971   4.056   6.023  1.7216 -0.1526 -0.9499
  253MOL0     H34104   5.100   4.120   5.807  1.2954  0.7166  2.1458
  253MOL0     H34105   4.951   4.182   5.744  2.7549 -3.1997 -2.8993
  253MOL0     H34106   4.958   4.426   5.715 -2.7459  2.0491  0.9001
  253MOL0     H34107   5.088   4.721   5.927  1.2873  0.0749 -0.8199
  253MOL0     H34108   5.179   4.691   5.791  0.0306  0.8964 -0.3994
  253MOL0     H34109   4.959   4.675   5.656 -6.8295 -1.6733 -0.3673
  253MOL0     H34110   4.867   4.676   5.798  0.8964  0.8427  1.9520
  253MOL0     H34111   5.064   4.897   5.716 -0.8003 -2.8615 -2.6595
  253MOL0     H34112   4.976   4.890   5.868  1.0973 -4.1786  1.5726
  253MOL0     H34113   4.840   4.894   5.586 -1.7337  1.0634 -0.2947
  253MOL0     H34114   4.865   5.044   5.685  2.3928 -0.1542  2.0970
  253MOL0     H34115   4.496   4.908   5.880  1.6706  1.5009 -1.0470
  253MOL0     H34116   4.284   5.019   5.824 -0.1470  3.1670  0.8390
  253MOL0     H34117   4.009   5.391   5.694  0.7421 -0.1291 -1.3922
  253MOL0     H34118   3.784   5.443   5.651  1.2766 -0.4189  2.5485
  253MOL0     H34119   3.629   5.512   5.497 -2.0489  0.2886 -0.8882
  253MOL0     H34120   3.730   5.449   5.368  0.3097  1.8469  1.3301
  253MOL0     H34121   3.517   5.578   5.302 -3.4900  0.7944 -2.4674
  253MOL0     H34122   3.510   5.407   5.239 -0.8398 -1.2333  2.2726
  253MOL0     H34123   3.379   5.338   5.434 -2.2248 -0.4819 -2.1191
  253MOL0     H34124   3.410   5.487   5.511  2.9555 -2.5561 -0.0517
  253MOL0     H34125   3.253   5.465   5.251 -1.1145 -1.6189  0.5766
  253MOL0     H34126   3.293   5.622   5.345  2.1211 -0.4980  0.0401
  253MOL0     H34127   3.077   5.573   5.430  0.3177  0.8762  3.0212
  253MOL0     H34128   3.192   5.516   5.546 -0.0905 -0.2972  0.5313
  253MOL0     H34129   3.059   5.326   5.361 -0.2248 -0.6483 -0.9601
  253MOL0     H34130   3.155   5.300   5.513  0.5084  1.6151  2.8586
  253MOL0     H34131   2.877   5.417   5.458 -0.7332 -1.0045  1.1286
  253MOL0     H34132   2.961   5.437   5.609  0.9657  3.4147 -2.8708
  253MOL0     H34133   2.975   5.182   5.619  1.7554 -0.2066 -1.6800
  253MOL0     H34134   2.805   5.246   5.638 -0.7463  0.4276 -0.1433
  253MOL0     H34135   3.746   5.076   5.415 -2.0344  2.6136 -0.8446
  253MOL0     H34136   3.952   5.003   5.509 -1.3267 -0.3000  4.0978
  253MOL0     H34137   4.498   5.194   5.483  1.0323 -1.2802 -0.2429
  253MOL0     H34138   4.701   5.071   5.546 -0.2980 -0.8732 -0.4742
  253MOL0     H34139   5.316   4.500   6.616 -0.2835  0.5896  0.0269
  253MOL0     H34140   5.516   4.670   6.616  0.6934  0.8537 -0.1784
  253MOL0     H34141   5.616   5.056   6.586 -1.7353  0.7512 -0.5300
  253MOL0     H34142   5.765   5.239   6.648 -1.5381 -0.6362 -1.3211
  253MOL0     H34143   5.972   5.394   6.704  0.7187 -0.5830  0.4519
  253MOL0     H34144   5.871   5.440   6.563  0.9364  2.0933 -0.5973
  253MOL0     H34145   6.030   5.605   6.597 -3.6584 -0.2250 -0.2743
  253MOL0     H34146   6.030   5.535   6.437 -0.6352  1.8928  0.5573
  253MOL0     H34147   6.236   5.402   6.493 -0.6222 -0.5242  0.2654
  253MOL0     H34148   6.215   5.466   6.661 -1.0607  4.0019  1.3754
  253MOL0     H34149   6.261   5.676   6.450 -2.7439  0.3276  1.2202
  253MOL0     H34150   6.302   5.673   6.627  0.2839 -1.8089  1.6160
  253MOL0     H34151   6.636   5.456   6.523 -0.4376  0.3845  0.1660
  253MOL0     H34152   6.053   5.120   6.358  2.2364 -0.5317  3.8694
  253MOL0     H34153   5.976   4.834   6.272 -3.6131 -1.6056  1.0643
  253MOL0     H34154   5.828   4.888   6.190 -0.4507  3.4541 -3.0027
  253MOL0     H34155   5.968   4.993   6.178 -2.4221  1.2585  0.4258
  254MOL0     O34156   2.052   5.897  10.931  0.7785 -0.3530 -0.6488
  254MOL0     C34157   2.039   5.948  10.825  0.2538 -0.6285 -0.5273
  254MOL0     O34158   2.144   5.987  10.744  0.2809  0.0301 -0.3133
  254MOL0     C34159   2.258   6.041  10.789 -0.2399 -0.4172  0.7281
  254MOL0     C34160   2.306   6.064  10.916  0.4346  0.5718 -0.0680
  254MOL0     C34161   2.431   6.123  10.936  1.4106 -0.9462  0.0855
  254MOL0     C34162   2.504   6.180  10.829  0.8077  0.8727  0.0053
  254MOL0     O34163   2.615   6.257  10.849  0.6338  0.0315 -0.0774
  254MOL0     C34164   2.715   6.221  10.947  0.3113  0.6181 -0.3446
  254MOL0     C34165   2.854   6.229  10.887 -0.6740 -0.3898 -0.5993
  254MOL0     C34166   2.972   6.202  10.989 -0.1781  0.3598 -0.4616
  254MOL0     C34167   3.043   6.317  11.056  0.3657 -0.1867 -0.0247
  254MOL0     C34168   3.125   6.263  11.182  0.5661 -0.0819 -0.0253
  254MOL0     C34169   3.190   6.378  11.254 -0.0103  0.4776  0.6679
  254MOL0     C34170   3.281   6.324  11.362 -0.4157 -0.7024  0.3961
  254MOL0     C34171   3.375   6.427  11.419  1.1489  0.0674  0.1993
  254MOL0     N34172   3.324   6.549  11.479 -0.3873 -0.0970 -0.4177
  254MOL0     C34173   3.359   6.668  11.435  0.7159  0.2698 -1.2656
  254MOL0     C34174   3.292   6.757  11.517 -0.9331 -0.2980  0.2079
  254MOL0     C34175   3.291   6.903  11.504 -0.4976 -1.1264  0.1077
  254MOL0     C34176   3.324   6.964  11.643 -0.2322 -0.0363  0.2580
  254MOL0     C34177   3.470   6.933  11.689  0.9317 -0.5279  0.0773
  254MOL0     C34178   3.526   7.052  11.772  1.3848  0.7347  0.0490
  254MOL0     O34179   3.475   7.044  11.906  0.5742 -0.7505  0.1195
  254MOL0     C34180   3.552   7.093  12.006  0.0163  0.8969  1.1357
  254MOL0     C34181   3.504   7.070  12.138  0.2450  0.2085 -0.3869
  254MOL0     C34182   3.574   7.099  12.254  0.1646  0.5372 -1.1346
  254MOL0     C34183   3.713   7.142  12.239  0.0928 -0.2638  0.4848
  254MOL0     C34184   3.795   7.164  12.360 -0.6810 -0.5520 -0.1714
  254MOL0     O34185   3.931   7.169  12.338 -0.4251 -0.1069 -0.1912
  254MOL0     C34186   4.025   7.142  12.438  0.1880 -0.7673  0.2337
  254MOL0     C34187   4.136   7.216  12.428 -0.2636 -0.7493 -0.9851
  254MOL0     C34188   4.232   7.207  12.524  0.1628 -0.0904 -0.9398
  254MOL0     C34189   4.230   7.113  12.622 -0.5522  0.7259  0.2106
  254MOL0     O34190   4.355   7.106  12.691  0.3985 -0.0657 -0.4344
  254MOL0     C34191   4.355   7.019  12.810  0.6018 -0.6587 -0.0873
  254MOL0     C34192   4.258   7.074  12.920 -0.6946 -0.1113 -0.0682
  254MOL0     C34193   4.291   7.226  12.945  0.0180 -0.0129  1.1770
  254MOL0     C34194   4.203   7.278  13.059  0.6494 -0.5246  0.7648
  254MOL0     C34195   4.167   7.422  13.034 -0.1398 -0.4076 -0.4068
  254MOL0     C34196   4.282   7.504  13.009  0.2734  0.2044 -0.1791
  254MOL0     C34197   4.381   7.502  13.130  0.1515 -0.5871  0.1842
  254MOL0     C34198   4.455   7.629  13.140  0.3816 -0.3561 -0.5567
  254MOL0    Cl34199   4.340   7.755  13.205 -0.2511  0.2786 -0.3737
  254MOL0     C34200   4.132   7.015  12.616  0.1865 -0.4726 -0.5472
  254MOL0     C34201   4.028   7.030  12.526  0.0786 -1.0481  0.7073
  254MOL0     O34202   3.743   7.160  12.470  0.5753  0.2112  0.0458
  254MOL0     C34203   3.771   7.155  12.107  0.0499 -0.1565  0.1262
  254MOL0     C34204   3.684   7.132  11.993  1.0315 -0.2480  0.1821
  254MOL0     N34205   3.226   6.688  11.616 -0.1859 -0.2898  0.4902
  254MOL0     N34206   3.250   6.565  11.600  0.2134 -0.0964  0.2289
  254MOL0     C34207   2.459   6.155  10.699  0.5168 -0.0358 -0.2994
  254MOL0     C34208   2.336   6.084  10.684 -0.9170 -0.7833  0.2451
  254MOL0     C34209   1.899   5.952  10.761 -0.3775  0.6942 -0.2724
  254MOL0     C34210   1.797   5.889  10.844 -0.4036  0.5890 -0.5217
  254MOL0     C34211   1.665   5.901  10.799  0.2453 -1.1003  0.1687
  254MOL0     C34212   1.619   5.952  10.680 -0.1404  0.3615  1.2776
  254MOL0     O34213   1.493   5.971  10.634  0.1864 -0.4785 -0.2074
  254MOL0     C34214   1.394   5.980  10.741 -0.5591  0.5129 -0.8427
  254MOL0     C34215   1.258   6.024  10.691  0.0124  1.0957 -0.6662
  254MOL0     C34216   1.142   6.021  10.788 -0.5050  0.4702 -0.3355
  254MOL0     C34217   1.019   6.076  10.725  0.6102  0.0040 -0.3474
  254MOL0     C34218   1.019   6.218  10.768  0.0971  0.1180 -0.0825
  254MOL0     C34219   1.001   6.333  10.802 -0.2108  0.6652 -0.0811
  254MOL0     C34220   1.722   5.994  10.597  0.3574 -0.0009  0.3744
  254MOL0     C34221   1.863   5.992  10.634 -0.2229  0.4067  0.3453
  254MOL0     C34222   1.955   6.055  10.536  0.0562 -0.5945  0.3722
  254MOL0     H34223   2.253   6.033  11.006  1.4253 -0.7245  0.0908
  254MOL0     H34224   2.471   6.126  11.037 -3.5607 -1.6029  2.3694
  254MOL0     H34225   2.708   6.298  11.025 -1.4170 -0.3207  0.4767
  254MOL0     H34226   2.701   6.122  10.989  4.4457 -1.6397 -3.5303
  254MOL0     H34227   2.870   6.325  10.839 -2.8018  0.6403  0.5745
  254MOL0     H34228   2.848   6.161  10.801 -0.7814 -1.8241  0.4949
  254MOL0     H34229   3.041   6.125  10.953  0.3831 -0.4621  2.0857
  254MOL0     H34230   2.928   6.132  11.062  2.9498 -2.5233 -1.0691
  254MOL0     H34231   3.091   6.373  10.975  1.5944  0.0943  0.8788
  254MOL0     H34232   2.959   6.376  11.095 -1.8434 -2.0388 -1.6764
  254MOL0     H34233   3.050   6.214  11.245 -2.5357  1.9455 -1.8896
  254MOL0     H34234   3.200   6.196  11.138  0.3549  0.9173 -1.9888
  254MOL0     H34235   3.251   6.433  11.181 -1.0423 -0.2372 -0.7786
  254MOL0     H34236   3.117   6.442  11.304  0.2876  1.1080  0.3105
  254MOL0     H34237   3.337   6.233  11.337 -2.7012 -2.2879  0.7654
  254MOL0     H34238   3.219   6.295  11.447 -2.0036  0.1697 -0.4084
  254MOL0     H34239   3.414   6.378  11.508  0.2586  1.7927  1.5916
  254MOL0     H34240   3.450   6.449  11.343  0.2836  0.8803 -0.4417
  254MOL0     H34241   3.428   6.690  11.355  0.1580 -2.8472 -2.7543
  254MOL0     H34242   3.366   6.939  11.434 -1.4064 -3.1650 -2.0341
  254MOL0     H34243   3.194   6.939  11.469  0.3957  3.8930  1.9820
  254MOL0     H34244   3.323   7.073  11.630  0.9528  0.1539  1.5737
  254MOL0     H34245   3.255   6.935  11.723 -0.5003 -0.1417 -0.0077
  254MOL0     H34246   3.535   6.922  11.602  1.1541  0.4012  0.1185
  254MOL0     H34247   3.472   6.839  11.746  2.4275 -0.5166  0.0987
  254MOL0     H34248   3.501   7.152  11.736  1.1184  1.9308  3.2737
  254MOL0     H34249   3.634   7.043  11.763  1.7668  2.6198  1.9924
  254MOL0     H34250   3.410   7.016  12.151  1.3450 -1.9672 -1.0044
  254MOL0     H34251   3.542   7.093  12.357 -2.4802  2.3129 -1.7606
  254MOL0     H34252   4.152   7.292  12.353 -2.7138  1.8214  0.9055
  254MOL0     H34253   4.308   7.282  12.538 -0.4453  0.1819  1.3179
  254MOL0     H34254   4.336   6.916  12.780 -1.2990 -0.5380  0.5250
  254MOL0     H34255   4.452   7.020  12.859  0.8284  3.2373 -0.3000
  254MOL0     H34256   4.154   7.065  12.887 -0.5746  1.4125 -0.9577
  254MOL0     H34257   4.278   7.013  13.009  4.2475  0.7433 -0.3089
  254MOL0     H34258   4.397   7.237  12.969  0.5324  0.7283 -1.1465
  254MOL0     H34259   4.255   7.270  12.851 -1.3747 -3.6552 -0.1574
  254MOL0     H34260   4.250   7.262  13.156  1.5497 -1.3097  0.2313
  254MOL0     H34261   4.114   7.215  13.060  0.8097 -0.7393  1.6218
  254MOL0     H34262   4.108   7.472  13.112  2.3438 -1.2486  2.1872
  254MOL0     H34263   4.103   7.422  12.946 -0.1153  0.1514 -0.4295
  254MOL0     H34264   4.333   7.482  12.914  0.0391  0.9317 -0.4819
  254MOL0     H34265   4.246   7.606  12.996 -0.8130 -0.2122 -0.4818
  254MOL0     H34266   4.445   7.415  13.116  2.3026  0.9037  0.2657
  254MOL0     H34267   4.317   7.493  13.219 -3.5049  0.1000 -2.1653
  254MOL0     H34268   4.541   7.602  13.202 -1.1428 -0.1340  1.7839
  254MOL0     H34269   4.488   7.652  13.039 -2.9904 -0.3308 -1.7617
  254MOL0     H34270   4.129   6.937  12.692 -1.0596 -0.8360 -0.9407
  254MOL0     H34271   3.954   6.950  12.522 -0.2736 -0.6931 -0.0816
  254MOL0     H34272   3.868   7.199  12.087 -0.0039 -0.8470 -1.8829
  254MOL0     H34273   3.723   7.148  11.893 -2.2038 -0.6683 -1.2604
  254MOL0     H34274   2.515   6.190  10.613  2.1523 -0.3549  0.6025
  254MOL0     H34275   2.305   6.062  10.583 -0.1363 -1.2378  0.0968
  254MOL0     H34276   1.819   5.862  10.946 -0.4198 -0.5253 -0.8020
  254MOL0     H34277   1.601   5.864  10.878 -0.2678  0.6251  0.6092
  254MOL0     H34278   1.408   6.050  10.824  4.2489 -0.6992 -0.3262
  254MOL0     H34279   1.388   5.881  10.787 -1.6706  0.3507 -1.3125
  254MOL0     H34280   1.263   5.954  10.606  5.0064  1.3850 -0.9109
  254MOL0     H34281   1.275   6.128  10.661 -1.8853  1.7011  0.2228
  254MOL0     H34282   1.172   6.073  10.880  0.2758 -1.3594  0.4904
  254MOL0     H34283   1.121   5.917  10.815 -2.4986  0.7577 -0.6014
  254MOL0     H34284   1.026   6.059  10.618  0.8060 -1.4868 -0.1123
  254MOL0     H34285   0.928   6.027  10.760  1.5943 -1.1725  0.6561
  254MOL0     H34286   0.984   6.437  10.821 -4.5771 -0.4217  3.6784
  254MOL0     H34287   1.695   6.041  10.503  1.0455  1.9359  1.0912
  254MOL0     H34288   1.962   6.163  10.554 -3.8535  1.1852 -5.5911
  254MOL0     H34289   2.051   6.004  10.524 -0.7394 -2.1559  0.3355
  254MOL0     H34290   1.905   6.045  10.439 -1.2128  2.3382  0.6110
  255MOL0     O34291   9.472   8.703   9.294 -0.6750 -0.3684  1.1410
  255MOL0     C34292   9.391   8.725   9.381  0.1615  0.3366 -0.4258
  255MOL0     O34293   9.399   8.683   9.514  0.6739 -0.0758  0.1829
  255MOL0     C34294   9.508   8.607   9.544 -0.3771 -0.1798  0.6695
  255MOL0     C34295   9.622   8.668   9.603 -0.4454  0.8814  1.1476
  255MOL0     C34296   9.742   8.598   9.620 -0.4708 -0.8843  0.4430
  255MOL0     C34297   9.746   8.465   9.589 -0.5376 -0.8038  0.2916
  255MOL0     O34298   9.862   8.395   9.613 -0.4619  0.3777 -0.6129
  255MOL0     C34299   9.857   8.252   9.608 -0.6117  0.5116  0.4568
  255MOL0     C34300   9.793   8.182   9.733 -0.1586 -0.2642  0.6844
  255MOL0     C34301   9.875   8.217   9.853 -0.3290 -0.1994  0.6822
  255MOL0     C34302   9.854   8.112   9.962  0.4885 -0.6393 -0.5782
  255MOL0     C34303   9.928   8.155  10.089 -0.0540  0.9768 -0.4878
  255MOL0     C34304   9.942   8.028  10.173 -0.2953  0.2441  0.5041
  255MOL0     C34305  10.048   8.052  10.277 -0.3477  0.2119  0.2802
  255MOL0     C34306  10.048   7.930  10.359  0.3677  0.0485 -0.2396
  255MOL0     N34307  10.127   7.937  10.481  0.0749 -0.5236  0.4563
  255MOL0     C34308  10.264   7.940  10.489  0.1593 -0.1248  0.3237
  255MOL0     C34309  10.289   7.913  10.622  1.3501 -0.3477  0.6655
  255MOL0     C34310  10.413   7.918  10.695  0.3931  0.2701 -0.6251
  255MOL0     C34311  10.423   7.803  10.795  0.5243  0.0227 -0.4368
  255MOL0     C34312  10.563   7.804  10.863  0.8913  0.1559  0.0983
  255MOL0     C34313  10.597   7.706  10.976  0.3201 -0.9308  0.9040
  255MOL0     O34314  10.699   7.760  11.060  0.3190  0.0437 -0.2710
  255MOL0     C34315  10.835   7.750  11.028  0.3602 -0.4844  0.3614
  255MOL0     C34316  10.915   7.799  11.131 -0.1207  1.0326 -0.0391
  255MOL0     C34317  11.049   7.814  11.116  0.5692  0.3715  0.1875
  255MOL0     C34318  11.113   7.762  11.005  0.2471  0.1421  1.2120
  255MOL0     C34319  11.255   7.789  10.978 -0.6232  0.0978  0.3995
  255MOL0     O34320  11.311   7.886  11.070  0.0742 -0.1939 -0.0257
  255MOL0     C34321  11.448   7.922  11.060  0.6990  0.3126  0.2750
  255MOL0     C34322  11.486   8.033  11.122  0.5499  0.1650 -0.8633
  255MOL0     C34323  11.624   8.075  11.111  0.1382 -1.5286  0.2974
  255MOL0     C34324  11.721   8.000  11.041 -0.1046  0.2908  0.0263
  255MOL0     O34325  11.850   8.038  11.024  0.0002 -0.2850 -0.9499
  255MOL0     C34326  11.885   8.166  11.076  0.1703 -0.0559  0.0755
  255MOL0     C34327  12.020   8.211  11.007 -0.4388 -0.1406  1.2987
  255MOL0     C34328  12.058   8.354  11.015 -0.2936  0.2566  0.7427
  255MOL0     C34329  12.026   8.414  11.162  0.3420  0.3499  0.4105
  255MOL0     C34330  12.108   8.351  11.272  0.7640  0.4470  0.3941
  255MOL0     C34331  12.075   8.414  11.412  0.0754  0.3519  0.5522
  255MOL0     C34332  12.131   8.338  11.536  0.9433 -1.0857 -0.1858
  255MOL0     C34333  12.104   8.402  11.674 -0.0390  0.5103  0.8382
  255MOL0    Cl34334  12.196   8.556  11.722  0.1897  0.5133  0.0263
  255MOL0     C34335  11.681   7.879  10.986 -0.2060 -0.0244 -0.6913
  255MOL0     C34336  11.547   7.839  11.005  0.2143 -0.4130 -0.0311
  255MOL0     O34337  11.314   7.737  10.881  0.1682 -0.2486  0.0748
  255MOL0     C34338  11.038   7.711  10.900 -0.6259  0.4392 -0.2490
  255MOL0     C34339  10.893   7.711  10.908 -0.0354  0.0124 -0.4339
  255MOL0     N34340  10.168   7.877  10.679 -0.7221  0.8053 -0.1768
  255MOL0     N34341  10.075   7.901  10.601  0.4345  0.6146  0.5311
  255MOL0     C34342   9.625   8.407   9.536 -0.7272  1.0584 -0.5669
  255MOL0     C34343   9.513   8.472   9.517 -0.0421  0.0430 -0.0849
  255MOL0     C34344   9.260   8.788   9.335  0.5576 -0.8932 -0.3261
  255MOL0     C34345   9.225   8.786   9.195 -0.1158 -0.7061 -0.3091
  255MOL0     C34346   9.099   8.836   9.149 -0.7192 -0.2031 -1.2040
  255MOL0     C34347   9.006   8.882   9.241  0.1745 -0.3030  0.3484
  255MOL0     O34348   8.889   8.945   9.210  0.2021 -0.2028  0.6942
  255MOL0     C34349   8.812   8.898   9.097 -0.3412 -0.2298  0.5354
  255MOL0     C34350   8.661   8.907   9.135 -0.6064 -0.5897 -0.1956
  255MOL0     C34351   8.617   9.051   9.157  1.1638 -0.0633 -0.2710
  255MOL0     C34352   8.468   9.086   9.118 -0.3239 -0.7210  0.2098
  255MOL0     C34353   8.452   9.045   8.982 -0.2281 -0.0874  0.4886
  255MOL0     C34354   8.461   8.988   8.874 -0.1180  0.1766 -0.3523
  255MOL0     C34355   9.042   8.892   9.370 -0.5635  0.0066 -0.0188
  255MOL0     C34356   9.158   8.834   9.420 -0.6407 -0.5916  0.1509
  255MOL0     C34357   9.164   8.820   9.567 -0.1457  0.0726  0.5867
  255MOL0     H34358   9.619   8.772   9.633  0.8539  2.6890 -3.9129
  255MOL0     H34359   9.820   8.648   9.677  1.8584  0.0773 -3.2584
  255MOL0     H34360   9.822   8.208   9.514  3.0761 -1.3408 -0.2241
  255MOL0     H34361   9.963   8.226   9.605 -0.5975  0.6379 -0.9630
  255MOL0     H34362   9.803   8.075   9.717 -1.5198 -0.2700 -0.3445
  255MOL0     H34363   9.690   8.218   9.744  0.7656  2.1707  2.4512
  255MOL0     H34364   9.858   8.321   9.884 -1.7416 -0.5536  1.1726
  255MOL0     H34365   9.980   8.216   9.823 -0.4399  0.1766  0.2766
  255MOL0     H34366   9.744   8.106   9.968  0.5572 -2.3433 -0.4593
  255MOL0     H34367   9.892   8.017   9.922  1.3812  0.1728 -1.7092
  255MOL0     H34368  10.026   8.203  10.079  1.0478 -0.6436  1.7775
  255MOL0     H34369   9.856   8.217  10.143 -1.9445 -2.2653  0.9411
  255MOL0     H34370   9.847   8.013  10.224 -0.2580 -0.1119  0.4665
  255MOL0     H34371   9.958   7.935  10.119 -1.9615 -1.0171  2.0512
  255MOL0     H34372  10.028   8.141  10.338 -0.7841 -1.6395  2.9933
  255MOL0     H34373  10.147   8.055  10.230 -1.2165 -0.0020 -1.6650
  255MOL0     H34374   9.947   7.889  10.372 -0.8979  3.1022  0.4245
  255MOL0     H34375  10.099   7.858  10.294  1.3138  1.3644 -1.0098
  255MOL0     H34376  10.318   7.966  10.399 -2.1948 -1.2945 -1.5650
  255MOL0     H34377  10.501   7.920  10.630 -0.9614 -1.7193 -2.6812
  255MOL0     H34378  10.414   8.011  10.753  2.0714  0.6257 -1.1602
  255MOL0     H34379  10.353   7.830  10.875  1.5452 -0.5818  0.6881
  255MOL0     H34380  10.411   7.701  10.756  0.5286 -0.1876  0.1080
  255MOL0     H34381  10.575   7.905  10.902  0.5771 -0.4024  1.7571
  255MOL0     H34382  10.637   7.790  10.784  1.0150 -0.6270  0.3435
  255MOL0     H34383  10.617   7.606  10.938  0.5804 -0.2672 -0.8290
  255MOL0     H34384  10.513   7.700  11.045  1.9425 -2.6829  2.8230
  255MOL0     H34385  10.890   7.812  11.236  1.0323 -1.2795  0.6033
  255MOL0     H34386  11.110   7.867  11.188  0.6438  1.0836 -0.3838
  255MOL0     H34387  11.413   8.090  11.179 -0.0572 -0.8623 -0.5938
  255MOL0     H34388  11.642   8.163  11.172 -1.5762 -1.1699  0.3169
  255MOL0     H34389  11.805   8.238  11.058 -2.4777 -2.7146  0.4726
  255MOL0     H34390  11.888   8.153  11.185 -2.8702 -4.2847 -0.0807
  255MOL0     H34391  12.103   8.147  11.038  0.6125  0.0805 -0.9340
  255MOL0     H34392  12.006   8.200  10.899  0.6983  0.5687  1.0609
  255MOL0     H34393  12.167   8.353  11.001 -0.1084  1.8498  1.7324
  255MOL0     H34394  12.017   8.414  10.933 -3.3846 -0.1715  1.8561
  255MOL0     H34395  11.919   8.413  11.184  0.1823 -0.7336 -0.3213
  255MOL0     H34396  12.058   8.518  11.151 -3.0457  1.3591 -1.0783
  255MOL0     H34397  12.214   8.363  11.250  0.8703  0.6814  0.9974
  255MOL0     H34398  12.084   8.245  11.266 -1.5401  0.9766 -1.6689
  255MOL0     H34399  12.125   8.511  11.404  0.6132  0.2644  2.3749
  255MOL0     H34400  11.967   8.432  11.423 -0.9365 -4.2757  0.1984
  255MOL0     H34401  12.236   8.312  11.521  0.5746 -2.1831 -1.0361
  255MOL0     H34402  12.070   8.247  11.542 -0.8043  0.1296  2.2511
  255MOL0     H34403  11.997   8.424  11.684 -0.5592 -1.3778 -0.1987
  255MOL0     H34404  12.118   8.322  11.747 -0.9227 -0.1261  0.3390
  255MOL0     H34405  11.756   7.820  10.934 -1.0784 -1.9150  0.1017
  255MOL0     H34406  11.507   7.742  10.977 -0.6123  0.4937 -2.1713
  255MOL0     H34407  11.086   7.680  10.808  3.0977  0.6722  1.4256
  255MOL0     H34408  10.836   7.672  10.824 -0.5045  0.5242 -0.3583
  255MOL0     H34409   9.616   8.301   9.512  1.2235 -0.0580  2.9409
  255MOL0     H34410   9.426   8.417   9.480 -2.1231  2.0348  1.5786
  255MOL0     H34411   9.296   8.764   9.115  0.4145  0.2814 -0.1259
  255MOL0     H34412   9.063   8.844   9.046  0.0153  2.9166 -1.3067
  255MOL0     H34413   8.842   8.795   9.075  0.3993  0.2192 -0.6280
  255MOL0     H34414   8.830   8.965   9.012  0.1290 -1.7528 -0.6113
  255MOL0     H34415   8.649   8.845   9.225 -1.9055 -0.9013 -0.5691
  255MOL0     H34416   8.607   8.843   9.065  3.3654 -1.6489 -2.6016
  255MOL0     H34417   8.686   9.115   9.101  1.4557  0.0799  0.2474
  255MOL0     H34418   8.651   9.078   9.257  2.7253  1.3427 -1.1197
  255MOL0     H34419   8.391   9.046   9.184 -3.1224  4.7347  0.8414
  255MOL0     H34420   8.445   9.193   9.128  0.3345 -0.3423 -1.8503
  255MOL0     H34421   8.456   8.928   8.785 -0.1365  1.1473 -1.0180
  255MOL0     H34422   8.964   8.935   9.432 -2.6996  0.1490 -2.6154
  255MOL0     H34423   9.144   8.714   9.591 -2.0693  0.0728 -0.7635
  255MOL0     H34424   9.257   8.856   9.610  1.3327 -2.1762 -0.5557
  255MOL0     H34425   9.083   8.885   9.602  0.4311  1.5961 -0.8423
  256MOL0     O34426   7.100   2.438   3.836 -0.2723 -0.4696  0.4613
  256MOL0     C34427   7.076   2.429   3.959  0.3537 -0.4483 -0.7391
  256MOL0     O34428   7.119   2.327   4.037  0.3199  0.2232 -0.2237
  256MOL0     C34429   7.202   2.224   4.003 -0.6045  0.1686  0.0597
  256MOL0     C34430   7.264   2.172   4.119 -0.2599  0.3447  0.3455
  256MOL0     C34431   7.357   2.066   4.104 -0.0273  0.3165  0.5791
  256MOL0     C34432   7.399   2.008   3.976  0.6005 -1.1766 -0.3961
  256MOL0     O34433   7.490   1.910   3.951 -0.4338  0.2321  0.0454
  256MOL0     C34434   7.548   1.835   4.055 -0.1051  0.2284 -0.4609
  256MOL0     C34435   7.458   1.722   4.087  0.3476 -0.0059 -0.3116
  256MOL0     C34436   7.455   1.624   3.972  0.4459  0.1710 -0.0664
  256MOL0     C34437   7.366   1.508   4.018 -1.1820 -0.8763 -0.0287
  256MOL0     C34438   7.225   1.543   3.982  0.5582  0.1220  0.7432
  256MOL0     C34439   7.136   1.415   4.011 -0.5231 -0.0395  0.2612
  256MOL0     C34440   6.993   1.426   3.955 -0.2195 -0.6921  0.5781
  256MOL0     C34441   6.883   1.513   4.029  0.1083 -0.0253 -0.9049
  256MOL0     N34442   6.861   1.459   4.168 -0.4001  0.0959  0.1521
  256MOL0     C34443   6.767   1.372   4.219 -0.5340  0.9714  0.2031
  256MOL0     C34444   6.783   1.374   4.351  0.0496 -0.2069 -0.4494
  256MOL0     C34445   6.696   1.299   4.444  0.2291 -0.5106  0.1285
  256MOL0     C34446   6.779   1.193   4.524  0.5432  0.5740  0.4521
  256MOL0     C34447   6.804   1.067   4.451  0.1792 -1.2568  0.1341
  256MOL0     C34448   6.934   1.084   4.380 -0.1804  0.4685 -0.1807
  256MOL0     O34449   6.955   0.976   4.284  0.4868  0.3838 -0.3352
  256MOL0     C34450   7.044   0.997   4.182  0.0843  0.1657 -0.2198
  256MOL0     C34451   7.012   1.039   4.048 -0.5364 -0.0890 -0.6532
  256MOL0     C34452   7.117   1.075   3.961  0.5520  0.2605  0.2415
  256MOL0     C34453   7.254   1.046   3.992  0.1012 -0.1800 -0.0620
  256MOL0     C34454   7.359   1.089   3.901  0.4368  0.0731  0.1145
  256MOL0     O34455   7.488   1.118   3.948  0.7815 -0.1708 -0.1114
  256MOL0     C34456   7.583   1.182   3.869  0.0606  0.0543  0.2676
  256MOL0     C34457   7.714   1.141   3.892  0.6421  0.4861  0.3251
  256MOL0     C34458   7.812   1.168   3.799 -0.6533  0.5719 -0.6895
  256MOL0     C34459   7.784   1.241   3.691 -0.6980 -0.0960  0.2742
  256MOL0     O34460   7.890   1.257   3.613 -1.3620 -0.7455  0.5207
  256MOL0     C34461   7.887   1.318   3.488  0.4672  0.5742 -1.3007
  256MOL0     C34462   8.009   1.261   3.407  0.5734  0.0244  0.1766
  256MOL0     C34463   7.993   1.111   3.375 -0.4467 -0.1627 -0.2770
  256MOL0     C34464   8.104   1.066   3.286  0.2640  0.3998  0.9958
  256MOL0     C34465   8.065   1.052   3.129 -0.8901  0.0295 -0.9898
  256MOL0     C34466   8.193   1.057   3.040 -0.1737  0.0284  0.0293
  256MOL0     C34467   8.248   1.198   3.034 -0.3163 -0.2934 -0.7789
  256MOL0     C34468   8.398   1.207   3.025 -0.0535  0.5302  1.1671
  256MOL0    Cl34469   8.498   1.128   3.143 -0.1722  0.3323  0.0574
  256MOL0     C34470   7.654   1.294   3.668 -0.7312 -0.1826 -0.0805
  256MOL0     C34471   7.557   1.266   3.762 -0.6745  0.0479  0.2136
  256MOL0     O34472   7.324   1.098   3.782 -0.1337 -0.3448 -0.3862
  256MOL0     C34473   7.288   1.005   4.120 -0.5546 -0.2973 -0.1200
  256MOL0     C34474   7.179   0.985   4.209 -0.9199  0.1784 -0.5370
  256MOL0     N34475   6.888   1.457   4.380  0.4893  0.3009  0.3222
  256MOL0     N34476   6.928   1.514   4.267 -0.0526 -0.3869 -0.3851
  256MOL0     C34477   7.340   2.080   3.865  0.4025 -0.3210 -0.6822
  256MOL0     C34478   7.237   2.185   3.869  0.0158  0.2785 -1.1763
  256MOL0     C34479   7.008   2.544   4.031  0.0850 -0.4408  1.2177
  256MOL0     C34480   7.053   2.568   4.168  0.3895 -0.4593 -0.2811
  256MOL0     C34481   7.043   2.697   4.226  0.9619  0.7219 -1.0611
  256MOL0     C34482   6.967   2.796   4.173  0.0756 -0.2012  0.2903
  256MOL0     O34483   6.955   2.925   4.221  0.5255  0.2290  0.2561
  256MOL0     C34484   6.918   2.929   4.357 -0.0869  1.0657 -1.7021
  256MOL0     C34485   6.841   3.053   4.410  0.3231  0.4730  0.2235
  256MOL0     C34486   6.891   3.189   4.359  0.5960  0.3062 -1.1859
  256MOL0     C34487   7.043   3.212   4.370 -0.6677  0.8224  0.7922
  256MOL0     C34488   7.059   3.350   4.325  0.7590 -1.0147  0.0375
  256MOL0     C34489   7.062   3.473   4.311 -0.3169 -0.4604  0.7277
  256MOL0     C34490   6.934   2.781   4.033 -0.1945  0.1357  0.1526
  256MOL0     C34491   6.949   2.652   3.967 -1.2015  0.3656  0.3241
  256MOL0     C34492   6.891   2.637   3.825  0.1201 -0.2231  0.9699
  256MOL0     H34493   7.241   2.226   4.210  0.1607  1.4092 -0.1730
  256MOL0     H34494   7.391   2.021   4.196 -1.3084 -1.9527  0.0119
  256MOL0     H34495   7.646   1.794   4.031  0.3237 -0.1153  1.6689
  256MOL0     H34496   7.561   1.891   4.148 -0.6730 -1.2645  0.5691
  256MOL0     H34497   7.355   1.754   4.103  0.5057  0.0689  0.5618
  256MOL0     H34498   7.487   1.674   4.181 -1.1269 -0.8198 -0.2315
  256MOL0     H34499   7.552   1.589   3.938 -0.3825 -1.5398 -0.7731
  256MOL0     H34500   7.407   1.669   3.884  3.7759  1.0036 -1.6269
  256MOL0     H34501   7.383   1.412   3.967  1.8796 -0.9366  0.8710
  256MOL0     H34502   7.366   1.503   4.128 -2.0637  4.2338  0.4498
  256MOL0     H34503   7.196   1.623   4.051  0.4256 -0.4887  1.4177
  256MOL0     H34504   7.207   1.574   3.879  1.4907 -0.3353  0.4322
  256MOL0     H34505   7.193   1.333   3.966 -1.2028 -1.1228  1.2999
  256MOL0     H34506   7.124   1.388   4.116  0.4618  0.7356  0.5855
  256MOL0     H34507   6.932   1.336   3.952 -1.8240  0.3519 -1.1343
  256MOL0     H34508   7.005   1.464   3.853  0.3285 -0.6347  0.6608
  256MOL0     H34509   6.908   1.619   4.028  0.1665 -0.0120  0.3286
  256MOL0     H34510   6.790   1.505   3.971 -1.6914 -0.9092  1.8926
  256MOL0     H34511   6.703   1.309   4.158 -0.4533  1.4009 -0.3351
  256MOL0     H34512   6.646   1.381   4.496  0.7731  1.7766 -2.6760
  256MOL0     H34513   6.612   1.248   4.396 -1.1830  1.7478  0.0434
  256MOL0     H34514   6.869   1.236   4.569  1.2858  1.8824 -2.1408
  256MOL0     H34515   6.713   1.153   4.602  1.0568 -1.2191  0.0189
  256MOL0     H34516   6.729   1.060   4.371 -2.8351  3.4577  2.0736
  256MOL0     H34517   6.791   0.983   4.520  2.3609  0.2166  2.5108
  256MOL0     H34518   7.020   1.086   4.448 -0.3549  1.5155  0.0234
  256MOL0     H34519   6.944   1.178   4.325 -1.1723  1.1174  0.7112
  256MOL0     H34520   6.905   1.044   4.027 -0.5869  1.6963 -0.1119
  256MOL0     H34521   7.081   1.125   3.872 -1.8852  1.1891  1.6458
  256MOL0     H34522   7.737   1.078   3.977  0.6170 -0.0534 -0.0626
  256MOL0     H34523   7.908   1.124   3.826 -0.4418  1.4605  0.0988
  256MOL0     H34524   7.795   1.288   3.438 -1.2893 -1.7442  2.8464
  256MOL0     H34525   7.889   1.427   3.499 -3.1439  0.6277 -0.1059
  256MOL0     H34526   8.012   1.315   3.312 -0.0154 -0.6204 -0.2206
  256MOL0     H34527   8.096   1.279   3.472 -1.2731  1.9753  2.3225
  256MOL0     H34528   7.997   1.069   3.476 -0.2370  2.2369  0.7736
  256MOL0     H34529   7.898   1.082   3.330 -0.2136  0.7250 -1.3968
  256MOL0     H34530   8.138   0.968   3.322  0.0006 -0.1431 -0.1913
  256MOL0     H34531   8.193   1.127   3.306 -0.0239  0.9312  0.6902
  256MOL0     H34532   7.999   1.133   3.097  1.6804  2.3137 -0.9245
  256MOL0     H34533   8.013   0.957   3.118 -0.1411 -0.6151  0.7099
  256MOL0     H34534   8.262   0.981   3.078 -3.7029 -3.0077  0.9473
  256MOL0     H34535   8.165   1.023   2.939 -2.1889  1.6380 -0.0068
  256MOL0     H34536   8.215   1.249   3.125 -0.0785  0.2128 -0.9723
  256MOL0     H34537   8.205   1.250   2.948 -1.1019 -2.5801 -1.8373
  256MOL0     H34538   8.418   1.157   2.930 -0.6237  0.7004  0.9549
  256MOL0     H34539   8.425   1.313   3.021 -0.5623  0.7246  2.4631
  256MOL0     H34540   7.634   1.361   3.585 -0.5424  0.2188  0.1950
  256MOL0     H34541   7.457   1.308   3.756 -1.7622 -2.5032 -1.1977
  256MOL0     H34542   7.391   0.980   4.142 -0.6101  0.1570  0.6978
  256MOL0     H34543   7.219   0.950   4.303  3.6411  2.2578 -1.4510
  256MOL0     H34544   7.364   2.052   3.763 -1.9745  0.4760 -1.5415
  256MOL0     H34545   7.197   2.225   3.777 -2.0201  0.2578 -0.3664
  256MOL0     H34546   7.126   2.498   4.207  1.4944 -0.6537 -2.5416
  256MOL0     H34547   7.091   2.700   4.323 -2.4811  0.0192  0.8379
  256MOL0     H34548   7.001   2.923   4.428 -2.5206 -0.5120  1.2179
  256MOL0     H34549   6.853   2.844   4.380  2.5777 -0.6775 -0.0516
  256MOL0     H34550   6.832   3.057   4.519 -2.1917 -3.0078  0.3289
  256MOL0     H34551   6.739   3.042   4.372  0.7453 -0.4550 -0.6815
  256MOL0     H34552   6.845   3.276   4.406 -2.6683 -0.9795 -1.7447
  256MOL0     H34553   6.869   3.215   4.255 -0.8413  5.3625  0.1316
  256MOL0     H34554   7.090   3.196   4.468 -0.0208 -2.2324  0.0796
  256MOL0     H34555   7.081   3.148   4.290 -2.2823 -0.1639  0.7798
  256MOL0     H34556   7.076   3.579   4.301 -2.2958  0.3437  4.5246
  256MOL0     H34557   6.895   2.862   3.971 -1.0105 -1.4967 -1.5482
  256MOL0     H34558   6.796   2.689   3.810 -0.2612 -1.2737 -0.4066
  256MOL0     H34559   6.956   2.680   3.748 -1.6666  0.4096 -0.2563
  256MOL0     H34560   6.880   2.530   3.803 -1.0020 -0.5757  3.0191
  257MOL0     O34561  10.170   6.464   4.044 -0.2563  0.9735  0.0742
  257MOL0     C34562  10.071   6.436   4.112 -0.5685  0.8152 -0.1713
  257MOL0     O34563   9.942   6.485   4.094  0.0512 -0.2038 -0.1557
  257MOL0     C34564   9.928   6.584   3.998 -1.8350 -0.0705 -0.1021
  257MOL0     C34565   9.964   6.568   3.861  0.4991  0.2698 -0.4879
  257MOL0     C34566   9.947   6.659   3.759  0.1115  0.2167 -0.6545
  257MOL0     C34567   9.910   6.781   3.801  0.9534 -0.9446  0.3066
  257MOL0     O34568   9.897   6.887   3.714 -0.5136 -0.0741  1.0116
  257MOL0     C34569   9.988   6.893   3.598  0.0466 -0.6532 -0.3560
  257MOL0     C34570   9.954   7.006   3.515  0.2066  0.4878 -0.5189
  257MOL0     C34571  10.052   7.024   3.403 -0.1159 -0.9902  0.5402
  257MOL0     C34572  10.003   7.130   3.307 -0.3484  0.1632  0.3766
  257MOL0     C34573  10.090   7.145   3.182  0.5087 -0.3396 -0.1156
  257MOL0     C34574  10.231   7.169   3.223  0.1317  0.1026 -0.5806
  257MOL0     C34575  10.329   7.208   3.116  0.7911 -0.2416  0.0546
  257MOL0     C34576  10.475   7.186   3.144  0.0382  0.0144 -0.6808
  257MOL0     N34577  10.511   7.052   3.146 -0.1270 -0.8466  0.2009
  257MOL0     C34578  10.541   6.989   3.265  1.9358  0.3096  0.3138
  257MOL0     C34579  10.564   6.862   3.240 -0.6989 -0.3010 -0.2149
  257MOL0     C34580  10.601   6.757   3.334 -0.1953  1.0618  0.9135
  257MOL0     C34581  10.634   6.617   3.273  0.0676  0.3953 -1.0942
  257MOL0     C34582  10.646   6.501   3.372 -0.2672 -0.6148 -0.3997
  257MOL0     C34583  10.790   6.478   3.418 -0.2207 -0.6675 -0.1941
  257MOL0     O34584  10.858   6.599   3.458  0.2168  0.1002 -1.1522
  257MOL0     C34585  10.833   6.650   3.583 -0.8005 -0.3829 -0.5352
  257MOL0     C34586  10.901   6.769   3.609  1.2883  0.3714 -0.2580
  257MOL0     C34587  10.863   6.839   3.725  0.0099  0.0875 -0.3896
  257MOL0     C34588  10.773   6.794   3.815 -0.2584 -0.8253 -1.3236
  257MOL0     C34589  10.752   6.865   3.939  1.0466  0.0885 -0.5335
  257MOL0     O34590  10.682   6.790   4.042 -0.2020 -0.2225  0.2489
  257MOL0     C34591  10.674   6.840   4.171  0.7658 -0.2388 -0.0935
  257MOL0     C34592  10.765   6.923   4.239  0.0561 -0.7744  0.1337
  257MOL0     C34593  10.750   6.964   4.375 -0.9081 -0.4965 -0.6478
  257MOL0     C34594  10.640   6.924   4.453  0.3368  0.1040  0.1183
  257MOL0     O34595  10.623   6.958   4.585  0.0120 -0.4870 -0.3447
  257MOL0     C34596  10.596   7.100   4.606 -0.4742 -0.0717  0.5128
  257MOL0     C34597  10.551   7.136   4.743  0.1706 -0.3770 -0.0492
  257MOL0     C34598  10.490   7.278   4.755  0.1942  0.5877 -0.4810
  257MOL0     C34599  10.447   7.300   4.903  0.3581  0.1198  0.5904
  257MOL0     C34600  10.349   7.419   4.901 -0.0532 -0.6733 -0.3545
  257MOL0     C34601  10.314   7.485   5.039  0.1764 -0.2374  0.1839
  257MOL0     C34602  10.241   7.382   5.125  0.3075 -0.6160 -0.3203
  257MOL0     C34603  10.179   7.454   5.249 -0.8684  0.4664  0.5150
  257MOL0    Cl34604  10.299   7.556   5.329  0.2463 -0.1100 -0.0030
  257MOL0     C34605  10.553   6.840   4.383  0.3853  0.3044  0.3953
  257MOL0     C34606  10.571   6.814   4.242  0.5376  0.0128 -1.3809
  257MOL0     O34607  10.808   6.977   3.956 -0.1938  0.0868  0.2689
  257MOL0     C34608  10.705   6.675   3.792 -0.5788 -0.4280 -0.3260
  257MOL0     C34609  10.737   6.607   3.676 -0.1308  0.1589  0.1373
  257MOL0     N34610  10.558   6.846   3.105  0.0018 -0.2507  0.3278
  257MOL0     N34611  10.536   6.961   3.042 -0.2802  0.4872 -0.1712
  257MOL0     C34612   9.868   6.812   3.931 -1.6281 -0.2437  0.1917
  257MOL0     C34613   9.890   6.710   4.030  0.0991  0.9611  0.5998
  257MOL0     C34614  10.064   6.322   4.209  0.1861 -1.3071 -0.0490
  257MOL0     C34615   9.949   6.294   4.279  0.2597  0.7220  0.5215
  257MOL0     C34616   9.940   6.197   4.377 -0.0016  0.0245 -0.2735
  257MOL0     C34617  10.053   6.131   4.416 -0.6780  0.2424 -0.0663
  257MOL0     O34618  10.057   6.030   4.507 -0.2677 -0.6355  1.0224
  257MOL0     C34619   9.943   6.004   4.583  0.1331  0.8879 -0.3377
  257MOL0     C34620   9.959   5.879   4.677 -1.0447  0.0460  0.2234
  257MOL0     C34621  10.039   5.931   4.798  0.5113  0.4390  0.2929
  257MOL0     C34622  10.042   5.835   4.915 -0.0329 -0.7912  0.1487
  257MOL0     C34623   9.924   5.828   4.994  0.4810  0.1568 -1.2385
  257MOL0     C34624   9.830   5.826   5.071  0.1276 -0.2718  1.1059
  257MOL0     C34625  10.171   6.156   4.348  0.1852  0.1337 -0.0568
  257MOL0     C34626  10.177   6.256   4.257  1.4410 -0.6953 -0.9341
  257MOL0     C34627  10.320   6.283   4.219 -0.3976 -0.5317 -0.2679
  257MOL0     H34628  10.003   6.473   3.827  0.9562  0.7835 -1.4185
  257MOL0     H34629   9.961   6.629   3.655  3.3281  2.8622 -1.1345
  257MOL0     H34630  10.085   6.904   3.647 -0.3470 -0.9053  0.5014
  257MOL0     H34631   9.981   6.807   3.531 -1.2738  0.5232 -1.7990
  257MOL0     H34632   9.947   7.096   3.576  0.1178 -0.4905  0.9532
  257MOL0     H34633   9.854   7.006   3.471  1.0188  1.6638 -2.5010
  257MOL0     H34634  10.071   6.928   3.354  2.9537  0.0921 -0.6588
  257MOL0     H34635  10.144   7.069   3.443  0.2883 -2.0091  0.7888
  257MOL0     H34636   9.905   7.098   3.270 -1.5263 -0.4661  3.6919
  257MOL0     H34637  10.001   7.221   3.368  0.9651  0.5530 -0.1235
  257MOL0     H34638  10.065   7.069   3.107 -1.1123 -1.0912  1.1065
  257MOL0     H34639  10.051   7.242   3.150 -2.0963 -0.7078  1.5605
  257MOL0     H34640  10.218   7.242   3.304 -1.3374  0.0111 -0.7127
  257MOL0     H34641  10.279   7.086   3.276  2.4516 -0.3015 -3.0860
  257MOL0     H34642  10.308   7.312   3.091  0.5116 -0.2921  0.0699
  257MOL0     H34643  10.301   7.148   3.029 -3.0693 -2.9487  2.8195
  257MOL0     H34644  10.540   7.248   3.083 -1.4733  0.3688 -2.0170
  257MOL0     H34645  10.495   7.219   3.246  2.1116 -2.4494 -0.1847
  257MOL0     H34646  10.532   7.028   3.366  1.5665 -1.7229  1.1222
  257MOL0     H34647  10.690   6.803   3.378  0.1130  3.2430 -1.7649
  257MOL0     H34648  10.524   6.746   3.411 -2.5187 -0.6721 -1.5045
  257MOL0     H34649  10.547   6.593   3.212 -2.2668  2.5562  1.1553
  257MOL0     H34650  10.726   6.623   3.213  0.7649  0.8707 -0.0093
  257MOL0     H34651  10.615   6.407   3.325 -3.1173  0.3501 -0.6291
  257MOL0     H34652  10.580   6.521   3.456 -0.8979 -2.3494 -0.4334
  257MOL0     H34653  10.853   6.430   3.343  2.5281 -0.9777  2.1273
  257MOL0     H34654  10.790   6.412   3.505 -2.8192  1.4754  1.6032
  257MOL0     H34655  10.968   6.822   3.543  2.3163 -0.0966  0.3686
  257MOL0     H34656  10.919   6.932   3.728  0.3356 -0.1361  1.2812
  257MOL0     H34657  10.848   6.968   4.184  1.4827 -1.1298  1.8983
  257MOL0     H34658  10.824   7.033   4.415 -1.7590  1.5396 -2.3920
  257MOL0     H34659  10.694   7.149   4.598  1.2232 -2.9491  1.9781
  257MOL0     H34660  10.524   7.137   4.533 -0.3971  1.7887  1.3198
  257MOL0     H34661  10.473   7.060   4.750  1.8981 -2.6368 -2.9096
  257MOL0     H34662  10.625   7.120   4.822 -1.0088  0.0749  1.1891
  257MOL0     H34663  10.567   7.356   4.745  1.9756 -0.2714  4.0352
  257MOL0     H34664  10.406   7.289   4.686  0.8828  0.1302 -1.4095
  257MOL0     H34665  10.539   7.315   4.961  0.0190 -1.4440  1.5847
  257MOL0     H34666  10.393   7.215   4.945  0.1408 -0.3654 -0.6347
  257MOL0     H34667  10.258   7.379   4.856 -0.7004 -0.7791  1.0004
  257MOL0     H34668  10.387   7.507   4.848  1.0517 -0.5759  0.5408
  257MOL0     H34669  10.403   7.518   5.094 -0.4712  1.1705  0.4373
  257MOL0     H34670  10.252   7.573   5.018  0.9228  0.4071  0.6234
  257MOL0     H34671  10.313   7.308   5.162 -0.5589 -0.6144  1.4849
  257MOL0     H34672  10.162   7.326   5.075 -2.8058  0.7112  2.6789
  257MOL0     H34673  10.096   7.523   5.230  0.6350  1.7761 -1.7105
  257MOL0     H34674  10.148   7.378   5.322  1.2443 -0.1357  0.8434
  257MOL0     H34675  10.459   6.813   4.431  0.5183  0.2948  0.6543
  257MOL0     H34676  10.489   6.770   4.187 -0.8117 -1.4144  1.5601
  257MOL0     H34677  10.623   6.637   3.851 -1.6084  2.9258  0.6353
  257MOL0     H34678  10.682   6.517   3.648 -2.4632  2.3767 -3.0516
  257MOL0     H34679   9.834   6.909   3.968 -0.3250  1.5033 -2.8832
  257MOL0     H34680   9.882   6.738   4.134 -0.1481 -0.1614  0.9034
  257MOL0     H34681   9.861   6.349   4.248 -0.5441  0.4627  2.2355
  257MOL0     H34682   9.851   6.172   4.434 -0.1143  1.1876  0.1039
  257MOL0     H34683   9.865   5.977   4.511  2.0996  0.0585 -2.2298
  257MOL0     H34684   9.909   6.095   4.634  0.7951  0.4326  0.9812
  257MOL0     H34685  10.018   5.804   4.622  2.1985  2.6473 -0.1909
  257MOL0     H34686   9.870   5.821   4.702  0.2303 -1.6515  1.0926
  257MOL0     H34687   9.993   6.028   4.822  0.9339  0.8800 -0.6513
  257MOL0     H34688  10.141   5.954   4.767  0.1553  2.2577  0.3495
  257MOL0     H34689  10.052   5.730   4.886 -3.1808 -1.0240 -0.5206
  257MOL0     H34690  10.128   5.868   4.974 -0.6760 -2.6843  2.2864
  257MOL0     H34691   9.760   5.828   5.152  1.2051  2.3558  2.0691
  257MOL0     H34692  10.257   6.093   4.364  0.7094  0.1770 -2.3430
  257MOL0     H34693  10.390   6.240   4.291 -2.1308  3.0934  4.0202
  257MOL0     H34694  10.338   6.235   4.122  0.8509  2.0246 -1.3828
  257MOL0     H34695  10.346   6.388   4.206  0.7162 -0.3669  2.6448
  258MOL0     O34696   3.613   9.659   5.349 -0.0951  0.8930 -0.5616
  258MOL0     C34697   3.554   9.770   5.352 -0.3517 -0.5245 -0.0123
  258MOL0     O34698   3.471   9.814   5.256  0.7012  0.1039  0.2925
  258MOL0     C34699   3.415   9.697   5.197 -0.0306 -0.3954  0.5650
  258MOL0     C34700   3.302   9.646   5.247 -0.8242 -0.5238 -0.2887
  258MOL0     C34701   3.251   9.522   5.197 -0.2097 -0.8603 -0.1531
  258MOL0     C34702   3.310   9.450   5.092 -0.4007  0.0260 -0.5916
  258MOL0     O34703   3.260   9.323   5.059 -0.6957 -0.1806  0.1046
  258MOL0     C34704   3.314   9.261   4.945  0.0010  0.4280 -0.1173
  258MOL0     C34705   3.258   9.122   4.925 -0.2825  0.2064 -0.0357
  258MOL0     C34706   3.116   9.104   4.957 -0.4969  0.8016  0.3149
  258MOL0     C34707   3.039   9.183   4.857  0.1555 -0.2499  1.0310
  258MOL0     C34708   2.890   9.152   4.878  0.9349  0.3681 -0.3778
  258MOL0     C34709   2.810   9.199   4.758 -0.2837 -1.4198  0.1785
  258MOL0     C34710   2.659   9.210   4.776 -0.3354 -0.7522  0.1302
  258MOL0     C34711   2.583   9.199   4.640 -0.4468  0.1923 -0.1414
  258MOL0     N34712   2.562   9.327   4.566 -0.5268  0.5095 -0.1287
  258MOL0     C34713   2.623   9.385   4.453 -0.0624  0.9547  1.0623
  258MOL0     C34714   2.558   9.501   4.437  0.8505 -0.4626  0.1280
  258MOL0     C34715   2.586   9.577   4.313  0.1061 -0.0988 -0.2320
  258MOL0     C34716   2.503   9.702   4.296  0.8472  0.0530 -0.5698
  258MOL0     C34717   2.536   9.816   4.390 -0.7347 -0.0020  0.1782
  258MOL0     C34718   2.428   9.920   4.364  0.3519  0.5509  0.1146
  258MOL0     O34719   2.439  10.033   4.453 -0.0214  0.1214  0.2620
  258MOL0     C34720   2.404  10.014   4.590 -1.1566 -0.2159 -0.3610
  258MOL0     C34721   2.405  10.128   4.672  0.5541  0.2145  0.7199
  258MOL0     C34722   2.372  10.109   4.809  0.8821 -1.7152  0.0324
  258MOL0     C34723   2.327   9.988   4.868 -0.2099  0.6234 -0.3992
  258MOL0     C34724   2.281   9.980   5.012 -0.3868  0.1269  0.6165
  258MOL0     O34725   2.228   9.858   5.057 -0.5355  0.4304  0.2564
  258MOL0     C34726   2.226   9.820   5.190  0.4813  0.0482  0.5029
  258MOL0     C34727   2.328   9.858   5.276  0.0807 -0.2269  0.0527
  258MOL0     C34728   2.322   9.810   5.411  0.0625 -0.5574 -0.3694
  258MOL0     C34729   2.206   9.756   5.455 -0.8951 -0.0592 -0.2397
  258MOL0     O34730   2.197   9.727   5.590  0.6491 -0.3260  0.6973
  258MOL0     C34731   2.236   9.585   5.617 -0.8034  0.9016 -0.1096
  258MOL0     C34732   2.232   9.554   5.760  0.4422 -0.3513 -0.8416
  258MOL0     C34733   2.145   9.435   5.812  0.3914  0.2197  0.3647
  258MOL0     C34734   2.186   9.293   5.774  0.9638 -0.3383  0.2681
  258MOL0     C34735   2.064   9.192   5.814 -0.7218  0.7621  0.8831
  258MOL0     C34736   1.945   9.199   5.713  0.9450 -1.1847  0.1068
  258MOL0     C34737   1.827   9.112   5.759 -0.1393  0.1086  0.1148
  258MOL0     C34738   1.858   8.964   5.738  0.4355  0.5581  1.0317
  258MOL0    Cl34739   1.711   8.872   5.779  0.1898 -0.0138 -0.7781
  258MOL0     C34740   2.093   9.735   5.370  0.7784  1.0735  0.1526
  258MOL0     C34741   2.107   9.752   5.236  0.1868 -0.1892  0.0155
  258MOL0     O34742   2.296  10.078   5.084  0.5895 -0.0057  0.5609
  258MOL0     C34743   2.320   9.885   4.780 -0.4091  1.0105  0.1610
  258MOL0     C34744   2.357   9.901   4.644 -0.5429  0.8942  0.1047
  258MOL0     N34745   2.483   9.525   4.550 -0.0784  0.7810  0.3978
  258MOL0     N34746   2.483   9.420   4.622 -0.0585 -0.7733  0.1099
  258MOL0     C34747   3.429   9.515   5.034 -0.2452  0.5271  0.0603
  258MOL0     C34748   3.477   9.634   5.084 -0.6858 -0.8377 -0.9770
  258MOL0     C34749   3.610   9.870   5.451 -0.0747 -0.3637  0.3866
  258MOL0     C34750   3.712   9.830   5.538  0.2106  0.1903  0.4927
  258MOL0     C34751   3.748   9.907   5.648  0.3099  1.4069  0.3464
  258MOL0     C34752   3.688  10.026   5.679  1.1150  0.0785 -0.2843
  258MOL0     O34753   3.747  10.100   5.777 -0.2673  0.1908  0.3702
  258MOL0     C34754   3.691  10.224   5.803 -0.9582  0.2567 -0.9052
  258MOL0     C34755   3.794  10.302   5.892 -0.3590 -0.1201 -1.1563
  258MOL0     C34756   3.925  10.326   5.807  0.2131 -0.4093  0.7114
  258MOL0     C34757   4.027  10.425   5.872  0.6378 -0.6754 -0.8996
  258MOL0     C34758   3.975  10.542   5.945  0.1538  0.7418 -0.3959
  258MOL0     C34759   3.941  10.636   6.010  0.8903 -0.4788  0.7219
  258MOL0     C34760   3.571  10.061   5.603  0.0198 -0.6459  0.3664
  258MOL0     C34761   3.535   9.983   5.491  0.3214  0.1214 -0.1634
  258MOL0     C34762   3.391  10.024   5.438  0.2335 -0.1535 -0.1930
  258MOL0     H34763   3.250   9.698   5.326  0.0131  0.5553 -0.4286
  258MOL0     H34764   3.165   9.469   5.236 -0.4470 -1.5893 -1.5835
  258MOL0     H34765   3.301   9.329   4.860 -1.2708  0.0203 -0.2633
  258MOL0     H34766   3.423   9.250   4.956 -0.1173  1.0138  2.3075
  258MOL0     H34767   3.313   9.056   4.994 -2.0079  0.7101  1.9322
  258MOL0     H34768   3.277   9.089   4.823 -0.2495 -0.3159  0.1384
  258MOL0     H34769   3.096   9.133   5.061 -1.0249  1.5018  0.0319
  258MOL0     H34770   3.108   8.996   4.951  2.3324  0.5911 -1.8036
  258MOL0     H34771   3.042   9.292   4.870  0.9293 -0.0329 -0.6580
  258MOL0     H34772   3.077   9.156   4.758 -1.4195  0.3376  0.2235
  258MOL0     H34773   2.869   9.047   4.901 -1.1718  0.0768 -3.1679
  258MOL0     H34774   2.858   9.221   4.957 -1.5891  1.8685 -2.5519
  258MOL0     H34775   2.862   9.291   4.730  1.9854 -2.0135  2.1610
  258MOL0     H34776   2.825   9.122   4.682  0.0348 -0.0242 -1.2377
  258MOL0     H34777   2.635   9.305   4.823  0.4475  0.7466 -2.3139
  258MOL0     H34778   2.628   9.120   4.831  1.0799 -2.7763 -2.1392
  258MOL0     H34779   2.637   9.133   4.572  0.6205  0.9793 -0.0775
  258MOL0     H34780   2.485   9.155   4.658 -1.6394  1.6386 -2.6696
  258MOL0     H34781   2.705   9.350   4.390  1.6136  3.1020  1.8994
  258MOL0     H34782   2.689   9.605   4.333 -0.7406  2.0484  1.5270
  258MOL0     H34783   2.572   9.508   4.228 -3.1222  0.3155 -0.1597
  258MOL0     H34784   2.504   9.734   4.191 -1.0282  2.9944  0.1812
  258MOL0     H34785   2.403   9.662   4.318 -0.2171  1.8634 -1.7437
  258MOL0     H34786   2.625   9.871   4.357 -1.8460  2.4906  1.0446
  258MOL0     H34787   2.540   9.793   4.497 -3.9634 -0.0882  0.3749
  258MOL0     H34788   2.333   9.869   4.377  0.2798 -0.0933 -2.4481
  258MOL0     H34789   2.443   9.966   4.266 -0.9224  2.1548  0.6356
  258MOL0     H34790   2.435  10.222   4.626 -1.9961  0.5168 -0.5367
  258MOL0     H34791   2.384  10.197   4.871  2.2384 -2.0681  0.3029
  258MOL0     H34792   2.413   9.911   5.236  1.1384 -2.3438 -0.6285
  258MOL0     H34793   2.408   9.842   5.469 -0.5812  1.0320 -0.2281
  258MOL0     H34794   2.166   9.520   5.564 -1.5207  0.8578  0.8654
  258MOL0     H34795   2.337   9.562   5.581  0.5122  2.0051  2.6106
  258MOL0     H34796   2.334   9.540   5.797 -0.6952 -0.1013  2.7604
  258MOL0     H34797   2.184   9.634   5.816  0.0041  0.7665 -2.7123
  258MOL0     H34798   2.151   9.444   5.921  0.5457 -0.7452  0.4435
  258MOL0     H34799   2.039   9.461   5.808 -0.3031 -1.7292  2.9158
  258MOL0     H34800   2.278   9.269   5.828 -0.3440  0.0100  2.8022
  258MOL0     H34801   2.206   9.291   5.667 -0.9623  0.5407 -0.1622
  258MOL0     H34802   2.034   9.212   5.917 -1.6061  1.9288  0.4171
  258MOL0     H34803   2.103   9.090   5.799 -1.3865  1.0057 -4.9841
  258MOL0     H34804   1.910   9.302   5.715  0.8925 -1.1917 -0.3358
  258MOL0     H34805   1.977   9.183   5.610  1.8667 -2.7769  0.6080
  258MOL0     H34806   1.732   9.130   5.709 -1.0333 -1.9130  0.9960
  258MOL0     H34807   1.804   9.120   5.865 -2.2653 -0.4758 -0.2634
  258MOL0     H34808   1.878   8.942   5.633 -2.9653  0.7407  0.2412
  258MOL0     H34809   1.944   8.929   5.797  0.6008  1.0292  1.0761
  258MOL0     H34810   2.003   9.693   5.416  1.8510 -0.2566  1.1258
  258MOL0     H34811   2.019   9.731   5.176  0.9940 -3.5354 -0.2185
  258MOL0     H34812   2.268   9.795   4.810 -0.6348  0.1894 -2.4841
  258MOL0     H34813   2.332   9.813   4.585 -0.1149  0.1402  1.0223
  258MOL0     H34814   3.500   9.478   4.962  0.8050  2.1062  0.2229
  258MOL0     H34815   3.569   9.679   5.047  1.6680 -4.9129 -0.7460
  258MOL0     H34816   3.780   9.749   5.516  0.6532 -0.0546  2.6232
  258MOL0     H34817   3.844   9.892   5.696 -0.7068 -0.4315  1.9472
  258MOL0     H34818   3.600  10.215   5.863  1.1944 -1.6427  2.3972
  258MOL0     H34819   3.687  10.284   5.712  0.4913 -0.3342 -1.3817
  258MOL0     H34820   3.819  10.243   5.980 -0.5497  0.4641 -0.7061
  258MOL0     H34821   3.747  10.396   5.924  0.2010 -0.0165 -0.6051
  258MOL0     H34822   3.902  10.372   5.711  2.4653 -2.2973 -0.8525
  258MOL0     H34823   3.969  10.226   5.799 -2.6609 -2.1351  3.6647
  258MOL0     H34824   4.085  10.368   5.945 -0.7629 -2.0561 -0.8194
  258MOL0     H34825   4.100  10.454   5.796  0.8532  4.5004  0.8921
  258MOL0     H34826   3.912  10.720   6.070  3.6894  0.6528  0.6334
  258MOL0     H34827   3.519  10.152   5.632  1.3003  0.7251 -1.4032
  258MOL0     H34828   3.408  10.058   5.336  0.7205 -2.9830 -1.1634
  258MOL0     H34829   3.323   9.939   5.453  1.3110 -0.8514  0.9334
  258MOL0     H34830   3.348  10.108   5.494  3.9644  1.2361  0.8696
  259MOL0     O34831   0.079   0.783   4.978  0.7846 -0.5678 -0.3100
  259MOL0     C34832   0.184   0.832   5.022  0.1059  0.5272 -0.0024
  259MOL0     O34833   0.279   0.760   5.099 -0.2474  0.0342 -1.2386
  259MOL0     C34834   0.293   0.626   5.101  1.2637 -0.3705  0.0370
  259MOL0     C34835   0.292   0.559   5.221 -0.8378  1.2335 -0.4035
  259MOL0     C34836   0.303   0.417   5.225  1.2509  0.7366 -0.5417
  259MOL0     C34837   0.314   0.348   5.104 -0.0021  0.1610 -1.0789
  259MOL0     O34838   0.333   0.219   5.107  0.6055  0.7542  0.2714
  259MOL0     C34839   0.219   0.140   5.071  0.3547  0.1236  0.9889
  259MOL0     C34840   0.236   0.054   4.942  0.5973 -0.2147  0.7462
  259MOL0     C34841   0.339  -0.050   4.965 -0.7006  0.1209  0.4638
  259MOL0     C34842   0.405  -0.094   4.832  0.2282 -0.1817  0.7919
  259MOL0     C34843   0.525  -0.182   4.856 -0.1350  0.2677  0.2461
  259MOL0     C34844   0.646  -0.138   4.952  0.0911  0.1328  1.4973
  259MOL0     C34845   0.625  -0.203   5.082 -0.0207 -0.0376  0.1118
  259MOL0     C34846   0.752  -0.196   5.171 -0.0757  0.5407 -0.0609
  259MOL0     N34847   0.789  -0.068   5.228  0.7626 -0.6588  0.4187
  259MOL0     C34848   0.826   0.047   5.146  0.0382 -0.0432  0.3820
  259MOL0     C34849   0.871   0.130   5.238 -0.1239  0.0668 -1.1576
  259MOL0     C34850   0.913   0.260   5.212  0.4414 -0.0091  0.6762
  259MOL0     C34851   0.802   0.376   5.218  0.0034 -0.0623  1.0520
  259MOL0     C34852   0.700   0.391   5.099 -0.7471  0.8670 -0.1712
  259MOL0     C34853   0.624   0.518   5.092 -0.7277 -0.5502  0.1040
  259MOL0     O34854   0.718   0.633   5.076 -0.0748 -0.1785 -0.0990
  259MOL0     C34855   0.686   0.751   5.024 -0.0642 -0.0618  0.3034
  259MOL0     C34856   0.793   0.834   5.054 -0.9980  0.8955 -0.2667
  259MOL0     C34857   0.783   0.969   5.027 -0.1088 -0.3056 -0.0931
  259MOL0     C34858   0.667   1.014   4.959  0.4271  0.3066  0.3085
  259MOL0     C34859   0.665   1.164   4.927 -0.3992  1.3149 -0.9321
  259MOL0     O34860   0.775   1.239   4.949  1.0475  0.5446  0.1289
  259MOL0     C34861   0.768   1.373   4.921  0.5607 -0.4834 -0.9945
  259MOL0     C34862   0.754   1.425   4.793  0.8428  0.8828 -1.0823
  259MOL0     C34863   0.760   1.561   4.771  0.0202  0.3585  0.1610
  259MOL0     C34864   0.811   1.652   4.869  0.0680  1.0372  0.9381
  259MOL0     O34865   0.819   1.787   4.833  0.2584  0.7849 -0.2441
  259MOL0     C34866   0.840   1.883   4.937 -0.1045 -0.1535  0.5433
  259MOL0     C34867   0.818   2.017   4.866  0.4844  0.3698  0.1485
  259MOL0     C34868   0.670   2.047   4.836  0.0425 -0.7332  0.3556
  259MOL0     C34869   0.656   2.194   4.777  0.6030 -0.0822 -0.1946
  259MOL0     C34870   0.658   2.303   4.888  0.0016  0.9530  0.3516
  259MOL0     C34871   0.617   2.433   4.835 -0.4634 -0.0871 -0.0149
  259MOL0     C34872   0.475   2.441   4.762 -0.2128 -0.1428 -0.4338
  259MOL0     C34873   0.443   2.592   4.729 -0.1074  0.9988  0.2690
  259MOL0    Cl34874   0.437   2.697   4.875  0.0497 -0.3914 -0.3892
  259MOL0     C34875   0.829   1.593   4.992 -0.1442  0.3135  0.0648
  259MOL0     C34876   0.807   1.461   5.021  0.0719 -0.1040 -1.0354
  259MOL0     O34877   0.561   1.211   4.888 -0.2162  0.1735  0.0135
  259MOL0     C34878   0.556   0.925   4.924  0.6120 -0.3520 -0.8543
  259MOL0     C34879   0.564   0.790   4.965 -1.0478 -0.4498 -0.5254
  259MOL0     N34880   0.861   0.080   5.365 -0.1055 -0.8880 -0.1080
  259MOL0     N34881   0.813  -0.045   5.358 -0.2575 -0.4113  0.1670
  259MOL0     C34882   0.312   0.416   4.981 -0.1453 -0.8418 -0.0396
  259MOL0     C34883   0.302   0.555   4.984 -0.2609  0.7622 -0.3633
  259MOL0     C34884   0.202   0.980   5.029 -0.0938  0.4558  0.5422
  259MOL0     C34885   0.267   1.042   5.139 -0.0742 -0.1437  0.0636
  259MOL0     C34886   0.279   1.180   5.153  0.1530  0.7235  0.3244
  259MOL0     C34887   0.230   1.259   5.045  0.2209  0.2918  0.0329
  259MOL0     O34888   0.253   1.395   5.050 -0.0739 -0.6128 -0.6332
  259MOL0     C34889   0.382   1.422   5.013 -0.0155 -0.4725 -0.3167
  259MOL0     C34890   0.397   1.577   5.032 -0.7189 -0.1638  0.2766
  259MOL0     C34891   0.327   1.652   4.913 -0.0165 -1.2510  0.1895
  259MOL0     C34892   0.333   1.792   4.963  0.2611  0.3955  0.0739
  259MOL0     C34893   0.311   1.876   4.848 -0.7152  0.6019  0.2211
  259MOL0     C34894   0.314   1.936   4.742 -0.4774 -0.0035  0.2649
  259MOL0     C34895   0.167   1.195   4.935  0.5455  0.2416 -0.3969
  259MOL0     C34896   0.153   1.062   4.924 -0.3665 -0.3419 -0.2038
  259MOL0     C34897   0.107   1.014   4.795 -0.6858 -0.7797  0.1740
  259MOL0     H34898   0.290   0.613   5.315  0.8731 -2.6927  2.1896
  259MOL0     H34899   0.307   0.355   5.314  1.8447  0.3293 -0.8403
  259MOL0     H34900   0.197   0.071   5.153 -2.8317  0.2991  0.4241
  259MOL0     H34901   0.136   0.209   5.055 -0.5472 -1.0130  0.6281
  259MOL0     H34902   0.253   0.121   4.857  0.5026 -0.9684  0.1205
  259MOL0     H34903   0.143   0.011   4.903  0.1990  2.2374 -1.2485
  259MOL0     H34904   0.285  -0.134   5.009  1.6823 -0.9677  1.4651
  259MOL0     H34905   0.417  -0.005   5.027 -2.9537  0.2337  3.4655
  259MOL0     H34906   0.318  -0.131   4.778 -0.1643  0.5744  0.8857
  259MOL0     H34907   0.452  -0.008   4.783  0.8632 -1.4363 -0.8782
  259MOL0     H34908   0.491  -0.280   4.890  1.5015 -0.2555  0.4728
  259MOL0     H34909   0.568  -0.187   4.755  0.7144  3.1121  0.3847
  259MOL0     H34910   0.740  -0.169   4.905 -0.0136 -0.4314  1.6528
  259MOL0     H34911   0.650  -0.029   4.959 -0.8651  0.1542  1.8305
  259MOL0     H34912   0.604  -0.309   5.066 -3.6888 -0.2021  4.2172
  259MOL0     H34913   0.528  -0.177   5.125 -1.2349 -0.9343 -1.9336
  259MOL0     H34914   0.737  -0.261   5.258 -0.6748  0.9226  0.1275
  259MOL0     H34915   0.836  -0.238   5.114 -2.1274 -4.1958 -0.0680
  259MOL0     H34916   0.844   0.060   5.040  1.2317 -2.8766  0.1590
  259MOL0     H34917   0.992   0.285   5.284  1.9665 -2.5305 -0.0173
  259MOL0     H34918   0.947   0.265   5.108 -1.2905  0.1734  0.0793
  259MOL0     H34919   0.740   0.346   5.303 -0.5535  0.7157  0.9366
  259MOL0     H34920   0.852   0.473   5.229  1.7173 -0.6372 -1.0598
  259MOL0     H34921   0.641   0.300   5.106  2.5108 -1.5406 -1.3725
  259MOL0     H34922   0.752   0.381   5.003 -1.3958  2.1600 -0.6765
  259MOL0     H34923   0.568   0.538   5.184  0.7479  0.3261  0.8642
  259MOL0     H34924   0.556   0.502   5.008 -1.2916 -0.8504  0.6154
  259MOL0     H34925   0.875   0.793   5.112 -0.9095  2.4365  0.7649
  259MOL0     H34926   0.862   1.033   5.066 -1.9823  0.1441  3.4002
  259MOL0     H34927   0.738   1.348   4.718 -2.1725 -0.1346  0.4742
  259MOL0     H34928   0.749   1.611   4.675  3.0939  1.4186  0.2406
  259MOL0     H34929   0.764   1.870   5.014 -4.0629 -0.3883 -2.9971
  259MOL0     H34930   0.942   1.883   4.977  0.1768 -0.0436 -0.1464
  259MOL0     H34931   0.864   2.089   4.934 -0.5989  3.6793 -2.3712
  259MOL0     H34932   0.876   2.005   4.774 -0.6267 -1.0613 -0.4072
  259MOL0     H34933   0.638   1.976   4.759 -0.4939 -2.3849  2.0300
  259MOL0     H34934   0.606   2.026   4.922 -0.8027  2.9547  0.7713
  259MOL0     H34935   0.559   2.200   4.728 -0.6982  4.1861  2.3667
  259MOL0     H34936   0.739   2.222   4.712 -1.1748  1.5310 -1.8516
  259MOL0     H34937   0.759   2.312   4.928  0.1310  1.0518  0.0086
  259MOL0     H34938   0.587   2.262   4.960  0.9234 -2.4591 -0.5248
  259MOL0     H34939   0.606   2.486   4.930  0.0878  0.7647 -0.4162
  259MOL0     H34940   0.692   2.481   4.771 -0.5968  1.0442  0.6498
  259MOL0     H34941   0.399   2.396   4.825  0.0487  0.4349  0.3047
  259MOL0     H34942   0.480   2.395   4.663 -1.2836 -0.0185 -0.5605
  259MOL0     H34943   0.517   2.628   4.657 -0.1748  0.9043  0.1539
  259MOL0     H34944   0.346   2.593   4.680 -0.4222  0.1010  0.8459
  259MOL0     H34945   0.864   1.656   5.074 -0.5501  1.8974 -0.9289
  259MOL0     H34946   0.827   1.414   5.118  1.0330 -1.9061 -2.0437
  259MOL0     H34947   0.461   0.957   4.882  0.9902 -1.6715 -2.7865
  259MOL0     H34948   0.489   0.712   4.958 -0.6139 -1.4535  3.4644
  259MOL0     H34949   0.317   0.370   4.883 -2.8852  1.2539 -1.2854
  259MOL0     H34950   0.295   0.609   4.890 -3.3028 -0.0041 -0.6989
  259MOL0     H34951   0.309   0.981   5.218 -0.4609 -1.1962 -0.5220
  259MOL0     H34952   0.338   1.221   5.234  3.5152  1.4204 -2.2695
  259MOL0     H34953   0.401   1.397   4.908 -3.1563 -0.9084 -0.8858
  259MOL0     H34954   0.457   1.375   5.078  1.6125  4.1746  1.5267
  259MOL0     H34955   0.505   1.591   5.026 -0.7979  0.2361 -0.2949
  259MOL0     H34956   0.355   1.606   5.129 -0.2065 -0.2174  0.5165
  259MOL0     H34957   0.224   1.617   4.908 -0.1514 -1.1418  1.8271
  259MOL0     H34958   0.378   1.641   4.816 -0.2916  0.2792 -0.1427
  259MOL0     H34959   0.257   1.805   5.041  1.1709 -0.0471  1.0744
  259MOL0     H34960   0.432   1.808   5.008 -0.1359  0.6700  0.8657
  259MOL0     H34961   0.319   1.991   4.651 -0.4683  0.2154  0.3973
  259MOL0     H34962   0.136   1.262   4.855 -0.2796 -0.0407 -0.3183
  259MOL0     H34963   0.156   1.065   4.712 -0.3704 -0.3095  0.6425
  259MOL0     H34964   0.134   0.909   4.778  0.0024 -0.4880 -0.5802
  259MOL0     H34965  -0.000   1.029   4.782 -0.2964 -0.8864 -4.7641
  260MOL0     O34966   2.416   5.871   5.617  0.6738  0.3790  0.5374
  260MOL0     C34967   2.516   5.810   5.620  0.4102 -0.1413 -0.1288
  260MOL0     O34968   2.607   5.815   5.721 -0.2698 -0.2051  0.7016
  260MOL0     C34969   2.579   5.878   5.832 -0.5029  0.1567 -1.3862
  260MOL0     C34970   2.648   5.991   5.878 -0.3470  0.8318 -0.5205
  260MOL0     C34971   2.619   6.047   6.002 -0.0046 -0.1481 -0.2281
  260MOL0     C34972   2.525   5.992   6.088  0.0311 -0.7444 -0.3256
  260MOL0     O34973   2.517   6.046   6.216 -0.4754  0.0551 -0.3151
  260MOL0     C34974   2.395   6.040   6.288  0.0962 -0.2380  0.4796
  260MOL0     C34975   2.307   6.160   6.273 -0.4125  0.2659 -0.3603
  260MOL0     C34976   2.388   6.289   6.299 -0.0689  0.3009 -0.2288
  260MOL0     C34977   2.312   6.414   6.280 -0.1266 -0.5923  0.4899
  260MOL0     C34978   2.413   6.541   6.301  0.8020  0.2418 -0.8543
  260MOL0     C34979   2.332   6.672   6.303  0.1278 -0.2505  0.7814
  260MOL0     C34980   2.412   6.804   6.283 -0.2247  0.4746  0.0953
  260MOL0     C34981   2.338   6.919   6.353 -1.1382 -0.0543  0.6254
  260MOL0     N34982   2.395   7.052   6.313  0.0704  0.0315  0.9422
  260MOL0     C34983   2.404   7.093   6.181  1.1370  1.0034  0.0874
  260MOL0     C34984   2.463   7.213   6.190 -0.2605 -0.3803 -0.2491
  260MOL0     C34985   2.470   7.294   6.069  0.3274  0.1678 -0.3837
  260MOL0     C34986   2.576   7.409   6.075  0.0605  0.2824  0.4011
  260MOL0     C34987   2.623   7.446   5.930 -0.0356  0.3332  0.0757
  260MOL0     C34988   2.729   7.349   5.873 -0.9355 -0.4876  0.2975
  260MOL0     O34989   2.859   7.351   5.938 -0.1439 -0.1509 -0.9847
  260MOL0     C34990   2.969   7.352   5.854 -0.0174  0.1880 -0.2553
  260MOL0     C34991   2.995   7.443   5.757 -0.0107 -0.6545  0.4545
  260MOL0     C34992   3.114   7.447   5.681 -0.0632 -1.0448 -0.7168
  260MOL0     C34993   3.208   7.350   5.705  0.1222  1.0197 -0.2048
  260MOL0     C34994   3.322   7.341   5.601  0.8016 -1.1183  0.0462
  260MOL0     O34995   3.344   7.448   5.530 -0.1370  0.5842 -0.0184
  260MOL0     C34996   3.435   7.440   5.429  0.5453 -0.8428  0.3642
  260MOL0     C34997   3.571   7.489   5.447  0.5323  0.0904 -0.1066
  260MOL0     C34998   3.666   7.478   5.342 -0.3314 -0.0114 -0.9168
  260MOL0     C34999   3.637   7.409   5.222  0.8475 -0.0565 -0.7059
  260MOL0     O35000   3.726   7.392   5.124 -0.1004 -0.3527  0.7030
  260MOL0     C35001   3.853   7.454   5.122 -0.4259  0.3750 -0.3180
  260MOL0     C35002   3.836   7.592   5.070 -0.0604 -0.6620 -1.2811
  260MOL0     C35003   3.960   7.679   5.062 -0.3926  0.1157  0.2177
  260MOL0     C35004   4.001   7.766   5.184  0.4078  0.2316  0.9821
  260MOL0     C35005   4.073   7.691   5.288 -0.2656 -0.4969 -0.3619
  260MOL0     C35006   4.099   7.778   5.411  0.8900 -0.2642 -0.6867
  260MOL0     C35007   4.161   7.708   5.534 -0.3856 -0.0611 -0.6515
  260MOL0     C35008   4.097   7.575   5.592 -0.3878 -0.1157 -1.2117
  260MOL0    Cl35009   4.201   7.507   5.726 -0.6407 -0.0043  0.7796
  260MOL0     C35010   3.507   7.368   5.202  0.2735  0.4675 -0.0368
  260MOL0     C35011   3.407   7.381   5.300  0.4419 -0.8111 -0.4386
  260MOL0     O35012   3.392   7.242   5.601 -0.7122 -0.1147  0.0935
  260MOL0     C35013   3.185   7.252   5.803  0.4360  0.3652 -1.5259
  260MOL0     C35014   3.070   7.259   5.886 -0.6832  0.2411 -0.2705
  260MOL0     N35015   2.496   7.241   6.317  0.0410 -0.7582 -0.5885
  260MOL0     N35016   2.454   7.144   6.393 -0.6386 -0.5808  0.3533
  260MOL0     C35017   2.449   5.887   6.040 -0.2684  0.5158 -0.4893
  260MOL0     C35018   2.484   5.830   5.916  0.4611 -0.3898  0.0355
  260MOL0     C35019   2.535   5.712   5.510  0.6041  0.1718 -0.7173
  260MOL0     C35020   2.505   5.756   5.380  0.0934  0.3327 -0.5384
  260MOL0     C35021   2.521   5.670   5.264 -0.6662  0.5157  0.2393
  260MOL0     C35022   2.563   5.538   5.285  0.0406 -0.2309  0.9626
  260MOL0     O35023   2.591   5.459   5.184 -0.3089 -0.8610 -0.0853
  260MOL0     C35024   2.727   5.478   5.145  0.3905 -0.1886 -0.1831
  260MOL0     C35025   2.765   5.404   5.019 -0.3396 -0.2674 -0.4957
  260MOL0     C35026   2.688   5.476   4.895 -0.8440 -0.4550  0.2904
  260MOL0     C35027   2.775   5.594   4.840 -0.3754  0.2099 -0.3362
  260MOL0     C35028   2.720   5.666   4.724  0.4247 -0.3792 -0.1681
  260MOL0     C35029   2.653   5.722   4.646  1.2834  0.3682 -0.7287
  260MOL0     C35030   2.590   5.499   5.417  0.4284 -0.6482 -0.8810
  260MOL0     C35031   2.569   5.579   5.534 -0.6824 -0.2737 -0.0301
  260MOL0     C35032   2.606   5.519   5.668  0.7612  0.3140  0.6701
  260MOL0     H35033   2.733   6.030   5.822 -1.0188  1.3877 -1.1720
  260MOL0     H35034   2.684   6.127   6.037 -2.6995  2.9273 -1.6849
  260MOL0     H35035   2.339   5.946   6.278 -2.6660  1.4366 -1.1242
  260MOL0     H35036   2.421   6.051   6.393  2.9315 -2.0334  0.0562
  260MOL0     H35037   2.230   6.161   6.351 -1.2344 -2.8803 -0.9902
  260MOL0     H35038   2.265   6.151   6.172  0.0723 -3.7199 -0.3755
  260MOL0     H35039   2.476   6.284   6.234 -0.4111 -2.5358 -0.5935
  260MOL0     H35040   2.425   6.294   6.402 -0.5101  0.6263 -0.0831
  260MOL0     H35041   2.253   6.416   6.188 -1.6730 -0.3824  1.4597
  260MOL0     H35042   2.237   6.428   6.358  0.5233  0.6649  0.9134
  260MOL0     H35043   2.474   6.526   6.391 -0.2149 -0.3665 -0.2521
  260MOL0     H35044   2.482   6.541   6.215 -0.5564 -0.5223 -1.9940
  260MOL0     H35045   2.250   6.668   6.230 -0.1994 -0.4566  1.1539
  260MOL0     H35046   2.278   6.676   6.398 -1.1209  1.6123  0.0631
  260MOL0     H35047   2.418   6.831   6.178 -3.3385  2.6857  0.3508
  260MOL0     H35048   2.511   6.788   6.326 -0.1548  1.3889  0.2930
  260MOL0     H35049   2.234   6.918   6.318 -1.0561 -0.0421  0.3741
  260MOL0     H35050   2.331   6.909   6.461 -1.3823 -2.1818  0.4433
  260MOL0     H35051   2.358   7.054   6.091  1.7057 -0.2984  0.3436
  260MOL0     H35052   2.488   7.226   5.985 -2.9091  0.3646 -1.3925
  260MOL0     H35053   2.371   7.341   6.058  0.2904  0.3430  0.6386
  260MOL0     H35054   2.534   7.492   6.132  1.4541  1.3141 -0.0309
  260MOL0     H35055   2.668   7.376   6.125 -0.4064 -2.1679 -0.2115
  260MOL0     H35056   2.667   7.546   5.926  1.6222 -0.4055 -2.3481
  260MOL0     H35057   2.534   7.452   5.867 -0.1803 -1.1059  0.1118
  260MOL0     H35058   2.748   7.379   5.770  1.1208  0.3241  0.8723
  260MOL0     H35059   2.693   7.246   5.871 -0.7294 -0.5609 -1.9103
  260MOL0     H35060   2.929   7.525   5.729  0.0195 -1.2657 -1.5962
  260MOL0     H35061   3.119   7.509   5.592 -1.4245 -1.0962 -0.8489
  260MOL0     H35062   3.599   7.534   5.542  1.5348 -1.1364  0.1990
  260MOL0     H35063   3.771   7.494   5.362 -0.5915  1.4889 -0.6259
  260MOL0     H35064   3.904   7.454   5.219 -1.4319  1.3039  0.2393
  260MOL0     H35065   3.915   7.398   5.051 -0.7148 -1.5795  0.8925
  260MOL0     H35066   3.788   7.588   4.971 -0.1697  1.8618 -1.4150
  260MOL0     H35067   3.756   7.643   5.124 -0.8722 -0.5296 -2.5683
  260MOL0     H35068   4.041   7.612   5.033 -2.7759 -1.9206 -2.1557
  260MOL0     H35069   3.959   7.747   4.976 -1.6985 -1.2493 -0.9019
  260MOL0     H35070   3.914   7.820   5.220 -1.5610 -0.5793 -2.1359
  260MOL0     H35071   4.070   7.845   5.151 -0.4243  1.0809  1.2574
  260MOL0     H35072   4.171   7.675   5.243  0.0753  2.4732 -0.8459
  260MOL0     H35073   4.024   7.600   5.324  1.8235 -0.8725  1.7633
  260MOL0     H35074   4.173   7.855   5.389  1.5437 -0.9184 -0.8034
  260MOL0     H35075   4.003   7.822   5.441  0.1371 -1.7800 -0.7509
  260MOL0     H35076   4.142   7.773   5.620 -0.7519 -0.8941 -0.0976
  260MOL0     H35077   4.270   7.705   5.518 -0.4170 -1.0409 -0.7583
  260MOL0     H35078   3.994   7.594   5.624 -0.0149  0.1944 -0.1285
  260MOL0     H35079   4.088   7.507   5.507 -1.1163 -0.9155 -0.5151
  260MOL0     H35080   3.482   7.334   5.102 -1.6790  4.2951 -1.0347
  260MOL0     H35081   3.301   7.370   5.276 -0.7351  4.3933  1.0454
  260MOL0     H35082   3.257   7.176   5.829  2.6421  1.8499 -2.9487
  260MOL0     H35083   3.059   7.198   5.975 -1.4337  0.0799 -0.4731
  260MOL0     H35084   2.369   5.842   6.098  1.8700 -2.7370  0.2291
  260MOL0     H35085   2.444   5.739   5.873  2.5869 -0.3155 -2.3506
  260MOL0     H35086   2.477   5.860   5.368 -0.4975  0.2841  0.3255
  260MOL0     H35087   2.498   5.724   5.173 -1.2149  2.0520  1.2396
  260MOL0     H35088   2.795   5.446   5.224  1.3615  0.2427 -0.8281
  260MOL0     H35089   2.742   5.584   5.126 -0.0872  0.2394  1.6626
  260MOL0     H35090   2.741   5.297   5.027  2.3509 -0.8286  0.9399
  260MOL0     H35091   2.874   5.413   5.015 -0.5494  4.7380 -2.3771
  260MOL0     H35092   2.591   5.507   4.934  0.5589  1.8904  2.2301
  260MOL0     H35093   2.667   5.401   4.819  1.3332  0.1843 -1.0403
  260MOL0     H35094   2.814   5.658   4.919  1.6942  1.6897 -2.4129
  260MOL0     H35095   2.856   5.539   4.790 -1.4142 -1.6455 -0.0838
  260MOL0     H35096   2.590   5.769   4.572 -1.0066 -0.5226  0.5567
  260MOL0     H35097   2.620   5.395   5.424 -0.0967 -0.7624 -0.2450
  260MOL0     H35098   2.713   5.540   5.679  0.9347 -0.1103 -0.1464
  260MOL0     H35099   2.548   5.557   5.754 -1.8846 -3.6727  0.8977
  260MOL0     H35100   2.586   5.412   5.680 -0.3274  0.4843  0.5237
  261MOL0     O35101   2.719   9.566   3.660  0.1282 -0.0295  0.2682
  261MOL0     C35102   2.813   9.524   3.597  0.0294  0.2196 -0.5361
  261MOL0     O35103   2.815   9.484   3.468 -0.6104  0.4003  0.0632
  261MOL0     C35104   2.710   9.517   3.392  0.3937 -0.5925  0.0699
  261MOL0     C35105   2.701   9.654   3.363 -0.0812 -0.8612 -0.3739
  261MOL0     C35106   2.588   9.707   3.302 -0.1738 -1.2972 -0.0331
  261MOL0     C35107   2.493   9.617   3.260  0.8645 -0.6260 -0.2242
  261MOL0     O35108   2.393   9.665   3.180  0.3854 -0.9863  0.3846
  261MOL0     C35109   2.334   9.789   3.209  0.5258 -0.1648 -0.0817
  261MOL0     C35110   2.294   9.819   3.354  0.0408 -0.0520  0.4620
  261MOL0     C35111   2.246   9.967   3.372  0.5115  0.5115 -0.1714
  261MOL0     C35112   2.241  10.015   3.521  0.2524 -0.8059 -0.4127
  261MOL0     C35113   2.218   9.920   3.622  0.6807  0.7057 -0.5214
  261MOL0     C35114   2.337   9.873   3.702 -1.0679 -0.1855 -0.7603
  261MOL0     C35115   2.288   9.768   3.804 -0.4289 -0.4390  0.0241
  261MOL0     C35116   2.403   9.726   3.891 -0.2523 -0.3531 -0.0024
  261MOL0     N35117   2.360   9.618   3.975  0.4383  0.6628  0.0713
  261MOL0     C35118   2.254   9.625   4.063  0.4214  0.1052  0.0959
  261MOL0     C35119   2.218   9.494   4.088  0.1068  0.5473 -0.5313
  261MOL0     C35120   2.117   9.442   4.186  0.6472 -0.5106 -0.0943
  261MOL0     C35121   1.979   9.435   4.115 -0.3421  0.0868  1.2357
  261MOL0     C35122   1.868   9.356   4.199 -0.0694  0.3865  0.3609
  261MOL0     C35123   1.829   9.441   4.320  0.3164 -0.5862 -0.7717
  261MOL0     O35124   1.916   9.451   4.428 -0.3105 -0.2033 -0.4551
  261MOL0     C35125   1.975   9.336   4.482  0.0500 -0.1042 -0.5985
  261MOL0     C35126   1.911   9.214   4.494 -0.0106  0.6088  0.7563
  261MOL0     C35127   1.971   9.101   4.541 -0.1157 -0.8127  0.7364
  261MOL0     C35128   2.100   9.112   4.591 -0.4016  0.8415  1.1333
  261MOL0     C35129   2.170   8.991   4.638 -0.5873 -0.6879 -0.2902
  261MOL0     O35130   2.113   8.876   4.605  0.5052 -0.0826 -0.0754
  261MOL0     C35131   2.173   8.762   4.646 -0.5493  0.1119  0.2587
  261MOL0     C35132   2.220   8.676   4.548  0.1974 -0.4139 -0.8094
  261MOL0     C35133   2.262   8.548   4.578 -1.0697 -0.2140 -0.1750
  261MOL0     C35134   2.259   8.503   4.710 -0.4399 -0.2974  0.4879
  261MOL0     O35135   2.318   8.386   4.756  0.9905 -1.0381  0.4275
  261MOL0     C35136   2.352   8.283   4.658 -0.2043  0.6159 -0.1661
  261MOL0     C35137   2.231   8.215   4.598 -0.6515  0.5868 -0.2655
  261MOL0     C35138   2.146   8.178   4.715  1.1542 -0.0658 -1.0373
  261MOL0     C35139   2.061   8.071   4.657  0.3171  0.6041 -0.1962
  261MOL0     C35140   1.983   8.015   4.779 -0.0042  0.5271  0.4059
  261MOL0     C35141   1.913   7.870   4.749  0.0320 -0.4337  0.5349
  261MOL0     C35142   1.824   7.844   4.873  0.2325  0.3797  0.3785
  261MOL0     C35143   1.798   7.698   4.886  0.7649  0.0874 -0.0512
  261MOL0    Cl35144   1.734   7.667   5.049 -0.0839  0.1841 -0.1501
  261MOL0     C35145   2.195   8.578   4.812 -0.5173 -0.3597 -0.2513
  261MOL0     C35146   2.162   8.705   4.773 -0.1405 -0.7578 -0.2003
  261MOL0     O35147   2.276   9.006   4.702  0.6887  0.4122 -0.2584
  261MOL0     C35148   2.176   9.231   4.577  0.8138  0.3837 -0.7793
  261MOL0     C35149   2.109   9.340   4.533  0.0949 -0.7899  0.6893
  261MOL0     N35150   2.307   9.414   4.014  0.0506  0.6774  0.2717
  261MOL0     N35151   2.385   9.489   3.943  0.1464 -0.1275  0.0685
  261MOL0     C35152   2.504   9.476   3.279  0.1253  0.1116 -0.1879
  261MOL0     C35153   2.611   9.426   3.356 -0.3104 -0.6818  0.3064
  261MOL0     C35154   2.947   9.527   3.664  0.1614  0.1685  0.3024
  261MOL0     C35155   3.066   9.540   3.586  0.8876 -0.7634 -0.2323
  261MOL0     C35156   3.188   9.547   3.648  0.5710  0.0733 -0.9535
  261MOL0     C35157   3.199   9.539   3.791 -1.4322 -0.8909  0.5888
  261MOL0     O35158   3.324   9.546   3.847  0.5859 -0.9930 -0.7581
  261MOL0     C35159   3.327   9.643   3.952 -0.9811 -0.6787  0.1779
  261MOL0     C35160   3.471   9.661   3.982  0.1077  1.0541 -0.4589
  261MOL0     C35161   3.525   9.564   4.089  0.7806 -0.4893  0.7536
  261MOL0     C35162   3.674   9.536   4.085  1.4512 -0.5041  0.5221
  261MOL0     C35163   3.710   9.439   4.181 -0.5092  0.0817  0.0670
  261MOL0     C35164   3.740   9.356   4.264  0.2897 -0.2152 -0.1388
  261MOL0     C35165   3.085   9.523   3.860 -0.7987  0.4021  0.3201
  261MOL0     C35166   2.963   9.516   3.803 -1.2563  0.8859  0.0963
  261MOL0     C35167   2.853   9.514   3.899 -0.2512 -0.5570 -0.3739
  261MOL0     H35168   2.792   9.711   3.382 -0.0560 -0.0875 -2.5577
  261MOL0     H35169   2.583   9.815   3.295  0.9594 -1.2057  0.3620
  261MOL0     H35170   2.397   9.868   3.168 -1.5383 -0.6236 -4.7140
  261MOL0     H35171   2.244   9.788   3.147  1.7724 -0.7931 -1.9654
  261MOL0     H35172   2.381   9.809   3.420 -1.1512 -0.0671  2.1189
  261MOL0     H35173   2.211   9.753   3.385  0.4336 -0.3762  0.8379
  261MOL0     H35174   2.141   9.981   3.344  0.9141 -0.1819 -2.2452
  261MOL0     H35175   2.311  10.037   3.319  1.4625  2.0082  2.7943
  261MOL0     H35176   2.329  10.076   3.544  0.1925 -0.8979  0.0642
  261MOL0     H35177   2.159  10.088   3.525 -0.2195 -1.1052 -2.7368
  261MOL0     H35178   2.143   9.963   3.689  0.5004 -0.2084 -0.1184
  261MOL0     H35179   2.167   9.829   3.590  1.3230 -0.3385  1.2561
  261MOL0     H35180   2.414   9.842   3.631  1.5405  0.1542  1.6885
  261MOL0     H35181   2.373   9.960   3.757  1.1810  0.4378 -3.0211
  261MOL0     H35182   2.266   9.680   3.742 -1.7935  0.6158 -1.0754
  261MOL0     H35183   2.200   9.806   3.856 -0.4296 -0.6095  0.1473
  261MOL0     H35184   2.479   9.687   3.822 -1.0067 -0.8611 -0.5615
  261MOL0     H35185   2.441   9.802   3.960  0.4563 -1.9129  1.3884
  261MOL0     H35186   2.209   9.710   4.113 -3.7316 -2.0993  0.5219
  261MOL0     H35187   2.137   9.343   4.230 -2.7256 -0.8497  0.9695
  261MOL0     H35188   2.106   9.519   4.263 -3.1720 -0.3849 -0.5516
  261MOL0     H35189   1.947   9.532   4.075  3.0884  0.7506 -0.2803
  261MOL0     H35190   1.996   9.378   4.023 -0.4670  1.2035  0.4978
  261MOL0     H35191   1.902   9.255   4.224 -0.4330 -0.0210 -0.7195
  261MOL0     H35192   1.781   9.351   4.133 -1.3171 -1.2484  2.0255
  261MOL0     H35193   1.739   9.410   4.375  1.1527 -1.7592 -0.0273
  261MOL0     H35194   1.820   9.546   4.288  1.4627  1.2832  4.1666
  261MOL0     H35195   1.817   9.212   4.440  1.0344  0.4076 -1.1566
  261MOL0     H35196   1.914   9.010   4.523 -0.5184 -0.6536  1.2005
  261MOL0     H35197   2.231   8.714   4.447 -2.0852 -1.9066 -1.6762
  261MOL0     H35198   2.317   8.491   4.504 -2.3076  0.5170 -1.7326
  261MOL0     H35199   2.432   8.310   4.588  0.4576 -2.7499 -0.9092
  261MOL0     H35200   2.399   8.215   4.730 -3.2563 -1.1971  0.2746
  261MOL0     H35201   2.169   8.280   4.537 -2.7679 -1.4576 -0.4148
  261MOL0     H35202   2.274   8.134   4.539  2.0161  0.2130  1.9600
  261MOL0     H35203   2.199   8.136   4.802  1.0473 -0.1833 -1.0291
  261MOL0     H35204   2.085   8.265   4.740  1.7873 -0.2668  1.5425
  261MOL0     H35205   2.138   7.997   4.633  1.8896  1.7597  1.1202
  261MOL0     H35206   2.007   8.103   4.568  0.1923  2.6569  0.5629
  261MOL0     H35207   1.905   8.082   4.817  0.0187  1.4511 -1.0967
  261MOL0     H35208   2.046   7.998   4.867  2.0853 -1.5860 -1.3918
  261MOL0     H35209   1.843   7.876   4.665  0.0071  1.9893  0.6571
  261MOL0     H35210   1.978   7.790   4.712  0.6377  1.1682 -2.1257
  261MOL0     H35211   1.729   7.898   4.871 -1.1623 -1.9575 -1.7233
  261MOL0     H35212   1.887   7.875   4.957 -1.5784 -1.1614  2.4177
  261MOL0     H35213   1.724   7.662   4.814 -0.7768  3.4509 -0.3492
  261MOL0     H35214   1.892   7.644   4.875  0.4981 -0.0939 -1.7149
  261MOL0     H35215   2.199   8.550   4.916  0.6311  0.2620 -0.1031
  261MOL0     H35216   2.123   8.774   4.847  0.8559  0.2102 -0.5411
  261MOL0     H35217   2.278   9.243   4.613  0.8406  1.7087 -1.2442
  261MOL0     H35218   2.156   9.438   4.521 -1.7605 -0.1432 -2.3058
  261MOL0     H35219   2.439   9.405   3.228  1.6939 -1.8051  0.3469
  261MOL0     H35220   2.633   9.320   3.358 -1.4881 -0.9856 -1.0531
  261MOL0     H35221   3.061   9.546   3.478  3.0252  2.4261 -0.2829
  261MOL0     H35222   3.266   9.575   3.578  0.1088  1.2803 -1.0074
  261MOL0     H35223   3.279   9.613   4.046  1.2327  2.7344  2.6383
  261MOL0     H35224   3.290   9.737   3.910 -1.8582 -1.8038 -1.6728
  261MOL0     H35225   3.491   9.762   4.019 -0.3430  1.1529 -0.4740
  261MOL0     H35226   3.518   9.644   3.885 -2.5274  2.6087 -2.1592
  261MOL0     H35227   3.476   9.470   4.060 -0.2162  0.4663 -0.7586
  261MOL0     H35228   3.503   9.600   4.190  1.0778  0.2227  0.5683
  261MOL0     H35229   3.710   9.496   3.989  3.4802 -1.3793  1.5778
  261MOL0     H35230   3.719   9.633   4.105  0.0059  0.5051 -0.8332
  261MOL0     H35231   3.768   9.290   4.344 -2.0648 -2.8609 -1.3338
  261MOL0     H35232   3.095   9.510   3.968  1.5754  3.3583  0.5807
  261MOL0     H35233   2.890   9.475   3.994  1.0916 -0.9122 -1.0134
  261MOL0     H35234   2.811   9.613   3.921  1.7222  0.1583  0.4278
  261MOL0     H35235   2.769   9.458   3.856 -1.3032  1.7771 -1.5786
  262MOL0     O35236   7.087   3.218   7.975 -0.0423  0.4139  0.2883
  262MOL0     C35237   7.131   3.240   7.862 -0.0268 -0.3282 -0.6674
  262MOL0     O35238   7.094   3.346   7.778  0.6690  0.6968  0.2087
  262MOL0     C35239   6.994   3.438   7.804  0.2583 -0.6548 -0.5924
  262MOL0     C35240   7.011   3.519   7.916 -0.0984  0.2344 -0.1598
  262MOL0     C35241   6.915   3.627   7.945 -0.7485  0.5350  0.1469
  262MOL0     C35242   6.796   3.628   7.866 -0.3461  0.7111 -0.3996
  262MOL0     O35243   6.694   3.719   7.884 -0.3292 -0.1363  0.7964
  262MOL0     C35244   6.619   3.707   8.001 -0.5325  0.6102 -0.8258
  262MOL0     C35245   6.519   3.596   8.004  0.7582 -0.7170 -0.3016
  262MOL0     C35246   6.425   3.588   8.130 -0.7012  0.5358  0.2279
  262MOL0     C35247   6.320   3.689   8.139  1.0804 -0.2117  0.5280
  262MOL0     C35248   6.248   3.692   8.266 -0.1686  1.1156 -0.4472
  262MOL0     C35249   6.116   3.775   8.253 -0.1826 -0.2077 -0.1898
  262MOL0     C35250   6.117   3.897   8.349 -0.9264 -0.3531 -0.0031
  262MOL0     C35251   5.988   3.970   8.358 -0.8176 -0.8699  0.1047
  262MOL0     N35252   5.881   3.880   8.393 -0.2114  0.0989 -0.2505
  262MOL0     C35253   5.848   3.842   8.514  0.8740  0.1041 -0.1261
  262MOL0     C35254   5.722   3.792   8.514 -0.3744 -0.5546 -0.1507
  262MOL0     C35255   5.626   3.743   8.622 -0.2820 -0.1277  0.8999
  262MOL0     C35256   5.569   3.859   8.712 -0.5550  0.0077 -0.6083
  262MOL0     C35257   5.445   3.820   8.789  0.4759 -0.9390  0.5719
  262MOL0     C35258   5.411   3.934   8.888 -0.2417 -0.7247  0.5498
  262MOL0     O35259   5.327   3.880   8.990 -0.1405 -0.0913  0.1574
  262MOL0     C35260   5.209   3.946   9.013 -0.2048 -0.4535  0.3789
  262MOL0     C35261   5.146   3.922   9.131  0.4428  0.2494  0.0921
  262MOL0     C35262   5.027   3.983   9.161  0.6395  0.2520  0.3319
  262MOL0     C35263   4.960   4.069   9.066  0.3265 -0.1780  0.2846
  262MOL0     C35264   4.825   4.103   9.084  0.0112  0.6481 -0.1240
  262MOL0     O35265   4.774   4.206   9.005  0.3699  0.1380  0.3475
  262MOL0     C35266   4.642   4.247   9.017 -0.1002  0.7529  0.9428
  262MOL0     C35267   4.565   4.260   9.131  0.6938 -0.0724  0.5421
  262MOL0     C35268   4.435   4.312   9.127 -0.2758  0.0658 -0.2237
  262MOL0     C35269   4.387   4.348   9.003 -0.0387  0.4500 -0.1224
  262MOL0     O35270   4.261   4.402   9.009 -0.3940  1.0797  0.8867
  262MOL0     C35271   4.212   4.474   8.900 -0.4242  0.4940  0.2807
  262MOL0     C35272   4.290   4.599   8.877 -0.5698  0.3014 -0.3683
  262MOL0     C35273   4.322   4.684   9.001 -0.5880 -0.3417  0.1294
  262MOL0     C35274   4.419   4.801   8.963  0.8117 -1.0492  1.5479
  262MOL0     C35275   4.414   4.928   9.057 -0.3869  0.5614 -0.9612
  262MOL0     C35276   4.528   5.034   9.036 -0.0159  1.2836  0.1700
  262MOL0     C35277   4.486   5.164   9.114 -0.6246  0.0494 -0.4635
  262MOL0     C35278   4.388   5.259   9.052 -0.5231 -0.0201 -0.4233
  262MOL0    Cl35279   4.429   5.421   9.123  0.3495  0.6080  0.1823
  262MOL0     C35280   4.464   4.330   8.879 -0.1474  0.6808 -0.8079
  262MOL0     C35281   4.592   4.282   8.890  0.3219 -0.0079 -0.5441
  262MOL0     O35282   4.767   4.044   9.170 -0.3385 -0.2780 -0.3887
  262MOL0     C35283   5.016   4.090   8.944  0.4040  1.6726 -0.5125
  262MOL0     C35284   5.143   4.037   8.918  0.6877  0.5901  0.3105
  262MOL0     N35285   5.683   3.806   8.379 -0.4580  0.3466 -0.6460
  262MOL0     N35286   5.782   3.855   8.311  0.6099  0.0726  0.0890
  262MOL0     C35287   6.782   3.532   7.763 -0.2260  0.3482 -1.7631
  262MOL0     C35288   6.882   3.448   7.728 -0.4569 -0.0242 -0.4966
  262MOL0     C35289   7.228   3.138   7.799 -0.2997  0.0143 -0.0537
  262MOL0     C35290   7.267   3.157   7.655  0.8438 -0.0233 -0.6819
  262MOL0     C35291   7.358   3.078   7.592  0.2562  0.3089  0.1387
  262MOL0     C35292   7.405   2.957   7.649 -0.4369  0.0801 -0.9923
  262MOL0     O35293   7.498   2.888   7.569  0.1560  0.4118 -0.0679
  262MOL0     C35294   7.581   2.789   7.631  0.1862  0.5831  0.4136
  262MOL0     C35295   7.691   2.864   7.703 -0.0409  0.2612 -0.4380
  262MOL0     C35296   7.762   2.766   7.794 -0.4647  0.5787 -0.8688
  262MOL0     C35297   7.850   2.831   7.896  0.6718  0.1857 -0.1154
  262MOL0     C35298   7.975   2.868   7.836 -0.0046  0.4513 -0.3265
  262MOL0     C35299   8.078   2.911   7.788  0.5608  0.9666  0.2225
  262MOL0     C35300   7.362   2.940   7.786  0.0881  0.7147 -0.2103
  262MOL0     C35301   7.271   3.020   7.865 -0.1380  0.1648 -0.2268
  262MOL0     C35302   7.232   2.977   8.001 -1.0750  0.2614  0.5851
  262MOL0     H35303   7.109   3.517   7.962 -0.1900 -1.0208  0.0017
  262MOL0     H35304   6.940   3.688   8.031  1.0034 -0.0466  0.0787
  262MOL0     H35305   6.685   3.697   8.088 -1.0014  0.0382 -0.5331
  262MOL0     H35306   6.567   3.802   8.017  0.1138  0.7716  0.4535
  262MOL0     H35307   6.558   3.498   7.973 -0.8425 -1.1399 -1.1211
  262MOL0     H35308   6.453   3.616   7.919 -0.8982 -1.1954  0.8248
  262MOL0     H35309   6.480   3.594   8.225 -1.3972  0.6633  0.6304
  262MOL0     H35310   6.397   3.484   8.112  1.3396  0.4992 -3.8963
  262MOL0     H35311   6.361   3.789   8.123  1.6818 -0.9490 -3.7770
  262MOL0     H35312   6.241   3.661   8.070  1.6394  1.3973 -0.8234
  262MOL0     H35313   6.234   3.590   8.303  2.8151  0.9189  0.3815
  262MOL0     H35314   6.321   3.737   8.334  0.6835 -1.0762  0.1529
  262MOL0     H35315   6.124   3.824   8.155 -2.4082 -0.3340 -0.5038
  262MOL0     H35316   6.025   3.715   8.245  0.4822 -1.4536  1.2176
  262MOL0     H35317   6.196   3.964   8.313 -0.2485 -1.2955 -0.3048
  262MOL0     H35318   6.136   3.873   8.454 -4.3472  1.8095  1.2618
  262MOL0     H35319   5.984   4.062   8.417  0.1362  1.0490 -2.6264
  262MOL0     H35320   5.962   4.020   8.264  0.4130 -3.4863 -1.7513
  262MOL0     H35321   5.901   3.865   8.606 -0.7907  2.0282  0.4012
  262MOL0     H35322   5.552   3.678   8.574 -2.0591  1.7615  0.9240
  262MOL0     H35323   5.684   3.679   8.689  2.5138  1.3405  0.0145
  262MOL0     H35324   5.648   3.891   8.780 -0.7358 -0.2167 -0.2921
  262MOL0     H35325   5.535   3.949   8.659 -3.8788 -2.3529 -2.8613
  262MOL0     H35326   5.474   3.730   8.844  1.7960 -2.4972 -2.4315
  262MOL0     H35327   5.364   3.802   8.716  2.4861  1.0932 -2.3974
  262MOL0     H35328   5.373   4.016   8.828 -1.1112 -1.9231 -0.6026
  262MOL0     H35329   5.500   3.973   8.938  0.5555  3.0993 -3.2772
  262MOL0     H35330   5.194   3.849   9.197 -0.6915 -1.7233 -1.1574
  262MOL0     H35331   4.982   3.950   9.254  1.9967  0.9973  1.2815
  262MOL0     H35332   4.596   4.225   9.229 -1.5031 -4.7364 -0.1721
  262MOL0     H35333   4.398   4.330   9.228  1.3567  3.3203 -0.0576
  262MOL0     H35334   4.206   4.410   8.812  0.2320 -0.8136  1.1524
  262MOL0     H35335   4.106   4.493   8.914 -0.6779  0.2697 -1.1935
  262MOL0     H35336   4.388   4.582   8.831 -0.3226 -2.0279  0.8454
  262MOL0     H35337   4.229   4.661   8.812  1.3477  4.0958  1.1492
  262MOL0     H35338   4.234   4.733   9.043  1.1312  2.3972  0.8200
  262MOL0     H35339   4.372   4.621   9.075 -0.5723 -0.9013 -0.3569
  262MOL0     H35340   4.398   4.839   8.862  1.1034 -1.8746  1.1621
  262MOL0     H35341   4.520   4.761   8.952  0.9945  0.0979 -3.8795
  262MOL0     H35342   4.409   4.892   9.161 -1.7938  0.4633 -1.0394
  262MOL0     H35343   4.318   4.976   9.038 -0.8312  0.7306  1.3476
  262MOL0     H35344   4.624   4.992   9.069  0.3044  1.9236  0.0669
  262MOL0     H35345   4.542   5.063   8.932 -0.4421  2.0307  0.3132
  262MOL0     H35346   4.584   5.211   9.131 -0.6139 -0.6722  1.8716
  262MOL0     H35347   4.456   5.135   9.216  1.7462 -0.4393  0.1666
  262MOL0     H35348   4.405   5.258   8.944 -1.3868  1.4845 -0.6089
  262MOL0     H35349   4.286   5.229   9.074  0.2825 -2.5087  0.1899
  262MOL0     H35350   4.426   4.355   8.781 -5.5539  1.5570  1.1664
  262MOL0     H35351   4.659   4.269   8.806 -1.0383 -0.2558 -1.6203
  262MOL0     H35352   4.962   4.131   8.858 -0.3285 -1.3328 -1.6331
  262MOL0     H35353   5.181   4.060   8.819  1.9455 -0.7477  0.4596
  262MOL0     H35354   6.687   3.514   7.713 -0.5775 -1.0303 -0.6534
  262MOL0     H35355   6.858   3.379   7.647 -1.3001 -2.6747  1.8744
  262MOL0     H35356   7.227   3.244   7.605 -0.7379  0.1503  0.7628
  262MOL0     H35357   7.387   3.089   7.488  0.9898 -1.2911  0.1397
  262MOL0     H35358   7.617   2.718   7.556 -1.1572 -0.5493  0.7797
  262MOL0     H35359   7.531   2.717   7.697  2.6286 -1.9555 -0.3003
  262MOL0     H35360   7.656   2.947   7.765  0.2826 -0.6860  1.0622
  262MOL0     H35361   7.765   2.892   7.628 -0.8043  1.2614 -0.8520
  262MOL0     H35362   7.823   2.702   7.730 -1.9121 -0.5624 -1.1703
  262MOL0     H35363   7.692   2.701   7.847  1.0421  1.4634  2.4939
  262MOL0     H35364   7.795   2.914   7.942 -0.3485 -2.2730  3.5430
  262MOL0     H35365   7.870   2.759   7.976  1.4221  1.5165  0.9381
  262MOL0     H35366   8.169   2.945   7.743 -0.0820 -2.0692 -3.8735
  262MOL0     H35367   7.402   2.845   7.821 -1.2922  0.4825  0.8696
  262MOL0     H35368   7.282   2.883   8.029 -0.5050  0.8107  1.4758
  262MOL0     H35369   7.251   3.061   8.068  0.6310 -0.2750  0.8352
  262MOL0     H35370   7.126   2.955   8.014 -1.0057 -0.5177 -0.0602
  263MOL0     O35371   5.443   8.614   3.152 -0.5042  0.1965  0.2758
  263MOL0     C35372   5.370   8.581   3.064 -0.0133  0.7503 -0.1926
  263MOL0     O35373   5.367   8.630   2.937  0.7897 -0.5346  0.3102
  263MOL0     C35374   5.457   8.723   2.902 -0.8907  1.2043  0.0493
  263MOL0     C35375   5.597   8.692   2.907 -0.6288 -0.5838  0.0757
  263MOL0     C35376   5.686   8.788   2.867 -0.1833  0.2602 -0.5390
  263MOL0     C35377   5.640   8.907   2.813  0.4153  0.8045 -0.1812
  263MOL0     O35378   5.715   8.996   2.746  0.3481  0.0444 -0.4151
  263MOL0     C35379   5.861   8.978   2.742 -1.1243 -0.0160 -0.0168
  263MOL0     C35380   5.908   9.110   2.673 -0.5322  0.0886 -0.0395
  263MOL0     C35381   5.830   9.129   2.537  0.0194  0.1667 -0.2755
  263MOL0     C35382   5.916   9.196   2.430 -0.8272 -0.4833 -0.4679
  263MOL0     C35383   5.939   9.346   2.458  1.1775 -0.5331 -0.1178
  263MOL0     C35384   6.029   9.383   2.579  0.4028  0.4540 -0.7368
  263MOL0     C35385   6.098   9.512   2.556 -0.2358 -0.0496  0.0023
  263MOL0     C35386   6.174   9.537   2.691  0.2528  0.2620  0.1995
  263MOL0     N35387   6.238   9.669   2.680  0.1395  0.4290  0.6512
  263MOL0     C35388   6.196   9.783   2.745 -0.6571 -0.1672 -0.2214
  263MOL0     C35389   6.275   9.880   2.692  0.2513  0.3890 -0.8424
  263MOL0     C35390   6.260  10.033   2.719 -0.0913  0.3466  0.3528
  263MOL0     C35391   6.337  10.091   2.832  0.0369  0.2021 -0.6286
  263MOL0     C35392   6.471  10.134   2.786 -0.3015 -0.1309  0.1797
  263MOL0     C35393   6.563  10.174   2.903 -0.1720  0.0232  0.4575
  263MOL0     O35394   6.555  10.083   3.022 -0.8707 -0.2090  0.1737
  263MOL0     C35395   6.530  10.139   3.138  1.2344 -0.6750 -0.1558
  263MOL0     C35396   6.624  10.150   3.238 -0.3349 -0.6199  0.6865
  263MOL0     C35397   6.591  10.201   3.362 -0.3046 -0.6095  1.1872
  263MOL0     C35398   6.466  10.248   3.389 -0.2319 -0.2219  0.2477
  263MOL0     C35399   6.443  10.315   3.515  0.3481 -0.7169  0.8363
  263MOL0     O35400   6.537  10.314   3.619 -0.0415  0.2633 -0.0565
  263MOL0     C35401   6.512  10.388   3.731  0.1935  1.1848 -0.4065
  263MOL0     C35402   6.395  10.373   3.802 -0.1951  0.0767 -0.4417
  263MOL0     C35403   6.380  10.446   3.923  0.0809  0.0358  0.5633
  263MOL0     C35404   6.479  10.528   3.971  0.1811 -0.7670 -0.4922
  263MOL0     O35405   6.460  10.592   4.092  0.0995 -0.3547  0.4007
  263MOL0     C35406   6.563  10.688   4.132  0.1072  0.0409 -0.2527
  263MOL0     C35407   6.519  10.725   4.274  0.5996  0.0120  0.2447
  263MOL0     C35408   6.622  10.814   4.333  1.1493 -0.4600 -0.2348
  263MOL0     C35409   6.571  10.844   4.481 -0.2789 -0.4164  0.1951
  263MOL0     C35410   6.676  10.930   4.552 -0.1471  0.7003  0.4243
  263MOL0     C35411   6.672  10.949   4.700 -0.5830  0.0431  0.1646
  263MOL0     C35412   6.803  11.006   4.748  0.2504  0.0836 -0.4096
  263MOL0     C35413   6.796  11.063   4.889 -0.1369 -0.1354  0.2394
  263MOL0    Cl35414   6.679  11.195   4.919  0.5832 -0.2844  0.1348
  263MOL0     C35415   6.597  10.552   3.891  0.4340  0.8109  0.9419
  263MOL0     C35416   6.608  10.478   3.773 -0.3437  0.0623 -1.0987
  263MOL0     O35417   6.349  10.388   3.519 -0.2070 -0.1099 -0.4662
  263MOL0     C35418   6.374  10.247   3.288  0.3318  0.4291  0.0954
  263MOL0     C35419   6.398  10.194   3.161 -0.0174  0.5136  0.4002
  263MOL0     N35420   6.378   9.821   2.615  0.3460 -1.2761 -0.2214
  263MOL0     N35421   6.354   9.694   2.614  0.3349  0.3292  0.1552
  263MOL0     C35422   5.504   8.937   2.809  0.6489  0.1332  0.1743
  263MOL0     C35423   5.410   8.844   2.853 -0.6850  0.2006  0.0298
  263MOL0     C35424   5.263   8.482   3.095  0.0037  0.7502  0.5025
  263MOL0     C35425   5.157   8.477   2.995  0.7304  0.1214 -0.0709
  263MOL0     C35426   5.074   8.369   2.991 -1.0799 -0.5044 -0.7734
  263MOL0     C35427   5.074   8.263   3.090  0.6638 -0.6835  0.2451
  263MOL0     O35428   5.010   8.142   3.095 -0.1584  0.1989 -0.3190
  263MOL0     C35429   4.919   8.114   2.986  0.6737  0.1706 -0.1953
  263MOL0     C35430   4.995   8.104   2.856 -0.0030 -0.3471  0.1273
  263MOL0     C35431   4.902   8.064   2.739  0.3928  0.5245 -0.1475
  263MOL0     C35432   4.963   8.093   2.597  0.4337  0.7019  0.1921
  263MOL0     C35433   4.854   8.071   2.494  1.1029  0.5296 -0.5902
  263MOL0     C35434   4.778   8.036   2.399  0.5172 -0.0016 -1.0031
  263MOL0     C35435   5.157   8.291   3.199 -0.3319  0.0835 -0.1964
  263MOL0     C35436   5.256   8.392   3.205  0.3522 -0.0266  0.1130
  263MOL0     C35437   5.352   8.385   3.322 -0.9845 -0.8134 -1.0867
  263MOL0     H35438   5.638   8.598   2.941  1.4454  0.5770  0.9181
  263MOL0     H35439   5.789   8.755   2.880 -0.0110  2.0004  4.3335
  263MOL0     H35440   5.917   8.958   2.833  1.1297  1.0997 -1.0805
  263MOL0     H35441   5.899   8.904   2.671  2.7218  1.6856  0.0268
  263MOL0     H35442   6.015   9.093   2.656 -0.6283  0.7932 -1.5171
  263MOL0     H35443   5.884   9.187   2.747 -1.3607  0.2563 -0.4679
  263MOL0     H35444   5.742   9.192   2.554  0.1187  0.0046  0.9491
  263MOL0     H35445   5.791   9.041   2.486 -0.1560  1.7168 -2.9888
  263MOL0     H35446   6.015   9.150   2.442 -0.5717  0.0919 -0.3409
  263MOL0     H35447   5.876   9.188   2.329  2.9179  1.9988 -2.3818
  263MOL0     H35448   5.970   9.391   2.364 -2.0368  0.1168 -0.9785
  263MOL0     H35449   5.841   9.380   2.492  1.4153 -0.0244  0.0614
  263MOL0     H35450   5.972   9.393   2.672  0.6308  2.6330 -0.7785
  263MOL0     H35451   6.108   9.307   2.577 -0.6641 -0.7982  1.2901
  263MOL0     H35452   6.041   9.603   2.534 -0.6767 -0.1036  0.8763
  263MOL0     H35453   6.165   9.503   2.470 -0.2621  1.3853 -0.1942
  263MOL0     H35454   6.113   9.538   2.782  2.0556 -0.5577  1.4952
  263MOL0     H35455   6.253   9.464   2.711 -1.0412 -1.0451  0.7676
  263MOL0     H35456   6.114   9.809   2.811  0.8910  0.5432  1.4994
  263MOL0     H35457   6.272  10.088   2.625 -3.0441 -0.3087 -0.5147
  263MOL0     H35458   6.157  10.056   2.747 -1.2345 -0.3829 -2.8986
  263MOL0     H35459   6.282  10.181   2.864 -0.3703 -0.4472  0.5592
  263MOL0     H35460   6.343  10.025   2.919 -1.5606  0.9196  0.0758
  263MOL0     H35461   6.465  10.215   2.713  0.1098 -0.4766 -0.2431
  263MOL0     H35462   6.526  10.061   2.726  2.1165  2.0448 -0.4220
  263MOL0     H35463   6.538  10.275   2.938 -0.0969  0.5578 -0.9567
  263MOL0     H35464   6.665  10.163   2.865 -0.3187 -0.5839  0.2326
  263MOL0     H35465   6.728  10.129   3.216 -0.3489 -0.8240  0.8044
  263MOL0     H35466   6.674  10.196   3.433 -0.4932 -0.7221  1.3998
  263MOL0     H35467   6.311  10.314   3.768  0.2887 -0.0065 -1.5165
  263MOL0     H35468   6.286  10.432   3.975 -2.0901 -0.4561 -3.1504
  263MOL0     H35469   6.664  10.645   4.136 -0.5095 -1.6014 -1.2299
  263MOL0     H35470   6.559  10.779   4.072 -0.8525  0.3718  0.2876
  263MOL0     H35471   6.427  10.784   4.258  0.6477 -0.5354 -2.6455
  263MOL0     H35472   6.500  10.634   4.330 -0.2658 -0.9585 -1.5483
  263MOL0     H35473   6.723  10.773   4.343  1.3717  0.1379  0.0395
  263MOL0     H35474   6.630  10.908   4.277  0.8796 -2.3075 -3.6502
  263MOL0     H35475   6.557  10.743   4.520  0.2923 -1.2762 -1.7144
  263MOL0     H35476   6.474  10.892   4.470 -0.2717 -0.4567 -0.0556
  263MOL0     H35477   6.672  11.027   4.501  0.6484  1.5251  1.8827
  263MOL0     H35478   6.773  10.887   4.527 -0.8823 -1.8526  1.5809
  263MOL0     H35479   6.590  11.018   4.724 -0.5252  0.2407 -0.1950
  263MOL0     H35480   6.646  10.861   4.759  0.5070  0.0162  0.6234
  263MOL0     H35481   6.821  11.086   4.676 -2.6487 -1.5012 -3.1290
  263MOL0     H35482   6.884  10.933   4.732 -1.9069 -2.6562  0.4878
  263MOL0     H35483   6.774  10.975   4.949  0.8807 -1.4056 -1.1676
  263MOL0     H35484   6.897  11.100   4.910  0.0874 -1.6176  2.0367
  263MOL0     H35485   6.677  10.619   3.920 -0.4306  2.0564  0.5544
  263MOL0     H35486   6.711  10.486   3.738 -0.3832  2.1250 -0.8949
  263MOL0     H35487   6.282  10.300   3.311  1.3700  2.3116  0.1208
  263MOL0     H35488   6.328  10.199   3.078  0.3555 -1.0564 -0.0235
  263MOL0     H35489   5.466   9.033   2.775 -2.4568 -1.0330  0.0233
  263MOL0     H35490   5.302   8.855   2.849 -0.5753  1.1504 -0.6741
  263MOL0     H35491   5.146   8.556   2.921 -1.6968  0.2562  0.3613
  263MOL0     H35492   4.994   8.370   2.918 -0.1526  1.2088 -1.8232
  263MOL0     H35493   4.844   8.193   2.978  2.2357  1.9019  1.0613
  263MOL0     H35494   4.867   8.021   3.012  0.5614  0.3336  0.1724
  263MOL0     H35495   5.080   8.037   2.871  0.8985  0.3439 -1.5900
  263MOL0     H35496   5.037   8.199   2.823 -1.8451  0.4670 -0.0022
  263MOL0     H35497   4.808   8.117   2.752  0.6653  0.9528  0.0888
  263MOL0     H35498   4.885   7.956   2.752  0.0386  0.5275 -0.5467
  263MOL0     H35499   4.993   8.198   2.597 -0.8373  1.0950 -0.7417
  263MOL0     H35500   5.045   8.024   2.576 -1.7932 -2.0651 -0.0321
  263MOL0     H35501   4.715   7.995   2.323 -1.7810  2.3279 -0.4808
  263MOL0     H35502   5.159   8.220   3.281  0.2160  1.4549  1.0049
  263MOL0     H35503   5.310   8.326   3.404 -0.1085 -1.9790 -1.4541
  263MOL0     H35504   5.451   8.343   3.304 -0.7259 -0.7266  0.0567
  263MOL0     H35505   5.358   8.488   3.359 -0.9316 -0.4162 -2.1597
  264MOL0     O35506   9.631   4.678   7.128  0.1829  0.1393 -0.8356
  264MOL0     C35507   9.557   4.764   7.186 -0.3107  0.4735  0.5141
  264MOL0     O35508   9.441   4.812   7.135 -0.5062  0.5271  0.4601
  264MOL0     C35509   9.360   4.755   7.040 -0.2839 -0.6123 -0.0410
  264MOL0     C35510   9.287   4.850   6.975 -0.8764 -0.4221  1.0002
  264MOL0     C35511   9.184   4.819   6.891 -0.0767 -0.6420 -0.3372
  264MOL0     C35512   9.150   4.678   6.872 -1.8615  0.2085  0.1144
  264MOL0     O35513   9.056   4.645   6.781 -0.3858 -1.0375  0.3350
  264MOL0     C35514   9.088   4.553   6.671 -0.3535 -0.0390  0.5202
  264MOL0     C35515   9.121   4.644   6.553  1.4781 -0.2451  0.1272
  264MOL0     C35516   8.985   4.694   6.489  0.4495 -0.2142  0.8599
  264MOL0     C35517   8.877   4.751   6.581 -0.1881  0.0573 -0.9210
  264MOL0     C35518   8.761   4.836   6.512  0.6063 -0.4287 -0.0299
  264MOL0     C35519   8.673   4.754   6.421  0.8626  0.3120  0.5974
  264MOL0     C35520   8.563   4.849   6.378 -0.1336  0.2705  0.3020
  264MOL0     C35521   8.463   4.782   6.288 -0.7310  0.6398 -0.0753
  264MOL0     N35522   8.344   4.868   6.260 -0.5372  0.5971 -0.5975
  264MOL0     C35523   8.222   4.869   6.337  0.3437 -0.0755  1.1517
  264MOL0     C35524   8.145   4.960   6.270  0.4295  0.1023 -0.4351
  264MOL0     C35525   8.009   5.001   6.309 -0.2010 -0.6220  0.0430
  264MOL0     C35526   7.901   4.931   6.225 -0.1844 -0.7660  0.1340
  264MOL0     C35527   7.759   4.986   6.264 -1.5558  0.1662  0.1718
  264MOL0     C35528   7.703   4.926   6.392 -0.2711 -0.1120 -0.3296
  264MOL0     O35529   7.567   4.969   6.387  0.4456  0.1934 -1.2687
  264MOL0     C35530   7.467   4.898   6.329 -0.1501  0.3197  0.5246
  264MOL0     C35531   7.338   4.949   6.338  0.4872 -1.0730 -0.5719
  264MOL0     C35532   7.225   4.899   6.278  0.0046 -0.1152 -0.3755
  264MOL0     C35533   7.240   4.767   6.218  0.1862 -0.0994 -0.2417
  264MOL0     C35534   7.132   4.708   6.144 -0.4326 -0.5755 -0.4695
  264MOL0     O35535   7.015   4.767   6.146 -0.0256  0.4627  0.4197
  264MOL0     C35536   6.908   4.686   6.132  0.0247  0.1852  1.0721
  264MOL0     C35537   6.830   4.657   6.239 -0.3334  0.7326 -0.1075
  264MOL0     C35538   6.722   4.582   6.217  0.3631 -0.5788  0.3122
  264MOL0     C35539   6.682   4.546   6.093 -0.1843  0.3645  0.5013
  264MOL0     O35540   6.557   4.494   6.070  0.1078 -0.4683 -0.1012
  264MOL0     C35541   6.569   4.350   6.051 -0.8979 -0.5820  0.1023
  264MOL0     C35542   6.430   4.280   6.035  0.1757 -0.7467  0.0204
  264MOL0     C35543   6.394   4.192   6.152  0.1319 -0.4711 -0.3087
  264MOL0     C35544   6.256   4.112   6.137  0.1885 -0.7103  0.2147
  264MOL0     C35545   6.146   4.215   6.177 -0.8159  0.1562  0.0078
  264MOL0     C35546   6.016   4.196   6.115 -0.1758 -0.6922  0.1818
  264MOL0     C35547   5.953   4.046   6.106  0.3639 -0.5268 -0.9522
  264MOL0     C35548   5.870   4.025   5.981  0.5385 -0.0369  0.0487
  264MOL0    Cl35549   5.969   4.077   5.826 -0.1222  0.4546  0.0520
  264MOL0     C35550   6.755   4.584   5.979  0.5223 -0.4408 -0.1227
  264MOL0     C35551   6.871   4.654   5.997 -0.7445 -0.0334  0.2481
  264MOL0     O35552   7.153   4.593   6.110  0.2281 -0.0847  0.2214
  264MOL0     C35553   7.372   4.709   6.212  1.1046 -0.6318  0.6122
  264MOL0     C35554   7.486   4.769   6.275  0.4187 -1.3285 -0.7993
  264MOL0     N35555   8.231   5.028   6.190  0.2857 -0.0297  0.4609
  264MOL0     N35556   8.344   4.973   6.172  0.4522  0.4011 -0.9132
  264MOL0     C35557   9.215   4.577   6.947 -1.2594  0.4791  1.3187
  264MOL0     C35558   9.324   4.616   7.034  0.3834 -0.4233  0.0955
  264MOL0     C35559   9.588   4.799   7.326  0.6396  0.5570 -0.4532
  264MOL0     C35560   9.499   4.894   7.386 -0.2759  0.8571 -0.1140
  264MOL0     C35561   9.517   4.952   7.515 -1.0045 -0.3676 -0.9314
  264MOL0     C35562   9.627   4.908   7.584  0.3793 -0.7331  0.3951
  264MOL0     O35563   9.658   4.943   7.717  0.5558 -0.4227 -0.1090
  264MOL0     C35564   9.669   5.078   7.743 -0.6994  0.4412  0.8223
  264MOL0     C35565   9.674   5.103   7.898 -0.1212 -0.3295 -0.5288
  264MOL0     C35566   9.725   5.251   7.919  0.5410 -0.0149  0.3144
  264MOL0     C35567   9.620   5.357   7.910  0.1168 -0.5945 -0.1450
  264MOL0     C35568   9.530   5.360   8.031  0.1839 -0.5404 -0.2857
  264MOL0     C35569   9.454   5.341   8.128 -0.0118  0.3693  0.2236
  264MOL0     C35570   9.716   4.807   7.534  0.9287  0.1244  0.1814
  264MOL0     C35571   9.691   4.745   7.410  0.2527  0.0350 -0.4986
  264MOL0     C35572   9.792   4.645   7.364  0.3443  0.0734  0.7837
  264MOL0     H35573   9.311   4.948   7.014  4.0347 -1.2019  0.6200
  264MOL0     H35574   9.118   4.892   6.844 -1.4298 -1.2533  0.5360
  264MOL0     H35575   9.176   4.490   6.688 -1.6233 -2.2887 -0.6827
  264MOL0     H35576   9.008   4.479   6.659  2.1893 -3.2182  1.6471
  264MOL0     H35577   9.171   4.595   6.469  3.1980  0.4168  0.7292
  264MOL0     H35578   9.184   4.726   6.586 -0.6520  1.5619 -0.0570
  264MOL0     H35579   8.943   4.614   6.428 -0.2656  1.4201 -0.8731
  264MOL0     H35580   9.023   4.768   6.418 -2.6006  1.0385  0.4146
  264MOL0     H35581   8.826   4.674   6.637  2.9842 -0.8972  0.9231
  264MOL0     H35582   8.919   4.819   6.656  1.0311  1.3411 -2.6625
  264MOL0     H35583   8.702   4.863   6.599 -0.2498 -1.2171 -0.3558
  264MOL0     H35584   8.793   4.920   6.449 -2.1095  0.1500 -0.7743
  264MOL0     H35585   8.731   4.717   6.336  1.0623  2.4512 -0.2454
  264MOL0     H35586   8.631   4.678   6.488  1.8392  3.0272  4.6115
  264MOL0     H35587   8.612   4.931   6.325  2.0354 -1.0377  0.1511
  264MOL0     H35588   8.510   4.894   6.463  1.1171  0.6943  0.8871
  264MOL0     H35589   8.508   4.745   6.195  0.1112 -2.0404  1.2997
  264MOL0     H35590   8.437   4.687   6.336  2.9310  0.2480  1.4802
  264MOL0     H35591   8.206   4.808   6.425  2.0269 -2.9348 -0.3359
  264MOL0     H35592   7.999   4.985   6.417 -1.5504  0.4431  0.1022
  264MOL0     H35593   7.992   5.106   6.283 -0.4876 -1.2186 -2.3475
  264MOL0     H35594   7.922   4.939   6.118  1.1459 -0.0906  0.4316
  264MOL0     H35595   7.896   4.822   6.235 -0.8566 -0.5994  2.0279
  264MOL0     H35596   7.688   4.975   6.182  0.8166 -2.5841 -1.7107
  264MOL0     H35597   7.768   5.093   6.288  0.9483  0.3372 -1.1327
  264MOL0     H35598   7.743   4.964   6.487  1.2618 -2.0614 -0.1342
  264MOL0     H35599   7.715   4.818   6.403  0.8436  0.0437  0.1498
  264MOL0     H35600   7.341   5.040   6.397 -1.0861 -2.4277  1.7914
  264MOL0     H35601   7.126   4.944   6.278 -0.9657 -2.1458 -1.1588
  264MOL0     H35602   6.851   4.699   6.337 -3.4241  1.3258  0.3998
  264MOL0     H35603   6.665   4.545   6.302 -1.4085 -2.2646 -1.4988
  264MOL0     H35604   6.617   4.329   5.956 -0.8691 -2.0880  0.4372
  264MOL0     H35605   6.632   4.319   6.135 -2.3253 -2.5341  0.5272
  264MOL0     H35606   6.355   4.359   6.022 -0.6927 -1.0465  2.6235
  264MOL0     H35607   6.436   4.225   5.941 -1.9324  2.0266 -1.9097
  264MOL0     H35608   6.468   4.114   6.172  0.4443 -0.3257 -0.8798
  264MOL0     H35609   6.404   4.248   6.246  0.7479 -0.6580 -0.2579
  264MOL0     H35610   6.256   4.020   6.197 -0.9998 -1.0892 -0.3227
  264MOL0     H35611   6.258   4.085   6.031  2.4520 -0.7867  0.2194
  264MOL0     H35612   6.176   4.318   6.157  2.5022 -0.9057 -1.2841
  264MOL0     H35613   6.143   4.213   6.286  2.2621  0.7257  0.1918
  264MOL0     H35614   5.948   4.264   6.167  0.4480  0.3427 -0.3033
  264MOL0     H35615   6.026   4.237   6.014 -2.1378  3.3722  1.4352
  264MOL0     H35616   5.902   4.030   6.202  1.9168 -0.3409 -0.0672
  264MOL0     H35617   6.026   3.965   6.116 -0.9911 -1.6725  0.2122
  264MOL0     H35618   5.821   3.927   5.976  0.9457 -0.1714 -2.0268
  264MOL0     H35619   5.793   4.103   5.987  0.5133 -0.0554 -0.0271
  264MOL0     H35620   6.716   4.558   5.881 -2.6177 -1.6677  1.3169
  264MOL0     H35621   6.929   4.685   5.910 -2.8900  1.5284 -0.7188
  264MOL0     H35622   7.388   4.617   6.157 -1.6800 -1.3240  0.8532
  264MOL0     H35623   7.579   4.715   6.284  0.6464 -0.5782  5.1563
  264MOL0     H35624   9.188   4.473   6.963 -0.5195  0.4225  2.3470
  264MOL0     H35625   9.389   4.547   7.088 -1.2170 -0.9328  1.4488
  264MOL0     H35626   9.419   4.928   7.322 -0.1849 -3.4087 -2.8629
  264MOL0     H35627   9.448   5.032   7.537 -0.1527 -0.0180  0.6777
  264MOL0     H35628   9.577   5.120   7.700  0.4769 -0.1828 -2.5175
  264MOL0     H35629   9.753   5.121   7.688 -0.9001  0.8287  0.8089
  264MOL0     H35630   9.750   5.033   7.933 -0.8197 -0.6876  0.2849
  264MOL0     H35631   9.578   5.069   7.938  0.0844  0.2731  0.5151
  264MOL0     H35632   9.804   5.259   7.844 -0.4476  0.2750 -0.7229
  264MOL0     H35633   9.763   5.263   8.021  2.7784  1.9044 -0.6551
  264MOL0     H35634   9.674   5.451   7.893 -2.0269  0.8505  0.6203
  264MOL0     H35635   9.554   5.341   7.825 -4.0197 -1.1625  2.8597
  264MOL0     H35636   9.379   5.344   8.204  1.8380  3.7554  2.1415
  264MOL0     H35637   9.801   4.787   7.599  0.4422 -0.6241  0.6033
  264MOL0     H35638   9.748   4.546   7.375 -1.6220  0.9500  1.2806
  264MOL0     H35639   9.818   4.651   7.258  1.5254  1.9721  1.1174
  264MOL0     H35640   9.887   4.647   7.418  0.8115 -0.9170  0.0234
  265MOL0     O35641  10.248   4.466   2.716 -0.5422  0.8303 -0.7759
  265MOL0     C35642  10.231   4.524   2.614  0.2145 -0.4970 -0.0268
  265MOL0     O35643  10.322   4.569   2.533  0.2754  0.0031 -0.2273
  265MOL0     C35644  10.455   4.575   2.576  0.2162 -0.7264  0.8428
  265MOL0     C35645  10.503   4.645   2.686 -0.7336  0.0449 -0.1859
  265MOL0     C35646  10.644   4.656   2.702  0.2646 -1.5151  0.2357
  265MOL0     C35647  10.725   4.621   2.606 -0.7341  0.5464  0.0451
  265MOL0     O35648  10.861   4.636   2.629 -0.1579  0.6299 -0.3059
  265MOL0     C35649  10.955   4.580   2.541  0.5624  0.3821 -0.0137
  265MOL0     C35650  11.095   4.586   2.597  0.1166 -0.1435  0.1687
  265MOL0     C35651  11.123   4.486   2.710 -0.0949 -0.5029  0.8887
  265MOL0     C35652  11.280   4.466   2.730  0.2400 -0.5859  0.3715
  265MOL0     C35653  11.295   4.364   2.846  0.3179 -0.3657 -0.4332
  265MOL0     C35654  11.444   4.321   2.854  0.2203 -0.3835  0.0601
  265MOL0     C35655  11.532   4.423   2.935  0.0828 -0.0167  0.4794
  265MOL0     C35656  11.548   4.384   3.084  0.1494 -0.2149  0.5040
  265MOL0     N35657  11.652   4.453   3.148 -0.2804 -0.6083 -0.5473
  265MOL0     C35658  11.777   4.420   3.178  0.9515  0.1091 -0.5693
  265MOL0     C35659  11.843   4.524   3.232 -0.5692  0.0960 -0.0913
  265MOL0     C35660  11.986   4.535   3.270 -0.1095  0.2886  1.1063
  265MOL0     C35661  12.038   4.394   3.306 -0.3388  0.5153  0.4230
  265MOL0     C35662  12.174   4.414   3.366 -0.2737  0.5135  1.0308
  265MOL0     C35663  12.246   4.283   3.402  0.1847 -0.7359  0.3325
  265MOL0     O35664  12.212   4.247   3.534 -0.2363 -0.6345  0.0763
  265MOL0     C35665  12.300   4.279   3.634 -0.3604  0.7959  0.2322
  265MOL0     C35666  12.286   4.192   3.742  0.4443 -0.2434 -0.0651
  265MOL0     C35667  12.368   4.208   3.857 -1.3971 -0.2536  0.3363
  265MOL0     C35668  12.468   4.300   3.865 -0.0296 -0.8098  0.5624
  265MOL0     C35669  12.539   4.334   3.993 -0.2552 -1.1831 -0.0068
  265MOL0     O35670  12.615   4.452   3.992 -0.0437  0.7332  0.0136
  265MOL0     C35671  12.683   4.484   4.108  0.1414  0.6152 -0.3234
  265MOL0     C35672  12.640   4.612   4.159 -0.3975 -0.3669 -0.2119
  265MOL0     C35673  12.702   4.659   4.274 -0.1398 -0.5942  0.2309
  265MOL0     C35674  12.801   4.588   4.342 -0.6278 -0.4937 -0.0006
  265MOL0     O35675  12.850   4.627   4.468  1.0243 -0.5673 -0.1372
  265MOL0     C35676  12.899   4.763   4.463  0.4613  0.8889 -0.1387
  265MOL0     C35677  13.022   4.771   4.566 -0.4267 -0.4047 -0.6364
  265MOL0     C35678  12.962   4.796   4.704  0.0862 -0.0567 -0.0869
  265MOL0     C35679  13.028   4.703   4.812  0.2233 -0.0783  0.2843
  265MOL0     C35680  13.166   4.738   4.851  0.3812  0.5046  0.1070
  265MOL0     C35681  13.216   4.879   4.881 -0.9259 -0.3031 -0.6644
  265MOL0     C35682  13.121   4.953   4.968  0.1808  0.2077 -1.0017
  265MOL0     C35683  13.171   5.091   5.006 -0.6523 -0.3029 -0.5369
  265MOL0    Cl35684  13.308   5.083   5.134  0.1997  0.0638  0.6694
  265MOL0     C35685  12.829   4.465   4.293 -0.9440  0.1599  0.3373
  265MOL0     C35686  12.775   4.406   4.179  0.0229 -0.0480  0.6132
  265MOL0     O35687  12.520   4.260   4.090  0.0916 -0.6711  0.8482
  265MOL0     C35688  12.486   4.384   3.756 -0.1116 -0.8064 -0.4079
  265MOL0     C35689  12.398   4.383   3.649 -0.7406 -0.0442 -0.0616
  265MOL0     N35690  11.748   4.625   3.237  0.0967 -0.1443  0.1129
  265MOL0     N35691  11.638   4.584   3.188 -0.1011  0.7004 -0.0524
  265MOL0     C35692  10.674   4.552   2.489 -0.3612  0.4018 -0.0927
  265MOL0     C35693  10.539   4.538   2.476  0.0854  0.4771 -0.0043
  265MOL0     C35694  10.094   4.542   2.564 -0.6144  0.4068 -0.6005
  265MOL0     C35695  10.056   4.661   2.494 -0.7942 -0.2032 -0.1526
  265MOL0     C35696   9.928   4.667   2.439  0.5601  0.2060  0.0843
  265MOL0     C35697   9.828   4.565   2.453 -0.4699 -0.8789  0.1118
  265MOL0     O35698   9.705   4.584   2.393  0.5151  0.6555 -0.1199
  265MOL0     C35699   9.609   4.667   2.461 -0.7449 -0.9027  0.3359
  265MOL0     C35700   9.516   4.743   2.367 -0.0467 -0.5579  0.4107
  265MOL0     C35701   9.610   4.845   2.299  1.2473  0.0035 -0.2042
  265MOL0     C35702   9.528   4.928   2.200  0.2026 -0.5828  0.1241
  265MOL0     C35703   9.472   5.047   2.254 -0.6137 -0.6708 -1.0318
  265MOL0     C35704   9.420   5.147   2.306  0.1757  1.2202  1.2216
  265MOL0     C35705   9.862   4.454   2.533 -0.3420  0.7285  0.1836
  265MOL0     C35706   9.994   4.438   2.584  0.5020  0.5967 -0.0716
  265MOL0     C35707  10.022   4.315   2.670 -0.4727  0.7157 -0.6548
  265MOL0     H35708  10.433   4.686   2.758  0.5847 -2.2970  2.6393
  265MOL0     H35709  10.694   4.701   2.787  0.6424 -3.3740  1.0594
  265MOL0     H35710  10.938   4.477   2.507 -0.3257  0.7288 -0.6467
  265MOL0     H35711  10.943   4.635   2.447  1.3234 -1.4802 -1.2475
  265MOL0     H35712  11.131   4.687   2.619  0.5350 -0.2328 -0.0917
  265MOL0     H35713  11.156   4.552   2.514  0.7127 -1.1518  0.9933
  265MOL0     H35714  11.071   4.392   2.689 -3.7827  1.3921  0.6983
  265MOL0     H35715  11.085   4.523   2.805 -2.2514 -1.6609  0.5510
  265MOL0     H35716  11.316   4.426   2.635  0.6310 -0.1451  0.3326
  265MOL0     H35717  11.327   4.560   2.759 -1.7401  1.8339 -3.4631
  265MOL0     H35718  11.268   4.401   2.945  1.3077 -2.0671  0.5142
  265MOL0     H35719  11.229   4.280   2.825 -0.6990  0.5349 -0.9752
  265MOL0     H35720  11.453   4.229   2.912 -4.4208 -0.5639  0.8592
  265MOL0     H35721  11.484   4.303   2.753  0.3721 -1.2824  0.2722
  265MOL0     H35722  11.490   4.524   2.939  1.4234  0.6250  5.1238
  265MOL0     H35723  11.623   4.437   2.876 -0.2832  1.5847  0.2431
  265MOL0     H35724  11.454   4.392   3.140 -1.2052 -4.7266 -0.7694
  265MOL0     H35725  11.570   4.277   3.087 -4.1954 -1.3925 -1.4078
  265MOL0     H35726  11.810   4.323   3.141 -2.1190 -0.7701 -1.3467
  265MOL0     H35727  12.046   4.584   3.193  0.1284  0.6819  1.5375
  265MOL0     H35728  11.988   4.602   3.356 -0.9479 -1.6459  2.7273
  265MOL0     H35729  11.972   4.351   3.381  1.7248 -0.8146  1.5966
  265MOL0     H35730  12.054   4.326   3.222 -0.7090 -1.4130  1.8335
  265MOL0     H35731  12.154   4.483   3.449 -2.7197  4.1203 -2.1676
  265MOL0     H35732  12.233   4.465   3.289 -0.3712 -3.0814 -1.6759
  265MOL0     H35733  12.355   4.291   3.390 -0.1398  0.9876 -2.1148
  265MOL0     H35734  12.213   4.206   3.332  2.0117  0.1947 -1.6561
  265MOL0     H35735  12.201   4.124   3.746 -1.1438  1.6470 -0.1760
  265MOL0     H35736  12.346   4.138   3.937 -2.5164  0.6562  0.8485
  265MOL0     H35737  12.567   4.669   4.102 -0.2784 -1.8762 -1.9547
  265MOL0     H35738  12.660   4.748   4.320 -3.2936 -2.0866  0.4704
  265MOL0     H35739  12.941   4.789   4.365  2.2912 -0.2345  0.3088
  265MOL0     H35740  12.818   4.829   4.496 -1.2487 -1.1363 -0.0804
  265MOL0     H35741  13.084   4.683   4.552  0.7125  0.2874 -0.1265
  265MOL0     H35742  13.082   4.861   4.551 -1.0880 -0.1196 -1.7259
  265MOL0     H35743  12.969   4.902   4.734 -1.2910  0.2338 -0.7350
  265MOL0     H35744  12.853   4.786   4.700  0.2615 -2.1043 -0.4032
  265MOL0     H35745  13.045   4.598   4.785 -0.8561 -0.7488  2.0123
  265MOL0     H35746  12.966   4.696   4.902 -1.5752  0.1238 -0.9014
  265MOL0     H35747  13.240   4.702   4.780  1.6243  2.7499  0.1578
  265MOL0     H35748  13.181   4.668   4.934  2.9677 -2.1091 -2.3734
  265MOL0     H35749  13.318   4.876   4.922 -0.2503 -1.3277 -2.3398
  265MOL0     H35750  13.233   4.940   4.792  5.2205  1.9683  1.5423
  265MOL0     H35751  13.110   4.897   5.062 -0.3521  1.8337 -0.0418
  265MOL0     H35752  13.014   4.960   4.946 -0.9900  1.3496  3.8413
  265MOL0     H35753  13.194   5.155   4.921 -1.6615 -0.0634 -0.6420
  265MOL0     H35754  13.103   5.142   5.075  1.4190  0.6489  0.9178
  265MOL0     H35755  12.900   4.412   4.356 -3.1461 -0.4693  2.4568
  265MOL0     H35756  12.807   4.308   4.145 -2.2549 -1.1506  1.4660
  265MOL0     H35757  12.558   4.465   3.763 -1.4710  0.3685  0.5175
  265MOL0     H35758  12.424   4.455   3.572 -0.0244  3.4166  3.1035
  265MOL0     H35759  10.735   4.530   2.402 -1.7160 -0.6129 -0.8222
  265MOL0     H35760  10.502   4.493   2.384  2.3420  1.4052 -1.4581
  265MOL0     H35761  10.124   4.745   2.489  0.5388 -0.9130  3.1944
  265MOL0     H35762   9.913   4.753   2.374  1.8038 -0.3113 -0.9386
  265MOL0     H35763   9.661   4.739   2.525  0.4144 -0.1347 -1.4164
  265MOL0     H35764   9.539   4.608   2.523 -2.1915 -0.1980 -0.5817
  265MOL0     H35765   9.438   4.794   2.424  1.0742  0.5523  0.9768
  265MOL0     H35766   9.465   4.677   2.295  0.0823  0.6012 -0.7753
  265MOL0     H35767   9.695   4.796   2.250  0.3948 -0.9026 -0.8201
  265MOL0     H35768   9.647   4.912   2.377  2.7998 -0.9081 -0.1317
  265MOL0     H35769   9.599   4.947   2.119 -0.4413 -0.0024 -0.3070
  265MOL0     H35770   9.452   4.863   2.157 -1.6010  1.3266  0.2876
  265MOL0     H35771   9.359   5.221   2.354 -4.2939 -2.0010  1.1895
  265MOL0     H35772   9.789   4.373   2.532 -0.6398  0.9766  0.9761
  265MOL0     H35773   9.950   4.232   2.666  0.6289 -0.3977  1.2277
  265MOL0     H35774  10.122   4.272   2.659 -1.3036 -2.0336  1.2815
  265MOL0     H35775  10.018   4.342   2.775 -0.2467 -2.0809  0.1537
  266MOL0     O35776   0.855  10.984   8.067 -0.2839 -0.1277  0.0390
  266MOL0     C35777   0.912  11.074   8.129  0.4978 -0.2239 -0.1362
  266MOL0     O35778   0.860  11.191   8.158  0.7080 -0.5956 -0.6446
  266MOL0     C35779   0.725  11.228   8.126  0.2669 -0.1235 -0.5690
  266MOL0     C35780   0.688  11.269   8.002  0.3470 -0.5662  0.3925
  266MOL0     C35781   0.567  11.317   7.976  1.0143  0.1074  0.1469
  266MOL0     C35782   0.462  11.315   8.071  1.1092  0.6781  0.2560
  266MOL0     O35783   0.342  11.369   8.029 -0.0571  0.4869 -0.1703
  266MOL0     C35784   0.228  11.342   8.113  0.1247  0.6957 -1.0131
  266MOL0     C35785   0.110  11.348   8.015  0.0425  0.3926 -0.1964
  266MOL0     C35786   0.103  11.212   7.938 -0.5604  0.2493 -0.5132
  266MOL0     C35787  -0.044  11.186   7.902  0.6097  0.6638 -0.7428
  266MOL0     C35788  -0.053  11.054   7.826  0.2153  1.1567  1.1369
  266MOL0     C35789  -0.199  11.020   7.776  0.5476  0.0464 -0.2088
  266MOL0     C35790  -0.194  10.890   7.698 -0.7425 -0.0079 -0.0480
  266MOL0     C35791  -0.328  10.851   7.634  0.3472  0.0189 -0.8468
  266MOL0     N35792  -0.421  10.835   7.751  0.1421  0.8360  0.5253
  266MOL0     C35793  -0.529  10.916   7.767 -0.4012 -0.8009  0.1228
  266MOL0     C35794  -0.617  10.848   7.849  0.3538  0.1875  1.1362
  266MOL0     C35795  -0.737  10.907   7.913 -1.3269 -0.5175 -0.6839
  266MOL0     C35796  -0.850  10.942   7.821 -0.0804 -0.2511  0.0915
  266MOL0     C35797  -0.949  11.022   7.886 -0.1098 -0.0671  0.4505
  266MOL0     C35798  -1.001  10.966   8.020 -0.5183  0.4375  0.2478
  266MOL0     O35799  -1.056  10.836   7.997 -0.2674  0.3549  0.2394
  266MOL0     C35800  -1.137  10.770   8.081 -0.1996 -0.9091  0.2952
  266MOL0     C35801  -1.202  10.654   8.036  0.2874  0.9941 -0.3485
  266MOL0     C35802  -1.277  10.577   8.123  0.3935  0.6747  0.2650
  266MOL0     C35803  -1.307  10.624   8.248  0.1569 -0.1752  0.2976
  266MOL0     C35804  -1.405  10.554   8.331  0.1393  1.1046  0.0522
  266MOL0     O35805  -1.445  10.610   8.451 -0.4120 -0.2059 -0.4566
  266MOL0     C35806  -1.573  10.565   8.493 -0.0982 -0.3775  0.5107
  266MOL0     C35807  -1.689  10.634   8.450  0.4945  0.6637  0.2482
  266MOL0     C35808  -1.814  10.589   8.489 -0.1476  0.2523  0.1390
  266MOL0     C35809  -1.821  10.476   8.574  0.0345 -0.4605  0.7316
  266MOL0     O35810  -1.940  10.437   8.638  0.4192  0.1349  0.2805
  266MOL0     C35811  -2.038  10.544   8.655  0.0418 -0.0653  0.4429
  266MOL0     C35812  -2.151  10.476   8.740 -0.1911  0.2109  1.0928
  266MOL0     C35813  -2.241  10.577   8.812 -0.0713  0.3825 -0.2700
  266MOL0     C35814  -2.386  10.520   8.843  0.7915  0.6996 -0.0796
  266MOL0     C35815  -2.391  10.367   8.878 -0.2448 -0.4294 -0.2275
  266MOL0     C35816  -2.529  10.323   8.922  0.2686 -0.4098 -0.2704
  266MOL0     C35817  -2.537  10.178   8.978 -0.4349  0.2039  0.1009
  266MOL0     C35818  -2.681  10.125   9.012 -0.5862 -0.2724 -0.2469
  266MOL0    Cl35819  -2.694   9.961   9.069 -0.5454  0.4341  0.1220
  266MOL0     C35820  -1.713  10.407   8.616 -0.6754  0.6269 -1.3727
  266MOL0     C35821  -1.582  10.450   8.580  0.0355  0.2235  0.0380
  266MOL0     O35822  -1.459  10.460   8.275 -0.2957  0.1795  0.6454
  266MOL0     C35823  -1.250  10.754   8.282 -0.0012 -0.0123  0.0724
  266MOL0     C35824  -1.167  10.821   8.203 -0.0328 -0.8701 -0.7452
  266MOL0     N35825  -0.549  10.738   7.892 -0.6353  0.4083 -0.0738
  266MOL0     N35826  -0.434  10.723   7.833 -0.5165 -1.3776 -0.0484
  266MOL0     C35827   0.492  11.276   8.201 -0.3556 -0.3250  0.2424
  266MOL0     C35828   0.629  11.232   8.224  1.2676 -0.6744 -0.0615
  266MOL0     C35829   1.063  11.061   8.152 -0.0540  0.6987  0.0094
  266MOL0     C35830   1.136  11.171   8.108  1.6213  0.8207 -0.2667
  266MOL0     C35831   1.271  11.173   8.122 -0.2235  0.2018 -0.0173
  266MOL0     C35832   1.336  11.066   8.187 -0.3175 -0.3429 -0.2550
  266MOL0     O35833   1.471  11.081   8.225 -0.0421 -0.3986 -0.2868
  266MOL0     C35834   1.536  10.993   8.319  0.2303 -0.0822  0.0043
  266MOL0     C35835   1.653  11.057   8.399 -0.7529  0.4974 -0.2009
  266MOL0     C35836   1.781  11.075   8.314  0.5180  0.1106  0.3893
  266MOL0     C35837   1.836  10.939   8.256  0.0651  0.3590  0.1278
  266MOL0     C35838   1.829  10.824   8.352 -0.3076  0.6051  0.4374
  266MOL0     C35839   1.823  10.726   8.427 -0.3837  0.1150 -0.5425
  266MOL0     C35840   1.270  10.953   8.209  0.4074  0.0312 -0.4990
  266MOL0     C35841   1.133  10.949   8.202  0.5596 -0.0280  0.6473
  266MOL0     C35842   1.066  10.819   8.220 -0.2242  0.8609 -0.2805
  266MOL0     H35843   0.753  11.268   7.915 -2.6468 -1.6855 -1.9949
  266MOL0     H35844   0.545  11.365   7.881 -1.4553 -2.1986 -0.5699
  266MOL0     H35845   0.240  11.249   8.170 -1.7780  0.9320 -0.1625
  266MOL0     H35846   0.210  11.428   8.177 -2.2919  0.8603 -1.8096
  266MOL0     H35847   0.125  11.436   7.952  1.3525  0.9282  0.8320
  266MOL0     H35848   0.027  11.358   8.086 -0.1633 -0.3137 -0.3289
  266MOL0     H35849   0.156  11.130   7.988  0.9293  1.6926  0.3998
  266MOL0     H35850   0.162  11.225   7.847 -1.1202 -1.9969 -1.2594
  266MOL0     H35851  -0.097  11.168   7.995  1.8093 -4.5172 -0.7296
  266MOL0     H35852  -0.096  11.270   7.856 -1.4796  0.3451  0.8695
  266MOL0     H35853   0.000  11.058   7.730  0.6117  0.2128  1.3112
  266MOL0     H35854  -0.007  10.976   7.888  0.3769  0.2171 -0.1289
  266MOL0     H35855  -0.265  11.015   7.863  0.6524 -2.0005 -0.2042
  266MOL0     H35856  -0.237  11.102   7.715  1.0462  0.3800 -0.0817
  266MOL0     H35857  -0.157  10.811   7.764 -0.0658  0.0755 -0.3153
  266MOL0     H35858  -0.113  10.887   7.624  0.5372  3.1719  1.0540
  266MOL0     H35859  -0.373  10.917   7.560  0.9922  1.3440 -0.0827
  266MOL0     H35860  -0.315  10.763   7.570  3.3230  1.0309 -1.8081
  266MOL0     H35861  -0.558  11.014   7.729 -3.3697 -0.4571  2.8487
  266MOL0     H35862  -0.780  10.838   7.986  1.3386  0.3697  1.9341
  266MOL0     H35863  -0.711  10.994   7.975 -0.9184 -1.6797  0.8331
  266MOL0     H35864  -0.809  10.977   7.726 -0.2949 -2.1884 -0.7889
  266MOL0     H35865  -0.902  10.851   7.788 -1.2170 -0.2072  1.6768
  266MOL0     H35866  -1.038  11.023   7.821  0.2460 -1.8879 -0.1122
  266MOL0     H35867  -0.904  11.120   7.901 -0.9375  0.8124 -2.2642
  266MOL0     H35868  -1.080  11.033   8.055 -0.0784  0.9058  0.3459
  266MOL0     H35869  -0.917  10.962   8.090  1.3971  0.4608 -1.9299
  266MOL0     H35870  -1.189  10.616   7.935 -3.8393 -0.3939 -0.5804
  266MOL0     H35871  -1.316  10.478   8.098 -2.0518  1.1516  1.8973
  266MOL0     H35872  -1.690  10.720   8.384 -1.7488 -1.6552 -3.0479
  266MOL0     H35873  -1.900  10.647   8.457 -2.7210 -3.5240 -0.4828
  266MOL0     H35874  -1.987  10.625   8.707 -0.4840 -0.2304  1.2350
  266MOL0     H35875  -2.079  10.563   8.556 -3.7608 -1.4916  1.5597
  266MOL0     H35876  -2.206  10.412   8.671 -1.9024  1.4412  1.2504
  266MOL0     H35877  -2.106  10.408   8.813 -0.8793 -2.1290 -0.5637
  266MOL0     H35878  -2.189  10.595   8.906  0.1507  2.4896 -0.7497
  266MOL0     H35879  -2.247  10.673   8.760  0.4952  0.8374  0.4772
  266MOL0     H35880  -2.444  10.536   8.752 -0.0821  1.5431  0.5947
  266MOL0     H35881  -2.435  10.577   8.923  0.9357 -0.2494  0.7119
  266MOL0     H35882  -2.321  10.369   8.962 -1.0944 -1.4068  0.5441
  266MOL0     H35883  -2.363  10.294   8.802  0.0840  2.2155 -2.8122
  266MOL0     H35884  -2.563  10.387   9.004 -1.7309 -0.1533 -1.2377
  266MOL0     H35885  -2.594  10.340   8.835 -1.0827  1.4215  1.0314
  266MOL0     H35886  -2.475  10.167   9.068 -1.7776 -0.1558  1.0061
  266MOL0     H35887  -2.500  10.111   8.900 -1.5818  2.2690 -2.3875
  266MOL0     H35888  -2.721  10.187   9.092 -0.8574 -0.0042 -0.5849
  266MOL0     H35889  -2.751  10.152   8.933 -1.4404  0.9717  0.8958
  266MOL0     H35890  -1.722  10.332   8.694  2.4982  2.9166  1.5508
  266MOL0     H35891  -1.489  10.396   8.591  0.4033  0.9514  0.5945
  266MOL0     H35892  -1.282  10.803   8.374 -3.5053 -0.6207 -0.6613
  266MOL0     H35893  -1.119  10.903   8.256 -1.8254  0.0712 -0.5046
  266MOL0     H35894   0.423  11.289   8.285 -0.9465  2.6007 -0.5625
  266MOL0     H35895   0.661  11.215   8.326  0.7798 -0.8271  0.0709
  266MOL0     H35896   1.088  11.258   8.065  0.0773 -0.0056 -0.2802
  266MOL0     H35897   1.329  11.252   8.074  1.8921 -2.4107 -2.1021
  266MOL0     H35898   1.568  10.906   8.261 -0.7714 -0.9232  0.6670
  266MOL0     H35899   1.470  10.954   8.398  0.0714  1.1746  0.5107
  266MOL0     H35900   1.687  11.003   8.488  0.9605  1.2349 -0.3867
  266MOL0     H35901   1.628  11.152   8.448 -0.9441  1.1047 -1.4436
  266MOL0     H35902   1.858  11.107   8.386  0.8238  1.9898 -0.7185
  266MOL0     H35903   1.771  11.152   8.238  2.8348  0.8378  0.7178
  266MOL0     H35904   1.782  10.900   8.169  1.4901 -4.8545  1.1745
  266MOL0     H35905   1.941  10.952   8.226 -0.1815  0.9003 -0.5309
  266MOL0     H35906   1.826  10.646   8.499 -1.0628  2.5147  2.3476
  266MOL0     H35907   1.332  10.872   8.249 -0.2821 -0.0381  0.4577
  266MOL0     H35908   1.099  10.748   8.296 -2.2445  1.5650  1.3539
  266MOL0     H35909   0.959  10.824   8.243 -0.1390 -2.6925  1.4847
  266MOL0     H35910   1.086  10.777   8.121  2.9874 -2.4618  1.5383
  267MOL0     O35911   1.373   8.362   5.588  0.0322  0.2935  1.0231
  267MOL0     C35912   1.250   8.339   5.554  0.7042  0.3948 -0.2392
  267MOL0     O35913   1.161   8.236   5.596  0.2504  0.4797 -0.0927
  267MOL0     C35914   1.208   8.138   5.686  0.4903  0.1253  0.3315
  267MOL0     C35915   1.328   8.062   5.660 -0.5968 -0.6373 -0.3361
  267MOL0     C35916   1.385   7.969   5.747  0.3717  0.4510  0.3592
  267MOL0     C35917   1.336   7.965   5.879  1.1381  0.3314  0.0221
  267MOL0     O35918   1.417   7.882   5.965  0.9370 -0.3246  0.5406
  267MOL0     C35919   1.452   7.927   6.090 -0.9171  0.7608 -0.3459
  267MOL0     C35920   1.468   7.810   6.178  0.2875 -0.3479  0.5212
  267MOL0     C35921   1.501   7.845   6.322 -0.1151  0.9038  0.1856
  267MOL0     C35922   1.511   7.726   6.423  0.0245  0.4864  0.0347
  267MOL0     C35923   1.382   7.635   6.417 -0.0332  1.1116  0.4238
  267MOL0     C35924   1.398   7.518   6.516 -0.3375 -0.8537  0.1429
  267MOL0     C35925   1.251   7.468   6.557  0.7301 -0.3930  0.3846
  267MOL0     C35926   1.193   7.385   6.433  0.2874 -0.2684  1.0759
  267MOL0     N35927   1.078   7.296   6.452  0.0749  0.0284  0.3993
  267MOL0     C35928   0.952   7.335   6.412  0.5919 -0.3549 -0.3301
  267MOL0     C35929   0.875   7.248   6.480 -0.0387 -0.2932  0.2642
  267MOL0     C35930   0.735   7.259   6.483  0.5576  0.5418  0.2557
  267MOL0     C35931   0.686   7.403   6.535 -0.4696 -0.1800 -0.4755
  267MOL0     C35932   0.536   7.401   6.546 -0.2811  0.3388 -0.3707
  267MOL0     C35933   0.468   7.350   6.418 -0.0556  0.1193 -0.1828
  267MOL0     O35934   0.531   7.401   6.301 -0.3023  0.3061  0.5719
  267MOL0     C35935   0.536   7.533   6.253  0.4733  0.6070 -0.4591
  267MOL0     C35936   0.472   7.637   6.318  0.8422 -0.5080 -0.1083
  267MOL0     C35937   0.462   7.766   6.260  0.6726  0.5263 -0.0972
  267MOL0     C35938   0.543   7.800   6.140  0.2479  0.7747 -0.3100
  267MOL0     C35939   0.554   7.939   6.095  0.6021  0.0968  0.3289
  267MOL0     O35940   0.651   7.975   6.015 -0.4733  0.2109 -0.0444
  267MOL0     C35941   0.688   8.097   5.990  0.8252 -0.2490  0.0331
  267MOL0     C35942   0.697   8.132   5.856 -0.0014  1.2245  0.7232
  267MOL0     C35943   0.729   8.263   5.810  0.5525  0.3501 -0.3876
  267MOL0     C35944   0.741   8.363   5.904 -0.1835  1.1407 -0.2714
  267MOL0     O35945   0.780   8.490   5.864 -0.9617  0.4388  0.3239
  267MOL0     C35946   0.852   8.515   5.735 -0.5529 -0.6751  1.1018
  267MOL0     C35947   0.926   8.645   5.749 -1.2993  0.0453  0.7819
  267MOL0     C35948   0.977   8.710   5.626 -0.3542  0.8263 -0.1032
  267MOL0     C35949   1.014   8.860   5.658  0.0981 -0.0855  0.2866
  267MOL0     C35950   1.090   8.921   5.541  0.4769  0.7856 -0.4763
  267MOL0     C35951   1.237   8.942   5.584 -0.3945  0.0165 -0.6636
  267MOL0     C35952   1.305   9.022   5.475 -0.2139 -0.4269 -0.8176
  267MOL0     C35953   1.450   9.002   5.490  0.0258 -0.3138  0.0133
  267MOL0    Cl35954   1.533   9.130   5.384  0.2805 -0.0437 -0.2161
  267MOL0     C35955   0.740   8.328   6.036 -0.7191  0.1668  0.2513
  267MOL0     C35956   0.719   8.197   6.076  0.8583 -0.2998  0.0828
  267MOL0     O35957   0.483   8.019   6.155 -0.0028  0.7842 -0.3220
  267MOL0     C35958   0.624   7.698   6.088  0.4211 -0.5448 -0.3344
  267MOL0     C35959   0.615   7.565   6.133 -0.4155  0.2523 -0.1400
  267MOL0     N35960   0.948   7.171   6.554 -0.1770  0.1712 -0.3243
  267MOL0     N35961   1.073   7.191   6.533  0.3222  0.3636 -0.2835
  267MOL0     C35962   1.219   8.042   5.912 -0.1547 -0.4093  0.0401
  267MOL0     C35963   1.159   8.125   5.815  0.2891 -0.9104  0.2076
  267MOL0     C35964   1.184   8.439   5.469  0.0742  0.2883  0.0258
  267MOL0     C35965   1.043   8.426   5.459  0.5831 -0.0379 -0.6577
  267MOL0     C35966   0.972   8.523   5.381 -0.1216 -0.0725  0.1406
  267MOL0     C35967   1.036   8.621   5.299  0.4477  0.0767 -0.9278
  267MOL0     O35968   0.968   8.710   5.225 -0.0574 -0.1294 -0.8425
  267MOL0     C35969   0.821   8.716   5.231 -0.2740  0.5378  0.2322
  267MOL0     C35970   0.779   8.811   5.113 -0.3841 -0.1866 -0.8798
  267MOL0     C35971   0.631   8.821   5.082  0.1227  0.5882  0.6842
  267MOL0     C35972   0.545   8.838   5.202  0.1996 -0.6086  0.4324
  267MOL0     C35973   0.604   8.933   5.294  0.2647  0.3548  0.2100
  267MOL0     C35974   0.649   9.011   5.375 -0.5326  0.2608 -0.9509
  267MOL0     C35975   1.177   8.613   5.297  0.1390 -0.5580  0.3793
  267MOL0     C35976   1.254   8.531   5.388  1.0429  0.1008  0.5989
  267MOL0     C35977   1.405   8.557   5.388 -0.4637 -0.6893  0.1688
  267MOL0     H35978   1.385   8.078   5.569 -0.5976  1.9671  0.0313
  267MOL0     H35979   1.471   7.906   5.723 -1.1515 -2.3358  1.7150
  267MOL0     H35980   1.556   7.959   6.079  0.0700 -1.5200  1.6098
  267MOL0     H35981   1.388   8.002   6.136 -0.0383  2.0687 -1.1711
  267MOL0     H35982   1.541   7.738   6.140  1.0930  0.0679  1.2331
  267MOL0     H35983   1.369   7.764   6.174  1.3030 -2.5709 -0.9056
  267MOL0     H35984   1.417   7.906   6.357 -1.0178 -0.2266  0.0665
  267MOL0     H35985   1.591   7.907   6.323 -1.4520  2.9727 -0.1178
  267MOL0     H35986   1.605   7.671   6.415  0.5050  1.5256 -2.7448
  267MOL0     H35987   1.505   7.773   6.521 -2.1660  2.8900 -1.1314
  267MOL0     H35988   1.293   7.692   6.441 -0.6611  1.1093 -1.6696
  267MOL0     H35989   1.367   7.583   6.322 -2.5424  0.3176  1.1804
  267MOL0     H35990   1.465   7.441   6.477  2.1134  0.6369  1.1800
  267MOL0     H35991   1.449   7.561   6.603  2.6976 -1.0843 -1.3790
  267MOL0     H35992   1.173   7.541   6.581 -2.2056 -2.7140 -1.4321
  267MOL0     H35993   1.253   7.413   6.651 -0.5058  2.1260  1.9991
  267MOL0     H35994   1.173   7.457   6.353 -0.0220 -0.9818  0.5056
  267MOL0     H35995   1.274   7.319   6.399 -0.3320 -2.6984  3.9287
  267MOL0     H35996   0.926   7.420   6.350 -0.9518 -0.0243  0.6976
  267MOL0     H35997   0.700   7.234   6.382  2.6588  0.2649 -0.4455
  267MOL0     H35998   0.682   7.184   6.541 -1.1243  1.1727 -0.3810
  267MOL0     H35999   0.725   7.410   6.637  1.9705 -2.5440 -1.1293
  267MOL0     H36000   0.731   7.488   6.482  1.5273 -1.5829 -1.1471
  267MOL0     H36001   0.494   7.501   6.561 -1.6097 -0.2465 -0.0665
  267MOL0     H36002   0.506   7.348   6.636 -0.7968  3.5879  1.5509
  267MOL0     H36003   0.360   7.363   6.422 -0.1114 -0.3011 -0.2508
  267MOL0     H36004   0.478   7.241   6.416  0.3612  0.1356  0.6209
  267MOL0     H36005   0.414   7.616   6.407  1.4757 -0.4905  0.3102
  267MOL0     H36006   0.402   7.838   6.315  2.5453  0.5817  2.0079
  267MOL0     H36007   0.678   8.065   5.773 -3.9791  2.1641  0.6521
  267MOL0     H36008   0.725   8.281   5.703  2.0891  0.6990 -0.4120
  267MOL0     H36009   0.925   8.439   5.707 -0.1902  1.1551 -4.0374
  267MOL0     H36010   0.788   8.526   5.647  0.0153 -3.2383  0.3016
  267MOL0     H36011   0.854   8.719   5.785  1.6180  2.4086  2.1646
  267MOL0     H36012   1.007   8.636   5.822  1.2952  3.2949 -1.4286
  267MOL0     H36013   1.064   8.648   5.603 -0.4039  0.6492  0.1823
  267MOL0     H36014   0.900   8.714   5.548  0.7966  0.7117 -1.2828
  267MOL0     H36015   1.080   8.865   5.745 -0.0388  0.9645  0.3462
  267MOL0     H36016   0.924   8.913   5.690 -0.9625 -2.0840  0.7452
  267MOL0     H36017   1.048   9.019   5.516 -0.6563  0.1735 -1.0433
  267MOL0     H36018   1.086   8.864   5.448  1.1047  1.6927 -1.0777
  267MOL0     H36019   1.252   8.995   5.678 -0.9362 -0.6644 -0.1794
  267MOL0     H36020   1.284   8.846   5.606 -0.6736  0.5228  2.6594
  267MOL0     H36021   1.270   9.126   5.470  0.1652 -0.3314 -1.8041
  267MOL0     H36022   1.267   8.984   5.380 -2.2505  1.8903 -1.0369
  267MOL0     H36023   1.473   9.019   5.596 -4.0728 -0.9497  1.1923
  267MOL0     H36024   1.493   8.908   5.454  0.6552  0.6033 -1.7534
  267MOL0     H36025   0.754   8.408   6.108 -0.6000  1.6891 -1.4024
  267MOL0     H36026   0.707   8.167   6.180 -0.5295  0.3868  0.1364
  267MOL0     H36027   0.696   7.725   6.012 -1.2515 -0.0262 -1.8069
  267MOL0     H36028   0.692   7.492   6.113 -0.2925 -0.1805  1.6678
  267MOL0     H36029   1.171   8.048   6.010 -2.0276  2.6580 -0.9393
  267MOL0     H36030   1.072   8.187   5.835 -0.7121 -0.8657 -3.5623
  267MOL0     H36031   0.990   8.351   5.517  2.6224 -1.9581 -1.1243
  267MOL0     H36032   0.864   8.514   5.386  0.0088 -1.7724  0.9192
  267MOL0     H36033   0.796   8.762   5.326  1.7136  1.9558  0.1307
  267MOL0     H36034   0.765   8.622   5.226 -1.8777  1.5074 -2.1539
  267MOL0     H36035   0.831   8.783   5.021  1.4642 -1.2063  0.4064
  267MOL0     H36036   0.816   8.911   5.134  0.2959 -0.7239  0.6494
  267MOL0     H36037   0.609   8.733   5.021 -0.4853  0.9371  0.3980
  267MOL0     H36038   0.623   8.902   5.010  1.4578  1.1448  1.1261
  267MOL0     H36039   0.450   8.877   5.163  1.6698  0.3523 -2.4892
  267MOL0     H36040   0.532   8.744   5.256 -2.0107 -0.1971  0.7375
  267MOL0     H36041   0.693   9.079   5.446  1.8309 -1.3465 -0.7586
  267MOL0     H36042   1.215   8.691   5.232  0.6135  0.6332  1.9956
  267MOL0     H36043   1.438   8.595   5.485  0.5163  3.5427 -1.5869
  267MOL0     H36044   1.465   8.469   5.364  2.5924  0.2848  3.3574
  267MOL0     H36045   1.435   8.631   5.313  1.0376 -2.0552 -0.6472
  268MOL0     O36046   7.256   8.218   7.007  0.5002 -0.2732 -0.7944
  268MOL0     C36047   7.184   8.234   7.105 -0.1462  0.0325 -0.0624
  268MOL0     O36048   7.055   8.190   7.129  0.1743 -0.0852 -0.5065
  268MOL0     C36049   7.008   8.126   7.017  0.6695  0.2110 -0.0605
  268MOL0     C36050   7.027   7.991   7.003 -0.5864 -0.2128 -0.6674
  268MOL0     C36051   7.004   7.928   6.891  0.7129  0.4741 -0.3165
  268MOL0     C36052   6.947   7.989   6.779 -0.3603 -0.4537 -0.1315
  268MOL0     O36053   6.929   7.932   6.654  0.3280  0.7285 -0.1162
  268MOL0     C36054   7.034   7.831   6.623 -0.5989 -0.8334 -0.0005
  268MOL0     C36055   7.065   7.826   6.474 -0.2635 -0.0605 -0.4375
  268MOL0     C36056   7.139   7.693   6.444 -0.4900 -1.0865  0.4440
  268MOL0     C36057   7.283   7.677   6.518  0.0127  0.3010  0.4712
  268MOL0     C36058   7.343   7.534   6.479 -0.0988 -0.3339  0.5612
  268MOL0     C36059   7.385   7.520   6.337 -0.5216  0.4895  0.1857
  268MOL0     C36060   7.462   7.387   6.316  0.6279 -0.0235 -0.2897
  268MOL0     C36061   7.540   7.418   6.189  0.4702  0.4044  0.3545
  268MOL0     N36062   7.646   7.316   6.167  0.5133 -0.0784 -0.4184
  268MOL0     C36063   7.655   7.240   6.059 -1.2621 -0.1403 -0.3766
  268MOL0     C36064   7.760   7.152   6.089 -0.3936 -0.3822  0.5446
  268MOL0     C36065   7.831   7.055   5.996 -0.1814 -0.9645  0.2780
  268MOL0     C36066   7.981   7.051   5.984 -0.5571  0.7491 -0.1598
  268MOL0     C36067   8.041   7.154   5.881  0.1708  0.3567 -0.1008
  268MOL0     C36068   7.981   7.295   5.891  0.0647 -0.2320 -0.8514
  268MOL0     O36069   8.082   7.391   5.868 -0.9142 -0.0733 -0.0539
  268MOL0     C36070   8.153   7.433   5.976  0.9006 -0.1234 -0.2359
  268MOL0     C36071   8.129   7.391   6.111 -0.4456  0.9560 -0.2845
  268MOL0     C36072   8.206   7.444   6.210 -0.2572 -0.0681  0.1420
  268MOL0     C36073   8.315   7.529   6.186 -0.2504 -0.6253  0.5453
  268MOL0     C36074   8.404   7.573   6.299 -1.5763 -1.0126  0.7315
  268MOL0     O36075   8.369   7.530   6.429 -0.4967  0.4127 -1.1310
  268MOL0     C36076   8.436   7.586   6.535 -0.4956  0.2448 -0.1873
  268MOL0     C36077   8.378   7.630   6.651  0.0315 -0.0529 -0.0834
  268MOL0     C36078   8.451   7.680   6.773  0.4845  0.5069 -0.1403
  268MOL0     C36079   8.591   7.677   6.767  0.3465  0.2516  0.9242
  268MOL0     O36080   8.674   7.718   6.871 -0.3072 -0.5029  0.0711
  268MOL0     C36081   8.625   7.742   7.001  0.1978 -0.7530 -1.0357
  268MOL0     C36082   8.740   7.815   7.081 -0.1932 -0.1379  0.1386
  268MOL0     C36083   8.709   7.825   7.229  0.0965 -0.4935  0.7923
  268MOL0     C36084   8.832   7.817   7.322  0.1364  0.3253 -0.5131
  268MOL0     C36085   8.811   7.839   7.469  0.2574 -0.3845  0.0838
  268MOL0     C36086   8.740   7.970   7.503  0.6427  0.7415 -0.3678
  268MOL0     C36087   8.753   8.001   7.655  0.3404  0.4874  0.1484
  268MOL0     C36088   8.712   7.888   7.749 -1.0056 -0.1591  0.2272
  268MOL0    Cl36089   8.689   7.942   7.917 -0.2725 -0.2588  0.0659
  268MOL0     C36090   8.648   7.628   6.649  0.4634 -0.3314  1.7458
  268MOL0     C36091   8.575   7.576   6.533  0.1253  0.3729 -0.5023
  268MOL0     O36092   8.491   7.661   6.274  1.0132 -0.1449 -0.6918
  268MOL0     C36093   8.321   7.582   6.056 -0.0958  0.3684 -0.4261
  268MOL0     C36094   8.243   7.533   5.954  0.6017  0.6769  0.9121
  268MOL0     N36095   7.802   7.180   6.216 -1.5039 -0.6340 -0.1133
  268MOL0     N36096   7.740   7.295   6.254 -0.0266 -0.1837 -0.4792
  268MOL0     C36097   6.913   8.121   6.795 -0.5867 -0.0172  0.0798
  268MOL0     C36098   6.944   8.189   6.914 -0.0705  0.4725  1.4274
  268MOL0     C36099   7.254   8.303   7.214  0.3094  0.1013 -0.3361
  268MOL0     C36100   7.174   8.369   7.309  0.1197  0.0205  0.2803
  268MOL0     C36101   7.216   8.448   7.412 -0.3730 -0.0981 -0.6246
  268MOL0     C36102   7.360   8.460   7.424  0.8293 -0.1725 -0.5311
  268MOL0     O36103   7.398   8.545   7.531 -0.0909 -0.2584  0.3025
  268MOL0     C36104   7.533   8.566   7.576 -0.4964 -0.1653  0.3596
  268MOL0     C36105   7.529   8.654   7.710  0.7092  0.4048  0.2748
  268MOL0     C36106   7.394   8.732   7.740 -0.4695  0.9780  0.4527
  268MOL0     C36107   7.419   8.828   7.864  0.1895  0.1881  0.3201
  268MOL0     C36108   7.293   8.903   7.896 -0.7567  0.1143 -0.2008
  268MOL0     C36109   7.193   8.968   7.914 -0.5043  0.8487 -0.5526
  268MOL0     C36110   7.443   8.416   7.325 -0.2245  0.7191  0.5851
  268MOL0     C36111   7.391   8.334   7.217  0.5856 -0.0730  0.2675
  268MOL0     C36112   7.498   8.268   7.126  0.3160 -0.3661 -1.0162
  268MOL0     H36113   7.071   7.937   7.086  0.6364 -0.0023 -1.1551
  268MOL0     H36114   7.013   7.820   6.878  0.6945  0.4780 -0.3636
  268MOL0     H36115   7.126   7.861   6.674 -0.3105 -1.2207 -0.2872
  268MOL0     H36116   7.005   7.734   6.663  3.5618 -1.3595  2.3001
  268MOL0     H36117   7.129   7.911   6.450 -0.2372  0.0118 -0.1194
  268MOL0     H36118   6.976   7.833   6.412  0.0080  1.5857 -0.7010
  268MOL0     H36119   7.147   7.683   6.336  1.4297 -1.8402  0.6164
  268MOL0     H36120   7.069   7.612   6.466  0.1853 -1.5530  0.9300
  268MOL0     H36121   7.361   7.746   6.485  3.3362 -0.9567  4.6558
  268MOL0     H36122   7.263   7.693   6.624  1.6897 -2.3749  1.3271
  268MOL0     H36123   7.427   7.524   6.550  1.4386 -1.5107 -1.3261
  268MOL0     H36124   7.272   7.452   6.494  0.9206 -1.5038 -0.6727
  268MOL0     H36125   7.304   7.530   6.263 -2.0597 -1.4677  1.5162
  268MOL0     H36126   7.451   7.606   6.327 -1.5596  1.2599 -0.3229
  268MOL0     H36127   7.404   7.297   6.292  1.9130 -1.0188  0.1830
  268MOL0     H36128   7.526   7.369   6.403  3.1210  2.9350 -1.3176
  268MOL0     H36129   7.474   7.417   6.102  2.8720 -0.7026 -1.5822
  268MOL0     H36130   7.581   7.520   6.196 -0.1361  0.5886  1.5305
  268MOL0     H36131   7.591   7.238   5.971 -1.2193 -0.5929 -0.4023
  268MOL0     H36132   7.801   6.958   6.037  0.5559 -0.9876  0.7872
  268MOL0     H36133   7.775   7.039   5.903 -1.3578 -0.3020  0.8496
  268MOL0     H36134   8.013   7.087   6.082 -1.4220  0.2439  0.3232
  268MOL0     H36135   8.022   6.952   5.967  1.8265  1.8685 -1.3725
  268MOL0     H36136   8.026   7.120   5.778  0.0746 -0.3990  0.1584
  268MOL0     H36137   8.149   7.165   5.895  0.6997 -2.6032 -1.2533
  268MOL0     H36138   7.917   7.323   5.976 -1.1341  6.7019 -3.4625
  268MOL0     H36139   7.910   7.304   5.809 -2.3511 -1.8372  0.9124
  268MOL0     H36140   8.057   7.318   6.148 -0.6714  2.3852  2.3536
  268MOL0     H36141   8.199   7.395   6.307  1.4707 -0.1365  0.2617
  268MOL0     H36142   8.271   7.647   6.651  0.2841  2.1330 -2.4832
  268MOL0     H36143   8.392   7.705   6.861 -1.6206 -0.7701 -1.0930
  268MOL0     H36144   8.534   7.798   7.027 -0.4097 -1.5544 -1.3858
  268MOL0     H36145   8.611   7.639   7.036 -2.7049  0.0713  0.5969
  268MOL0     H36146   8.841   7.774   7.076  0.6791  1.4253  2.9212
  268MOL0     H36147   8.753   7.918   7.048  0.4206 -0.0129  0.7576
  268MOL0     H36148   8.675   7.928   7.240 -0.3347 -0.7428  1.8905
  268MOL0     H36149   8.634   7.755   7.265 -1.4564  0.3903 -0.5709
  268MOL0     H36150   8.903   7.897   7.297  1.1297  0.1229  1.4412
  268MOL0     H36151   8.888   7.728   7.293  0.4009  0.2453  0.2251
  268MOL0     H36152   8.911   7.830   7.511  0.9012  2.5120 -0.6108
  268MOL0     H36153   8.746   7.760   7.508  1.5264 -0.6241  1.7801
  268MOL0     H36154   8.786   8.049   7.443 -0.5802 -0.4209 -2.9985
  268MOL0     H36155   8.634   7.967   7.474  0.2855 -2.7551  0.8242
  268MOL0     H36156   8.683   8.081   7.681 -0.8237  0.3732 -2.4183
  268MOL0     H36157   8.852   8.040   7.684  0.5708  0.2774 -0.3561
  268MOL0     H36158   8.617   7.841   7.720 -0.8598  0.1651 -0.7970
  268MOL0     H36159   8.797   7.821   7.739  0.2949  1.4958 -0.1269
  268MOL0     H36160   8.755   7.633   6.632  0.0927  1.0379 -0.6375
  268MOL0     H36161   8.619   7.522   6.450 -0.7104 -1.3390  0.1194
  268MOL0     H36162   8.386   7.666   6.032  1.9261 -1.4283 -1.6218
  268MOL0     H36163   8.245   7.581   5.857 -0.1526  1.0611  1.0817
  268MOL0     H36164   6.886   8.169   6.702  1.2349  0.5651 -0.1955
  268MOL0     H36165   6.931   8.297   6.921  1.7209  0.9457 -1.1042
  268MOL0     H36166   7.068   8.349   7.302 -0.1274  1.0507  0.8994
  268MOL0     H36167   7.152   8.504   7.480  2.0228 -0.3073  2.0016
  268MOL0     H36168   7.598   8.601   7.495 -1.4864 -2.5914 -1.5789
  268MOL0     H36169   7.581   8.472   7.602  2.2655  0.5487 -1.6475
  268MOL0     H36170   7.613   8.725   7.711 -0.7419  2.1998  1.7255
  268MOL0     H36171   7.554   8.588   7.793  0.0471 -3.1395 -2.1177
  268MOL0     H36172   7.330   8.647   7.764 -0.7595  0.5040 -1.7143
  268MOL0     H36173   7.348   8.773   7.649 -1.4875 -3.5007 -1.3567
  268MOL0     H36174   7.460   8.775   7.950  1.7009  2.1288  0.8622
  268MOL0     H36175   7.503   8.896   7.847 -0.7386  1.3555  0.2804
  268MOL0     H36176   7.106   9.029   7.928 -2.8398 -1.8831 -2.1256
  268MOL0     H36177   7.547   8.447   7.322 -0.1559  0.4952  0.6779
  268MOL0     H36178   7.499   8.320   7.030  0.1447  1.0222 -0.2915
  268MOL0     H36179   7.601   8.274   7.161 -0.0895  0.1872  0.1503
  268MOL0     H36180   7.479   8.163   7.103  1.7434 -0.4543 -1.8903
  269MOL0     O36181   4.880   9.904   3.890  0.4083  0.3367  0.3676
  269MOL0     C36182   4.898   9.919   3.767  0.8867  0.0058  0.0079
  269MOL0     O36183   4.846   9.841   3.674 -1.0510  1.1579  0.4217
  269MOL0     C36184   4.812   9.702   3.697 -0.5925  0.6042  0.8046
  269MOL0     C36185   4.693   9.653   3.642  0.6500 -0.0380 -0.9392
  269MOL0     C36186   4.639   9.529   3.679  0.2463 -0.4471  0.0663
  269MOL0     C36187   4.712   9.448   3.770  0.2685 -0.2668  0.8497
  269MOL0     O36188   4.665   9.329   3.824 -0.2671 -0.2055  0.3790
  269MOL0     C36189   4.533   9.340   3.869 -0.2351  0.8015  0.0396
  269MOL0     C36190   4.519   9.227   3.978  0.5935 -0.4408  0.0995
  269MOL0     C36191   4.377   9.212   4.027 -0.3225  0.1497  0.1466
  269MOL0     C36192   4.308   9.338   4.071  0.2159  0.3324 -0.2303
  269MOL0     C36193   4.172   9.295   4.114 -0.4832 -0.7511 -0.1961
  269MOL0     C36194   4.101   9.410   4.196  0.9883 -0.6878  0.2388
  269MOL0     C36195   4.091   9.375   4.345 -0.9763 -0.0236  0.8233
  269MOL0     C36196   4.028   9.474   4.437 -0.9263  0.2004 -0.3447
  269MOL0     N36197   4.068   9.613   4.414  0.4253  0.0752  0.5046
  269MOL0     C36198   4.194   9.652   4.400 -0.4613 -0.1672 -0.1262
  269MOL0     C36199   4.190   9.779   4.360 -0.1863  0.0697 -0.4299
  269MOL0     C36200   4.303   9.876   4.345  0.0312 -0.1060  0.5798
  269MOL0     C36201   4.306   9.973   4.454 -0.5729 -0.9488 -0.5553
  269MOL0     C36202   4.427  10.060   4.453 -0.7578  0.4339  0.1625
  269MOL0     C36203   4.533  10.002   4.551 -0.2400  0.2431  0.5057
  269MOL0     O36204   4.661  10.064   4.518 -0.5286  0.9747 -0.1291
  269MOL0     C36205   4.693  10.174   4.595 -0.0114  0.0241 -1.4641
  269MOL0     C36206   4.831  10.222   4.576  0.1046 -0.4939 -0.1836
  269MOL0     C36207   4.880  10.328   4.654 -0.3889 -0.4682 -0.2401
  269MOL0     C36208   4.794  10.385   4.753  1.3877 -0.1776 -0.3728
  269MOL0     C36209   4.849  10.483   4.846  0.1924 -0.3031 -0.8860
  269MOL0     O36210   4.896  10.601   4.810 -0.2158 -0.6651 -0.2991
  269MOL0     C36211   4.941  10.680   4.913  0.6137 -0.6396  0.0829
  269MOL0     C36212   5.079  10.664   4.943  1.0088 -0.7236  0.5570
  269MOL0     C36213   5.143  10.743   5.037 -1.3656  0.2942  0.3605
  269MOL0     C36214   5.061  10.826   5.112  0.0900  0.2753  0.1417
  269MOL0     O36215   5.131  10.904   5.200 -0.1853  0.7008 -0.6309
  269MOL0     C36216   5.072  10.899   5.331 -0.4414 -0.8986  0.1044
  269MOL0     C36217   5.172  10.856   5.446  0.4351  0.6023  0.1615
  269MOL0     C36218   5.275  10.963   5.477 -0.5432 -0.1406  0.3297
  269MOL0     C36219   5.242  11.101   5.426  0.1999  0.1338 -0.1981
  269MOL0     C36220   5.318  11.206   5.513 -0.4859 -0.3519  0.6431
  269MOL0     C36221   5.472  11.195   5.521 -0.0965 -0.0693 -0.3639
  269MOL0     C36222   5.533  11.301   5.621  0.4453 -0.1226 -0.1112
  269MOL0     C36223   5.678  11.292   5.674 -0.1293  0.2831  1.1537
  269MOL0    Cl36224   5.792  11.307   5.531 -0.2186  0.0491  0.5306
  269MOL0     C36225   4.925  10.843   5.089 -0.3212 -0.1758 -0.2591
  269MOL0     C36226   4.857  10.765   4.992 -0.3244 -1.5084  0.4572
  269MOL0     O36227   4.835  10.442   4.958  0.2627  0.2942 -0.4197
  269MOL0     C36228   4.661  10.342   4.771 -0.0593 -0.1421  0.5111
  269MOL0     C36229   4.614  10.237   4.690  0.5229 -0.8906 -0.1840
  269MOL0     N36230   4.053   9.817   4.366 -0.2218  0.8584 -0.4272
  269MOL0     N36231   3.981   9.712   4.393  0.5450 -0.4306 -0.0867
  269MOL0     C36232   4.821   9.499   3.829 -0.1897  0.2420  0.7019
  269MOL0     C36233   4.881   9.621   3.786 -0.6619  0.0391 -0.2883
  269MOL0     C36234   4.947  10.057   3.720  0.2614  0.4283  0.3789
  269MOL0     C36235   4.875  10.111   3.611  0.1148  0.3710 -0.7455
  269MOL0     C36236   4.923  10.223   3.544 -0.3592  0.5700  0.3967
  269MOL0     C36237   5.036  10.293   3.598 -0.6537  0.1090  0.9612
  269MOL0     O36238   5.079  10.402   3.525  0.2465  0.1045  0.5048
  269MOL0     C36239   5.223  10.442   3.533  0.6603 -0.2813 -0.1684
  269MOL0     C36240   5.308  10.347   3.448 -1.1765 -0.0691  0.4538
  269MOL0     C36241   5.257  10.348   3.304  0.4095 -0.0958  0.1133
  269MOL0     C36242   5.360  10.289   3.206 -0.6985 -0.3645  1.0062
  269MOL0     C36243   5.469  10.383   3.183  0.3179  0.2612 -0.5708
  269MOL0     C36244   5.560  10.456   3.185 -0.7276  0.4397  0.6290
  269MOL0     C36245   5.089  10.249   3.713 -0.5493  0.1527 -0.0090
  269MOL0     C36246   5.051  10.130   3.775  0.2476 -0.2218  0.0981
  269MOL0     C36247   5.126  10.069   3.886 -0.1503 -0.5934 -0.6050
  269MOL0     H36248   4.629   9.713   3.578  2.1854  0.3621 -2.1471
  269MOL0     H36249   4.540   9.504   3.642  0.2401  0.1866 -0.3647
  269MOL0     H36250   4.521   9.439   3.915 -0.8341  0.1345  1.4016
  269MOL0     H36251   4.462   9.318   3.788  3.9080 -3.8619 -2.9028
  269MOL0     H36252   4.587   9.252   4.060  0.8048 -1.0103  0.1008
  269MOL0     H36253   4.552   9.133   3.932  1.0396 -0.3051  0.1360
  269MOL0     H36254   4.373   9.152   4.119 -1.3975 -1.2111 -0.7621
  269MOL0     H36255   4.318   9.161   3.951 -0.0060  2.2554 -1.5967
  269MOL0     H36256   4.362   9.398   4.146  0.6430  0.1169 -0.3619
  269MOL0     H36257   4.284   9.403   3.986 -0.3759  1.1602  0.5423
  269MOL0     H36258   4.118   9.303   4.020 -3.1542  3.2711  1.4402
  269MOL0     H36259   4.151   9.194   4.152 -0.0475 -1.4596 -1.7532
  269MOL0     H36260   4.151   9.506   4.178 -0.9059  0.6564  1.8012
  269MOL0     H36261   3.999   9.425   4.158  0.4335  0.4231  2.0344
  269MOL0     H36262   4.192   9.355   4.382 -0.0561 -0.8540 -1.8895
  269MOL0     H36263   4.035   9.282   4.355 -0.8955 -0.2802 -0.8129
  269MOL0     H36264   3.919   9.473   4.425 -1.9535  3.2624  5.3161
  269MOL0     H36265   4.037   9.443   4.541  2.0781  0.4332 -0.4599
  269MOL0     H36266   4.288   9.598   4.411  0.6586  1.5068 -0.9678
  269MOL0     H36267   4.396   9.819   4.343 -0.7556 -1.3995 -0.0539
  269MOL0     H36268   4.299   9.929   4.250 -0.1339  0.1860  0.7493
  269MOL0     H36269   4.218  10.038   4.461  2.0989  2.8425  1.7707
  269MOL0     H36270   4.302   9.918   4.549 -0.6011  0.2777  0.1771
  269MOL0     H36271   4.399  10.160   4.487 -1.3331 -0.0097  1.0291
  269MOL0     H36272   4.467  10.067   4.351 -0.8444 -0.5817  0.0484
  269MOL0     H36273   4.539   9.896   4.529  2.1444  0.9243 -2.7294
  269MOL0     H36274   4.507  10.000   4.658  1.2361 -2.9721  0.9321
  269MOL0     H36275   4.902  10.167   4.515 -1.5098 -0.5971 -2.0774
  269MOL0     H36276   4.985  10.355   4.652 -0.5763  0.4725  1.1186
  269MOL0     H36277   5.137  10.589   4.890  1.2712  0.7070 -1.2654
  269MOL0     H36278   5.251  10.746   5.050 -1.3673  0.7057  0.2880
  269MOL0     H36279   5.023  10.995   5.352  2.6466  0.9865 -0.6438
  269MOL0     H36280   4.986  10.832   5.333 -1.0800 -0.1572 -1.2029
  269MOL0     H36281   5.115  10.841   5.539  1.4176 -1.2364  0.5061
  269MOL0     H36282   5.220  10.764   5.412  0.8136  1.1820 -0.9212
  269MOL0     H36283   5.288  10.963   5.586  1.6238 -0.9320  0.1198
  269MOL0     H36284   5.372  10.934   5.437  0.5909  0.3063  2.5873
  269MOL0     H36285   5.136  11.125   5.438  0.2465  1.3133 -1.7926
  269MOL0     H36286   5.258  11.112   5.318 -1.2518 -0.5885 -0.5066
  269MOL0     H36287   5.294  11.201   5.619  0.5950  1.8343  1.0347
  269MOL0     H36288   5.295  11.303   5.469  0.5249 -1.2224 -2.0233
  269MOL0     H36289   5.507  11.097   5.555  1.2987  1.0930  1.7520
  269MOL0     H36290   5.509  11.218   5.420  0.3700  1.3363  0.1088
  269MOL0     H36291   5.466  11.307   5.708  1.7520  1.8080  0.8484
  269MOL0     H36292   5.528  11.391   5.559  0.1845 -0.6103 -0.8049
  269MOL0     H36293   5.705  11.371   5.745 -1.5709  0.7073  1.2644
  269MOL0     H36294   5.692  11.194   5.720  0.7184  0.5274  1.4363
  269MOL0     H36295   4.861  10.907   5.149  3.6595  2.3735  1.6984
  269MOL0     H36296   4.750  10.780   4.998 -0.2192 -0.8938  0.9344
  269MOL0     H36297   4.603  10.390   4.849  0.0151 -1.9723  1.7639
  269MOL0     H36298   4.516  10.203   4.720 -1.1991  2.4375 -1.5291
  269MOL0     H36299   4.864   9.428   3.900 -0.5773  2.5375  3.4377
  269MOL0     H36300   4.969   9.662   3.833 -0.2842  0.0595 -0.9955
  269MOL0     H36301   4.789  10.051   3.583 -1.7266  0.5945  3.5812
  269MOL0     H36302   4.864  10.247   3.456 -0.8532 -1.6050  0.0711
  269MOL0     H36303   5.253  10.436   3.638  1.1184 -2.1269 -0.3665
  269MOL0     H36304   5.245  10.541   3.493  3.2098 -1.1715 -1.1974
  269MOL0     H36305   5.300  10.246   3.489 -0.1903 -1.3584 -2.3014
  269MOL0     H36306   5.416  10.364   3.451 -0.9605 -1.4443  1.6413
  269MOL0     H36307   5.253  10.454   3.276  0.5239  0.1313  0.9373
  269MOL0     H36308   5.161  10.300   3.285 -0.1244  1.5175 -1.6942
  269MOL0     H36309   5.405  10.197   3.243 -1.4754 -0.5649  1.4650
  269MOL0     H36310   5.309  10.261   3.113  0.1705 -0.1197  0.4484
  269MOL0     H36311   5.642  10.524   3.198  0.6198 -1.0350  0.2021
  269MOL0     H36312   5.183  10.280   3.756 -0.7939  1.5083 -0.4055
  269MOL0     H36313   5.140   9.962   3.874  2.0352 -0.3234 -0.7849
  269MOL0     H36314   5.227  10.112   3.888 -0.4405  0.2355  2.8355
  269MOL0     H36315   5.077  10.105   3.977  0.5070 -0.5109 -0.2779
  270MOL0     O36316   1.900   9.779   6.348  0.3717  0.1799 -0.0200
  270MOL0     C36317   2.005   9.788   6.283  0.1251 -1.4775  0.0516
  270MOL0     O36318   2.009   9.772   6.147  0.4637 -0.6589 -0.8673
  270MOL0     C36319   1.906   9.704   6.077  0.0372  0.1641 -0.7906
  270MOL0     C36320   1.795   9.775   6.034 -0.1907  0.2755  1.1406
  270MOL0     C36321   1.710   9.705   5.949  0.4224 -0.7419 -0.1159
  270MOL0     C36322   1.724   9.570   5.911  0.5830 -0.6786  0.1504
  270MOL0     O36323   1.633   9.501   5.832 -0.2831 -0.2714  0.3347
  270MOL0     C36324   1.562   9.585   5.731 -0.1886 -0.3008 -0.2452
  270MOL0     C36325   1.513   9.498   5.616  0.3292 -0.7359  0.5981
  270MOL0     C36326   1.438   9.370   5.660  0.5982  0.3350  0.1155
  270MOL0     C36327   1.314   9.418   5.737 -0.2198 -0.0666  0.7329
  270MOL0     C36328   1.205   9.303   5.725  0.6569 -0.0915 -0.0053
  270MOL0     C36329   1.072   9.339   5.761  0.1147  0.2312 -0.0198
  270MOL0     C36330   0.969   9.232   5.741  0.6252 -0.6349  1.6530
  270MOL0     C36331   0.828   9.287   5.790  0.5677  0.4188 -0.2992
  270MOL0     N36332   0.713   9.194   5.763  0.0152 -0.2396 -0.4415
  270MOL0     C36333   0.705   9.065   5.813 -0.2466  0.6272 -0.2096
  270MOL0     C36334   0.587   9.016   5.767 -0.0249 -0.1551  0.2984
  270MOL0     C36335   0.512   8.889   5.826 -0.0189  0.4837  0.8274
  270MOL0     C36336   0.470   8.802   5.703 -0.2401 -1.0161 -0.2197
  270MOL0     C36337   0.403   8.667   5.746  0.4088  0.6537  0.1104
  270MOL0     C36338   0.346   8.594   5.627  0.2743  0.3466  1.0236
  270MOL0     O36339   0.446   8.585   5.521 -0.2734  1.0371 -0.5087
  270MOL0     C36340   0.409   8.548   5.400 -0.0806  0.1881  0.6611
  270MOL0     C36341   0.278   8.559   5.344  0.0692 -0.1223  0.0428
  270MOL0     C36342   0.248   8.508   5.219  0.2306  0.8030  0.5465
  270MOL0     C36343   0.353   8.447   5.137  0.3095 -0.4250 -0.1842
  270MOL0     C36344   0.310   8.400   5.005  0.4906 -1.3477 -0.1300
  270MOL0     O36345   0.197   8.451   4.960  0.3175  0.6009  0.5065
  270MOL0     C36346   0.151   8.439   4.830  0.0078  0.1213  0.5947
  270MOL0     C36347   0.232   8.404   4.718 -0.2322  0.4645  1.0094
  270MOL0     C36348   0.186   8.389   4.586  0.0272  0.3770  0.4407
  270MOL0     C36349   0.047   8.417   4.566 -0.7938 -0.0859 -0.2477
  270MOL0     O36350   0.001   8.391   4.440  0.1523  0.6703 -0.1574
  270MOL0     C36351  -0.137   8.407   4.411  0.3734  0.5312  0.3485
  270MOL0     C36352  -0.228   8.311   4.483 -0.6527 -0.2705 -0.3535
  270MOL0     C36353  -0.377   8.314   4.447  0.2576  0.6275  0.0361
  270MOL0     C36354  -0.392   8.232   4.310  0.0536 -0.5323 -0.1908
  270MOL0     C36355  -0.533   8.211   4.250  0.6849 -0.5579  0.2089
  270MOL0     C36356  -0.614   8.346   4.240  0.7521  0.3619 -0.1354
  270MOL0     C36357  -0.765   8.337   4.271 -0.2073 -0.2765  0.7880
  270MOL0     C36358  -0.841   8.249   4.173  0.1564  0.3057 -0.1370
  270MOL0    Cl36359  -0.860   8.316   4.002  0.0715 -0.1696  0.1710
  270MOL0     C36360  -0.033   8.462   4.668 -0.6251  0.4243  0.0022
  270MOL0     C36361   0.014   8.469   4.796 -0.1084 -0.0006 -0.3103
  270MOL0     O36362   0.383   8.334   4.945  0.1808 -0.5958  0.4265
  270MOL0     C36363   0.480   8.433   5.191 -0.6976 -0.9722  0.1827
  270MOL0     C36364   0.512   8.484   5.324 -0.1060 -1.3612 -0.4580
  270MOL0     N36365   0.537   9.103   5.677  0.6505 -0.4046 -1.2940
  270MOL0     N36366   0.608   9.213   5.673 -0.9585 -0.4248  0.0381
  270MOL0     C36367   1.839   9.506   5.958 -0.2575 -0.7884  0.2397
  270MOL0     C36368   1.924   9.570   6.051  0.4258 -0.6019  1.2300
  270MOL0     C36369   2.118   9.848   6.347 -1.1797 -0.5098 -0.6554
  270MOL0     C36370   2.113   9.865   6.489  0.1663  1.1163  0.7936
  270MOL0     C36371   2.219   9.914   6.565 -0.1809  0.1086 -0.0873
  270MOL0     C36372   2.337   9.961   6.502  0.3450  0.4182  0.0937
  270MOL0     O36373   2.420  10.042   6.587 -0.0356  0.1618  0.6982
  270MOL0     C36374   2.538   9.988   6.640  0.7764 -0.1447 -0.2766
  270MOL0     C36375   2.610  10.090   6.725 -0.6619  0.2710 -0.0740
  270MOL0     C36376   2.730  10.023   6.800 -0.5377  0.0619 -0.0171
  270MOL0     C36377   2.814  10.126   6.880  0.4050  0.0244 -0.4776
  270MOL0     C36378   2.930  10.065   6.945  0.2252  0.5449  0.7201
  270MOL0     C36379   3.016  10.005   7.000 -1.3577 -0.1426 -0.6633
  270MOL0     C36380   2.355   9.933   6.366  0.1657 -0.1975 -0.3068
  270MOL0     C36381   2.245   9.878   6.293  0.3543 -0.1255  0.1840
  270MOL0     C36382   2.261   9.868   6.146 -0.3148 -0.5814  0.1921
  270MOL0     H36383   1.774   9.875   6.071 -2.6565  0.8230 -1.4432
  270MOL0     H36384   1.616   9.752   5.921  0.7869 -0.7767 -1.4399
  270MOL0     H36385   1.479   9.645   5.769  0.8403  1.6296 -0.9231
  270MOL0     H36386   1.634   9.651   5.682  2.4284 -1.1867  2.0937
  270MOL0     H36387   1.603   9.462   5.566  1.6545  0.7555  1.8290
  270MOL0     H36388   1.462   9.573   5.555  1.7350  1.6015  2.1478
  270MOL0     H36389   1.503   9.307   5.722  1.5180 -1.8385 -2.8359
  270MOL0     H36390   1.415   9.313   5.570  1.2447 -0.2069  0.2785
  270MOL0     H36391   1.344   9.429   5.842 -0.0942  2.0364  0.5164
  270MOL0     H36392   1.268   9.512   5.706  0.7179  0.0364 -0.4365
  270MOL0     H36393   1.193   9.266   5.623 -1.7291  2.5458 -0.8100
  270MOL0     H36394   1.233   9.221   5.791  3.0601 -0.1391 -1.0143
  270MOL0     H36395   1.069   9.373   5.865 -3.0285 -1.0975  0.4304
  270MOL0     H36396   1.050   9.417   5.688  4.1643  1.2001 -0.4430
  270MOL0     H36397   0.985   9.142   5.803 -1.4555 -2.0497  0.2615
  270MOL0     H36398   0.971   9.192   5.640  0.0423 -0.5990  1.6239
  270MOL0     H36399   0.835   9.315   5.895  1.0346  2.7378 -0.8897
  270MOL0     H36400   0.807   9.386   5.749  0.9446  0.6654  0.0931
  270MOL0     H36401   0.775   9.014   5.879 -2.1293 -0.7207  0.8136
  270MOL0     H36402   0.575   8.840   5.902 -2.5761 -1.9697  1.5194
  270MOL0     H36403   0.427   8.924   5.884 -0.0087  0.4148  0.8848
  270MOL0     H36404   0.400   8.868   5.651 -1.1308 -0.2615  1.8316
  270MOL0     H36405   0.554   8.785   5.635  1.8109 -0.2912  2.0088
  270MOL0     H36406   0.326   8.697   5.819  0.2747  0.0052  0.2420
  270MOL0     H36407   0.471   8.598   5.796 -1.5383 -2.0962 -0.8208
  270MOL0     H36408   0.264   8.661   5.597  1.5887  0.5758 -2.4819
  270MOL0     H36409   0.294   8.501   5.651 -2.8489  2.1388  1.7671
  270MOL0     H36410   0.196   8.604   5.399 -0.1095 -1.6801  1.0887
  270MOL0     H36411   0.147   8.511   5.178 -0.3074 -1.9691  1.4655
  270MOL0     H36412   0.336   8.377   4.729 -0.1520 -1.8993 -3.4872
  270MOL0     H36413   0.258   8.359   4.511 -0.1941  1.1328 -0.0841
  270MOL0     H36414  -0.173   8.510   4.422  1.0326  0.6620  1.4211
  270MOL0     H36415  -0.146   8.388   4.303 -3.4340 -1.2964  0.8010
  270MOL0     H36416  -0.202   8.205   4.489 -0.1296 -0.0828  1.4595
  270MOL0     H36417  -0.244   8.335   4.589 -4.2023 -0.3687 -0.7340
  270MOL0     H36418  -0.432   8.270   4.530  1.3224  0.2714  0.5710
  270MOL0     H36419  -0.411   8.417   4.428 -0.5114  0.2232 -0.8805
  270MOL0     H36420  -0.349   8.131   4.317  1.0852 -0.0155  1.5563
  270MOL0     H36421  -0.330   8.294   4.245 -0.2243  0.2618  0.2888
  270MOL0     H36422  -0.583   8.144   4.321  0.1148 -0.1099  0.2395
  270MOL0     H36423  -0.522   8.140   4.168  0.2656 -2.5545  1.8021
  270MOL0     H36424  -0.569   8.429   4.294 -1.4924  0.9779  0.9056
  270MOL0     H36425  -0.610   8.371   4.133  1.0988  2.1120  0.2593
  270MOL0     H36426  -0.809   8.437   4.274  3.7738  1.6689  0.8112
  270MOL0     H36427  -0.780   8.299   4.373 -3.4058 -0.0404  0.5115
  270MOL0     H36428  -0.803   8.147   4.162 -0.1385  0.0620  1.0318
  270MOL0     H36429  -0.946   8.242   4.203  0.4723 -1.7811  0.6528
  270MOL0     H36430  -0.135   8.494   4.651 -0.2101  1.4914 -0.6324
  270MOL0     H36431  -0.054   8.487   4.879 -0.7978 -4.6991  0.4695
  270MOL0     H36432   0.563   8.387   5.138  3.8493  5.5191  0.5490
  270MOL0     H36433   0.613   8.470   5.363  0.2018 -1.6935 -1.3482
  270MOL0     H36434   1.848   9.401   5.931  4.0160 -0.4220 -0.4277
  270MOL0     H36435   2.011   9.521   6.093  1.0629  0.6110  1.3880
  270MOL0     H36436   2.024   9.837   6.543 -0.5986 -0.9003 -1.3835
  270MOL0     H36437   2.198   9.930   6.670  1.3187 -2.2896  0.6461
  270MOL0     H36438   2.599   9.957   6.554  1.4354  1.7203 -0.5331
  270MOL0     H36439   2.513   9.893   6.689 -1.7641  0.5975 -0.0352
  270MOL0     H36440   2.546  10.140   6.799 -2.6160 -0.3287 -1.2940
  270MOL0     H36441   2.641  10.170   6.658  1.8028 -0.0742  0.5648
  270MOL0     H36442   2.795   9.991   6.718  0.0720 -0.6724  0.7384
  270MOL0     H36443   2.706   9.933   6.858  4.3551 -1.1991  0.4395
  270MOL0     H36444   2.842  10.206   6.812  0.3127  0.9533  0.5558
  270MOL0     H36445   2.755  10.173   6.959  0.4988 -1.3263  0.4308
  270MOL0     H36446   3.086   9.945   7.056 -0.7261 -0.2723 -1.5742
  270MOL0     H36447   2.456   9.947   6.331 -0.8520  0.1812 -3.3879
  270MOL0     H36448   2.255   9.761   6.120 -2.1296 -0.1723 -1.2742
  270MOL0     H36449   2.190   9.923   6.083  1.7096 -0.0426 -1.7650
  270MOL0     H36450   2.361   9.903   6.117 -0.8020 -0.2831 -1.2115
  271MOL0     O36451   7.375   9.368   5.449  0.8108  0.7596 -0.3775
  271MOL0     C36452   7.410   9.471   5.509 -0.5503  0.6763 -0.1816
  271MOL0     O36453   7.360   9.509   5.630  1.1004 -0.6735 -0.2020
  271MOL0     C36454   7.228   9.516   5.646 -0.2231  0.8074  0.6571
  271MOL0     C36455   7.194   9.518   5.777  0.7387  0.4838 -0.2601
  271MOL0     C36456   7.063   9.549   5.804  0.7539  0.1611  0.1736
  271MOL0     C36457   6.965   9.564   5.704 -0.5232  0.5807  0.1751
  271MOL0     O36458   6.830   9.574   5.728 -0.0701  0.2149 -0.3935
  271MOL0     C36459   6.777   9.596   5.860 -0.6263  0.1321  0.2813
  271MOL0     C36460   6.631   9.618   5.834  0.1848 -0.6500 -0.1953
  271MOL0     C36461   6.547   9.601   5.958  0.2855 -0.4470  0.8055
  271MOL0     C36462   6.397   9.594   5.942 -0.2894  0.0723  0.1523
  271MOL0     C36463   6.328   9.572   6.082 -0.6111  0.6408  0.1013
  271MOL0     C36464   6.184   9.516   6.074 -0.1797 -1.1735 -0.7217
  271MOL0     C36465   6.179   9.364   6.057 -0.3177 -0.9378  0.9181
  271MOL0     C36466   6.045   9.309   6.008  0.1443  0.3633  0.4801
  271MOL0     N36467   6.016   9.167   6.044  0.3842  1.1812  0.3368
  271MOL0     C36468   6.104   9.058   6.022  1.0590 -0.3944 -0.0104
  271MOL0     C36469   6.040   8.946   6.063  0.2914  0.7091  1.1875
  271MOL0     C36470   6.075   8.801   6.067  0.4060  0.5298 -0.8324
  271MOL0     C36471   6.212   8.759   6.106 -0.1925  0.3372  1.0027
  271MOL0     C36472   6.213   8.609   6.127  0.1333  0.4248  0.3053
  271MOL0     C36473   6.363   8.557   6.127  0.1565 -0.9637  0.9452
  271MOL0     O36474   6.424   8.559   6.262  0.9524 -0.6574 -0.8211
  271MOL0     C36475   6.545   8.631   6.280  1.0870  0.4835 -0.9930
  271MOL0     C36476   6.551   8.734   6.379 -0.8913  0.6661  0.1804
  271MOL0     C36477   6.666   8.807   6.396 -0.5899  0.0609  0.5367
  271MOL0     C36478   6.776   8.767   6.320  0.1159 -0.5610 -1.2819
  271MOL0     C36479   6.897   8.842   6.340 -1.4357  0.7833 -0.6451
  271MOL0     O36480   6.998   8.815   6.254  1.0459  0.1209  0.3111
  271MOL0     C36481   7.116   8.882   6.269 -0.3561 -0.4895  0.4191
  271MOL0     C36482   7.166   8.955   6.168  0.2042 -0.2444  0.2427
  271MOL0     C36483   7.272   9.049   6.189  0.1188  0.6286 -0.1458
  271MOL0     C36484   7.336   9.060   6.318 -0.2151 -0.6359  0.4607
  271MOL0     O36485   7.442   9.145   6.334 -0.7478  0.4203  0.1278
  271MOL0     C36486   7.522   9.139   6.455 -0.3480 -0.4824  0.3191
  271MOL0     C36487   7.637   9.238   6.429 -1.1597  0.7991 -0.2008
  271MOL0     C36488   7.737   9.219   6.548 -0.1382 -0.0153  0.1349
  271MOL0     C36489   7.846   9.126   6.527 -0.2011  0.8076  0.0801
  271MOL0     C36490   7.944   9.110   6.648  0.6272 -0.2641 -0.0039
  271MOL0     C36491   7.863   9.061   6.770 -0.0530  0.4320  1.0700
  271MOL0     C36492   7.780   8.934   6.750 -0.8170  0.5992  0.0207
  271MOL0     C36493   7.747   8.856   6.887 -0.3473  0.0925  0.5235
  271MOL0    Cl36494   7.898   8.802   6.970  0.0648  0.0889 -0.2688
  271MOL0     C36495   7.289   8.974   6.415  0.3777  0.3425 -0.1442
  271MOL0     C36496   7.182   8.889   6.391  0.4640 -0.2406 -0.2499
  271MOL0     O36497   6.900   8.930   6.424 -0.0332  0.1085  0.2523
  271MOL0     C36498   6.777   8.666   6.225  0.0146  0.2942 -0.5191
  271MOL0     C36499   6.657   8.599   6.205 -0.4783 -0.5271  0.4658
  271MOL0     N36500   5.911   8.987   6.091 -0.6008  0.2391  0.2014
  271MOL0     N36501   5.896   9.112   6.083  0.1146  0.1942  0.7795
  271MOL0     C36502   7.003   9.564   5.568  1.1554 -0.4802 -1.1380
  271MOL0     C36503   7.132   9.537   5.541 -0.3958  0.6735 -0.0942
  271MOL0     C36504   7.548   9.529   5.470 -0.7459 -0.7060 -0.3198
  271MOL0     C36505   7.628   9.593   5.561 -0.5268 -0.0584 -0.7251
  271MOL0     C36506   7.751   9.646   5.536  0.1173  0.4179 -0.0169
  271MOL0     C36507   7.801   9.646   5.400  0.5207  0.3156  0.0568
  271MOL0     O36508   7.924   9.701   5.357  0.6688  0.5012  0.0630
  271MOL0     C36509   8.008   9.762   5.454 -0.1091 -0.5492  0.1482
  271MOL0     C36510   8.150   9.763   5.402 -0.5759  0.0935  0.7387
  271MOL0     C36511   8.253   9.856   5.484  0.9535 -0.8867 -0.4155
  271MOL0     C36512   8.244  10.005   5.441  0.5282 -0.1301 -0.7793
  271MOL0     C36513   8.286  10.025   5.304  0.5185  0.6753  0.7738
  271MOL0     C36514   8.325  10.060   5.195  0.2131 -0.5020  0.0354
  271MOL0     C36515   7.722   9.583   5.309  0.7464 -0.2710  0.1457
  271MOL0     C36516   7.594   9.534   5.340 -0.9950  0.5302  0.8393
  271MOL0     C36517   7.523   9.475   5.226  0.6404  0.1135  0.7181
  271MOL0     H36518   7.262   9.503   5.860  2.6361 -1.3976 -2.0474
  271MOL0     H36519   7.028   9.549   5.907 -0.4949  1.2299 -0.2185
  271MOL0     H36520   6.779   9.502   5.916 -1.3968  0.9118  1.6538
  271MOL0     H36521   6.828   9.672   5.920 -1.6639 -0.1737  1.5938
  271MOL0     H36522   6.588   9.561   5.752 -0.4968  1.0755 -1.0931
  271MOL0     H36523   6.619   9.724   5.807 -2.5060 -0.7020  0.5468
  271MOL0     H36524   6.574   9.683   6.025 -0.5627 -1.3502  2.3072
  271MOL0     H36525   6.583   9.507   6.002  0.8792 -0.3041  0.6429
  271MOL0     H36526   6.365   9.694   5.911  1.3648  1.5273  2.7556
  271MOL0     H36527   6.362   9.516   5.873 -2.7289  0.2550  1.0699
  271MOL0     H36528   6.376   9.501   6.149 -1.2124 -0.7773 -0.9268
  271MOL0     H36529   6.348   9.666   6.134  0.3710  0.0099  0.8808
  271MOL0     H36530   6.124   9.536   6.164  0.2618 -1.6893 -0.3098
  271MOL0     H36531   6.126   9.572   6.000 -0.0183  1.7093  1.1514
  271MOL0     H36532   6.209   9.318   6.151  0.4764  1.3205  1.8463
  271MOL0     H36533   6.250   9.333   5.981 -2.3743 -1.3964 -0.9241
  271MOL0     H36534   5.962   9.362   6.056  0.9562 -1.1091  3.8108
  271MOL0     H36535   6.032   9.316   5.900 -1.9069 -3.0263  0.3520
  271MOL0     H36536   6.200   9.079   5.976 -0.1748  1.0181 -2.1184
  271MOL0     H36537   6.005   8.758   6.139 -0.4742 -2.3220 -3.1907
  271MOL0     H36538   6.036   8.754   5.977 -0.5167 -0.2801 -0.0314
  271MOL0     H36539   6.279   8.780   6.022  0.7578  0.0794  1.6815
  271MOL0     H36540   6.243   8.813   6.196  0.8698  2.0609 -0.3374
  271MOL0     H36541   6.155   8.562   6.048 -0.7512  3.9961 -1.3868
  271MOL0     H36542   6.173   8.580   6.225 -2.1904  0.6890 -0.4956
  271MOL0     H36543   6.425   8.619   6.062  0.4509  0.8146  2.8152
  271MOL0     H36544   6.377   8.452   6.099 -1.0066 -0.7123 -0.7379
  271MOL0     H36545   6.458   8.755   6.430  0.0847  1.1624  1.8365
  271MOL0     H36546   6.665   8.886   6.471 -1.7843  1.2235 -0.6517
  271MOL0     H36547   7.113   8.956   6.073  0.0458 -2.3506  0.2819
  271MOL0     H36548   7.312   9.111   6.109  1.0809  3.0712  2.0435
  271MOL0     H36549   7.454   9.181   6.529 -2.7233  0.3198 -2.1954
  271MOL0     H36550   7.560   9.041   6.487  1.8237  0.5761  1.2059
  271MOL0     H36551   7.688   9.217   6.335 -0.9926  0.2977 -0.0031
  271MOL0     H36552   7.608   9.343   6.418  1.3892  1.5407 -0.5107
  271MOL0     H36553   7.779   9.318   6.566  0.1306 -0.1908  0.4793
  271MOL0     H36554   7.675   9.197   6.636  2.2806  0.8777  2.1732
  271MOL0     H36555   7.897   9.167   6.440 -1.9011 -1.4733 -2.1492
  271MOL0     H36556   7.806   9.030   6.493 -2.5288  1.7015  0.1144
  271MOL0     H36557   7.987   9.209   6.666  1.4693 -0.4865 -0.7139
  271MOL0     H36558   8.031   9.046   6.630  1.7062  0.5862  1.7973
  271MOL0     H36559   7.931   9.047   6.855  2.9683 -3.1503 -1.5827
  271MOL0     H36560   7.789   9.134   6.802 -0.8221  0.2124 -0.1437
  271MOL0     H36561   7.832   8.858   6.690  1.2738 -0.1450  2.5753
  271MOL0     H36562   7.690   8.962   6.694 -2.0851 -3.3292 -0.2006
  271MOL0     H36563   7.683   8.918   6.950  0.5336  2.8131 -1.0825
  271MOL0     H36564   7.677   8.773   6.869 -1.0867  0.9851 -0.8975
  271MOL0     H36565   7.345   8.984   6.508 -2.4178  1.5390  1.5313
  271MOL0     H36566   7.151   8.820   6.469 -0.9172  0.9098  0.2525
  271MOL0     H36567   6.861   8.654   6.158 -3.1621 -1.4648 -4.6867
  271MOL0     H36568   6.656   8.527   6.124  2.9222  2.4653 -2.5797
  271MOL0     H36569   6.930   9.557   5.488  1.2340 -3.4577 -1.0435
  271MOL0     H36570   7.151   9.527   5.435  0.9906  0.5685  0.1518
  271MOL0     H36571   7.603   9.596   5.667  3.6476 -2.2229  0.5772
  271MOL0     H36572   7.805   9.684   5.622 -1.6663  0.2550  1.2482
  271MOL0     H36573   8.013   9.702   5.545  1.4456 -1.6246 -0.6117
  271MOL0     H36574   7.971   9.864   5.468 -1.2039 -0.6235 -1.7017
  271MOL0     H36575   8.163   9.794   5.298  2.3692 -3.9063 -0.3476
  271MOL0     H36576   8.183   9.659   5.404 -0.3978  0.0638 -1.5130
  271MOL0     H36577   8.356   9.822   5.474  0.4175 -2.0658 -2.4665
  271MOL0     H36578   8.227   9.857   5.590  1.4610 -1.3908 -0.2816
  271MOL0     H36579   8.140  10.033   5.459  0.9158 -0.1336  1.9514
  271MOL0     H36580   8.303  10.067   5.509 -1.5941 -0.4783  1.5215
  271MOL0     H36581   8.391  10.066   5.111 -0.5461 -3.1147 -0.8489
  271MOL0     H36582   7.752   9.566   5.206  0.6403 -0.7116  0.1849
  271MOL0     H36583   7.430   9.529   5.208 -0.5869 -2.1870 -0.3150
  271MOL0     H36584   7.576   9.498   5.133  0.5943 -1.5630  0.2459
  271MOL0     H36585   7.513   9.366   5.230  0.4772  0.0074 -1.5783
  272MOL0     O36586  11.266   4.678   3.873  0.3149 -0.2227  0.4983
  272MOL0     C36587  11.282   4.672   3.991  1.2728 -0.2119 -1.0172
  272MOL0     O36588  11.181   4.634   4.082  0.9716 -0.5584  0.3385
  272MOL0     C36589  11.114   4.525   4.043 -0.2417  0.2051  0.4359
  272MOL0     C36590  10.978   4.529   4.065  1.0475 -0.8395 -0.0499
  272MOL0     C36591  10.888   4.423   4.039  0.3787 -0.0917  0.3771
  272MOL0     C36592  10.948   4.295   4.015 -0.2975  0.0363  0.4247
  272MOL0     O36593  10.859   4.193   4.004  0.1766  0.5328 -0.1032
  272MOL0     C36594  10.894   4.081   3.921 -0.4200  0.5947 -0.6082
  272MOL0     C36595  10.764   4.001   3.892  0.0792  0.2107  0.1147
  272MOL0     C36596  10.782   3.846   3.877  0.0529  0.6012 -0.1634
  272MOL0     C36597  10.891   3.783   3.964  0.1343  0.2588  0.9581
  272MOL0     C36598  10.883   3.814   4.110 -0.5125  0.0154 -0.3438
  272MOL0     C36599  10.980   3.731   4.194  0.0305 -0.9600 -0.2046
  272MOL0     C36600  11.110   3.798   4.229 -0.0415 -0.1500  0.3978
  272MOL0     C36601  11.100   3.917   4.333 -0.4367  0.0108  0.3609
  272MOL0     N36602  11.236   3.980   4.347  0.2272  0.2602 -0.2458
  272MOL0     C36603  11.311   4.043   4.247  0.1553  1.2979  0.6830
  272MOL0     C36604  11.419   4.093   4.312  1.0853  0.5400  0.4556
  272MOL0     C36605  11.506   4.184   4.236  0.2207  0.3584 -0.4386
  272MOL0     C36606  11.586   4.279   4.334 -0.1260 -0.7127  0.4262
  272MOL0     C36607  11.679   4.359   4.241 -0.8055  0.4138  0.3676
  272MOL0     C36608  11.763   4.458   4.328  0.4283 -0.5111  0.1562
  272MOL0     O36609  11.686   4.561   4.391 -0.3637 -0.0693 -0.0810
  272MOL0     C36610  11.715   4.582   4.530 -0.8504 -0.2191  1.3444
  272MOL0     C36611  11.608   4.594   4.623  1.1784  0.0033 -0.1562
  272MOL0     C36612  11.640   4.620   4.750  0.7309  1.2043  0.2313
  272MOL0     C36613  11.767   4.637   4.797 -0.4620 -0.2984  1.1462
  272MOL0     C36614  11.782   4.647   4.938 -1.0376  0.2103  0.2070
  272MOL0     O36615  11.684   4.595   5.018  0.4849  0.5326 -0.2209
  272MOL0     C36616  11.675   4.614   5.151  0.5710  0.0789 -0.7474
  272MOL0     C36617  11.762   4.686   5.239  0.5691  0.7795  0.2513
  272MOL0     C36618  11.732   4.711   5.371 -0.3947  0.8462  0.6420
  272MOL0     C36619  11.623   4.663   5.427  1.3719 -0.1152 -0.9240
  272MOL0     O36620  11.618   4.663   5.568 -0.5618 -0.3463 -0.1305
  272MOL0     C36621  11.666   4.546   5.631 -0.4609  0.2139  1.1123
  272MOL0     C36622  11.688   4.584   5.781  0.7475 -0.3155 -0.2110
  272MOL0     C36623  11.547   4.570   5.859 -0.4674  0.0565  0.2340
  272MOL0     C36624  11.461   4.702   5.862 -0.5196  0.2587 -0.2706
  272MOL0     C36625  11.337   4.700   5.945  0.7444  0.0085  0.9420
  272MOL0     C36626  11.242   4.830   5.914 -0.3156  0.0962  0.9347
  272MOL0     C36627  11.315   4.957   5.967 -0.2539 -0.1272 -0.1479
  272MOL0     C36628  11.254   5.080   5.905  0.8333 -0.2820 -1.0651
  272MOL0    Cl36629  11.356   5.217   5.917  0.3586  0.0571  0.2186
  272MOL0     C36630  11.537   4.581   5.357 -0.0733  0.2783  0.1158
  272MOL0     C36631  11.563   4.564   5.218 -0.4396  0.0911  0.9775
  272MOL0     O36632  11.892   4.687   4.982  1.1738  0.3026  1.0446
  272MOL0     C36633  11.868   4.642   4.699 -0.4314  0.1369 -0.0331
  272MOL0     C36634  11.838   4.623   4.571  0.2568  0.8908 -0.0151
  272MOL0     N36635  11.400   4.080   4.452  0.0599 -0.0937 -0.2062
  272MOL0     N36636  11.291   4.009   4.467 -0.7320  0.4057  0.1359
  272MOL0     C36637  11.090   4.291   4.007  0.7682  0.1019  0.4366
  272MOL0     C36638  11.174   4.399   4.016 -0.0065 -0.7728 -1.5226
  272MOL0     C36639  11.401   4.727   4.055 -0.7281  0.1627 -0.4043
  272MOL0     C36640  11.385   4.811   4.164  0.2280 -0.1147  0.3283
  272MOL0     C36641  11.492   4.857   4.242  0.1720  0.0907  0.4132
  272MOL0     C36642  11.626   4.823   4.213 -0.2810 -1.2625 -0.2275
  272MOL0     O36643  11.743   4.877   4.256 -0.2861 -0.4244  0.2546
  272MOL0     C36644  11.734   4.960   4.364  0.1744  0.1081 -0.0412
  272MOL0     C36645  11.863   5.005   4.411  0.7166 -0.2214  0.1761
  272MOL0     C36646  11.941   5.067   4.292 -0.8828  0.4131 -0.1681
  272MOL0     C36647  12.044   5.169   4.343 -0.2909  0.2239  0.1246
  272MOL0     C36648  12.152   5.113   4.424  0.9863  0.0283 -0.4846
  272MOL0     C36649  12.249   5.083   4.491  0.6359  0.0842  0.5682
  272MOL0     C36650  11.645   4.733   4.099 -0.3524 -0.9039 -0.5226
  272MOL0     C36651  11.541   4.686   4.020  0.7679  0.7515 -0.2748
  272MOL0     C36652  11.568   4.593   3.903  1.0662  0.4856  0.7573
  272MOL0     H36653  10.947   4.629   4.095  1.2408 -0.8317  0.1261
  272MOL0     H36654  10.782   4.445   4.043  0.3709  1.4131 -3.5185
  272MOL0     H36655  10.916   4.118   3.820  0.4101 -1.3458 -1.1842
  272MOL0     H36656  10.974   4.021   3.965 -1.9550  0.4090  2.1345
  272MOL0     H36657  10.702   4.046   3.814 -0.7395  2.2283  1.8444
  272MOL0     H36658  10.701   4.016   3.980  1.7279  0.3601  1.3037
  272MOL0     H36659  10.815   3.815   3.777  1.1278  2.0311 -0.2809
  272MOL0     H36660  10.683   3.808   3.903 -0.0081  1.4024  0.8517
  272MOL0     H36661  10.871   3.675   3.960 -1.9081  0.6233 -0.0367
  272MOL0     H36662  10.990   3.799   3.922 -0.1815  0.3814  0.2572
  272MOL0     H36663  10.901   3.921   4.126  1.8016 -0.4063  0.2441
  272MOL0     H36664  10.778   3.806   4.139 -0.9015  3.2788 -0.4972
  272MOL0     H36665  10.940   3.694   4.289 -0.0610 -0.4605 -0.0500
  272MOL0     H36666  11.006   3.643   4.135  0.0315 -0.6956 -0.6015
  272MOL0     H36667  11.154   3.828   4.132  1.3590 -1.1820  0.6777
  272MOL0     H36668  11.187   3.728   4.264  3.2139  1.8996 -1.9532
  272MOL0     H36669  11.028   3.985   4.287  1.3998  0.9256 -1.3347
  272MOL0     H36670  11.054   3.893   4.429 -2.7296  1.7977 -0.2191
  272MOL0     H36671  11.287   4.046   4.141 -0.9434  1.2489  0.9178
  272MOL0     H36672  11.564   4.117   4.172  0.8033 -1.8695  2.2625
  272MOL0     H36673  11.438   4.237   4.168 -1.6030 -0.5120  0.6398
  272MOL0     H36674  11.510   4.340   4.385 -0.8277 -3.5431  3.0409
  272MOL0     H36675  11.639   4.220   4.409  2.3485 -0.9456 -1.4029
  272MOL0     H36676  11.627   4.415   4.163  0.1622 -0.3285 -0.8453
  272MOL0     H36677  11.745   4.294   4.184 -0.6927  0.9339 -0.1106
  272MOL0     H36678  11.849   4.491   4.269 -0.4175  0.6797 -0.4556
  272MOL0     H36679  11.805   4.395   4.406  0.0385 -0.5431  0.3431
  272MOL0     H36680  11.503   4.591   4.596  1.2451  2.2029 -0.8772
  272MOL0     H36681  11.554   4.610   4.815  1.9427  1.0296  1.8811
  272MOL0     H36682  11.849   4.745   5.211  0.5117  1.3328  1.1963
  272MOL0     H36683  11.793   4.774   5.435 -2.4497 -0.6501  4.3651
  272MOL0     H36684  11.596   4.467   5.603 -3.1346  2.6569  0.4099
  272MOL0     H36685  11.761   4.509   5.592 -1.5053 -0.1516 -1.2746
  272MOL0     H36686  11.752   4.508   5.826 -0.8186 -0.9273  1.1051
  272MOL0     H36687  11.724   4.686   5.796  0.7147 -0.6943  3.3352
  272MOL0     H36688  11.495   4.482   5.819  1.0288 -0.2060 -1.2706
  272MOL0     H36689  11.581   4.559   5.962 -0.7399  1.6352  0.5189
  272MOL0     H36690  11.436   4.726   5.758  0.3251 -1.9053 -1.0375
  272MOL0     H36691  11.524   4.781   5.903  1.5883 -1.7480  0.5861
  272MOL0     H36692  11.360   4.697   6.052  2.0176 -1.8745  0.6436
  272MOL0     H36693  11.281   4.609   5.922 -0.5575  1.8654 -4.9801
  272MOL0     H36694  11.236   4.830   5.805 -0.4145 -1.1824  0.9234
  272MOL0     H36695  11.140   4.809   5.949 -0.7723 -0.6485 -0.7659
  272MOL0     H36696  11.423   4.962   5.949  0.3718  0.8888  3.2000
  272MOL0     H36697  11.301   4.976   6.074 -0.3936  0.7925 -0.3199
  272MOL0     H36698  11.224   5.072   5.800 -0.5533 -2.0937 -0.5809
  272MOL0     H36699  11.167   5.087   5.971  2.1346 -3.3850  1.2498
  272MOL0     H36700  11.460   4.520   5.402  1.6386 -3.2858 -1.4481
  272MOL0     H36701  11.497   4.499   5.162  0.4509 -0.6356  0.7464
  272MOL0     H36702  11.971   4.666   4.726  0.5261 -2.2555 -1.2815
  272MOL0     H36703  11.914   4.633   4.494 -0.7967 -1.1375 -1.4166
  272MOL0     H36704  11.133   4.194   3.984  2.0131  0.1181  2.4630
  272MOL0     H36705  11.280   4.385   4.004  0.1137 -3.9189  1.5494
  272MOL0     H36706  11.291   4.854   4.199  0.2739  0.6303 -0.4361
  272MOL0     H36707  11.467   4.921   4.326 -5.3810  0.7150 -1.3360
  272MOL0     H36708  11.687   4.917   4.453  2.0946  2.2129  2.1364
  272MOL0     H36709  11.678   5.050   4.335 -1.8942 -0.4892  1.8340
  272MOL0     H36710  11.919   4.920   4.452  0.4846 -0.4356  0.0527
  272MOL0     H36711  11.852   5.074   4.495  4.5437  0.8627 -0.0202
  272MOL0     H36712  11.872   5.105   4.217  0.3311  1.7779 -0.6405
  272MOL0     H36713  12.003   4.994   4.238 -0.8535  0.5730 -0.3493
  272MOL0     H36714  12.092   5.223   4.261  0.4122 -2.4701 -1.3520
  272MOL0     H36715  11.992   5.248   4.399  1.2282 -0.5645  2.8058
  272MOL0     H36716  12.334   5.068   4.554  2.0029  1.1343 -0.9604
  272MOL0     H36717  11.749   4.709   4.077 -1.1101 -1.7061 -3.9001
  272MOL0     H36718  11.668   4.616   3.867  1.2876  0.3926  1.2994
  272MOL0     H36719  11.574   4.491   3.942 -2.9745  0.1245  0.9327
  272MOL0     H36720  11.484   4.591   3.833  1.1463  1.1001  0.6345
  273MOL0     O36721   9.619   8.578   8.063  0.6424 -0.5100 -0.1373
  273MOL0     C36722   9.520   8.651   8.053  0.2035 -0.1111 -0.6544
  273MOL0     O36723   9.506   8.763   8.133 -0.0959  0.0036 -0.2114
  273MOL0     C36724   9.602   8.792   8.229  0.3474  0.3934  0.0865
  273MOL0     C36725   9.709   8.867   8.200 -0.4648 -0.4335 -0.9676
  273MOL0     C36726   9.803   8.896   8.299 -0.0212 -0.1080 -0.0410
  273MOL0     C36727   9.807   8.832   8.423 -0.4161 -0.1940  0.2576
  273MOL0     O36728   9.912   8.860   8.512  0.0128  0.0302  0.1801
  273MOL0     C36729   9.939   8.769   8.612  1.1110  1.1630 -0.6225
  273MOL0     C36730  10.090   8.759   8.648  0.2125  1.3365 -0.1312
  273MOL0     C36731  10.164   8.693   8.542 -0.4408  0.3730 -0.5451
  273MOL0     C36732  10.305   8.679   8.581 -0.6604 -0.0293 -0.8293
  273MOL0     C36733  10.383   8.805   8.624  0.0251  0.2257 -1.0380
  273MOL0     C36734  10.403   8.904   8.509  0.5140 -1.3202  0.8080
  273MOL0     C36735  10.453   9.043   8.549  0.0028  0.1167 -0.6077
  273MOL0     C36736  10.470   9.122   8.414  0.3045  0.0187 -0.0876
  273MOL0     N36737  10.549   9.252   8.439  0.4497 -0.2441  0.8942
  273MOL0     C36738  10.623   9.300   8.546  0.1703 -0.0600  0.3063
  273MOL0     C36739  10.647   9.428   8.523 -0.4247 -0.1855 -0.0789
  273MOL0     C36740  10.740   9.522   8.588  0.5533 -0.0485  0.5292
  273MOL0     C36741  10.875   9.455   8.636 -1.5080 -0.3221  0.0686
  273MOL0     C36742  10.961   9.398   8.514  0.1425 -0.1649  0.3445
  273MOL0     C36743  10.967   9.242   8.515 -0.0731 -0.2286  0.2045
  273MOL0     O36744  11.062   9.198   8.611 -0.9681 -0.1393  0.4030
  273MOL0     C36745  11.065   9.070   8.651  0.7568  0.1943  0.2298
  273MOL0     C36746  10.972   8.974   8.611 -0.4258 -0.3478  0.0940
  273MOL0     C36747  10.999   8.847   8.664 -0.0327  0.1704 -0.3461
  273MOL0     C36748  11.108   8.813   8.745 -0.0063  0.3268 -1.5817
  273MOL0     C36749  11.128   8.676   8.789 -0.2340  0.3975 -0.0787
  273MOL0     O36750  11.215   8.663   8.889 -0.1939  0.4606 -0.1550
  273MOL0     C36751  11.245   8.531   8.934  0.7292 -0.1028  0.1169
  273MOL0     C36752  11.380   8.495   8.915  0.1014 -0.6141 -0.0731
  273MOL0     C36753  11.417   8.370   8.990 -0.1830 -0.8511 -0.1595
  273MOL0     C36754  11.324   8.288   9.056  0.8510  1.2452  0.3324
  273MOL0     O36755  11.347   8.172   9.127 -0.4720 -0.2774 -0.1170
  273MOL0     C36756  11.484   8.119   9.131 -0.5577  0.2550  0.3496
  273MOL0     C36757  11.547   8.163   9.266 -0.5660 -0.7588 -0.7979
  273MOL0     C36758  11.465   8.097   9.381  0.0514  0.1486  0.1682
  273MOL0     C36759  11.419   8.205   9.480  0.0692  0.1889  0.5363
  273MOL0     C36760  11.338   8.149   9.592  0.2276  0.0936 -0.6496
  273MOL0     C36761  11.380   8.026   9.666  0.2358 -0.0524  0.3721
  273MOL0     C36762  11.297   7.998   9.789 -0.8267 -0.6510  0.1298
  273MOL0     C36763  11.352   7.962   9.929 -0.7068 -0.0202  0.5123
  273MOL0    Cl36764  11.339   7.779   9.935 -0.3167  0.4917 -0.0974
  273MOL0     C36765  11.190   8.334   9.062 -0.0384 -0.2078 -0.0233
  273MOL0     C36766  11.153   8.457   9.009  0.0300 -0.1245 -0.4582
  273MOL0     O36767  11.056   8.585   8.744 -0.2425  0.3500 -0.0713
  273MOL0     C36768  11.182   8.914   8.795 -0.3966 -0.4463  0.1125
  273MOL0     C36769  11.165   9.040   8.747 -0.5425 -0.8517  0.5772
  273MOL0     N36770  10.587   9.449   8.408 -0.6785  0.1827 -0.0412
  273MOL0     N36771  10.526   9.356   8.350  0.0857  0.9037  0.4167
  273MOL0     C36772   9.684   8.765   8.461 -0.3208  0.3997  0.6042
  273MOL0     C36773   9.586   8.739   8.359 -0.0692  0.2073 -0.7541
  273MOL0     C36774   9.432   8.635   7.936 -0.1994  0.3444  1.0425
  273MOL0     C36775   9.378   8.750   7.878 -1.1332  0.0188 -0.3464
  273MOL0     C36776   9.293   8.736   7.772  0.3002 -0.1751 -0.0636
  273MOL0     C36777   9.249   8.616   7.711 -0.4678 -0.7015 -0.0822
  273MOL0     O36778   9.159   8.623   7.605 -0.5091  0.0172  0.4354
  273MOL0     C36779   9.091   8.503   7.566 -0.9400 -0.8329  0.7773
  273MOL0     C36780   9.177   8.430   7.460  0.5427  0.1276  1.0953
  273MOL0     C36781   9.101   8.329   7.368  0.4632 -0.7582 -0.2067
  273MOL0     C36782   9.022   8.218   7.449 -0.9087  0.4190 -0.0346
  273MOL0     C36783   9.098   8.161   7.561 -0.1154  0.4044 -0.1347
  273MOL0     C36784   9.150   8.114   7.660  0.3475  0.0772  0.0737
  273MOL0     C36785   9.300   8.502   7.771  0.3310 -0.1921  0.2233
  273MOL0     C36786   9.389   8.507   7.877 -0.9181  0.2345 -0.9226
  273MOL0     C36787   9.430   8.373   7.932 -0.3388  0.2284  0.1881
  273MOL0     H36788   9.718   8.914   8.102 -0.4643 -1.2614 -1.3769
  273MOL0     H36789   9.878   8.968   8.268 -2.3739  1.9565 -1.3629
  273MOL0     H36790   9.893   8.810   8.702  2.4113  1.0127  0.1301
  273MOL0     H36791   9.900   8.671   8.583  3.2032  0.1616 -0.2454
  273MOL0     H36792  10.085   8.694   8.735 -0.2000 -1.9246 -2.3828
  273MOL0     H36793  10.133   8.854   8.680  2.4783  0.7789 -1.3273
  273MOL0     H36794  10.154   8.764   8.458 -0.0363  2.8039  1.3381
  273MOL0     H36795  10.109   8.605   8.510 -5.6493  3.4377 -1.1028
  273MOL0     H36796  10.313   8.604   8.661  1.4144  0.1460 -0.8094
  273MOL0     H36797  10.356   8.641   8.492 -0.1479 -4.5863  1.1009
  273MOL0     H36798  10.327   8.847   8.709  0.7243  0.7545 -0.8276
  273MOL0     H36799  10.486   8.783   8.654 -0.1448 -0.0492 -0.6450
  273MOL0     H36800  10.471   8.855   8.439  1.1460 -1.6279  1.6178
  273MOL0     H36801  10.310   8.930   8.457  2.7436  4.1169 -1.1900
  273MOL0     H36802  10.549   9.034   8.600 -1.6211 -1.0848  2.4702
  273MOL0     H36803  10.379   9.085   8.617  2.0683  1.5565  0.8647
  273MOL0     H36804  10.507   9.061   8.331 -0.1976 -1.9918  1.1057
  273MOL0     H36805  10.367   9.156   8.395  1.1764  4.1763  1.4332
  273MOL0     H36806  10.655   9.243   8.633 -1.0575  2.0682  2.2687
  273MOL0     H36807  10.771   9.596   8.514  2.0014 -1.1265  0.0153
  273MOL0     H36808  10.685   9.570   8.669  0.1039 -1.4546  1.0956
  273MOL0     H36809  10.934   9.520   8.701  0.8391 -2.7317  0.4932
  273MOL0     H36810  10.848   9.370   8.699  1.3361 -0.9229  0.6056
  273MOL0     H36811  11.063   9.437   8.521  0.2224 -0.4970  1.2149
  273MOL0     H36812  10.917   9.429   8.419  1.3379  1.5944  0.3144
  273MOL0     H36813  10.994   9.204   8.416  2.0944 -3.6769  1.9620
  273MOL0     H36814  10.865   9.204   8.529 -0.9077  1.2953 -1.3510
  273MOL0     H36815  10.905   8.996   8.528  2.0374  2.4919 -1.3436
  273MOL0     H36816  10.930   8.771   8.629 -1.6781  1.2928  0.2855
  273MOL0     H36817  11.451   8.555   8.859  1.2557  1.3316  3.2099
  273MOL0     H36818  11.524   8.350   8.984  0.6200  2.3484  1.3510
  273MOL0     H36819  11.482   8.010   9.127 -1.6415  0.0399  3.7289
  273MOL0     H36820  11.548   8.157   9.050 -0.2953 -0.2119  0.3364
  273MOL0     H36821  11.653   8.138   9.275 -0.7293 -0.8317  1.6174
  273MOL0     H36822  11.541   8.272   9.274 -2.6549 -0.9723  4.1924
  273MOL0     H36823  11.382   8.045   9.331 -0.8602  0.0494  1.7158
  273MOL0     H36824  11.524   8.030   9.443 -1.3313 -0.7079  0.6222
  273MOL0     H36825  11.366   8.278   9.418 -0.6311 -1.2550 -0.6276
  273MOL0     H36826  11.507   8.251   9.525  1.1563 -1.8725  0.6117
  273MOL0     H36827  11.235   8.128   9.560 -0.1150  1.2059 -0.3149
  273MOL0     H36828  11.337   8.234   9.661 -0.5307  0.5892 -1.2612
  273MOL0     H36829  11.378   7.946   9.591  0.6604  0.3680 -0.0949
  273MOL0     H36830  11.482   8.043   9.702  0.0010 -3.7780  3.4112
  273MOL0     H36831  11.226   7.919   9.761 -2.2773  1.1791 -1.6231
  273MOL0     H36832  11.232   8.084   9.805 -1.2577 -0.7375 -1.0567
  273MOL0     H36833  11.449   8.008   9.951 -1.2362  0.7284  1.3112
  273MOL0     H36834  11.283   8.002  10.004  1.0474  0.7448  1.7818
  273MOL0     H36835  11.112   8.279   9.113  0.5605  0.3013  1.5041
  273MOL0     H36836  11.048   8.480   9.024 -0.1455 -1.0785 -0.1198
  273MOL0     H36837  11.263   8.905   8.866 -1.0331  2.8775  1.4798
  273MOL0     H36838  11.233   9.124   8.761 -1.2939  0.3875 -2.4468
  273MOL0     H36839   9.682   8.720   8.560 -2.6688  2.6447  1.6733
  273MOL0     H36840   9.498   8.678   8.374 -0.5031  0.6912 -1.2635
  273MOL0     H36841   9.410   8.847   7.913 -0.9642  0.0219 -0.5034
  273MOL0     H36842   9.255   8.836   7.750  0.9682  0.2918  0.8245
  273MOL0     H36843   9.008   8.528   7.500  1.3478  1.3198 -1.5290
  273MOL0     H36844   9.061   8.436   7.647 -2.4980 -1.8019 -0.5574
  273MOL0     H36845   9.266   8.386   7.506  1.8709  2.2209  0.6756
  273MOL0     H36846   9.210   8.507   7.389  0.6646  0.4416  1.4908
  273MOL0     H36847   9.184   8.273   7.326  1.1225  0.0562 -0.0096
  273MOL0     H36848   9.039   8.380   7.293  2.5226  1.0171 -0.7960
  273MOL0     H36849   8.921   8.242   7.482 -0.7167 -0.7131  1.4967
  273MOL0     H36850   9.017   8.145   7.367  2.2233  1.4163 -1.2888
  273MOL0     H36851   9.199   8.089   7.752  0.7333 -0.9680 -0.3917
  273MOL0     H36852   9.274   8.405   7.729 -2.5354  1.1818 -1.4187
  273MOL0     H36853   9.538   8.369   7.920 -0.4355  2.1412 -2.2619
  273MOL0     H36854   9.393   8.363   8.034  1.8510  1.5225  1.1790
  273MOL0     H36855   9.391   8.290   7.873  0.8127 -0.7128  0.7333
  274MOL0     O36856   8.585   6.378   1.772 -0.1020 -0.0432  0.2442
  274MOL0     C36857   8.635   6.267   1.757  1.0632  0.5180 -0.1215
  274MOL0     O36858   8.764   6.238   1.744 -0.6040 -0.2752  0.8394
  274MOL0     C36859   8.847   6.346   1.774  0.3024 -0.3047 -0.1427
  274MOL0     C36860   8.901   6.370   1.901 -0.3828 -0.4859 -0.7652
  274MOL0     C36861   9.000   6.464   1.920 -0.4602  0.0890 -0.2581
  274MOL0     C36862   9.031   6.547   1.812  0.5383  0.3631 -0.0854
  274MOL0     O36863   9.106   6.662   1.829  0.0868  0.1769 -0.2278
  274MOL0     C36864   9.238   6.645   1.784  0.4793  0.0101  0.2166
  274MOL0     C36865   9.335   6.573   1.875 -0.0506  0.1464  0.1091
  274MOL0     C36866   9.462   6.535   1.797 -0.0367  0.1824 -0.0722
  274MOL0     C36867   9.541   6.430   1.875 -0.7892  0.0004 -0.0319
  274MOL0     C36868   9.682   6.414   1.833 -0.1355 -0.0923  0.5682
  274MOL0     C36869   9.771   6.542   1.848  0.0862 -1.1015  1.0028
  274MOL0     C36870   9.925   6.518   1.834  1.0662  0.1482 -0.0467
  274MOL0     C36871   9.974   6.454   1.703 -0.5310 -0.1447  0.1200
  274MOL0     N36872   9.966   6.530   1.572  0.1163  0.1426  0.4917
  274MOL0     C36873   9.850   6.537   1.495  0.5395 -0.3661  1.0135
  274MOL0     C36874   9.895   6.588   1.377  0.3998  0.2730  0.0885
  274MOL0     C36875   9.823   6.603   1.245  0.9948  0.6797  0.8115
  274MOL0     C36876   9.868   6.478   1.154  0.6483 -0.3650 -0.4931
  274MOL0     C36877   9.868   6.498   0.998  0.4029  0.2222 -0.3175
  274MOL0     C36878   9.730   6.529   0.945 -0.0051 -0.1206  0.4399
  274MOL0     O36879   9.669   6.645   1.004 -1.2048  0.3854  0.8368
  274MOL0     C36880   9.716   6.770   0.968  0.4458 -0.0058  0.4452
  274MOL0     C36881   9.689   6.880   1.048  0.0913  0.9484  0.4130
  274MOL0     C36882   9.740   7.009   1.017  0.1951  0.4589  0.5473
  274MOL0     C36883   9.827   7.035   0.909  0.2673 -0.9667  0.8997
  274MOL0     C36884   9.883   7.167   0.881 -0.4591  0.5807 -0.0066
  274MOL0     O36885   9.839   7.271   0.957 -0.7223  0.3207 -0.5536
  274MOL0     C36886   9.870   7.398   0.935  0.6045 -0.5105  0.5627
  274MOL0     C36887   9.793   7.492   1.003 -0.2866  0.4421  0.3234
  274MOL0     C36888   9.819   7.633   0.985  0.1230 -0.2539  0.3948
  274MOL0     C36889   9.936   7.673   0.917 -0.9812  0.6951 -1.2163
  274MOL0     O36890   9.964   7.808   0.914 -0.5216  0.5862  0.1817
  274MOL0     C36891   9.912   7.866   0.794  0.6490 -0.8852 -0.1031
  274MOL0     C36892   9.929   8.022   0.795  0.1330  1.1642 -0.6475
  274MOL0     C36893   9.933   8.074   0.652  0.2567 -0.1991  0.1444
  274MOL0     C36894   9.914   8.226   0.664 -0.2102  0.1140 -0.4348
  274MOL0     C36895   9.931   8.310   0.531  0.3925  0.5890  0.4823
  274MOL0     C36896   9.848   8.279   0.413  0.3747 -0.4522  1.2148
  274MOL0     C36897   9.698   8.313   0.425 -0.2964 -0.6399 -0.3945
  274MOL0     C36898   9.627   8.262   0.306  0.1622 -0.7979  0.2125
  274MOL0    Cl36899   9.469   8.337   0.309 -0.2271 -0.1735  0.2904
  274MOL0     C36900  10.020   7.582   0.850  0.5870  0.6338 -0.5752
  274MOL0     C36901   9.987   7.441   0.862  0.5355  0.2003  0.2115
  274MOL0     O36902   9.962   7.172   0.787  0.9437 -0.2092 -0.3606
  274MOL0     C36903   9.857   6.928   0.827 -0.4517  1.2347  0.3045
  274MOL0     C36904   9.812   6.795   0.862  0.4187 -0.5194  0.5239
  274MOL0     N36905  10.024   6.631   1.393  0.1427  0.0358  0.1502
  274MOL0     N36906  10.063   6.599   1.513 -0.3742 -0.6001  0.1519
  274MOL0     C36907   8.961   6.530   1.690  0.0003 -0.2838 -1.0869
  274MOL0     C36908   8.883   6.429   1.667 -0.3875  0.0054  0.2894
  274MOL0     C36909   8.537   6.164   1.728  0.5017 -0.4624  0.5827
  274MOL0     C36910   8.495   6.101   1.846 -0.1374 -0.1392 -0.7128
  274MOL0     C36911   8.393   6.000   1.845 -0.2944  0.0226  0.4249
  274MOL0     C36912   8.333   5.964   1.726 -0.3377 -0.3823 -0.4549
  274MOL0     O36913   8.255   5.850   1.748  0.3248 -0.2483  0.9246
  274MOL0     C36914   8.209   5.781   1.631  0.1679 -0.7888  0.2408
  274MOL0     C36915   8.137   5.656   1.685 -0.1638 -0.6486  0.2744
  274MOL0     C36916   8.134   5.561   1.566 -0.3988 -0.8517  0.1366
  274MOL0     C36917   8.070   5.420   1.597  0.6626  0.4907 -0.3362
  274MOL0     C36918   8.044   5.349   1.471 -0.3078 -0.7613  0.3769
  274MOL0     C36919   8.032   5.285   1.368 -0.0774 -0.2675  0.0286
  274MOL0     C36920   8.373   6.026   1.606  0.3073 -0.3779 -0.4996
  274MOL0     C36921   8.479   6.127   1.605  0.6692 -0.1405 -0.1996
  274MOL0     C36922   8.508   6.197   1.472  0.0354  0.6119  0.6858
  274MOL0     H36923   8.857   6.314   1.983 -1.1607 -0.5584 -1.2271
  274MOL0     H36924   9.053   6.462   2.015 -2.3894 -3.1308  0.9208
  274MOL0     H36925   9.234   6.603   1.683  2.7648  0.0027  0.0869
  274MOL0     H36926   9.272   6.746   1.761  2.2922 -0.1268  2.0576
  274MOL0     H36927   9.294   6.477   1.909 -0.5717  0.5546  0.6466
  274MOL0     H36928   9.351   6.635   1.963  1.0471 -1.6089  1.2057
  274MOL0     H36929   9.508   6.634   1.789  2.0820 -0.6742  1.0273
  274MOL0     H36930   9.439   6.498   1.696  0.0294 -3.1075  1.0039
  274MOL0     H36931   9.546   6.465   1.979  0.3922  1.6053 -0.5764
  274MOL0     H36932   9.500   6.329   1.873  1.7608 -1.1145 -1.4577
  274MOL0     H36933   9.730   6.340   1.898  1.7194 -0.0788 -0.7060
  274MOL0     H36934   9.676   6.372   1.732  2.6677 -1.5077  0.8766
  274MOL0     H36935   9.740   6.621   1.779 -0.8922 -0.6029  1.9719
  274MOL0     H36936   9.762   6.593   1.944 -1.2340  1.6877 -0.4874
  274MOL0     H36937   9.970   6.452   1.909  0.1120 -1.7469 -1.0863
  274MOL0     H36938   9.979   6.613   1.844  0.8828  0.5706 -2.4304
  274MOL0     H36939  10.081   6.444   1.721 -0.7923  0.0508  1.9533
  274MOL0     H36940   9.939   6.351   1.699 -2.6331  0.3501  2.5680
  274MOL0     H36941   9.756   6.487   1.516 -0.2256  1.8160  3.3468
  274MOL0     H36942   9.714   6.608   1.253  1.1314  0.8724  3.5865
  274MOL0     H36943   9.859   6.695   1.198  1.8651  0.0842  0.2841
  274MOL0     H36944   9.970   6.446   1.177  0.7955  0.5248  0.1744
  274MOL0     H36945   9.802   6.393   1.172  0.7830 -0.5103 -0.6804
  274MOL0     H36946   9.898   6.401   0.957 -0.6400  0.1082 -0.8744
  274MOL0     H36947   9.941   6.577   0.981  1.1849 -0.5930 -0.8276
  274MOL0     H36948   9.664   6.442   0.957 -1.9337  1.3871  1.3967
  274MOL0     H36949   9.724   6.544   0.836  0.3505 -0.1205  0.4193
  274MOL0     H36950   9.628   6.864   1.136  2.5646  1.2555  2.3100
  274MOL0     H36951   9.704   7.094   1.074  0.5731  1.9479 -1.3117
  274MOL0     H36952   9.706   7.456   1.056  0.1738  0.5127  1.1465
  274MOL0     H36953   9.757   7.709   1.032 -1.8767 -0.9047 -1.0428
  274MOL0     H36954   9.957   7.830   0.701  1.0046  2.3193 -1.2724
  274MOL0     H36955   9.805   7.844   0.801  0.6205 -0.5836  0.4554
  274MOL0     H36956   9.845   8.074   0.843  1.2340  1.9671  0.4646
  274MOL0     H36957  10.023   8.038   0.848 -0.5282  2.4437  0.2102
  274MOL0     H36958  10.029   8.049   0.605 -0.1016 -1.7545  0.1802
  274MOL0     H36959   9.856   8.029   0.589 -0.6297  1.0371  0.3110
  274MOL0     H36960   9.997   8.247   0.731  1.1839 -1.9501 -1.4027
  274MOL0     H36961   9.827   8.256   0.722  0.8640 -0.1485  1.3866
  274MOL0     H36962  10.032   8.286   0.495 -0.9368 -2.5514 -1.6237
  274MOL0     H36963   9.924   8.418   0.551 -2.2092  0.8485 -1.3225
  274MOL0     H36964   9.891   8.345   0.336 -2.1260 -0.8161 -0.6303
  274MOL0     H36965   9.855   8.179   0.369  0.0591 -0.0647  0.2592
  274MOL0     H36966   9.697   8.421   0.447  2.5481 -0.6305  0.1084
  274MOL0     H36967   9.667   8.266   0.518  3.0639  1.0045  1.7646
  274MOL0     H36968   9.682   8.277   0.212  1.7031 -2.5170  0.7748
  274MOL0     H36969   9.621   8.153   0.310 -1.3592 -0.7885 -0.9238
  274MOL0     H36970  10.115   7.624   0.818  0.7163  0.9168  0.1677
  274MOL0     H36971  10.054   7.373   0.810  2.4621  1.7505  0.5499
  274MOL0     H36972   9.918   6.947   0.740  1.6737 -0.2257  1.3838
  274MOL0     H36973   9.855   6.713   0.805  0.8877  0.5508 -0.7117
  274MOL0     H36974   8.989   6.610   1.622 -0.4754 -0.3994 -1.4264
  274MOL0     H36975   8.846   6.423   1.565 -1.4769 -0.3705  0.6895
  274MOL0     H36976   8.547   6.113   1.940 -2.8935  1.9058  0.7201
  274MOL0     H36977   8.371   5.948   1.937  2.4840 -1.6919  0.2247
  274MOL0     H36978   8.297   5.748   1.575  0.7259  1.4234 -0.3189
  274MOL0     H36979   8.158   5.852   1.565  3.4942  2.4316  0.7946
  274MOL0     H36980   8.038   5.681   1.723 -1.8666 -1.6316 -3.1484
  274MOL0     H36981   8.195   5.614   1.767  0.5659 -1.1776 -0.4981
  274MOL0     H36982   8.234   5.551   1.525  0.3304  0.5708  1.4674
  274MOL0     H36983   8.071   5.606   1.489 -1.3866  1.4425  2.1496
  274MOL0     H36984   8.142   5.372   1.664 -1.1680 -0.3938  1.0661
  274MOL0     H36985   7.979   5.427   1.656  0.8145 -2.6715  0.4491
  274MOL0     H36986   8.025   5.223   1.281  4.0298 -0.5288 -0.3207
  274MOL0     H36987   8.313   5.995   1.521  1.1009 -2.2085 -0.4361
  274MOL0     H36988   8.580   6.134   1.418 -2.2461 -0.7682 -0.9547
  274MOL0     H36989   8.416   6.211   1.416  0.5339 -0.0926 -0.3469
  274MOL0     H36990   8.553   6.295   1.490 -0.3744  0.9222  0.0574
  275MOL0     O36991  10.497   3.748   3.291  0.3153  0.4973 -0.0579
  275MOL0     C36992  10.507   3.862   3.339 -0.2483 -0.9766  0.1866
  275MOL0     O36993  10.403   3.949   3.369  0.6369  0.3246 -0.1194
  275MOL0     C36994  10.280   3.908   3.328 -0.1831 -0.2978  0.4616
  275MOL0     C36995  10.242   3.882   3.199 -0.5028  0.7838  0.4264
  275MOL0     C36996  10.108   3.857   3.166  0.3640 -0.3085 -0.0193
  275MOL0     C36997  10.008   3.861   3.258  0.9099 -0.5273 -0.0674
  275MOL0     O36998   9.876   3.849   3.221  0.3813 -1.0380 -0.6093
  275MOL0     C36999   9.788   3.958   3.269 -0.1129  0.1819  0.4495
  275MOL0     C37000   9.644   3.933   3.244  0.0911  0.3964 -0.0689
  275MOL0     C37001   9.589   3.973   3.107  0.5557 -0.6350 -0.4733
  275MOL0     C37002   9.583   4.126   3.077 -0.1015 -0.5410 -0.0435
  275MOL0     C37003   9.591   4.174   2.931  0.1759  0.0559 -0.0482
  275MOL0     C37004   9.544   4.317   2.909 -1.1721  1.5545 -0.2958
  275MOL0     C37005   9.625   4.411   3.003  0.1490 -0.3080  0.2133
  275MOL0     C37006   9.572   4.452   3.141  0.4320 -1.0780 -0.9689
  275MOL0     N37007   9.514   4.585   3.151  0.5674  0.5718  0.3685
  275MOL0     C37008   9.397   4.625   3.091 -0.0886  0.3134 -0.3764
  275MOL0     C37009   9.403   4.762   3.084 -1.1458  0.3464 -0.6381
  275MOL0     C37010   9.301   4.848   3.010 -0.6753  0.1635  0.2372
  275MOL0     C37011   9.360   4.938   2.890  0.2720 -0.0782  0.1618
  275MOL0     C37012   9.358   5.087   2.935  0.3256 -0.3176  0.4798
  275MOL0     C37013   9.438   5.098   3.066 -0.4453 -0.1542  0.3622
  275MOL0     O37014   9.445   5.236   3.097 -0.5390 -0.4421 -0.2835
  275MOL0     C37015   9.541   5.281   3.193  0.1746  0.2320 -0.0198
  275MOL0     C37016   9.648   5.199   3.237  0.0346 -0.0403 -0.3956
  275MOL0     C37017   9.726   5.237   3.353 -0.2914 -1.3543  0.0715
  275MOL0     C37018   9.684   5.348   3.425 -0.6839 -0.3966 -0.0175
  275MOL0     C37019   9.753   5.379   3.560  0.5092  0.1546 -0.1490
  275MOL0     O37020   9.833   5.274   3.614 -0.7282  0.1257  0.1246
  275MOL0     C37021   9.927   5.290   3.710 -0.5105 -0.6446  0.1484
  275MOL0     C37022   9.931   5.180   3.798 -0.8652 -0.3676  0.1434
  275MOL0     C37023  10.028   5.187   3.904  0.2388 -0.4584 -0.3577
  275MOL0     C37024  10.105   5.308   3.919 -0.3353 -0.3794  0.1833
  275MOL0     O37025  10.196   5.336   4.013  0.0307 -0.2886 -0.1583
  275MOL0     C37026  10.240   5.232   4.103  0.3871 -0.0065  0.2168
  275MOL0     C37027  10.149   5.232   4.221  0.2818 -0.0075  0.2657
  275MOL0     C37028  10.195   5.116   4.322  0.6395 -0.6319 -0.2535
  275MOL0     C37029  10.141   5.131   4.469  0.2325 -0.4827 -0.5287
  275MOL0     C37030  10.170   5.010   4.550  0.4696 -0.3912 -0.7017
  275MOL0     C37031  10.072   4.896   4.522 -0.2298  0.0881 -0.0572
  275MOL0     C37032  10.095   4.767   4.608  0.4043 -0.4984 -0.2577
  275MOL0     C37033  10.027   4.646   4.530  0.3007 -0.9982 -0.9383
  275MOL0    Cl37034   9.852   4.661   4.568 -0.1894  0.1870 -0.1000
  275MOL0     C37035  10.100   5.412   3.824  0.2857 -0.4354  0.0728
  275MOL0     C37036  10.007   5.406   3.721  0.5282 -0.2638 -0.1572
  275MOL0     O37037   9.728   5.486   3.615 -0.0618 -0.2497 -0.7197
  275MOL0     C37038   9.584   5.433   3.375 -0.1573  0.9982 -0.0190
  275MOL0     C37039   9.515   5.402   3.262 -0.9971 -0.4200 -0.1866
  275MOL0     N37040   9.514   4.802   3.159  0.1913 -0.8088  0.3100
  275MOL0     N37041   9.576   4.695   3.191 -0.5829  0.4439  0.1940
  275MOL0     C37042  10.046   3.874   3.394  0.5565  0.4047  0.0021
  275MOL0     C37043  10.177   3.907   3.431 -0.2466  0.3536  0.0843
  275MOL0     C37044  10.636   3.892   3.398  0.5573 -0.0979  0.1857
  275MOL0     C37045  10.730   3.787   3.414  0.6710 -0.5331  0.6022
  275MOL0     C37046  10.859   3.805   3.460 -0.8673 -0.8606 -0.0388
  275MOL0     C37047  10.894   3.924   3.523  0.1226  1.4221 -1.2601
  275MOL0     O37048  11.015   3.931   3.590 -0.0905  0.0584  0.6015
  275MOL0     C37049  11.086   3.810   3.620  0.2273 -0.4645  0.2998
  275MOL0     C37050  11.222   3.848   3.663 -0.4465  0.2084  1.0578
  275MOL0     C37051  11.227   3.963   3.758  0.0018 -0.8349  0.3720
  275MOL0     C37052  11.367   3.971   3.828 -0.1186  0.6189 -0.0416
  275MOL0     C37053  11.397   3.859   3.915  0.0368 -0.8749  0.1372
  275MOL0     C37054  11.418   3.765   3.989  0.0609 -1.2617 -0.2226
  275MOL0     C37055  10.813   4.033   3.516  0.4871 -0.7517  0.3686
  275MOL0     C37056  10.688   4.017   3.448  0.1808  0.1267  0.7964
  275MOL0     C37057  10.603   4.138   3.426  0.0339 -0.1291 -0.4605
  275MOL0     H37058  10.321   3.879   3.124  0.8631  1.8412  1.7456
  275MOL0     H37059  10.089   3.841   3.060  1.6402 -1.7037 -0.0828
  275MOL0     H37060   9.802   3.971   3.377  2.8403  0.3780  0.1331
  275MOL0     H37061   9.812   4.055   3.224 -5.6176  0.8917 -1.7798
  275MOL0     H37062   9.571   3.979   3.311  0.7129  1.3523 -0.0253
  275MOL0     H37063   9.628   3.826   3.254 -1.0087  0.7873  4.3946
  275MOL0     H37064   9.487   3.934   3.095  0.6922 -2.8511  3.6974
  275MOL0     H37065   9.648   3.927   3.028 -0.5725  0.4050 -1.9803
  275MOL0     H37066   9.484   4.158   3.112 -0.2281  0.4806 -1.2496
  275MOL0     H37067   9.662   4.181   3.130  3.5306 -0.4218 -4.8697
  275MOL0     H37068   9.682   4.158   2.873 -0.7550 -0.3802 -1.4365
  275MOL0     H37069   9.520   4.117   2.870 -1.4969  0.1374  1.7127
  275MOL0     H37070   9.572   4.342   2.806 -3.2012  2.9837 -0.5544
  275MOL0     H37071   9.436   4.330   2.910 -0.9190  4.8568  2.2533
  275MOL0     H37072   9.643   4.491   2.931 -2.8929 -0.7570 -1.1810
  275MOL0     H37073   9.723   4.363   3.012 -0.3599 -1.5498 -0.5498
  275MOL0     H37074   9.500   4.378   3.177 -0.5474  0.5512  0.5620
  275MOL0     H37075   9.649   4.463   3.218  0.1206  0.6796 -0.8624
  275MOL0     H37076   9.309   4.569   3.061 -1.6675  0.1887  3.8250
  275MOL0     H37077   9.214   4.788   2.983 -1.0308  1.8698 -2.9484
  275MOL0     H37078   9.261   4.915   3.088  0.4946  0.6312  0.4702
  275MOL0     H37079   9.455   4.911   2.843  0.0084  1.6629 -1.5344
  275MOL0     H37080   9.287   4.925   2.810 -2.3600 -1.0976  2.5590
  275MOL0     H37081   9.253   5.119   2.943 -0.6816 -1.9796 -3.6702
  275MOL0     H37082   9.402   5.151   2.858 -0.6440 -1.8059 -1.3939
  275MOL0     H37083   9.538   5.053   3.059 -2.0501 -3.9793 -0.6817
  275MOL0     H37084   9.391   5.052   3.153  0.6072 -0.5207  0.7544
  275MOL0     H37085   9.679   5.102   3.201  2.5569  0.2577  0.6910
  275MOL0     H37086   9.814   5.182   3.384  2.0618  1.2920 -1.3462
  275MOL0     H37087   9.866   5.096   3.776 -1.6002  0.2425 -0.1016
  275MOL0     H37088  10.028   5.112   3.983 -1.6835  1.0228  1.1434
  275MOL0     H37089  10.236   5.130   4.066  0.1898 -0.0505  0.3541
  275MOL0     H37090  10.342   5.245   4.140  0.3630  1.1038 -0.0663
  275MOL0     H37091  10.159   5.325   4.279 -0.8694 -0.4567  1.2209
  275MOL0     H37092  10.045   5.222   4.192 -0.9943  1.8113  3.5991
  275MOL0     H37093  10.143   5.027   4.285 -2.5236  1.2765 -0.7636
  275MOL0     H37094  10.304   5.109   4.312  0.6850  1.3993 -1.8499
  275MOL0     H37095  10.033   5.144   4.459 -0.1705 -2.3038  0.9426
  275MOL0     H37096  10.190   5.219   4.513 -0.7308  1.9956 -4.0174
  275MOL0     H37097  10.163   5.039   4.655 -0.1856  1.9297 -1.3366
  275MOL0     H37098  10.275   4.984   4.534  1.3818  0.6092  2.7570
  275MOL0     H37099   9.972   4.942   4.526 -0.0925  0.3470  0.5007
  275MOL0     H37100  10.071   4.868   4.417 -0.8065 -1.7249  0.3813
  275MOL0     H37101  10.058   4.790   4.709  2.7249  2.8913 -0.0031
  275MOL0     H37102  10.199   4.736   4.620  0.3049 -1.5266 -1.8425
  275MOL0     H37103  10.037   4.655   4.422 -1.9114 -0.2969 -1.1347
  275MOL0     H37104  10.063   4.546   4.556  0.6887 -0.4138  0.9636
  275MOL0     H37105  10.160   5.501   3.842  2.7981 -2.1299  0.6470
  275MOL0     H37106   9.991   5.485   3.647 -1.7367 -1.6294 -1.2470
  275MOL0     H37107   9.537   5.510   3.437 -4.4161  0.5883 -2.3309
  275MOL0     H37108   9.432   5.465   3.233 -1.5594 -1.0232  0.0868
  275MOL0     H37109   9.975   3.878   3.477  1.1685 -1.9704  0.7107
  275MOL0     H37110  10.197   3.955   3.527  1.8063  0.9116 -0.5620
  275MOL0     H37111  10.702   3.686   3.387 -0.3840 -0.1729  0.2573
  275MOL0     H37112  10.911   3.710   3.472 -0.1776 -0.8115 -2.2650
  275MOL0     H37113  11.104   3.751   3.529 -1.1299  0.3879 -0.5638
  275MOL0     H37114  11.036   3.741   3.688  1.0774 -0.2677  1.1326
  275MOL0     H37115  11.281   3.876   3.575 -1.1969  0.3970  0.5989
  275MOL0     H37116  11.275   3.763   3.707  1.4277  0.0151 -1.3679
  275MOL0     H37117  11.147   3.958   3.833 -1.0777 -0.8025 -0.7476
  275MOL0     H37118  11.224   4.056   3.700  1.7623 -2.1238 -1.9614
  275MOL0     H37119  11.449   3.980   3.757 -0.1199  1.9613  0.1049
  275MOL0     H37120  11.350   4.062   3.887  0.4052  0.6435  0.0707
  275MOL0     H37121  11.455   3.690   4.056  2.1688 -0.0417  0.0424
  275MOL0     H37122  10.852   4.129   3.550  2.4874 -0.8267 -1.4461
  275MOL0     H37123  10.650   4.236   3.438 -2.0022  0.9108 -0.4777
  275MOL0     H37124  10.558   4.138   3.326 -1.7030  0.6679  0.2803
  275MOL0     H37125  10.524   4.148   3.501  0.6647  0.7323  0.1188
  276MOL0     O37126   4.433  10.048   2.600 -0.3388  0.0260  0.1990
  276MOL0     C37127   4.543  10.028   2.537 -0.8967  0.1886  0.2431
  276MOL0     O37128   4.572  10.049   2.405 -0.1957  0.3328 -0.3467
  276MOL0     C37129   4.475  10.098   2.325 -0.4410 -0.3311  0.2399
  276MOL0     C37130   4.425  10.225   2.336 -0.3261 -0.2196 -1.4622
  276MOL0     C37131   4.315  10.269   2.257  0.0731 -0.8244 -0.5218
  276MOL0     C37132   4.251  10.178   2.171 -0.0121  0.1246  0.4066
  276MOL0     O37133   4.158  10.228   2.079 -0.1874 -0.1849 -0.6511
  276MOL0     C37134   4.040  10.155   2.082  0.1436  0.3764  0.9793
  276MOL0     C37135   3.927  10.206   1.991  0.9761  0.7819 -0.9330
  276MOL0     C37136   3.970  10.217   1.849  0.5470 -0.8447 -0.6078
  276MOL0     C37137   3.855  10.270   1.763 -0.1026 -0.5394  0.6627
  276MOL0     C37138   3.903  10.351   1.641 -0.3886 -0.0012 -0.8588
  276MOL0     C37139   3.778  10.411   1.573 -0.6534 -0.7467  0.4365
  276MOL0     C37140   3.821  10.523   1.480  0.3844 -0.2750  0.7977
  276MOL0     C37141   3.887  10.462   1.359 -0.2184  1.0877 -0.0688
  276MOL0     N37142   3.968  10.572   1.306 -0.8948  0.5207  0.2894
  276MOL0     C37143   4.100  10.603   1.342 -0.2800 -0.0862 -0.0838
  276MOL0     C37144   4.145  10.686   1.252 -0.5368  0.8924 -0.2575
  276MOL0     C37145   4.282  10.745   1.242  0.4254  0.2602  0.2488
  276MOL0     C37146   4.377  10.630   1.201  0.3336 -0.1634 -0.2539
  276MOL0     C37147   4.367  10.587   1.055  0.5939  0.1253 -0.2324
  276MOL0     C37148   4.474  10.491   1.023 -0.2381 -0.5558 -0.8882
  276MOL0     O37149   4.425  10.438   0.905 -0.7472 -0.4769  0.3322
  276MOL0     C37150   4.506  10.355   0.830  0.2771  0.6306 -0.6053
  276MOL0     C37151   4.450  10.262   0.741  0.7516  0.1212 -1.0118
  276MOL0     C37152   4.508  10.163   0.664  0.3281 -0.1525  0.9817
  276MOL0     C37153   4.643  10.155   0.668 -1.0374 -0.1566  0.3225
  276MOL0     C37154   4.717  10.071   0.568  0.5184  1.1232  0.2281
  276MOL0     O37155   4.632  10.017   0.475  0.1193 -0.5794 -0.1201
  276MOL0     C37156   4.693   9.956   0.366  0.5943 -0.2569 -0.0942
  276MOL0     C37157   4.629   9.839   0.315  0.9918 -0.5185  0.4558
  276MOL0     C37158   4.662   9.777   0.191  0.0967 -0.3863  0.3969
  276MOL0     C37159   4.781   9.830   0.121  0.8203  0.1356 -0.7258
  276MOL0     O37160   4.832   9.767   0.009  0.7472 -0.2221 -0.4629
  276MOL0     C37161   4.755   9.669  -0.064 -0.3922  0.1728 -0.2500
  276MOL0     C37162   4.812   9.662  -0.214 -0.2214  0.0221 -0.6845
  276MOL0     C37163   4.780   9.786  -0.298  0.2761  0.5043 -0.1331
  276MOL0     C37164   4.841   9.773  -0.444 -0.5622 -0.9406  0.3956
  276MOL0     C37165   4.820   9.886  -0.539  0.3773 -0.8049  0.4098
  276MOL0     C37166   4.886   9.859  -0.673 -0.7939 -0.4776  0.7655
  276MOL0     C37167   4.845   9.729  -0.745 -0.8671  0.3901  0.3027
  276MOL0     C37168   4.922   9.714  -0.882  0.4446  0.0133 -0.3571
  276MOL0    Cl37169   4.867   9.555  -0.944  0.0856  0.0237  0.5387
  276MOL0     C37170   4.835   9.953   0.166 -0.5123  0.7793  0.3776
  276MOL0     C37171   4.798  10.009   0.287  0.5964 -0.1929  0.2813
  276MOL0     O37172   4.837  10.048   0.575  0.4838 -0.0371  0.4458
  276MOL0     C37173   4.711  10.241   0.756  0.7309  0.1419 -0.1309
  276MOL0     C37174   4.647  10.326   0.843  0.2250  0.1967 -0.1743
  276MOL0     N37175   4.043  10.713   1.160 -0.2968 -0.3691 -0.0797
  276MOL0     N37176   3.947  10.632   1.181 -0.2025  0.1129  0.0750
  276MOL0     C37177   4.301  10.047   2.159 -0.2579  0.5148  0.5585
  276MOL0     C37178   4.410  10.011   2.238 -0.6445  1.3974  0.2262
  276MOL0     C37179   4.653   9.973   2.620 -0.9215  0.6862  0.1415
  276MOL0     C37180   4.677  10.032   2.743  0.1159 -0.3452  0.1324
  276MOL0     C37181   4.774   9.996   2.835 -0.3766  0.5113  0.0022
  276MOL0     C37182   4.865   9.894   2.796  0.2646 -0.7533 -1.0153
  276MOL0     O37183   4.949   9.858   2.889 -0.1095 -0.2518 -0.0641
  276MOL0     C37184   5.011   9.734   2.883 -0.1414 -0.2349 -0.0464
  276MOL0     C37185   5.080   9.722   3.017 -0.0451 -0.2669 -0.0624
  276MOL0     C37186   4.983   9.677   3.129  0.6288  0.2157  0.4783
  276MOL0     C37187   4.894   9.795   3.190  0.5091  0.4691  0.5283
  276MOL0     C37188   4.970   9.889   3.275 -0.2804 -0.0145 -1.1059
  276MOL0     C37189   5.044   9.945   3.354 -0.5445 -0.2639  0.4967
  276MOL0     C37190   4.845   9.833   2.667 -0.4284  0.0501  0.1077
  276MOL0     C37191   4.741   9.864   2.588  0.1186 -0.8058  0.2847
  276MOL0     C37192   4.719   9.804   2.455 -0.1906  0.3092  0.3671
  276MOL0     H37193   4.474  10.287   2.411 -0.9506  0.1114 -1.3233
  276MOL0     H37194   4.272  10.368   2.269 -0.7494 -0.9130 -2.4300
  276MOL0     H37195   4.052  10.049   2.058 -1.3931 -0.0963  2.1027
  276MOL0     H37196   4.002  10.160   2.184  0.5068 -0.7412  1.1782
  276MOL0     H37197   3.875  10.289   2.040 -0.2199 -0.0648 -0.7112
  276MOL0     H37198   3.864  10.117   1.996 -0.0091  1.5274  2.0112
  276MOL0     H37199   4.000  10.120   1.809 -3.0477 -1.9022 -1.0938
  276MOL0     H37200   4.054  10.287   1.839  1.5431 -1.8110  0.6365
  276MOL0     H37201   3.792  10.185   1.733  0.2676 -0.1841 -1.1889
  276MOL0     H37202   3.787  10.329   1.826  0.4585  2.2950 -1.2416
  276MOL0     H37203   3.979  10.421   1.676 -0.5340  0.2270 -1.0002
  276MOL0     H37204   3.956  10.281   1.574  1.9855  1.0084 -0.1607
  276MOL0     H37205   3.716  10.330   1.533  0.2131 -3.8645  4.7117
  276MOL0     H37206   3.710  10.454   1.647  1.6518 -0.4863  2.5083
  276MOL0     H37207   3.884  10.600   1.524 -0.9766  2.7751 -2.1586
  276MOL0     H37208   3.726  10.571   1.454 -0.9447 -1.4181  3.2306
  276MOL0     H37209   3.949  10.375   1.383 -0.6917  0.0005 -2.4966
  276MOL0     H37210   3.799  10.432   1.302 -0.0947 -0.4616  0.5069
  276MOL0     H37211   4.153  10.554   1.424  1.3580 -1.1978 -1.7322
  276MOL0     H37212   4.294  10.827   1.170  0.9917 -0.1489 -0.1376
  276MOL0     H37213   4.296  10.788   1.341  1.2119  1.8024 -0.4915
  276MOL0     H37214   4.478  10.670   1.211 -0.3702  1.7687 -0.4013
  276MOL0     H37215   4.360  10.546   1.269 -0.9861  1.5475  1.6664
  276MOL0     H37216   4.356  10.672   0.988 -1.7577 -1.2816 -1.7564
  276MOL0     H37217   4.266  10.546   1.051  1.1296 -1.5312  1.2390
  276MOL0     H37218   4.480  10.416   1.103 -1.4691  0.1555 -0.0967
  276MOL0     H37219   4.567  10.548   1.012 -1.7507  2.2531 -0.0673
  276MOL0     H37220   4.342  10.271   0.736  0.3787 -0.7436  2.5733
  276MOL0     H37221   4.455  10.099   0.595  0.8880  0.2480  0.1692
  276MOL0     H37222   4.557   9.794   0.382 -1.0950  1.6303 -0.1941
  276MOL0     H37223   4.623   9.680   0.160  4.1673 -2.1573  0.2207
  276MOL0     H37224   4.757   9.566  -0.027 -1.2908  0.3469  0.3101
  276MOL0     H37225   4.651   9.697  -0.049 -0.1324 -0.5329  4.4199
  276MOL0     H37226   4.919   9.643  -0.224  0.0386  1.9435 -1.8760
  276MOL0     H37227   4.763   9.576  -0.260  1.4253 -0.9291 -0.7257
  276MOL0     H37228   4.672   9.794  -0.306  0.3948  1.8587 -0.7193
  276MOL0     H37229   4.823   9.865  -0.236  3.9426 -2.1020  1.0229
  276MOL0     H37230   4.802   9.679  -0.483 -2.0731 -0.0290 -0.3737
  276MOL0     H37231   4.949   9.752  -0.444 -0.3607 -0.2443 -2.0259
  276MOL0     H37232   4.866   9.972  -0.490  1.5624  0.0668 -2.0759
  276MOL0     H37233   4.715   9.904  -0.565  0.6786 -1.8960 -1.7577
  276MOL0     H37234   4.869   9.944  -0.739 -3.2461 -1.9491 -0.6826
  276MOL0     H37235   4.992   9.849  -0.651 -1.1266 -1.7892  1.9757
  276MOL0     H37236   4.736   9.719  -0.751 -0.8193  0.5452 -1.7322
  276MOL0     H37237   4.874   9.646  -0.681  0.4256  0.5970  0.0240
  276MOL0     H37238   4.876   9.797  -0.937 -2.0416 -0.1449  1.3095
  276MOL0     H37239   5.028   9.730  -0.857 -0.3551  0.4087  3.5126
  276MOL0     H37240   4.919   9.997   0.112 -0.2505  0.9714  0.9323
  276MOL0     H37241   4.851  10.100   0.312 -1.8053  1.7225 -1.1755
  276MOL0     H37242   4.820  10.233   0.758  0.6744 -0.7188 -0.0380
  276MOL0     H37243   4.706  10.379   0.918  0.9881  0.8264 -1.1873
  276MOL0     H37244   4.249   9.976   2.096 -2.8123  0.3617  2.6757
  276MOL0     H37245   4.441   9.907   2.231 -2.2294  0.7455  1.9173
  276MOL0     H37246   4.606  10.111   2.766 -2.0211 -0.9889 -3.4184
  276MOL0     H37247   4.795  10.049   2.927 -0.9683  1.0881 -0.1827
  276MOL0     H37248   5.085   9.730   2.802 -1.8910 -1.6545 -1.6712
  276MOL0     H37249   4.936   9.657   2.862 -1.1107  1.1435 -2.0016
  276MOL0     H37250   5.119   9.818   3.052  1.9980  0.0314 -2.7231
  276MOL0     H37251   5.166   9.656   3.000  0.3902  0.5149 -0.9810
  276MOL0     H37252   5.043   9.637   3.212  0.3338  3.0792  2.2203
  276MOL0     H37253   4.914   9.607   3.082  1.0870 -0.8461  1.3268
  276MOL0     H37254   4.842   9.854   3.114 -0.9087 -1.5379 -0.1630
  276MOL0     H37255   4.825   9.742   3.257  2.1068 -1.9891  0.3861
  276MOL0     H37256   5.102  10.004   3.423 -0.5420  1.2181 -0.7240
  276MOL0     H37257   4.910   9.754   2.632 -0.9372 -0.4369  0.2450
  276MOL0     H37258   4.743   9.699   2.474  1.3807  0.5575 -0.1215
  276MOL0     H37259   4.613   9.814   2.429 -1.4658 -0.8813  4.3688
  276MOL0     H37260   4.782   9.852   2.379  1.4387 -0.8895  0.9144
  277MOL0     O37261   6.450   1.716   9.726  0.4413  0.1367  0.0428
  277MOL0     C37262   6.349   1.716   9.658  1.5748  0.0957 -0.0565
  277MOL0     O37263   6.227   1.766   9.691  0.7183 -0.0250  0.0389
  277MOL0     C37264   6.190   1.811   9.817  0.5074  0.7026 -0.3657
  277MOL0     C37265   6.093   1.737   9.872 -0.7332 -0.5043  0.4224
  277MOL0     C37266   6.041   1.779  10.001 -0.2100  0.6248 -0.2681
  277MOL0     C37267   6.090   1.885  10.071  0.9226  0.0414 -0.0164
  277MOL0     O37268   6.022   1.933  10.180  0.0862  0.5324 -0.3470
  277MOL0     C37269   6.094   1.995  10.293  0.7325  0.4726 -0.2040
  277MOL0     C37270   5.992   2.050  10.403 -1.0994 -0.2856 -0.4808
  277MOL0     C37271   6.075   2.071  10.528 -0.1220  0.2775  0.4347
  277MOL0     C37272   6.097   1.951  10.615  0.8097 -0.2024 -0.8102
  277MOL0     C37273   6.113   1.996  10.760 -0.0090 -0.2590 -0.3741
  277MOL0     C37274   6.121   1.878  10.865 -1.1292  0.0842  0.3583
  277MOL0     C37275   6.109   1.907  11.015  0.3295 -0.2044  0.6104
  277MOL0     C37276   6.187   2.029  11.064  0.1968  0.1058  0.0717
  277MOL0     N37277   6.330   1.997  11.086 -0.3429  0.3990 -0.1248
  277MOL0     C37278   6.433   1.995  10.990  0.3535 -0.8667 -0.6585
  277MOL0     C37279   6.548   1.985  11.068  0.1133 -0.5831  0.2349
  277MOL0     C37280   6.682   1.993  11.011  0.0290 -0.1834  0.7830
  277MOL0     C37281   6.744   2.127  11.021 -1.2238 -0.0254 -0.0184
  277MOL0     C37282   6.768   2.189  11.158  0.4621  0.3700  0.7719
  277MOL0     C37283   6.891   2.127  11.222  0.2112  0.5550 -0.0679
  277MOL0     O37284   7.016   2.136  11.151  0.3294 -0.6994 -0.3696
  277MOL0     C37285   7.129   2.095  11.226  0.7173  0.1439 -0.3133
  277MOL0     C37286   7.245   2.091  11.145 -0.1901 -0.2636 -0.5054
  277MOL0     C37287   7.358   2.020  11.189 -0.3851  0.9775  0.4224
  277MOL0     C37288   7.363   1.961  11.320  0.2495 -0.5113  0.3191
  277MOL0     C37289   7.475   1.881  11.351 -0.5062  0.4303 -0.1794
  277MOL0     O37290   7.553   1.835  11.252 -0.6487  0.5781  0.0689
  277MOL0     C37291   7.645   1.742  11.288  0.1506  0.3222 -0.2979
  277MOL0     C37292   7.599   1.616  11.339 -0.2916  1.9194  0.0297
  277MOL0     C37293   7.681   1.519  11.387  0.0511  0.3225  0.8841
  277MOL0     C37294   7.819   1.538  11.390 -0.4311 -0.7128 -0.2915
  277MOL0     O37295   7.910   1.443  11.433  0.2260  0.0518  0.0303
  277MOL0     C37296   7.881   1.310  11.384  0.7070 -0.0032  0.3301
  277MOL0     C37297   7.998   1.213  11.397 -0.6640 -0.4158  0.3327
  277MOL0     C37298   7.977   1.077  11.321  0.5726 -0.1325 -0.5960
  277MOL0     C37299   7.933   1.085  11.168 -0.4104  0.7070 -0.4404
  277MOL0     C37300   7.980   0.958  11.079  1.4933 -0.0896 -1.1537
  277MOL0     C37301   7.933   0.821  11.140 -0.2571 -0.4638  1.1505
  277MOL0     C37302   7.774   0.810  11.138  0.5575  0.2542 -0.3555
  277MOL0     C37303   7.726   0.663  11.121 -0.0092 -0.4471  0.8781
  277MOL0    Cl37304   7.643   0.612  11.274 -0.2059  0.2823 -0.0910
  277MOL0     C37305   7.866   1.658  11.330 -0.0031  0.5476  0.5135
  277MOL0     C37306   7.781   1.753  11.280  0.4625  0.1896 -0.0181
  277MOL0     O37307   7.473   1.837  11.467  0.1534 -0.2585  0.3008
  277MOL0     C37308   7.246   1.975  11.396 -1.8077  0.4050  0.0114
  277MOL0     C37309   7.129   2.032  11.354 -0.7967 -0.5125 -0.2463
  277MOL0     N37310   6.504   1.973  11.199  0.4496  0.7286  0.0837
  277MOL0     N37311   6.381   2.008  11.204 -0.5102  0.4133 -0.0162
  277MOL0     C37312   6.192   1.960  10.012  1.0606 -0.1383 -0.1578
  277MOL0     C37313   6.244   1.921   9.884 -0.4066  0.1392  0.5254
  277MOL0     C37314   6.360   1.670   9.525 -0.2368 -0.2570 -0.6551
  277MOL0     C37315   6.295   1.746   9.422 -0.1622  0.7922 -0.7398
  277MOL0     C37316   6.305   1.709   9.287 -1.0382 -0.9460 -0.3269
  277MOL0     C37317   6.369   1.590   9.257 -0.0923 -0.1677  0.2269
  277MOL0     O37318   6.371   1.551   9.127 -0.4370  0.2530  0.6737
  277MOL0     C37319   6.257   1.472   9.096  1.0566 -0.1889  1.0729
  277MOL0     C37320   6.270   1.373   8.974 -0.6100 -0.4101 -0.1554
  277MOL0     C37321   6.258   1.457   8.840 -0.1885 -0.0389  0.6617
  277MOL0     C37322   6.245   1.363   8.716  0.7382  0.5337  0.7216
  277MOL0     C37323   6.117   1.291   8.724 -0.9393  0.1876  0.1579
  277MOL0     C37324   6.018   1.225   8.753 -1.1059 -0.1841  0.6534
  277MOL0     C37325   6.427   1.509   9.366 -0.5765 -0.0908  0.6626
  277MOL0     C37326   6.429   1.551   9.496 -0.7281 -0.4971  0.1077
  277MOL0     C37327   6.495   1.467   9.608  1.0106 -0.1045  0.4049
  277MOL0     H37328   6.052   1.649   9.824  0.6457 -1.8850  1.6481
  277MOL0     H37329   5.962   1.718  10.043  0.8090  0.9700  2.3454
  277MOL0     H37330   6.165   1.930  10.344  0.8865  2.2398  1.9938
  277MOL0     H37331   6.153   2.076  10.249  1.9559 -0.4010 -0.1915
  277MOL0     H37332   5.909   1.982  10.425  0.5204 -1.9478  0.7951
  277MOL0     H37333   5.961   2.153  10.380 -1.9700 -0.2671  0.6725
  277MOL0     H37334   6.024   2.155  10.577 -2.7204  0.1916 -1.8777
  277MOL0     H37335   6.179   2.102  10.509  0.3764 -0.2550  2.1073
  277MOL0     H37336   6.007   1.890  10.616  1.5875 -1.3913 -1.4251
  277MOL0     H37337   6.178   1.889  10.576 -0.6313 -2.6616 -0.0779
  277MOL0     H37338   6.198   2.064  10.774 -0.8920  0.4503  2.0350
  277MOL0     H37339   6.017   2.042  10.785 -0.9722 -2.2594 -0.1899
  277MOL0     H37340   6.031   1.818  10.847  0.0876 -1.7948  0.2244
  277MOL0     H37341   6.199   1.806  10.839 -1.9469 -0.2959 -1.1606
  277MOL0     H37342   6.129   1.814  11.070  0.4512 -0.3812  0.2742
  277MOL0     H37343   6.004   1.936  11.027 -0.1044 -1.7757  0.9056
  277MOL0     H37344   6.171   2.106  10.987 -0.4242 -0.5736 -0.4955
  277MOL0     H37345   6.138   2.079  11.148  0.9504  0.2683  0.4200
  277MOL0     H37346   6.417   1.998  10.883 -0.7726  1.3663 -0.4850
  277MOL0     H37347   6.749   1.922  11.062  0.4832  0.5456  1.2081
  277MOL0     H37348   6.680   1.958  10.907 -0.6790 -0.5405  0.9151
  277MOL0     H37349   6.840   2.109  10.971 -2.3737  0.0275 -2.3420
  277MOL0     H37350   6.680   2.189  10.957  1.4532  0.3469 -2.5972
  277MOL0     H37351   6.684   2.158  11.221  0.9790 -2.2555  0.2694
  277MOL0     H37352   6.769   2.297  11.143  0.3719 -0.0651 -3.9505
  277MOL0     H37353   6.870   2.020  11.231  0.1147  0.1284 -3.7627
  277MOL0     H37354   6.904   2.176  11.319 -0.7194  0.4848  0.1090
  277MOL0     H37355   7.244   2.138  11.047  2.0536  0.2505 -0.3350
  277MOL0     H37356   7.442   2.002  11.123  0.2810 -1.2252  1.7739
  277MOL0     H37357   7.492   1.595  11.347  0.1608 -1.0126 -0.4314
  277MOL0     H37358   7.622   1.431  11.411 -0.6237  1.1418  2.3654
  277MOL0     H37359   7.803   1.256  11.438  0.8492 -0.9159 -0.3503
  277MOL0     H37360   7.841   1.323  11.284 -0.2669 -2.5233  0.3381
  277MOL0     H37361   8.086   1.266  11.359 -1.3791 -0.3285 -1.2978
  277MOL0     H37362   8.014   1.204  11.505 -1.0902  0.9052  0.5221
  277MOL0     H37363   8.071   1.022  11.313  0.0060 -1.2166  0.0598
  277MOL0     H37364   7.896   1.019  11.365  0.1050  0.9544  0.0218
  277MOL0     H37365   7.987   1.172  11.131 -0.3114  0.2006 -1.5059
  277MOL0     H37366   7.826   1.105  11.160 -0.4597  0.4435 -0.4458
  277MOL0     H37367   8.087   0.964  11.057  1.7996 -1.0809 -0.0261
  277MOL0     H37368   7.932   0.978  10.982  1.6414  1.4607 -0.9279
  277MOL0     H37369   7.974   0.748  11.070 -0.0842  0.2310  0.5184
  277MOL0     H37370   7.973   0.800  11.240  0.0251  0.9620  1.3603
  277MOL0     H37371   7.726   0.879  11.068 -0.3219  2.9846  2.6590
  277MOL0     H37372   7.730   0.843  11.233  0.3973  0.0678 -0.3649
  277MOL0     H37373   7.672   0.652  11.027 -0.3546  0.1322  0.9975
  277MOL0     H37374   7.808   0.593  11.103  0.0498 -0.0353 -0.5393
  277MOL0     H37375   7.973   1.668  11.311 -0.3788  1.4504 -1.3966
  277MOL0     H37376   7.823   1.824  11.209  0.2165 -0.8859 -1.2841
  277MOL0     H37377   7.249   1.933  11.496  1.0585  0.6332  0.1177
  277MOL0     H37378   7.051   2.043  11.429 -0.4337 -1.4225  0.2788
  277MOL0     H37379   6.216   2.064  10.034  0.3717  1.2116 -4.6812
  277MOL0     H37380   6.318   1.976   9.826 -0.9401  1.1677  0.7997
  277MOL0     H37381   6.226   1.823   9.455 -3.6501 -3.0030  1.7135
  277MOL0     H37382   6.254   1.776   9.217 -1.3622  1.2803  1.9092
  277MOL0     H37383   6.178   1.545   9.079  0.2952 -1.8121 -3.7037
  277MOL0     H37384   6.222   1.407   9.176 -0.1758 -1.7081 -0.6328
  277MOL0     H37385   6.194   1.296   8.983 -1.4765  0.6564  2.8558
  277MOL0     H37386   6.373   1.338   8.975  0.0147  1.2256  2.0267
  277MOL0     H37387   6.343   1.525   8.827  0.4913 -0.7974  0.9927
  277MOL0     H37388   6.163   1.510   8.846  0.3429  0.9639  0.4193
  277MOL0     H37389   6.253   1.428   8.628  0.0969  2.5500  2.0795
  277MOL0     H37390   6.330   1.294   8.724 -0.0353 -0.6018 -0.4434
  277MOL0     H37391   5.934   1.169   8.789 -0.5280  0.2643  2.8823
  277MOL0     H37392   6.462   1.416   9.321  0.0034 -0.4101  1.7300
  277MOL0     H37393   6.454   1.483   9.708  1.2975  2.4769  0.1824
  277MOL0     H37394   6.480   1.360   9.591 -2.8122  0.3357  0.1154
  277MOL0     H37395   6.600   1.499   9.604  1.3297 -1.1026  0.4556
  278MOL0     O37396   8.478   4.377   0.279  0.1475  0.1090  0.0502
  278MOL0     C37397   8.422   4.268   0.242  0.1002 -0.0218 -0.5827
  278MOL0     O37398   8.494   4.154   0.210 -0.1536 -0.3696 -1.0140
  278MOL0     C37399   8.611   4.178   0.147 -0.0112 -1.6368  0.4744
  278MOL0     C37400   8.719   4.167   0.223 -0.1303 -1.3456 -0.4836
  278MOL0     C37401   8.839   4.215   0.179 -0.2035  0.1118 -0.2271
  278MOL0     C37402   8.855   4.262   0.052 -0.0167  0.8560  0.5349
  278MOL0     O37403   8.980   4.317   0.026 -0.4127  1.2671  0.1886
  278MOL0     C37404   9.011   4.406  -0.079  0.6168  0.1319 -0.4995
  278MOL0     C37405   8.961   4.547  -0.032  0.2115  0.9495  1.3688
  278MOL0     C37406   9.018   4.602   0.089  0.3114  0.2136 -0.2675
  278MOL0     C37407   9.171   4.601   0.109 -0.4915 -0.0783 -0.2848
  278MOL0     C37408   9.216   4.478   0.187  0.1764 -0.5230 -0.3710
  278MOL0     C37409   9.363   4.482   0.218  0.1386  0.4584  0.0956
  278MOL0     C37410   9.455   4.463   0.097 -0.6361  0.1368 -0.3559
  278MOL0     C37411   9.598   4.444   0.152 -0.5332  0.1621  0.3847
  278MOL0     N37412   9.676   4.372   0.047  0.2255  0.0000 -0.6920
  278MOL0     C37413   9.704   4.245   0.039 -0.7137 -0.0621  0.2526
  278MOL0     C37414   9.753   4.223  -0.088  1.2468 -0.0751 -0.8401
  278MOL0     C37415   9.771   4.099  -0.160  0.2051  1.0519  0.1200
  278MOL0     C37416   9.886   4.021  -0.095 -1.1385 -0.4300  0.7550
  278MOL0     C37417  10.027   4.103  -0.067 -0.8041 -0.4448  0.2056
  278MOL0     C37418  10.140   3.998  -0.075  0.5978  0.3103  0.3265
  278MOL0     O37419  10.179   3.989  -0.214 -0.9551  0.6397  0.7167
  278MOL0     C37420  10.297   3.924  -0.253  0.1895  0.2658 -0.7987
  278MOL0     C37421  10.341   3.817  -0.179  0.1706  0.6870 -0.4919
  278MOL0     C37422  10.460   3.752  -0.224  0.3846  0.3734  0.0430
  278MOL0     C37423  10.527   3.789  -0.333  0.2749 -0.3182  1.0943
  278MOL0     C37424  10.659   3.730  -0.380 -0.5589  0.9723  0.2137
  278MOL0     O37425  10.706   3.779  -0.499  1.0743  0.7413 -0.5999
  278MOL0     C37426  10.823   3.721  -0.548 -0.0380 -0.5238 -0.1656
  278MOL0     C37427  10.951   3.778  -0.520 -0.4555 -0.5915 -0.2385
  278MOL0     C37428  11.071   3.706  -0.551  0.3506 -0.5042  0.2915
  278MOL0     C37429  11.068   3.579  -0.614 -0.1697 -0.1066 -1.2570
  278MOL0     O37430  11.188   3.517  -0.642  0.6234 -0.3455 -0.2449
  278MOL0     C37431  11.184   3.391  -0.703  0.2619  0.5801  1.1798
  278MOL0     C37432  11.312   3.305  -0.689 -0.5706 -0.6060  0.5199
  278MOL0     C37433  11.307   3.162  -0.744 -0.9441  0.0849 -1.1140
  278MOL0     C37434  11.421   3.075  -0.690  0.6792  0.0580 -1.0430
  278MOL0     C37435  11.423   2.932  -0.722  0.2357 -0.3553  0.7149
  278MOL0     C37436  11.416   2.909  -0.874 -0.4949  0.1386 -0.0989
  278MOL0     C37437  11.486   2.776  -0.894 -0.4482  0.9734  0.9512
  278MOL0     C37438  11.438   2.727  -1.029  0.2100 -0.3217 -0.3786
  278MOL0    Cl37439  11.487   2.833  -1.163  0.0588  0.0043 -0.2994
  278MOL0     C37440  10.942   3.527  -0.643  0.1122 -0.0334  0.6995
  278MOL0     C37441  10.822   3.601  -0.607 -0.2497  1.0068 -0.9145
  278MOL0     O37442  10.712   3.637  -0.310  0.1380 -0.2143 -0.1873
  278MOL0     C37443  10.462   3.895  -0.407  0.3608 -0.4514  0.1882
  278MOL0     C37444  10.361   3.964  -0.363  0.6335 -0.2941  0.1858
  278MOL0     N37445   9.775   4.346  -0.142 -0.0557 -0.5873  0.0246
  278MOL0     N37446   9.727   4.436  -0.061  0.0964  0.3017  0.0226
  278MOL0     C37447   8.747   4.264  -0.036  0.0974 -0.6184  0.3031
  278MOL0     C37448   8.620   4.229   0.017  0.0661 -0.2499  1.2097
  278MOL0     C37449   8.275   4.272   0.234 -0.2986 -0.0767 -0.3480
  278MOL0     C37450   8.208   4.160   0.188  0.0551  0.5882  0.1223
  278MOL0     C37451   8.072   4.166   0.153  0.5696 -0.2010  0.6539
  278MOL0     C37452   8.000   4.281   0.164  0.7163  0.3656 -0.3247
  278MOL0     O37453   7.869   4.265   0.126  0.0810  0.4743  0.3761
  278MOL0     C37454   7.768   4.371   0.133 -0.4387  0.4678 -0.1306
  278MOL0     C37455   7.643   4.317   0.061 -0.8647 -0.1009 -0.1089
  278MOL0     C37456   7.618   4.168   0.090 -0.0693  1.0619 -0.1347
  278MOL0     C37457   7.600   4.123   0.237  0.1743 -0.3995 -0.4791
  278MOL0     C37458   7.463   4.161   0.290  0.4367  0.8834 -0.1262
  278MOL0     C37459   7.348   4.179   0.316  0.9076  0.4665  0.6163
  278MOL0     C37460   8.052   4.383   0.235 -0.0205 -0.1604 -0.5673
  278MOL0     C37461   8.189   4.385   0.271 -0.0598  0.6158  0.0318
  278MOL0     C37462   8.246   4.502   0.356  0.1588 -0.8201 -0.1587
  278MOL0     H37463   8.698   4.125   0.321 -0.0848 -0.3361 -0.0242
  278MOL0     H37464   8.924   4.202   0.246 -1.0718 -0.4854  0.7754
  278MOL0     H37465   9.120   4.400  -0.089  0.7380 -1.9000  1.3005
  278MOL0     H37466   8.966   4.376  -0.174  2.4865  2.5864 -2.2891
  278MOL0     H37467   8.851   4.546  -0.029  0.1364  0.9557 -0.3915
  278MOL0     H37468   8.999   4.609  -0.114  1.9849 -1.6398  0.1060
  278MOL0     H37469   8.973   4.537   0.165  0.8864  0.6496  0.4679
  278MOL0     H37470   8.980   4.701   0.115  3.1856  0.6017  3.4162
  278MOL0     H37471   9.219   4.592   0.011  1.2390 -4.4457  0.7629
  278MOL0     H37472   9.199   4.692   0.163 -3.0830  1.2733 -1.0142
  278MOL0     H37473   9.156   4.480   0.279 -3.3078 -0.1111 -2.4984
  278MOL0     H37474   9.191   4.394   0.121  1.8040 -2.9197  1.8240
  278MOL0     H37475   9.382   4.577   0.269  0.9409 -0.3181  1.2745
  278MOL0     H37476   9.379   4.399   0.287 -0.6173  1.7383  1.8765
  278MOL0     H37477   9.462   4.548   0.028 -0.4966 -0.6760 -1.3617
  278MOL0     H37478   9.423   4.365   0.061  2.1829 -1.5460  1.2791
  278MOL0     H37479   9.640   4.540   0.183  1.7808 -0.2398 -1.1947
  278MOL0     H37480   9.600   4.380   0.241  2.1888 -0.9328 -0.3520
  278MOL0     H37481   9.690   4.166   0.112  2.6969 -1.6111 -0.5832
  278MOL0     H37482   9.680   4.042  -0.140  1.1550 -0.9015 -0.8958
  278MOL0     H37483   9.795   4.113  -0.265 -1.4419  0.3054 -0.3884
  278MOL0     H37484   9.845   3.980  -0.002  0.3080 -5.2041 -0.3906
  278MOL0     H37485   9.907   3.935  -0.160 -1.7277 -0.0701  0.0809
  278MOL0     H37486  10.036   4.165   0.022  0.9842 -0.1468 -0.1379
  278MOL0     H37487  10.038   4.178  -0.146 -1.4853  2.1366  2.4113
  278MOL0     H37488  10.107   3.901  -0.038  0.3996  0.9165  1.7895
  278MOL0     H37489  10.222   4.023  -0.008 -0.1460  2.3847  0.5546
  278MOL0     H37490  10.301   3.786  -0.083 -0.1836 -0.5124 -1.0097
  278MOL0     H37491  10.497   3.665  -0.172 -0.7911 -0.3527 -0.2996
  278MOL0     H37492  10.958   3.869  -0.461 -0.8347  1.7546 -3.5060
  278MOL0     H37493  11.158   3.754  -0.506 -0.5785 -1.7266  3.7620
  278MOL0     H37494  11.099   3.333  -0.664 -1.0677  1.3297 -0.4442
  278MOL0     H37495  11.157   3.405  -0.808  0.5940 -1.8856  0.6980
  278MOL0     H37496  11.391   3.346  -0.752 -2.1636 -0.7448 -1.6539
  278MOL0     H37497  11.343   3.317  -0.584 -0.0265  3.5584  0.0628
  278MOL0     H37498  11.213   3.114  -0.713 -0.8826  2.2333  3.2300
  278MOL0     H37499  11.323   3.160  -0.852  1.2583 -2.3162 -0.8428
  278MOL0     H37500  11.416   3.076  -0.581 -0.1964  3.2094 -0.9993
  278MOL0     H37501  11.516   3.115  -0.727  0.6825  0.2426 -0.8342
  278MOL0     H37502  11.329   2.891  -0.685 -2.8933  2.1234 -3.5686
  278MOL0     H37503  11.505   2.881  -0.669 -1.0055 -2.1478  1.0221
  278MOL0     H37504  11.318   2.917  -0.922 -1.4677 -1.6381  1.4526
  278MOL0     H37505  11.474   2.981  -0.932 -1.0836 -0.3294 -1.2969
  278MOL0     H37506  11.458   2.700  -0.822  1.6083 -0.2654  0.5405
  278MOL0     H37507  11.595   2.785  -0.895 -0.4307  0.8142  1.3113
  278MOL0     H37508  11.473   2.625  -1.048 -2.2228 -2.4419  4.7195
  278MOL0     H37509  11.329   2.722  -1.041  0.4179  0.9721 -4.4711
  278MOL0     H37510  10.918   3.428  -0.681 -0.2431  0.9677 -1.9002
  278MOL0     H37511  10.732   3.545  -0.632  0.0499 -0.5284  1.1878
  278MOL0     H37512  10.492   3.932  -0.505 -1.7475 -1.0568 -0.7393
  278MOL0     H37513  10.318   4.049  -0.415 -4.9528 -4.2741 -2.7879
  278MOL0     H37514   8.759   4.306  -0.135 -1.8681 -0.9217 -0.1081
  278MOL0     H37515   8.532   4.232  -0.047  2.1987 -2.0252 -2.0820
  278MOL0     H37516   8.263   4.066   0.177  2.8003  1.8529  1.8809
  278MOL0     H37517   8.032   4.070   0.123  0.8466  0.8496 -3.8691
  278MOL0     H37518   7.803   4.464   0.086 -1.1577  0.6654 -0.2882
  278MOL0     H37519   7.738   4.397   0.235  0.8705 -0.5271  0.5375
  278MOL0     H37520   7.670   4.329  -0.045  6.5262  0.2818  1.2318
  278MOL0     H37521   7.560   4.381   0.089  0.4043  0.8204  1.7929
  278MOL0     H37522   7.683   4.104   0.030 -0.3537 -0.9550  1.5898
  278MOL0     H37523   7.518   4.149   0.049 -0.8788  2.8968  0.8775
  278MOL0     H37524   7.612   4.014   0.241 -0.6479 -0.5120 -0.8560
  278MOL0     H37525   7.675   4.161   0.307 -1.4314 -0.3334  1.2802
  278MOL0     H37526   7.242   4.191   0.323  1.0066  1.8467  0.0099
  278MOL0     H37527   7.986   4.460   0.275  0.7357 -0.8377  2.1925
  278MOL0     H37528   8.303   4.457   0.438 -0.2138  0.5698  0.9005
  278MOL0     H37529   8.299   4.576   0.296  1.5125 -1.6493 -0.0418
  278MOL0     H37530   8.164   4.549   0.411  0.0492 -3.2090  1.9069
  279MOL0     O37531   6.419   2.221   2.760  0.9112  0.2131 -0.4077
  279MOL0     C37532   6.462   2.333   2.783 -0.4919  0.1557  0.5518
  279MOL0     O37533   6.400   2.446   2.745 -0.5176 -0.8893  0.1987
  279MOL0     C37534   6.300   2.430   2.656  0.3555 -0.4020  1.8901
  279MOL0     C37535   6.174   2.391   2.695  0.3354 -0.3686 -1.2987
  279MOL0     C37536   6.066   2.392   2.610 -1.3549  0.6906  0.7015
  279MOL0     C37537   6.077   2.428   2.478 -0.3620 -0.5604 -0.3922
  279MOL0     O37538   5.968   2.421   2.408 -0.5932 -0.9157  0.1411
  279MOL0     C37539   5.947   2.281   2.362  0.0679 -0.0104 -0.4851
  279MOL0     C37540   5.806   2.255   2.415 -0.5966 -0.4087 -0.3791
  279MOL0     C37541   5.767   2.111   2.369 -0.3732 -0.0934 -0.0485
  279MOL0     C37542   5.626   2.075   2.420 -0.0232 -0.1144 -0.3231
  279MOL0     C37543   5.579   1.934   2.386  0.8115  0.7138 -0.3207
  279MOL0     C37544   5.425   1.933   2.380  0.1660 -0.6015 -0.6365
  279MOL0     C37545   5.386   1.790   2.375 -0.7054 -0.6701 -0.1657
  279MOL0     C37546   5.243   1.771   2.375  0.7343 -0.0026  0.4353
  279MOL0     N37547   5.206   1.635   2.340 -0.4228  0.2990 -0.1036
  279MOL0     C37548   5.235   1.513   2.404  0.1906 -0.3542 -0.4230
  279MOL0     C37549   5.165   1.423   2.331 -0.6339 -1.3117 -0.8660
  279MOL0     C37550   5.165   1.278   2.373 -0.9593  1.0574  0.9959
  279MOL0     C37551   5.192   1.200   2.239  0.3553 -0.7277 -1.1185
  279MOL0     C37552   5.057   1.153   2.179 -0.2761 -0.2770 -0.3882
  279MOL0     C37553   5.059   1.018   2.117  0.5167  0.6282 -0.4099
  279MOL0     O37554   5.122   1.018   1.990 -0.4839  0.2806  0.1232
  279MOL0     C37555   5.080   0.936   1.892 -0.2186  0.0995  0.2565
  279MOL0     C37556   5.130   0.968   1.768  0.5253  0.2766 -0.4071
  279MOL0     C37557   5.087   0.904   1.655  0.2285 -0.7019 -1.2220
  279MOL0     C37558   4.992   0.803   1.670 -0.6176  0.6640 -0.6849
  279MOL0     C37559   4.933   0.727   1.554  0.2109  0.8231 -1.1580
  279MOL0     O37560   4.833   0.633   1.575 -0.7769  0.3281 -0.2712
  279MOL0     C37561   4.765   0.589   1.465  0.1876  0.4913 -0.5366
  279MOL0     C37562   4.780   0.456   1.415  0.5149  0.6098  0.2469
  279MOL0     C37563   4.706   0.418   1.298 -0.2949 -0.1408  0.0239
  279MOL0     C37564   4.619   0.503   1.237 -0.2322 -0.1592  0.8028
  279MOL0     O37565   4.544   0.460   1.135  0.1081  0.3952 -0.7089
  279MOL0     C37566   4.478   0.539   1.039  0.1586  0.4766 -0.5271
  279MOL0     C37567   4.338   0.574   1.087  0.7257  0.4511 -0.0351
  279MOL0     C37568   4.281   0.695   1.022 -1.0219 -0.1250  0.2545
  279MOL0     C37569   4.143   0.725   1.081 -0.2058 -0.1707  1.6339
  279MOL0     C37570   4.079   0.849   1.008  0.3968  0.0296 -0.6099
  279MOL0     C37571   3.943   0.887   1.066 -0.3400  0.3775 -0.2525
  279MOL0     C37572   3.874   0.996   0.990  0.2172 -0.6210  0.4639
  279MOL0     C37573   3.721   0.997   1.022  0.2766 -0.7594  0.8109
  279MOL0    Cl37574   3.656   1.154   0.973  0.3252 -0.4350 -0.2267
  279MOL0     C37575   4.611   0.636   1.284 -0.2154 -0.3459  1.2028
  279MOL0     C37576   4.677   0.678   1.402  1.6977  0.4843  1.0826
  279MOL0     O37577   4.985   0.743   1.446 -0.4235 -0.5555  0.0177
  279MOL0     C37578   4.948   0.769   1.800  0.0212  0.0257  0.3383
  279MOL0     C37579   4.990   0.831   1.913  0.5818  0.2529  0.3842
  279MOL0     N37580   5.117   1.485   2.221  1.5707  0.1070 -0.3082
  279MOL0     N37581   5.131   1.608   2.229 -0.6276 -0.0878  0.1236
  279MOL0     C37582   6.205   2.463   2.432  0.2681 -0.0437 -0.9111
  279MOL0     C37583   6.318   2.471   2.523 -0.3780  0.4741  0.4321
  279MOL0     C37584   6.594   2.363   2.855 -0.2227 -0.5822  0.1407
  279MOL0     C37585   6.622   2.494   2.895  0.2626  0.0193 -0.6541
  279MOL0     C37586   6.739   2.526   2.957 -0.6914  0.0569 -0.1908
  279MOL0     C37587   6.838   2.431   2.976 -0.0649  0.4533  0.1747
  279MOL0     O37588   6.959   2.452   3.041 -0.0677  0.3040 -0.0292
  279MOL0     C37589   6.979   2.566   3.127  0.2665  0.3761 -0.4556
  279MOL0     C37590   7.122   2.627   3.109 -0.1391  0.2976  0.3775
  279MOL0     C37591   7.179   2.713   3.223  0.0035  0.5359  0.7146
  279MOL0     C37592   7.079   2.824   3.255  0.0459 -0.5692  0.8688
  279MOL0     C37593   6.978   2.788   3.355 -0.4581  0.3442  0.2401
  279MOL0     C37594   6.915   2.753   3.456  0.4458 -0.5850  0.0870
  279MOL0     C37595   6.821   2.301   2.925 -0.1929  0.8337 -0.7615
  279MOL0     C37596   6.693   2.265   2.872 -0.3946  0.2689 -0.0711
  279MOL0     C37597   6.697   2.122   2.825  0.0507 -0.4135  0.2832
  279MOL0     H37598   6.153   2.350   2.794 -1.6038 -2.1300 -2.3503
  279MOL0     H37599   5.961   2.370   2.625 -1.8986  0.0228 -3.0871
  279MOL0     H37600   5.957   2.276   2.254  1.8991  0.5539 -0.3852
  279MOL0     H37601   6.010   2.201   2.402  1.1138  1.3676  0.7681
  279MOL0     H37602   5.733   2.324   2.371  0.6177  0.7154 -0.7240
  279MOL0     H37603   5.790   2.261   2.522 -1.9749 -1.3554 -0.5166
  279MOL0     H37604   5.846   2.040   2.395  0.8907  0.3901 -2.2518
  279MOL0     H37605   5.769   2.106   2.259  0.6974 -0.9048 -0.0167
  279MOL0     H37606   5.631   2.088   2.529 -1.0497 -2.5063  0.0582
  279MOL0     H37607   5.555   2.137   2.365 -1.6337 -2.0886 -0.5767
  279MOL0     H37608   5.625   1.897   2.294 -2.0813  0.9713 -1.9687
  279MOL0     H37609   5.619   1.864   2.460  0.1978 -0.4383 -1.0661
  279MOL0     H37610   5.391   1.988   2.468  3.2957 -0.0193  0.3347
  279MOL0     H37611   5.389   1.987   2.292 -0.1941 -1.3107 -0.9326
  279MOL0     H37612   5.429   1.736   2.460  0.1316  0.4096  0.1265
  279MOL0     H37613   5.428   1.755   2.279 -2.1861 -0.2533 -0.9942
  279MOL0     H37614   5.196   1.786   2.473 -1.9827 -1.0258 -0.6126
  279MOL0     H37615   5.195   1.841   2.306 -0.0149 -0.7813  0.1546
  279MOL0     H37616   5.287   1.500   2.499  0.6363  2.0669 -0.2553
  279MOL0     H37617   5.241   1.243   2.444 -0.3561 -2.6916 -1.2368
  279MOL0     H37618   5.068   1.251   2.414  0.2676 -1.5964  2.4224
  279MOL0     H37619   5.262   1.244   2.168  3.1128 -3.8160 -0.5647
  279MOL0     H37620   5.245   1.110   2.271  3.4926  0.9111 -1.3388
  279MOL0     H37621   5.022   1.223   2.103 -1.2497  1.0728  1.2493
  279MOL0     H37622   4.973   1.155   2.249 -0.1538  3.4128 -0.1814
  279MOL0     H37623   4.958   0.975   2.115  0.3801  0.2120  4.1540
  279MOL0     H37624   5.099   0.943   2.187 -1.4581 -0.4701 -0.3710
  279MOL0     H37625   5.198   1.052   1.755  1.9147 -0.7952 -0.3722
  279MOL0     H37626   5.134   0.941   1.565  0.8619  0.0197 -0.6129
  279MOL0     H37627   4.853   0.386   1.455  0.5545 -1.3969 -3.0136
  279MOL0     H37628   4.702   0.316   1.261 -0.9128 -0.5790  1.2313
  279MOL0     H37629   4.537   0.629   1.018 -2.9978  2.8652 -0.0208
  279MOL0     H37630   4.482   0.481   0.947 -0.1704 -0.3156 -0.0486
  279MOL0     H37631   4.273   0.488   1.067 -0.6207  1.9028 -2.3475
  279MOL0     H37632   4.332   0.603   1.192 -0.5759  0.9126 -0.2206
  279MOL0     H37633   4.352   0.777   1.038 -2.8457  1.4998  0.3676
  279MOL0     H37634   4.280   0.681   0.913  1.0358  0.8500  0.0590
  279MOL0     H37635   4.138   0.743   1.189 -0.2227 -1.9600  1.9540
  279MOL0     H37636   4.080   0.639   1.059  1.5638 -1.8859  2.9145
  279MOL0     H37637   4.073   0.831   0.901  1.3608 -0.8240 -0.5381
  279MOL0     H37638   4.149   0.931   1.030  1.6037 -0.3684 -2.6970
  279MOL0     H37639   3.882   0.797   1.077 -1.7236  1.2625 -0.3891
  279MOL0     H37640   3.958   0.916   1.171  1.5267 -2.2601  0.3138
  279MOL0     H37641   3.882   0.991   0.881 -0.2137 -1.1219  0.4496
  279MOL0     H37642   3.916   1.092   1.022 -2.1672 -0.1305  2.3487
  279MOL0     H37643   3.683   0.911   0.966 -0.3360 -0.3483  0.5869
  279MOL0     H37644   3.703   0.988   1.130 -1.6936 -1.2276  0.4731
  279MOL0     H37645   4.553   0.705   1.224  0.4674 -1.3888 -0.7568
  279MOL0     H37646   4.648   0.770   1.452 -1.1537 -2.1596  4.8176
  279MOL0     H37647   4.867   0.698   1.801  0.1682 -0.1664 -0.3942
  279MOL0     H37648   4.940   0.803   2.005 -0.7699 -3.5504 -1.2854
  279MOL0     H37649   6.216   2.476   2.325  0.4442  1.6628 -0.7182
  279MOL0     H37650   6.411   2.511   2.485 -1.2827  3.7456  1.3906
  279MOL0     H37651   6.551   2.575   2.884  1.2103  0.7719 -1.4599
  279MOL0     H37652   6.757   2.633   2.958 -0.7321  0.1499 -2.6553
  279MOL0     H37653   6.954   2.538   3.230  0.0207 -4.2432 -1.5555
  279MOL0     H37654   6.908   2.644   3.097  0.2153 -0.0970 -1.5810
  279MOL0     H37655   7.121   2.695   3.024 -1.6594 -0.3842 -0.1892
  279MOL0     H37656   7.188   2.542   3.090  0.3991  0.3459  1.9041
  279MOL0     H37657   7.275   2.755   3.193 -1.3590  1.2732 -3.2135
  279MOL0     H37658   7.207   2.645   3.303  0.3708 -4.3748 -3.1315
  279MOL0     H37659   7.125   2.920   3.281 -1.5100  1.0359 -1.8478
  279MOL0     H37660   7.026   2.844   3.162 -1.4543 -0.7084  1.6503
  279MOL0     H37661   6.872   2.738   3.553  0.3737  0.3584  0.2108
  279MOL0     H37662   6.907   2.234   2.928  1.8226  3.1283 -2.5037
  279MOL0     H37663   6.765   2.052   2.873 -0.6176 -0.3331  1.3845
  279MOL0     H37664   6.595   2.084   2.824 -0.7217  1.5074 -0.1415
  279MOL0     H37665   6.719   2.122   2.718 -1.0776  2.0212 -0.0309
  280MOL0     O37666   9.460   0.127   1.379  0.2953  0.4007  0.4225
  280MOL0     C37667   9.449   0.008   1.381  0.5667  0.0810  0.4441
  280MOL0     O37668   9.545  -0.082   1.399 -0.1328 -0.8414 -0.1637
  280MOL0     C37669   9.659  -0.038   1.470 -0.3818 -0.4913 -0.3220
  280MOL0     C37670   9.669   0.058   1.568 -0.0456  0.1037  0.2068
  280MOL0     C37671   9.784   0.111   1.620 -0.5181  0.1309 -0.0658
  280MOL0     C37672   9.911   0.051   1.583 -0.1941 -0.5360 -0.2003
  280MOL0     O37673  10.026   0.099   1.633  0.1672  0.1034  0.3034
  280MOL0     C37674  10.028   0.200   1.726 -0.1521  0.8452  0.1676
  280MOL0     C37675  10.175   0.221   1.770 -0.0330  0.8706 -0.4379
  280MOL0     C37676  10.263   0.105   1.806  0.0496 -0.2726  0.7448
  280MOL0     C37677  10.404   0.138   1.854 -0.3621  0.1979  0.0809
  280MOL0     C37678  10.498   0.193   1.749 -0.1623  0.1178 -1.1279
  280MOL0     C37679  10.639   0.219   1.807 -0.4206 -0.0958 -0.0644
  280MOL0     C37680  10.728   0.292   1.709  0.5564 -0.5526  0.4194
  280MOL0     C37681  10.850   0.369   1.758  0.2571  0.0120  0.1658
  280MOL0     N37682  10.929   0.297   1.851  0.0830  0.3871  0.0683
  280MOL0     C37683  11.003   0.362   1.949  0.3987 -0.2235 -0.6027
  280MOL0     C37684  11.074   0.267   2.010 -0.6603  0.1888 -0.5452
  280MOL0     C37685  11.181   0.310   2.104  0.4159 -0.3749  0.5639
  280MOL0     C37686  11.314   0.358   2.038  0.5519  0.2099  0.0187
  280MOL0     C37687  11.423   0.397   2.132 -1.5294 -0.4957 -0.4985
  280MOL0     C37688  11.527   0.497   2.060 -0.2066  0.4368 -0.4719
  280MOL0     O37689  11.636   0.416   2.012  0.3591  0.3807  0.4505
  280MOL0     C37690  11.755   0.411   2.079 -0.4198 -0.5352 -0.3927
  280MOL0     C37691  11.817   0.520   2.145  0.7139  0.0396  0.8098
  280MOL0     C37692  11.924   0.502   2.236 -0.0421  0.5770  0.2576
  280MOL0     C37693  11.968   0.376   2.263 -0.6074 -0.4742 -0.8525
  280MOL0     C37694  12.079   0.341   2.357  0.1110 -0.2612 -0.1094
  280MOL0     O37695  12.090   0.207   2.398 -0.1985  0.0304  0.1444
  280MOL0     C37696  12.194   0.173   2.479 -0.3336 -0.1135  0.0939
  280MOL0     C37697  12.317   0.155   2.423 -0.6100 -0.0326 -0.2106
  280MOL0     C37698  12.433   0.132   2.500 -0.5330  0.0878 -0.8276
  280MOL0     C37699  12.418   0.122   2.640  0.2428 -0.5865  0.5278
  280MOL0     O37700  12.521   0.099   2.731 -0.6600 -0.2112  0.1677
  280MOL0     C37701  12.637   0.184   2.699  0.5564  0.1979  0.6673
  280MOL0     C37702  12.721   0.229   2.820  0.0232 -1.0031 -0.0589
  280MOL0     C37703  12.844   0.309   2.767  0.2948 -0.4010  0.2987
  280MOL0     C37704  12.916   0.358   2.888  1.1645  0.7954  0.7470
  280MOL0     C37705  13.038   0.440   2.847  0.0623  1.6758 -1.3234
  280MOL0     C37706  13.016   0.574   2.772  0.0276 -0.2013 -0.2310
  280MOL0     C37707  13.138   0.661   2.749 -0.3554 -0.6402  0.4171
  280MOL0     C37708  13.102   0.746   2.637 -0.1663  0.4029 -0.1789
  280MOL0    Cl37709  13.255   0.847   2.612  0.4986  0.7605 -0.1956
  280MOL0     C37710  12.289   0.117   2.695  1.1671 -0.2829  1.0090
  280MOL0     C37711  12.181   0.145   2.611 -0.0433  1.3784  0.7413
  280MOL0     O37712  12.162   0.433   2.381  0.7824  0.0137  0.3461
  280MOL0     C37713  11.903   0.269   2.203  0.6587 -1.0694 -0.2444
  280MOL0     C37714  11.800   0.282   2.105  0.6153 -0.3183  0.2432
  280MOL0     N37715  11.047   0.151   1.950  0.1553 -0.6239 -0.3778
  280MOL0     N37716  10.959   0.168   1.855 -0.3421 -0.6349  0.2230
  280MOL0     C37717   9.906  -0.054   1.494 -1.2071  0.4418  0.0391
  280MOL0     C37718   9.788  -0.092   1.440  0.5231  0.1286 -0.9084
  280MOL0     C37719   9.318  -0.036   1.364  0.0373  1.2124  0.7625
  280MOL0     C37720   9.302  -0.139   1.267 -0.0983 -0.5516 -0.3609
  280MOL0     C37721   9.170  -0.191   1.252 -0.3512 -0.1389  0.2601
  280MOL0     C37722   9.067  -0.140   1.330 -0.1849  0.0137  0.3763
  280MOL0     O37723   8.938  -0.188   1.321 -0.7366 -0.6604  0.2124
  280MOL0     C37724   8.832  -0.086   1.314  0.2817  0.8760 -0.2397
  280MOL0     C37725   8.706  -0.122   1.226  0.5843  0.0225  0.1569
  280MOL0     C37726   8.723  -0.229   1.113  1.0310  0.0083  0.3079
  280MOL0     C37727   8.586  -0.235   1.031 -0.9008 -0.2730 -0.6205
  280MOL0     C37728   8.606  -0.336   0.926  0.8757  0.4653 -0.3323
  280MOL0     C37729   8.620  -0.422   0.844  0.1010 -0.2370  0.6465
  280MOL0     C37730   9.097  -0.038   1.428 -0.1053 -0.2741 -0.2016
  280MOL0     C37731   9.220   0.018   1.442  0.8045 -0.2828  0.2308
  280MOL0     C37732   9.227   0.127   1.553  0.4559 -0.9239  0.1927
  280MOL0     H37733   9.579   0.105   1.606 -0.1424  0.9494 -0.9749
  280MOL0     H37734   9.765   0.197   1.682 -5.4951 -0.0767 -0.8971
  280MOL0     H37735   9.986   0.293   1.686 -0.3347  0.0141 -1.7017
  280MOL0     H37736   9.968   0.163   1.809 -1.4575 -0.0930 -1.1297
  280MOL0     H37737  10.162   0.279   1.862 -2.2901 -2.1107  1.3242
  280MOL0     H37738  10.218   0.272   1.684  1.8627  0.3415  0.1386
  280MOL0     H37739  10.286   0.048   1.716 -3.7475 -0.1093 -0.5197
  280MOL0     H37740  10.219   0.039   1.881  0.5848 -1.2786  0.1879
  280MOL0     H37741  10.387   0.211   1.934 -0.6765  3.4427 -2.7139
  280MOL0     H37742  10.449   0.051   1.901 -0.5563  0.3070  0.4745
  280MOL0     H37743  10.513   0.126   1.663  5.2664 -0.3293 -0.1565
  280MOL0     H37744  10.459   0.292   1.722 -3.2699  0.2248  2.8411
  280MOL0     H37745  10.652   0.265   1.906  1.3115 -2.3169  0.8095
  280MOL0     H37746  10.680   0.120   1.826 -1.9238 -0.1306  3.8104
  280MOL0     H37747  10.682   0.348   1.626  0.2624 -1.3902  0.0073
  280MOL0     H37748  10.785   0.216   1.654 -0.2767  0.0347 -1.3606
  280MOL0     H37749  10.922   0.381   1.676  0.4657 -1.2209  0.1518
  280MOL0     H37750  10.829   0.468   1.798  0.6203 -0.8551  2.7164
  280MOL0     H37751  11.016   0.468   1.965 -0.1209 -0.2336 -0.0938
  280MOL0     H37752  11.144   0.393   2.165  0.7484  0.7706 -0.7425
  280MOL0     H37753  11.209   0.224   2.165 -0.4971 -0.0857  1.4214
  280MOL0     H37754  11.352   0.291   1.961  1.1581  0.2749  0.2569
  280MOL0     H37755  11.287   0.457   1.999 -2.5776 -0.6149 -0.1889
  280MOL0     H37756  11.481   0.311   2.167 -1.6278 -0.4789 -0.2862
  280MOL0     H37757  11.378   0.448   2.218 -0.4162 -0.2339 -0.0592
  280MOL0     H37758  11.563   0.564   2.139 -0.5061  0.3977 -0.2967
  280MOL0     H37759  11.473   0.543   1.977 -2.7967 -1.4403  0.0209
  280MOL0     H37760  11.786   0.620   2.115 -0.2583 -0.8339 -1.3948
  280MOL0     H37761  11.964   0.592   2.281 -0.3588  1.1182 -0.5028
  280MOL0     H37762  12.329   0.178   2.318  1.7480 -0.4406 -0.0900
  280MOL0     H37763  12.526   0.116   2.447 -0.1113 -1.7389  0.3587
  280MOL0     H37764  12.708   0.141   2.628  0.0824 -0.4367  0.5680
  280MOL0     H37765  12.599   0.282   2.668 -0.9628  0.2272  2.4643
  280MOL0     H37766  12.654   0.303   2.865 -1.7588 -2.4105 -0.3127
  280MOL0     H37767  12.747   0.150   2.891  0.6414 -1.1903 -0.4875
  280MOL0     H37768  12.907   0.234   2.718  0.3210 -0.0916 -0.1366
  280MOL0     H37769  12.805   0.381   2.695  0.2682 -0.7931 -0.0796
  280MOL0     H37770  12.951   0.272   2.945  0.2939 -0.1419 -0.0816
  280MOL0     H37771  12.850   0.426   2.944  0.2122  0.6229 -0.1216
  280MOL0     H37772  13.105   0.386   2.780  0.0997  1.5222 -1.1633
  280MOL0     H37773  13.089   0.470   2.939 -0.3780  2.6458 -1.3834
  280MOL0     H37774  12.960   0.559   2.680 -0.7457  0.8594  0.0486
  280MOL0     H37775  12.946   0.623   2.840 -0.0213 -0.1462 -0.3211
  280MOL0     H37776  13.227   0.602   2.727 -1.2934 -1.2173 -2.1256
  280MOL0     H37777  13.159   0.718   2.841  1.1185 -2.2752  1.1379
  280MOL0     H37778  13.078   0.692   2.545 -4.2071  1.5208  0.0343
  280MOL0     H37779  13.008   0.797   2.662 -1.9946 -1.3640 -2.9740
  280MOL0     H37780  12.274   0.117   2.803 -0.2585 -1.5327  0.8366
  280MOL0     H37781  12.076   0.156   2.637 -0.5745  2.1060 -1.4941
  280MOL0     H37782  11.930   0.164   2.208  0.7257 -1.0135  0.9545
  280MOL0     H37783  11.772   0.186   2.063 -0.4383 -0.0637  0.3416
  280MOL0     H37784  10.003  -0.092   1.465 -1.3251  1.0161 -1.1852
  280MOL0     H37785   9.786  -0.182   1.379  0.1506 -2.3061  2.4376
  280MOL0     H37786   9.383  -0.170   1.201 -0.5536  0.3005 -1.3386
  280MOL0     H37787   9.148  -0.259   1.170 -2.3467  1.9924 -1.0895
  280MOL0     H37788   8.863   0.015   1.285 -0.8816  0.6443 -2.6000
  280MOL0     H37789   8.807  -0.084   1.420  0.1425  3.1314 -0.2567
  280MOL0     H37790   8.665  -0.028   1.188  0.8944  1.0217  2.2067
  280MOL0     H37791   8.635  -0.164   1.299  1.0561  0.9623  1.1695
  280MOL0     H37792   8.744  -0.329   1.152 -1.4139 -1.1746 -1.1970
  280MOL0     H37793   8.797  -0.201   1.037 -1.8094  3.4698 -1.5269
  280MOL0     H37794   8.501  -0.253   1.098  0.1100 -0.7173  0.5625
  280MOL0     H37795   8.554  -0.137   0.994  1.3997  0.6199 -0.4067
  280MOL0     H37796   8.639  -0.501   0.775  2.4316 -0.1332  1.1105
  280MOL0     H37797   9.014  -0.007   1.491 -1.0364  2.5641 -2.5927
  280MOL0     H37798   9.174   0.108   1.647  0.0576 -0.1492  0.1305
  280MOL0     H37799   9.332   0.146   1.581  0.3283  0.7818 -0.3348
  280MOL0     H37800   9.194   0.220   1.505 -0.3953 -1.8178 -1.0038
  281MOL0     O37801   8.193   0.637  11.152  0.4201  0.4331 -0.1852
  281MOL0     C37802   8.222   0.527  11.214  0.2158 -0.5758  0.3738
  281MOL0     O37803   8.296   0.517  11.325  0.7314  0.4595 -0.4687
  281MOL0     C37804   8.311   0.614  11.420  0.3142  0.2782 -0.0684
  281MOL0     C37805   8.428   0.592  11.494 -0.3106  0.4933  0.3524
  281MOL0     C37806   8.468   0.683  11.588  0.6300 -0.5425 -0.0002
  281MOL0     C37807   8.389   0.794  11.625 -0.1870  0.4979 -0.0816
  281MOL0     O37808   8.446   0.870  11.729  0.2248  0.8696 -1.1034
  281MOL0     C37809   8.368   0.984  11.762 -0.4477  0.2633 -0.5887
  281MOL0     C37810   8.445   1.067  11.857  0.1706 -0.9110  0.3748
  281MOL0     C37811   8.548   1.149  11.779 -0.5542 -0.6452 -0.9194
  281MOL0     C37812   8.488   1.283  11.744 -0.4961  0.1026 -1.0948
  281MOL0     C37813   8.585   1.369  11.669 -0.0154 -0.0363  0.5924
  281MOL0     C37814   8.525   1.510  11.648 -0.0634  0.8846  0.3873
  281MOL0     C37815   8.615   1.589  11.542 -0.4970  0.5441 -0.1405
  281MOL0     C37816   8.566   1.731  11.520 -0.0777 -0.1030 -0.5315
  281MOL0     N37817   8.452   1.732  11.431  0.3007  0.1554 -0.0782
  281MOL0     C37818   8.444   1.709  11.299 -0.3171 -0.5689  0.1566
  281MOL0     C37819   8.316   1.708  11.267  0.3815  0.2622  0.6200
  281MOL0     C37820   8.268   1.688  11.129 -0.3941 -0.5051  0.5917
  281MOL0     C37821   8.307   1.550  11.079  0.2304  0.0461  0.4235
  281MOL0     C37822   8.255   1.433  11.155  0.7538  0.2712  0.7640
  281MOL0     C37823   8.298   1.312  11.080  0.9355 -0.2689 -0.1610
  281MOL0     O37824   8.255   1.315  10.943  0.3218  0.0785 -0.1235
  281MOL0     C37825   8.339   1.262  10.856  0.5923  0.0904 -0.3949
  281MOL0     C37826   8.402   1.145  10.874 -0.5043 -0.3541 -0.8243
  281MOL0     C37827   8.478   1.078  10.775 -0.3326 -0.4877  0.0468
  281MOL0     C37828   8.500   1.134  10.642  0.5862 -0.3096  0.1332
  281MOL0     C37829   8.547   1.055  10.528 -1.2927  0.5633  0.4349
  281MOL0     O37830   8.542   1.117  10.404 -0.1873  0.5488  0.3127
  281MOL0     C37831   8.589   1.048  10.286 -1.0606 -0.2170 -0.7051
  281MOL0     C37832   8.514   1.046  10.165  0.5978  0.1105  0.5907
  281MOL0     C37833   8.569   0.981  10.054  0.3747  0.1062 -0.8720
  281MOL0     C37834   8.695   0.917  10.052  0.2558 -0.1326  0.6897
  281MOL0     O37835   8.727   0.845   9.934  0.0675 -1.0166 -1.5596
  281MOL0     C37836   8.857   0.870   9.880 -0.6906  0.5954  0.3823
  281MOL0     C37837   8.884   0.752   9.787  0.4467  0.0844 -0.1521
  281MOL0     C37838   8.788   0.756   9.673  0.6322  0.1783 -0.6028
  281MOL0     C37839   8.657   0.676   9.724 -0.1785  0.0418  0.5767
  281MOL0     C37840   8.581   0.623   9.606  0.5728 -0.5151  0.2770
  281MOL0     C37841   8.462   0.536   9.640  0.0904  0.1342 -0.3275
  281MOL0     C37842   8.375   0.498   9.513 -0.0422 -0.0133 -0.1745
  281MOL0     C37843   8.246   0.426   9.554  0.1591 -0.6997 -0.8420
  281MOL0    Cl37844   8.127   0.550   9.605 -0.3227  0.1073 -0.4308
  281MOL0     C37845   8.775   0.925  10.161 -0.8839  0.2392  0.1113
  281MOL0     C37846   8.724   0.987  10.285  0.8473 -0.1762  0.7713
  281MOL0     O37847   8.585   0.941  10.551  0.8100  0.2906  0.2701
  281MOL0     C37848   8.429   1.256  10.629  0.4587 -0.1016 -0.6975
  281MOL0     C37849   8.343   1.317  10.725  0.5791 -0.9910 -0.7732
  281MOL0     N37850   8.239   1.737  11.375  0.2314 -0.2455  0.4196
  281MOL0     N37851   8.324   1.756  11.473 -0.6119  0.7440  0.6087
  281MOL0     C37852   8.268   0.815  11.554  0.5043 -0.1642  0.5618
  281MOL0     C37853   8.238   0.731  11.451  0.1135  0.8669 -0.3690
  281MOL0     C37854   8.154   0.403  11.162 -0.5531 -0.5530  0.3235
  281MOL0     C37855   8.085   0.418  11.032 -0.0094 -0.4129 -0.4206
  281MOL0     C37856   8.024   0.307  10.982 -0.1819  0.4231 -0.4720
  281MOL0     C37857   8.043   0.181  11.037  0.1268  0.6681 -0.8979
  281MOL0     O37858   7.985   0.070  10.985  0.6049 -0.5179  0.4103
  281MOL0     C37859   7.893  -0.015  11.063 -0.5763 -0.4676 -0.8212
  281MOL0     C37860   7.763  -0.020  10.983 -0.1423  1.1523 -0.1299
  281MOL0     C37861   7.688   0.109  10.997  0.2879 -0.2441  0.8437
  281MOL0     C37862   7.656   0.167  11.136  0.0304 -0.1326  0.8196
  281MOL0     C37863   7.541   0.263  11.122  1.0174 -0.1294 -1.1592
  281MOL0     C37864   7.429   0.314  11.108  1.1303  0.1333  0.4720
  281MOL0     C37865   8.113   0.173  11.165  0.2354 -0.3666  0.0055
  281MOL0     C37866   8.169   0.283  11.226  0.1385  0.0817  0.1802
  281MOL0     C37867   8.223   0.259  11.368  0.0863  0.1243  0.2183
  281MOL0     H37868   8.480   0.499  11.474 -2.7200 -1.1559  1.2267
  281MOL0     H37869   8.568   0.676  11.631  1.5375  3.9803 -0.8813
  281MOL0     H37870   8.353   1.035  11.666 -2.1409 -0.2113 -0.6119
  281MOL0     H37871   8.271   0.956  11.803 -0.3007 -4.8422 -2.9098
  281MOL0     H37872   8.492   1.004  11.934 -0.4583 -0.4316  1.1718
  281MOL0     H37873   8.378   1.133  11.914  0.7433  1.6490 -1.7254
  281MOL0     H37874   8.574   1.103  11.683 -2.6121 -1.0644 -1.3257
  281MOL0     H37875   8.630   1.151  11.851  0.5036 -0.2457 -2.0979
  281MOL0     H37876   8.402   1.258  11.681 -1.3792 -0.0926  0.1642
  281MOL0     H37877   8.454   1.333  11.835  1.1728  1.1814 -1.0218
  281MOL0     H37878   8.683   1.377  11.717  0.8423 -1.5412 -0.8156
  281MOL0     H37879   8.614   1.327  11.572  0.1531  0.3169  0.4863
  281MOL0     H37880   8.430   1.503  11.593  1.2417 -0.0070 -1.8712
  281MOL0     H37881   8.508   1.557  11.746 -1.3004 -0.3161  0.7806
  281MOL0     H37882   8.614   1.533  11.448 -0.2560  0.8608 -0.3338
  281MOL0     H37883   8.718   1.590  11.577 -0.6438  2.2533  0.3052
  281MOL0     H37884   8.524   1.778  11.610 -0.7047  1.4658 -1.5976
  281MOL0     H37885   8.642   1.804  11.491 -2.1280  1.9985 -0.9541
  281MOL0     H37886   8.530   1.685  11.238  1.1220 -1.1624  2.3155
  281MOL0     H37887   8.159   1.703  11.129 -0.2838  0.3389  0.3307
  281MOL0     H37888   8.310   1.767  11.066 -0.4470 -0.5336  0.5209
  281MOL0     H37889   8.263   1.541  10.979  1.5149 -0.6178 -0.1117
  281MOL0     H37890   8.412   1.541  11.050 -0.4402 -2.5339 -1.6146
  281MOL0     H37891   8.148   1.449  11.171  1.1875  1.1469  3.1102
  281MOL0     H37892   8.298   1.421  11.254 -0.1256 -0.0425  1.1145
  281MOL0     H37893   8.260   1.224  11.132 -1.1057  0.3565 -0.5225
  281MOL0     H37894   8.408   1.307  11.084  0.8918 -0.7014  0.8543
  281MOL0     H37895   8.392   1.091  10.968  1.7480 -2.2514 -1.5855
  281MOL0     H37896   8.538   0.988  10.786  2.0975  0.8575 -1.2758
  281MOL0     H37897   8.417   1.095  10.161  0.6747  0.2505  0.4391
  281MOL0     H37898   8.520   0.974   9.957  0.2931  1.9280 -0.9946
  281MOL0     H37899   8.864   0.961   9.819  2.3882  0.0594 -0.2326
  281MOL0     H37900   8.922   0.861   9.967 -1.7740  0.9342  1.2586
  281MOL0     H37901   8.978   0.775   9.737 -0.5934  0.2098 -2.1454
  281MOL0     H37902   8.879   0.659   9.843 -0.0353  0.8233  1.0803
  281MOL0     H37903   8.756   0.856   9.646  2.1538  0.6980 -0.5943
  281MOL0     H37904   8.829   0.696   9.591 -0.0053 -1.3042  0.1171
  281MOL0     H37905   8.590   0.750   9.767  0.1475  0.7544 -0.1172
  281MOL0     H37906   8.672   0.588   9.788  4.0163  0.6371  0.7163
  281MOL0     H37907   8.645   0.563   9.539  0.4049 -0.6843  0.2658
  281MOL0     H37908   8.559   0.715   9.551 -0.8758  0.3075  2.1393
  281MOL0     H37909   8.491   0.446   9.695 -0.0111  0.6081  0.5071
  281MOL0     H37910   8.393   0.589   9.706 -4.0050 -3.1265 -1.5777
  281MOL0     H37911   8.432   0.436   9.443 -1.3569  2.1572 -3.3563
  281MOL0     H37912   8.343   0.586   9.457  0.7030 -2.5586 -5.1080
  281MOL0     H37913   8.200   0.359   9.481 -3.1094 -1.3385  1.5819
  281MOL0     H37914   8.263   0.359   9.639  0.6282 -3.0871 -2.6882
  281MOL0     H37915   8.867   0.867  10.170  0.7149  2.8046  1.9070
  281MOL0     H37916   8.775   0.973  10.380  0.1065 -1.3971  1.0149
  281MOL0     H37917   8.415   1.300  10.531  0.1437 -1.7340 -1.4111
  281MOL0     H37918   8.278   1.400  10.699  1.8738  0.0798 -0.7191
  281MOL0     H37919   8.213   0.909  11.564  1.4841  0.4326  0.4557
  281MOL0     H37920   8.141   0.746  11.405 -1.3107  0.0808  2.2378
  281MOL0     H37921   8.082   0.520  10.995  2.6249  0.1412  0.7230
  281MOL0     H37922   7.967   0.319  10.891 -2.3637 -2.4417  0.3576
  281MOL0     H37923   7.870   0.017  11.165 -1.2966 -6.3950  1.2668
  281MOL0     H37924   7.949  -0.108  11.075  2.1582  1.0612 -0.8070
  281MOL0     H37925   7.712  -0.113  11.010  0.5035  1.4942  2.6362
  281MOL0     H37926   7.794  -0.033  10.879  0.5022 -0.8339  0.2683
  281MOL0     H37927   7.603   0.103  10.928  0.1123 -3.3283  1.1861
  281MOL0     H37928   7.746   0.189  10.951  1.2340  0.5447  3.2667
  281MOL0     H37929   7.632   0.095  11.215 -1.6323  0.0913  0.5491
  281MOL0     H37930   7.742   0.218  11.181  0.5276 -0.8782  0.7433
  281MOL0     H37931   7.331   0.355  11.091  1.3446  0.4315 -0.0800
  281MOL0     H37932   8.119   0.071  11.202  0.1124 -0.0544  0.8965
  281MOL0     H37933   8.179   0.326  11.442  0.7679  0.5300  0.2692
  281MOL0     H37934   8.202   0.156  11.396  1.0903  0.1460  1.1160
  281MOL0     H37935   8.331   0.274  11.374  0.2192  1.1601 -2.7633
  282MOL0     O37936   6.820   2.292   0.741 -0.4053 -0.3351 -0.2370
  282MOL0     C37937   6.723   2.289   0.818  0.0654 -0.4829 -0.2448
  282MOL0     O37938   6.708   2.370   0.932  0.0107  0.6420 -0.0076
  282MOL0     C37939   6.807   2.439   0.993 -0.2539 -0.1097  0.6389
  282MOL0     C37940   6.810   2.447   1.129 -0.1407  0.7736 -0.4338
  282MOL0     C37941   6.913   2.516   1.201  0.4689  0.7103  0.3294
  282MOL0     C37942   7.000   2.597   1.121 -1.3232  0.3573 -0.8981
  282MOL0     O37943   7.116   2.647   1.164  0.2700  0.0947 -0.3891
  282MOL0     C37944   7.117   2.720   1.289  0.5526 -0.2184 -0.6984
  282MOL0     C37945   7.219   2.825   1.279  0.3212  0.6610  0.5885
  282MOL0     C37946   7.235   2.921   1.406  0.4055 -0.6191  0.5152
  282MOL0     C37947   7.300   3.053   1.377 -0.5865  0.5910  0.2010
  282MOL0     C37948   7.458   3.031   1.354  0.2946  0.2451  0.5880
  282MOL0     C37949   7.526   3.162   1.310 -0.1282  0.1513  0.8399
  282MOL0     C37950   7.497   3.208   1.163  0.4406 -0.2032 -0.2935
  282MOL0     C37951   7.600   3.145   1.074 -0.9966 -0.0924 -0.8090
  282MOL0     N37952   7.733   3.189   1.093 -0.3855  0.4754 -0.8939
  282MOL0     C37953   7.780   3.319   1.109 -0.9736  0.6466 -0.0084
  282MOL0     C37954   7.919   3.312   1.109  0.0587  0.4981 -0.1223
  282MOL0     C37955   8.021   3.428   1.114  0.2258  0.4915 -0.4825
  282MOL0     C37956   8.067   3.456   0.972 -0.3129  0.2545 -0.0738
  282MOL0     C37957   8.018   3.593   0.929 -0.0622  1.4658 -0.2504
  282MOL0     C37958   8.122   3.695   0.978 -0.3438 -0.0642  0.4647
  282MOL0     O37959   8.240   3.710   0.899  0.0849 -0.5263  0.1891
  282MOL0     C37960   8.334   3.797   0.936  0.3947 -0.3160 -0.3565
  282MOL0     C37961   8.326   3.886   1.045 -0.6798  0.0068  0.4979
  282MOL0     C37962   8.428   3.966   1.080  1.0368  0.8810  1.2971
  282MOL0     C37963   8.552   3.966   1.007  0.0120  0.9454 -0.7881
  282MOL0     C37964   8.649   4.072   1.035 -0.5340 -0.1809  0.1853
  282MOL0     O37965   8.758   4.078   0.963 -0.5128 -0.2997 -0.4444
  282MOL0     C37966   8.860   4.162   0.981  0.2644  0.3411 -1.1456
  282MOL0     C37967   8.951   4.174   0.877 -0.0580  0.3571 -0.6388
  282MOL0     C37968   9.066   4.253   0.894 -0.0701 -0.2201 -0.0139
  282MOL0     C37969   9.100   4.318   1.013 -0.2116 -0.7525  0.5549
  282MOL0     O37970   9.218   4.382   1.054 -0.5925  0.1765  0.4834
  282MOL0     C37971   9.294   4.421   0.940  0.2811  0.6220  0.0923
  282MOL0     C37972   9.428   4.453   1.007  0.1059  0.3912 -0.1230
  282MOL0     C37973   9.444   4.558   1.106  0.0692  0.1730 -0.0976
  282MOL0     C37974   9.465   4.495   1.241 -0.2770  1.2245 -0.4136
  282MOL0     C37975   9.481   4.593   1.354  0.6138  0.0588  0.0530
  282MOL0     C37976   9.574   4.550   1.473 -0.0335 -0.0229  0.3514
  282MOL0     C37977   9.565   4.645   1.578  0.5339 -0.0546 -0.2720
  282MOL0     C37978   9.660   4.599   1.693  0.1147 -0.1221 -0.1753
  282MOL0    Cl37979   9.823   4.642   1.630 -0.2052  0.4446 -0.1957
  282MOL0     C37980   9.005   4.297   1.117 -1.3277  0.3173  0.5328
  282MOL0     C37981   8.888   4.230   1.107  1.0256  0.8198  0.5160
  282MOL0     O37982   8.611   4.145   1.129 -0.7558 -0.1422  0.0931
  282MOL0     C37983   8.569   3.852   0.918  0.7007  0.0436 -0.1048
  282MOL0     C37984   8.460   3.776   0.876  0.3481 -0.6173  0.0585
  282MOL0     N37985   7.956   3.176   1.090  0.4935 -0.1328 -0.0517
  282MOL0     N37986   7.845   3.107   1.083 -0.2039 -0.2276  0.0275
  282MOL0     C37987   6.988   2.607   0.985  0.2054 -0.5294  0.7998
  282MOL0     C37988   6.896   2.526   0.919  0.0551  0.0408 -0.2550
  282MOL0     C37989   6.601   2.200   0.767  0.0020  0.1415  0.2951
  282MOL0     C37990   6.620   2.106   0.676  0.0139 -0.4148  0.0232
  282MOL0     C37991   6.513   2.028   0.621  0.2750  0.4244 -0.1745
  282MOL0     C37992   6.394   2.019   0.693  0.4361  0.3681 -0.2212
  282MOL0     O37993   6.291   1.930   0.663  0.1889 -0.0891  0.0729
  282MOL0     C37994   6.261   1.939   0.521  0.1880  0.2026 -0.3204
  282MOL0     C37995   6.200   2.070   0.493  0.5164 -0.1570  0.6102
  282MOL0     C37996   6.112   2.068   0.369 -1.0820 -0.2950  0.3711
  282MOL0     C37997   6.031   2.193   0.331 -0.1295 -0.4244  0.4845
  282MOL0     C37998   5.923   2.159   0.235 -0.1163  0.6361 -1.0328
  282MOL0     C37999   5.831   2.135   0.164  0.2049  0.1212  1.0019
  282MOL0     C38000   6.384   2.091   0.812 -0.2450 -1.0347 -0.1925
  282MOL0     C38001   6.481   2.189   0.842  0.7459 -0.2792  0.7114
  282MOL0     C38002   6.454   2.278   0.949  0.1315 -0.8705  0.0881
  282MOL0     H38003   6.754   2.370   1.182  1.6443  0.2421  0.7469
  282MOL0     H38004   6.927   2.505   1.308  0.9896  1.2027  0.3152
  282MOL0     H38005   7.018   2.766   1.303  0.1686  0.6280 -4.9444
  282MOL0     H38006   7.144   2.653   1.371 -0.3629  0.6942  0.3907
  282MOL0     H38007   7.202   2.877   1.184  1.2372  0.5841  0.3682
  282MOL0     H38008   7.313   2.774   1.258 -0.5008 -0.2137 -1.1539
  282MOL0     H38009   7.284   2.877   1.493  0.5316 -0.8795  0.3134
  282MOL0     H38010   7.141   2.967   1.439  0.9771  0.5733  0.5228
  282MOL0     H38011   7.257   3.089   1.283  2.1342 -1.6094 -2.0581
  282MOL0     H38012   7.285   3.126   1.458  1.5059  1.6787 -0.3208
  282MOL0     H38013   7.504   2.993   1.446  1.9402 -3.9946 -1.7218
  282MOL0     H38014   7.472   2.953   1.279 -4.3515 -1.5967  1.2779
  282MOL0     H38015   7.494   3.243   1.375  0.5798  2.2003 -1.2272
  282MOL0     H38016   7.634   3.153   1.327 -0.1641  1.0858  1.5976
  282MOL0     H38017   7.491   3.317   1.154 -0.7115  0.0721  2.6842
  282MOL0     H38018   7.394   3.180   1.140 -0.2462  0.4505  1.7410
  282MOL0     H38019   7.596   3.037   1.092  1.8557 -0.5033 -2.1471
  282MOL0     H38020   7.581   3.171   0.970 -2.4452 -0.4856 -0.6750
  282MOL0     H38021   7.718   3.400   1.144 -1.4316 -0.1276  1.0241
  282MOL0     H38022   7.986   3.518   1.164  0.3782  1.4325 -2.0098
  282MOL0     H38023   8.105   3.390   1.173  0.3893 -0.8840 -1.5459
  282MOL0     H38024   8.175   3.450   0.957 -0.1895 -0.7494  1.0718
  282MOL0     H38025   8.021   3.384   0.904  0.9052 -0.7480  0.1219
  282MOL0     H38026   7.922   3.625   0.972 -1.4681 -2.1811 -0.3296
  282MOL0     H38027   8.012   3.592   0.820  0.5283  2.2908 -0.3003
  282MOL0     H38028   8.148   3.678   1.083  2.1382 -0.9032 -0.2088
  282MOL0     H38029   8.077   3.795   0.984 -0.5793 -0.2439  4.2389
  282MOL0     H38030   8.231   3.891   1.098 -0.2238 -3.8238  2.0064
  282MOL0     H38031   8.415   4.038   1.161  2.6692 -0.7285  3.1080
  282MOL0     H38032   8.941   4.113   0.787 -4.7831  1.3071 -0.9802
  282MOL0     H38033   9.136   4.253   0.811  1.4689  1.0090  1.2138
  282MOL0     H38034   9.311   4.352   0.857  2.0964  0.9557  0.1525
  282MOL0     H38035   9.236   4.508   0.909 -1.0651  0.8875  2.9614
  282MOL0     H38036   9.481   4.361   1.035  0.2795  0.6088  0.2667
  282MOL0     H38037   9.490   4.488   0.924  0.8566  0.4475  0.4510
  282MOL0     H38038   9.536   4.614   1.086  1.5224 -1.7073  0.9216
  282MOL0     H38039   9.356   4.622   1.107 -2.3154 -2.8621  0.7628
  282MOL0     H38040   9.550   4.426   1.238 -0.8248  0.5765 -2.4328
  282MOL0     H38041   9.376   4.434   1.260  1.1505 -1.3113 -1.3239
  282MOL0     H38042   9.384   4.625   1.392  2.1399  2.0511  2.5950
  282MOL0     H38043   9.512   4.686   1.307  3.5243 -0.4522  0.7901
  282MOL0     H38044   9.540   4.457   1.517  0.4177 -0.9165 -1.1159
  282MOL0     H38045   9.677   4.536   1.439  0.3526  3.6093 -0.3991
  282MOL0     H38046   9.462   4.641   1.613  0.7455  0.1105  0.3807
  282MOL0     H38047   9.583   4.745   1.537  1.1784  0.3858  1.0135
  282MOL0     H38048   9.643   4.657   1.784 -1.6279  1.7006 -1.5771
  282MOL0     H38049   9.654   4.492   1.712  0.4918 -0.6975 -2.8656
  282MOL0     H38050   9.020   4.329   1.219  1.6069 -0.0042  0.2932
  282MOL0     H38051   8.822   4.220   1.192 -1.2741 -1.5686 -1.4136
  282MOL0     H38052   8.657   3.827   0.860 -1.9250 -4.7407 -2.6466
  282MOL0     H38053   8.476   3.703   0.797 -0.1053  0.2063 -0.8214
  282MOL0     H38054   7.060   2.653   0.918  3.4666 -5.3742  0.5225
  282MOL0     H38055   6.891   2.527   0.810 -2.5617  0.5565 -0.1972
  282MOL0     H38056   6.715   2.083   0.627 -0.1005 -0.0744 -0.3670
  282MOL0     H38057   6.541   1.968   0.535  0.2909 -1.3569  1.0182
  282MOL0     H38058   6.187   1.860   0.505 -1.5107  1.6955 -0.2915
  282MOL0     H38059   6.337   1.920   0.445  0.3654 -1.5380  0.2629
  282MOL0     H38060   6.278   2.144   0.469 -2.5779  2.5074 -2.3798
  282MOL0     H38061   6.135   2.115   0.568  0.2865  0.2459  0.1727
  282MOL0     H38062   6.046   1.981   0.375 -1.1055 -0.1676  2.4925
  282MOL0     H38063   6.181   2.053   0.285  0.5329 -1.1408  1.7882
  282MOL0     H38064   5.979   2.231   0.419  0.2887 -1.3873  1.1498
  282MOL0     H38065   6.091   2.274   0.288 -0.6329 -1.3074 -2.1111
  282MOL0     H38066   5.737   2.112   0.118  0.6985 -1.7895  0.8334
  282MOL0     H38067   6.293   2.090   0.870 -0.9313  1.4741 -1.0932
  282MOL0     H38068   6.477   2.385   0.940 -0.4526 -0.8187 -0.8944
  282MOL0     H38069   6.347   2.271   0.974 -0.0437  0.3836 -0.2314
  282MOL0     H38070   6.511   2.241   1.035  2.7837  0.3784 -1.0511
  283MOL0     O38071   6.926   6.707   3.700 -0.2680 -0.5646 -0.7054
  283MOL0     C38072   6.985   6.811   3.698 -0.0616 -0.1206  0.4399
  283MOL0     O38073   7.023   6.881   3.809  0.0100  0.4728 -0.0242
  283MOL0     C38074   6.940   6.899   3.915  0.9138  0.1786 -0.1300
  283MOL0     C38075   6.793   6.900   3.910 -0.1561  0.7444  0.5787
  283MOL0     C38076   6.720   6.911   4.021  0.5943 -0.5247 -0.8280
  283MOL0     C38077   6.780   6.941   4.144 -0.0901 -0.2196  0.3746
  283MOL0     O38078   6.696   6.948   4.254 -0.1708 -0.3967 -0.4923
  283MOL0     C38079   6.757   6.929   4.380 -0.8603 -0.8864  0.0996
  283MOL0     C38080   6.647   6.950   4.491 -0.0769  0.4213 -0.2006
  283MOL0     C38081   6.531   6.854   4.465 -0.0944 -0.6908  0.4994
  283MOL0     C38082   6.407   6.867   4.569  0.7887  0.0498  0.8220
  283MOL0     C38083   6.316   6.757   4.542 -0.2872  0.2248  0.3811
  283MOL0     C38084   6.218   6.725   4.656 -0.4205 -0.0313 -0.0970
  283MOL0     C38085   6.137   6.593   4.629 -0.6270 -0.9020 -0.2851
  283MOL0     C38086   6.001   6.610   4.557  0.9247 -0.8080 -0.7487
  283MOL0     N38087   5.915   6.483   4.554 -0.2312 -0.4776  0.0296
  283MOL0     C38088   5.961   6.355   4.528 -0.3726  0.2110  0.0663
  283MOL0     C38089   5.873   6.271   4.585 -0.0616 -0.6653 -0.5437
  283MOL0     C38090   5.900   6.122   4.577 -0.3804 -0.0929 -1.1356
  283MOL0     C38091   5.923   6.076   4.430  0.0631  0.4434  1.1246
  283MOL0     C38092   5.987   5.937   4.431 -1.0176  0.3479  0.3648
  283MOL0     C38093   6.040   5.888   4.297  0.0903  0.0145 -0.4627
  283MOL0     O38094   6.143   5.981   4.251  0.6969 -0.1144 -0.7767
  283MOL0     C38095   6.216   5.948   4.136  0.1804  0.5774 -0.7525
  283MOL0     C38096   6.329   6.022   4.097 -0.1715  0.3157 -0.1981
  283MOL0     C38097   6.408   5.994   3.988  0.1649  0.4501  0.1059
  283MOL0     C38098   6.370   5.888   3.904 -0.5412  0.1485 -0.2035
  283MOL0     C38099   6.427   5.873   3.766 -0.0329  0.1718 -0.0477
  283MOL0     O38100   6.360   5.806   3.667  0.4777  0.5354  0.5516
  283MOL0     C38101   6.390   5.805   3.531 -0.6009  0.6196  0.0823
  283MOL0     C38102   6.330   5.693   3.464 -0.0484 -0.9552 -0.2496
  283MOL0     C38103   6.347   5.684   3.324 -0.3506 -0.5238 -0.8992
  283MOL0     C38104   6.437   5.764   3.251 -0.2525 -1.1149  0.0981
  283MOL0     O38105   6.453   5.739   3.115  0.5240 -0.1067  0.0403
  283MOL0     C38106   6.575   5.760   3.053 -0.3818 -0.0275  0.0315
  283MOL0     C38107   6.653   5.639   3.081 -0.6173  0.5337  0.4076
  283MOL0     C38108   6.794   5.671   3.057  0.4879  0.0661 -0.1710
  283MOL0     C38109   6.827   5.698   2.904  0.0843  0.0447 -0.0909
  283MOL0     C38110   6.972   5.705   2.878 -1.0639 -0.6274  0.1148
  283MOL0     C38111   7.025   5.566   2.858  0.6136 -1.2878  0.2084
  283MOL0     C38112   7.176   5.560   2.863  0.6635 -0.6145 -0.7658
  283MOL0     C38113   7.226   5.412   2.887  0.0185  0.1854  0.1655
  283MOL0    Cl38114   7.180   5.318   2.738 -0.3117  0.0615 -0.0637
  283MOL0     C38115   6.499   5.867   3.323 -0.2457 -0.0387  0.2739
  283MOL0     C38116   6.482   5.889   3.459  0.6531 -0.6012  0.2818
  283MOL0     O38117   6.536   5.933   3.743  0.1465  0.8185 -0.6965
  283MOL0     C38118   6.258   5.816   3.940  0.0384  0.2345 -0.2447
  283MOL0     C38119   6.183   5.836   4.059 -0.8886  0.9527  0.5638
  283MOL0     N38120   5.780   6.347   4.651  1.0010 -0.4692 -0.7805
  283MOL0     N38121   5.804   6.471   4.621 -0.4259  0.2879 -0.2052
  283MOL0     C38122   6.920   6.956   4.144  0.5820 -0.6429  0.8018
  283MOL0     C38123   6.996   6.926   4.036 -0.2826  0.5204 -0.0993
  283MOL0     C38124   7.011   6.873   3.565 -0.1022 -0.0116 -0.2159
  283MOL0     C38125   7.000   7.011   3.547 -1.7691  0.0562 -0.2976
  283MOL0     C38126   7.035   7.078   3.429  0.1061 -0.9294 -0.5043
  283MOL0     C38127   7.077   7.000   3.321 -0.0497 -0.6146 -0.8031
  283MOL0     O38128   7.115   7.065   3.200  0.3962  0.1394  0.8159
  283MOL0     C38129   7.116   6.995   3.072  0.5392  0.8676 -0.0430
  283MOL0     C38130   6.977   6.926   3.026 -0.2586 -0.0365 -0.8174
  283MOL0     C38131   6.945   6.970   2.878  0.6200  0.4772 -0.1924
  283MOL0     C38132   6.817   6.896   2.834 -0.3512 -0.8038  0.1487
  283MOL0     C38133   6.776   6.936   2.692  0.6356 -0.1954 -1.1025
  283MOL0     C38134   6.759   6.984   2.582 -0.1297 -0.0300  0.4198
  283MOL0     C38135   7.084   6.859   3.337  0.0567  0.6141  0.1693
  283MOL0     C38136   7.059   6.799   3.451 -0.0958  0.1213 -0.4550
  283MOL0     C38137   7.080   6.647   3.465  0.0338 -0.6195  0.3456
  283MOL0     H38138   6.749   6.866   3.817  1.2768 -0.8361  0.4355
  283MOL0     H38139   6.613   6.892   4.026  0.4938  0.1106 -0.3715
  283MOL0     H38140   6.807   6.833   4.397 -1.7361 -1.0745  1.9241
  283MOL0     H38141   6.824   7.014   4.397 -2.3143  1.4400 -4.2201
  283MOL0     H38142   6.613   7.053   4.484 -0.1344  0.6498  2.3758
  283MOL0     H38143   6.686   6.939   4.593 -2.1631 -0.8065  0.5300
  283MOL0     H38144   6.568   6.751   4.454 -0.0041 -0.5876 -0.1890
  283MOL0     H38145   6.488   6.879   4.368 -0.7585 -2.7292  0.2124
  283MOL0     H38146   6.436   6.864   4.674 -0.2638 -2.1455  1.1055
  283MOL0     H38147   6.365   6.965   4.545 -0.6844 -0.0237  2.9111
  283MOL0     H38148   6.267   6.773   4.445 -0.9252 -0.6317  0.5543
  283MOL0     H38149   6.375   6.664   4.539 -1.6587 -0.7552  2.2058
  283MOL0     H38150   6.271   6.729   4.751 -1.1222  3.0742  0.2761
  283MOL0     H38151   6.147   6.808   4.656  1.6055  1.7793 -0.2562
  283MOL0     H38152   6.120   6.554   4.730  1.2971 -0.7599  0.1263
  283MOL0     H38153   6.201   6.520   4.580 -1.3081 -2.5063  1.1210
  283MOL0     H38154   5.946   6.688   4.610 -2.1272 -3.0407 -0.3528
  283MOL0     H38155   6.016   6.646   4.455 -1.1023  1.8377 -0.2321
  283MOL0     H38156   6.052   6.336   4.472  0.7196  2.9260  0.7481
  283MOL0     H38157   5.993   6.102   4.631 -1.1943  3.7721  2.2012
  283MOL0     H38158   5.803   6.084   4.611 -1.8405  5.1065  1.5226
  283MOL0     H38159   5.834   6.061   4.368  0.8049  0.8242 -0.0474
  283MOL0     H38160   5.991   6.142   4.376  2.6489 -2.3154  0.7978
  283MOL0     H38161   5.912   5.869   4.473 -0.8741  0.5580  0.9792
  283MOL0     H38162   6.076   5.930   4.494  1.1772 -4.2341 -2.7186
  283MOL0     H38163   5.960   5.871   4.224  0.7405 -0.8351 -0.9879
  283MOL0     H38164   6.082   5.788   4.305 -2.4788 -0.9666  2.6887
  283MOL0     H38165   6.371   6.100   4.159 -1.6109  0.4294  0.6885
  283MOL0     H38166   6.487   6.066   3.969 -0.7997  2.4852  3.1127
  283MOL0     H38167   6.265   5.632   3.525 -0.7029  0.1438  0.1865
  283MOL0     H38168   6.286   5.621   3.260 -1.0833  0.0746 -0.8123
  283MOL0     H38169   6.552   5.769   2.946 -0.3494 -1.1215 -0.0843
  283MOL0     H38170   6.625   5.851   3.086 -0.9816  0.5981 -0.7761
  283MOL0     H38171   6.645   5.596   3.181  1.7707  2.3911  1.4769
  283MOL0     H38172   6.616   5.562   3.013  0.0067 -1.3332  2.0847
  283MOL0     H38173   6.819   5.762   3.113 -1.6042 -0.1872  1.3168
  283MOL0     H38174   6.846   5.592   3.111 -0.8365 -0.3167  0.5941
  283MOL0     H38175   6.792   5.800   2.885 -2.2012 -0.4882  0.8841
  283MOL0     H38176   6.783   5.630   2.831  2.7150 -1.0044 -0.8084
  283MOL0     H38177   7.030   5.747   2.960  0.6006 -2.3053 -0.1376
  283MOL0     H38178   6.988   5.749   2.779 -3.1177  2.3557  0.9403
  283MOL0     H38179   6.981   5.490   2.924  0.6030  0.1522  1.9460
  283MOL0     H38180   7.000   5.525   2.760 -3.4745  0.5401  0.3101
  283MOL0     H38181   7.211   5.621   2.947 -4.2294 -0.9271  1.8576
  283MOL0     H38182   7.230   5.597   2.775 -0.2236 -0.4515 -1.2487
  283MOL0     H38183   7.335   5.419   2.889  0.2039  3.0137 -4.3142
  283MOL0     H38184   7.171   5.375   2.974 -2.0622 -0.8305 -1.4619
  283MOL0     H38185   6.569   5.936   3.275  0.1481  1.2201  2.5265
  283MOL0     H38186   6.518   5.979   3.508 -1.1516  0.1092  0.3959
  283MOL0     H38187   6.209   5.744   3.875 -0.6633 -0.1627  0.7051
  283MOL0     H38188   6.095   5.777   4.081  1.0581 -1.4636  2.4451
  283MOL0     H38189   6.970   6.981   4.237 -1.3025  0.7347  1.5080
  283MOL0     H38190   7.104   6.921   4.042  0.0290  0.9684 -3.3048
  283MOL0     H38191   6.973   7.075   3.631  0.1650  0.0415  0.3852
  283MOL0     H38192   7.032   7.185   3.411 -2.3367 -1.1564 -1.7735
  283MOL0     H38193   7.197   6.922   3.071 -0.1570  0.0219  1.5011
  283MOL0     H38194   7.136   7.070   2.995 -0.7739 -0.3206 -1.6086
  283MOL0     H38195   6.901   6.972   3.091  2.2651  1.0342  1.5509
  283MOL0     H38196   6.986   6.817   3.024 -0.3699 -0.0373 -2.9943
  283MOL0     H38197   7.026   6.939   2.812  0.4425  0.4518 -0.3971
  283MOL0     H38198   6.931   7.078   2.870 -0.6191  0.3625  0.3307
  283MOL0     H38199   6.831   6.788   2.836 -1.1430 -0.9027  0.7510
  283MOL0     H38200   6.736   6.924   2.902  1.6773  2.6797  1.3414
  283MOL0     H38201   6.743   7.023   2.483 -1.2399  0.7025  0.8639
  283MOL0     H38202   7.113   6.806   3.247 -1.9854  0.4299 -0.4281
  283MOL0     H38203   6.981   6.601   3.460 -0.3314  0.2757 -1.0981
  283MOL0     H38204   7.142   6.622   3.378  0.6169 -1.8921  1.0885
  283MOL0     H38205   7.135   6.645   3.560 -2.1576  0.4624  1.7251
  284MOL0     O38206   5.790   5.667   4.320 -0.4689  0.2522 -0.3269
  284MOL0     C38207   5.798   5.593   4.417 -0.1679 -1.0924 -0.6742
  284MOL0     O38208   5.696   5.570   4.503  0.6798  0.1884  0.4787
  284MOL0     C38209   5.568   5.601   4.470 -0.1380 -0.6479  0.9550
  284MOL0     C38210   5.510   5.598   4.341 -0.8605  0.2932  0.7855
  284MOL0     C38211   5.378   5.628   4.325  0.1086 -0.0342 -0.3484
  284MOL0     C38212   5.292   5.665   4.434 -0.4891 -0.4333  1.3196
  284MOL0     O38213   5.165   5.697   4.427  0.5777  0.0580 -0.2096
  284MOL0     C38214   5.091   5.682   4.309 -0.1692  0.0348  0.2193
  284MOL0     C38215   4.944   5.718   4.342  0.8655  0.3711  0.6042
  284MOL0     C38216   4.886   5.605   4.435  0.4521 -0.6150  0.8682
  284MOL0     C38217   4.742   5.638   4.468 -0.0957  0.4314  0.3804
  284MOL0     C38218   4.725   5.642   4.617  0.0883  0.0854 -0.8263
  284MOL0     C38219   4.589   5.694   4.675  0.6448 -0.6644  0.0576
  284MOL0     C38220   4.587   5.842   4.660  0.4135 -0.5935 -0.4345
  284MOL0     C38221   4.614   5.920   4.787  0.1882  1.1506 -0.4762
  284MOL0     N38222   4.752   5.913   4.846  0.5802  0.0633 -0.1904
  284MOL0     C38223   4.862   5.938   4.772  0.1214 -0.6988  1.1913
  284MOL0     C38224   4.970   5.930   4.858  0.9390 -0.4713  0.2127
  284MOL0     C38225   5.111   5.951   4.829  0.5162  1.0184  1.0774
  284MOL0     C38226   5.185   6.030   4.932  0.5032  0.1363  0.2405
  284MOL0     C38227   5.343   6.001   4.911  0.5570 -0.7291 -0.2596
  284MOL0     C38228   5.428   6.075   5.011 -1.0601 -0.0972 -0.1070
  284MOL0     O38229   5.567   6.068   4.968 -0.1791 -0.8533 -0.2028
  284MOL0     C38230   5.649   5.959   4.999  0.4702 -0.4738  0.0723
  284MOL0     C38231   5.631   5.874   5.107 -0.2605 -0.2301  0.5997
  284MOL0     C38232   5.724   5.774   5.134 -0.6269 -0.4416 -0.3893
  284MOL0     C38233   5.843   5.754   5.059  0.0044  0.0667  0.7165
  284MOL0     C38234   5.940   5.649   5.078  0.2298 -0.7083  0.0835
  284MOL0     O38235   5.912   5.554   5.174  0.1888 -0.2523 -0.6716
  284MOL0     C38236   6.006   5.446   5.176 -0.2412 -0.4422 -0.0581
  284MOL0     C38237   6.015   5.357   5.064  0.0860 -0.5410  0.0007
  284MOL0     C38238   6.107   5.244   5.059  0.0748 -0.1445 -0.4224
  284MOL0     C38239   6.192   5.221   5.164  0.8159 -0.7384 -0.5205
  284MOL0     O38240   6.281   5.121   5.159  0.6359  0.4974  0.3992
  284MOL0     C38241   6.405   5.146   5.223  0.2314  0.0132  0.1769
  284MOL0     C38242   6.506   5.034   5.187  0.3450 -0.5070  0.2466
  284MOL0     C38243   6.536   5.053   5.036 -1.2810 -0.4613  0.8131
  284MOL0     C38244   6.650   4.958   4.997 -0.0354  0.6539 -0.4032
  284MOL0     C38245   6.718   5.001   4.870  0.0116 -0.2158  0.0759
  284MOL0     C38246   6.816   4.895   4.795  0.9438  0.5102 -0.0017
  284MOL0     C38247   6.774   4.749   4.799  0.0701 -0.0571  0.2743
  284MOL0     C38248   6.719   4.701   4.667  0.3235 -0.1147 -1.3399
  284MOL0    Cl38249   6.834   4.709   4.535 -0.1457 -0.5323  0.0790
  284MOL0     C38250   6.189   5.310   5.275  0.4489 -1.0176  0.5542
  284MOL0     C38251   6.104   5.423   5.273  0.4425  0.6525  0.0350
  284MOL0     O38252   6.052   5.662   5.024 -0.2515  0.1015  0.2750
  284MOL0     C38253   5.858   5.852   4.955 -0.7554 -0.4259 -0.4295
  284MOL0     C38254   5.768   5.946   4.930  0.7481  0.1443  0.0486
  284MOL0     N38255   4.923   5.896   4.987  0.2795 -0.0540  0.4583
  284MOL0     N38256   4.785   5.883   4.973 -0.6800  0.6653  0.3779
  284MOL0     C38257   5.355   5.682   4.560  0.7148  0.7233 -0.0276
  284MOL0     C38258   5.487   5.638   4.574 -0.9566  0.0770 -0.5689
  284MOL0     C38259   5.928   5.590   4.485 -0.4638 -0.2975 -0.0832
  284MOL0     C38260   5.947   5.624   4.625 -0.4755  0.0107  0.2705
  284MOL0     C38261   6.076   5.628   4.675  0.2142 -0.6141  0.1532
  284MOL0     C38262   6.183   5.571   4.609 -0.1784  0.0271 -0.2091
  284MOL0     O38263   6.307   5.552   4.664 -0.1869  0.1455 -0.4101
  284MOL0     C38264   6.341   5.611   4.790  0.1620  0.5407 -0.7757
  284MOL0     C38265   6.457   5.523   4.845 -0.6313  0.0472 -0.4456
  284MOL0     C38266   6.560   5.463   4.744  0.1863 -1.2681 -0.1697
  284MOL0     C38267   6.669   5.388   4.818  0.0028 -0.0586 -0.0714
  284MOL0     C38268   6.789   5.369   4.741  1.0851  0.6187 -0.4543
  284MOL0     C38269   6.885   5.358   4.664 -0.6381 -0.5410  0.2356
  284MOL0     C38270   6.156   5.525   4.480  0.8050  0.5149 -0.6182
  284MOL0     C38271   6.031   5.524   4.419  0.3332 -0.4698  0.0669
  284MOL0     C38272   6.037   5.472   4.278 -0.5705  0.0340 -0.2165
  284MOL0     H38273   5.565   5.579   4.249 -0.3072 -0.6231  1.2900
  284MOL0     H38274   5.326   5.629   4.230  0.7057 -0.3122 -0.6862
  284MOL0     H38275   5.134   5.750   4.235  1.7137 -1.9703 -0.6623
  284MOL0     H38276   5.100   5.583   4.263  0.1740  1.7054 -3.6531
  284MOL0     H38277   4.876   5.718   4.256 -0.4896 -1.1630  1.6298
  284MOL0     H38278   4.943   5.819   4.385  1.6779  0.2917  0.8314
  284MOL0     H38279   4.943   5.597   4.528 -1.0046 -3.4233  1.6399
  284MOL0     H38280   4.889   5.510   4.380 -2.5655 -1.0674  1.3312
  284MOL0     H38281   4.712   5.733   4.425  1.4240  1.4294  1.4239
  284MOL0     H38282   4.673   5.561   4.431 -2.9077  2.4286  1.1629
  284MOL0     H38283   4.733   5.537   4.647 -2.1557  0.3802  1.1506
  284MOL0     H38284   4.808   5.701   4.658 -1.1779  2.0499 -0.9354
  284MOL0     H38285   4.504   5.669   4.611  0.9791  0.7393 -0.9840
  284MOL0     H38286   4.568   5.663   4.778  0.8406 -0.2705  0.2194
  284MOL0     H38287   4.480   5.864   4.647  0.3411  0.0442  1.0418
  284MOL0     H38288   4.635   5.877   4.569  0.6187 -4.1262 -1.8606
  284MOL0     H38289   4.591   6.023   4.761  1.3221  1.4364 -0.4006
  284MOL0     H38290   4.545   5.874   4.859  0.6721  1.9047  0.4787
  284MOL0     H38291   4.855   5.955   4.665 -0.6898 -1.0110  1.1898
  284MOL0     H38292   5.168   5.858   4.820 -3.3099 -1.3400 -0.9003
  284MOL0     H38293   5.111   6.010   4.737  1.0869 -0.8280 -0.1522
  284MOL0     H38294   5.162   6.136   4.921 -0.4461 -0.2148 -1.5666
  284MOL0     H38295   5.153   5.993   5.030 -1.3305  2.6260  0.6838
  284MOL0     H38296   5.361   6.043   4.811 -1.2342  2.1489  0.4993
  284MOL0     H38297   5.371   5.896   4.916  1.9895 -0.3411  0.3479
  284MOL0     H38298   5.415   6.022   5.106 -0.7268 -1.0793 -0.5880
  284MOL0     H38299   5.400   6.180   5.016  3.5519  1.3602 -0.4881
  284MOL0     H38300   5.542   5.873   5.169 -1.9093  0.5537 -1.6042
  284MOL0     H38301   5.706   5.694   5.205 -1.2002 -0.6424 -0.7578
  284MOL0     H38302   5.945   5.362   4.982  0.5279  0.8464 -0.3219
  284MOL0     H38303   6.102   5.181   4.970  2.7086  2.2792 -2.5001
  284MOL0     H38304   6.446   5.247   5.213  0.8178 -0.1287  1.0266
  284MOL0     H38305   6.394   5.126   5.330 -1.1892 -0.2545 -0.0019
  284MOL0     H38306   6.599   5.049   5.243 -0.2397 -2.4651  1.8363
  284MOL0     H38307   6.457   4.939   5.208  0.2390 -0.3354  0.7986
  284MOL0     H38308   6.457   5.042   4.961 -0.0080 -0.5832 -0.5515
  284MOL0     H38309   6.566   5.158   5.025 -1.3969 -0.3209  1.7468
  284MOL0     H38310   6.595   4.866   4.976  0.1898  0.6028 -0.7655
  284MOL0     H38311   6.723   4.950   5.078 -1.3189 -1.1689  0.6644
  284MOL0     H38312   6.781   5.087   4.894 -0.9660  0.1266  1.5142
  284MOL0     H38313   6.642   5.033   4.798 -1.0308 -1.2876  0.6620
  284MOL0     H38314   6.839   4.930   4.694 -2.2558  2.1299 -0.3051
  284MOL0     H38315   6.904   4.905   4.859  1.8149 -0.7505 -0.9532
  284MOL0     H38316   6.698   4.739   4.877  0.0090  3.4196  0.8234
  284MOL0     H38317   6.861   4.689   4.826 -1.6520 -1.4232  3.3509
  284MOL0     H38318   6.674   4.602   4.675  1.0337 -0.4144 -0.9049
  284MOL0     H38319   6.638   4.773   4.650 -0.4671 -1.0139 -1.4130
  284MOL0     H38320   6.248   5.289   5.364  0.8353 -0.1025  0.5200
  284MOL0     H38321   6.103   5.487   5.361 -1.3203  0.6127  0.0870
  284MOL0     H38322   5.952   5.846   4.900 -1.6454  0.7496 -2.1509
  284MOL0     H38323   5.788   6.013   4.847 -0.2509 -0.8432 -1.0431
  284MOL0     H38324   5.308   5.721   4.649 -1.5825  0.7848 -1.1966
  284MOL0     H38325   5.533   5.639   4.672  0.2786 -1.0494 -1.1068
  284MOL0     H38326   5.861   5.656   4.684 -2.8428 -4.5838 -0.2603
  284MOL0     H38327   6.093   5.672   4.773 -0.3551  2.3274 -0.9464
  284MOL0     H38328   6.256   5.604   4.859  0.1938  3.2671 -0.3741
  284MOL0     H38329   6.371   5.716   4.790  2.0150  0.0473 -1.6228
  284MOL0     H38330   6.417   5.439   4.904  2.7060 -1.9885 -0.8656
  284MOL0     H38331   6.523   5.585   4.906 -0.8053  0.5036 -0.7239
  284MOL0     H38332   6.600   5.545   4.684  1.1086  0.4298  2.5660
  284MOL0     H38333   6.513   5.393   4.675  0.9945 -0.9842 -1.0199
  284MOL0     H38334   6.691   5.436   4.913 -1.8661  1.3987 -0.3254
  284MOL0     H38335   6.619   5.294   4.844 -2.3532  0.8077 -1.0937
  284MOL0     H38336   6.969   5.339   4.600 -0.1905  0.5779  0.4604
  284MOL0     H38337   6.248   5.489   4.436  0.9702  2.2926 -1.8582
  284MOL0     H38338   6.143   5.465   4.251 -1.1133  0.1081 -2.5804
  284MOL0     H38339   5.990   5.375   4.262  0.7175 -0.4883 -0.9545
  284MOL0     H38340   5.999   5.536   4.198 -1.8543  1.1765  1.2426
  285MOL0     O38341   7.247   0.421   8.771 -0.0607 -0.9948 -0.3783
  285MOL0     C38342   7.190   0.532   8.772 -0.3141  0.0903  0.2917
  285MOL0     O38343   7.252   0.650   8.785  0.2086 -0.1707  0.6481
  285MOL0     C38344   7.385   0.659   8.775  0.1670  0.1922  0.2650
  285MOL0     C38345   7.435   0.739   8.672  0.4603  1.3845 -0.6277
  285MOL0     C38346   7.571   0.762   8.659 -0.3280  0.8007  0.6562
  285MOL0     C38347   7.667   0.700   8.736 -0.2696 -0.5226 -0.5150
  285MOL0     O38348   7.804   0.697   8.712  0.1399  0.1453  0.4590
  285MOL0     C38349   7.865   0.774   8.607  0.3471  0.1315  0.4027
  285MOL0     C38350   7.998   0.725   8.566  0.4591  0.0097  0.3862
  285MOL0     C38351   8.088   0.723   8.683 -0.3923  0.1007 -0.1957
  285MOL0     C38352   8.187   0.839   8.696  0.0108  0.1781 -0.0590
  285MOL0     C38353   8.274   0.842   8.820 -0.2648  0.7456  0.7898
  285MOL0     C38354   8.378   0.959   8.825 -0.1399 -0.2590 -0.3248
  285MOL0     C38355   8.505   0.943   8.740  0.3055  0.3202 -0.1957
  285MOL0     C38356   8.597   1.065   8.736  0.3360 -0.1229 -0.1901
  285MOL0     N38357   8.704   1.046   8.844  0.3604 -0.3575 -0.2163
  285MOL0     C38358   8.836   1.002   8.814 -0.1402  0.7583 -0.1084
  285MOL0     C38359   8.892   1.015   8.931  0.8874 -0.1884  1.1835
  285MOL0     C38360   9.026   0.967   8.948 -0.4820 -0.0864 -0.4807
  285MOL0     C38361   9.139   1.051   8.883 -0.1515  0.4547 -0.3122
  285MOL0     C38362   9.148   1.037   8.725  0.1101  0.3622 -0.2372
  285MOL0     C38363   9.231   1.140   8.656  0.1133 -0.4943  0.4602
  285MOL0     O38364   9.372   1.140   8.689  0.0201 -0.6730  0.6011
  285MOL0     C38365   9.462   1.220   8.616 -0.7961 -0.4669 -0.0465
  285MOL0     C38366   9.592   1.218   8.655 -0.1234 -0.8904 -0.3467
  285MOL0     C38367   9.692   1.303   8.608 -0.1867  0.3645  0.2921
  285MOL0     C38368   9.657   1.385   8.499  0.2759 -0.2058 -1.1543
  285MOL0     C38369   9.751   1.473   8.430  0.4772 -0.1447  0.4870
  285MOL0     O38370   9.865   1.509   8.499  1.0290  0.8017 -0.7927
  285MOL0     C38371   9.967   1.548   8.423 -0.0058 -0.9149 -0.2029
  285MOL0     C38372   9.982   1.557   8.286  1.3421  0.3095  0.4627
  285MOL0     C38373  10.098   1.599   8.232 -0.0712 -0.8656 -0.3197
  285MOL0     C38374  10.212   1.630   8.311  0.3173  0.8585  0.2253
  285MOL0     O38375  10.325   1.672   8.237  0.2714  0.5400  0.3377
  285MOL0     C38376  10.444   1.716   8.299 -0.2560  0.0873 -0.4047
  285MOL0     C38377  10.533   1.594   8.319  0.1781  0.3152  0.3643
  285MOL0     C38378  10.663   1.621   8.388 -0.6634  0.3014  0.7658
  285MOL0     C38379  10.744   1.744   8.354  0.3098 -0.0978 -0.1744
  285MOL0     C38380  10.898   1.718   8.365  0.3222 -0.8708 -0.1460
  285MOL0     C38381  10.976   1.826   8.282 -0.6610 -0.8501 -0.3765
  285MOL0     C38382  10.955   1.971   8.344 -0.1975 -0.1003 -0.2411
  285MOL0     C38383  11.052   2.086   8.296 -0.0348  0.3297  0.0708
  285MOL0    Cl38384  11.215   2.038   8.242  0.1252  0.1093 -0.0883
  285MOL0     C38385  10.205   1.601   8.453  0.0547 -0.4652 -0.1046
  285MOL0     C38386  10.077   1.580   8.511  0.3808  0.5148  0.1142
  285MOL0     O38387   9.716   1.519   8.321  0.3109 -0.0687 -0.1484
  285MOL0     C38388   9.521   1.388   8.458 -0.8301 -0.5023 -0.4081
  285MOL0     C38389   9.427   1.304   8.511  0.3456 -0.2297  0.0964
  285MOL0     N38390   8.806   1.079   9.023 -0.3532  0.6045 -1.3547
  285MOL0     N38391   8.701   1.112   8.962 -0.1679  1.1703 -0.7363
  285MOL0     C38392   7.617   0.626   8.852 -0.0665  0.4072  1.0015
  285MOL0     C38393   7.481   0.594   8.855  0.0096 -0.7270  0.5239
  285MOL0     C38394   7.041   0.517   8.759 -0.3183  1.0059  0.3986
  285MOL0     C38395   6.986   0.396   8.695  0.1232 -0.5225  0.0395
  285MOL0     C38396   6.851   0.367   8.687 -0.4360 -0.0884 -0.5604
  285MOL0     C38397   6.763   0.466   8.728  0.4989 -0.1325  0.2890
  285MOL0     O38398   6.628   0.450   8.735 -1.0021  0.4679  0.4983
  285MOL0     C38399   6.583   0.315   8.755 -0.3657  0.0963 -0.2158
  285MOL0     C38400   6.499   0.248   8.646  0.1099  0.7584 -0.1887
  285MOL0     C38401   6.400   0.335   8.583  0.6377  0.6092  0.2484
  285MOL0     C38402   6.337   0.257   8.473 -0.8503 -0.3187 -1.2580
  285MOL0     C38403   6.244   0.346   8.403  1.3192 -0.4726  0.6031
  285MOL0     C38404   6.172   0.430   8.353 -0.2794 -1.3407 -0.4862
  285MOL0     C38405   6.812   0.585   8.793 -0.3235 -0.1060 -0.1468
  285MOL0     C38406   6.949   0.612   8.809 -0.8494 -0.1855  0.2391
  285MOL0     C38407   6.992   0.742   8.868  0.1397 -0.4785 -0.1354
  285MOL0     H38408   7.363   0.794   8.613  0.4925  1.7412 -0.3401
  285MOL0     H38409   7.616   0.831   8.589  2.8855 -1.0565  0.6857
  285MOL0     H38410   7.803   0.769   8.517 -0.2243  3.0762  0.5480
  285MOL0     H38411   7.866   0.881   8.626 -0.0260 -0.1592  2.3420
  285MOL0     H38412   8.037   0.794   8.491 -2.7546 -0.2795 -1.7808
  285MOL0     H38413   7.978   0.632   8.512  2.6235  1.7651 -3.9465
  285MOL0     H38414   8.145   0.630   8.679  3.6243  2.2798  0.7734
  285MOL0     H38415   8.038   0.721   8.781  0.6809 -3.9690  0.4792
  285MOL0     H38416   8.253   0.836   8.609  2.2248  1.9916  1.4605
  285MOL0     H38417   8.129   0.932   8.690 -0.3369  0.0741  1.4743
  285MOL0     H38418   8.204   0.851   8.903  2.0191 -2.7135  3.4205
  285MOL0     H38419   8.330   0.747   8.825  1.6842  1.6033 -1.8684
  285MOL0     H38420   8.326   1.052   8.799  0.5698  0.3922  0.5301
  285MOL0     H38421   8.406   0.974   8.929 -0.6014  0.4548 -0.2992
  285MOL0     H38422   8.469   0.918   8.640  1.6732  3.5976 -1.6323
  285MOL0     H38423   8.561   0.854   8.772  2.9627  1.5177 -1.2760
  285MOL0     H38424   8.651   1.071   8.641  0.1611 -0.3647 -0.3064
  285MOL0     H38425   8.544   1.154   8.771  1.1479 -0.8011  3.1070
  285MOL0     H38426   8.874   0.955   8.724  0.2611  1.0620 -0.0983
  285MOL0     H38427   9.047   0.967   9.055  1.5916  1.0816 -0.8463
  285MOL0     H38428   9.039   0.863   8.915  1.2413  0.1748 -0.6841
  285MOL0     H38429   9.134   1.156   8.915 -0.2784  1.2984 -2.8837
  285MOL0     H38430   9.228   1.006   8.930  0.3409  2.7669  1.1733
  285MOL0     H38431   9.051   1.047   8.677 -0.0407  2.1110  0.3548
  285MOL0     H38432   9.188   0.936   8.715  0.5981  0.5126  0.0944
  285MOL0     H38433   9.203   1.240   8.692  1.7974  0.5140 -0.8527
  285MOL0     H38434   9.213   1.145   8.548  0.3942  3.2264  0.4540
  285MOL0     H38435   9.623   1.152   8.734 -1.0180 -0.4679  0.3846
  285MOL0     H38436   9.791   1.302   8.651  0.0356  2.3616 -0.0595
  285MOL0     H38437   9.904   1.539   8.213  0.7314  0.0808  1.1640
  285MOL0     H38438  10.110   1.606   8.124 -0.8417  0.0634 -0.3632
  285MOL0     H38439  10.496   1.798   8.248  2.9036 -2.6243 -1.9214
  285MOL0     H38440  10.433   1.754   8.401  0.9851 -0.1773 -0.1510
  285MOL0     H38441  10.464   1.531   8.375  2.6249 -0.3490  2.8627
  285MOL0     H38442  10.556   1.554   8.220 -3.6054 -0.9835 -0.1632
  285MOL0     H38443  10.643   1.626   8.496 -1.7365 -3.4283  0.8831
  285MOL0     H38444  10.722   1.529   8.379 -1.1715 -0.0642  1.1133
  285MOL0     H38445  10.724   1.830   8.419  1.0631  2.5612 -3.2386
  285MOL0     H38446  10.711   1.772   8.254  3.5067  1.6580 -0.8688
  285MOL0     H38447  10.904   1.624   8.309  1.2909  0.5032 -2.4948
  285MOL0     H38448  10.928   1.706   8.470  0.6230  0.0613 -0.1156
  285MOL0     H38449  11.082   1.801   8.288 -0.1725  1.0895 -0.2859
  285MOL0     H38450  10.949   1.819   8.176 -1.2425 -1.2845 -0.2040
  285MOL0     H38451  10.991   1.957   8.447  1.5548 -4.8792 -1.2104
  285MOL0     H38452  10.854   2.009   8.329  0.9779  3.9633  0.9953
  285MOL0     H38453  10.997   2.134   8.215  0.4935  0.9182  0.0482
  285MOL0     H38454  11.056   2.157   8.380 -2.1326 -1.7240  2.0409
  285MOL0     H38455  10.297   1.609   8.509  2.1220 -2.5683 -2.9205
  285MOL0     H38456  10.063   1.570   8.618 -4.2090  1.0291 -0.2288
  285MOL0     H38457   9.485   1.469   8.394  0.4509 -0.1505 -0.7030
  285MOL0     H38458   9.324   1.313   8.479  1.3177  1.1588 -3.0413
  285MOL0     H38459   7.695   0.585   8.915  0.4375 -0.3108 -0.0605
  285MOL0     H38460   7.450   0.524   8.932  0.7186 -0.1727  1.3320
  285MOL0     H38461   7.059   0.323   8.660 -2.8184 -2.4790 -2.6045
  285MOL0     H38462   6.817   0.269   8.653 -1.4084  0.2106 -0.4725
  285MOL0     H38463   6.528   0.310   8.850  0.6890 -0.7173  0.3822
  285MOL0     H38464   6.666   0.248   8.781 -0.7008 -1.6956 -3.3176
  285MOL0     H38465   6.435   0.178   8.699  0.5196 -0.3480 -1.1057
  285MOL0     H38466   6.574   0.204   8.578  0.7835 -1.2225  1.7101
  285MOL0     H38467   6.458   0.426   8.562  1.9929  0.3731  2.6674
  285MOL0     H38468   6.326   0.379   8.649  2.0874  1.5774  1.2798
  285MOL0     H38469   6.419   0.221   8.411 -1.5936 -1.9260 -1.3538
  285MOL0     H38470   6.287   0.165   8.503  1.2560 -1.1099  0.0060
  285MOL0     H38471   6.108   0.509   8.319  1.0343  1.2605  2.5929
  285MOL0     H38472   6.739   0.657   8.828 -1.8280 -0.7143 -1.8742
  285MOL0     H38473   7.026   0.813   8.792 -2.1108 -0.3361 -1.0827
  285MOL0     H38474   6.907   0.797   8.907  1.5228 -0.8216  3.7967
  285MOL0     H38475   7.073   0.714   8.936  2.2138 -2.8891 -3.2911
  286MOL0     O38476   1.960   7.374  11.006  0.2025  0.1927 -0.6195
  286MOL0     C38477   1.952   7.488  11.054  0.1253  0.9803 -0.1419
  286MOL0     O38478   2.022   7.523  11.162  0.0187  0.1043  0.2158
  286MOL0     C38479   2.086   7.436  11.249 -0.3970  0.8708  1.0438
  286MOL0     C38480   2.178   7.489  11.334  0.2009  0.4206  0.2640
  286MOL0     C38481   2.261   7.418  11.419  0.6393  0.6048 -1.6628
  286MOL0     C38482   2.257   7.275  11.422  0.4602 -0.5620  0.7263
  286MOL0     O38483   2.322   7.189  11.504 -0.1671 -0.7346 -0.5255
  286MOL0     C38484   2.461   7.224  11.526 -0.0723 -0.1074 -1.1028
  286MOL0     C38485   2.527   7.129  11.616 -0.6228  0.7316 -0.6146
  286MOL0     C38486   2.645   7.180  11.691 -0.1662 -0.1882  0.5228
  286MOL0     C38487   2.696   7.068  11.780 -1.0845  0.1204 -0.2433
  286MOL0     C38488   2.833   7.116  11.838  0.0077 -0.2709  0.2805
  286MOL0     C38489   2.887   7.022  11.950 -0.2930 -0.8933  0.0196
  286MOL0     C38490   3.030   7.057  11.979  0.1671 -0.6879  0.2508
  286MOL0     C38491   3.083   6.966  12.093  0.4060 -0.0363 -0.1666
  286MOL0     N38492   3.079   6.819  12.068 -1.0759  0.0764 -0.7654
  286MOL0     C38493   3.166   6.732  12.000 -0.0029  0.3396  0.4468
  286MOL0     C38494   3.116   6.606  12.017 -0.2931  0.7637 -0.0452
  286MOL0     C38495   3.130   6.481  11.932  0.0133  0.1564 -0.6168
  286MOL0     C38496   2.995   6.460  11.872  0.7157  0.6858 -0.0688
  286MOL0     C38497   3.003   6.342  11.772 -0.1021  0.5565 -0.3830
  286MOL0     C38498   2.880   6.267  11.765  0.3003  0.8000  0.4235
  286MOL0     O38499   2.886   6.153  11.856 -0.3754  0.6379 -1.1499
  286MOL0     C38500   2.892   6.033  11.803  0.0335  0.1676 -0.1422
  286MOL0     C38501   2.773   5.985  11.746 -0.1823 -0.5741 -0.4410
  286MOL0     C38502   2.768   5.852  11.709 -0.6858  0.2580 -0.8202
  286MOL0     C38503   2.887   5.771  11.720 -0.2322  0.6046  0.2782
  286MOL0     C38504   2.895   5.631  11.673  0.0068  0.3691 -0.1786
  286MOL0     O38505   2.989   5.556  11.733  0.0807 -0.1622  0.0307
  286MOL0     C38506   3.016   5.427  11.696  1.0755  0.8249 -1.0134
  286MOL0     C38507   3.145   5.398  11.669 -0.1804  0.4889  0.2157
  286MOL0     C38508   3.197   5.274  11.633  0.5850  0.1922  1.1322
  286MOL0     C38509   3.109   5.164  11.618 -0.6697 -1.1909 -0.8680
  286MOL0     O38510   3.148   5.038  11.600 -0.7957 -0.0029  0.0852
  286MOL0     C38511   3.062   4.942  11.535 -0.2790  0.6724 -0.2413
  286MOL0     C38512   3.139   4.819  11.505 -0.3550 -0.0875 -0.3268
  286MOL0     C38513   3.149   4.716  11.610  0.5366  0.1616 -0.6738
  286MOL0     C38514   3.156   4.748  11.759 -0.7466  0.2307 -0.0517
  286MOL0     C38515   3.235   4.640  11.833  1.5037  0.4228  0.7256
  286MOL0     C38516   3.233   4.687  11.982  0.9251  0.2763  0.0615
  286MOL0     C38517   3.188   4.573  12.072 -0.6119 -0.2128 -0.3813
  286MOL0     C38518   3.179   4.613  12.217 -0.5281 -0.2357  0.4706
  286MOL0    Cl38519   3.052   4.736  12.251 -0.3603  0.1838  0.4139
  286MOL0     C38520   2.968   5.193  11.649 -0.1294  0.3060  1.1778
  286MOL0     C38521   2.920   5.325  11.681 -0.2402  0.5438  0.3607
  286MOL0     O38522   2.822   5.591  11.583 -0.3244 -0.5608  0.0246
  286MOL0     C38523   3.001   5.826  11.778  0.1001  0.3942  0.4412
  286MOL0     C38524   3.004   5.952  11.823  0.6196  0.4953  0.3736
  286MOL0     N38525   3.008   6.613  12.104  0.5107 -0.1675  0.0589
  286MOL0     N38526   2.988   6.739  12.125  0.7491 -0.7531 -0.1504
  286MOL0     C38527   2.164   7.221  11.335 -0.5507  0.4792  0.4655
  286MOL0     C38528   2.073   7.298  11.255  0.0289 -0.5895  0.9016
  286MOL0     C38529   1.866   7.579  10.985  0.2600  0.0389 -0.2316
  286MOL0     C38530   1.808   7.530  10.858 -0.7005 -0.1723  0.6150
  286MOL0     C38531   1.710   7.598  10.790  0.1507  0.2092  0.3986
  286MOL0     C38532   1.673   7.725  10.837  0.9748  0.9877  0.2059
  286MOL0     O38533   1.564   7.792  10.773 -0.6420  0.1479  0.1732
  286MOL0     C38534   1.534   7.928  10.786 -0.6056  0.7023  0.2485
  286MOL0     C38535   1.623   8.025  10.704  0.3990  0.3750  0.0134
  286MOL0     C38536   1.577   8.043  10.565 -0.0260 -0.3896 -0.4364
  286MOL0     C38537   1.595   8.190  10.512 -0.5884 -0.3950  0.2237
  286MOL0     C38538   1.586   8.176  10.361 -0.2569 -0.4815 -0.5233
  286MOL0     C38539   1.563   8.153  10.246  0.5517 -1.0588  0.6010
  286MOL0     C38540   1.730   7.785  10.954 -0.4301  0.1155 -0.6669
  286MOL0     C38541   1.828   7.714  11.025 -0.4065 -0.1110 -0.0396
  286MOL0     C38542   1.871   7.785  11.158  0.4909  0.1761 -0.3615
  286MOL0     H38543   2.186   7.595  11.314 -1.8128  0.4774 -0.4152
  286MOL0     H38544   2.319   7.474  11.491  1.7756 -3.9669  1.4084
  286MOL0     H38545   2.503   7.206  11.426  0.0859 -0.8556 -0.9087
  286MOL0     H38546   2.482   7.327  11.556 -1.7008  0.7479 -2.6761
  286MOL0     H38547   2.548   7.044  11.551  0.1198  2.3540 -2.6329
  286MOL0     H38548   2.462   7.096  11.697  0.8049  0.6445  0.5423
  286MOL0     H38549   2.612   7.271  11.743  0.1504  1.2358 -1.6252
  286MOL0     H38550   2.727   7.211  11.626 -0.5465  2.2877  1.1305
  286MOL0     H38551   2.612   7.057  11.850  1.3625 -1.5081  2.6661
  286MOL0     H38552   2.708   6.974  11.725  0.6528  0.4795 -0.5173
  286MOL0     H38553   2.899   7.131  11.752 -0.0621  0.9116  0.4127
  286MOL0     H38554   2.822   7.213  11.886  0.4124 -0.3645  0.5709
  286MOL0     H38555   2.830   7.028  12.043  1.4270  2.8323  1.0196
  286MOL0     H38556   2.883   6.915  11.927 -2.7290 -0.9929  0.6474
  286MOL0     H38557   3.045   7.162  12.005 -3.5148  0.3392 -1.1745
  286MOL0     H38558   3.086   7.041  11.886  1.2218  2.8649  0.1055
  286MOL0     H38559   3.185   7.001  12.107 -0.2403  1.7710  0.3428
  286MOL0     H38560   3.025   6.990  12.183 -3.1669  0.2610 -2.3433
  286MOL0     H38561   3.245   6.761  11.932  0.9764 -2.0212  0.4510
  286MOL0     H38562   3.214   6.480  11.862  0.2981 -2.2305 -0.3391
  286MOL0     H38563   3.161   6.407  12.007 -1.6760  2.1708  2.2999
  286MOL0     H38564   2.925   6.444  11.955 -0.7113  2.1578 -0.9293
  286MOL0     H38565   2.957   6.551  11.824 -1.0256  0.2079  0.3259
  286MOL0     H38566   3.088   6.277  11.793 -1.4659 -0.5502  2.1220
  286MOL0     H38567   3.006   6.398  11.678  1.9388  0.3911 -0.4720
  286MOL0     H38568   2.872   6.233  11.661 -0.3363  1.5940  0.2049
  286MOL0     H38569   2.786   6.321  11.775 -0.1716  0.1635 -0.4103
  286MOL0     H38570   2.686   6.050  11.743  0.4566  0.3576  0.4816
  286MOL0     H38571   2.678   5.806  11.669 -1.0230  1.1709 -1.1446
  286MOL0     H38572   3.209   5.486  11.677 -2.0558  2.1943 -1.9552
  286MOL0     H38573   3.305   5.268  11.623  0.6734  2.2507  0.2047
  286MOL0     H38574   2.980   4.905  11.597  1.2769 -0.9866  0.9334
  286MOL0     H38575   3.019   4.994  11.448  0.9076  2.4300  0.1685
  286MOL0     H38576   3.095   4.764  11.421  0.6328 -1.6145  0.1209
  286MOL0     H38577   3.244   4.845  11.487  0.1777 -1.5019  0.6166
  286MOL0     H38578   3.071   4.640  11.593  0.9394 -0.1684 -1.0622
  286MOL0     H38579   3.249   4.676  11.590  0.9813  1.7329 -1.7123
  286MOL0     H38580   3.055   4.759  11.799 -0.6710  1.0285 -0.0661
  286MOL0     H38581   3.207   4.843  11.778 -1.2576  0.1024  2.1562
  286MOL0     H38582   3.341   4.644  11.805  1.5347 -1.4119  0.5156
  286MOL0     H38583   3.186   4.543  11.826 -0.7337  1.4971  0.4815
  286MOL0     H38584   3.335   4.724  11.997  1.3595 -1.5714  2.1023
  286MOL0     H38585   3.170   4.776  11.988  3.0588  2.0404 -1.5910
  286MOL0     H38586   3.265   4.495  12.070  1.1554  1.4592 -0.4753
  286MOL0     H38587   3.086   4.542  12.049 -0.3884 -4.1117  2.7467
  286MOL0     H38588   3.167   4.523  12.278  3.0262 -0.4162  1.1518
  286MOL0     H38589   3.275   4.654  12.251 -1.0427  0.2588  1.3935
  286MOL0     H38590   2.894   5.113  11.645 -0.6519  0.7479  1.8700
  286MOL0     H38591   2.812   5.333  11.678 -0.5199 -2.0974  0.6427
  286MOL0     H38592   3.090   5.764  11.792  0.7642  1.3480  0.5184
  286MOL0     H38593   3.098   5.985  11.865 -0.0163  1.7865  0.8207
  286MOL0     H38594   2.158   7.113  11.326 -0.4597  0.4570  0.6756
  286MOL0     H38595   1.996   7.258  11.190  0.0313  0.2907  0.3373
  286MOL0     H38596   1.834   7.438  10.807  0.5223 -0.2267  1.2922
  286MOL0     H38597   1.649   7.554  10.712  1.1051  2.9066 -2.0156
  286MOL0     H38598   1.556   7.952  10.891  0.7712 -3.1599  1.0383
  286MOL0     H38599   1.429   7.943  10.760  0.1555  2.4456 -2.1254
  286MOL0     H38600   1.730   8.003  10.696  0.3616 -0.5368  1.6168
  286MOL0     H38601   1.608   8.117  10.761 -3.9182  1.3302 -2.1999
  286MOL0     H38602   1.472   8.015  10.556 -0.9529  1.0305  3.9882
  286MOL0     H38603   1.633   7.971  10.504 -0.2759  0.6428 -1.9360
  286MOL0     H38604   1.519   8.258  10.550 -1.3938 -2.0113  1.6998
  286MOL0     H38605   1.696   8.223  10.539  0.7012 -2.5107 -1.6398
  286MOL0     H38606   1.541   8.135  10.142 -0.4575  0.5865  0.4795
  286MOL0     H38607   1.705   7.881  10.997 -3.2492  0.2722 -2.3745
  286MOL0     H38608   1.975   7.770  11.186  0.3483  1.6831  1.0919
  286MOL0     H38609   1.849   7.892  11.161  0.0247  0.0664  1.9835
  286MOL0     H38610   1.814   7.741  11.240  0.6310 -1.9148 -1.3293
  287MOL0     O38611   0.968   8.552   1.215 -0.3776 -0.3827 -0.2197
  287MOL0     C38612   0.949   8.596   1.097  0.4624 -0.2203 -0.0736
  287MOL0     O38613   0.869   8.543   1.004 -0.2710 -0.3550 -0.3692
  287MOL0     C38614   0.781   8.448   1.020 -0.6702 -0.6202 -0.4978
  287MOL0     C38615   0.822   8.318   1.011 -0.1400 -0.1906 -0.5282
  287MOL0     C38616   0.721   8.217   1.034 -0.1210  0.5210  0.9964
  287MOL0     C38617   0.591   8.251   1.054  0.2325  1.3509 -0.4982
  287MOL0     O38618   0.490   8.158   1.073  0.0458  0.0690 -0.6228
  287MOL0     C38619   0.471   8.052   0.975 -0.0330  0.2824  0.0202
  287MOL0     C38620   0.402   7.936   1.040 -0.2726  0.7150  0.7077
  287MOL0     C38621   0.346   7.841   0.931  0.7565  0.0215  0.1991
  287MOL0     C38622   0.243   7.740   1.001 -0.6655 -0.6265  1.0057
  287MOL0     C38623   0.295   7.673   1.128  0.2909  0.3443 -0.2670
  287MOL0     C38624   0.205   7.555   1.173  0.4106 -0.0074  0.6043
  287MOL0     C38625   0.261   7.495   1.296  0.8440 -0.5850 -0.6683
  287MOL0     C38626   0.196   7.355   1.331 -0.3616 -0.3625  0.6712
  287MOL0     N38627   0.252   7.242   1.251 -0.6049 -0.1393 -0.2468
  287MOL0     C38628   0.374   7.179   1.287  0.0479 -0.2192  0.5058
  287MOL0     C38629   0.393   7.084   1.195 -0.2000 -0.3257 -0.0774
  287MOL0     C38630   0.503   6.985   1.198  0.6257  0.1319  0.2481
  287MOL0     C38631   0.506   6.889   1.327  0.7295  0.6294  0.6392
  287MOL0     C38632   0.383   6.805   1.350  0.4147  0.3541  0.6237
  287MOL0     C38633   0.350   6.704   1.236  0.1100  0.2435 -0.5189
  287MOL0     O38634   0.242   6.609   1.258 -0.1544 -1.0829 -0.5623
  287MOL0     C38635   0.114   6.651   1.263  0.0976 -0.7226  0.0456
  287MOL0     C38636   0.068   6.785   1.225  0.0787 -0.6349  0.1791
  287MOL0     C38637  -0.066   6.819   1.250 -0.9077 -0.0754  0.3927
  287MOL0     C38638  -0.148   6.720   1.311  0.1256 -0.4613  0.8420
  287MOL0     C38639  -0.296   6.744   1.330 -0.4253  0.5617 -0.2712
  287MOL0     O38640  -0.367   6.630   1.375  0.4426 -0.5423  0.2155
  287MOL0     C38641  -0.497   6.645   1.357  0.5368  0.3684 -0.0444
  287MOL0     C38642  -0.545   6.643   1.225  0.0421  0.2274 -0.8008
  287MOL0     C38643  -0.687   6.663   1.196 -0.8588 -0.5349 -0.3744
  287MOL0     C38644  -0.782   6.685   1.299  0.4230  1.2939  0.5835
  287MOL0     O38645  -0.918   6.701   1.258 -0.6920 -0.1614  0.0181
  287MOL0     C38646  -1.002   6.768   1.355  0.9351  0.4235 -0.5206
  287MOL0     C38647  -1.140   6.803   1.293 -0.3040  0.4099 -0.1436
  287MOL0     C38648  -1.131   6.920   1.200  1.1542  0.1493 -0.1577
  287MOL0     C38649  -1.231   6.906   1.089  0.1420 -0.3434  0.0109
  287MOL0     C38650  -1.237   7.029   0.992  0.1113 -0.1083 -0.1815
  287MOL0     C38651  -1.107   7.064   0.919 -0.1027 -0.9472  0.7957
  287MOL0     C38652  -1.136   7.186   0.820  0.0213  0.4053 -0.6995
  287MOL0     C38653  -1.141   7.149   0.675 -0.1644 -0.5171 -0.1391
  287MOL0    Cl38654  -0.985   7.099   0.616  0.0605 -0.0116 -0.0817
  287MOL0     C38655  -0.730   6.686   1.430  0.0447 -0.0187  0.2382
  287MOL0     C38656  -0.591   6.673   1.458 -0.4785  0.9404  0.4436
  287MOL0     O38657  -0.338   6.856   1.308  0.5692  0.5536 -0.2644
  287MOL0     C38658  -0.099   6.596   1.354  0.3356  0.6423 -0.4529
  287MOL0     C38659   0.033   6.558   1.321  0.6915 -1.0628 -1.0441
  287MOL0     N38660   0.290   7.085   1.101 -0.4857 -0.2582 -0.4572
  287MOL0     N38661   0.208   7.183   1.138 -0.5780 -0.3037 -0.6887
  287MOL0     C38662   0.555   8.381   1.067  0.4675  0.2712 -0.1667
  287MOL0     C38663   0.655   8.483   1.049  0.9366 -0.3734  0.4821
  287MOL0     C38664   1.026   8.709   1.044  0.3882  0.4489 -0.0454
  287MOL0     C38665   0.972   8.806   0.961  0.1551 -0.0750  0.4405
  287MOL0     C38666   1.032   8.919   0.922 -0.5245  0.4613  0.4656
  287MOL0     C38667   1.170   8.939   0.957  0.0298  0.0716 -0.4632
  287MOL0     O38668   1.248   9.045   0.926  0.1965 -0.2418 -0.5446
  287MOL0     C38669   1.212   9.162   1.003 -0.3655  0.7001  0.1978
  287MOL0     C38670   1.219   9.285   0.916  0.4044  0.2295 -0.7682
  287MOL0     C38671   1.119   9.270   0.799 -0.5293 -0.2943  0.3286
  287MOL0     C38672   1.186   9.360   0.688 -0.0516  1.0160 -0.1065
  287MOL0     C38673   1.159   9.496   0.712  0.2786  1.0510 -0.4581
  287MOL0     C38674   1.150   9.614   0.723 -0.3973  0.2004 -0.2584
  287MOL0     C38675   1.233   8.836   1.032  0.3279  0.3749 -0.5282
  287MOL0     C38676   1.168   8.727   1.079 -0.2241  0.2933 -1.1839
  287MOL0     C38677   1.245   8.628   1.162 -1.0827  0.4037 -0.4722
  287MOL0     H38678   0.925   8.302   0.983  1.1396  2.2106  2.2093
  287MOL0     H38679   0.743   8.112   1.017  1.9042  0.7460  1.9175
  287MOL0     H38680   0.395   8.089   0.905 -1.0229  0.8964  1.3771
  287MOL0     H38681   0.560   8.030   0.915 -1.7865 -1.8055 -2.0334
  287MOL0     H38682   0.327   7.977   1.109  1.1402  0.5439  2.4111
  287MOL0     H38683   0.468   7.887   1.113 -0.7536 -0.6520  0.2626
  287MOL0     H38684   0.426   7.781   0.888 -1.3226 -2.2576 -0.7809
  287MOL0     H38685   0.293   7.892   0.850 -0.1474  0.7406  1.2180
  287MOL0     H38686   0.148   7.792   1.018 -1.4752 -1.0285 -1.6518
  287MOL0     H38687   0.218   7.663   0.927 -1.3491 -0.4455  1.0424
  287MOL0     H38688   0.399   7.642   1.116 -0.1742 -1.2368 -0.3918
  287MOL0     H38689   0.295   7.745   1.210 -1.4280 -1.3926  1.3836
  287MOL0     H38690   0.111   7.607   1.196  0.8192  1.5046 -0.9334
  287MOL0     H38691   0.198   7.481   1.093  3.8655  1.4283 -1.2349
  287MOL0     H38692   0.235   7.559   1.381  1.5550  0.1788 -1.0130
  287MOL0     H38693   0.370   7.491   1.283  1.0017  0.5722  0.2214
  287MOL0     H38694   0.221   7.330   1.435  4.1701 -3.2011 -0.8017
  287MOL0     H38695   0.090   7.360   1.306  0.0190 -2.8088 -1.9033
  287MOL0     H38696   0.433   7.201   1.375  0.1471  1.5057  0.0500
  287MOL0     H38697   0.501   6.931   1.103  2.0946 -0.5677  0.5878
  287MOL0     H38698   0.604   7.025   1.193  3.0777 -5.0447  1.8384
  287MOL0     H38699   0.594   6.825   1.316  0.4144  0.3064 -0.0011
  287MOL0     H38700   0.517   6.958   1.412  2.3164  2.9401 -1.2869
  287MOL0     H38701   0.294   6.863   1.374 -1.9396 -3.2338  1.3067
  287MOL0     H38702   0.400   6.739   1.435  1.4683  0.2881  0.3772
  287MOL0     H38703   0.438   6.641   1.218 -0.5933 -1.2295  0.8948
  287MOL0     H38704   0.326   6.754   1.142 -0.1542 -2.0689 -1.7638
  287MOL0     H38705   0.129   6.846   1.159 -1.5778  0.8190 -0.0826
  287MOL0     H38706  -0.102   6.918   1.223  0.1246  0.9170  2.3720
  287MOL0     H38707  -0.477   6.625   1.143  0.8390  0.2218 -0.1547
  287MOL0     H38708  -0.708   6.667   1.090 -0.7054  1.2892 -0.3809
  287MOL0     H38709  -1.017   6.703   1.442 -0.1095  1.0344 -0.2207
  287MOL0     H38710  -0.959   6.859   1.397  2.9810 -1.2222  1.1666
  287MOL0     H38711  -1.182   6.707   1.260 -2.3520 -0.3266  3.9194
  287MOL0     H38712  -1.216   6.833   1.366 -1.5772  0.1078 -1.3008
  287MOL0     H38713  -1.155   7.011   1.255 -2.8738 -3.5258  5.2917
  287MOL0     H38714  -1.027   6.929   1.167  1.2158  2.4407  0.5089
  287MOL0     H38715  -1.326   6.892   1.141 -0.6854  0.1756 -1.3033
  287MOL0     H38716  -1.231   6.812   1.031 -2.4514  0.4349 -1.4198
  287MOL0     H38717  -1.262   7.121   1.046  1.8936 -1.3096  2.9213
  287MOL0     H38718  -1.318   7.003   0.923  0.7875 -0.0156 -1.0220
  287MOL0     H38719  -1.038   7.098   0.996 -2.3731 -0.4361  2.7314
  287MOL0     H38720  -1.064   6.977   0.866  0.8399 -2.3644  3.6927
  287MOL0     H38721  -1.047   7.249   0.827 -0.5870  1.5568 -2.5406
  287MOL0     H38722  -1.217   7.249   0.857  2.4149  2.3982  1.5518
  287MOL0     H38723  -1.220   7.078   0.651 -1.7358  1.0587  0.1860
  287MOL0     H38724  -1.164   7.236   0.613  1.9129  0.7316  0.7068
  287MOL0     H38725  -0.799   6.716   1.508  1.0821 -1.4245  1.7810
  287MOL0     H38726  -0.559   6.684   1.561  1.9554 -3.1474  0.3464
  287MOL0     H38727  -0.159   6.518   1.401  0.3075  1.3341  0.7034
  287MOL0     H38728   0.071   6.461   1.351  1.4611 -0.1227  1.2804
  287MOL0     H38729   0.452   8.409   1.084 -0.7718 -1.4261 -3.8535
  287MOL0     H38730   0.634   8.589   1.062 -0.8784 -0.6395 -0.0514
  287MOL0     H38731   0.870   8.782   0.933  0.1170  0.1604  0.3740
  287MOL0     H38732   0.981   8.995   0.865 -0.6504  1.1804  1.4962
  287MOL0     H38733   1.270   9.176   1.095  0.5258  0.5167 -0.3270
  287MOL0     H38734   1.106   9.152   1.028 -0.6823 -1.7516 -1.8405
  287MOL0     H38735   1.321   9.304   0.881  0.5245  0.5829 -0.2229
  287MOL0     H38736   1.192   9.372   0.976  0.9445  2.3316 -3.3617
  287MOL0     H38737   1.021   9.307   0.829  0.3202 -0.5086  3.7911
  287MOL0     H38738   1.115   9.167   0.762  2.1425 -0.1124 -0.7293
  287MOL0     H38739   1.294   9.345   0.683 -0.4377 -2.2637 -1.1705
  287MOL0     H38740   1.143   9.335   0.591 -0.9124  0.1423  0.4842
  287MOL0     H38741   1.173   9.717   0.735  3.5027 -0.6678  1.0881
  287MOL0     H38742   1.333   8.853   1.070 -0.0199  1.4524 -0.0469
  287MOL0     H38743   1.198   8.627   1.261 -2.4402 -2.4014 -1.0523
  287MOL0     H38744   1.245   8.535   1.104 -1.8910  0.3448 -0.3820
  287MOL0     H38745   1.352   8.647   1.176 -0.4803 -2.5777 -0.3154
  288MOL0     O38746   1.390  11.392   4.462  0.4091  0.1192  1.0128
  288MOL0     C38747   1.400  11.484   4.380  0.1261  0.2477  0.5436
  288MOL0     O38748   1.506  11.504   4.293 -0.5181 -0.2720  0.0010
  288MOL0     C38749   1.605  11.413   4.270 -0.0256 -0.1583 -0.1111
  288MOL0     C38750   1.737  11.453   4.286  0.7133  0.2881 -0.4382
  288MOL0     C38751   1.833  11.357   4.275  0.6517 -0.3997  0.7299
  288MOL0     C38752   1.807  11.226   4.236  0.3362 -0.3475  0.2054
  288MOL0     O38753   1.904  11.128   4.204  0.4367  0.4340 -0.0175
  288MOL0     C38754   2.035  11.154   4.151 -0.2292 -0.2353 -0.3969
  288MOL0     C38755   2.033  11.165   4.002 -0.3610  0.2298 -0.7126
  288MOL0     C38756   2.169  11.182   3.939 -0.6976 -0.7366  0.4396
  288MOL0     C38757   2.263  11.054   3.948  0.2032 -0.3221 -0.6236
  288MOL0     C38758   2.378  11.064   3.857  0.3998 -0.8597 -0.1599
  288MOL0     C38759   2.472  11.183   3.873 -0.0731  0.1504  0.0089
  288MOL0     C38760   2.523  11.199   4.017 -0.9676  0.0991  0.4307
  288MOL0     C38761   2.607  11.335   4.026  0.1047 -0.6223  0.3343
  288MOL0     N38762   2.719  11.355   3.935 -0.9601 -0.0326  0.0077
  288MOL0     C38763   2.712  11.421   3.814 -1.1431 -0.1439  0.5181
  288MOL0     C38764   2.845  11.418   3.768 -0.6157  0.5685 -0.2353
  288MOL0     C38765   2.889  11.453   3.629 -0.4331  0.2840  1.5797
  288MOL0     C38766   2.811  11.394   3.501  0.6627  0.7969 -0.4578
  288MOL0     C38767   2.813  11.475   3.381 -0.8174  0.0098  0.3033
  288MOL0     C38768   2.763  11.407   3.259  0.3135  0.0636 -0.0346
  288MOL0     O38769   2.627  11.377   3.284 -0.0794 -0.4068 -0.1228
  288MOL0     C38770   2.552  11.299   3.197 -0.1700 -0.4773 -0.6151
  288MOL0     C38771   2.438  11.240   3.249  0.0342 -0.2565  0.2272
  288MOL0     C38772   2.361  11.149   3.173 -0.5650 -0.9211 -0.0049
  288MOL0     C38773   2.400  11.111   3.046  0.4386  0.1945 -0.2243
  288MOL0     C38774   2.332  11.010   2.968 -0.0390 -0.6824  0.5439
  288MOL0     O38775   2.400  10.959   2.860  0.4858 -0.4760  0.6303
  288MOL0     C38776   2.324  10.887   2.770 -0.1982 -0.1194  0.1574
  288MOL0     C38777   2.326  10.749   2.781 -0.2149  0.0084 -0.6083
  288MOL0     C38778   2.256  10.678   2.675 -0.6301  0.0656 -0.2288
  288MOL0     C38779   2.204  10.734   2.568 -0.8164  0.0221  0.1960
  288MOL0     O38780   2.139  10.651   2.477  0.4397  0.5955  0.3791
  288MOL0     C38781   2.062  10.717   2.372 -0.2156 -0.8583 -0.3526
  288MOL0     C38782   1.946  10.636   2.306 -0.1284 -0.0322 -0.3609
  288MOL0     C38783   1.822  10.596   2.389  1.0992  0.0784  0.6018
  288MOL0     C38784   1.856  10.497   2.498 -0.4768  0.0106  0.0122
  288MOL0     C38785   1.723  10.431   2.546 -0.0727  0.4988  0.9411
  288MOL0     C38786   1.621  10.516   2.629 -0.4296  0.7875  0.1131
  288MOL0     C38787   1.484  10.461   2.644 -0.2908 -0.4926 -0.5331
  288MOL0     C38788   1.482  10.326   2.703 -0.2408  0.6374  0.3059
  288MOL0    Cl38789   1.561  10.321   2.858 -0.1076 -0.2005 -0.1754
  288MOL0     C38790   2.213  10.873   2.562 -0.5346  0.2171 -0.3259
  288MOL0     C38791   2.280  10.950   2.658 -0.4489  0.0450  0.2577
  288MOL0     O38792   2.216  10.991   2.997 -0.7645  0.1790 -0.7534
  288MOL0     C38793   2.521  11.161   3.001  0.2810  0.6040 -0.2966
  288MOL0     C38794   2.594  11.257   3.072  0.6630  0.1419 -0.8277
  288MOL0     N38795   2.921  11.379   3.880 -0.5108  1.3886  0.0448
  288MOL0     N38796   2.848  11.334   3.972 -0.2554 -0.1492  0.1635
  288MOL0     C38797   1.675  11.187   4.216  0.0322 -0.7800  0.4784
  288MOL0     C38798   1.574  11.277   4.240 -0.2452 -0.2937  0.5462
  288MOL0     C38799   1.295  11.596   4.381 -0.3592 -0.4981  0.7699
  288MOL0     C38800   1.315  11.701   4.292  0.7898  0.8009  0.7387
  288MOL0     C38801   1.223  11.795   4.282  0.4277 -0.0217  0.3619
  288MOL0     C38802   1.112  11.808   4.366 -0.3945  0.2565  0.1431
  288MOL0     O38803   1.040  11.922   4.365  0.6459  0.4336  0.3801
  288MOL0     C38804   0.920  11.939   4.439 -1.2709 -0.4383 -0.1790
  288MOL0     C38805   0.808  11.907   4.345  0.3878  0.6015 -0.4651
  288MOL0     C38806   0.790  11.999   4.212 -0.1058 -0.5919 -0.4322
  288MOL0     C38807   0.654  11.979   4.147 -0.3802  0.3383  0.1643
  288MOL0     C38808   0.538  12.039   4.218  0.0011 -0.0716 -0.3422
  288MOL0     C38809   0.449  12.085   4.293 -0.1988  0.6363 -0.2012
  288MOL0     C38810   1.085  11.700   4.447  0.2114 -0.0923 -0.0352
  288MOL0     C38811   1.176  11.595   4.457 -0.3406  0.2202 -0.1677
  288MOL0     C38812   1.147  11.486   4.560 -0.7383  0.1469  0.2556
  288MOL0     H38813   1.751  11.553   4.324 -1.8224 -0.3803  2.6644
  288MOL0     H38814   1.937  11.376   4.299  0.0480  2.1272  1.6563
  288MOL0     H38815   2.084  11.240   4.198 -2.0907  0.1336  0.9603
  288MOL0     H38816   2.111  11.081   4.178 -0.5156 -0.2580  0.3741
  288MOL0     H38817   1.963  11.244   3.972  0.2072  0.3205 -1.8240
  288MOL0     H38818   1.984  11.072   3.971 -1.8004  0.4336  0.7728
  288MOL0     H38819   2.208  11.274   3.984  0.5979  0.0567 -2.1391
  288MOL0     H38820   2.156  11.195   3.831 -2.3522  2.5333  0.8878
  288MOL0     H38821   2.301  11.040   4.050  4.5973  1.2347 -1.8282
  288MOL0     H38822   2.193  10.977   3.914 -1.3388  0.8938 -0.3560
  288MOL0     H38823   2.439  10.976   3.878  1.6725 -0.2879 -1.2756
  288MOL0     H38824   2.343  11.056   3.753 -0.7117  2.0129 -0.1004
  288MOL0     H38825   2.555  11.159   3.806 -1.2150  0.3984 -1.5406
  288MOL0     H38826   2.425  11.280   3.853 -0.5117 -0.0565  0.0115
  288MOL0     H38827   2.597  11.119   4.031  0.8760  1.9160  1.7041
  288MOL0     H38828   2.450  11.188   4.098 -1.8778 -3.1463 -0.6763
  288MOL0     H38829   2.548  11.426   4.011 -2.6492 -2.5399 -1.3558
  288MOL0     H38830   2.640  11.335   4.131  0.4521  0.4579  0.2372
  288MOL0     H38831   2.621  11.430   3.756 -1.1886 -0.4428  0.5390
  288MOL0     H38832   2.874  11.561   3.634 -1.2810  0.1687  1.7194
  288MOL0     H38833   2.997  11.440   3.622 -0.4512 -0.3202  2.3638
  288MOL0     H38834   2.851  11.297   3.470  0.0342  0.1656  0.6451
  288MOL0     H38835   2.706  11.377   3.523  0.4754 -1.6033 -2.6370
  288MOL0     H38836   2.906  11.530   3.365 -2.6991  2.9788 -1.2960
  288MOL0     H38837   2.748  11.560   3.405  0.0860  1.0724 -0.8726
  288MOL0     H38838   2.820  11.314   3.259 -0.4437 -0.4166 -0.6197
  288MOL0     H38839   2.786  11.472   3.174  0.9193  0.5864  0.5176
  288MOL0     H38840   2.406  11.284   3.343 -1.6748  1.5707 -1.1174
  288MOL0     H38841   2.265  11.120   3.213  0.3047 -2.4408  1.0908
  288MOL0     H38842   2.368  10.703   2.870 -2.3788  1.9772  1.6003
  288MOL0     H38843   2.277  10.573   2.697  2.5890  0.9880  1.7483
  288MOL0     H38844   2.023  10.814   2.403 -0.2888 -1.2382  0.7634
  288MOL0     H38845   2.122  10.741   2.283 -1.4935 -1.0733 -1.2978
  288MOL0     H38846   1.912  10.702   2.226  0.9781 -0.8893 -1.5738
  288MOL0     H38847   1.984  10.542   2.266  0.5301 -0.2392  0.7085
  288MOL0     H38848   1.786  10.693   2.426 -3.3550 -1.8340  1.9646
  288MOL0     H38849   1.748  10.559   2.317  1.4232 -2.1401  1.3374
  288MOL0     H38850   1.910  10.536   2.585  0.7271  0.0044 -0.7074
  288MOL0     H38851   1.927  10.425   2.456 -0.1641  2.0673 -3.3364
  288MOL0     H38852   1.763  10.355   2.614  3.5546  2.3839  1.1298
  288MOL0     H38853   1.665  10.380   2.468 -0.6087 -0.5962  2.0092
  288MOL0     H38854   1.665  10.554   2.722  1.8108  2.0891 -1.3798
  288MOL0     H38855   1.605  10.601   2.562  1.3842  1.6020  0.6585
  288MOL0     H38856   1.424  10.478   2.553  1.7227  0.7905 -1.6870
  288MOL0     H38857   1.433  10.532   2.711 -2.0479 -0.9886 -1.2773
  288MOL0     H38858   1.377  10.305   2.724  0.2987 -2.2807  0.4222
  288MOL0     H38859   1.530  10.267   2.625  0.2739  1.8632 -0.3288
  288MOL0     H38860   2.187  10.919   2.467 -3.4599  0.9998  0.7580
  288MOL0     H38861   2.292  11.055   2.633  0.1844  0.2328  1.3042
  288MOL0     H38862   2.567  11.130   2.908 -1.4173 -2.8300 -0.1443
  288MOL0     H38863   2.684  11.304   3.034  1.0040  1.3828  1.3825
  288MOL0     H38864   1.660  11.085   4.182  0.0856 -0.9916  1.0719
  288MOL0     H38865   1.476  11.243   4.210 -1.6227  1.6384  2.5199
  288MOL0     H38866   1.405  11.711   4.232  1.4966 -2.3964  1.1365
  288MOL0     H38867   1.243  11.885   4.225  0.5505 -0.9991 -1.1945
  288MOL0     H38868   0.929  12.045   4.466  0.9419 -1.3017  3.2466
  288MOL0     H38869   0.916  11.880   4.531 -1.3042  0.6977  0.5711
  288MOL0     H38870   0.719  11.908   4.409  0.3547 -1.7619 -0.3689
  288MOL0     H38871   0.817  11.800   4.321  1.1946  0.4921  0.2709
  288MOL0     H38872   0.865  11.966   4.139  2.5662 -0.0958  1.9135
  288MOL0     H38873   0.798  12.101   4.250  0.1062 -0.2683 -1.3194
  288MOL0     H38874   0.663  12.020   4.046  2.0506 -0.8069 -0.1352
  288MOL0     H38875   0.632  11.874   4.129 -1.0873  0.7565 -1.7280
  288MOL0     H38876   0.374  12.114   4.365  0.7867  0.8888  0.7487
  288MOL0     H38877   1.007  11.697   4.522  1.3135 -2.6005  1.1086
  288MOL0     H38878   1.230  11.467   4.629 -1.6692 -0.5813  1.2140
  288MOL0     H38879   1.054  11.506   4.613 -1.3564 -1.9926  0.0867
  288MOL0     H38880   1.130  11.386   4.519  0.8943 -1.4229  3.0341
  289MOL0     O38881   1.588   9.566   4.181  0.0708  0.2384  0.4666
  289MOL0     C38882   1.561   9.646   4.096 -0.1407 -0.3647 -0.1325
  289MOL0     O38883   1.517   9.614   3.970 -0.0977  0.3115 -0.3086
  289MOL0     C38884   1.489   9.479   3.944  0.9069  0.0709 -0.4330
  289MOL0     C38885   1.581   9.414   3.868 -0.5097  0.9817  0.3501
  289MOL0     C38886   1.558   9.284   3.829  0.1087 -0.8045 -0.4024
  289MOL0     C38887   1.447   9.209   3.861  0.0495  1.3250 -0.7748
  289MOL0     O38888   1.438   9.089   3.800 -0.1144  0.0495  0.2180
  289MOL0     C38889   1.298   9.046   3.750 -0.2771  0.3455  0.2924
  289MOL0     C38890   1.306   9.023   3.596  0.2618  0.4123  0.9603
  289MOL0     C38891   1.388   8.892   3.574 -0.4567 -0.5081 -0.2735
  289MOL0     C38892   1.535   8.927   3.534 -0.0351 -0.7696 -0.5372
  289MOL0     C38893   1.591   8.825   3.436 -0.8484  0.2730 -0.3527
  289MOL0     C38894   1.745   8.844   3.420 -0.3946  0.2132  0.7070
  289MOL0     C38895   1.811   8.718   3.347  0.7466 -0.1006 -0.1381
  289MOL0     C38896   1.956   8.751   3.327  0.3577  0.3145 -0.1905
  289MOL0     N38897   2.035   8.629   3.317  0.5145  0.2053  0.0851
  289MOL0     C38898   2.026   8.504   3.382 -0.6281 -0.9739 -0.1738
  289MOL0     C38899   2.087   8.425   3.303  0.3252  0.2505  0.6763
  289MOL0     C38900   2.105   8.283   3.348 -0.0936  0.4744 -0.4597
  289MOL0     C38901   2.249   8.233   3.337  0.6098  0.4655  0.1901
  289MOL0     C38902   2.348   8.301   3.428 -0.9103  0.5828 -0.7812
  289MOL0     C38903   2.454   8.205   3.504 -0.6303  0.1917  0.5737
  289MOL0     O38904   2.392   8.123   3.604  0.1521  0.1611 -0.0787
  289MOL0     C38905   2.312   8.171   3.703  0.2438  0.2220 -0.0193
  289MOL0     C38906   2.171   8.147   3.715  0.0807  0.5432  1.3958
  289MOL0     C38907   2.098   8.210   3.819 -0.3429  0.3328  0.0688
  289MOL0     C38908   2.163   8.284   3.921 -0.0741 -0.7730  0.3440
  289MOL0     C38909   2.083   8.344   4.027  0.0182 -0.0639 -0.4892
  289MOL0     O38910   2.141   8.392   4.138  0.0003 -0.2193 -0.2815
  289MOL0     C38911   2.060   8.438   4.239 -0.1905 -0.5345 -0.1553
  289MOL0     C38912   2.019   8.574   4.235 -0.2367  0.3477 -1.0346
  289MOL0     C38913   1.941   8.629   4.340  0.0597  0.4651  0.1016
  289MOL0     C38914   1.892   8.538   4.439 -1.0703  0.1250 -0.5197
  289MOL0     O38915   1.813   8.586   4.539  0.3056 -0.0926  0.1847
  289MOL0     C38916   1.682   8.522   4.559  0.7558  0.0147 -0.0777
  289MOL0     C38917   1.695   8.441   4.687  0.3764  0.4351  0.6970
  289MOL0     C38918   1.683   8.532   4.801  0.4171 -0.3029  0.3517
  289MOL0     C38919   1.669   8.455   4.931  0.0996  0.2128 -0.6780
  289MOL0     C38920   1.709   8.533   5.062 -1.0462  1.1666  0.5429
  289MOL0     C38921   1.865   8.539   5.063  0.3065 -0.2777 -0.8377
  289MOL0     C38922   1.916   8.552   5.210  0.1281 -0.5298  0.4586
  289MOL0     C38923   2.068   8.602   5.213  0.4874  0.2166  0.5498
  289MOL0    Cl38924   2.106   8.779   5.156  0.0058 -0.0487 -0.1170
  289MOL0     C38925   1.927   8.406   4.436 -0.3710  0.1372  0.0484
  289MOL0     C38926   2.002   8.352   4.331  0.3920 -0.3444 -0.1567
  289MOL0     O38927   1.967   8.364   3.993 -0.1178  0.1506  0.2050
  289MOL0     C38928   2.302   8.309   3.899  0.2594  0.0729  0.2097
  289MOL0     C38929   2.375   8.249   3.796 -0.5607 -1.3266  0.1673
  289MOL0     N38930   2.145   8.476   3.189 -0.4931 -0.2958 -0.6807
  289MOL0     N38931   2.097   8.600   3.197 -0.4549  0.8176 -0.2107
  289MOL0     C38932   1.355   9.267   3.950 -0.5423  0.0412  0.3465
  289MOL0     C38933   1.377   9.408   3.996  0.6064  0.3755 -0.4834
  289MOL0     C38934   1.581   9.786   4.124 -1.2419  0.4276 -0.9271
  289MOL0     C38935   1.611   9.875   4.024  0.0630  0.7696  0.1886
  289MOL0     C38936   1.638  10.004   4.057  0.0547 -0.5931 -0.1139
  289MOL0     C38937   1.645  10.051   4.189  0.3658 -0.2092 -1.1509
  289MOL0     O38938   1.681  10.181   4.203 -0.1016  0.2446  0.0396
  289MOL0     C38939   1.719  10.232   4.326 -0.6541  0.4892  0.2599
  289MOL0     C38940   1.742  10.382   4.290 -0.0658 -0.9982  0.0118
  289MOL0     C38941   1.812  10.465   4.399  0.7369  0.4985 -0.1996
  289MOL0     C38942   1.860  10.610   4.361  0.0633 -0.0352  0.3288
  289MOL0     C38943   1.741  10.688   4.358  0.2815 -1.1191 -0.0463
  289MOL0     C38944   1.626  10.738   4.352 -0.4868 -0.5375 -0.9693
  289MOL0     C38945   1.630   9.961   4.289  0.0419  0.3128 -0.3950
  289MOL0     C38946   1.592   9.832   4.262  0.1403  0.8872  0.6085
  289MOL0     C38947   1.575   9.745   4.388 -0.0121  0.1139 -0.2433
  289MOL0     H38948   1.660   9.479   3.830 -0.2480 -0.3953 -1.6250
  289MOL0     H38949   1.615   9.238   3.749  1.0610 -0.5837  0.1464
  289MOL0     H38950   1.265   8.952   3.796  1.7151 -2.1437 -2.9012
  289MOL0     H38951   1.230   9.129   3.771  2.3343  3.4487 -2.3171
  289MOL0     H38952   1.344   9.115   3.552  0.5039 -0.8909 -1.7816
  289MOL0     H38953   1.202   9.009   3.564  0.6105  0.0460 -0.0760
  289MOL0     H38954   1.333   8.844   3.493  1.0705  2.9356 -3.6234
  289MOL0     H38955   1.384   8.823   3.659 -2.1969  1.5362  1.4486
  289MOL0     H38956   1.531   9.034   3.513 -1.2032 -0.4556  1.0744
  289MOL0     H38957   1.597   8.918   3.624 -0.2096 -1.1025 -0.4468
  289MOL0     H38958   1.577   8.724   3.477  0.5886 -0.0335 -0.5591
  289MOL0     H38959   1.546   8.834   3.337 -1.2606 -1.2573 -0.3343
  289MOL0     H38960   1.768   8.924   3.349 -0.9773 -2.1652 -2.4383
  289MOL0     H38961   1.781   8.868   3.520  1.1740 -2.7889  0.9796
  289MOL0     H38962   1.763   8.708   3.249  0.4641  3.6376 -0.5389
  289MOL0     H38963   1.802   8.632   3.413  0.7746  1.2212  1.6613
  289MOL0     H38964   1.977   8.802   3.232  3.6922  2.1298  1.3409
  289MOL0     H38965   1.996   8.806   3.412 -0.2398 -0.9352  0.9355
  289MOL0     H38966   1.972   8.487   3.475  0.7168  0.4704  0.9273
  289MOL0     H38967   2.082   8.262   3.453  0.9198 -0.8180 -0.4612
  289MOL0     H38968   2.037   8.223   3.287  0.9471  0.4305 -1.6117
  289MOL0     H38969   2.245   8.126   3.362  0.4567  0.2921 -0.5676
  289MOL0     H38970   2.279   8.232   3.232 -0.9160  2.0914 -0.2928
  289MOL0     H38971   2.309   8.357   3.514  1.7560 -0.2690  1.0987
  289MOL0     H38972   2.407   8.364   3.361 -1.5651 -0.8973 -2.8409
  289MOL0     H38973   2.532   8.264   3.553  2.1262 -1.2797 -1.7314
  289MOL0     H38974   2.497   8.136   3.431 -1.8963 -1.7958  1.6166
  289MOL0     H38975   2.116   8.094   3.639  1.4261 -1.0540  1.4805
  289MOL0     H38976   1.990   8.209   3.822 -0.3370  0.6477  0.5414
  289MOL0     H38977   2.048   8.634   4.149  1.7840  0.9154 -0.0028
  289MOL0     H38978   1.909   8.733   4.338  1.6443  0.9807 -2.0930
  289MOL0     H38979   1.597   8.591   4.556  0.6521 -0.0714  0.7128
  289MOL0     H38980   1.662   8.460   4.471  1.6680 -0.6045  0.1394
  289MOL0     H38981   1.619   8.362   4.691  1.5492 -0.6984  3.3991
  289MOL0     H38982   1.781   8.373   4.685 -0.8606 -1.1862 -0.3479
  289MOL0     H38983   1.774   8.593   4.805  1.0115 -0.9098 -2.0252
  289MOL0     H38984   1.601   8.604   4.796 -0.5419 -1.4425 -0.8459
  289MOL0     H38985   1.734   8.366   4.928 -1.3803 -1.0562  1.9586
  289MOL0     H38986   1.570   8.409   4.938  0.1041 -0.2123 -2.7046
  289MOL0     H38987   1.671   8.463   5.137 -0.8580  0.7022  0.2049
  289MOL0     H38988   1.663   8.632   5.075 -2.2212  0.3834  3.1233
  289MOL0     H38989   1.909   8.449   5.020 -1.5573 -1.7458  0.1972
  289MOL0     H38990   1.905   8.626   5.010  1.7681 -1.0501 -1.0458
  289MOL0     H38991   1.909   8.453   5.257 -0.6986 -1.3456 -1.2880
  289MOL0     H38992   1.868   8.627   5.274  1.5003 -0.4752  1.4611
  289MOL0     H38993   2.105   8.595   5.316  1.5925  2.7667  0.3937
  289MOL0     H38994   2.133   8.538   5.154  0.7830 -0.2935  1.4036
  289MOL0     H38995   1.888   8.343   4.515  0.7739  0.7203  1.1018
  289MOL0     H38996   2.023   8.246   4.330  2.0265 -0.1241 -3.5890
  289MOL0     H38997   2.351   8.377   3.967 -3.9965  2.7818  0.8812
  289MOL0     H38998   2.477   8.286   3.805 -1.2993  0.2382  4.0016
  289MOL0     H38999   1.277   9.199   3.984 -0.8121 -0.2269 -0.7696
  289MOL0     H39000   1.307   9.456   4.063 -0.6651  0.0984 -1.5665
  289MOL0     H39001   1.624   9.851   3.919  0.6646 -1.0482  0.6491
  289MOL0     H39002   1.636  10.067   3.969 -0.3989 -0.4410  0.0031
  289MOL0     H39003   1.812  10.188   4.363  0.1232 -0.2333 -2.3601
  289MOL0     H39004   1.636  10.221   4.397 -1.8736 -2.2724 -1.4160
  289MOL0     H39005   1.645  10.425   4.265 -0.4932 -2.6539 -1.3798
  289MOL0     H39006   1.811  10.389   4.205  1.0742 -2.4238  0.7636
  289MOL0     H39007   1.904  10.408   4.416  0.0879 -1.0300 -1.5993
  289MOL0     H39008   1.749  10.456   4.488 -2.1125  1.2364 -2.0260
  289MOL0     H39009   1.922  10.633   4.448  1.4761 -0.5156 -0.5122
  289MOL0     H39010   1.928  10.618   4.275  1.3993 -1.9214  1.1326
  289MOL0     H39011   1.532  10.789   4.356 -0.8092 -1.1905  0.8938
  289MOL0     H39012   1.648   9.993   4.391  1.2558 -3.4559  0.7331
  289MOL0     H39013   1.540   9.815   4.464  0.5677 -0.9712  1.0580
  289MOL0     H39014   1.487   9.680   4.380 -0.4630  0.7903 -0.9471
  289MOL0     H39015   1.665   9.702   4.433  0.8164  0.2234 -1.7401
  290MOL0     O39016   1.507   7.064  10.187  0.1040  0.5599  0.0241
  290MOL0     C39017   1.579   6.992  10.110  0.4456  0.4814 -0.5302
  290MOL0     O39018   1.705   6.942  10.141  0.3359 -0.0843 -0.6685
  290MOL0     C39019   1.744   6.934  10.277 -0.1012 -0.0404 -0.0479
  290MOL0     C39020   1.670   6.858  10.371 -0.2017  0.0333  0.4545
  290MOL0     C39021   1.715   6.838  10.501  1.3045  0.7379  0.4263
  290MOL0     C39022   1.833   6.892  10.546  0.0022 -0.5682  0.9530
  290MOL0     O39023   1.882   6.881  10.665  0.7752  0.4183 -0.4222
  290MOL0     C39024   1.883   6.748  10.720  0.3700 -0.2857  0.2260
  290MOL0     C39025   1.994   6.744  10.824  0.0826  0.2625 -0.0108
  290MOL0     C39026   2.131   6.767  10.747 -0.5040 -0.3328 -0.5999
  290MOL0     C39027   2.190   6.640  10.683 -0.1189  1.3778  0.4692
  290MOL0     C39028   2.342   6.648  10.661 -0.4022  0.6333 -0.0475
  290MOL0     C39029   2.381   6.732  10.544  0.3337  0.3287 -0.2384
  290MOL0     C39030   2.528   6.753  10.556  0.8345  0.8186  0.0084
  290MOL0     C39031   2.585   6.828  10.445  0.1888  0.1744 -0.2733
  290MOL0     N39032   2.718   6.874  10.491  0.2296 -0.0079 -0.4835
  290MOL0     C39033   2.838   6.804  10.496 -0.1661  0.6051 -0.0818
  290MOL0     C39034   2.923   6.876  10.562  0.0621 -0.5579  0.3711
  290MOL0     C39035   3.060   6.842  10.624  0.1355  0.1048 -0.0380
  290MOL0     C39036   3.178   6.892  10.541  0.1373  0.7782  0.6559
  290MOL0     C39037   3.222   6.805  10.424  0.2725  0.1459 -0.0123
  290MOL0     C39038   3.338   6.871  10.344 -0.4932 -0.6229 -0.2799
  290MOL0     O39039   3.449   6.912  10.411  0.1563  0.3528 -0.7188
  290MOL0     C39040   3.545   6.811  10.421 -0.1463 -0.0051 -0.8746
  290MOL0     C39041   3.534   6.715  10.520  0.5415 -0.0690 -0.0586
  290MOL0     C39042   3.642   6.622  10.527  0.3757 -1.1816 -0.4243
  290MOL0     C39043   3.755   6.612  10.439  0.3965  0.2517  0.1971
  290MOL0     C39044   3.848   6.501  10.452 -0.4078  0.3198 -0.3596
  290MOL0     O39045   3.804   6.389  10.512 -0.0796  0.1115 -1.2703
  290MOL0     C39046   3.895   6.295  10.562 -0.4010 -0.4758  0.2588
  290MOL0     C39047   3.898   6.270  10.699 -0.8522  0.5681 -0.0245
  290MOL0     C39048   3.990   6.171  10.752 -0.1142  0.4355  0.1505
  290MOL0     C39049   4.079   6.106  10.674  0.7789 -0.0951  0.0349
  290MOL0     O39050   4.162   6.008  10.726  0.2407 -0.0399  0.4119
  290MOL0     C39051   4.294   5.987  10.678  0.2698  0.4472 -0.6989
  290MOL0     C39052   4.378   6.108  10.731 -0.6269 -0.7149  0.1549
  290MOL0     C39053   4.375   6.249  10.663  0.1244  0.4646  0.9903
  290MOL0     C39054   4.468   6.350  10.731 -0.5699  1.0564  1.2791
  290MOL0     C39055   4.501   6.454  10.637 -0.4442 -0.2049  0.1939
  290MOL0     C39056   4.583   6.412  10.507  0.1822 -0.1628 -0.4938
  290MOL0     C39057   4.605   6.536  10.423  1.0645  0.3924  0.9685
  290MOL0     C39058   4.701   6.499  10.317 -0.2964 -0.5145  0.2048
  290MOL0    Cl39059   4.865   6.564  10.334 -0.1303  0.8735 -0.2004
  290MOL0     C39060   4.070   6.132  10.539  0.1512 -0.4821  0.3594
  290MOL0     C39061   3.978   6.224  10.482  0.5111  0.5571  0.0772
  290MOL0     O39062   3.969   6.518  10.420  0.0478  0.3356 -0.0938
  290MOL0     C39063   3.762   6.717  10.349 -0.0048  0.4511  0.0473
  290MOL0     C39064   3.657   6.814  10.340 -0.1185  0.2708 -0.0567
  290MOL0     N39065   2.864   6.994  10.592 -0.4038  0.6306  0.8860
  290MOL0     N39066   2.737   6.989  10.561  0.0297  0.2977  0.1903
  290MOL0     C39067   1.911   6.963  10.452  0.2073  0.2497 -1.7071
  290MOL0     C39068   1.867   6.983  10.321  0.1686 -0.2351 -0.0450
  290MOL0     C39069   1.563   7.006   9.963  0.0089  0.7935  0.3176
  290MOL0     C39070   1.664   6.987   9.876 -0.4125  0.5332 -0.6315
  290MOL0     C39071   1.658   7.021   9.743 -0.2823  0.9117 -0.7351
  290MOL0     C39072   1.544   7.053   9.678  0.3231 -0.1534 -0.2254
  290MOL0     O39073   1.550   7.046   9.537 -0.2403  0.7445 -0.9791
  290MOL0     C39074   1.432   6.991   9.476 -0.2020 -0.6569  0.3441
  290MOL0     C39075   1.449   7.005   9.319  0.4275  0.3531 -1.1087
  290MOL0     C39076   1.331   6.953   9.237 -0.2962  0.7754  0.3798
  290MOL0     C39077   1.352   6.982   9.098 -0.0227  0.4313  0.5030
  290MOL0     C39078   1.457   6.904   9.024  0.1946  0.6863  0.2190
  290MOL0     C39079   1.527   6.843   8.941 -0.9983  0.4403 -0.2233
  290MOL0     C39080   1.426   7.061   9.762 -0.5046 -0.1830  0.3172
  290MOL0     C39081   1.435   7.034   9.904  0.0255  0.6399 -0.3296
  290MOL0     C39082   1.306   7.021   9.979 -0.3381 -0.3252 -0.4157
  290MOL0     H39083   1.580   6.807  10.341 -2.3333  3.7738 -0.1766
  290MOL0     H39084   1.656   6.771  10.563 -0.0103 -1.9871 -3.3263
  290MOL0     H39085   1.787   6.730  10.769 -0.5280 -2.6509 -2.2013
  290MOL0     H39086   1.897   6.668  10.647 -0.2972 -0.4944  0.3184
  290MOL0     H39087   1.991   6.643  10.864  0.5308 -1.0009 -2.9221
  290MOL0     H39088   1.985   6.821  10.901  1.0881  0.2866  0.1043
  290MOL0     H39089   2.197   6.796  10.829  0.1334 -1.1620 -0.8072
  290MOL0     H39090   2.120   6.845  10.671 -1.7126 -0.6207 -0.7382
  290MOL0     H39091   2.170   6.546  10.736  0.8862 -0.2236 -1.8406
  290MOL0     H39092   2.152   6.628  10.581  1.5324  2.4489 -0.3150
  290MOL0     H39093   2.389   6.675  10.756 -1.2188 -0.8487  0.8206
  290MOL0     H39094   2.382   6.547  10.649 -0.2471  0.9196 -2.5525
  290MOL0     H39095   2.360   6.671  10.456  2.2873 -0.9596  0.1182
  290MOL0     H39096   2.329   6.828  10.548 -1.5219 -0.6830  1.5674
  290MOL0     H39097   2.591   6.664  10.560  1.0725  1.0227  1.6777
  290MOL0     H39098   2.537   6.819  10.644  1.6707  3.7073 -2.0778
  290MOL0     H39099   2.594   6.757  10.363  2.5640  1.5562 -1.3043
  290MOL0     H39100   2.527   6.917  10.419 -0.2454  0.4783  1.5326
  290MOL0     H39101   2.851   6.700  10.466 -2.9489  0.2410 -0.2958
  290MOL0     H39102   3.068   6.899  10.717 -1.2846 -0.4852  0.4747
  290MOL0     H39103   3.060   6.734  10.642 -0.2616  0.3345  1.4353
  290MOL0     H39104   3.169   6.995  10.504  1.8244  1.6280  2.4298
  290MOL0     H39105   3.259   6.896  10.613  0.4451 -3.6479  0.8004
  290MOL0     H39106   3.146   6.782  10.350 -0.0440  0.8022  0.0968
  290MOL0     H39107   3.246   6.705  10.462 -3.3227 -1.8631 -2.4821
  290MOL0     H39108   3.310   6.955  10.280 -0.0391  1.2520  1.8833
  290MOL0     H39109   3.371   6.791  10.275  2.3470 -0.6272  0.9259
  290MOL0     H39110   3.447   6.711  10.585  0.5327 -3.0056 -0.1134
  290MOL0     H39111   3.627   6.558  10.614 -2.1428 -2.5710 -1.7806
  290MOL0     H39112   3.835   6.318  10.773  1.5171  3.2177  0.4344
  290MOL0     H39113   3.989   6.145  10.858 -0.0623 -3.6208 -0.6843
  290MOL0     H39114   4.341   5.894  10.709 -0.3417  1.0058  2.2081
  290MOL0     H39115   4.283   5.987  10.569  0.8455 -0.4854 -0.7607
  290MOL0     H39116   4.361   6.116  10.839  3.0532  0.0251  0.8250
  290MOL0     H39117   4.481   6.077  10.712 -0.4370  0.9542 -1.7991
  290MOL0     H39118   4.394   6.230  10.557 -0.9416  0.3817  0.8054
  290MOL0     H39119   4.272   6.287  10.660 -0.4062 -0.9007 -2.3898
  290MOL0     H39120   4.568   6.312  10.757  0.2304  1.1546 -1.3546
  290MOL0     H39121   4.436   6.389  10.828  4.4349  0.3969  3.5671
  290MOL0     H39122   4.560   6.519  10.704 -1.7062 -0.1963  1.3534
  290MOL0     H39123   4.406   6.506  10.622 -0.6470 -0.6219  0.0285
  290MOL0     H39124   4.678   6.380  10.552 -0.6479 -0.6109  1.0117
  290MOL0     H39125   4.530   6.337  10.447  0.8885  0.1793 -1.5653
  290MOL0     H39126   4.630   6.628  10.477  1.7365  0.2992  0.8251
  290MOL0     H39127   4.505   6.538  10.378  0.7375 -3.3550  1.2823
  290MOL0     H39128   4.708   6.391  10.300 -1.6875 -0.4465 -1.0270
  290MOL0     H39129   4.671   6.542  10.220  0.7298  1.1700  0.5954
  290MOL0     H39130   4.129   6.080  10.465  0.0861  0.5160 -0.4149
  290MOL0     H39131   3.981   6.243  10.375  3.3766  2.7992  0.4166
  290MOL0     H39132   3.849   6.727  10.284  0.7214 -0.9533  0.7605
  290MOL0     H39133   3.661   6.899  10.273  2.5674  3.6530  3.9078
  290MOL0     H39134   2.009   6.984  10.493  0.2899  0.0874 -1.8181
  290MOL0     H39135   1.916   7.039  10.242 -2.4324  0.1554 -1.4824
  290MOL0     H39136   1.762   6.962   9.914 -1.1618 -0.1110  1.0063
  290MOL0     H39137   1.752   7.033   9.690  0.1316  2.6234  0.2944
  290MOL0     H39138   1.346   7.050   9.509  1.3753  2.0467 -0.0932
  290MOL0     H39139   1.405   6.887   9.498 -0.3386 -0.2205  2.4085
  290MOL0     H39140   1.540   6.954   9.286  0.3023 -0.3755 -0.3754
  290MOL0     H39141   1.466   7.110   9.293 -0.2582  2.2651  4.7348
  290MOL0     H39142   1.238   7.005   9.264  0.0737  2.3679 -1.2662
  290MOL0     H39143   1.322   6.845   9.250 -3.1093  0.5434 -2.3237
  290MOL0     H39144   1.272   6.936   9.040  0.5615 -0.1694  0.1584
  290MOL0     H39145   1.352   7.089   9.075 -0.1082  0.2131 -0.5721
  290MOL0     H39146   1.588   6.802   8.863  2.5220  4.0382  0.3031
  290MOL0     H39147   1.330   7.070   9.714 -0.7008  1.3460  0.9131
  290MOL0     H39148   1.295   7.089  10.065 -0.0379 -3.0489  1.9062
  290MOL0     H39149   1.226   7.039   9.906  0.0061  1.0309 -0.5037
  290MOL0     H39150   1.290   6.921  10.019  0.9056 -1.0643 -1.6659
  291MOL0     O39151   2.326   7.955   4.959 -0.9502 -0.6631  0.8780
  291MOL0     C39152   2.288   7.891   5.056  0.0127 -0.3010 -1.2497
  291MOL0     O39153   2.344   7.782   5.108 -0.4751  0.4415  0.8672
  291MOL0     C39154   2.476   7.745   5.090  1.2371  0.4046 -0.1373
  291MOL0     C39155   2.527   7.624   5.032 -0.4074  0.1809  0.1787
  291MOL0     C39156   2.662   7.596   5.015 -0.4616  0.0020 -1.1932
  291MOL0     C39157   2.760   7.684   5.065 -0.2325  0.2397 -1.1285
  291MOL0     O39158   2.894   7.638   5.066 -0.0694  0.1583  0.1673
  291MOL0     C39159   2.980   7.713   4.983 -0.5367  0.1967  0.2164
  291MOL0     C39160   3.100   7.765   5.067 -0.1496  0.3198 -0.2006
  291MOL0     C39161   3.070   7.863   5.176 -0.8646  0.2577 -0.6611
  291MOL0     C39162   3.195   7.914   5.238 -0.2790  0.0136  0.4152
  291MOL0     C39163   3.289   7.814   5.293  0.4571  0.0970 -0.6528
  291MOL0     C39164   3.396   7.872   5.391  0.0710  1.0864 -0.0584
  291MOL0     C39165   3.488   7.972   5.323 -0.7108  0.2239  0.1664
  291MOL0     C39166   3.633   7.960   5.381 -0.0321 -0.6986 -0.2903
  291MOL0     N39167   3.713   8.062   5.300  0.0522 -0.2575 -0.1624
  291MOL0     C39168   3.738   8.189   5.346 -1.0599  0.6938  0.0805
  291MOL0     C39169   3.823   8.236   5.254 -1.3386  0.7278 -0.3558
  291MOL0     C39170   3.902   8.361   5.256 -0.4221  0.0768 -0.3334
  291MOL0     C39171   4.040   8.339   5.307  0.5479 -0.6080 -0.9627
  291MOL0     C39172   4.131   8.234   5.242  1.1748  0.5513 -0.2680
  291MOL0     C39173   4.259   8.217   5.327  0.2990 -0.2162 -0.0064
  291MOL0     O39174   4.354   8.150   5.243  0.2128 -0.9371 -0.8465
  291MOL0     C39175   4.482   8.175   5.284 -0.2819  0.0681  0.1445
  291MOL0     C39176   4.564   8.081   5.345 -0.2515  0.0644  0.5845
  291MOL0     C39177   4.697   8.109   5.361  0.3366  0.2102  0.2198
  291MOL0     C39178   4.749   8.241   5.344 -0.1452  0.0927 -1.3181
  291MOL0     C39179   4.890   8.280   5.366 -0.3056 -0.7147  1.1426
  291MOL0     O39180   4.930   8.402   5.334 -0.6555  0.8926 -0.0885
  291MOL0     C39181   5.057   8.454   5.361 -0.0300  0.3925  0.2635
  291MOL0     C39182   5.101   8.563   5.280 -0.7590  0.0645  0.0345
  291MOL0     C39183   5.221   8.629   5.311  0.2236 -0.2932  0.4372
  291MOL0     C39184   5.306   8.585   5.408  0.0180 -0.7062  0.9692
  291MOL0     O39185   5.423   8.644   5.447 -0.0082 -0.4497  0.8090
  291MOL0     C39186   5.416   8.785   5.463 -0.1801 -0.4676  0.6509
  291MOL0     C39187   5.526   8.825   5.555  0.9823 -0.9607  0.4219
  291MOL0     C39188   5.501   8.759   5.693 -0.0562 -0.0685 -0.1219
  291MOL0     C39189   5.588   8.838   5.800 -0.1217 -0.4007 -0.6584
  291MOL0     C39190   5.617   8.755   5.921 -0.7419 -0.0865 -0.3385
  291MOL0     C39191   5.723   8.658   5.884 -0.2364 -0.3553  0.1682
  291MOL0     C39192   5.745   8.549   5.991 -0.0587  0.4019  0.2772
  291MOL0     C39193   5.822   8.430   5.942 -0.2412 -0.2608  0.3207
  291MOL0    Cl39194   5.965   8.492   5.863  0.4135  0.2561  0.5424
  291MOL0     C39195   5.278   8.457   5.475  0.0800  1.1708  0.4913
  291MOL0     C39196   5.149   8.395   5.452  0.3195  0.1476  0.0054
  291MOL0     O39197   4.958   8.187   5.405 -1.0816  0.2085 -0.4866
  291MOL0     C39198   4.662   8.325   5.281 -0.9308 -0.4560 -0.2727
  291MOL0     C39199   4.533   8.298   5.252  0.1541 -0.6513  0.1293
  291MOL0     N39200   3.838   8.155   5.145  0.8211  0.2505  0.3882
  291MOL0     N39201   3.770   8.052   5.176 -0.4314 -0.3114 -0.8496
  291MOL0     C39202   2.716   7.805   5.117  1.0998  0.2872  0.1468
  291MOL0     C39203   2.575   7.828   5.131  0.2573  0.0837 -0.0351
  291MOL0     C39204   2.163   7.948   5.114 -0.2357 -0.1521 -0.9630
  291MOL0     C39205   2.154   8.080   5.152  0.4325 -0.1406  0.2049
  291MOL0     C39206   2.048   8.124   5.224  0.6939  0.3061  0.2947
  291MOL0     C39207   1.941   8.029   5.265 -0.2941  0.5554 -0.5712
  291MOL0     O39208   1.832   8.077   5.317  0.1837  0.4360 -0.8000
  291MOL0     C39209   1.778   8.200   5.262 -0.6349  0.3863  0.3121
  291MOL0     C39210   1.635   8.204   5.302  0.4496 -0.6081  0.3113
  291MOL0     C39211   1.551   8.094   5.232  0.5436 -0.6156  0.1646
  291MOL0     C39212   1.406   8.133   5.219 -0.1376 -0.8826  0.3900
  291MOL0     C39213   1.385   8.263   5.147 -0.1894 -0.1289 -0.1581
  291MOL0     C39214   1.353   8.374   5.102 -0.4192  0.8850 -1.4137
  291MOL0     C39215   1.958   7.893   5.241  0.8379 -0.2012  0.6171
  291MOL0     C39216   2.068   7.855   5.159 -0.4010  0.5798 -0.6685
  291MOL0     C39217   2.071   7.699   5.120 -0.8872 -1.0344 -0.2244
  291MOL0     H39218   2.459   7.558   4.978  1.4072 -2.4339  0.8997
  291MOL0     H39219   2.675   7.496   4.974 -2.1794 -0.7654 -0.0061
  291MOL0     H39220   3.019   7.635   4.917  1.0269  1.1944 -0.0788
  291MOL0     H39221   2.918   7.786   4.930 -0.7709  1.3259  1.9377
  291MOL0     H39222   3.165   7.810   4.992  2.3921  0.2401  1.8433
  291MOL0     H39223   3.162   7.683   5.103  0.4707  0.3225 -1.2438
  291MOL0     H39224   3.011   7.816   5.255  1.1678  0.9074  1.3642
  291MOL0     H39225   3.013   7.942   5.125 -3.5519 -1.9510 -1.3050
  291MOL0     H39226   3.252   7.972   5.166 -0.4422 -2.2511 -1.6613
  291MOL0     H39227   3.143   7.970   5.317 -2.9056 -1.0525 -0.4227
  291MOL0     H39228   3.238   7.743   5.357  1.3904 -0.6361 -0.6921
  291MOL0     H39229   3.352   7.768   5.215 -0.6846  0.6772 -1.9544
  291MOL0     H39230   3.344   7.921   5.474  2.9147  1.8104  1.3975
  291MOL0     H39231   3.455   7.797   5.444  0.7313  0.8791 -1.0659
  291MOL0     H39232   3.450   8.072   5.344 -1.4540  0.1297 -0.6570
  291MOL0     H39233   3.493   7.965   5.214 -0.5357  0.9119  0.1278
  291MOL0     H39234   3.650   7.993   5.484  2.4643  2.6462 -1.5810
  291MOL0     H39235   3.679   7.863   5.360  2.5702  0.3992 -0.0384
  291MOL0     H39236   3.727   8.221   5.450  0.3397  0.1790  0.4129
  291MOL0     H39237   3.904   8.407   5.157  0.0502  0.2905 -0.2287
  291MOL0     H39238   3.835   8.434   5.302 -1.3487  1.5336 -3.7105
  291MOL0     H39239   4.091   8.435   5.304  2.1015 -1.1358  2.8848
  291MOL0     H39240   4.025   8.309   5.411 -1.6370  2.4611 -0.2760
  291MOL0     H39241   4.157   8.267   5.141 -1.8254 -2.5400 -2.2582
  291MOL0     H39242   4.085   8.135   5.244 -0.6548  1.3395 -1.5476
  291MOL0     H39243   4.242   8.151   5.413  0.3131  0.5912  0.6284
  291MOL0     H39244   4.290   8.319   5.348 -0.2670  0.0022 -0.2073
  291MOL0     H39245   4.537   7.977   5.362  0.4252 -0.3469 -0.7568
  291MOL0     H39246   4.769   8.030   5.378  0.3775  0.2585  0.2745
  291MOL0     H39247   5.029   8.604   5.209 -0.4650  0.9446  0.2423
  291MOL0     H39248   5.263   8.705   5.246  0.8086  0.0206  1.1606
  291MOL0     H39249   5.417   8.822   5.360  1.5876 -0.3208  0.6929
  291MOL0     H39250   5.318   8.819   5.500 -0.7608 -1.3725  0.0005
  291MOL0     H39251   5.624   8.790   5.520  0.6952 -1.4349  0.0612
  291MOL0     H39252   5.528   8.934   5.556  1.7312 -0.9125 -1.6014
  291MOL0     H39253   5.396   8.775   5.721 -1.6682 -2.2884 -4.0701
  291MOL0     H39254   5.527   8.653   5.692  1.2818  0.2273  0.9051
  291MOL0     H39255   5.550   8.936   5.831 -2.5464 -1.6251  0.5242
  291MOL0     H39256   5.691   8.861   5.770  0.6204 -0.2100  1.7968
  291MOL0     H39257   5.526   8.702   5.950 -0.1781 -2.0383 -1.8962
  291MOL0     H39258   5.642   8.829   5.998  1.6945 -2.2675  1.1326
  291MOL0     H39259   5.687   8.612   5.791  0.3777 -1.3558  0.4114
  291MOL0     H39260   5.814   8.716   5.866 -0.3849 -0.0852  0.2879
  291MOL0     H39261   5.653   8.510   6.035  0.3938 -2.6266 -1.2069
  291MOL0     H39262   5.786   8.599   6.079 -4.5475  0.6836  2.4694
  291MOL0     H39263   5.854   8.355   6.015  1.2082  2.3745  2.6087
  291MOL0     H39264   5.769   8.379   5.862 -2.7027  1.4359  0.7612
  291MOL0     H39265   5.351   8.419   5.545  0.3938 -0.7101 -0.7873
  291MOL0     H39266   5.125   8.305   5.509  0.7438 -1.7819 -2.6756
  291MOL0     H39267   4.680   8.428   5.253 -1.9704 -0.3786 -0.7166
  291MOL0     H39268   4.465   8.372   5.212 -1.6701 -0.6760  2.9102
  291MOL0     H39269   2.798   7.870   5.145 -0.7068  2.6330  0.2762
  291MOL0     H39270   2.546   7.918   5.184 -2.0981 -0.9703  0.6068
  291MOL0     H39271   2.224   8.155   5.117  1.3394 -0.4824  1.2343
  291MOL0     H39272   2.049   8.231   5.240  1.9964  0.7386 -2.2747
  291MOL0     H39273   1.792   8.189   5.154 -3.1731  1.8402 -0.2640
  291MOL0     H39274   1.831   8.282   5.311  0.6004  0.6432 -1.3663
  291MOL0     H39275   1.602   8.297   5.255 -1.4785 -1.3983  0.0102
  291MOL0     H39276   1.615   8.193   5.409 -0.2499 -3.3506 -0.0096
  291MOL0     H39277   1.545   7.998   5.283  1.0006  0.4335  2.3093
  291MOL0     H39278   1.589   8.081   5.130 -0.8585 -0.6288 -0.3807
  291MOL0     H39279   1.359   8.046   5.172  0.8388 -1.8022  1.0755
  291MOL0     H39280   1.363   8.140   5.319 -0.1464  0.6592  0.2974
  291MOL0     H39281   1.316   8.467   5.065 -1.3611  1.2397  0.2842
  291MOL0     H39282   1.881   7.823   5.272  0.4866 -0.6787 -1.2570
  291MOL0     H39283   2.149   7.651   5.180  1.8333  0.0108 -2.6579
  291MOL0     H39284   1.974   7.650   5.129 -1.4206  0.0773  0.1955
  291MOL0     H39285   2.104   7.699   5.015  3.9347  2.1546  0.9482
  292MOL0     O39286   7.804   1.091   8.489 -0.6460 -0.0059 -0.2527
  292MOL0     C39287   7.822   1.170   8.397 -0.1944 -0.0914 -0.2038
  292MOL0     O39288   7.729   1.219   8.308 -0.1516 -0.2229  0.2691
  292MOL0     C39289   7.591   1.202   8.328  0.0456 -0.0323  0.2183
  292MOL0     C39290   7.504   1.311   8.310 -0.3296  0.0148  0.8656
  292MOL0     C39291   7.366   1.304   8.329 -0.8353  0.4616 -0.6804
  292MOL0     C39292   7.315   1.178   8.376 -0.4363  0.3270  1.7842
  292MOL0     O39293   7.187   1.151   8.415  0.0603 -0.1583 -0.5108
  292MOL0     C39294   7.094   1.258   8.431  0.4092 -0.6814 -0.0614
  292MOL0     C39295   6.971   1.205   8.509 -0.7367 -0.4128 -0.0866
  292MOL0     C39296   6.887   1.107   8.421  0.0464 -0.2064  0.3915
  292MOL0     C39297   6.776   1.025   8.495  0.3761  0.4025  0.5146
  292MOL0     C39298   6.680   1.111   8.577 -0.1226 -0.2283 -0.6279
  292MOL0     C39299   6.557   1.037   8.632  0.7142 -0.1540  0.1160
  292MOL0     C39300   6.598   0.925   8.723  0.5032 -0.0702 -1.0019
  292MOL0     C39301   6.491   0.906   8.831  0.3719  0.1607 -0.0619
  292MOL0     N39302   6.360   0.889   8.766  0.2312 -0.2671 -0.7042
  292MOL0     C39303   6.307   0.769   8.733  0.0381 -0.3041 -0.2181
  292MOL0     C39304   6.178   0.781   8.702  0.8537 -0.8011 -0.4407
  292MOL0     C39305   6.076   0.679   8.653  0.4306  0.3802 -0.1071
  292MOL0     C39306   6.017   0.602   8.776 -0.0441 -0.6741  0.8018
  292MOL0     C39307   5.978   0.694   8.900  0.3372 -0.8980  0.2493
  292MOL0     C39308   5.955   0.611   9.029  0.9411 -0.2292  0.0377
  292MOL0     O39309   6.046   0.652   9.133  0.0711  0.3468  0.2315
  292MOL0     C39310   6.182   0.638   9.120  0.1528 -0.3845 -0.0652
  292MOL0     C39311   6.257   0.707   9.223 -0.4190  0.6012  0.8931
  292MOL0     C39312   6.397   0.694   9.231  0.4072 -0.0216  0.7814
  292MOL0     C39313   6.464   0.611   9.134 -0.0867 -0.1842  0.6528
  292MOL0     C39314   6.609   0.593   9.134 -0.2935  0.6921  0.0658
  292MOL0     O39315   6.678   0.695   9.188  0.8840 -0.1778 -0.0436
  292MOL0     C39316   6.814   0.709   9.203  0.0881  0.1645  0.3212
  292MOL0     C39317   6.914   0.600   9.188  0.3479 -0.3361  0.0209
  292MOL0     C39318   7.048   0.629   9.201  0.4936  0.2032 -0.4692
  292MOL0     C39319   7.089   0.763   9.225 -0.1828 -0.3490  0.4522
  292MOL0     O39320   7.217   0.803   9.240 -0.1044  0.0116 -0.0749
  292MOL0     C39321   7.327   0.747   9.166  0.1632  0.3856  0.7884
  292MOL0     C39322   7.415   0.861   9.126  0.3149  0.2170  0.4731
  292MOL0     C39323   7.501   0.898   9.249 -0.3302  0.3850 -0.2073
  292MOL0     C39324   7.635   0.977   9.214 -0.4208 -0.6996  0.8830
  292MOL0     C39325   7.733   0.895   9.126  1.0424  0.2130 -0.0399
  292MOL0     C39326   7.871   0.959   9.120 -0.5090  0.2165 -0.3243
  292MOL0     C39327   7.879   1.073   9.013 -0.0362  0.4195 -0.2100
  292MOL0     C39328   8.023   1.095   8.982 -0.2957 -0.0619 -0.1572
  292MOL0    Cl39329   8.096   1.204   9.103 -0.0594  0.2597  0.3753
  292MOL0     C39330   6.994   0.858   9.232 -0.3072  0.2180  0.7363
  292MOL0     C39331   6.857   0.836   9.221 -0.6066  0.3766  0.7625
  292MOL0     O39332   6.657   0.486   9.094 -0.1766 -0.7987 -0.0111
  292MOL0     C39333   6.393   0.549   9.033  0.2953  0.9702 -0.4856
  292MOL0     C39334   6.258   0.556   9.032  0.3894  0.4706 -0.1062
  292MOL0     N39335   6.152   0.918   8.720 -0.8378  0.6366  0.4572
  292MOL0     N39336   6.257   0.986   8.750 -0.2129 -0.1718 -0.3193
  292MOL0     C39337   7.397   1.064   8.386  0.1742 -0.0703  0.5853
  292MOL0     C39338   7.538   1.076   8.362 -0.8091  0.6513 -0.1091
  292MOL0     C39339   7.955   1.233   8.392 -0.4887  0.8385  0.8980
  292MOL0     C39340   8.060   1.166   8.461 -0.1233  0.0298  0.3591
  292MOL0     C39341   8.192   1.225   8.469  0.4454  0.5165 -0.0075
  292MOL0     C39342   8.220   1.346   8.410 -0.1874 -1.2128 -0.7531
  292MOL0     O39343   8.348   1.386   8.420  0.5114  0.8868 -0.1240
  292MOL0     C39344   8.399   1.508   8.341  0.1921  0.7034  0.1587
  292MOL0     C39345   8.532   1.561   8.392 -0.0255 -0.5565  0.3591
  292MOL0     C39346   8.657   1.469   8.368  0.5460  0.1310 -0.9161
  292MOL0     C39347   8.641   1.325   8.444  0.2277 -0.3591 -0.1126
  292MOL0     C39348   8.765   1.271   8.491 -0.6222  0.1871 -0.3277
  292MOL0     C39349   8.882   1.245   8.509  1.0993  0.2389 -0.5543
  292MOL0     C39350   8.119   1.409   8.338 -0.3673 -0.3001 -0.5807
  292MOL0     C39351   7.986   1.359   8.337  0.8316 -0.8383  1.1587
  292MOL0     C39352   7.868   1.450   8.298  0.2974  0.9455 -1.0826
  292MOL0     H39353   7.535   1.409   8.275 -1.8859 -0.7161 -3.0522
  292MOL0     H39354   7.296   1.385   8.316 -1.7342 -0.0231  0.8083
  292MOL0     H39355   7.129   1.343   8.490 -2.6775 -0.1034  1.1499
  292MOL0     H39356   7.062   1.307   8.338  0.7642 -0.0860  0.1251
  292MOL0     H39357   6.912   1.296   8.524 -1.3455 -0.3769 -2.3619
  292MOL0     H39358   7.002   1.158   8.602 -1.3056 -0.8593 -0.1137
  292MOL0     H39359   6.953   1.036   8.371  2.7799  0.9876  2.0489
  292MOL0     H39360   6.831   1.168   8.350 -0.8244 -1.3347  0.0720
  292MOL0     H39361   6.713   0.976   8.421  1.1300 -2.9196  1.9095
  292MOL0     H39362   6.807   0.952   8.570 -1.5616 -1.5271 -0.4505
  292MOL0     H39363   6.736   1.159   8.658  0.8287 -1.8512 -0.2819
  292MOL0     H39364   6.654   1.199   8.517  2.4676  3.3975  3.0700
  292MOL0     H39365   6.499   1.115   8.681 -0.1818 -1.3249  0.9712
  292MOL0     H39366   6.506   1.004   8.540  2.0822  3.6903 -2.2796
  292MOL0     H39367   6.690   0.948   8.778  0.2446  0.6683 -0.8541
  292MOL0     H39368   6.620   0.831   8.672  4.5368  0.4535 -0.5439
  292MOL0     H39369   6.514   0.834   8.910 -1.5883 -0.1316  0.3066
  292MOL0     H39370   6.483   1.005   8.877  0.8525  1.4362 -2.5415
  292MOL0     H39371   6.370   0.681   8.739  4.1808  2.2183 -1.8942
  292MOL0     H39372   6.010   0.749   8.602  2.7036  1.8687 -1.1930
  292MOL0     H39373   6.107   0.602   8.581 -2.2484 -1.3417  0.4472
  292MOL0     H39374   5.936   0.542   8.734  0.6965  0.2721 -2.2897
  292MOL0     H39375   6.096   0.533   8.807  0.1854 -1.5006 -1.4134
  292MOL0     H39376   5.876   0.728   8.881 -0.0209 -2.1691 -0.1693
  292MOL0     H39377   6.047   0.774   8.930 -2.3638  1.1892  1.3436
  292MOL0     H39378   5.970   0.503   9.015 -0.6100 -0.7995  2.1119
  292MOL0     H39379   5.851   0.613   9.063  1.2012  0.7014  0.8249
  292MOL0     H39380   6.199   0.773   9.287  1.1122  2.2548  0.6410
  292MOL0     H39381   6.448   0.753   9.307 -1.2245  0.3472  1.6623
  292MOL0     H39382   6.868   0.504   9.165 -1.8999  0.2297  1.8298
  292MOL0     H39383   7.128   0.557   9.186  0.3012 -0.4347  1.3933
  292MOL0     H39384   7.373   0.668   9.225 -0.8062  0.4370  1.6372
  292MOL0     H39385   7.302   0.709   9.067  0.0684 -0.0545  0.9809
  292MOL0     H39386   7.482   0.844   9.041  0.5268 -1.6289  0.9870
  292MOL0     H39387   7.359   0.953   9.104  0.3836  0.1787  0.1274
  292MOL0     H39388   7.437   0.957   9.315 -4.9050 -3.6971 -0.4220
  292MOL0     H39389   7.519   0.806   9.305 -3.4703 -1.4028 -1.8377
  292MOL0     H39390   7.689   1.010   9.303  2.4347 -1.2242 -0.5308
  292MOL0     H39391   7.611   1.071   9.164 -3.2949 -1.8369 -0.1308
  292MOL0     H39392   7.686   0.877   9.029  2.8458  0.9013 -1.1134
  292MOL0     H39393   7.736   0.794   9.167 -2.6188  0.8972  2.3677
  292MOL0     H39394   7.904   0.990   9.220  0.1762 -2.0735  0.2255
  292MOL0     H39395   7.944   0.882   9.092 -0.1958  1.3524 -2.9375
  292MOL0     H39396   7.831   1.167   9.042 -0.7428 -0.7485  2.7984
  292MOL0     H39397   7.823   1.034   8.927 -0.0735 -4.8224  1.8242
  292MOL0     H39398   8.078   1.003   8.961 -0.7506 -0.2701 -0.4542
  292MOL0     H39399   8.028   1.147   8.885  1.3090 -0.6474 -0.4114
  292MOL0     H39400   7.010   0.963   9.257 -4.4753  2.0851 -3.1353
  292MOL0     H39401   6.788   0.916   9.246  0.7953  1.5999  0.8366
  292MOL0     H39402   6.447   0.487   8.961 -0.9014  2.5894 -2.9212
  292MOL0     H39403   6.202   0.484   8.973  0.7678 -1.2733  1.5702
  292MOL0     H39404   7.343   0.970   8.396  0.1755 -0.2626 -0.9520
  292MOL0     H39405   7.603   0.989   8.367 -2.1697 -0.3821  0.2565
  292MOL0     H39406   8.048   1.064   8.496 -0.8869  0.3959  1.2090
  292MOL0     H39407   8.271   1.180   8.528  0.4896  0.7575  0.1217
  292MOL0     H39408   8.327   1.591   8.344  0.0742  0.7233 -1.9396
  292MOL0     H39409   8.414   1.488   8.235 -3.2105  1.2811 -0.5547
  292MOL0     H39410   8.535   1.584   8.498  0.6454 -0.4711  0.3243
  292MOL0     H39411   8.540   1.655   8.336 -2.1720  0.3399  1.4437
  292MOL0     H39412   8.752   1.512   8.398 -0.1143 -0.7497  2.8839
  292MOL0     H39413   8.651   1.444   8.261  1.0290 -1.2725 -0.6308
  292MOL0     H39414   8.578   1.340   8.533 -1.7099  4.6920 -1.9618
  292MOL0     H39415   8.578   1.257   8.386  0.2403 -0.0143 -0.5403
  292MOL0     H39416   8.983   1.210   8.515  0.1190 -2.7873 -0.0942
  292MOL0     H39417   8.133   1.507   8.294  1.5996  1.0550  2.6905
  292MOL0     H39418   7.898   1.554   8.311 -0.2357  0.7951  2.2362
  292MOL0     H39419   7.843   1.428   8.194 -0.0509  0.1109 -0.8365
  292MOL0     H39420   7.776   1.440   8.355  1.3049  3.7534  1.2636
  293MOL0     O39421   1.802   5.765   3.519  0.3857 -0.2778  0.2477
  293MOL0     C39422   1.922   5.783   3.559  0.3281 -0.1344  1.1783
  293MOL0     O39423   1.968   5.902   3.616  0.5150  0.4714 -0.1503
  293MOL0     C39424   1.889   6.010   3.651 -0.4109  0.3974  0.6941
  293MOL0     C39425   1.759   5.997   3.706 -0.6002  0.0305 -0.5027
  293MOL0     C39426   1.689   6.097   3.770  0.1703  1.1411 -0.0517
  293MOL0     C39427   1.755   6.220   3.790 -0.3879  0.5277 -1.0182
  293MOL0     O39428   1.700   6.331   3.852  0.0707  0.6643 -0.4149
  293MOL0     C39429   1.579   6.317   3.905  0.0578 -0.6581 -0.4715
  293MOL0     C39430   1.551   6.455   3.978  0.8357  0.4338 -0.1456
  293MOL0     C39431   1.650   6.489   4.083 -0.6116 -0.2147 -0.1941
  293MOL0     C39432   1.784   6.557   4.027  0.0061  0.0404  0.3397
  293MOL0     C39433   1.868   6.647   4.106 -1.2491 -0.4759 -0.4107
  293MOL0     C39434   1.974   6.710   4.012  0.5293 -0.0780 -0.0272
  293MOL0     C39435   2.059   6.805   4.084  0.2325  0.0718  0.1064
  293MOL0     C39436   2.148   6.880   3.991  0.4714  0.7879 -0.4346
  293MOL0     N39437   2.192   7.001   4.055  0.0971  2.0304 -0.0631
  293MOL0     C39438   2.262   7.010   4.172 -0.1715 -0.8529  0.8933
  293MOL0     C39439   2.258   7.141   4.202  1.0808 -1.0174  0.8284
  293MOL0     C39440   2.320   7.204   4.325 -0.6162 -0.4221 -0.7667
  293MOL0     C39441   2.447   7.299   4.297  0.2252  0.5690 -0.1097
  293MOL0     C39442   2.399   7.407   4.197 -0.7504 -0.1681  0.0619
  293MOL0     C39443   2.481   7.540   4.197  0.3948 -0.1625  0.4693
  293MOL0     O39444   2.618   7.544   4.142  0.5491  1.0249  0.0235
  293MOL0     C39445   2.710   7.588   4.231 -1.0879  0.0659  0.0239
  293MOL0     C39446   2.811   7.502   4.292 -0.3011 -0.1138 -1.2735
  293MOL0     C39447   2.906   7.548   4.386  0.1442 -0.2956 -0.3879
  293MOL0     C39448   2.913   7.684   4.429 -0.1693 -0.1170 -0.3056
  293MOL0     C39449   3.007   7.729   4.533 -0.0661  0.6032 -0.2078
  293MOL0     O39450   3.031   7.857   4.533 -0.0930 -1.4672 -0.1978
  293MOL0     C39451   3.112   7.907   4.628  0.1092 -0.2114  0.3865
  293MOL0     C39452   3.050   7.962   4.738 -0.4112 -0.5893  0.3368
  293MOL0     C39453   3.126   8.025   4.833  0.3402  0.5059 -0.4652
  293MOL0     C39454   3.266   8.023   4.832  0.6548  0.1698 -0.1588
  293MOL0     O39455   3.331   8.089   4.928  0.4485  0.5583 -0.3977
  293MOL0     C39456   3.472   8.102   4.923  1.2157 -0.3125  0.3206
  293MOL0     C39457   3.526   8.207   5.016 -0.1291 -0.2457 -0.1185
  293MOL0     C39458   3.492   8.352   4.995 -0.1818 -0.9232 -0.5438
  293MOL0     C39459   3.541   8.442   5.108 -0.4280  0.3375  0.3894
  293MOL0     C39460   3.512   8.589   5.077 -0.0521 -0.2231 -0.1377
  293MOL0     C39461   3.528   8.684   5.195  0.6031 -0.5510 -0.0114
  293MOL0     C39462   3.449   8.654   5.323  0.0093 -0.0159 -0.4730
  293MOL0     C39463   3.302   8.620   5.304 -0.2976 -0.0527 -0.0192
  293MOL0    Cl39464   3.192   8.767   5.265  0.1289 -0.4317 -0.0756
  293MOL0     C39465   3.332   7.956   4.724 -0.7747 -0.1538  0.9167
  293MOL0     C39466   3.254   7.910   4.615 -0.2673 -0.4057  0.0952
  293MOL0     O39467   3.070   7.647   4.599 -0.0857 -0.2960  0.1611
  293MOL0     C39468   2.825   7.770   4.357 -0.1484  0.3587 -0.5363
  293MOL0     C39469   2.731   7.724   4.262  0.2413  0.0211 -1.5892
  293MOL0     N39470   2.174   7.203   4.101  0.0795 -0.0652 -0.9632
  293MOL0     N39471   2.137   7.113   4.014  0.4255 -0.2403  0.6370
  293MOL0     C39472   1.879   6.236   3.742 -0.8608 -1.4912  0.0082
  293MOL0     C39473   1.949   6.136   3.662 -0.0891 -0.4900  0.7290
  293MOL0     C39474   2.017   5.658   3.555 -0.8717 -0.5190  0.0818
  293MOL0     C39475   2.141   5.674   3.623  0.6538 -0.6846 -0.1137
  293MOL0     C39476   2.233   5.565   3.637  0.1007  0.1856 -0.0714
  293MOL0     C39477   2.210   5.447   3.574  0.8239 -1.1009 -0.1628
  293MOL0     O39478   2.298   5.343   3.592  0.2941 -0.3808 -0.2175
  293MOL0     C39479   2.341   5.275   3.471 -0.1387  0.1965 -0.7436
  293MOL0     C39480   2.480   5.219   3.497 -0.8522  0.3316 -0.0676
  293MOL0     C39481   2.577   5.302   3.406 -0.1211 -0.0464 -0.7615
  293MOL0     C39482   2.715   5.238   3.421  0.1404 -0.0948 -0.0846
  293MOL0     C39483   2.778   5.279   3.545  0.2365 -0.0720 -0.2404
  293MOL0     C39484   2.808   5.321   3.655 -0.9168 -1.0930 -0.2593
  293MOL0     C39485   2.085   5.432   3.503 -1.1455  0.3990  0.0519
  293MOL0     C39486   1.994   5.534   3.496  0.2223  0.1967  0.8995
  293MOL0     C39487   1.856   5.496   3.444 -0.7751  0.6658 -0.6712
  293MOL0     H39488   1.720   5.897   3.688 -2.5070  0.5484  0.5234
  293MOL0     H39489   1.597   6.070   3.822  1.3304 -2.3236  0.4292
  293MOL0     H39490   1.501   6.296   3.831  0.1330 -0.7839 -0.5151
  293MOL0     H39491   1.592   6.235   3.977  3.4157  0.0490 -0.0783
  293MOL0     H39492   1.451   6.450   4.022  1.0152 -2.7699  0.1537
  293MOL0     H39493   1.545   6.531   3.900 -1.6031  2.6602  2.0152
  293MOL0     H39494   1.674   6.405   4.149 -0.9107  0.6522  1.0569
  293MOL0     H39495   1.606   6.564   4.148  1.4446  1.2622 -0.4072
  293MOL0     H39496   1.847   6.480   3.982  0.9043  0.9304  0.0405
  293MOL0     H39497   1.752   6.604   3.934  1.4493 -1.2022 -0.8289
  293MOL0     H39498   1.809   6.722   4.159  0.2388  1.4366 -1.3356
  293MOL0     H39499   1.924   6.594   4.184  2.0125  1.2864 -1.3889
  293MOL0     H39500   2.040   6.638   3.962  2.4057  2.2159 -1.0707
  293MOL0     H39501   1.913   6.766   3.940 -0.2455  0.7855  1.2714
  293MOL0     H39502   2.109   6.749   4.164 -1.8236 -0.4571  1.0925
  293MOL0     H39503   1.989   6.877   4.126  1.0332  1.1318 -0.3371
  293MOL0     H39504   2.233   6.812   3.977 -1.2149 -1.3386 -0.9564
  293MOL0     H39505   2.095   6.901   3.898  0.9411 -1.6130 -1.3150
  293MOL0     H39506   2.314   6.934   4.230 -2.2014  0.7777  5.3597
  293MOL0     H39507   2.245   7.252   4.389 -1.0349  0.2553 -1.7458
  293MOL0     H39508   2.361   7.119   4.380 -0.1740  0.1335 -0.2178
  293MOL0     H39509   2.473   7.340   4.395  1.3933 -0.8955  0.2251
  293MOL0     H39510   2.532   7.245   4.254  0.8497 -0.6114  2.3875
  293MOL0     H39511   2.306   7.438   4.246 -0.0731  0.4907  0.9585
  293MOL0     H39512   2.391   7.370   4.094  1.6785  0.9524 -0.6086
  293MOL0     H39513   2.485   7.579   4.299  1.3112  0.9213  0.0476
  293MOL0     H39514   2.423   7.616   4.143  0.4605 -1.5289 -1.6646
  293MOL0     H39515   2.816   7.399   4.258  3.1093 -0.2858 -0.6311
  293MOL0     H39516   2.976   7.473   4.421  3.3314  2.4451 -0.4494
  293MOL0     H39517   2.943   7.973   4.748 -0.6323 -1.1404 -1.1330
  293MOL0     H39518   3.081   8.090   4.907  2.3902  2.1343 -0.5571
  293MOL0     H39519   3.525   8.012   4.957  0.9541  0.3808  2.7248
  293MOL0     H39520   3.487   8.146   4.824 -1.1389 -0.5525 -0.1869
  293MOL0     H39521   3.491   8.182   5.116  0.5920  0.6347  0.3634
  293MOL0     H39522   3.635   8.210   5.020 -0.1489  2.9862  3.0125
  293MOL0     H39523   3.536   8.381   4.899 -0.1197 -0.1685 -0.2874
  293MOL0     H39524   3.383   8.364   4.987  0.1349  2.9676 -0.8785
  293MOL0     H39525   3.648   8.418   5.112 -1.0949 -3.8121 -1.4167
  293MOL0     H39526   3.498   8.407   5.203  2.4476  0.6985  1.9472
  293MOL0     H39527   3.413   8.592   5.032 -0.6519 -0.1788  1.1284
  293MOL0     H39528   3.576   8.628   4.998 -0.8273 -1.8813 -1.6395
  293MOL0     H39529   3.633   8.697   5.222  0.6229  1.8844 -0.9947
  293MOL0     H39530   3.483   8.779   5.165  1.3554 -1.0949 -3.1900
  293MOL0     H39531   3.440   8.750   5.375 -1.0486 -0.5994  0.4817
  293MOL0     H39532   3.502   8.584   5.389  2.6922  1.3018 -1.1180
  293MOL0     H39533   3.284   8.543   5.229 -0.7978  0.1961 -0.1591
  293MOL0     H39534   3.265   8.568   5.393  0.6976  0.3812  0.6758
  293MOL0     H39535   3.439   7.945   4.711 -0.9183  0.3668 -0.9349
  293MOL0     H39536   3.292   7.871   4.521 -1.3161 -0.9498 -0.1219
  293MOL0     H39537   2.830   7.878   4.367 -3.2142  0.5421 -0.1985
  293MOL0     H39538   2.661   7.792   4.214  0.1833  0.5934 -0.7089
  293MOL0     H39539   1.925   6.318   3.796 -0.5825 -1.7339  0.1441
  293MOL0     H39540   2.048   6.148   3.618  1.1269 -0.9960  3.1237
  293MOL0     H39541   2.167   5.769   3.669  1.0280 -0.3580 -0.9885
  293MOL0     H39542   2.327   5.584   3.687  0.9748 -3.1760 -0.1750
  293MOL0     H39543   2.352   5.353   3.395  1.3750  0.1831 -0.5721
  293MOL0     H39544   2.277   5.190   3.448 -0.2050  0.2438 -0.7340
  293MOL0     H39545   2.474   5.113   3.469 -2.9252 -0.1684  1.9363
  293MOL0     H39546   2.518   5.230   3.599  0.4704  1.1573 -0.6234
  293MOL0     H39547   2.588   5.404   3.442 -0.9198  0.8169 -2.8286
  293MOL0     H39548   2.557   5.320   3.300 -4.0386 -0.0671 -0.1462
  293MOL0     H39549   2.707   5.129   3.411 -1.9627  0.1083 -1.1909
  293MOL0     H39550   2.776   5.281   3.341  0.8047 -0.9251 -0.0461
  293MOL0     H39551   2.830   5.368   3.749  0.3868  2.1774 -2.0359
  293MOL0     H39552   2.061   5.335   3.463  1.8007 -0.7853  0.9276
  293MOL0     H39553   1.834   5.510   3.338  0.0297  3.0467 -0.5801
  293MOL0     H39554   1.850   5.386   3.439 -0.1684  0.6105 -0.3796
  293MOL0     H39555   1.776   5.525   3.512  0.1957 -0.0722  0.8500
  294MOL0     O39556   3.064   4.163   6.276 -0.5862  0.0134  0.7714
  294MOL0     C39557   3.084   4.159   6.388  0.2801 -0.7692 -1.0802
  294MOL0     O39558   3.002   4.106   6.488  0.9660  0.3686 -0.2195
  294MOL0     C39559   2.876   4.059   6.447  0.6867 -0.4374 -0.0397
  294MOL0     C39560   2.828   3.940   6.502  0.0046  0.3434  0.0414
  294MOL0     C39561   2.699   3.897   6.458  1.3807 -0.6782 -0.1924
  294MOL0     C39562   2.634   3.954   6.347  0.5791 -0.4967  0.2286
  294MOL0     O39563   2.518   3.899   6.310  0.4231 -0.1400  0.6332
  294MOL0     C39564   2.398   3.955   6.371  0.9279  0.3293  0.1064
  294MOL0     C39565   2.273   3.852   6.366 -0.4697  0.1081  0.4872
  294MOL0     C39566   2.312   3.721   6.449  0.7806  0.4887  1.3128
  294MOL0     C39567   2.198   3.625   6.455  0.3210 -0.6549  0.2527
  294MOL0     C39568   2.219   3.527   6.574 -0.8371 -0.5549  0.1313
  294MOL0     C39569   2.120   3.410   6.582 -0.3554  0.2819 -0.9355
  294MOL0     C39570   2.143   3.327   6.713 -1.5354 -0.6096  0.3014
  294MOL0     C39571   2.021   3.232   6.751 -0.3181 -0.7846  0.4943
  294MOL0     N39572   1.903   3.294   6.811 -0.4210  0.6254 -0.5302
  294MOL0     C39573   1.904   3.408   6.899 -0.1438  0.3963 -0.3191
  294MOL0     C39574   1.776   3.444   6.915 -0.1670 -0.5176  0.2616
  294MOL0     C39575   1.739   3.569   6.979  0.5414 -0.7508  0.2115
  294MOL0     C39576   1.617   3.555   7.075  0.1840 -0.4856 -0.8139
  294MOL0     C39577   1.481   3.558   7.004 -0.2721  1.0406 -0.7821
  294MOL0     C39578   1.437   3.709   6.977 -0.5161 -0.0300  0.2570
  294MOL0     O39579   1.296   3.702   6.945 -0.4540  0.3030 -0.2061
  294MOL0     C39580   1.232   3.821   6.971 -0.5093 -0.3266 -0.6997
  294MOL0     C39581   1.096   3.811   7.007 -0.3558 -0.2934  0.4630
  294MOL0     C39582   1.016   3.926   7.020  0.0997 -0.5252  0.1597
  294MOL0     C39583   1.072   4.053   6.992 -0.1213  0.4701 -0.0585
  294MOL0     C39584   0.995   4.180   6.995 -0.3273  0.9094  0.1301
  294MOL0     O39585   0.860   4.162   7.026  0.6306  0.1910 -0.0218
  294MOL0     C39586   0.769   4.262   7.008  0.2295  0.0968 -1.2052
  294MOL0     C39587   0.746   4.356   7.107 -2.2000  0.3765  1.1979
  294MOL0     C39588   0.650   4.457   7.092 -0.2486 -0.2740  0.5580
  294MOL0     C39589   0.594   4.474   6.968 -0.1191 -0.1020 -0.2416
  294MOL0     O39590   0.505   4.574   6.928  0.2396  0.3056 -0.1561
  294MOL0     C39591   0.560   4.706   6.930  1.0668  1.0308  0.0100
  294MOL0     C39592   0.488   4.797   6.836 -0.5289 -0.1464  0.4199
  294MOL0     C39593   0.472   4.766   6.684  0.8701  0.6917 -0.1429
  294MOL0     C39594   0.464   4.888   6.597  0.7497  1.0473  0.0818
  294MOL0     C39595   0.354   4.986   6.617  0.3337 -0.1140 -0.0117
  294MOL0     C39596   0.361   5.108   6.532 -0.4163 -1.6380  0.8306
  294MOL0     C39597   0.243   5.207   6.564 -0.0782 -0.0673  0.7152
  294MOL0     C39598   0.273   5.347   6.498 -0.7420  0.4025 -0.6722
  294MOL0    Cl39599   0.173   5.467   6.573  0.1362  0.2374 -0.4737
  294MOL0     C39600   0.609   4.373   6.868 -0.3589  0.0797 -0.7180
  294MOL0     C39601   0.696   4.269   6.891  0.2952 -0.3405  0.0095
  294MOL0     O39602   1.054   4.284   7.004 -1.0062 -0.3733  0.2932
  294MOL0     C39603   1.210   4.066   6.959 -0.7049 -0.8323 -0.3938
  294MOL0     C39604   1.287   3.947   6.948  0.5266  0.2703 -0.7596
  294MOL0     N39605   1.706   3.361   6.834  0.9379 -0.2397  0.3603
  294MOL0     N39606   1.775   3.276   6.764  0.0289 -0.6418 -0.0657
  294MOL0     C39607   2.671   4.084   6.319 -0.0079  0.7988  0.3670
  294MOL0     C39608   2.792   4.138   6.367 -0.1221 -0.9512 -1.3701
  294MOL0     C39609   3.197   4.230   6.441 -0.9914 -0.1430 -0.7715
  294MOL0     C39610   3.188   4.287   6.568 -0.2977  0.1137 -0.3609
  294MOL0     C39611   3.293   4.368   6.611  0.1310  0.5574 -0.3955
  294MOL0     C39612   3.413   4.377   6.543 -0.4813  1.2055  0.4354
  294MOL0     O39613   3.526   4.431   6.594 -0.3516  0.1957  0.1374
  294MOL0     C39614   3.508   4.542   6.681  0.4555  1.1122  0.0368
  294MOL0     C39615   3.637   4.633   6.679  0.0155 -0.0742 -0.2264
  294MOL0     C39616   3.757   4.542   6.721  0.1593 -0.2069 -0.2043
  294MOL0     C39617   3.882   4.635   6.745  0.3811 -0.0321  0.5893
  294MOL0     C39618   3.935   4.668   6.613 -0.0617  0.8968 -0.0978
  294MOL0     C39619   3.992   4.694   6.510 -0.1987 -0.4427  0.3482
  294MOL0     C39620   3.426   4.315   6.416 -1.3465  0.6964  0.3974
  294MOL0     C39621   3.322   4.240   6.363 -0.0793 -0.0511  0.0820
  294MOL0     C39622   3.346   4.165   6.235  0.7931  0.0647 -0.1205
  294MOL0     H39623   2.887   3.890   6.578 -0.7420  1.8413  1.6738
  294MOL0     H39624   2.637   3.817   6.498  0.6835 -0.0182  0.0674
  294MOL0     H39625   2.407   3.971   6.479  1.1637 -1.8236  0.4497
  294MOL0     H39626   2.365   4.046   6.320 -1.0585 -0.7650 -0.6553
  294MOL0     H39627   2.257   3.834   6.259  2.2398  0.2796 -0.0228
  294MOL0     H39628   2.191   3.905   6.415 -0.7228 -0.6799  0.9306
  294MOL0     H39629   2.332   3.737   6.555  0.4661 -1.5506  1.7111
  294MOL0     H39630   2.394   3.667   6.400  0.0762  2.4356 -2.4000
  294MOL0     H39631   2.104   3.677   6.474  0.3493 -0.1977 -0.8143
  294MOL0     H39632   2.193   3.565   6.363 -0.1407  0.9068 -0.7922
  294MOL0     H39633   2.322   3.493   6.563  0.1445  2.9094 -4.1551
  294MOL0     H39634   2.219   3.581   6.669  0.7695  0.4868 -0.4235
  294MOL0     H39635   2.017   3.445   6.590  0.2239  1.6542  1.4990
  294MOL0     H39636   2.114   3.355   6.488 -2.5103  0.8833 -1.1944
  294MOL0     H39637   2.153   3.387   6.804  1.3923 -1.6193  0.7568
  294MOL0     H39638   2.230   3.261   6.713 -1.5867 -0.6881  0.9691
  294MOL0     H39639   1.994   3.175   6.662  0.5117  1.4382 -1.2769
  294MOL0     H39640   2.051   3.146   6.812  1.4888 -1.8812 -1.7967
  294MOL0     H39641   1.985   3.464   6.946 -1.9148  1.3438  1.7714
  294MOL0     H39642   1.818   3.633   7.020 -0.4721  1.5180 -1.1802
  294MOL0     H39643   1.707   3.633   6.896 -0.7529 -0.2679  1.0683
  294MOL0     H39644   1.625   3.462   7.132  2.7759  0.9535  1.4641
  294MOL0     H39645   1.623   3.645   7.138 -2.9174 -0.7400  0.0105
  294MOL0     H39646   1.410   3.505   7.067  2.0648 -1.7004 -0.2021
  294MOL0     H39647   1.490   3.495   6.915 -0.0921  0.5675 -0.4324
  294MOL0     H39648   1.499   3.761   6.903 -3.0215  1.4220 -0.9376
  294MOL0     H39649   1.445   3.766   7.071 -3.9545  2.0078 -0.5164
  294MOL0     H39650   1.053   3.712   7.013  0.1241 -0.7202 -2.2464
  294MOL0     H39651   0.915   3.913   7.059  0.5144 -1.2145  1.0330
  294MOL0     H39652   0.795   4.335   7.202  1.7996  0.5600 -0.6101
  294MOL0     H39653   0.634   4.533   7.168 -1.8019  1.6696 -1.5803
  294MOL0     H39654   0.551   4.742   7.033  0.4405 -0.2509  0.4224
  294MOL0     H39655   0.664   4.703   6.896 -0.0332  2.1704 -4.0663
  294MOL0     H39656   0.388   4.800   6.880  0.4763 -0.7070  2.8514
  294MOL0     H39657   0.523   4.901   6.827  1.1453 -0.8698 -3.5426
  294MOL0     H39658   0.554   4.704   6.647 -0.7370 -2.5354  1.3758
  294MOL0     H39659   0.381   4.707   6.669  1.3443 -0.2369  0.5814
  294MOL0     H39660   0.437   4.865   6.494  0.8663 -0.1294  0.3076
  294MOL0     H39661   0.565   4.930   6.593  1.0814  0.1705 -0.8796
  294MOL0     H39662   0.356   5.026   6.719 -1.6504 -0.0539  0.0498
  294MOL0     H39663   0.257   4.936   6.603  1.1116 -0.8514 -4.2500
  294MOL0     H39664   0.459   5.153   6.553  0.1333 -3.0181  1.2970
  294MOL0     H39665   0.340   5.090   6.426 -1.4723 -2.2386  1.1359
  294MOL0     H39666   0.223   5.226   6.669 -1.7361 -0.2116  0.4475
  294MOL0     H39667   0.151   5.179   6.513 -0.0262  4.1022 -2.1968
  294MOL0     H39668   0.374   5.378   6.526  0.5449 -2.7302 -1.4785
  294MOL0     H39669   0.275   5.340   6.389  0.2714  1.9946 -0.7971
  294MOL0     H39670   0.553   4.392   6.777  0.0220 -2.1022 -1.4716
  294MOL0     H39671   0.706   4.204   6.804 -2.7880  1.9128 -2.2695
  294MOL0     H39672   1.250   4.163   6.932 -0.0085 -1.2020 -0.7263
  294MOL0     H39673   1.388   3.953   6.907  0.9943  0.4117  0.3568
  294MOL0     H39674   2.620   4.142   6.243 -2.2123  0.0608  1.2221
  294MOL0     H39675   2.818   4.240   6.341 -1.2254 -0.2599  0.0698
  294MOL0     H39676   3.088   4.295   6.611 -0.6748 -0.4348 -1.1143
  294MOL0     H39677   3.267   4.432   6.695 -2.7871 -0.6192 -0.2783
  294MOL0     H39678   3.478   4.530   6.785  1.0722  2.4079  0.3917
  294MOL0     H39679   3.435   4.609   6.634 -1.2556 -0.9691 -0.3882
  294MOL0     H39680   3.630   4.715   6.751  0.7423 -1.0354  0.9744
  294MOL0     H39681   3.648   4.670   6.577  2.0282  2.0683  0.6673
  294MOL0     H39682   3.771   4.470   6.640 -2.9217 -0.7018 -0.3845
  294MOL0     H39683   3.720   4.479   6.802  1.6966  0.5049  1.1316
  294MOL0     H39684   3.856   4.723   6.803 -1.9354  0.4761 -1.0576
  294MOL0     H39685   3.954   4.573   6.800 -1.5561 -1.1233  1.9888
  294MOL0     H39686   4.043   4.713   6.418  1.2809  1.4198  1.4746
  294MOL0     H39687   3.523   4.324   6.368  0.2323  1.1209  3.4569
  294MOL0     H39688   3.324   4.060   6.256  2.8664 -0.2103  1.0594
  294MOL0     H39689   3.276   4.189   6.156 -0.9761  1.1401  1.6772
  294MOL0     H39690   3.450   4.164   6.202  0.5393  0.4923 -0.9478
  295MOL0     O39691   3.414   6.012  10.061  0.3994  0.3862  0.1178
  295MOL0     C39692   3.490   6.032  10.154 -0.1320  0.2329 -0.7922
  295MOL0     O39693   3.454   6.056  10.288 -0.5378  0.5335  0.2493
  295MOL0     C39694   3.330   6.053  10.352  0.2640 -0.6151  1.3747
  295MOL0     C39695   3.327   6.026  10.489 -0.3244 -0.1481  0.3533
  295MOL0     C39696   3.203   6.018  10.552 -0.2170 -1.1763 -0.3064
  295MOL0     C39697   3.074   6.027  10.484 -0.7442  0.3180 -0.4700
  295MOL0     O39698   2.950   6.022  10.541  0.1301  0.4397  0.4690
  295MOL0     C39699   2.944   5.944  10.660  0.2722 -0.8039  0.4001
  295MOL0     C39700   2.793   5.900  10.676 -0.5933 -0.6466 -0.0513
  295MOL0     C39701   2.769   5.839  10.820 -0.1193 -0.0792 -0.3051
  295MOL0     C39702   2.634   5.776  10.830 -0.3967  0.3089 -0.5292
  295MOL0     C39703   2.597   5.741  10.974 -0.1453  0.0832  0.2719
  295MOL0     C39704   2.490   5.620  10.974 -0.2057 -0.5784  0.2348
  295MOL0     C39705   2.377   5.651  10.869 -0.0196 -1.0491 -0.1687
  295MOL0     C39706   2.265   5.549  10.895  1.0452  0.4473  0.0796
  295MOL0     N39707   2.178   5.524  10.780  0.0735  0.4244 -0.2109
  295MOL0     C39708   2.097   5.620  10.715 -0.7716  0.8950 -0.6506
  295MOL0     C39709   2.013   5.550  10.642  0.2047  0.4708  0.4054
  295MOL0     C39710   1.920   5.616  10.541  0.7422  0.4794 -0.2073
  295MOL0     C39711   1.786   5.540  10.527  1.1835  0.0989  0.0805
  295MOL0     C39712   1.697   5.625  10.436 -0.0772 -0.5310 -0.1942
  295MOL0     C39713   1.573   5.537  10.391 -0.4070 -0.0142  0.1622
  295MOL0     O39714   1.467   5.614  10.349 -0.1222  0.0162  1.1743
  295MOL0     C39715   1.367   5.626  10.439 -0.7951  0.5394 -0.1807
  295MOL0     C39716   1.373   5.602  10.573 -0.2250 -0.2818  0.7046
  295MOL0     C39717   1.257   5.589  10.645  0.4675  0.3799 -0.5923
  295MOL0     C39718   1.130   5.639  10.593 -0.8808 -0.0146 -0.0482
  295MOL0     C39719   1.018   5.674  10.677  0.3929  0.2668  1.2381
  295MOL0     O39720   0.910   5.738  10.621  1.0218  0.1907 -0.1577
  295MOL0     C39721   0.781   5.749  10.680  0.2622  0.4707 -0.0272
  295MOL0     C39722   0.721   5.868  10.649  0.9201 -0.0548 -0.0617
  295MOL0     C39723   0.597   5.888  10.711  0.3506  0.2467 -0.1085
  295MOL0     C39724   0.539   5.797  10.799 -0.0722 -1.1506 -0.5468
  295MOL0     O39725   0.407   5.838  10.841  0.0762  0.3653 -0.1189
  295MOL0     C39726   0.315   5.729  10.812  0.4561  0.2639  0.6672
  295MOL0     C39727   0.168   5.776  10.834  0.0424  0.2492  0.2334
  295MOL0     C39728   0.140   5.841  10.967 -0.1290  0.0102  0.5340
  295MOL0     C39729  -0.006   5.819  11.004  0.2592  0.1220 -0.3769
  295MOL0     C39730  -0.040   5.785  11.159 -1.0652 -0.4647  0.7057
  295MOL0     C39731  -0.042   5.899  11.270  0.1268 -0.8411  0.3599
  295MOL0     C39732  -0.141   5.878  11.378  0.7880 -0.3655  0.1989
  295MOL0     C39733  -0.284   5.918  11.334  0.1593  0.0147 -0.5676
  295MOL0    Cl39734  -0.394   5.902  11.468  0.1948  0.0698 -0.4113
  295MOL0     C39735   0.602   5.674  10.831  1.2254 -0.2716 -0.6132
  295MOL0     C39736   0.717   5.649  10.764 -0.2781 -1.0205 -0.1542
  295MOL0     O39737   1.019   5.632  10.796  0.3079 -0.2207  0.5444
  295MOL0     C39738   1.125   5.666  10.456 -0.9999 -0.2928  1.0050
  295MOL0     C39739   1.245   5.649  10.378 -0.3675 -0.6812  0.0248
  295MOL0     N39740   2.045   5.414  10.654 -0.2254 -0.1692  0.4745
  295MOL0     N39741   2.139   5.400  10.749 -0.7298 -0.5572  0.1122
  295MOL0     C39742   3.079   6.063  10.354 -0.2333 -0.8716 -0.5674
  295MOL0     C39743   3.204   6.067  10.285  0.2785 -0.7283  0.1663
  295MOL0     C39744   3.641   6.031  10.132  0.6117  0.6021 -1.0248
  295MOL0     C39745   3.689   6.042  10.003  0.0951  0.5754  0.3213
  295MOL0     C39746   3.823   6.053   9.970 -0.1990  0.7101  0.5384
  295MOL0     C39747   3.919   6.043  10.070  0.3050 -0.3133 -0.4171
  295MOL0     O39748   4.055   6.045  10.061  0.2307 -0.0038  0.4149
  295MOL0     C39749   4.102   6.031   9.925 -0.6355  0.1809  0.1484
  295MOL0     C39750   4.250   6.026   9.917  0.2657 -0.2779  0.6712
  295MOL0     C39751   4.289   5.890   9.845 -0.0953 -0.1108 -0.1057
  295MOL0     C39752   4.438   5.870   9.831 -0.2117  0.2508  0.0961
  295MOL0     C39753   4.493   5.982   9.759  0.2856 -0.5826  0.2263
  295MOL0     C39754   4.555   6.078   9.724  0.3847 -0.0977  0.6324
  295MOL0     C39755   3.878   6.006  10.200 -0.3472 -0.5581  0.6535
  295MOL0     C39756   3.742   6.009  10.229  0.5813 -0.3431  0.1667
  295MOL0     C39757   3.714   5.983  10.378  0.0913  0.3228  0.4573
  295MOL0     H39758   3.420   6.008  10.541  0.2870 -1.6021 -1.1550
  295MOL0     H39759   3.204   5.992  10.658 -1.5360 -1.0657 -0.2427
  295MOL0     H39760   3.013   5.860  10.652 -0.2231 -1.1607 -0.1228
  295MOL0     H39761   2.977   6.008  10.743 -0.0703 -1.3135  0.9371
  295MOL0     H39762   2.767   5.824  10.602 -1.9423  0.4535 -0.7450
  295MOL0     H39763   2.721   5.979  10.655  0.8546 -0.1506 -3.8353
  295MOL0     H39764   2.781   5.916  10.897 -1.7393 -0.1682  0.0637
  295MOL0     H39765   2.845   5.760  10.831 -1.2625 -1.4624 -1.7955
  295MOL0     H39766   2.567   5.860  10.810 -0.5464  0.0816 -0.9990
  295MOL0     H39767   2.617   5.699  10.755 -1.6445  0.2807 -0.2380
  295MOL0     H39768   2.680   5.702  11.033 -1.4000 -0.2611  1.8727
  295MOL0     H39769   2.548   5.825  11.023 -2.9519 -0.5543 -1.1985
  295MOL0     H39770   2.539   5.522  10.967  1.3874 -0.5248  5.8496
  295MOL0     H39771   2.441   5.628  11.071 -1.1699  1.1844 -0.3478
  295MOL0     H39772   2.405   5.632  10.765  1.1388  0.6054 -0.2045
  295MOL0     H39773   2.352   5.757  10.873 -0.1090 -1.0777  0.0213
  295MOL0     H39774   2.307   5.451  10.921  2.2964  1.0563  0.4119
  295MOL0     H39775   2.203   5.588  10.976 -0.5664  1.2120 -1.4650
  295MOL0     H39776   2.097   5.727  10.729 -1.5087  0.8056  0.0884
  295MOL0     H39777   1.898   5.719  10.572  1.2161  0.3845  0.4725
  295MOL0     H39778   1.974   5.612  10.446 -0.7327 -1.3693 -1.0353
  295MOL0     H39779   1.806   5.439  10.491  1.1238  0.8131 -2.0923
  295MOL0     H39780   1.736   5.541  10.625 -0.0234  1.0387 -0.5145
  295MOL0     H39781   1.754   5.664  10.350  1.2908 -1.2027  0.3677
  295MOL0     H39782   1.654   5.702  10.500 -0.1509  0.3769 -1.3007
  295MOL0     H39783   1.543   5.454  10.455 -1.6235  0.7835  0.6555
  295MOL0     H39784   1.599   5.479  10.302  0.0190  0.2315  0.1228
  295MOL0     H39785   1.468   5.569  10.615  1.1679  0.8906 -1.3412
  295MOL0     H39786   1.251   5.558  10.749 -2.0293  0.0897 -0.7637
  295MOL0     H39787   0.770   5.946  10.592  1.4583  1.2711  2.0974
  295MOL0     H39788   0.544   5.979  10.685 -0.1452 -0.2455 -0.8729
  295MOL0     H39789   0.332   5.703  10.708  0.3447  0.2976  0.6400
  295MOL0     H39790   0.329   5.646  10.883  1.0075 -1.1468 -1.0083
  295MOL0     H39791   0.151   5.851  10.756 -1.8044 -0.3998 -0.0313
  295MOL0     H39792   0.105   5.690  10.810 -0.0735 -0.3642  2.5055
  295MOL0     H39793   0.205   5.793  11.039  1.0032  1.4220  0.4993
  295MOL0     H39794   0.171   5.946  10.960  0.3686 -0.2262 -1.8484
  295MOL0     H39795  -0.054   5.739  10.947  2.5534 -1.0855 -0.7296
  295MOL0     H39796  -0.049   5.913  10.969 -0.8864 -0.2441  0.0049
  295MOL0     H39797   0.035   5.709  11.184  0.6715  1.0734  0.3225
  295MOL0     H39798  -0.140   5.740  11.160 -1.1827 -0.2906 -0.8482
  295MOL0     H39799   0.063   5.911  11.298  1.4837 -2.2529 -3.4948
  295MOL0     H39800  -0.074   5.984  11.209 -1.6333  0.8515  3.4037
  295MOL0     H39801  -0.112   5.933  11.468  0.6261 -1.3264  0.8638
  295MOL0     H39802  -0.157   5.772  11.400 -3.9884  0.1610  0.3804
  295MOL0     H39803  -0.276   6.015  11.285  1.8985 -0.0369 -0.4446
  295MOL0     H39804  -0.311   5.845  11.257 -1.0959 -0.9657  0.7533
  295MOL0     H39805   0.532   5.613  10.887 -0.6788  3.1754  1.1438
  295MOL0     H39806   0.774   5.557  10.767  0.4091 -0.5857  0.6055
  295MOL0     H39807   1.035   5.693  10.403 -0.2487 -1.1513 -0.7870
  295MOL0     H39808   1.256   5.678  10.274 -0.3971  2.6204  0.8182
  295MOL0     H39809   2.991   6.066  10.291  0.5134 -3.1159 -1.8455
  295MOL0     H39810   3.209   6.079  10.177  0.6207 -1.2446  0.1193
  295MOL0     H39811   3.611   6.048   9.928 -0.7675 -1.5872  0.9791
  295MOL0     H39812   3.856   6.065   9.867 -0.3410  1.3395  0.5607
  295MOL0     H39813   4.070   6.113   9.860  2.0559 -0.3003 -1.9757
  295MOL0     H39814   4.063   5.940   9.879  0.6497 -0.6426  0.6392
  295MOL0     H39815   4.289   6.053  10.015 -1.7941  0.6481  1.2870
  295MOL0     H39816   4.282   6.111   9.856 -0.0355 -1.9853 -2.0237
  295MOL0     H39817   4.252   5.887   9.742 -2.0407  0.9818  0.4979
  295MOL0     H39818   4.234   5.808   9.892 -1.6215  1.7821  1.6398
  295MOL0     H39819   4.485   5.864   9.929 -2.4733  2.0628  1.3984
  295MOL0     H39820   4.445   5.780   9.770  0.4361  0.1058  0.3839
  295MOL0     H39821   4.582   6.177   9.693  1.1752 -0.1001  1.2954
  295MOL0     H39822   3.956   5.999  10.275  2.2929 -0.4854 -1.9439
  295MOL0     H39823   3.669   6.072  10.423 -1.3091  0.0587 -0.3516
  295MOL0     H39824   3.641   5.904  10.394  0.4620 -0.1738 -0.2479
  295MOL0     H39825   3.801   5.958  10.439 -0.0264  0.7790  0.8248
  296MOL0     O39826   3.451  10.310   1.033  0.4314 -0.0365  0.3260
  296MOL0     C39827   3.451  10.205   1.095 -0.0870  0.9486 -0.3896
  296MOL0     O39828   3.335  10.145   1.144  0.1846 -0.0606  0.0179
  296MOL0     C39829   3.214  10.184   1.107 -0.6636 -0.0858 -0.4516
  296MOL0     C39830   3.125  10.164   1.208  0.3710  0.1206  0.0311
  296MOL0     C39831   2.990  10.191   1.189 -0.3035 -0.0770  0.0494
  296MOL0     C39832   2.938  10.231   1.068  0.6635 -0.6264  0.3528
  296MOL0     O39833   2.806  10.242   1.049 -0.3222 -0.0981  0.5665
  296MOL0     C39834   2.749  10.256   0.913 -0.0017 -0.1423 -0.1284
  296MOL0     C39835   2.599  10.262   0.918 -0.0511  0.7163  0.1946
  296MOL0     C39836   2.535  10.321   0.786 -0.4679  0.4620 -0.0062
  296MOL0     C39837   2.566  10.237   0.659 -0.0126  1.3467  0.4925
  296MOL0     C39838   2.518  10.293   0.530  1.0295  0.0143 -0.5980
  296MOL0     C39839   2.533  10.197   0.406  0.0079 -0.0006 -1.8060
  296MOL0     C39840   2.547  10.294   0.276 -0.8206 -0.2526 -0.9614
  296MOL0     C39841   2.417  10.368   0.241  0.1116  0.4151  0.0229
  296MOL0     N39842   2.293  10.287   0.243 -0.4294  0.0232 -0.2544
  296MOL0     C39843   2.258  10.175   0.171  0.2953  0.1944  0.9225
  296MOL0     C39844   2.132  10.147   0.218 -0.3898 -0.9787 -0.3355
  296MOL0     C39845   2.050  10.035   0.173  0.8392 -0.1321 -0.9712
  296MOL0     C39846   1.946  10.051   0.056 -0.8987 -0.0434 -1.6540
  296MOL0     C39847   2.011  10.077  -0.081 -0.0055  0.2811  0.6805
  296MOL0     C39848   1.907  10.076  -0.195  0.7569  0.0607  0.5473
  296MOL0     O39849   1.875  10.210  -0.223  0.7043  0.1037  0.4323
  296MOL0     C39850   1.965  10.286  -0.300  0.4680  0.3788 -0.2676
  296MOL0     C39851   1.948  10.421  -0.298 -1.2714 -0.2562  0.5454
  296MOL0     C39852   2.014  10.507  -0.391 -0.7456  0.0378 -0.2370
  296MOL0     C39853   2.124  10.462  -0.471  0.3380  0.0606 -0.5053
  296MOL0     C39854   2.199  10.553  -0.557 -0.6285  0.0906  0.3634
  296MOL0     O39855   2.283  10.492  -0.643 -0.1408  0.4761  0.0430
  296MOL0     C39856   2.375  10.561  -0.720  0.6655  0.8547  0.8309
  296MOL0     C39857   2.465  10.657  -0.669  0.3818 -1.0495  0.1141
  296MOL0     C39858   2.567  10.714  -0.755 -0.6680 -0.9586 -0.0249
  296MOL0     C39859   2.596  10.665  -0.883 -0.6323 -0.1908 -0.2894
  296MOL0     O39860   2.696  10.721  -0.961 -0.4292 -0.7880  0.6771
  296MOL0     C39861   2.667  10.755  -1.098  0.4029  0.2490  0.0191
  296MOL0     C39862   2.798  10.822  -1.157 -0.1333  0.3033  0.3800
  296MOL0     C39863   2.865  10.937  -1.093  0.1507 -0.3041 -0.4881
  296MOL0     C39864   3.002  10.967  -1.160  1.5089 -1.2683 -1.0531
  296MOL0     C39865   3.071  11.103  -1.113  0.5061  0.4684  0.2435
  296MOL0     C39866   2.974  11.220  -1.143  0.3355 -0.0450 -0.7685
  296MOL0     C39867   2.883  11.254  -1.030  0.1726 -0.3960  0.0376
  296MOL0     C39868   2.908  11.397  -0.973  0.7252 -0.2426  0.2465
  296MOL0    Cl39869   2.859  11.515  -1.095 -0.2735 -0.2854  0.3473
  296MOL0     C39870   2.515  10.556  -0.929 -1.1227 -0.4603  0.7688
  296MOL0     C39871   2.418  10.500  -0.846 -0.1894 -0.3207 -0.8268
  296MOL0     O39872   2.165  10.671  -0.568 -0.2397  0.6367 -0.1223
  296MOL0     C39873   2.135  10.327  -0.478  0.7030  0.7738 -0.1830
  296MOL0     C39874   2.053  10.238  -0.397 -0.4059 -0.0363  0.8558
  296MOL0     N39875   2.095  10.238   0.308 -0.6009  0.7259  0.7933
  296MOL0     N39876   2.197  10.317   0.331  0.7065  0.3048 -0.1029
  296MOL0     C39877   3.033  10.244   0.967 -0.9989 -0.5154  0.2115
  296MOL0     C39878   3.171  10.211   0.988  0.1950 -0.3617  0.6132
  296MOL0     C39879   3.588  10.148   1.126 -0.2502  0.5570 -0.4932
  296MOL0     C39880   3.590  10.017   1.195 -0.8471 -0.3451  0.1112
  296MOL0     C39881   3.708   9.946   1.213 -0.5551  0.1802 -0.4319
  296MOL0     C39882   3.828  10.008   1.183 -0.8056  0.0139  0.5211
  296MOL0     O39883   3.942   9.934   1.205  0.1522  0.1219  0.0244
  296MOL0     C39884   4.071   9.990   1.221 -0.4682  0.1521  0.3134
  296MOL0     C39885   4.087  10.056   1.359 -1.6104  1.1931 -1.2342
  296MOL0     C39886   4.226  10.114   1.366 -0.3414 -0.3906  0.2805
  296MOL0     C39887   4.256  10.224   1.269 -0.9042  0.3478  1.0430
  296MOL0     C39888   4.357  10.181   1.163 -0.5204  0.5331  0.3513
  296MOL0     C39889   4.438  10.136   1.087  0.4338  0.0059  0.7342
  296MOL0     C39890   3.837  10.137   1.127  0.1401 -0.4218  0.8979
  296MOL0     C39891   3.715  10.211   1.104 -0.5422  0.6666 -0.3371
  296MOL0     C39892   3.735  10.350   1.039  0.0123  1.1262 -0.0058
  296MOL0     H39893   3.163  10.147   1.309  1.0143  0.1251 -0.2043
  296MOL0     H39894   2.925  10.186   1.277 -2.3520  0.0410 -1.3810
  296MOL0     H39895   2.800  10.337   0.861  0.5397 -0.2551  0.2155
  296MOL0     H39896   2.771  10.164   0.856 -0.0428  0.1570 -0.6309
  296MOL0     H39897   2.569  10.326   1.003  1.0388 -1.7110  2.5546
  296MOL0     H39898   2.549  10.168   0.941 -0.0669  1.1139  2.0154
  296MOL0     H39899   2.571  10.424   0.771  1.3820 -0.0344  0.7268
  296MOL0     H39900   2.428  10.314   0.807 -0.3453  0.1146  0.5217
  296MOL0     H39901   2.675  10.229   0.647  0.1217  1.3071  1.6852
  296MOL0     H39902   2.534  10.133   0.668 -1.8678  1.9318  0.9769
  296MOL0     H39903   2.413  10.316   0.551  0.7496 -1.6796  0.0518
  296MOL0     H39904   2.573  10.387   0.524 -0.9823  1.8553  4.2657
  296MOL0     H39905   2.613  10.126   0.431 -2.2290 -2.1212 -0.1906
  296MOL0     H39906   2.445  10.132   0.404  0.1695 -0.5644  1.9452
  296MOL0     H39907   2.568  10.242   0.182 -0.6847  0.6931 -1.4666
  296MOL0     H39908   2.629  10.362   0.301 -2.5093  1.0880  1.3750
  296MOL0     H39909   2.397  10.452   0.308  1.5983  2.4439 -1.9481
  296MOL0     H39910   2.425  10.422   0.146 -1.5127  1.8823  0.6662
  296MOL0     H39911   2.319  10.134   0.091  0.8052  0.3946  1.1996
  296MOL0     H39912   2.124   9.960   0.142 -0.8125 -1.2857 -2.3020
  296MOL0     H39913   1.988  10.000   0.256  1.3250  2.5858  0.6655
  296MOL0     H39914   1.893   9.957   0.038  0.0792 -1.0168  0.2963
  296MOL0     H39915   1.878  10.132   0.084 -1.9301  0.1677 -4.4623
  296MOL0     H39916   2.087   9.999  -0.093 -1.6429 -1.0661 -1.4708
  296MOL0     H39917   2.068  10.171  -0.091 -0.1681  0.1217 -5.6356
  296MOL0     H39918   1.816  10.025  -0.164 -0.5246 -0.5553 -3.6691
  296MOL0     H39919   1.956  10.030  -0.281  0.0830 -0.5552  0.4898
  296MOL0     H39920   1.882  10.456  -0.219 -0.3722 -0.8442  1.5910
  296MOL0     H39921   1.989  10.612  -0.395  0.4414  0.3537  0.2474
  296MOL0     H39922   2.435  10.703  -0.575  0.0245 -1.7739  0.3616
  296MOL0     H39923   2.628  10.796  -0.716 -0.9479 -0.9450  0.3920
  296MOL0     H39924   2.627  10.671  -1.156 -0.8730  1.0960 -0.3674
  296MOL0     H39925   2.588  10.830  -1.105 -0.2363 -0.3101  1.0827
  296MOL0     H39926   2.873  10.743  -1.158 -2.1063 -1.8082 -3.0864
  296MOL0     H39927   2.784  10.850  -1.262  2.1680  0.5717  0.1047
  296MOL0     H39928   2.806  11.029  -1.093 -0.6413 -0.7599  1.3126
  296MOL0     H39929   2.882  10.914  -0.987 -2.7812 -4.1205 -0.6215
  296MOL0     H39930   2.983  10.979  -1.267 -2.4626  1.2981 -0.2677
  296MOL0     H39931   3.060  10.876  -1.142  0.3023 -2.0040 -0.7738
  296MOL0     H39932   3.158  11.122  -1.177 -0.9456 -1.0173 -2.3703
  296MOL0     H39933   3.096  11.098  -1.006 -1.5416  1.3666  0.8120
  296MOL0     H39934   3.040  11.301  -1.174  2.0415 -0.8014  0.7269
  296MOL0     H39935   2.916  11.195  -1.233 -2.6094 -0.4412  1.1113
  296MOL0     H39936   2.889  11.191  -0.940  0.1654 -0.1983  0.1791
  296MOL0     H39937   2.784  11.241  -1.073  0.0860  0.0918  0.0910
  296MOL0     H39938   2.848  11.418  -0.884 -1.6537 -1.0411 -1.0963
  296MOL0     H39939   3.014  11.414  -0.950  0.7625  0.0861 -0.1579
  296MOL0     H39940   2.549  10.510  -1.022  0.5276  4.6438 -1.5371
  296MOL0     H39941   2.362  10.411  -0.873 -2.2612  0.1572  1.5241
  296MOL0     H39942   2.193  10.288  -0.561 -0.5136 -0.4087 -0.5271
  296MOL0     H39943   2.076  10.134  -0.422 -0.1146  0.3865 -0.7498
  296MOL0     H39944   2.999  10.279   0.870  0.8905  1.1998  0.1028
  296MOL0     H39945   3.242  10.217   0.906  0.9553 -1.9609  1.1214
  296MOL0     H39946   3.498   9.964   1.216 -1.1422  0.7733  1.7960
  296MOL0     H39947   3.712   9.840   1.237 -1.1902 -0.0430 -1.2594
  296MOL0     H39948   4.101  10.064   1.146 -0.5153  0.6563  0.7830
  296MOL0     H39949   4.141   9.908   1.203 -1.5967 -0.9055  0.6344
  296MOL0     H39950   4.076   9.972   1.428 -2.7516  1.6920 -0.7840
  296MOL0     H39951   4.007  10.130   1.371 -1.1888  1.3976  0.5716
  296MOL0     H39952   4.299  10.032   1.367  1.9081  1.4323 -2.1507
  296MOL0     H39953   4.236  10.168   1.460  0.1652 -0.1412  0.0875
  296MOL0     H39954   4.176  10.280   1.220 -0.1810 -0.4096 -1.1112
  296MOL0     H39955   4.312  10.303   1.320  0.8702  0.0738 -0.3805
  296MOL0     H39956   4.524  10.103   1.034  1.1916  1.6031  0.9107
  296MOL0     H39957   3.935  10.176   1.099  1.1746 -2.7865  0.9295
  296MOL0     H39958   3.687  10.353   0.940  1.1660  0.6517 -0.6024
  296MOL0     H39959   3.669  10.408   1.103  0.4075 -0.4121  1.8998
  296MOL0     H39960   3.836  10.391   1.035  0.6919 -0.3906  1.0163
  297MOL0     O39961  10.292   5.614   8.495  0.3691  1.2702  0.0255
  297MOL0     C39962  10.240   5.608   8.606 -0.0903 -0.2630  0.4120
  297MOL0     O39963  10.280   5.679   8.711 -0.0344  0.4060 -0.1323
  297MOL0     C39964  10.385   5.771   8.689  0.0997  0.1352  0.1558
  297MOL0     C39965  10.513   5.719   8.670 -0.2984  0.5030  1.0992
  297MOL0     C39966  10.625   5.808   8.674 -0.9052  0.2400  1.1026
  297MOL0     C39967  10.602   5.943   8.690 -0.3107  0.1260  0.9727
  297MOL0     O39968  10.712   6.028   8.711 -0.1130 -0.5077 -0.7703
  297MOL0     C39969  10.813   6.044   8.608 -0.0597 -0.6516 -0.0794
  297MOL0     C39970  10.938   6.113   8.676  0.2747  0.2796 -0.3720
  297MOL0     C39971  11.003   6.003   8.769  0.8033 -0.2636  0.7073
  297MOL0     C39972  11.097   5.909   8.690 -0.1302  0.3306  0.4808
  297MOL0     C39973  11.180   5.825   8.792  0.8680  0.8255 -0.0812
  297MOL0     C39974  11.292   5.745   8.731 -0.3927 -0.7349  0.5521
  297MOL0     C39975  11.378   5.662   8.839  0.8328 -0.4509  0.0691
  297MOL0     C39976  11.471   5.563   8.761 -0.4109  0.6985 -0.6976
  297MOL0     N39977  11.564   5.625   8.657 -0.7210  0.1426  0.7266
  297MOL0     C39978  11.688   5.681   8.692 -0.8351 -0.2087  0.5861
  297MOL0     C39979  11.743   5.709   8.564 -0.5796 -0.0609 -0.0169
  297MOL0     C39980  11.880   5.770   8.562 -0.2236  0.4415 -0.0063
  297MOL0     C39981  11.976   5.652   8.569  0.2056 -0.1308 -0.5411
  297MOL0     C39982  12.117   5.720   8.586 -0.1245 -0.1580 -0.5404
  297MOL0     C39983  12.224   5.636   8.655  0.9073  0.4492 -0.6484
  297MOL0     O39984  12.177   5.589   8.782 -0.4290 -0.3608  0.6628
  297MOL0     C39985  12.241   5.484   8.836 -1.3887  0.6421 -0.6014
  297MOL0     C39986  12.186   5.427   8.954  0.1580  0.2228  0.2251
  297MOL0     C39987  12.255   5.325   9.024 -1.0746  0.1996 -0.1340
  297MOL0     C39988  12.379   5.278   8.981 -0.5244  0.1029  0.4749
  297MOL0     C39989  12.457   5.171   9.046 -0.4526  0.7961  0.1776
  297MOL0     O39990  12.581   5.137   8.981 -0.2603  0.3442 -0.1032
  297MOL0     C39991  12.672   5.039   9.019  0.6630 -0.8569 -0.9198
  297MOL0     C39992  12.635   4.925   9.102  0.0783 -0.0589  0.1583
  297MOL0     C39993  12.731   4.827   9.139 -0.1551 -0.2202 -1.0619
  297MOL0     C39994  12.843   4.811   9.058 -1.6067 -1.1008  1.1997
  297MOL0     O39995  12.936   4.710   9.071  0.4190  0.4094 -0.4489
  297MOL0     C39996  12.864   4.583   9.060  0.9142 -0.3190  0.9938
  297MOL0     C39997  12.955   4.472   9.035  0.2506  0.3775 -0.7625
  297MOL0     C39998  12.897   4.340   9.009  0.8586 -0.7651 -0.3481
  297MOL0     C39999  13.010   4.232   8.990  0.0758 -1.0510 -0.1482
  297MOL0     C40000  12.930   4.108   8.942 -0.8629  0.0730  0.2793
  297MOL0     C40001  13.008   3.986   8.897 -0.8331  0.4065  0.0087
  297MOL0     C40002  12.915   3.873   8.850 -0.3720 -0.5610  0.2488
  297MOL0     C40003  13.001   3.756   8.809  0.4714 -0.4299  0.1533
  297MOL0    Cl40004  13.119   3.723   8.941 -0.2122  0.4644 -0.2464
  297MOL0     C40005  12.867   4.911   8.960 -0.2622  0.0534  1.2652
  297MOL0     C40006  12.792   5.022   8.945  1.0955  0.2224 -0.7001
  297MOL0     O40007  12.420   5.132   9.152  0.0764  0.1488  0.3030
  297MOL0     C40008  12.437   5.343   8.866  0.1730 -0.3369  0.7686
  297MOL0     C40009  12.367   5.441   8.795  0.3246  0.1504 -0.5782
  297MOL0     N40010  11.644   5.692   8.472  0.5161  0.1696 -0.1753
  297MOL0     N40011  11.538   5.643   8.523 -0.3932 -0.5261  0.0896
  297MOL0     C40012  10.470   5.993   8.709 -0.5726 -0.5153 -0.0875
  297MOL0     C40013  10.369   5.903   8.709  0.2232 -0.2034  0.9299
  297MOL0     C40014  10.138   5.503   8.626  0.5537  0.3451  0.9787
  297MOL0     C40015  10.055   5.513   8.741 -0.4058 -0.2152  0.4244
  297MOL0     C40016   9.957   5.413   8.766 -1.2028 -0.3233  0.0765
  297MOL0     C40017   9.952   5.290   8.687  0.2981 -0.2536 -0.0179
  297MOL0     O40018   9.864   5.180   8.693 -0.4080 -0.2905 -0.1872
  297MOL0     C40019   9.778   5.174   8.812  1.0860  0.1871 -1.1755
  297MOL0     C40020   9.840   5.118   8.932  0.7270  0.1055 -0.3940
  297MOL0     C40021   9.905   4.979   8.899  0.1013  1.1939  0.0293
  297MOL0     C40022   9.828   4.863   8.822  0.9347  0.1254 -0.3627
  297MOL0     C40023   9.925   4.753   8.811  0.1316 -0.0209  0.0646
  297MOL0     C40024  10.011   4.670   8.824 -0.4523  0.3041  0.4733
  297MOL0     C40025  10.030   5.291   8.570  0.3812  0.0718 -0.4376
  297MOL0     C40026  10.128   5.384   8.538  0.4661 -0.3982 -0.5030
  297MOL0     C40027  10.200   5.364   8.418  0.4710 -0.4568 -0.6776
  297MOL0     H40028  10.538   5.618   8.640 -1.0918 -0.1053  2.4314
  297MOL0     H40029  10.727   5.771   8.673 -1.1578 -0.5665  2.2121
  297MOL0     H40030  10.850   5.949   8.570  2.5913  1.0788 -2.1711
  297MOL0     H40031  10.776   6.101   8.522 -0.5158 -0.9986 -0.1176
  297MOL0     H40032  10.892   6.196   8.732  3.6612  1.2948  1.1858
  297MOL0     H40033  11.010   6.138   8.598 -0.5886 -1.1180 -1.6640
  297MOL0     H40034  10.934   5.937   8.823  0.4706  1.1579  2.1034
  297MOL0     H40035  11.056   6.063   8.843 -0.0300 -0.8696  1.8208
  297MOL0     H40036  11.046   5.840   8.622 -0.2465  1.5886 -0.7453
  297MOL0     H40037  11.170   5.963   8.630 -0.4104  0.6920  0.4621
  297MOL0     H40038  11.218   5.897   8.864  2.6341 -0.6032  0.4953
  297MOL0     H40039  11.113   5.750   8.837 -0.8863  0.2469 -3.3115
  297MOL0     H40040  11.255   5.676   8.655 -1.6924 -3.4349  3.3984
  297MOL0     H40041  11.364   5.808   8.678  1.5507 -3.5436 -0.3889
  297MOL0     H40042  11.304   5.603   8.894 -0.1630  0.0052 -0.7316
  297MOL0     H40043  11.439   5.732   8.896  1.2299 -0.4565 -0.3473
  297MOL0     H40044  11.529   5.503   8.831 -2.0778  0.1277  0.2706
  297MOL0     H40045  11.411   5.484   8.715  2.0779  1.0704 -5.1431
  297MOL0     H40046  11.744   5.697   8.783  0.2518 -0.3185 -0.0429
  297MOL0     H40047  11.901   5.810   8.462  1.2451  2.2240  0.9689
  297MOL0     H40048  11.895   5.846   8.639 -2.5166  1.0623 -0.1015
  297MOL0     H40049  11.962   5.597   8.662  0.7935  0.9744  0.2114
  297MOL0     H40050  11.968   5.585   8.482  4.2181  0.9025 -1.9065
  297MOL0     H40051  12.110   5.809   8.649 -0.1363 -1.4978  1.4366
  297MOL0     H40052  12.153   5.752   8.488  1.0771 -2.4689 -0.9213
  297MOL0     H40053  12.311   5.700   8.671 -0.4902  2.9066 -2.1829
  297MOL0     H40054  12.238   5.550   8.590 -2.2207 -1.2341  0.6755
  297MOL0     H40055  12.097   5.475   8.994  0.8536  3.8273 -2.0797
  297MOL0     H40056  12.209   5.281   9.112  1.2072 -3.1866 -0.4192
  297MOL0     H40057  12.540   4.927   9.154  0.6121 -0.0910  1.1577
  297MOL0     H40058  12.720   4.755   9.220  0.2239  2.5105  1.5669
  297MOL0     H40059  12.815   4.561   9.156  0.4342  1.5934  1.2229
  297MOL0     H40060  12.802   4.586   8.970  0.8883 -2.8126  0.8654
  297MOL0     H40061  13.019   4.500   8.951  1.6400 -0.0741  0.1009
  297MOL0     H40062  13.022   4.477   9.121  1.0274  0.5102 -1.3644
  297MOL0     H40063  12.841   4.307   9.097  0.1821 -0.0662 -0.5098
  297MOL0     H40064  12.834   4.337   8.919  1.1374  0.5197 -0.5957
  297MOL0     H40065  13.063   4.229   9.086 -2.6353 -0.2850  1.4861
  297MOL0     H40066  13.080   4.256   8.910  0.8132 -1.3451  0.4006
  297MOL0     H40067  12.873   4.130   8.852  0.8277 -2.3713 -1.5288
  297MOL0     H40068  12.865   4.079   9.024 -0.0275 -2.5282  0.1156
  297MOL0     H40069  13.077   4.029   8.824  2.1807  1.5228  3.2444
  297MOL0     H40070  13.067   3.960   8.985  0.2909  0.8452 -0.6006
  297MOL0     H40071  12.854   3.906   8.766 -0.2914 -0.2568  0.3090
  297MOL0     H40072  12.846   3.842   8.929 -0.1211 -2.6987 -0.2920
  297MOL0     H40073  12.929   3.673   8.800 -2.2136  1.7800 -0.1512
  297MOL0     H40074  13.049   3.779   8.714  2.3282  1.4749  1.4691
  297MOL0     H40075  12.943   4.894   8.885 -0.2910 -1.0604  1.4796
  297MOL0     H40076  12.809   5.096   8.868  1.0338  0.8544 -0.1122
  297MOL0     H40077  12.533   5.319   8.822  0.3887 -0.1299  1.1274
  297MOL0     H40078  12.419   5.472   8.705  1.8115  0.0067  0.1976
  297MOL0     H40079  10.447   6.097   8.732  0.5700 -0.6296  1.7443
  297MOL0     H40080  10.268   5.939   8.724 -0.6518 -1.8883 -0.5305
  297MOL0     H40081  10.044   5.597   8.808 -1.8853 -2.3760  3.0726
  297MOL0     H40082   9.893   5.427   8.853 -1.6085  3.0593 -0.6178
  297MOL0     H40083   9.699   5.105   8.777 -3.2762  3.8192  0.4825
  297MOL0     H40084   9.727   5.267   8.837 -3.0300 -2.3181  0.8724
  297MOL0     H40085   9.767   5.122   9.013  1.3327  1.4482  0.1226
  297MOL0     H40086   9.916   5.187   8.972 -0.0295  2.3567 -2.5921
  297MOL0     H40087   9.945   4.941   8.993  3.1606  1.6728 -0.9840
  297MOL0     H40088   9.996   4.995   8.841  1.0714 -0.1827  1.0965
  297MOL0     H40089   9.745   4.819   8.877  2.1977 -1.7279  0.1603
  297MOL0     H40090   9.800   4.897   8.722 -2.9843 -0.3912  0.4206
  297MOL0     H40091  10.098   4.607   8.829 -0.1159  0.8211  1.6005
  297MOL0     H40092  10.016   5.206   8.505 -0.2839 -1.3576  1.4633
  297MOL0     H40093  10.307   5.379   8.433  0.0777  0.4060  1.6191
  297MOL0     H40094  10.179   5.262   8.385 -0.3177 -0.7694  0.7258
  297MOL0     H40095  10.155   5.424   8.338 -0.8083  1.2282  1.2176
  298MOL0     O40096  10.745   3.522   6.822  0.5240 -0.1443 -0.4610
  298MOL0     C40097  10.631   3.466   6.805  0.0534 -0.2798  0.4126
  298MOL0     O40098  10.609   3.331   6.812 -0.2058  0.4161  0.1286
  298MOL0     C40099  10.714   3.245   6.840  0.6162  0.3148 -0.3784
  298MOL0     C40100  10.835   3.266   6.909 -0.2182 -0.3515 -0.5398
  298MOL0     C40101  10.922   3.160   6.935  0.3763 -0.2117 -0.1040
  298MOL0     C40102  10.887   3.025   6.907 -0.4912 -0.2776 -0.1356
  298MOL0     O40103  10.963   2.932   6.963 -1.2987  0.7686 -0.1019
  298MOL0     C40104  10.913   2.800   6.965  0.4303 -0.5156  0.3835
  298MOL0     C40105  11.007   2.712   7.046 -0.3308  0.0865  0.9399
  298MOL0     C40106  11.006   2.739   7.196  0.5372  0.0083  0.0288
  298MOL0     C40107  11.152   2.703   7.251  0.9666  0.2252 -0.7264
  298MOL0     C40108  11.185   2.755   7.388  0.2638  0.7976 -0.3450
  298MOL0     C40109  11.129   2.691   7.520  1.5255  0.2677 -0.0568
  298MOL0     C40110  11.220   2.582   7.584 -0.1459 -0.4453 -0.1814
  298MOL0     C40111  11.172   2.543   7.726 -0.2856 -0.3555  0.3120
  298MOL0     N40112  11.261   2.468   7.817  0.6673  0.3389 -0.3179
  298MOL0     C40113  11.246   2.482   7.955 -0.6951  0.8240  0.3797
  298MOL0     C40114  11.326   2.385   8.007  0.9388  0.0443 -0.5654
  298MOL0     C40115  11.348   2.366   8.155 -0.3975 -1.1417 -1.2284
  298MOL0     C40116  11.468   2.452   8.214 -0.2608  0.0027 -0.1858
  298MOL0     C40117  11.575   2.388   8.287 -0.1882  0.0095 -0.1621
  298MOL0     C40118  11.619   2.248   8.220 -0.3803 -0.3679 -0.4562
  298MOL0     O40119  11.671   2.272   8.088  0.4607  0.3273  0.4004
  298MOL0     C40120  11.800   2.317   8.072  0.2911  0.4264 -0.4116
  298MOL0     C40121  11.892   2.359   8.168 -0.3173 -0.6149  0.3582
  298MOL0     C40122  12.021   2.416   8.136  0.1337 -0.3956  0.0501
  298MOL0     C40123  12.056   2.426   8.008  0.2741  0.8928  0.6479
  298MOL0     C40124  12.191   2.484   7.979  0.6652  0.3564 -0.2370
  298MOL0     O40125  12.257   2.564   8.068  0.9110 -0.2928 -0.0050
  298MOL0     C40126  12.389   2.582   8.050 -0.0642  0.8872 -0.6675
  298MOL0     C40127  12.487   2.482   8.065  0.2341  1.2908 -0.9051
  298MOL0     C40128  12.619   2.502   8.030 -0.1522 -0.6883  0.6888
  298MOL0     C40129  12.654   2.634   7.993 -0.1579  0.6168 -0.4417
  298MOL0     O40130  12.781   2.679   7.974  0.1864  0.3282 -0.1073
  298MOL0     C40131  12.894   2.604   8.023 -0.1295 -0.2045  0.4806
  298MOL0     C40132  13.004   2.695   8.054 -0.7704 -0.5303 -0.1804
  298MOL0     C40133  13.020   2.689   8.211 -0.1774  0.8927 -0.0477
  298MOL0     C40134  13.136   2.774   8.257  0.5511 -1.0580  0.6384
  298MOL0     C40135  13.199   2.743   8.399 -0.0660 -0.6946 -0.1206
  298MOL0     C40136  13.191   2.597   8.444 -0.0572  0.0003  0.5912
  298MOL0     C40137  13.262   2.568   8.582 -0.6358 -0.2456 -0.4646
  298MOL0     C40138  13.261   2.419   8.609 -0.0172  0.1674 -1.4818
  298MOL0    Cl40139  13.358   2.334   8.485 -0.4191 -0.0451 -0.0757
  298MOL0     C40140  12.554   2.736   7.983  0.6743 -0.6365 -0.3205
  298MOL0     C40141  12.418   2.709   8.008 -0.6797  0.7306  0.7706
  298MOL0     O40142  12.243   2.448   7.868 -0.3124 -0.4065 -0.3402
  298MOL0     C40143  11.969   2.382   7.907 -0.4612  0.0582  0.8557
  298MOL0     C40144  11.843   2.331   7.939  0.9406 -0.3200 -0.3690
  298MOL0     N40145  11.377   2.310   7.909 -0.1867 -0.1910 -0.0641
  298MOL0     N40146  11.337   2.357   7.796  0.7369  0.0121  0.0365
  298MOL0     C40147  10.767   3.006   6.837  0.0168 -0.1346 -0.3517
  298MOL0     C40148  10.683   3.123   6.801  0.3954  0.3142 -0.8287
  298MOL0     C40149  10.503   3.547   6.787 -0.5192  0.2955 -0.4720
  298MOL0     C40150  10.377   3.485   6.740  0.3876  0.9768 -0.3234
  298MOL0     C40151  10.260   3.564   6.715  0.2678  0.8233 -0.0004
  298MOL0     C40152  10.264   3.692   6.746  1.0216 -0.0096  0.3464
  298MOL0     O40153  10.142   3.750   6.746 -0.2827  0.2655  0.4555
  298MOL0     C40154  10.135   3.899   6.754 -0.7695 -0.0261  0.3538
  298MOL0     C40155   9.981   3.941   6.762  0.2148 -0.4227  0.3146
  298MOL0     C40156   9.923   3.889   6.627  0.9915  1.1575 -0.3409
  298MOL0     C40157   9.792   3.953   6.592  0.0305 -0.3788 -0.2703
  298MOL0     C40158   9.782   3.959   6.448 -0.4876  0.0920  0.6701
  298MOL0     C40159   9.739   3.957   6.330  0.8156 -0.2553  0.0762
  298MOL0     C40160  10.383   3.749   6.797 -0.3678  0.1643 -0.1326
  298MOL0     C40161  10.498   3.682   6.830  0.4736  0.0029 -0.2610
  298MOL0     C40162  10.607   3.761   6.893  1.0407 -0.7496 -0.9328
  298MOL0     H40163  10.865   3.357   6.960  1.8078 -1.5385  0.5274
  298MOL0     H40164  11.008   3.186   6.996 -0.5558  1.3451  0.6251
  298MOL0     H40165  10.818   2.786   7.020  0.0769  0.6170  0.0848
  298MOL0     H40166  10.906   2.772   6.860 -0.8352  0.9314  0.0346
  298MOL0     H40167  11.108   2.720   7.006 -1.2342 -3.0268 -2.5280
  298MOL0     H40168  10.983   2.608   7.025  1.2579 -0.1405  0.0751
  298MOL0     H40169  10.929   2.681   7.247  0.8967  3.4744  5.2616
  298MOL0     H40170  10.982   2.841   7.227 -0.5973 -0.0769 -0.5148
  298MOL0     H40171  11.165   2.595   7.233 -1.2750  0.0341 -1.5952
  298MOL0     H40172  11.224   2.736   7.175  0.8056  0.7750 -0.6379
  298MOL0     H40173  11.292   2.776   7.399  0.9333 -3.0997  3.4363
  298MOL0     H40174  11.138   2.854   7.389  1.4174  1.4080 -1.9431
  298MOL0     H40175  11.102   2.765   7.596  0.4757 -1.5075  1.3735
  298MOL0     H40176  11.041   2.635   7.490  1.3624  0.3963  0.1794
  298MOL0     H40177  11.317   2.633   7.588 -2.7995  5.3878  0.3128
  298MOL0     H40178  11.210   2.492   7.523  1.5423 -0.8466  0.0711
  298MOL0     H40179  11.155   2.631   7.789 -1.3675 -1.3973  1.5462
  298MOL0     H40180  11.079   2.485   7.727  2.1653 -4.7677  0.0436
  298MOL0     H40181  11.191   2.557   8.010 -0.5742 -0.1165  1.8250
  298MOL0     H40182  11.260   2.403   8.209 -1.0957 -2.7196 -1.2332
  298MOL0     H40183  11.351   2.262   8.189  1.4398 -0.9067 -0.5520
  298MOL0     H40184  11.518   2.501   8.130 -0.4720  0.7377  0.1122
  298MOL0     H40185  11.429   2.522   8.288 -0.0602 -0.6462  0.5434
  298MOL0     H40186  11.552   2.372   8.392  1.7657  2.2940  0.7075
  298MOL0     H40187  11.665   2.450   8.274  0.2631 -0.6060 -0.0390
  298MOL0     H40188  11.533   2.179   8.215  0.1671 -0.9815 -3.4091
  298MOL0     H40189  11.689   2.203   8.290  1.6911 -3.1779 -3.9692
  298MOL0     H40190  11.870   2.345   8.273  2.9182 -1.5324  0.9999
  298MOL0     H40191  12.091   2.453   8.210  0.3020 -0.1900 -0.2061
  298MOL0     H40192  12.452   2.382   8.090  2.3217 -1.0668 -5.9262
  298MOL0     H40193  12.690   2.420   8.038 -3.4252 -3.8701 -0.3506
  298MOL0     H40194  12.871   2.538   8.107 -1.2205  1.2386  1.3836
  298MOL0     H40195  12.928   2.538   7.943 -0.1921 -2.5929  2.3040
  298MOL0     H40196  13.097   2.665   8.005  0.2688  0.3671  1.1638
  298MOL0     H40197  12.977   2.799   8.030  0.8854  0.3779  1.5700
  298MOL0     H40198  12.933   2.709   8.273  0.6963 -2.1643  2.4930
  298MOL0     H40199  13.048   2.586   8.239 -1.0675  1.3775  2.9115
  298MOL0     H40200  13.106   2.879   8.253  2.8211 -0.3333  1.2703
  298MOL0     H40201  13.214   2.748   8.186 -1.3943 -3.1184 -0.8993
  298MOL0     H40202  13.144   2.803   8.472  0.3792  0.7795 -0.9407
  298MOL0     H40203  13.304   2.772   8.403 -0.6865  1.9145 -0.7283
  298MOL0     H40204  13.085   2.579   8.464  0.1532 -1.7985  0.3250
  298MOL0     H40205  13.227   2.531   8.365  2.5051  1.8398  0.0908
  298MOL0     H40206  13.203   2.615   8.661 -0.4106  0.2415 -0.5857
  298MOL0     H40207  13.363   2.609   8.575  0.1021 -1.7660  0.6687
  298MOL0     H40208  13.306   2.418   8.709 -1.8111  1.1578 -0.6031
  298MOL0     H40209  13.163   2.373   8.629  0.9226 -0.2629  3.6876
  298MOL0     H40210  12.579   2.838   7.957 -0.5544 -0.5847 -1.3511
  298MOL0     H40211  12.330   2.768   7.983 -0.9670  0.0788  0.2285
  298MOL0     H40212  11.987   2.385   7.800 -2.4150 -0.5487  0.4664
  298MOL0     H40213  11.765   2.296   7.872 -0.8643  0.5262  1.1980
  298MOL0     H40214  10.746   2.909   6.793  1.4563 -1.0602  0.9226
  298MOL0     H40215  10.590   3.101   6.750 -0.8426 -0.4329  1.6369
  298MOL0     H40216  10.363   3.380   6.716 -1.6158  1.4303 -1.3659
  298MOL0     H40217  10.166   3.521   6.679  2.3114 -0.0257 -5.3418
  298MOL0     H40218  10.167   3.936   6.656  3.3601 -0.0422  1.4858
  298MOL0     H40219  10.189   3.941   6.839 -0.8225  2.1662 -0.6117
  298MOL0     H40220   9.963   4.049   6.764 -0.7788 -0.5587  2.7401
  298MOL0     H40221   9.941   3.895   6.853  2.5480 -0.6086  1.3125
  298MOL0     H40222   9.910   3.781   6.639  0.8561  1.2580  0.4555
  298MOL0     H40223   9.990   3.903   6.542 -0.1261 -0.4761 -1.5606
  298MOL0     H40224   9.705   3.899   6.630 -3.1217  2.1890 -3.2299
  298MOL0     H40225   9.773   4.057   6.622 -1.3922 -0.9715  1.0205
  298MOL0     H40226   9.695   3.974   6.234 -1.2565 -1.1587  0.8186
  298MOL0     H40227  10.381   3.855   6.820 -1.8973  0.4610 -1.4233
  298MOL0     H40228  10.657   3.705   6.973 -1.3475 -1.1999  0.3256
  298MOL0     H40229  10.687   3.788   6.823  0.8374 -0.4385 -1.0466
  298MOL0     H40230  10.570   3.855   6.932  3.0043 -0.9420  1.6369
  299MOL0     O40231   7.493   5.626   4.809  0.1413  0.1745  0.3682
  299MOL0     C40232   7.371   5.654   4.785  0.0055  0.3071 -0.1580
  299MOL0     O40233   7.315   5.642   4.667 -0.8563 -0.0663  0.3628
  299MOL0     C40234   7.394   5.592   4.570 -1.0263 -0.3425  0.0016
  299MOL0     C40235   7.370   5.453   4.533  0.7044 -0.7538 -0.3593
  299MOL0     C40236   7.423   5.392   4.421 -0.2961 -0.9649  0.9985
  299MOL0     C40237   7.509   5.462   4.341 -0.1863 -0.3202  1.1204
  299MOL0     O40238   7.576   5.389   4.245 -0.4810 -0.7492  0.6971
  299MOL0     C40239   7.720   5.382   4.270  1.1026 -0.1220 -0.2118
  299MOL0     C40240   7.802   5.343   4.153 -0.0710 -0.1974 -0.5221
  299MOL0     C40241   7.768   5.202   4.120  0.9916  0.0445 -0.0374
  299MOL0     C40242   7.881   5.131   4.025 -0.4311 -0.1778  0.0935
  299MOL0     C40243   7.890   5.185   3.887 -0.2445 -1.2574 -0.0912
  299MOL0     C40244   7.983   5.101   3.800 -0.1746  0.3695  0.4036
  299MOL0     C40245   8.136   5.121   3.818 -1.1599  0.5692 -0.2504
  299MOL0     C40246   8.208   5.045   3.705 -0.0232  0.7159 -0.2428
  299MOL0     N40247   8.186   5.109   3.575  0.3855  0.4664  0.4259
  299MOL0     C40248   8.271   5.208   3.530  0.3319  1.2500  0.3716
  299MOL0     C40249   8.247   5.211   3.395 -0.3728  0.1599 -0.2052
  299MOL0     C40250   8.330   5.290   3.298 -0.4931 -0.1354 -0.4211
  299MOL0     C40251   8.453   5.205   3.261 -0.9472 -0.1041 -0.3166
  299MOL0     C40252   8.572   5.297   3.197  0.4425 -0.1447 -0.0316
  299MOL0     C40253   8.684   5.216   3.144 -0.6236 -0.2642  0.1573
  299MOL0     O40254   8.630   5.126   3.043 -1.0608 -1.1054 -0.6901
  299MOL0     C40255   8.691   5.010   3.005  0.2570  0.2118 -0.3490
  299MOL0     C40256   8.832   4.978   3.013 -0.9824 -0.1522  0.1912
  299MOL0     C40257   8.880   4.849   2.985 -1.2006  0.5170 -0.7493
  299MOL0     C40258   8.790   4.748   2.933 -0.9322 -0.1618  0.2420
  299MOL0     C40259   8.841   4.612   2.896  0.0178  0.5596  0.1210
  299MOL0     O40260   8.976   4.592   2.868  0.0767 -0.0528  0.8736
  299MOL0     C40261   9.029   4.492   2.796 -0.1297  0.2129 -0.8001
  299MOL0     C40262   8.976   4.372   2.761  0.3139  0.9275 -1.0387
  299MOL0     C40263   9.059   4.269   2.717 -0.1320  0.3306 -0.0520
  299MOL0     C40264   9.199   4.282   2.681  0.6081  0.1959 -0.3291
  299MOL0     O40265   9.270   4.170   2.654 -0.3956 -0.4895  0.0965
  299MOL0     C40266   9.403   4.192   2.590 -0.2081 -1.3481  0.3468
  299MOL0     C40267   9.459   4.052   2.562  0.5065  0.2932 -0.2665
  299MOL0     C40268   9.597   4.056   2.509  0.5533 -0.3411 -0.3145
  299MOL0     C40269   9.660   3.906   2.525  1.0755  0.2587 -0.5570
  299MOL0     C40270   9.803   3.897   2.454  0.0645  0.4516 -0.0679
  299MOL0     C40271   9.932   3.905   2.543 -0.0145 -0.2104 -0.3341
  299MOL0     C40272   9.930   3.804   2.662 -0.6707  0.5198 -0.3195
  299MOL0     C40273  10.061   3.806   2.742 -0.8339 -0.0120 -0.8816
  299MOL0    Cl40274  10.104   3.974   2.789 -0.1905 -0.3595 -0.0524
  299MOL0     C40275   9.244   4.408   2.704 -0.0157 -1.1322 -0.6795
  299MOL0     C40276   9.165   4.514   2.756 -0.0134 -0.1932 -0.3988
  299MOL0     O40277   8.750   4.525   2.889  0.5328 -0.6412 -0.2575
  299MOL0     C40278   8.657   4.785   2.916 -0.5115  0.2637  0.1682
  299MOL0     C40279   8.606   4.910   2.957 -0.5167 -0.5910  0.0114
  299MOL0     N40280   8.149   5.118   3.363  0.1520  0.0445  0.3963
  299MOL0     N40281   8.101   5.072   3.475  0.1597 -0.2121  0.5586
  299MOL0     C40282   7.539   5.596   4.363 -0.3927  0.1813 -0.0435
  299MOL0     C40283   7.478   5.663   4.482  0.0339  0.1882  0.8356
  299MOL0     C40284   7.271   5.687   4.894  0.2619  0.5831  0.0023
  299MOL0     C40285   7.132   5.687   4.868 -0.8420  0.6888  0.2672
  299MOL0     C40286   7.037   5.692   4.962 -0.4297  0.2839  0.2337
  299MOL0     C40287   7.072   5.706   5.095  0.9497  0.1254  1.2528
  299MOL0     O40288   6.979   5.706   5.198  0.4018  0.6835  0.1569
  299MOL0     C40289   6.836   5.694   5.174 -0.8423  0.3918 -0.0153
  299MOL0     C40290   6.767   5.835   5.180  0.4262 -0.2157  0.6074
  299MOL0     C40291   6.793   5.896   5.316 -1.2735 -0.0380 -0.4505
  299MOL0     C40292   6.670   5.974   5.378 -0.0762 -0.5078  0.0293
  299MOL0     C40293   6.585   5.872   5.437 -0.5744 -0.0547 -0.1236
  299MOL0     C40294   6.515   5.805   5.511  0.1452  0.2852  0.7003
  299MOL0     C40295   7.201   5.745   5.120  0.5445  0.1434  0.9009
  299MOL0     C40296   7.302   5.729   5.022 -1.4573  0.2337 -0.2384
  299MOL0     C40297   7.447   5.752   5.067 -0.0461  0.3018  0.2997
  299MOL0     H40298   7.303   5.392   4.593 -1.8487  0.7396 -1.4777
  299MOL0     H40299   7.389   5.295   4.387 -0.0170 -1.1299  1.1889
  299MOL0     H40300   7.761   5.479   4.297  1.5248  0.4599 -2.7550
  299MOL0     H40301   7.739   5.308   4.349  0.7754 -1.3987 -1.2833
  299MOL0     H40302   7.910   5.342   4.174 -0.3990 -0.8876  1.3814
  299MOL0     H40303   7.777   5.409   4.069  2.4716 -0.6995 -1.7749
  299MOL0     H40304   7.681   5.219   4.057 -0.4755  0.0140  1.8766
  299MOL0     H40305   7.740   5.135   4.202 -1.1632 -0.8587 -1.4405
  299MOL0     H40306   7.976   5.147   4.077 -0.7155  2.4506 -0.0419
  299MOL0     H40307   7.882   5.022   4.026 -4.0925 -0.4401 -3.5113
  299MOL0     H40308   7.788   5.182   3.848 -0.3014 -2.0718  0.0972
  299MOL0     H40309   7.910   5.292   3.888  2.6345 -1.6512 -2.1124
  299MOL0     H40310   7.944   5.001   3.822 -1.8413  1.1865  1.3964
  299MOL0     H40311   7.966   5.130   3.696 -0.2513  0.7610  0.5235
  299MOL0     H40312   8.166   5.083   3.916  0.2437  2.0859 -0.0567
  299MOL0     H40313   8.170   5.224   3.814  0.5966 -0.0203 -1.6766
  299MOL0     H40314   8.315   5.030   3.724 -0.5393 -1.9809  0.8994
  299MOL0     H40315   8.185   4.939   3.699 -0.3474  0.7022  0.9385
  299MOL0     H40316   8.354   5.239   3.594  0.7227 -0.3720  0.6874
  299MOL0     H40317   8.274   5.297   3.204 -0.5812 -1.6078 -0.4968
  299MOL0     H40318   8.362   5.385   3.343  0.6346 -0.4507 -0.5217
  299MOL0     H40319   8.491   5.142   3.342 -1.1399 -1.4659 -1.2489
  299MOL0     H40320   8.433   5.124   3.191  2.0739 -1.2031 -0.0714
  299MOL0     H40321   8.600   5.371   3.273 -0.1754 -1.4388  1.5249
  299MOL0     H40322   8.526   5.353   3.116 -3.5312  0.8116  2.5968
  299MOL0     H40323   8.724   5.157   3.227 -0.3951 -1.9147 -1.0774
  299MOL0     H40324   8.767   5.273   3.100  0.0385 -2.1502 -1.1516
  299MOL0     H40325   8.911   5.049   3.035  0.1486 -0.5865 -2.2103
  299MOL0     H40326   8.980   4.813   3.007 -1.8713  0.5995  3.0429
  299MOL0     H40327   8.875   4.335   2.778  0.8818 -1.1120 -1.7567
  299MOL0     H40328   9.016   4.169   2.712  0.7623 -0.0702  0.0666
  299MOL0     H40329   9.392   4.245   2.494  0.0640 -1.9822 -0.0412
  299MOL0     H40330   9.468   4.249   2.657 -2.3061  0.1726  1.2005
  299MOL0     H40331   9.462   4.009   2.662  0.2615  3.4832  1.2535
  299MOL0     H40332   9.390   3.988   2.505  0.9902 -1.3063  0.9063
  299MOL0     H40333   9.593   4.095   2.407  1.3119  0.5233 -0.0273
  299MOL0     H40334   9.667   4.123   2.559  0.2593 -1.0823  1.1545
  299MOL0     H40335   9.590   3.845   2.467 -0.9611  2.7091 -0.8521
  299MOL0     H40336   9.649   3.873   2.629 -2.8201 -1.4992 -1.3434
  299MOL0     H40337   9.805   3.985   2.389 -1.1927 -0.2198 -1.0489
  299MOL0     H40338   9.814   3.802   2.402 -1.0727  0.2086  0.0995
  299MOL0     H40339  10.024   3.883   2.488  0.3716  0.7526 -0.0807
  299MOL0     H40340   9.934   4.006   2.585 -3.2284  0.9177 -2.4587
  299MOL0     H40341   9.924   3.702   2.623  1.2407  0.3235 -0.1978
  299MOL0     H40342   9.851   3.829   2.733 -0.5573 -0.3596  0.1234
  299MOL0     H40343  10.066   3.738   2.827 -4.2881 -1.2243 -1.5226
  299MOL0     H40344  10.151   3.774   2.689  0.8598  3.7530 -0.6386
  299MOL0     H40345   9.341   4.447   2.675 -0.0704  1.0148  1.7208
  299MOL0     H40346   9.210   4.611   2.777  1.9102 -1.0640 -0.3567
  299MOL0     H40347   8.595   4.709   2.871  0.8530 -1.4218  0.9996
  299MOL0     H40348   8.500   4.929   2.952 -0.8317 -2.2055  0.0559
  299MOL0     H40349   7.597   5.652   4.290  2.3051 -0.6009  1.3678
  299MOL0     H40350   7.500   5.769   4.491  0.5078  0.1109  0.6078
  299MOL0     H40351   7.102   5.672   4.765  1.3553 -3.1318 -0.0337
  299MOL0     H40352   6.936   5.686   4.924 -0.9871 -1.8775  1.8939
  299MOL0     H40353   6.804   5.628   5.256  3.1960 -2.8558 -0.7126
  299MOL0     H40354   6.808   5.647   5.080  0.1866  4.6047 -2.6589
  299MOL0     H40355   6.660   5.822   5.161  0.5756 -0.4459 -0.1236
  299MOL0     H40356   6.814   5.899   5.103  1.8672 -1.5810  0.3021
  299MOL0     H40357   6.875   5.964   5.293 -1.6102  0.0308 -1.4831
  299MOL0     H40358   6.833   5.823   5.388  0.6032  1.4170  0.0449
  299MOL0     H40359   6.701   6.032   5.465 -1.6374 -1.4892  1.2895
  299MOL0     H40360   6.625   6.043   5.307 -1.1946 -0.8154  0.4179
  299MOL0     H40361   6.458   5.753   5.585  2.0166 -0.7383  1.4934
  299MOL0     H40362   7.232   5.771   5.220  0.7453  2.0032  0.4029
  299MOL0     H40363   7.450   5.800   5.166 -3.9155 -3.0998  2.3926
  299MOL0     H40364   7.498   5.656   5.077  1.2053  1.1678  3.0568
  299MOL0     H40365   7.507   5.810   4.997 -0.9268  0.5190 -0.2931
  300MOL0     O40366   0.878  10.075   9.072  0.2557  0.6104 -0.1596
  300MOL0     C40367   0.853  10.170   9.135  0.4952  0.1183  1.3019
  300MOL0     O40368   0.734  10.229   9.148 -0.3705 -0.2476 -0.0304
  300MOL0     C40369   0.622  10.170   9.091  0.6500  0.2218 -0.7757
  300MOL0     C40370   0.582  10.041   9.137  0.7474 -0.1082 -0.2458
  300MOL0     C40371   0.466   9.978   9.086 -0.4534  0.8913 -0.6444
  300MOL0     C40372   0.390  10.041   8.996  1.5360 -0.4181 -0.4172
  300MOL0     O40373   0.291   9.970   8.929 -0.1082  0.3469 -0.9453
  300MOL0     C40374   0.163  10.023   8.895 -1.0816  0.1900 -0.6022
  300MOL0     C40375   0.115  10.130   9.003  0.2240 -0.1851  0.4899
  300MOL0     C40376   0.011  10.212   8.932 -0.1924  0.8791  0.7202
  300MOL0     C40377  -0.051  10.307   9.024  0.4642  0.2404  0.3465
  300MOL0     C40378  -0.143  10.233   9.125  0.1538  1.0676  0.5083
  300MOL0     C40379  -0.216  10.337   9.212 -0.0839  0.1631  1.3806
  300MOL0     C40380  -0.299  10.277   9.330  0.5945  0.2244  0.0769
  300MOL0     C40381  -0.339  10.384   9.432 -1.1875  0.1809  1.3234
  300MOL0     N40382  -0.448  10.343   9.515 -0.2809  0.1261 -0.9466
  300MOL0     C40383  -0.442  10.289   9.647  0.8487 -0.5236  1.2001
  300MOL0     C40384  -0.572  10.272   9.693 -0.2056 -0.9580  0.0033
  300MOL0     C40385  -0.596  10.204   9.830 -0.0651  0.3156  0.1870
  300MOL0     C40386  -0.628  10.285   9.953 -0.2278 -0.4009  0.3535
  300MOL0     C40387  -0.756  10.361   9.960  0.0860 -0.0899  0.4278
  300MOL0     C40388  -0.871  10.295   9.882  0.0031 -0.0490 -0.0926
  300MOL0     O40389  -0.916  10.165   9.933 -0.5350  0.3198 -0.7279
  300MOL0     C40390  -1.038  10.121   9.897 -0.3003  0.8676  0.0705
  300MOL0     C40391  -1.152  10.201   9.893  0.3085 -0.2488  0.4858
  300MOL0     C40392  -1.270  10.146   9.846 -0.2217 -0.1560  0.2710
  300MOL0     C40393  -1.275  10.013   9.793  0.8206  0.8391 -1.1461
  300MOL0     C40394  -1.402   9.968   9.740 -0.7955  0.4847  0.8713
  300MOL0     O40395  -1.407   9.828   9.706 -0.2703 -0.0821  0.2548
  300MOL0     C40396  -1.528   9.765   9.686  0.5085  0.0347  0.1203
  300MOL0     C40397  -1.529   9.628   9.729 -0.4066  0.0414 -0.1663
  300MOL0     C40398  -1.644   9.545   9.720 -1.2309  0.6611 -1.0844
  300MOL0     C40399  -1.772   9.594   9.682 -0.0567 -0.5017 -1.1999
  300MOL0     O40400  -1.884   9.513   9.684  0.3810  0.0810  0.3425
  300MOL0     C40401  -2.015   9.562   9.708  0.7940 -0.3259  0.1775
  300MOL0     C40402  -2.094   9.556   9.579 -0.3561  0.5043 -0.7340
  300MOL0     C40403  -2.223   9.651   9.588 -1.0889 -0.6217 -0.6946
  300MOL0     C40404  -2.293   9.643   9.450 -0.0224 -0.9668  0.0234
  300MOL0     C40405  -2.416   9.734   9.428 -0.3595 -0.1035 -1.1293
  300MOL0     C40406  -2.380   9.875   9.392  1.0341 -0.7917 -0.0989
  300MOL0     C40407  -2.505   9.961   9.422  1.5629 -0.3957  0.7709
  300MOL0     C40408  -2.468  10.111   9.385 -0.0821  1.2223 -0.3620
  300MOL0    Cl40409  -2.620  10.217   9.401  0.2673  0.2155  0.1153
  300MOL0     C40410  -1.775   9.734   9.631  0.3859  0.2366 -0.1702
  300MOL0     C40411  -1.654   9.824   9.642 -0.1209  0.3902 -0.1738
  300MOL0     O40412  -1.497  10.046   9.727 -0.1813 -0.2656 -0.1271
  300MOL0     C40413  -1.164   9.933   9.806  0.0862  0.0527  0.9887
  300MOL0     C40414  -1.050   9.982   9.866 -0.1399  0.4279  0.5923
  300MOL0     N40415  -0.654  10.335   9.601  0.0538 -0.7070 -0.0217
  300MOL0     N40416  -0.578  10.368   9.501  0.7086  0.5930 -0.4364
  300MOL0     C40417   0.431  10.162   8.940  0.7858  0.0629  0.8934
  300MOL0     C40418   0.554  10.229   8.982  1.1890  0.9048 -1.0479
  300MOL0     C40419   0.973  10.241   9.206 -0.4080  0.0030 -0.0802
  300MOL0     C40420   0.950  10.330   9.313  0.8059  1.0572 -0.0481
  300MOL0     C40421   1.051  10.382   9.390  0.1850 -0.2298 -0.6718
  300MOL0     C40422   1.183  10.333   9.380  0.3686 -0.0298  0.0268
  300MOL0     O40423   1.275  10.382   9.462 -0.3955  0.2772 -0.1525
  300MOL0     C40424   1.409  10.326   9.466  0.3626  0.0710 -0.7244
  300MOL0     C40425   1.459  10.375   9.605 -0.5753  0.0088 -0.2967
  300MOL0     C40426   1.483  10.531   9.610 -0.0406 -0.4739 -0.9912
  300MOL0     C40427   1.581  10.563   9.728 -0.3196 -0.1419  0.6935
  300MOL0     C40428   1.653  10.692   9.708  0.5235  0.8656  0.3592
  300MOL0     C40429   1.710  10.794   9.677 -0.0011 -0.1991  0.6483
  300MOL0     C40430   1.205  10.235   9.281 -0.0710 -0.1863  0.6625
  300MOL0     C40431   1.109  10.194   9.195  0.4701 -0.7902  0.0319
  300MOL0     C40432   1.154  10.101   9.098 -0.3517  0.4817  0.3134
  300MOL0     H40433   0.637  10.002   9.222  1.6945  1.7999  0.0964
  300MOL0     H40434   0.436   9.888   9.139  3.2033  0.7331  1.5307
  300MOL0     H40435   0.182  10.064   8.795 -0.3172 -1.6508 -1.2663
  300MOL0     H40436   0.089   9.943   8.887 -0.6938 -0.4009  1.2448
  300MOL0     H40437   0.188  10.204   9.037 -2.4435  3.1474 -0.4565
  300MOL0     H40438   0.088  10.081   9.096  1.8705 -1.9609  0.0952
  300MOL0     H40439  -0.062  10.149   8.879 -0.7284  2.3993 -0.4295
  300MOL0     H40440   0.051  10.271   8.849 -0.7072 -3.0070 -2.5819
  300MOL0     H40441   0.026  10.375   9.063  0.1688  1.3914 -0.9702
  300MOL0     H40442  -0.114  10.378   8.968  0.4817 -0.5467 -0.7066
  300MOL0     H40443  -0.209  10.171   9.064  0.1048 -1.2214  2.6823
  300MOL0     H40444  -0.087  10.168   9.194 -0.0512  0.0804 -0.2329
  300MOL0     H40445  -0.134  10.397   9.253 -0.9375  1.5403  1.1167
  300MOL0     H40446  -0.282  10.400   9.152 -1.9911 -2.7886  0.1244
  300MOL0     H40447  -0.242  10.195   9.374 -1.5505 -1.2462  0.3007
  300MOL0     H40448  -0.389  10.221   9.301  1.5738 -0.4623 -1.8487
  300MOL0     H40449  -0.256  10.425   9.490 -1.4118  0.9015  1.1431
  300MOL0     H40450  -0.368  10.477   9.382 -1.0115 -0.2180  0.4685
  300MOL0     H40451  -0.351  10.258   9.697  1.4504  2.0443  1.8654
  300MOL0     H40452  -0.684  10.141   9.810 -0.7520  1.1568  0.4692
  300MOL0     H40453  -0.506  10.148   9.854 -0.4682  0.1093  1.2591
  300MOL0     H40454  -0.621  10.216  10.038  3.3550 -1.3730 -0.5376
  300MOL0     H40455  -0.542  10.353   9.956  0.2784 -0.8584 -1.9540
  300MOL0     H40456  -0.750  10.461   9.916 -2.9317 -0.2894 -0.6779
  300MOL0     H40457  -0.777  10.383  10.065  1.0517  4.0653 -0.0897
  300MOL0     H40458  -0.864  10.283   9.774 -1.0116 -0.3070 -0.1478
  300MOL0     H40459  -0.956  10.360   9.906  0.4963  0.7606 -0.5349
  300MOL0     H40460  -1.155  10.301   9.934  3.2447  0.3471 -0.5439
  300MOL0     H40461  -1.350  10.218   9.858  1.9963  2.2578  1.8016
  300MOL0     H40462  -1.440   9.579   9.768 -2.5649 -4.5321 -0.3658
  300MOL0     H40463  -1.626   9.443   9.753  1.3540  1.8852  1.8046
  300MOL0     H40464  -2.055   9.501   9.789  0.8106 -0.9962 -0.3165
  300MOL0     H40465  -2.020   9.670   9.727 -1.3982 -0.3088 -0.2365
  300MOL0     H40466  -2.038   9.584   9.490  3.1103 -2.2653  0.3395
  300MOL0     H40467  -2.128   9.455   9.556 -1.8431  1.0668 -1.1439
  300MOL0     H40468  -2.285   9.632   9.676 -0.0035  0.8986  0.4494
  300MOL0     H40469  -2.178   9.748   9.606 -3.7703  0.5406  0.2310
  300MOL0     H40470  -2.324   9.538   9.443  2.9485 -2.0060  1.0941
  300MOL0     H40471  -2.217   9.663   9.374  1.8091  1.7131  2.3625
  300MOL0     H40472  -2.477   9.730   9.519 -0.4717  1.5102 -1.0923
  300MOL0     H40473  -2.475   9.693   9.345 -2.6746 -0.2454  0.4875
  300MOL0     H40474  -2.302   9.915   9.457  1.4494  0.7574 -1.4632
  300MOL0     H40475  -2.345   9.881   9.288 -2.7521 -2.9192 -1.6933
  300MOL0     H40476  -2.543   9.948   9.523  0.9921 -0.6222  0.5338
  300MOL0     H40477  -2.593   9.938   9.361 -1.0948  1.4735  3.6175
  300MOL0     H40478  -2.394  10.140   9.460 -1.7110  3.7300  0.3993
  300MOL0     H40479  -2.431  10.123   9.283  0.3790 -0.0478 -0.3588
  300MOL0     H40480  -1.873   9.768   9.600  0.0222 -1.0920 -0.5187
  300MOL0     H40481  -1.662   9.927   9.609 -2.3942 -0.4787 -2.7640
  300MOL0     H40482  -1.162   9.829   9.775 -2.4912  0.7160 -1.8521
  300MOL0     H40483  -0.981   9.899   9.875 -0.0313  0.5254  0.6665
  300MOL0     H40484   0.366  10.199   8.861  3.3940  1.7086 -0.6458
  300MOL0     H40485   0.598  10.310   8.925  5.1428 -0.6670 -0.5197
  300MOL0     H40486   0.857  10.386   9.322  1.4644  2.0706  0.5193
  300MOL0     H40487   1.031  10.446   9.476 -2.7141  0.5433 -1.7922
  300MOL0     H40488   1.465  10.356   9.377  1.1194  0.9426  0.0351
  300MOL0     H40489   1.405  10.217   9.478  2.4861  0.0212 -0.0337
  300MOL0     H40490   1.556  10.334   9.632 -0.6119  0.9303  1.3984
  300MOL0     H40491   1.383  10.344   9.678 -2.3853  1.4393 -1.4520
  300MOL0     H40492   1.388  10.581   9.632 -0.3006 -2.0788  2.1334
  300MOL0     H40493   1.523  10.556   9.511  1.5512  1.6680  0.1008
  300MOL0     H40494   1.513  10.565   9.813  0.5955  0.4623  1.4265
  300MOL0     H40495   1.663  10.491   9.739  0.1160  0.1683 -0.4159
  300MOL0     H40496   1.765  10.876   9.634 -0.9654 -0.9061 -2.1265
  300MOL0     H40497   1.299  10.181   9.277 -0.2873 -0.6159  1.2982
  300MOL0     H40498   1.101  10.121   9.005 -0.2673 -1.1687 -0.1212
  300MOL0     H40499   1.259  10.108   9.067 -0.3108  1.8377  0.6976
  300MOL0     H40500   1.148   9.998   9.135  2.3341  0.4626  0.9068
  301MOL0     O40501   6.556   4.603   7.850 -0.5497  0.0086 -0.3646
  301MOL0     C40502   6.493   4.702   7.869  0.3525  0.0597 -0.5523
  301MOL0     O40503   6.454   4.744   7.984  0.7923  0.3074  0.0302
  301MOL0     C40504   6.420   4.666   8.089  0.2441 -0.7988 -0.4230
  301MOL0     C40505   6.311   4.718   8.155 -0.8165 -0.1020  0.3052
  301MOL0     C40506   6.265   4.641   8.268  0.6254  0.9878 -0.3482
  301MOL0     C40507   6.314   4.520   8.297  0.4530  0.6803 -1.1719
  301MOL0     O40508   6.265   4.458   8.412  0.2053  0.3796 -0.3491
  301MOL0     C40509   6.231   4.330   8.377 -0.2629  0.0319  1.1306
  301MOL0     C40510   6.138   4.273   8.484 -0.4323  0.9552  0.1059
  301MOL0     C40511   6.003   4.346   8.473  0.1334  0.5375  0.7077
  301MOL0     C40512   5.900   4.288   8.583  1.1509  0.3136  0.1570
  301MOL0     C40513   5.820   4.401   8.647 -1.1864  0.4374 -0.9397
  301MOL0     C40514   5.738   4.473   8.539  0.3786 -0.6725 -0.1371
  301MOL0     C40515   5.610   4.534   8.579  0.0415 -0.9262  0.3906
  301MOL0     C40516   5.534   4.583   8.465 -0.4045 -0.4229 -0.4250
  301MOL0     N40517   5.415   4.653   8.489 -0.3095  0.4524  0.6440
  301MOL0     C40518   5.344   4.688   8.371  0.0688 -0.1729  0.5511
  301MOL0     C40519   5.221   4.727   8.413 -0.6616  0.0648  0.2461
  301MOL0     C40520   5.096   4.749   8.326 -0.2524 -0.1697 -1.0444
  301MOL0     C40521   5.004   4.862   8.372 -0.7125 -0.9285 -0.2287
  301MOL0     C40522   4.883   4.808   8.444  0.2714  0.2956 -0.1796
  301MOL0     C40523   4.903   4.726   8.575  0.0526 -0.9132  0.3453
  301MOL0     O40524   4.769   4.709   8.633  0.3817 -0.0719 -0.8716
  301MOL0     C40525   4.678   4.635   8.574  0.7146  0.1915 -0.3415
  301MOL0     C40526   4.545   4.676   8.565  1.6569  0.2541  0.1152
  301MOL0     C40527   4.441   4.588   8.528  1.0693 -0.7916 -0.5626
  301MOL0     C40528   4.472   4.453   8.512 -0.0566 -0.0959  1.2511
  301MOL0     C40529   4.359   4.358   8.484  0.5039  0.1069  0.0381
  301MOL0     O40530   4.394   4.230   8.459 -0.6440  0.7008  0.9029
  301MOL0     C40531   4.301   4.129   8.458 -0.5694 -0.3253  0.0368
  301MOL0     C40532   4.222   4.086   8.565  0.2456  0.5403  0.1667
  301MOL0     C40533   4.143   3.974   8.554  0.0098  0.7047 -0.7234
  301MOL0     C40534   4.142   3.896   8.442 -0.6263 -0.5910  0.4677
  301MOL0     O40535   4.067   3.788   8.447  1.0001 -0.6816  0.3571
  301MOL0     C40536   4.077   3.684   8.353 -0.3372  0.2342  0.5223
  301MOL0     C40537   4.009   3.565   8.418 -0.7694 -0.1129 -0.1892
  301MOL0     C40538   4.027   3.439   8.339  0.8088  0.4802  0.3169
  301MOL0     C40539   3.939   3.331   8.398 -0.3704 -0.2474 -0.0561
  301MOL0     C40540   3.961   3.192   8.340 -0.8701  0.6435  0.1803
  301MOL0     C40541   3.846   3.114   8.390  0.3201  0.3494 -0.6618
  301MOL0     C40542   3.862   2.961   8.371  0.1644 -0.4656 -0.4494
  301MOL0     C40543   3.829   2.924   8.222 -0.3034  0.1453 -0.4918
  301MOL0    Cl40544   3.656   2.886   8.204  0.3586 -0.2008 -0.0275
  301MOL0     C40545   4.226   3.937   8.340 -0.2247 -0.1737 -0.3483
  301MOL0     C40546   4.303   4.053   8.341  0.3181  0.9437  0.1655
  301MOL0     O40547   4.248   4.405   8.500  1.1690 -0.2366  0.3163
  301MOL0     C40548   4.602   4.408   8.532  0.4617 -0.1984  0.2313
  301MOL0     C40549   4.707   4.503   8.554  0.5024 -0.1694 -0.5911
  301MOL0     N40550   5.229   4.726   8.556 -0.5054  0.4140 -0.2926
  301MOL0     N40551   5.346   4.687   8.600  0.1965  0.7213 -0.3125
  301MOL0     C40552   6.424   4.471   8.226 -0.1833  0.8259  0.0256
  301MOL0     C40553   6.475   4.538   8.117  0.2395 -0.2162 -0.1882
  301MOL0     C40554   6.488   4.790   7.756 -0.2062  0.2207 -0.3368
  301MOL0     C40555   6.539   4.918   7.785 -0.1216 -0.3575 -0.6260
  301MOL0     C40556   6.546   5.018   7.690  0.3653  0.0474  0.2153
  301MOL0     C40557   6.498   4.997   7.563  0.8361  0.6022  0.4574
  301MOL0     O40558   6.489   5.099   7.469  0.2762 -0.0561  1.1006
  301MOL0     C40559   6.567   5.093   7.343  0.5868  0.2099 -0.0276
  301MOL0     C40560   6.483   5.105   7.223  0.2042 -0.3436 -0.7128
  301MOL0     C40561   6.370   4.996   7.213 -0.3351  0.5228  0.1912
  301MOL0     C40562   6.303   4.979   7.081 -1.0000 -0.3464 -0.3704
  301MOL0     C40563   6.267   5.101   7.008  0.3561  0.3546  0.7785
  301MOL0     C40564   6.236   5.188   6.934  0.6390 -0.7583 -0.1268
  301MOL0     C40565   6.459   4.868   7.523  0.2561 -0.6384  0.4954
  301MOL0     C40566   6.454   4.762   7.620  1.2414  0.0822  0.6819
  301MOL0     C40567   6.405   4.627   7.572 -0.3432  0.1516  0.2773
  301MOL0     H40568   6.270   4.818   8.144 -0.5647  0.1990  1.8348
  301MOL0     H40569   6.187   4.682   8.332  1.3937  2.8616 -0.5468
  301MOL0     H40570   6.186   4.321   8.278  0.6868  2.1698  0.4479
  301MOL0     H40571   6.319   4.265   8.375 -1.2516 -1.3537  1.6136
  301MOL0     H40572   6.197   4.276   8.576 -0.1358 -5.6433  0.6374
  301MOL0     H40573   6.138   4.164   8.471  2.7054  0.8449  0.1186
  301MOL0     H40574   5.969   4.339   8.369  1.1678  0.5388  0.3566
  301MOL0     H40575   6.036   4.447   8.499  3.1896 -0.1731  0.0297
  301MOL0     H40576   5.839   4.223   8.519  0.8139  0.8176 -0.0395
  301MOL0     H40577   5.945   4.227   8.662  1.7776 -2.5494 -2.2106
  301MOL0     H40578   5.750   4.371   8.725 -1.2112 -1.2804 -1.5760
  301MOL0     H40579   5.875   4.487   8.686 -2.3677  2.5304 -3.5837
  301MOL0     H40580   5.797   4.555   8.496 -1.1417  0.2291 -0.5852
  301MOL0     H40581   5.711   4.403   8.460 -0.9143 -2.0805  1.4736
  301MOL0     H40582   5.636   4.615   8.647  3.3803 -0.4551 -1.2812
  301MOL0     H40583   5.556   4.461   8.641 -0.7779 -0.1520  0.6121
  301MOL0     H40584   5.601   4.645   8.405  1.8436 -2.5486 -0.2493
  301MOL0     H40585   5.516   4.493   8.406  1.7648 -1.1981  0.0289
  301MOL0     H40586   5.385   4.673   8.272 -0.1990  4.5314 -0.5227
  301MOL0     H40587   5.116   4.776   8.222  1.0385  0.1625 -0.7206
  301MOL0     H40588   5.053   4.648   8.316  0.3116 -0.7636  1.7502
  301MOL0     H40589   5.065   4.930   8.433  2.4685 -4.1833  0.5097
  301MOL0     H40590   4.976   4.916   8.281  1.2520  0.0370 -0.3100
  301MOL0     H40591   4.834   4.735   8.378 -0.0228 -0.7355  1.1269
  301MOL0     H40592   4.813   4.889   8.464 -1.6010 -1.2125 -0.3024
  301MOL0     H40593   4.965   4.782   8.645  0.8469 -0.2566 -0.8526
  301MOL0     H40594   4.949   4.628   8.562 -0.5230 -1.1920  0.3642
  301MOL0     H40595   4.519   4.778   8.594 -0.1902 -0.1299 -0.0279
  301MOL0     H40596   4.342   4.631   8.520  0.8169 -1.5191 -1.5918
  301MOL0     H40597   4.216   4.148   8.654  0.3805  2.4836 -1.1210
  301MOL0     H40598   4.077   3.948   8.636 -0.3209  0.0096 -1.2067
  301MOL0     H40599   4.028   3.718   8.261 -1.3804  0.4351  1.1483
  301MOL0     H40600   4.183   3.666   8.332 -0.1573  3.4366 -2.2499
  301MOL0     H40601   4.065   3.557   8.512  2.5714 -0.4233 -2.0902
  301MOL0     H40602   3.907   3.593   8.448  0.3752  3.6756  0.7331
  301MOL0     H40603   3.997   3.458   8.236  2.4871  0.0135 -0.2769
  301MOL0     H40604   4.133   3.414   8.347  0.8933  1.1015  1.4454
  301MOL0     H40605   3.834   3.362   8.398 -0.3626 -0.1537  1.5992
  301MOL0     H40606   3.954   3.317   8.505 -0.6249 -0.3114 -0.0284
  301MOL0     H40607   4.054   3.149   8.380 -1.3006 -0.9020 -0.4048
  301MOL0     H40608   3.964   3.203   8.231  0.2505  1.1512  0.2512
  301MOL0     H40609   3.845   3.127   8.498  0.9463  1.8912 -0.8099
  301MOL0     H40610   3.757   3.151   8.339  1.4458 -0.3037 -3.2739
  301MOL0     H40611   3.797   2.905   8.439  0.1030  1.0233  0.7593
  301MOL0     H40612   3.964   2.926   8.388 -0.0976 -1.7275 -1.3125
  301MOL0     H40613   3.837   3.008   8.153  2.3344  0.8629  0.5543
  301MOL0     H40614   3.891   2.842   8.184 -2.6329 -1.6449 -0.6646
  301MOL0     H40615   4.227   3.889   8.242  4.3721  0.0297 -0.6039
  301MOL0     H40616   4.361   4.080   8.253 -2.0689 -1.7767 -2.4922
  301MOL0     H40617   4.633   4.307   8.508  1.1008 -0.4444  1.9614
  301MOL0     H40618   4.808   4.462   8.553  0.4778 -0.2168 -1.1486
  301MOL0     H40619   6.473   4.375   8.239  2.5837  2.1524  0.0563
  301MOL0     H40620   6.545   4.484   8.053  1.1619 -2.0501  2.2321
  301MOL0     H40621   6.576   4.951   7.881  3.4274 -1.5444 -1.4076
  301MOL0     H40622   6.583   5.115   7.721  1.1874 -0.3298  0.4418
  301MOL0     H40623   6.609   4.991   7.345  2.0468  0.7902  0.6383
  301MOL0     H40624   6.650   5.164   7.347 -0.1380  1.0546  0.0709
  301MOL0     H40625   6.547   5.093   7.135 -1.8869 -0.4807 -2.2803
  301MOL0     H40626   6.432   5.201   7.214  1.1178  0.1341 -0.9589
  301MOL0     H40627   6.297   5.022   7.291  1.9925  0.3304  2.5952
  301MOL0     H40628   6.406   4.896   7.240 -3.4450 -0.5674  0.8144
  301MOL0     H40629   6.382   4.928   7.024 -0.1289  0.0283  0.4752
  301MOL0     H40630   6.216   4.915   7.096 -1.8501  1.3013  2.3757
  301MOL0     H40631   6.231   5.275   6.872 -0.4343  0.5842  1.7569
  301MOL0     H40632   6.445   4.824   7.424  2.4704 -1.3426  0.4308
  301MOL0     H40633   6.310   4.648   7.522 -0.3809 -2.0502 -0.6923
  301MOL0     H40634   6.469   4.585   7.494 -0.2140  1.4743 -0.3433
  301MOL0     H40635   6.396   4.553   7.653  2.8948 -0.2401  0.4253
  302MOL0     O40636   0.722   7.274   0.102 -0.7879 -0.5061 -0.1570
  302MOL0     C40637   0.794   7.287   0.205 -0.4961 -0.7524  0.8104
  302MOL0     O40638   0.891   7.204   0.245  0.2617  0.2040 -0.6668
  302MOL0     C40639   0.897   7.074   0.212  0.0424 -0.1559  1.6511
  302MOL0     C40640   0.825   6.978   0.279 -0.4374  0.3623 -0.0630
  302MOL0     C40641   0.823   6.842   0.242  0.5567 -0.0886 -1.1070
  302MOL0     C40642   0.898   6.811   0.129 -0.3407  1.0828  0.6165
  302MOL0     O40643   0.901   6.682   0.082 -0.2767 -1.1075 -0.2506
  302MOL0     C40644   1.019   6.614   0.128 -0.2189 -0.0711 -0.5187
  302MOL0     C40645   1.001   6.464   0.151 -0.2368  0.2019  0.7656
  302MOL0     C40646   1.121   6.379   0.103  0.5099  0.3259  0.5034
  302MOL0     C40647   1.116   6.229   0.151  1.0578  0.2524  0.1028
  302MOL0     C40648   1.232   6.150   0.080  0.3406  0.1216 -0.8993
  302MOL0     C40649   1.231   6.005   0.150  0.2921  0.0271 -0.5909
  302MOL0     C40650   1.353   5.919   0.129 -0.4425  0.2715  1.3194
  302MOL0     C40651   1.352   5.852  -0.006 -0.1799  0.0399 -0.7866
  302MOL0     N40652   1.267   5.725  -0.006  0.5973 -0.7616  2.1793
  302MOL0     C40653   1.134   5.718  -0.026 -0.3251 -0.2722  0.5245
  302MOL0     C40654   1.106   5.585  -0.046  0.3745 -0.3354 -0.7595
  302MOL0     C40655   0.978   5.522  -0.088 -0.7623  0.2591  0.8256
  302MOL0     C40656   0.908   5.613  -0.177 -0.0716  0.3783 -0.4309
  302MOL0     C40657   0.974   5.646  -0.314 -0.6131  0.1099 -0.0010
  302MOL0     C40658   0.929   5.785  -0.354  0.7545  0.5757  0.2711
  302MOL0     O40659   0.977   5.890  -0.275  0.3406  0.0086  0.4771
  302MOL0     C40660   0.913   6.014  -0.290  0.4167  0.3908  0.7021
  302MOL0     C40661   0.859   6.045  -0.409 -0.4475 -1.6030  0.2690
  302MOL0     C40662   0.807   6.175  -0.429  0.3575  0.9629  0.6900
  302MOL0     C40663   0.816   6.274  -0.336  0.4614  0.2588  0.0380
  302MOL0     C40664   0.764   6.410  -0.375  1.0962 -0.0020  0.1851
  302MOL0     O40665   0.748   6.505  -0.271 -0.1435 -0.3733  0.3621
  302MOL0     C40666   0.693   6.635  -0.279 -1.3105 -0.1558  0.3341
  302MOL0     C40667   0.577   6.683  -0.340 -0.2896  0.4869  0.7289
  302MOL0     C40668   0.529   6.812  -0.322  0.7487 -0.8836  0.1972
  302MOL0     C40669   0.607   6.896  -0.251 -0.6361 -0.1077 -0.4173
  302MOL0     O40670   0.551   7.023  -0.240  0.1349 -0.0234  0.3019
  302MOL0     C40671   0.642   7.133  -0.206  0.1826 -0.2713  0.8631
  302MOL0     C40672   0.731   7.174  -0.332 -0.0234  0.6754  0.3469
  302MOL0     C40673   0.804   7.302  -0.320  0.3320  0.2121 -0.6238
  302MOL0     C40674   0.878   7.326  -0.448  1.1726  0.2872 -0.4258
  302MOL0     C40675   1.001   7.412  -0.433 -0.0613  0.4466 -0.0268
  302MOL0     C40676   1.048   7.479  -0.569 -0.1461  0.2662 -0.6956
  302MOL0     C40677   1.193   7.522  -0.554 -0.6041 -0.8720 -0.1997
  302MOL0     C40678   1.238   7.604  -0.676 -0.4321  0.1600  0.0265
  302MOL0    Cl40679   1.270   7.470  -0.802 -0.0588  0.3392  0.4035
  302MOL0     C40680   0.735   6.862  -0.211 -0.1327 -0.1539  0.1451
  302MOL0     C40681   0.775   6.731  -0.220  0.1700  0.9399  0.6511
  302MOL0     O40682   0.731   6.438  -0.487 -0.5148  0.9803  0.3976
  302MOL0     C40683   0.880   6.250  -0.215 -1.4534 -0.0191  1.3289
  302MOL0     C40684   0.936   6.118  -0.200 -0.1515 -0.1183  0.0357
  302MOL0     N40685   1.230   5.518  -0.025  0.2938  0.9944 -0.0035
  302MOL0     N40686   1.323   5.600  -0.010  0.2896  0.7354 -1.0321
  302MOL0     C40687   0.955   6.902   0.048  0.9239  0.2553  0.6660
  302MOL0     C40688   0.954   7.038   0.087 -0.3908  0.2738 -0.1350
  302MOL0     C40689   0.759   7.409   0.296  0.1447 -0.6589 -0.1575
  302MOL0     C40690   0.803   7.393   0.431  0.4197  0.3261 -0.2474
  302MOL0     C40691   0.781   7.490   0.528  0.5712  0.6604  0.1899
  302MOL0     C40692   0.707   7.603   0.487  0.0348  0.5061  0.2025
  302MOL0     O40693   0.655   7.696   0.576 -0.1124  0.4946 -0.6293
  302MOL0     C40694   0.708   7.694   0.713  0.2602 -0.1591  0.3821
  302MOL0     C40695   0.856   7.739   0.731 -0.0441  0.9176  0.1685
  302MOL0     C40696   0.883   7.878   0.678  0.1865 -0.1571 -1.1580
  302MOL0     C40697   0.981   7.886   0.560  0.0819 -0.1251  0.3181
  302MOL0     C40698   0.913   7.868   0.431 -0.0791 -0.2181 -0.2401
  302MOL0     C40699   0.876   7.881   0.315  0.0888 -0.7038 -0.3825
  302MOL0     C40700   0.653   7.620   0.354  0.0586  0.5494 -0.4982
  302MOL0     C40701   0.690   7.526   0.251  1.1764  0.5834  0.6849
  302MOL0     C40702   0.630   7.545   0.117 -0.5316 -0.0806  0.7364
  302MOL0     H40703   0.776   7.009   0.371  1.6494  0.0819  1.2059
  302MOL0     H40704   0.774   6.765   0.300 -0.1708  0.2061 -1.3186
  302MOL0     H40705   1.103   6.631   0.060  0.0380  0.7842 -0.0095
  302MOL0     H40706   1.039   6.662   0.224 -1.4549 -0.7609  0.1023
  302MOL0     H40707   0.911   6.427   0.101  0.5372 -3.6890  1.9230
  302MOL0     H40708   0.973   6.442   0.254 -5.4511  1.2316 -0.1711
  302MOL0     H40709   1.210   6.427   0.143  1.2432  1.5745 -2.3229
  302MOL0     H40710   1.130   6.384  -0.006  2.8537 -1.2843  0.5424
  302MOL0     H40711   1.127   6.229   0.260  2.1131 -0.0108  0.0109
  302MOL0     H40712   1.025   6.175   0.123  0.5526  1.5841 -0.9279
  302MOL0     H40713   1.201   6.145  -0.025 -1.1444  2.9795 -0.7023
  302MOL0     H40714   1.329   6.200   0.090 -0.5965  2.1261 -1.1987
  302MOL0     H40715   1.243   6.018   0.258 -0.1312  3.1940 -0.8323
  302MOL0     H40716   1.135   5.959   0.125 -0.0828  1.7193 -2.6001
  302MOL0     H40717   1.363   5.845   0.209  1.5958 -1.9110 -0.8054
  302MOL0     H40718   1.443   5.980   0.131 -0.4248  0.2724  0.6097
  302MOL0     H40719   1.314   5.922  -0.080  1.3920  2.8193  0.8881
  302MOL0     H40720   1.450   5.827  -0.047 -0.1190  0.6654 -1.0195
  302MOL0     H40721   1.071   5.807  -0.023  0.6541  0.4187  0.9415
  302MOL0     H40722   1.012   5.433  -0.141 -0.5210 -0.1938  1.7243
  302MOL0     H40723   0.906   5.495  -0.010 -3.2319  2.0640 -0.6965
  302MOL0     H40724   0.812   5.567  -0.203  0.2170 -1.9688  2.1828
  302MOL0     H40725   0.883   5.700  -0.116  1.4395 -0.7730  1.9563
  302MOL0     H40726   0.939   5.576  -0.391 -1.8511 -0.9332  1.4394
  302MOL0     H40727   1.083   5.641  -0.308 -0.6630  0.4781  1.4254
  302MOL0     H40728   0.820   5.778  -0.356  0.8626 -1.9046 -0.3472
  302MOL0     H40729   0.956   5.805  -0.459  1.1969  1.5603  0.5613
  302MOL0     H40730   0.844   5.973  -0.489  0.0935  0.7672 -2.1341
  302MOL0     H40731   0.787   6.192  -0.534  6.0336 -0.1096 -0.9107
  302MOL0     H40732   0.517   6.618  -0.402  1.8615 -0.1000 -0.8407
  302MOL0     H40733   0.428   6.842  -0.349  0.8038  1.2828  2.1020
  302MOL0     H40734   0.579   7.216  -0.171 -1.8135 -2.7368  3.6249
  302MOL0     H40735   0.700   7.102  -0.118 -2.4995 -0.0577  2.8710
  302MOL0     H40736   0.804   7.092  -0.340 -0.7273  0.2156 -3.1080
  302MOL0     H40737   0.667   7.169  -0.421  2.7484  0.2017 -1.7529
  302MOL0     H40738   0.731   7.376  -0.289 -0.7160 -0.2457 -1.8884
  302MOL0     H40739   0.882   7.283  -0.245 -1.1478 -1.5849  0.5435
  302MOL0     H40740   0.803   7.363  -0.519 -0.5353 -2.1053  0.0335
  302MOL0     H40741   0.913   7.230  -0.485  0.5474  0.6939 -2.1541
  302MOL0     H40742   1.086   7.350  -0.401  0.7418  1.9324  0.8216
  302MOL0     H40743   0.984   7.488  -0.357 -2.3481 -0.5848  0.5888
  302MOL0     H40744   1.059   7.400  -0.644 -2.8363 -0.1702 -0.7146
  302MOL0     H40745   0.981   7.561  -0.596  1.8620  1.6651 -1.6823
  302MOL0     H40746   1.257   7.433  -0.551 -0.7293 -1.3782 -4.8437
  302MOL0     H40747   1.198   7.594  -0.472  0.1090  1.5339 -2.2263
  302MOL0     H40748   1.158   7.667  -0.715  0.7801 -0.3682 -3.6423
  302MOL0     H40749   1.333   7.657  -0.663 -0.4314 -0.2485  2.1300
  302MOL0     H40750   0.808   6.920  -0.157  0.8344 -3.0108  2.1639
  302MOL0     H40751   0.870   6.696  -0.182  0.7206 -0.6351 -1.9486
  302MOL0     H40752   0.882   6.325  -0.137  0.1057  2.1386 -0.6617
  302MOL0     H40753   0.981   6.081  -0.108  2.2597 -5.1148 -2.7536
  302MOL0     H40754   1.006   6.863  -0.039 -0.5149 -3.9313  1.4781
  302MOL0     H40755   1.001   7.103   0.013 -2.1631  1.3628 -0.3586
  302MOL0     H40756   0.858   7.308   0.471 -0.9140 -0.2681  0.3912
  302MOL0     H40757   0.810   7.468   0.631  0.2614 -1.1031 -0.0627
  302MOL0     H40758   0.696   7.591   0.749 -1.0735  0.0204  0.4964
  302MOL0     H40759   0.644   7.762   0.770  0.6562 -0.3440  1.0661
  302MOL0     H40760   0.934   7.674   0.692  0.4769  2.7288 -2.0571
  302MOL0     H40761   0.864   7.745   0.840  2.2496 -4.7689  0.6269
  302MOL0     H40762   0.920   7.935   0.764 -1.4251  1.7026 -1.6234
  302MOL0     H40763   0.789   7.930   0.657 -0.0757 -0.4048 -0.6258
  302MOL0     H40764   1.034   7.981   0.566  1.4429 -0.7885 -0.7060
  302MOL0     H40765   1.059   7.809   0.563  0.3811  0.0141 -1.8783
  302MOL0     H40766   0.843   7.883   0.213  1.0736 -1.9599 -0.7417
  302MOL0     H40767   0.593   7.708   0.332 -2.7180 -0.8092  1.1215
  302MOL0     H40768   0.712   7.534   0.045  0.4793 -2.0782  2.1160
  302MOL0     H40769   0.547   7.476   0.101 -0.4057 -0.2198  0.6777
  302MOL0     H40770   0.586   7.645   0.106 -0.3430 -0.2626 -3.4404
  303MOL0     O40771   2.887  10.019   7.724 -0.0661 -0.3057  0.1313
  303MOL0     C40772   2.907  10.140   7.703 -0.0726 -0.2705 -0.2181
  303MOL0     O40773   3.028  10.208   7.736 -0.1862  0.0839 -0.4781
  303MOL0     C40774   3.136  10.161   7.809 -1.2633 -0.0330  0.6267
  303MOL0     C40775   3.168  10.030   7.840  0.6909 -0.4660  0.5232
  303MOL0     C40776   3.273   9.997   7.933  0.3350  0.4526  0.1509
  303MOL0     C40777   3.348  10.098   8.004 -0.5605 -0.2436 -0.0528
  303MOL0     O40778   3.445  10.071   8.099  0.9419 -0.0721  0.6004
  303MOL0     C40779   3.558  10.004   8.046  0.3269 -0.5485 -0.4014
  303MOL0     C40780   3.671  10.104   8.017  0.8145 -0.0926 -0.7530
  303MOL0     C40781   3.723  10.173   8.145 -1.1209 -1.0600 -0.3732
  303MOL0     C40782   3.833  10.263   8.106 -0.9649 -0.6261 -1.3068
  303MOL0     C40783   3.878  10.341   8.230 -0.2799 -0.7701 -0.6033
  303MOL0     C40784   3.965  10.265   8.337 -0.1540  1.1265 -0.3027
  303MOL0     C40785   4.059  10.356   8.419  0.9039  0.2450 -0.0603
  303MOL0     C40786   4.145  10.275   8.525 -0.8681  0.0360  0.8567
  303MOL0     N40787   4.095  10.274   8.666 -0.6724  0.7853  0.3770
  303MOL0     C40788   4.004  10.194   8.727  0.7528 -0.7756 -0.6260
  303MOL0     C40789   4.033  10.224   8.856  0.7718 -0.3023  0.3133
  303MOL0     C40790   3.973  10.142   8.968 -0.0782 -0.5949  0.0811
  303MOL0     C40791   3.818  10.169   8.987 -0.2325  0.8076 -0.7328
  303MOL0     C40792   3.758  10.076   9.097  0.2753  0.5498 -0.6966
  303MOL0     C40793   3.626  10.128   9.154 -0.0439 -0.4919  0.4638
  303MOL0     O40794   3.599  10.109   9.296 -1.0238  0.7692  0.3384
  303MOL0     C40795   3.687  10.166   9.383  0.4985 -0.1408  0.1063
  303MOL0     C40796   3.770  10.279   9.344 -0.4853  0.5005 -0.8458
  303MOL0     C40797   3.860  10.329   9.437 -0.3620  0.0850  0.4043
  303MOL0     C40798   3.878  10.275   9.565 -0.8367 -0.5270 -0.0163
  303MOL0     C40799   3.976  10.337   9.661 -0.4736  0.3547 -0.2390
  303MOL0     O40800   3.980  10.291   9.786  0.3290  0.2140 -0.6735
  303MOL0     C40801   4.072  10.322   9.885 -0.5805 -0.7145  0.7000
  303MOL0     C40802   4.111  10.461   9.919  0.3036  0.7299 -0.0957
  303MOL0     C40803   4.213  10.488  10.005  0.3788 -0.1915  0.1684
  303MOL0     C40804   4.283  10.386  10.073  0.2894 -0.4281 -0.2258
  303MOL0     O40805   4.364  10.409  10.175 -0.9842 -0.5389  0.0340
  303MOL0     C40806   4.409  10.540  10.203  0.3934  0.4461  0.3606
  303MOL0     C40807   4.529  10.528  10.301  0.3832  0.1565 -0.1469
  303MOL0     C40808   4.640  10.443  10.255  0.4176  0.7336 -0.2764
  303MOL0     C40809   4.777  10.508  10.293 -0.7618  0.8059 -0.2265
  303MOL0     C40810   4.889  10.412  10.265  0.0935 -0.3812  0.2035
  303MOL0     C40811   5.021  10.445  10.339 -0.5361 -0.5119  0.4230
  303MOL0     C40812   5.135  10.352  10.291  0.9779 -0.8087  0.4465
  303MOL0     C40813   5.213  10.284  10.405 -0.3887  0.5364  0.6177
  303MOL0    Cl40814   5.332  10.406  10.486  0.2397 -0.2901 -0.6282
  303MOL0     C40815   4.237  10.247  10.044  0.4285 -0.9674 -0.5451
  303MOL0     C40816   4.132  10.220   9.954 -0.1368 -0.4735 -0.7732
  303MOL0     O40817   4.052  10.426   9.616 -0.4589 -0.3502  0.1380
  303MOL0     C40818   3.792  10.173   9.603  0.1371  0.2882 -0.4466
  303MOL0     C40819   3.692  10.128   9.518  0.0755 -0.3211 -0.3641
  303MOL0     N40820   4.133  10.311   8.870  0.1933  0.3306 -0.2431
  303MOL0     N40821   4.177  10.336   8.755  0.0835 -0.3216 -0.4660
  303MOL0     C40822   3.320  10.229   7.964  0.5642  0.1955 -0.4028
  303MOL0     C40823   3.223  10.261   7.861 -0.8562 -0.5275 -0.9942
  303MOL0     C40824   2.808  10.221   7.631  0.0247 -0.8145  0.5848
  303MOL0     C40825   2.838  10.360   7.625 -0.1784 -0.6916 -0.4061
  303MOL0     C40826   2.755  10.452   7.565 -0.4806 -0.8047 -0.1478
  303MOL0     C40827   2.637  10.408   7.501 -0.4736  0.1697 -0.7993
  303MOL0     O40828   2.565  10.510   7.452  0.0193 -0.3593  0.7332
  303MOL0     C40829   2.462  10.487   7.357  0.1774 -0.6092  0.2527
  303MOL0     C40830   2.540  10.440   7.228 -0.0858 -0.4642 -0.2153
  303MOL0     C40831   2.644  10.543   7.178  0.3518  0.6726 -0.4051
  303MOL0     C40832   2.727  10.483   7.069 -0.4921 -0.2712 -0.3577
  303MOL0     C40833   2.644  10.477   6.953  0.1069  0.1203 -0.3212
  303MOL0     C40834   2.577  10.492   6.852  0.7638  0.3184 -0.1879
  303MOL0     C40835   2.609  10.269   7.498  0.1004  0.0181  0.4092
  303MOL0     C40836   2.686  10.176   7.569 -0.2878  0.3497  0.1725
  303MOL0     C40837   2.644  10.033   7.564  0.6682  0.7751  0.6868
  303MOL0     H40838   3.112   9.953   7.788 -1.8176  0.4193  1.7674
  303MOL0     H40839   3.271   9.894   7.969 -0.5812  0.3637 -0.1421
  303MOL0     H40840   3.599   9.938   8.123 -0.1179 -0.6855 -0.2764
  303MOL0     H40841   3.539   9.939   7.960 -0.7589 -0.9610  0.1227
  303MOL0     H40842   3.639  10.180   7.946  2.1118  1.3673  0.1713
  303MOL0     H40843   3.751  10.039   7.979  0.9705 -0.3576  0.0161
  303MOL0     H40844   3.756  10.101   8.220  1.5744 -2.2711 -2.5371
  303MOL0     H40845   3.644  10.240   8.178  0.7767  0.7213  0.7773
  303MOL0     H40846   3.928  10.219   8.072 -1.4908 -0.8167 -2.5921
  303MOL0     H40847   3.796  10.334   8.032 -1.6553  1.0834  0.5832
  303MOL0     H40848   3.923  10.434   8.194 -1.3471 -0.2595 -0.6498
  303MOL0     H40849   3.792  10.380   8.286  2.2777  1.6707  1.9997
  303MOL0     H40850   3.889  10.227   8.407  2.1634 -0.7198  1.3499
  303MOL0     H40851   4.031  10.185   8.303  2.5356  2.6211  1.0458
  303MOL0     H40852   4.002  10.432   8.474 -0.0519 -0.4195 -0.1153
  303MOL0     H40853   4.126  10.412   8.353 -0.4001 -0.8405 -2.4242
  303MOL0     H40854   4.153  10.171   8.491 -1.2625  0.6666 -1.2693
  303MOL0     H40855   4.248  10.310   8.519 -0.5910 -0.8654 -0.0030
  303MOL0     H40856   3.942  10.127   8.669  1.9697 -1.6086 -0.9953
  303MOL0     H40857   3.991  10.035   8.957  2.2926 -0.4612  1.8487
  303MOL0     H40858   4.025  10.176   9.058 -2.0680  2.1166  0.3427
  303MOL0     H40859   3.794  10.274   9.009 -1.6023  0.8408 -2.1766
  303MOL0     H40860   3.774  10.151   8.888  1.4848 -1.0324 -1.2296
  303MOL0     H40861   3.830  10.069   9.179 -2.1860 -1.6664  1.4476
  303MOL0     H40862   3.741   9.970   9.079  0.2637  0.4161  0.0732
  303MOL0     H40863   3.538  10.080   9.110  0.7476 -0.6564 -1.0084
  303MOL0     H40864   3.619  10.234   9.128  2.9858 -0.7455 -1.9484
  303MOL0     H40865   3.770  10.330   9.248 -0.8680 -2.0649 -2.3002
  303MOL0     H40866   3.915  10.418   9.408  1.7052 -0.6977  1.7106
  303MOL0     H40867   4.073  10.544   9.858 -2.2343 -0.1543  0.1490
  303MOL0     H40868   4.240  10.592  10.023 -0.0220 -0.2838  1.3881
  303MOL0     H40869   4.444  10.594  10.114  3.9982  1.6000  2.2727
  303MOL0     H40870   4.334  10.600  10.256  1.4360  1.7038  0.4648
  303MOL0     H40871   4.553  10.635  10.311  1.9519 -0.1591 -0.2170
  303MOL0     H40872   4.488  10.489  10.395 -1.8915 -1.0332 -1.5434
  303MOL0     H40873   4.649  10.344  10.298  2.0193  0.0816 -1.9483
  303MOL0     H40874   4.629  10.423  10.148  0.0001 -1.1795  0.0884
  303MOL0     H40875   4.785  10.536  10.398  3.8283  2.4614 -0.8047
  303MOL0     H40876   4.784  10.606  10.245  0.5448  1.9814  2.1729
  303MOL0     H40877   4.901  10.408  10.157 -2.5995 -3.0574 -0.1234
  303MOL0     H40878   4.866  10.312  10.301 -0.5309 -0.3830 -0.1938
  303MOL0     H40879   5.051  10.547  10.316 -0.2452 -0.8905 -0.9584
  303MOL0     H40880   5.019  10.434  10.448  0.4283  1.6263  0.6997
  303MOL0     H40881   5.203  10.408  10.225 -1.8912 -1.8711 -3.8128
  303MOL0     H40882   5.090  10.279  10.224 -1.6981  2.8931 -2.1699
  303MOL0     H40883   5.143  10.233  10.472 -1.5054  0.2958 -0.6704
  303MOL0     H40884   5.282  10.213  10.360 -0.6372 -0.5238  1.8621
  303MOL0     H40885   4.285  10.171  10.105 -2.8172 -3.8678 -1.2866
  303MOL0     H40886   4.105  10.116   9.942  1.7159 -0.7519 -3.5676
  303MOL0     H40887   3.789  10.139   9.706  1.5224  1.3918 -0.0108
  303MOL0     H40888   3.608  10.062   9.539 -0.1179  0.9218  3.5528
  303MOL0     H40889   3.383  10.310   7.998 -1.9459  3.3446 -2.6256
  303MOL0     H40890   3.191  10.364   7.856 -0.2306 -0.0832  1.9243
  303MOL0     H40891   2.924  10.401   7.677 -1.1630 -1.1985  1.6940
  303MOL0     H40892   2.774  10.559   7.566 -1.4160 -0.5828  2.6493
  303MOL0     H40893   2.413  10.585   7.349  1.5341  0.2899  2.0491
  303MOL0     H40894   2.392  10.410   7.389 -2.4893  0.4902 -2.4377
  303MOL0     H40895   2.467  10.441   7.146  0.7892  1.0602 -1.0238
  303MOL0     H40896   2.584  10.339   7.232  1.3908  0.1670  0.2515
  303MOL0     H40897   2.701  10.596   7.256  3.7588 -1.6974 -1.0319
  303MOL0     H40898   2.585  10.622   7.131 -1.7848  0.0983  1.1950
  303MOL0     H40899   2.805  10.557   7.049 -1.6293  0.8752 -0.6990
  303MOL0     H40900   2.774  10.388   7.094  0.3881  0.0737 -0.6426
  303MOL0     H40901   2.515  10.522   6.770  1.0293 -0.0840 -0.5443
  303MOL0     H40902   2.525  10.240   7.436  2.5859  1.0747 -3.8909
  303MOL0     H40903   2.706   9.973   7.496 -3.3644 -1.2642 -1.5465
  303MOL0     H40904   2.665   9.989   7.662  1.3877  0.5192  0.4252
  303MOL0     H40905   2.543  10.019   7.525 -0.4827  5.1505  1.6059
  304MOL0     O40906   4.041   7.551   8.944 -0.0184 -0.2517  0.3142
  304MOL0     C40907   4.089   7.552   8.831 -0.6253 -0.3426 -0.7316
  304MOL0     O40908   4.036   7.497   8.722  0.2691  0.2235 -0.4859
  304MOL0     C40909   3.910   7.433   8.726 -0.2155 -0.5102  0.0814
  304MOL0     C40910   3.798   7.487   8.785  0.0984 -0.4410  0.8029
  304MOL0     C40911   3.680   7.415   8.781  0.0359  0.4080 -0.1475
  304MOL0     C40912   3.664   7.287   8.729  0.1199 -0.4039 -0.4523
  304MOL0     O40913   3.540   7.226   8.743 -0.5117 -0.5446 -0.7533
  304MOL0     C40914   3.512   7.097   8.684 -0.2914  0.0285  0.1185
  304MOL0     C40915   3.568   6.986   8.776  0.4486  0.6152 -0.1600
  304MOL0     C40916   3.539   6.839   8.725  0.5368 -0.0799  0.0557
  304MOL0     C40917   3.570   6.742   8.840 -0.1459  0.4213 -0.4244
  304MOL0     C40918   3.464   6.734   8.949 -0.0180 -0.5473  0.0961
  304MOL0     C40919   3.524   6.656   9.071  0.5793  0.8444 -0.3029
  304MOL0     C40920   3.437   6.660   9.204 -0.1589  0.2837  0.2647
  304MOL0     C40921   3.296   6.595   9.183 -0.0573 -0.0904 -0.7126
  304MOL0     N40922   3.288   6.451   9.162 -0.3796  0.3225  0.3305
  304MOL0     C40923   3.315   6.398   9.037  0.2568  0.4107  0.1043
  304MOL0     C40924   3.298   6.267   9.049  0.1313 -0.1753  0.0153
  304MOL0     C40925   3.314   6.167   8.937  0.8654 -0.0747 -0.2934
  304MOL0     C40926   3.184   6.134   8.871 -0.4143 -0.9202  0.2542
  304MOL0     C40927   3.213   6.088   8.727 -0.2331 -1.2386  0.6319
  304MOL0     C40928   3.253   6.212   8.631  0.2513 -0.0142 -0.3081
  304MOL0     O40929   3.372   6.185   8.555 -0.5986  0.2592  0.1186
  304MOL0     C40930   3.471   6.282   8.528  0.6426 -0.0566 -0.4192
  304MOL0     C40931   3.450   6.413   8.532 -0.4144 -0.0538  1.0551
  304MOL0     C40932   3.561   6.507   8.522 -0.5405  0.2127  0.0397
  304MOL0     C40933   3.689   6.451   8.518  0.1913  0.2459  0.0486
  304MOL0     C40934   3.814   6.528   8.506 -1.1467 -0.4393  0.5997
  304MOL0     O40935   3.808   6.651   8.551 -1.0319  0.5779 -0.3728
  304MOL0     C40936   3.922   6.728   8.554  1.3727 -0.0984 -0.4036
  304MOL0     C40937   3.930   6.802   8.673 -0.1677 -0.0995  0.0340
  304MOL0     C40938   4.039   6.886   8.687 -0.8653 -0.4356 -0.2663
  304MOL0     C40939   4.144   6.895   8.591 -0.1356 -0.5310 -0.0134
  304MOL0     O40940   4.243   6.984   8.622  0.2971 -0.4117 -0.4683
  304MOL0     C40941   4.297   7.070   8.529 -0.1922  1.1583 -1.0693
  304MOL0     C40942   4.211   7.185   8.480 -0.5196  0.1867 -0.1471
  304MOL0     C40943   4.276   7.276   8.381  0.0255  0.7067 -0.3613
  304MOL0     C40944   4.383   7.358   8.441  0.0870 -0.2823  0.2768
  304MOL0     C40945   4.466   7.432   8.331  0.4902  0.4576 -0.6382
  304MOL0     C40946   4.525   7.552   8.399  0.8732  0.5474  0.2765
  304MOL0     C40947   4.604   7.645   8.310 -0.3408  0.0501  0.6437
  304MOL0     C40948   4.512   7.726   8.222  0.1441 -0.4028  0.0002
  304MOL0    Cl40949   4.414   7.834   8.335  0.0305 -0.2804 -0.6582
  304MOL0     C40950   4.129   6.819   8.482 -0.0265 -0.8246  0.4572
  304MOL0     C40951   4.017   6.739   8.453  0.6265 -0.0598  0.5125
  304MOL0     O40952   3.904   6.484   8.435 -0.0367 -0.2582 -0.1709
  304MOL0     C40953   3.699   6.312   8.490  0.1908 -0.3819  0.7829
  304MOL0     C40954   3.594   6.229   8.493 -0.3596 -0.4281  0.1073
  304MOL0     N40955   3.283   6.241   9.183 -0.1866  0.0538  1.0146
  304MOL0     N40956   3.275   6.353   9.249  0.2600  0.5875  0.1339
  304MOL0     C40957   3.780   7.229   8.673  0.1708 -0.3634 -0.6711
  304MOL0     C40958   3.900   7.305   8.665 -0.7725  1.0840 -1.3672
  304MOL0     C40959   4.227   7.607   8.820 -0.3677  0.2207  0.1714
  304MOL0     C40960   4.260   7.691   8.707 -0.4811  0.0238  0.5174
  304MOL0     C40961   4.385   7.756   8.703  0.6770  0.0484  0.7547
  304MOL0     C40962   4.481   7.735   8.809  0.1465  0.0785 -0.5149
  304MOL0     O40963   4.608   7.777   8.778  0.8797  0.0071  0.3087
  304MOL0     C40964   4.716   7.737   8.859 -0.2921  0.5705 -0.4864
  304MOL0     C40965   4.853   7.778   8.818 -0.3452 -0.9508 -0.2077
  304MOL0     C40966   4.907   7.716   8.688 -0.1243 -0.3260  0.5256
  304MOL0     C40967   5.035   7.805   8.649 -0.0778  0.5337  0.2702
  304MOL0     C40968   5.127   7.715   8.567  0.1456  0.1657  1.0962
  304MOL0     C40969   5.222   7.654   8.528 -0.7906 -0.0605  0.2445
  304MOL0     C40970   4.451   7.648   8.920 -0.8335 -1.2312  1.0164
  304MOL0     C40971   4.325   7.593   8.921  0.1032  0.5460  0.6103
  304MOL0     C40972   4.302   7.495   9.039 -0.2760 -0.3871  0.4421
  304MOL0     H40973   3.797   7.590   8.820  0.2584 -0.3021  0.4012
  304MOL0     H40974   3.584   7.464   8.784  0.6439  1.7032 -0.8682
  304MOL0     H40975   3.405   7.076   8.681  0.1900 -2.9614  1.1501
  304MOL0     H40976   3.559   7.077   8.587 -1.7099 -1.6229 -0.2798
  304MOL0     H40977   3.516   7.014   8.868  2.2869  0.6126  0.9317
  304MOL0     H40978   3.676   6.991   8.791  0.5322 -1.5430  0.4093
  304MOL0     H40979   3.615   6.823   8.648  1.7948  0.5677  1.1206
  304MOL0     H40980   3.440   6.820   8.684  0.3138 -1.9848  1.3560
  304MOL0     H40981   3.577   6.642   8.797  2.7138 -0.6109  2.0437
  304MOL0     H40982   3.665   6.776   8.882 -0.2735  1.3529 -0.8719
  304MOL0     H40983   3.418   6.827   8.983 -0.2114 -0.4329 -0.4589
  304MOL0     H40984   3.378   6.684   8.902 -1.9962  2.6314 -0.0295
  304MOL0     H40985   3.544   6.551   9.049 -0.7300  0.5101  0.0716
  304MOL0     H40986   3.619   6.705   9.096 -0.2352  2.2363  0.1884
  304MOL0     H40987   3.425   6.762   9.243  0.6309 -0.6064  3.0392
  304MOL0     H40988   3.491   6.606   9.282  0.6094  0.9235  0.1933
  304MOL0     H40989   3.236   6.609   9.273  0.5119  1.5340 -0.5461
  304MOL0     H40990   3.239   6.650   9.108  0.9466  1.6705 -0.2465
  304MOL0     H40991   3.349   6.454   8.951 -1.0255  0.8586 -0.1306
  304MOL0     H40992   3.382   6.213   8.864 -1.8042 -0.4053 -3.2002
  304MOL0     H40993   3.344   6.070   8.976 -0.4996 -0.2009  0.5074
  304MOL0     H40994   3.141   6.052   8.928  2.0681  0.2833  4.2115
  304MOL0     H40995   3.117   6.221   8.866  2.2451  1.2152 -1.0181
  304MOL0     H40996   3.122   6.046   8.683  0.3919 -1.0877 -0.8667
  304MOL0     H40997   3.295   6.016   8.722  0.3324 -0.5969  0.4726
  304MOL0     H40998   3.274   6.293   8.701 -0.0745 -2.3028  2.6219
  304MOL0     H40999   3.174   6.231   8.557 -0.1429  1.9509  0.5567
  304MOL0     H41000   3.351   6.458   8.538  1.0454  3.8552 -0.7966
  304MOL0     H41001   3.551   6.615   8.521 -1.8988  0.1291 -2.0671
  304MOL0     H41002   3.849   6.818   8.743 -0.6395 -1.7984 -0.0785
  304MOL0     H41003   4.046   6.940   8.781 -2.5142 -1.8744  0.7471
  304MOL0     H41004   4.390   7.111   8.569  0.4847  0.2775 -1.7032
  304MOL0     H41005   4.337   7.011   8.446  0.8068 -2.3065  1.6387
  304MOL0     H41006   4.118   7.152   8.433 -1.2838 -0.1715  1.5296
  304MOL0     H41007   4.189   7.247   8.567  1.8886  0.8101  0.0950
  304MOL0     H41008   4.309   7.218   8.295 -0.3094 -2.0424  1.2549
  304MOL0     H41009   4.192   7.341   8.354 -1.1080 -0.7992 -0.6093
  304MOL0     H41010   4.455   7.287   8.482  0.4316  0.8023  1.6372
  304MOL0     H41011   4.347   7.425   8.519  0.5292 -2.0205  2.0443
  304MOL0     H41012   4.394   7.477   8.261 -1.8593 -1.3135  0.5017
  304MOL0     H41013   4.529   7.366   8.271  0.2570  1.5349 -2.1484
  304MOL0     H41014   4.449   7.612   8.451 -1.8242 -0.6952 -1.9478
  304MOL0     H41015   4.598   7.511   8.469  1.7822 -2.3301 -2.1732
  304MOL0     H41016   4.670   7.582   8.251 -0.8894  0.9643 -1.0131
  304MOL0     H41017   4.671   7.700   8.378  0.7379  0.3572 -0.6205
  304MOL0     H41018   4.561   7.794   8.152  0.8495 -2.1647 -1.2667
  304MOL0     H41019   4.449   7.666   8.156 -1.3396  1.5976 -0.5035
  304MOL0     H41020   4.205   6.814   8.405  0.0696 -1.9676  0.6131
  304MOL0     H41021   4.003   6.690   8.357  0.9741 -0.3561  0.6159
  304MOL0     H41022   3.797   6.265   8.485  0.9301  1.2483 -0.8848
  304MOL0     H41023   3.609   6.122   8.489 -0.6425 -0.6307  2.5952
  304MOL0     H41024   3.779   7.127   8.635  1.7315 -0.1588 -1.3554
  304MOL0     H41025   3.990   7.252   8.634  1.0876  0.8391  3.5341
  304MOL0     H41026   4.186   7.712   8.630 -1.1838  0.5175  1.3130
  304MOL0     H41027   4.416   7.821   8.622  2.4519  0.9816  2.1336
  304MOL0     H41028   4.716   7.628   8.867 -0.8894  0.6759  1.7948
  304MOL0     H41029   4.704   7.772   8.962 -0.3558  0.5185 -0.4758
  304MOL0     H41030   4.939   7.762   8.884 -1.0413  0.2100  1.0434
  304MOL0     H41031   4.856   7.886   8.803  0.5938 -1.3580 -3.9494
  304MOL0     H41032   4.837   7.721   8.604 -1.6130  0.9241  1.7706
  304MOL0     H41033   4.940   7.616   8.716 -1.2840 -0.3180  2.0739
  304MOL0     H41034   5.013   7.895   8.592 -1.7219  1.7555  2.6505
  304MOL0     H41035   5.090   7.833   8.739  0.1466  0.6467  0.0973
  304MOL0     H41036   5.312   7.605   8.498  0.7255  2.4430  0.4191
  304MOL0     H41037   4.522   7.634   9.001  2.7671  0.7496 -1.5143
  304MOL0     H41038   4.235   7.538   9.115 -2.0730 -1.2935 -0.5622
  304MOL0     H41039   4.249   7.405   9.008 -0.5831 -0.2603  0.5928
  304MOL0     H41040   4.392   7.471   9.096 -1.7307 -2.1116  2.1508
  305MOL0     O41041   6.677   2.114   0.297  0.0920 -0.6966 -0.4416
  305MOL0     C41042   6.599   2.070   0.212  0.4618 -0.5983  0.1464
  305MOL0     O41043   6.615   1.951   0.140  0.4748 -0.1721  0.2206
  305MOL0     C41044   6.727   1.875   0.154  0.4817 -0.3240 -0.5978
  305MOL0     C41045   6.793   1.852   0.279  0.2322 -0.1869 -0.3693
  305MOL0     C41046   6.906   1.763   0.283  0.7686 -1.1492 -0.0611
  305MOL0     C41047   6.942   1.699   0.168  0.1298 -0.1672 -0.5287
  305MOL0     O41048   7.044   1.611   0.178  0.1066 -0.5594 -0.7766
  305MOL0     C41049   7.168   1.664   0.117  0.2937  0.1296 -0.1631
  305MOL0     C41050   7.272   1.546   0.129 -1.0289 -0.5357 -0.0048
  305MOL0     C41051   7.301   1.505   0.269  0.4085  0.3377 -0.4547
  305MOL0     C41052   7.429   1.412   0.260  0.3863  0.4325 -0.6017
  305MOL0     C41053   7.541   1.425   0.364  0.7452 -0.1224  0.1052
  305MOL0     C41054   7.500   1.396   0.507  0.9344  0.6093 -0.1807
  305MOL0     C41055   7.458   1.244   0.518  0.1719 -0.2899  0.5319
  305MOL0     C41056   7.572   1.143   0.540  0.4120  0.5147  0.3765
  305MOL0     N41057   7.603   1.116   0.681  0.8297 -0.4692  0.9167
  305MOL0     C41058   7.693   1.176   0.757  0.5022  0.1681  0.2497
  305MOL0     C41059   7.679   1.131   0.883 -0.2613 -0.4591 -0.2437
  305MOL0     C41060   7.785   1.150   0.999 -0.0919  0.4016 -0.5090
  305MOL0     C41061   7.721   1.119   1.136 -0.9915  0.4364  0.1416
  305MOL0     C41062   7.815   1.152   1.248  0.2770  1.0070  0.2571
  305MOL0     C41063   7.743   1.171   1.382  0.6392 -0.5324 -0.3904
  305MOL0     O41064   7.669   1.297   1.370 -0.1562  0.1765 -0.1053
  305MOL0     C41065   7.600   1.348   1.474  0.4068 -0.6832 -0.1192
  305MOL0     C41066   7.531   1.469   1.463 -0.5952  0.9121 -0.1624
  305MOL0     C41067   7.457   1.524   1.567 -0.1541 -0.1463 -0.5832
  305MOL0     C41068   7.433   1.456   1.686  0.6278  0.5792 -0.6602
  305MOL0     C41069   7.329   1.496   1.774  0.0020  0.2373  0.5419
  305MOL0     O41070   7.248   1.600   1.741  0.1904  0.0232 -0.4415
  305MOL0     C41071   7.136   1.628   1.825  0.4418 -0.2169  0.2310
  305MOL0     C41072   7.013   1.603   1.770  0.5055 -0.0189 -0.3043
  305MOL0     C41073   6.903   1.612   1.850  0.3395 -0.4320 -0.0040
  305MOL0     C41074   6.917   1.655   1.982  0.2630 -0.4683  0.2131
  305MOL0     O41075   6.811   1.667   2.069  0.0993  0.3193 -0.4274
  305MOL0     C41076   6.692   1.581   2.059  0.6867  0.1579 -0.3375
  305MOL0     C41077   6.565   1.661   1.994 -1.8226  0.5053 -0.2429
  305MOL0     C41078   6.440   1.564   1.988  0.5762 -0.6584  0.9835
  305MOL0     C41079   6.378   1.560   2.131  0.3934  0.3865 -0.8721
  305MOL0     C41080   6.243   1.477   2.141 -0.3981 -0.4390  0.1378
  305MOL0     C41081   6.242   1.334   2.083 -0.3523 -0.6274 -1.1031
  305MOL0     C41082   6.361   1.239   2.132  0.3050 -0.1171 -0.5178
  305MOL0     C41083   6.365   1.095   2.070  0.0794  0.2612  0.5899
  305MOL0    Cl41084   6.474   1.103   1.926  0.4236 -0.0934  0.0490
  305MOL0     C41085   7.044   1.684   2.037 -0.1666 -0.0964 -0.2542
  305MOL0     C41086   7.149   1.676   1.955  0.1660  0.4276  0.6127
  305MOL0     O41087   7.317   1.432   1.877 -1.3021  0.1728 -0.2957
  305MOL0     C41088   7.488   1.336   1.697 -0.6700  1.3090 -0.7570
  305MOL0     C41089   7.567   1.276   1.599  0.0825 -0.1444  0.1816
  305MOL0     N41090   7.572   1.032   0.887  0.0222  0.1727 -0.3077
  305MOL0     N41091   7.530   1.025   0.765 -0.1931 -0.0107 -0.9017
  305MOL0     C41092   6.873   1.718   0.046 -0.1425 -0.6228 -0.0996
  305MOL0     C41093   6.769   1.807   0.044  0.8443 -0.3998  0.9857
  305MOL0     C41094   6.479   2.150   0.177  0.7446  0.3467  0.5768
  305MOL0     C41095   6.406   2.103   0.065  0.2579 -0.8229  0.0391
  305MOL0     C41096   6.294   2.160   0.018 -0.2597 -0.0038 -0.1297
  305MOL0     C41097   6.252   2.282   0.059  0.1222 -0.5692 -0.3831
  305MOL0     O41098   6.129   2.329   0.025 -0.0089  0.2966 -0.0583
  305MOL0     C41099   6.118   2.470  -0.009 -0.2956 -0.7479  0.1129
  305MOL0     C41100   5.995   2.529   0.073 -0.2565  0.4711 -0.4467
  305MOL0     C41101   6.023   2.668   0.138 -0.3946  0.9639 -0.3419
  305MOL0     C41102   6.104   2.760   0.049  0.1177  0.5262 -0.9384
  305MOL0     C41103   6.078   2.897   0.086 -0.5823 -0.4964 -0.2773
  305MOL0     C41104   6.060   3.015   0.122  0.4176 -0.0871  1.6214
  305MOL0     C41105   6.320   2.330   0.169  0.4711 -1.1547  0.4991
  305MOL0     C41106   6.433   2.263   0.235  0.5833  0.4287 -0.0292
  305MOL0     C41107   6.494   2.324   0.354 -0.2357  0.3268 -0.5059
  305MOL0     H41108   6.763   1.897   0.373  1.9438 -1.6447  0.9592
  305MOL0     H41109   6.959   1.739   0.375  0.0519  0.0853  0.7003
  305MOL0     H41110   7.141   1.700   0.017 -2.9012 -0.3594  0.3950
  305MOL0     H41111   7.206   1.752   0.172 -1.2184 -0.0234  1.2199
  305MOL0     H41112   7.358   1.601   0.090 -2.2368  2.3075  1.0238
  305MOL0     H41113   7.239   1.458   0.075 -2.3934 -0.4672  0.6709
  305MOL0     H41114   7.224   1.444   0.316  0.2615  1.3415  0.6604
  305MOL0     H41115   7.323   1.593   0.331  0.0522 -0.7954  1.3470
  305MOL0     H41116   7.413   1.304   0.264  3.0925 -0.0141  0.3026
  305MOL0     H41117   7.477   1.425   0.163  2.4930 -1.7346  0.0548
  305MOL0     H41118   7.607   1.345   0.330  1.8294 -0.1166  2.0682
  305MOL0     H41119   7.593   1.521   0.352 -2.8786  2.2662  1.9202
  305MOL0     H41120   7.582   1.416   0.576  0.5707 -1.3541  0.8942
  305MOL0     H41121   7.417   1.459   0.541  3.1514  2.0516  3.0207
  305MOL0     H41122   7.401   1.199   0.436  2.2518 -3.6118  0.7513
  305MOL0     H41123   7.403   1.237   0.612  2.4584 -0.8225  1.8997
  305MOL0     H41124   7.539   1.053   0.486  3.8189  0.2212 -1.4981
  305MOL0     H41125   7.662   1.185   0.495  1.2142  2.3350  3.4101
  305MOL0     H41126   7.761   1.249   0.714 -0.4510 -0.2770 -2.1411
  305MOL0     H41127   7.874   1.086   0.996 -0.9997 -1.0995  1.8360
  305MOL0     H41128   7.811   1.256   1.008 -2.6236  0.8812  3.2800
  305MOL0     H41129   7.626   1.172   1.147 -0.9701  0.4119  0.4384
  305MOL0     H41130   7.701   1.011   1.131  1.3478 -0.1449  1.7930
  305MOL0     H41131   7.859   1.250   1.229  2.7418 -0.3061 -1.2856
  305MOL0     H41132   7.894   1.077   1.251 -2.0311 -1.7856 -2.2636
  305MOL0     H41133   7.804   1.189   1.471  1.3954  0.5162 -1.0948
  305MOL0     H41134   7.684   1.085   1.416 -0.4047  0.7986  1.3410
  305MOL0     H41135   7.534   1.508   1.362 -1.4022  2.2173  0.3010
  305MOL0     H41136   7.412   1.621   1.551  2.9881  1.3988 -0.9645
  305MOL0     H41137   6.984   1.568   1.672 -0.2872 -1.3641  0.3786
  305MOL0     H41138   6.806   1.588   1.808  0.3487 -1.8484  0.7357
  305MOL0     H41139   6.708   1.504   1.983 -0.3684  0.4329 -0.8419
  305MOL0     H41140   6.674   1.527   2.152 -1.8875 -1.1478 -1.5118
  305MOL0     H41141   6.553   1.762   2.034 -0.4448  1.1898 -1.4613
  305MOL0     H41142   6.593   1.680   1.891 -2.6181 -3.1722 -1.2827
  305MOL0     H41143   6.366   1.613   1.925 -0.4056 -1.0860  1.7669
  305MOL0     H41144   6.457   1.465   1.945 -5.5418 -1.7179  0.0866
  305MOL0     H41145   6.342   1.658   2.164 -2.5770 -0.7094 -0.5125
  305MOL0     H41146   6.447   1.516   2.203  0.2917 -0.8478 -1.4932
  305MOL0     H41147   6.161   1.530   2.091  0.8378  1.0026 -0.4345
  305MOL0     H41148   6.214   1.472   2.247 -0.7035  1.6613  0.2024
  305MOL0     H41149   6.146   1.295   2.118  0.1564  1.2967  3.0567
  305MOL0     H41150   6.238   1.337   1.974 -0.3125 -1.8124 -1.1515
  305MOL0     H41151   6.359   1.236   2.241  0.9553 -2.6772 -0.5185
  305MOL0     H41152   6.460   1.278   2.107  0.9229 -0.3119  1.4808
  305MOL0     H41153   6.416   1.038   2.148 -2.0745 -1.1133  1.0653
  305MOL0     H41154   6.272   1.046   2.041  1.2465 -2.0496  0.5284
  305MOL0     H41155   7.057   1.723   2.137 -0.7241 -0.6507  0.0431
  305MOL0     H41156   7.249   1.699   1.992  1.1026  1.3803 -2.2692
  305MOL0     H41157   7.468   1.274   1.784  2.2125 -0.2258 -1.0727
  305MOL0     H41158   7.586   1.172   1.623  0.3443  0.2112  1.5933
  305MOL0     H41159   6.901   1.664  -0.043  0.1436  1.7670 -1.5397
  305MOL0     H41160   6.707   1.819  -0.044 -0.3240 -2.0304  1.5473
  305MOL0     H41161   6.437   2.005   0.031  0.3400 -0.7381 -0.1341
  305MOL0     H41162   6.227   2.106  -0.048 -0.0399 -0.0391 -0.3258
  305MOL0     H41163   6.102   2.468  -0.117 -3.2997 -5.1738  0.3558
  305MOL0     H41164   6.210   2.520   0.023  0.5654 -1.9566 -0.4065
  305MOL0     H41165   5.966   2.467   0.159  0.5627  1.9473  0.9581
  305MOL0     H41166   5.902   2.534   0.017 -0.5273 -0.6850 -0.1371
  305MOL0     H41167   6.067   2.651   0.236 -2.1404  1.5971  0.5973
  305MOL0     H41168   5.929   2.718   0.163 -0.0023  2.3977 -1.5966
  305MOL0     H41169   6.212   2.743   0.061 -0.0956 -0.2750  0.1060
  305MOL0     H41170   6.091   2.745  -0.058  1.2049 -2.3925 -0.7682
  305MOL0     H41171   6.047   3.120   0.139  0.7345  0.1212  0.6266
  305MOL0     H41172   6.273   2.416   0.216 -0.0727 -1.6077  0.8080
  305MOL0     H41173   6.473   2.260   0.441  3.3016 -0.1133  0.1998
  305MOL0     H41174   6.602   2.343   0.349 -0.1440  0.6296  1.5851
  305MOL0     H41175   6.448   2.422   0.370 -1.4360 -0.3487  0.3261
  306MOL0     O41176   5.286   4.328   3.504 -0.1328  0.6412  0.9101
  306MOL0     C41177   5.283   4.236   3.580 -0.5959  0.4287  0.9213
  306MOL0     O41178   5.371   4.201   3.678 -0.3618  0.0718  0.2144
  306MOL0     C41179   5.487   4.276   3.708 -0.4561  0.3069 -1.2828
  306MOL0     C41180   5.605   4.220   3.751 -0.5202 -0.3997 -0.0893
  306MOL0     C41181   5.728   4.285   3.761  0.4655 -0.9070 -0.0680
  306MOL0     C41182   5.728   4.433   3.748 -1.0836  0.1135  1.0162
  306MOL0     O41183   5.850   4.500   3.748 -0.4800  0.5812 -0.3009
  306MOL0     C41184   5.948   4.473   3.846 -0.2006 -0.8135 -0.3360
  306MOL0     C41185   6.076   4.519   3.793 -0.5835 -0.0231 -0.3913
  306MOL0     C41186   6.119   4.467   3.652 -0.8905 -0.8581 -0.2614
  306MOL0     C41187   6.265   4.514   3.631  0.2850  0.3510 -0.3447
  306MOL0     C41188   6.324   4.475   3.486  0.6560 -0.9966 -0.2630
  306MOL0     C41189   6.260   4.552   3.367  0.2562  0.1243 -0.1327
  306MOL0     C41190   6.362   4.550   3.259  0.5819  0.2576 -0.1442
  306MOL0     C41191   6.411   4.690   3.209  0.1998 -0.1856 -0.2914
  306MOL0     N41192   6.495   4.764   3.305 -0.6875  0.0164 -0.1710
  306MOL0     C41193   6.635   4.807   3.298 -0.2578  0.1643  0.9359
  306MOL0     C41194   6.644   4.908   3.390  0.0702 -0.5640  0.3407
  306MOL0     C41195   6.765   4.984   3.429  0.3163 -0.2556 -0.8019
  306MOL0     C41196   6.747   5.136   3.430 -0.7896 -0.1013 -0.0318
  306MOL0     C41197   6.733   5.188   3.289 -0.3332 -0.3132  0.2419
  306MOL0     C41198   6.799   5.321   3.274 -1.0435 -1.4619  0.7853
  306MOL0     O41199   6.940   5.315   3.311 -0.0412 -0.2386 -0.0290
  306MOL0     C41200   7.030   5.227   3.249  0.3908 -0.6551 -0.2810
  306MOL0     C41201   7.013   5.182   3.115  0.0904  0.7060 -0.2960
  306MOL0     C41202   7.084   5.076   3.055  0.5030  0.1764  0.0712
  306MOL0     C41203   7.195   5.022   3.121  0.5598  0.1473 -0.0213
  306MOL0     C41204   7.255   4.901   3.056 -0.0195 -0.0474 -0.9658
  306MOL0     O41205   7.224   4.875   2.926 -0.5691 -0.5766 -0.4276
  306MOL0     C41206   7.269   4.755   2.875  0.3553  0.0538  0.6289
  306MOL0     C41207   7.395   4.696   2.885 -0.7067  0.2793  0.5319
  306MOL0     C41208   7.413   4.564   2.832 -0.1408  0.6670  0.2710
  306MOL0     C41209   7.312   4.500   2.758 -1.1169  0.1200 -0.1485
  306MOL0     O41210   7.315   4.376   2.707  0.3004  0.3919  0.4772
  306MOL0     C41211   7.442   4.320   2.686 -0.2281  0.5171 -0.5677
  306MOL0     C41212   7.415   4.184   2.612  0.8290  0.3460 -0.0970
  306MOL0     C41213   7.536   4.109   2.563  0.2320  0.7205 -0.0905
  306MOL0     C41214   7.612   4.190   2.462  0.4323 -0.4145  0.0973
  306MOL0     C41215   7.686   4.099   2.357  0.3285  0.1831  0.6690
  306MOL0     C41216   7.811   4.025   2.405  1.3499 -0.2559  0.7634
  306MOL0     C41217   7.773   3.875   2.434 -0.2242 -0.5388  0.0594
  306MOL0     C41218   7.891   3.784   2.454  0.4466  0.7403 -0.2561
  306MOL0    Cl41219   7.819   3.613   2.464 -0.4978 -0.4487  0.0351
  306MOL0     C41220   7.187   4.560   2.750  0.2564 -0.2500  0.4018
  306MOL0     C41221   7.172   4.691   2.804  0.1559  0.6380 -0.4199
  306MOL0     O41222   7.345   4.856   3.122  0.7711  0.4373  0.4590
  306MOL0     C41223   7.228   5.078   3.245  0.6973 -0.4612 -0.1199
  306MOL0     C41224   7.142   5.170   3.314 -0.0439  0.5794  0.8520
  306MOL0     N41225   6.525   4.925   3.459 -1.2350 -0.0048 -0.3567
  306MOL0     N41226   6.437   4.840   3.403  0.2030  0.5232 -0.3141
  306MOL0     C41227   5.616   4.498   3.702  0.0391  0.5750 -0.3617
  306MOL0     C41228   5.492   4.422   3.697 -1.0270  0.8545 -1.0358
  306MOL0     C41229   5.167   4.140   3.576  0.4598 -0.1205 -1.0512
  306MOL0     C41230   5.212   4.007   3.544  0.1937  0.9731  0.2103
  306MOL0     C41231   5.122   3.903   3.529 -0.2009  0.0961  1.1099
  306MOL0     C41232   4.984   3.930   3.547  0.4022  0.4906 -0.3221
  306MOL0     O41233   4.901   3.821   3.546  0.9912 -0.1949  1.2282
  306MOL0     C41234   4.770   3.832   3.604  0.9094 -0.5062  0.0361
  306MOL0     C41235   4.775   3.822   3.757 -0.5332 -0.0015 -0.5993
  306MOL0     C41236   4.637   3.794   3.819 -0.1295  0.0807 -1.0794
  306MOL0     C41237   4.631   3.750   3.970 -0.4547  0.0213 -0.1068
  306MOL0     C41238   4.702   3.833   4.067  0.8964  1.3543 -0.3321
  306MOL0     C41239   4.780   3.911   4.120  0.5291 -0.6797  0.2644
  306MOL0     C41240   4.938   4.069   3.570 -0.0911  0.2991 -0.1869
  306MOL0     C41241   5.031   4.174   3.580 -0.8236  0.7391 -0.9784
  306MOL0     C41242   4.976   4.307   3.593 -0.2608 -0.2391 -0.8205
  306MOL0     H41243   5.604   4.116   3.780 -0.2177 -0.6312 -0.8808
  306MOL0     H41244   5.819   4.229   3.782  0.4141 -0.1304  2.7175
  306MOL0     H41245   5.905   4.520   3.935 -1.3604 -1.1223 -0.7170
  306MOL0     H41246   5.960   4.366   3.865 -0.3949 -0.8345 -0.3292
  306MOL0     H41247   6.149   4.501   3.872 -1.3717  2.0119  0.8691
  306MOL0     H41248   6.069   4.627   3.785  0.4473  0.1127  0.3836
  306MOL0     H41249   6.057   4.523   3.582  0.2331 -0.2081 -0.7731
  306MOL0     H41250   6.112   4.358   3.650  2.7469 -1.2275 -2.1304
  306MOL0     H41251   6.270   4.622   3.642  0.7607  0.5673 -2.2961
  306MOL0     H41252   6.332   4.470   3.706 -0.8432 -1.3878 -0.2921
  306MOL0     H41253   6.427   4.510   3.495  0.4311  0.3738 -2.4042
  306MOL0     H41254   6.317   4.367   3.469 -1.4930 -0.7573 -1.2827
  306MOL0     H41255   6.167   4.498   3.348 -1.2750  1.3631  3.0052
  306MOL0     H41256   6.222   4.652   3.389  1.4128  0.1661  1.9794
  306MOL0     H41257   6.302   4.500   3.182 -1.7252  1.6560  0.6702
  306MOL0     H41258   6.450   4.488   3.278  0.4118  1.1894  4.8405
  306MOL0     H41259   6.454   4.678   3.109  2.1739 -0.1560  0.5087
  306MOL0     H41260   6.325   4.756   3.203 -1.4146 -2.1541  0.1583
  306MOL0     H41261   6.708   4.757   3.235 -0.1581  1.7007 -0.2063
  306MOL0     H41262   6.800   4.951   3.527  0.9838  1.4453 -0.4394
  306MOL0     H41263   6.847   4.967   3.359  1.1317  0.6481 -0.0908
  306MOL0     H41264   6.665   5.174   3.492 -0.8394  0.1060 -0.2198
  306MOL0     H41265   6.840   5.174   3.474 -0.2989 -0.9092 -0.3568
  306MOL0     H41266   6.625   5.203   3.278 -0.3476 -1.6033 -1.8162
  306MOL0     H41267   6.779   5.132   3.208 -0.5549  2.2259 -1.7734
  306MOL0     H41268   6.749   5.389   3.343  0.8533  3.2342 -1.9541
  306MOL0     H41269   6.763   5.370   3.183  0.2448 -0.5760  0.7248
  306MOL0     H41270   6.930   5.218   3.054 -1.0073 -0.8808  0.2234
  306MOL0     H41271   7.056   5.054   2.953 -0.3179  2.6788 -0.3291
  306MOL0     H41272   7.482   4.739   2.935 -0.2167 -1.4512  1.2197
  306MOL0     H41273   7.511   4.522   2.855  0.7118  2.4598  0.1062
  306MOL0     H41274   7.508   4.389   2.632  2.0125 -1.0500  0.0417
  306MOL0     H41275   7.493   4.289   2.778 -1.9234 -1.9586 -0.3698
  306MOL0     H41276   7.356   4.112   2.670 -0.0644 -1.6787 -3.2278
  306MOL0     H41277   7.343   4.205   2.532  0.0313  0.3753  0.6065
  306MOL0     H41278   7.591   4.066   2.648 -1.3886 -2.3103 -0.4152
  306MOL0     H41279   7.506   4.020   2.506  1.4074  0.0944  0.2214
  306MOL0     H41280   7.684   4.261   2.504 -0.4271  0.6097 -0.1158
  306MOL0     H41281   7.544   4.255   2.406  2.1540  2.0420  0.6776
  306MOL0     H41282   7.721   4.166   2.279  0.3099 -1.4699 -0.8359
  306MOL0     H41283   7.621   4.035   2.297  2.7617 -1.5524 -0.2679
  306MOL0     H41284   7.879   4.026   2.319 -1.8356 -2.2579 -2.0593
  306MOL0     H41285   7.847   4.066   2.500 -1.3514 -0.2904  1.9053
  306MOL0     H41286   7.714   3.835   2.351 -1.5024  1.3975 -0.0148
  306MOL0     H41287   7.715   3.881   2.526 -0.8641 -0.3172 -0.3506
  306MOL0     H41288   7.952   3.778   2.363 -0.3813 -1.2352 -0.7460
  306MOL0     H41289   7.951   3.814   2.540  1.2669  1.8047 -1.1814
  306MOL0     H41290   7.102   4.511   2.703  0.6684  1.5345 -2.4948
  306MOL0     H41291   7.070   4.728   2.799 -1.3372 -2.1517  3.9156
  306MOL0     H41292   7.312   5.049   3.307 -0.8239 -1.5438  1.5515
  306MOL0     H41293   7.155   5.206   3.415 -0.3138  2.2427  0.3291
  306MOL0     H41294   5.612   4.606   3.696 -0.2835  1.0314  4.4210
  306MOL0     H41295   5.411   4.490   3.669 -0.0256  3.0935  1.1209
  306MOL0     H41296   5.316   3.981   3.530 -0.3033 -0.9594 -0.2835
  306MOL0     H41297   5.163   3.803   3.520  0.5568  0.2858  2.2363
  306MOL0     H41298   4.707   3.754   3.562 -2.0137  1.6755  0.0577
  306MOL0     H41299   4.720   3.928   3.588 -0.3173 -1.2159 -0.4839
  306MOL0     H41300   4.805   3.917   3.802 -0.2153 -0.0065 -0.8016
  306MOL0     H41301   4.838   3.741   3.797 -1.7348 -0.5815  0.1740
  306MOL0     H41302   4.590   3.720   3.754  1.4268 -1.2675 -0.7487
  306MOL0     H41303   4.593   3.894   3.811  2.2513  1.3431  0.3195
  306MOL0     H41304   4.528   3.748   4.005  0.1154  2.0432  1.9581
  306MOL0     H41305   4.670   3.648   3.979  0.3986  0.3555  0.0967
  306MOL0     H41306   4.866   3.945   4.174  1.3240 -1.9075 -0.1831
  306MOL0     H41307   4.837   4.103   3.584  0.2208  1.7715 -1.2773
  306MOL0     H41308   5.037   4.375   3.653 -2.1943 -2.3113  3.9788
  306MOL0     H41309   4.961   4.343   3.491 -1.7391  1.2041 -0.1529
  306MOL0     H41310   4.892   4.313   3.664  0.6729  0.7742  0.2391
  307MOL0     O41311   3.197   4.682   9.633 -0.0128 -0.9771  0.6618
  307MOL0     C41312   3.114   4.602   9.664  0.2841 -0.2102 -0.2747
  307MOL0     O41313   3.117   4.470   9.649 -0.7633 -0.0663  1.1212
  307MOL0     C41314   3.242   4.407   9.623 -0.3911  0.0984  0.1844
  307MOL0     C41315   3.340   4.395   9.724  0.4612  0.2210  1.1166
  307MOL0     C41316   3.451   4.312   9.701  0.0353 -0.9140  0.7049
  307MOL0     C41317   3.470   4.238   9.578  0.7428  0.8159 -0.6379
  307MOL0     O41318   3.580   4.168   9.543 -0.8138  0.6852 -0.6344
  307MOL0     C41319   3.682   4.127   9.643  0.3978  0.7754  0.6737
  307MOL0     C41320   3.728   3.993   9.587 -0.1575  0.0157 -0.3588
  307MOL0     C41321   3.867   3.942   9.636  0.0869 -0.5348 -0.1487
  307MOL0     C41322   3.976   3.939   9.527 -0.6341 -0.3601 -0.5022
  307MOL0     C41323   4.009   4.078   9.473  0.3704 -0.4590 -0.2325
  307MOL0     C41324   4.113   4.055   9.356  0.3324  0.5191 -0.1581
  307MOL0     C41325   4.255   4.008   9.402  0.6383 -0.4375  0.2659
  307MOL0     C41326   4.274   3.861   9.352 -0.5815 -0.7043  0.1667
  307MOL0     N41327   4.396   3.787   9.399 -1.2410 -0.3115  0.7308
  307MOL0     C41328   4.523   3.798   9.346  0.2091 -0.0131  1.1432
  307MOL0     C41329   4.606   3.740   9.432 -0.5554  0.3459 -0.0637
  307MOL0     C41330   4.756   3.756   9.434 -0.3129  0.2187 -0.6215
  307MOL0     C41331   4.818   3.858   9.531 -0.1779 -0.2853 -0.0799
  307MOL0     C41332   4.967   3.838   9.510 -0.8438 -0.4879  0.5570
  307MOL0     C41333   5.035   3.964   9.570 -0.1108  0.0590 -0.6873
  307MOL0     O41334   5.151   3.987   9.499  0.0948 -0.3701  0.3550
  307MOL0     C41335   5.247   4.082   9.537  1.2108  0.6645 -0.0515
  307MOL0     C41336   5.234   4.172   9.646  0.0967 -0.4585 -0.5131
  307MOL0     C41337   5.335   4.257   9.673 -1.3957 -0.7761  0.7270
  307MOL0     C41338   5.462   4.258   9.604  0.0405 -0.2526 -0.6323
  307MOL0     C41339   5.571   4.345   9.654  0.0287  0.2692  1.0651
  307MOL0     O41340   5.687   4.339   9.583 -0.0494  0.0870  0.1807
  307MOL0     C41341   5.806   4.404   9.626 -0.2309 -0.4162  0.1543
  307MOL0     C41342   5.917   4.343   9.595 -0.7300 -0.2346 -0.1362
  307MOL0     C41343   6.042   4.388   9.628  0.2783 -0.2428 -0.3699
  307MOL0     C41344   6.057   4.505   9.701 -0.0309  0.4639 -0.4646
  307MOL0     O41345   6.185   4.547   9.730  0.5978 -0.1803 -0.4944
  307MOL0     C41346   6.213   4.673   9.793  0.7223  1.2026  0.7840
  307MOL0     C41347   6.363   4.669   9.801 -0.8185 -0.2951  0.0481
  307MOL0     C41348   6.428   4.791   9.870  1.4094  0.8620 -0.8430
  307MOL0     C41349   6.576   4.777   9.856  0.0811  0.1482 -0.1828
  307MOL0     C41350   6.648   4.892   9.939 -0.4994  0.2339  0.6517
  307MOL0     C41351   6.665   5.020   9.861  0.8237  0.2426 -0.5891
  307MOL0     C41352   6.770   5.016   9.757 -0.6055  0.2957  0.4162
  307MOL0     C41353   6.782   5.155   9.683 -0.4368  0.0256  0.2376
  307MOL0    Cl41354   6.627   5.200   9.612 -0.3994 -0.2120  0.0071
  307MOL0     C41355   5.936   4.577   9.733 -0.2314 -0.2184 -0.2037
  307MOL0     C41356   5.817   4.529   9.690 -0.7719  0.4492 -0.4496
  307MOL0     O41357   5.563   4.386   9.766 -0.0810 -0.2383 -0.3144
  307MOL0     C41358   5.460   4.183   9.483 -1.2032  0.0375  0.4032
  307MOL0     C41359   5.361   4.092   9.449  0.2368  0.5493  0.5207
  307MOL0     N41360   4.532   3.676   9.528  0.4406 -0.8103  0.1592
  307MOL0     N41361   4.410   3.721   9.510  0.4419  0.0451 -0.5109
  307MOL0     C41362   3.367   4.256   9.476 -1.0334 -0.3703  0.9587
  307MOL0     C41363   3.255   4.335   9.501 -0.4888  0.2944 -0.6371
  307MOL0     C41364   2.992   4.641   9.735  0.0491  0.0770  0.3334
  307MOL0     C41365   2.965   4.568   9.854  0.6084  0.6724 -0.1365
  307MOL0     C41366   2.859   4.595   9.945 -0.5062 -0.1110  0.4938
  307MOL0     C41367   2.766   4.692   9.908  0.6249  0.0763  0.7759
  307MOL0     O41368   2.667   4.720   9.998  0.1321 -0.6025  0.4849
  307MOL0     C41369   2.582   4.828   9.960 -0.1917  0.0024 -1.0387
  307MOL0     C41370   2.467   4.830  10.048 -0.5240  0.6414  0.0904
  307MOL0     C41371   2.389   4.958  10.019 -0.4567 -0.2395  0.8865
  307MOL0     C41372   2.242   4.983  10.074  0.8325 -0.1809 -0.5953
  307MOL0     C41373   2.142   4.883  10.047 -0.1789  0.1766 -0.3758
  307MOL0     C41374   2.067   4.793  10.027 -1.1119  1.1656  1.2078
  307MOL0     C41375   2.800   4.773   9.796  0.0179 -0.6335  0.6152
  307MOL0     C41376   2.908   4.749   9.704 -0.1430 -0.0872 -1.2562
  307MOL0     C41377   2.945   4.853   9.603 -0.4370  0.5347  0.2497
  307MOL0     H41378   3.315   4.446   9.816  1.8032  1.1643  0.9981
  307MOL0     H41379   3.531   4.301   9.774  2.2634  1.3183 -1.2018
  307MOL0     H41380   3.758   4.206   9.648 -0.7989  1.9414  1.3052
  307MOL0     H41381   3.641   4.109   9.743 -1.0911  1.1457  0.1586
  307MOL0     H41382   3.719   3.989   9.478 -2.3953  0.1655 -0.2268
  307MOL0     H41383   3.652   3.929   9.634 -0.2625 -1.0139 -1.8656
  307MOL0     H41384   3.858   3.838   9.671  1.3661 -1.7993 -3.2641
  307MOL0     H41385   3.907   4.007   9.714 -0.5957 -1.6291  1.1647
  307MOL0     H41386   4.058   3.892   9.583 -3.1262 -4.3656  0.2449
  307MOL0     H41387   3.956   3.874   9.442 -3.5545  0.0945 -0.2706
  307MOL0     H41388   3.923   4.129   9.429  0.4359 -0.7321 -0.6869
  307MOL0     H41389   4.052   4.147   9.546 -0.3583  0.3290 -0.5380
  307MOL0     H41390   4.069   3.977   9.294  1.5164 -0.2703 -0.0250
  307MOL0     H41391   4.125   4.143   9.291 -1.1144  0.7350 -0.1722
  307MOL0     H41392   4.263   4.000   9.510 -3.0867 -0.8407  0.6288
  307MOL0     H41393   4.334   4.078   9.374  0.5239 -0.4067  0.0107
  307MOL0     H41394   4.187   3.806   9.388 -1.8068 -0.9115 -2.8168
  307MOL0     H41395   4.260   3.832   9.247 -3.3372 -0.8997  0.5284
  307MOL0     H41396   4.543   3.855   9.255 -0.5506 -1.5678 -0.0422
  307MOL0     H41397   4.798   3.659   9.463 -2.9798 -1.5625 -2.2639
  307MOL0     H41398   4.791   3.776   9.333  1.7441  1.2020  0.2228
  307MOL0     H41399   4.798   3.962   9.502 -1.4928 -0.2603  0.7992
  307MOL0     H41400   4.792   3.844   9.636 -3.1173  0.5767 -0.5857
  307MOL0     H41401   5.003   3.828   9.408  2.0302 -2.8436  1.6771
  307MOL0     H41402   4.999   3.749   9.564  2.0420 -0.0829 -0.3578
  307MOL0     H41403   5.059   3.951   9.676  1.7610  1.1779 -0.9238
  307MOL0     H41404   4.973   4.054   9.578 -0.3463 -0.1257 -0.4016
  307MOL0     H41405   5.150   4.177   9.714 -0.1050  0.0838 -0.8032
  307MOL0     H41406   5.314   4.317   9.761 -0.4268  2.0478 -0.8473
  307MOL0     H41407   5.911   4.256   9.531  1.2307  0.4883 -1.3678
  307MOL0     H41408   6.132   4.334   9.602  0.6471 -0.7972  1.8460
  307MOL0     H41409   6.174   4.761   9.740 -0.8414  0.1044  0.0187
  307MOL0     H41410   6.170   4.672   9.894 -0.8340  0.4808  0.1566
  307MOL0     H41411   6.401   4.575   9.840 -1.9251 -0.1847  1.5068
  307MOL0     H41412   6.396   4.672   9.697  0.9405 -2.6829  0.4752
  307MOL0     H41413   6.402   4.887   9.825 -2.8167  0.0181 -0.6255
  307MOL0     H41414   6.403   4.800   9.976  4.8730 -1.2039  0.2925
  307MOL0     H41415   6.608   4.766   9.752 -1.1478 -2.2378 -0.3686
  307MOL0     H41416   6.606   4.685   9.906  1.9040  0.7413 -0.1024
  307MOL0     H41417   6.749   4.857   9.964 -0.9388 -0.2568  1.8335
  307MOL0     H41418   6.587   4.915  10.026  1.5142  2.1341  1.6610
  307MOL0     H41419   6.570   5.064   9.828 -0.7587 -1.1021  1.8609
  307MOL0     H41420   6.703   5.087   9.939  0.8039 -1.5125  1.0269
  307MOL0     H41421   6.757   4.938   9.682  0.5232 -0.4942  1.0187
  307MOL0     H41422   6.864   4.999   9.810 -2.2693 -0.3799  3.3781
  307MOL0     H41423   6.815   5.233   9.752 -2.0104  3.0433 -2.1691
  307MOL0     H41424   6.857   5.148   9.604  3.0531  0.6746  3.2294
  307MOL0     H41425   5.938   4.675   9.781 -0.6764  0.7397 -2.0608
  307MOL0     H41426   5.730   4.586   9.720  0.4147  0.8079  2.7243
  307MOL0     H41427   5.543   4.188   9.412 -0.4077  5.6791  1.1993
  307MOL0     H41428   5.367   4.018   9.370  1.8511 -1.8417  2.6973
  307MOL0     H41429   3.383   4.212   9.378  4.3495  4.4599 -0.8850
  307MOL0     H41430   3.175   4.340   9.427  0.2389 -2.2453 -1.6967
  307MOL0     H41431   3.043   4.496   9.878  1.3830  1.0937 -1.2890
  307MOL0     H41432   2.847   4.533  10.033 -0.6825 -2.0629 -0.8389
  307MOL0     H41433   2.550   4.843   9.856 -1.4021  6.5081 -0.1463
  307MOL0     H41434   2.640   4.918   9.982 -1.5274  0.5617  0.3759
  307MOL0     H41435   2.480   4.829  10.156 -1.9671 -3.4595  0.4179
  307MOL0     H41436   2.398   4.746  10.034 -0.5709  1.0985 -3.2211
  307MOL0     H41437   2.377   4.986   9.914  1.3807  0.7666  0.9045
  307MOL0     H41438   2.447   5.041  10.062 -0.5131  0.6450 -0.6798
  307MOL0     H41439   2.234   4.992  10.182  0.0497 -1.2320 -0.5499
  307MOL0     H41440   2.214   5.077  10.024  0.6716  0.4418  0.6222
  307MOL0     H41441   1.994   4.715  10.015  1.5221 -1.0107 -2.9064
  307MOL0     H41442   2.742   4.862   9.771  1.2517  0.8195  2.5912
  307MOL0     H41443   2.989   4.938   9.657  1.5584 -0.5923  0.4776
  307MOL0     H41444   3.024   4.818   9.536 -1.7709  0.0813 -1.1268
  307MOL0     H41445   2.864   4.892   9.541  1.2601 -0.3843 -2.7145
  308MOL0     O41446   4.293   7.169   5.654  0.1500  0.4056 -0.1595
  308MOL0     C41447   4.183   7.195   5.610  0.1730 -0.4855 -0.3716
  308MOL0     O41448   4.163   7.227   5.481  0.2824 -0.0526  0.2487
  308MOL0     C41449   4.275   7.230   5.400 -0.8928 -0.3348 -0.3851
  308MOL0     C41450   4.333   7.106   5.367 -0.8925 -0.4031 -0.2669
  308MOL0     C41451   4.454   7.093   5.294  0.1383 -0.3564 -0.6958
  308MOL0     C41452   4.508   7.217   5.248  0.6771  0.3825 -0.3355
  308MOL0     O41453   4.630   7.208   5.194  0.3987  0.0229 -0.3131
  308MOL0     C41454   4.692   7.325   5.135  0.7048  0.1959  0.0990
  308MOL0     C41455   4.823   7.291   5.073 -0.0193  0.0687  0.3875
  308MOL0     C41456   4.893   7.424   5.031  0.3325  0.3000 -0.0279
  308MOL0     C41457   4.965   7.500   5.150  0.8270  0.3157  0.8711
  308MOL0     C41458   5.087   7.420   5.177  0.1861  0.0658  0.1036
  308MOL0     C41459   5.191   7.481   5.266  0.2041  0.1238 -0.4759
  308MOL0     C41460   5.266   7.586   5.184  0.2582 -0.1078 -0.1821
  308MOL0     C41461   5.379   7.649   5.265 -0.4075 -0.1832  0.3699
  308MOL0     N41462   5.336   7.702   5.394  0.7902 -0.5371  0.4736
  308MOL0     C41463   5.260   7.813   5.421  0.1393  0.8206 -0.5251
  308MOL0     C41464   5.248   7.821   5.556  0.4780  0.3175 -0.2892
  308MOL0     C41465   5.182   7.929   5.641  0.3458  0.4226 -0.0412
  308MOL0     C41466   5.030   7.929   5.614  0.3814 -0.5424  0.1942
  308MOL0     C41467   4.962   7.790   5.619  0.6851  0.3083 -0.4646
  308MOL0     C41468   4.825   7.784   5.572 -0.5809 -0.3290  0.7056
  308MOL0     O41469   4.834   7.802   5.428 -0.3652  0.4639 -0.0708
  308MOL0     C41470   4.732   7.781   5.336 -0.1247 -0.0379  0.4337
  308MOL0     C41471   4.771   7.815   5.209  0.3285  0.3539  0.4936
  308MOL0     C41472   4.684   7.791   5.100 -0.7593 -0.5489 -0.2933
  308MOL0     C41473   4.554   7.740   5.124  0.1108  0.0786 -0.3825
  308MOL0     C41474   4.476   7.706   5.007 -0.5811 -0.0339 -0.3244
  308MOL0     O41475   4.482   7.789   4.896  0.0580 -0.4987 -0.5432
  308MOL0     C41476   4.402   7.758   4.786  0.7170  0.3327  0.6985
  308MOL0     C41477   4.466   7.706   4.681 -0.5310  0.3364 -0.1955
  308MOL0     C41478   4.405   7.642   4.569  0.2453  0.4962 -0.1262
  308MOL0     C41479   4.263   7.641   4.560 -0.5469 -0.0827  0.0563
  308MOL0     O41480   4.211   7.578   4.452 -0.4896 -0.6845  1.1509
  308MOL0     C41481   4.089   7.511   4.482 -0.0948 -0.0901 -0.1957
  308MOL0     C41482   4.105   7.388   4.582  0.7091  0.1726  0.1970
  308MOL0     C41483   3.967   7.350   4.636 -0.5058  0.3211  0.5269
  308MOL0     C41484   3.878   7.449   4.708 -0.3877 -0.5976 -0.1585
  308MOL0     C41485   3.770   7.385   4.789  0.6880 -0.2271 -0.1833
  308MOL0     C41486   3.668   7.281   4.725 -0.3648 -0.5594  0.3473
  308MOL0     C41487   3.587   7.212   4.830  0.1424 -0.2442 -0.3198
  308MOL0     C41488   3.663   7.113   4.917  0.4247 -0.0730  0.6517
  308MOL0    Cl41489   3.720   6.981   4.812  0.2237  0.4104  0.0606
  308MOL0     C41490   4.183   7.705   4.666 -0.2659 -0.3615 -0.4648
  308MOL0     C41491   4.263   7.757   4.775 -0.6745  0.1243  0.8737
  308MOL0     O41492   4.417   7.600   5.022 -0.3786 -0.0203 -0.0763
  308MOL0     C41493   4.516   7.707   5.257  0.0152 -1.3556 -0.2700
  308MOL0     C41494   4.605   7.733   5.370  0.2229 -0.2780 -0.4938
  308MOL0     N41495   5.333   7.722   5.607 -0.7185  0.7584 -0.2284
  308MOL0     N41496   5.383   7.651   5.508 -0.3716  0.8279 -0.5918
  308MOL0     C41497   4.444   7.343   5.273  0.9478  0.6960 -0.3295
  308MOL0     C41498   4.329   7.351   5.357  0.7509 -0.1491 -0.4535
  308MOL0     C41499   4.067   7.214   5.702 -0.1606  0.0457  0.0901
  308MOL0     C41500   3.945   7.241   5.638 -1.2617  0.6979  0.7411
  308MOL0     C41501   3.826   7.255   5.706 -1.6264  0.0035 -0.1422
  308MOL0     C41502   3.828   7.241   5.848  0.3288 -0.4918  0.7775
  308MOL0     O41503   3.703   7.247   5.903  0.4042 -0.7428 -0.2997
  308MOL0     C41504   3.674   7.187   6.026 -0.1485  0.1282 -1.1282
  308MOL0     C41505   3.651   7.035   6.015 -0.3387 -0.9497  0.3621
  308MOL0     C41506   3.626   6.977   6.154 -1.0932 -0.4173 -0.0203
  308MOL0     C41507   3.479   6.988   6.185  0.5012  0.4622  0.0726
  308MOL0     C41508   3.438   6.923   6.308  1.0323  0.5664 -0.6873
  308MOL0     C41509   3.403   6.895   6.425 -0.7505 -0.4143 -0.3559
  308MOL0     C41510   3.949   7.213   5.915  0.1877  0.7901 -0.1460
  308MOL0     C41511   4.075   7.197   5.848  0.8882  0.1155  0.6604
  308MOL0     C41512   4.199   7.163   5.919  0.4115  1.4126  0.1742
  308MOL0     H41513   4.277   7.021   5.404 -0.6893  0.5964  2.5356
  308MOL0     H41514   4.503   6.996   5.285  3.7570  1.3389 -1.2212
  308MOL0     H41515   4.618   7.368   5.066  0.0878 -0.2525  0.4698
  308MOL0     H41516   4.707   7.407   5.205 -0.0889 -0.9719  1.6993
  308MOL0     H41517   4.803   7.230   4.984 -2.2016  0.3725  0.6110
  308MOL0     H41518   4.887   7.228   5.135 -1.5970 -4.4668 -2.1647
  308MOL0     H41519   4.820   7.490   4.984 -0.0982 -0.5603 -0.6000
  308MOL0     H41520   4.962   7.398   4.950  0.7867  0.7768  0.2018
  308MOL0     H41521   4.995   7.601   5.119  0.2031 -0.0581 -1.1615
  308MOL0     H41522   4.894   7.511   5.233 -1.9327 -0.4238 -1.2258
  308MOL0     H41523   5.063   7.328   5.232 -0.0942  0.6244  0.9378
  308MOL0     H41524   5.128   7.396   5.079 -0.5696 -1.0019  0.0336
  308MOL0     H41525   5.153   7.521   5.361  1.4036 -1.3950  0.6842
  308MOL0     H41526   5.265   7.407   5.297 -1.1568 -1.2188 -0.3742
  308MOL0     H41527   5.198   7.660   5.140 -0.9924 -2.4009 -2.3736
  308MOL0     H41528   5.307   7.535   5.097 -0.4222  2.7031 -2.3263
  308MOL0     H41529   5.467   7.584   5.274 -0.8516 -1.7047 -4.1089
  308MOL0     H41530   5.406   7.732   5.199  0.5291  0.1235  1.1124
  308MOL0     H41531   5.210   7.874   5.346  2.1835  0.0507 -2.6005
  308MOL0     H41532   5.202   7.917   5.748 -0.6500 -0.9795  0.0209
  308MOL0     H41533   5.230   8.025   5.617  0.2865 -0.0005 -2.0518
  308MOL0     H41534   4.981   8.003   5.678 -1.1606 -2.1462  0.9716
  308MOL0     H41535   5.009   7.969   5.515 -0.3860 -0.1303  0.5101
  308MOL0     H41536   4.947   7.767   5.725 -0.4063  2.4280 -0.1006
  308MOL0     H41537   5.019   7.712   5.568 -1.6360 -4.3969  3.2747
  308MOL0     H41538   4.769   7.868   5.612 -1.0729 -0.4284  0.2383
  308MOL0     H41539   4.765   7.695   5.596  0.7237 -0.6901  3.0055
  308MOL0     H41540   4.874   7.846   5.190  0.2358 -0.5305 -1.8131
  308MOL0     H41541   4.712   7.834   5.005 -1.3136  0.6716  0.0725
  308MOL0     H41542   4.573   7.700   4.694 -0.5141 -0.3319 -0.5882
  308MOL0     H41543   4.465   7.589   4.495 -0.5840 -2.0336  0.8942
  308MOL0     H41544   4.017   7.567   4.543 -0.5206 -1.2483  0.4000
  308MOL0     H41545   4.038   7.469   4.395 -0.0668 -1.2656  0.3383
  308MOL0     H41546   4.146   7.302   4.528 -0.7355 -0.4064 -0.0137
  308MOL0     H41547   4.173   7.420   4.661 -0.7485 -0.6576  1.8507
  308MOL0     H41548   3.919   7.295   4.554  0.0983 -1.7709  1.4814
  308MOL0     H41549   3.992   7.279   4.716 -1.4675  1.2805  1.7286
  308MOL0     H41550   3.837   7.525   4.641 -2.7840 -1.8324 -0.1990
  308MOL0     H41551   3.945   7.498   4.779  0.0929 -0.8217 -0.4499
  308MOL0     H41552   3.700   7.453   4.839  2.2231  2.0585 -0.9812
  308MOL0     H41553   3.822   7.324   4.864 -1.7401 -1.7876  0.3623
  308MOL0     H41554   3.592   7.329   4.661  1.0736 -0.0741 -1.0499
  308MOL0     H41555   3.728   7.212   4.666  2.7452  2.3399 -0.1712
  308MOL0     H41556   3.506   7.153   4.786  0.5056  1.0366 -2.8635
  308MOL0     H41557   3.533   7.294   4.880  3.2365  2.6320 -1.3409
  308MOL0     H41558   3.751   7.157   4.964 -0.8556 -1.6519  5.0970
  308MOL0     H41559   3.590   7.073   4.988 -1.6524  0.7628 -0.9129
  308MOL0     H41560   4.076   7.720   4.673 -0.2599 -0.6086  0.3001
  308MOL0     H41561   4.205   7.788   4.861 -1.2422 -1.8100  1.2395
  308MOL0     H41562   4.414   7.694   5.292  0.1781 -1.2830  0.2436
  308MOL0     H41563   4.565   7.700   5.466 -0.6664  1.0552 -0.3932
  308MOL0     H41564   4.482   7.437   5.236  1.3287  1.5372  2.0394
  308MOL0     H41565   4.281   7.448   5.365 -0.2233 -0.7003  0.6852
  308MOL0     H41566   3.946   7.226   5.530  0.5509 -0.9498  0.9410
  308MOL0     H41567   3.732   7.274   5.656 -2.5771 -0.2571  1.4580
  308MOL0     H41568   3.588   7.225   6.082  0.9811 -1.1104  1.6743
  308MOL0     H41569   3.759   7.190   6.096  0.0294 -1.7579 -1.2001
  308MOL0     H41570   3.741   7.001   5.964  1.0681  2.6123  0.2008
  308MOL0     H41571   3.563   7.024   5.951 -1.2798 -1.9449  1.7723
  308MOL0     H41572   3.669   7.044   6.229 -2.2773  0.0308  0.2872
  308MOL0     H41573   3.655   6.872   6.168 -0.1314  0.0056  1.2920
  308MOL0     H41574   3.451   7.094   6.186  0.1825  0.3835 -0.1751
  308MOL0     H41575   3.425   6.943   6.101  1.5605 -1.0623  0.1656
  308MOL0     H41576   3.387   6.863   6.526  1.0055 -0.3464 -0.0084
  308MOL0     H41577   3.955   7.218   6.023  0.4013 -0.5825 -0.0734
  308MOL0     H41578   4.177   7.153   6.026 -0.4365  0.5641 -0.0636
  308MOL0     H41579   4.215   7.063   5.878 -2.9227  0.3948  1.0102
  308MOL0     H41580   4.282   7.233   5.908  0.4348  1.4734  0.7208
  309MOL0     O41581   3.308   2.883   9.898 -0.1890  0.5192  0.0153
  309MOL0     C41582   3.243   2.842  10.000 -0.5906 -0.3739  0.2715
  309MOL0     O41583   3.232   2.712  10.040  0.0819  0.3584  0.3510
  309MOL0     C41584   3.269   2.600   9.968  0.1892  0.5814 -0.1491
  309MOL0     C41585   3.302   2.594   9.837  0.3024  0.0789  0.4990
  309MOL0     C41586   3.311   2.465   9.760  0.0508 -0.6750 -0.0949
  309MOL0     C41587   3.281   2.347   9.825  0.3231  0.2664 -0.3037
  309MOL0     O41588   3.304   2.236   9.753  0.0296  0.2455  0.6319
  309MOL0     C41589   3.386   2.137   9.808 -0.0371  0.3334 -0.6415
  309MOL0     C41590   3.417   2.018   9.712 -0.0575 -0.3231  0.0887
  309MOL0     C41591   3.302   1.914   9.722  0.5965  0.3269  0.6384
  309MOL0     C41592   3.310   1.807   9.607 -0.3112 -0.0479 -0.4168
  309MOL0     C41593   3.282   1.868   9.464  0.6715 -0.1562  0.0015
  309MOL0     C41594   3.269   1.751   9.370 -0.2872  0.6763 -0.4550
  309MOL0     C41595   3.234   1.797   9.225 -0.0942 -0.5716 -0.4567
  309MOL0     C41596   3.234   1.681   9.121 -0.2877 -0.4567  0.2752
  309MOL0     N41597   3.349   1.587   9.118  0.0809 -0.2121 -0.0144
  309MOL0     C41598   3.479   1.629   9.077  0.1634 -0.0605 -0.3101
  309MOL0     C41599   3.551   1.524   9.127 -0.9393 -0.2076  1.0388
  309MOL0     C41600   3.702   1.512   9.115  0.4030  0.0145  0.2948
  309MOL0     C41601   3.751   1.534   8.969  0.1228 -0.0057  0.3460
  309MOL0     C41602   3.809   1.686   8.954  0.3996 -0.5679 -0.0839
  309MOL0     C41603   3.888   1.701   8.819  0.0947 -1.3115 -0.3112
  309MOL0     O41604   3.982   1.593   8.806 -0.1824  0.5875 -0.8385
  309MOL0     C41605   4.072   1.589   8.706 -0.6051 -0.5027  0.4480
  309MOL0     C41606   4.195   1.522   8.724 -0.5824  0.5447  0.6742
  309MOL0     C41607   4.280   1.498   8.611  0.1361 -0.7076  0.5908
  309MOL0     C41608   4.248   1.562   8.483 -0.7992  0.2064 -0.1512
  309MOL0     C41609   4.332   1.554   8.362  0.6382  0.4973 -0.6247
  309MOL0     O41610   4.397   1.435   8.367 -0.8982 -0.0149  0.3423
  309MOL0     C41611   4.441   1.372   8.254  0.2948 -0.4470  0.3700
  309MOL0     C41612   4.555   1.412   8.187  0.8080  1.1855  0.3723
  309MOL0     C41613   4.609   1.336   8.084 -0.5507  1.9446 -0.8721
  309MOL0     C41614   4.560   1.202   8.066 -0.4068 -0.2400  0.0514
  309MOL0     O41615   4.631   1.122   7.978  0.4861 -0.0626 -0.8088
  309MOL0     C41616   4.751   1.159   7.907  0.4216 -0.4529  0.0659
  309MOL0     C41617   4.789   1.044   7.814  0.0067  0.3463 -0.7823
  309MOL0     C41618   4.665   1.005   7.726 -0.9390 -0.3199 -0.2040
  309MOL0     C41619   4.698   0.886   7.635 -0.4340  0.1633  0.4284
  309MOL0     C41620   4.567   0.817   7.589  0.9341  0.0641  1.2440
  309MOL0     C41621   4.608   0.688   7.508  0.5190  0.0429  0.4233
  309MOL0     C41622   4.490   0.611   7.435 -0.2644 -0.7487 -0.6018
  309MOL0     C41623   4.541   0.484   7.365 -0.1556 -0.8944  0.0956
  309MOL0    Cl41624   4.676   0.407   7.449 -0.0749  0.2719  0.0942
  309MOL0     C41625   4.455   1.156   8.140  0.4516 -0.3573 -0.6043
  309MOL0     C41626   4.390   1.243   8.230  1.4572  0.4594  0.1073
  309MOL0     O41627   4.327   1.634   8.266 -0.1848 -0.4064  0.1025
  309MOL0     C41628   4.129   1.633   8.473  0.6764 -0.6726  0.1746
  309MOL0     C41629   4.040   1.643   8.577  0.9750 -0.2272 -0.3153
  309MOL0     N41630   3.475   1.432   9.196  0.6303 -0.1731 -0.3810
  309MOL0     N41631   3.349   1.473   9.197 -0.4907 -0.4893  1.2061
  309MOL0     C41632   3.235   2.358   9.953  0.0467  0.2221  1.0950
  309MOL0     C41633   3.232   2.478  10.028  0.4644  0.0390 -0.3746
  309MOL0     C41634   3.187   2.946  10.087 -0.4835 -0.3471 -0.5838
  309MOL0     C41635   3.081   3.016  10.040  0.1504  1.1615  0.3627
  309MOL0     C41636   3.015   3.109  10.121  0.0754  0.2742 -0.3138
  309MOL0     C41637   3.063   3.133  10.251  0.1439 -0.0895  0.1956
  309MOL0     O41638   3.017   3.248  10.328  0.1815  0.7811  0.7932
  309MOL0     C41639   3.014   3.228  10.467 -0.4209  0.1951 -0.0682
  309MOL0     C41640   2.903   3.293  10.542  0.4673  0.8058 -0.6376
  309MOL0     C41641   2.957   3.320  10.678  0.6288 -0.5848  0.3171
  309MOL0     C41642   2.842   3.336  10.778 -0.3630  0.2763  1.3970
  309MOL0     C41643   2.885   3.388  10.907 -0.0054  0.1802 -0.2083
  309MOL0     C41644   2.896   3.444  11.017  0.7168  0.2301  0.2540
  309MOL0     C41645   3.173   3.062  10.295 -0.1902 -0.6177 -0.7352
  309MOL0     C41646   3.232   2.969  10.222 -0.4390 -0.2874 -0.3877
  309MOL0     C41647   3.347   2.896  10.269  0.0934  0.2110 -0.6088
  309MOL0     H41648   3.310   2.684   9.778  0.0504 -0.3964 -0.2820
  309MOL0     H41649   3.343   2.470   9.656 -3.6665 -2.7615 -1.5306
  309MOL0     H41650   3.477   2.193   9.829  0.0888 -0.2857  0.6007
  309MOL0     H41651   3.341   2.113   9.906 -0.3634 -4.0177 -1.6398
  309MOL0     H41652   3.503   1.969   9.758 -0.7322  1.6073  3.6999
  309MOL0     H41653   3.430   2.055   9.610 -1.2884  0.2311  0.1210
  309MOL0     H41654   3.197   1.946   9.722 -0.3270 -2.3494 -1.2075
  309MOL0     H41655   3.314   1.867   9.820  0.6596  1.4633  1.1920
  309MOL0     H41656   3.413   1.769   9.608  1.0677  3.2938 -0.5801
  309MOL0     H41657   3.259   1.713   9.630  0.8980 -0.5330  0.4532
  309MOL0     H41658   3.183   1.914   9.454  1.1074  0.9318  0.5751
  309MOL0     H41659   3.360   1.936   9.431  1.7424 -1.0550  0.6175
  309MOL0     H41660   3.366   1.702   9.381 -0.7375  0.4459  5.5168
  309MOL0     H41661   3.197   1.670   9.389 -4.4874  4.5621  2.3654
  309MOL0     H41662   3.294   1.884   9.195 -1.2762  1.1506  1.8837
  309MOL0     H41663   3.133   1.840   9.234 -0.7623 -2.5591  3.7734
  309MOL0     H41664   3.149   1.619   9.151  0.6766 -1.9263  0.0847
  309MOL0     H41665   3.217   1.719   9.019 -0.5034 -0.0363  0.4655
  309MOL0     H41666   3.504   1.716   9.018 -0.3463  0.4217  0.1818
  309MOL0     H41667   3.740   1.594   9.177 -2.8187  1.8917  0.0441
  309MOL0     H41668   3.735   1.416   9.155  0.7649 -0.4644 -1.0993
  309MOL0     H41669   3.834   1.464   8.958  0.3418  0.2913  0.0910
  309MOL0     H41670   3.682   1.511   8.887  0.2347 -1.5766  0.6581
  309MOL0     H41671   3.875   1.709   9.038 -1.7749 -1.4518  1.9703
  309MOL0     H41672   3.722   1.752   8.957  1.1163  0.4470 -1.0690
  309MOL0     H41673   3.948   1.793   8.821 -2.2459  0.3046  0.9301
  309MOL0     H41674   3.819   1.715   8.735  1.7433 -0.0735 -1.5254
  309MOL0     H41675   4.214   1.496   8.827 -0.7055 -0.7338  0.3852
  309MOL0     H41676   4.368   1.439   8.634 -0.6278 -2.0776  0.1129
  309MOL0     H41677   4.594   1.512   8.202 -0.2512  1.7129 -0.2785
  309MOL0     H41678   4.687   1.381   8.023  0.6235  0.8429 -0.2494
  309MOL0     H41679   4.716   1.238   7.840 -1.1006  0.3216  1.7083
  309MOL0     H41680   4.830   1.180   7.980  0.0820 -2.2855  1.0348
  309MOL0     H41681   4.874   1.077   7.753  3.2050 -2.2672  1.8398
  309MOL0     H41682   4.826   0.953   7.862  0.6807  0.1793 -1.5941
  309MOL0     H41683   4.594   0.973   7.802 -0.5597  0.9883  0.7356
  309MOL0     H41684   4.629   1.092   7.669 -1.1149 -0.4875 -0.3478
  309MOL0     H41685   4.745   0.806   7.693  0.0013  1.4291  1.8578
  309MOL0     H41686   4.766   0.903   7.551  0.2890 -0.4266  0.8881
  309MOL0     H41687   4.510   0.888   7.530 -1.6435 -1.5022  1.6960
  309MOL0     H41688   4.501   0.789   7.672 -0.8036 -1.2815 -0.5118
  309MOL0     H41689   4.680   0.725   7.435  0.0418  1.1434  0.4965
  309MOL0     H41690   4.664   0.621   7.575  1.1665 -1.1840 -1.2729
  309MOL0     H41691   4.437   0.673   7.362  0.9471 -0.5685 -1.3641
  309MOL0     H41692   4.419   0.576   7.510  0.7230 -1.8428 -0.1439
  309MOL0     H41693   4.462   0.409   7.375  0.9670 -2.3466 -1.3456
  309MOL0     H41694   4.570   0.523   7.267 -0.2351  2.8986  1.4111
  309MOL0     H41695   4.417   1.055   8.134 -0.0232 -0.1634 -1.0361
  309MOL0     H41696   4.313   1.200   8.294  1.8539  1.2993  1.1778
  309MOL0     H41697   4.098   1.671   8.376  1.7758  0.1176  0.1137
  309MOL0     H41698   3.948   1.700   8.565  0.1794 -1.1319  1.1422
  309MOL0     H41699   3.207   2.269  10.007 -0.4482  0.3855  1.1108
  309MOL0     H41700   3.190   2.489  10.128  1.7117 -3.4473  0.6629
  309MOL0     H41701   3.053   3.010   9.935  2.0665  2.5876 -0.2875
  309MOL0     H41702   2.939   3.166  10.069  0.1065  0.4576 -0.1606
  309MOL0     H41703   3.109   3.272  10.501  0.7717  1.0014 -3.9532
  309MOL0     H41704   3.019   3.121  10.485  2.0212 -0.2563 -2.7681
  309MOL0     H41705   2.813   3.230  10.537 -1.8567  3.1485  4.3217
  309MOL0     H41706   2.876   3.383  10.486 -4.2892 -0.3188 -0.6341
  309MOL0     H41707   3.032   3.399  10.684 -0.4364  0.3830  1.5858
  309MOL0     H41708   3.014   3.236  10.720  0.9545  0.5503  2.2916
  309MOL0     H41709   2.772   3.401  10.725  0.7146 -0.6645 -1.3955
  309MOL0     H41710   2.796   3.240  10.803  0.7194  0.1547  3.0590
  309MOL0     H41711   2.898   3.500  11.109 -1.2171  1.9061 -0.6509
  309MOL0     H41712   3.217   3.099  10.387 -3.5285  0.4200  0.5887
  309MOL0     H41713   3.424   2.952  10.217  0.1186  1.1026  0.3681
  309MOL0     H41714   3.351   2.900  10.378 -1.2987  0.8134 -0.5536
  309MOL0     H41715   3.333   2.790  10.244  1.9665  0.0679 -1.2090
  310MOL0     O41716   1.744   3.107   3.799 -0.1335 -0.0225 -0.2437
  310MOL0     C41717   1.828   3.030   3.753  0.2332 -0.0701 -0.0769
  310MOL0     O41718   1.966   3.058   3.762 -0.7599  0.0205  0.1178
  310MOL0     C41719   1.992   3.183   3.811  0.2438 -0.2067 -0.1942
  310MOL0     C41720   1.972   3.295   3.727 -0.3132  0.4840 -0.0264
  310MOL0     C41721   2.004   3.423   3.784  0.5978  0.0351 -0.7732
  310MOL0     C41722   2.059   3.431   3.912 -0.0777 -0.2833  0.6697
  310MOL0     O41723   2.091   3.554   3.956  0.1992  0.0468  0.4902
  310MOL0     C41724   2.233   3.582   3.973  1.0242  0.1541 -0.9207
  310MOL0     C41725   2.261   3.684   4.080 -0.1204  0.1608 -0.4162
  310MOL0     C41726   2.306   3.823   4.027 -0.0973  0.5057  1.1117
  310MOL0     C41727   2.355   3.915   4.136 -0.7985 -0.0782  0.0277
  310MOL0     C41728   2.424   4.038   4.057 -0.8948 -0.3990 -0.6908
  310MOL0     C41729   2.417   4.165   4.147  0.8493 -0.3767  0.3866
  310MOL0     C41730   2.453   4.294   4.083 -0.3041 -0.3072  0.3338
  310MOL0     C41731   2.597   4.292   4.033 -0.2651  0.0146 -0.8755
  310MOL0     N41732   2.621   4.232   3.903  0.1049  0.4913  0.7390
  310MOL0     C41733   2.721   4.151   3.854 -0.1949  0.9921 -0.1397
  310MOL0     C41734   2.708   4.141   3.719  0.2799  0.8761  0.4162
  310MOL0     C41735   2.800   4.067   3.621 -0.3854 -0.4000 -0.5591
  310MOL0     C41736   2.716   3.989   3.513 -0.1815 -0.2486  0.6422
  310MOL0     C41737   2.646   3.862   3.577  0.1911 -0.3216  0.1910
  310MOL0     C41738   2.560   3.785   3.483 -0.7995  0.0065  0.1492
  310MOL0     O41739   2.499   3.670   3.554 -0.2035 -0.3007  0.1879
  310MOL0     C41740   2.402   3.613   3.481 -0.2429  0.0033 -0.5151
  310MOL0     C41741   2.366   3.620   3.342 -0.6611 -0.6347  0.3912
  310MOL0     C41742   2.272   3.541   3.277  0.2028 -0.2652 -0.6450
  310MOL0     C41743   2.194   3.459   3.353  0.2176  0.3613 -0.5329
  310MOL0     C41744   2.100   3.357   3.286  0.2756 -0.2042  0.2164
  310MOL0     O41745   2.042   3.256   3.363 -0.0146 -0.6240  0.8928
  310MOL0     C41746   1.957   3.159   3.300 -0.4261  0.4792 -0.8016
  310MOL0     C41747   1.990   3.089   3.179 -0.2971  0.0983 -0.8698
  310MOL0     C41748   1.909   2.985   3.124  0.0315 -0.2973 -0.4450
  310MOL0     C41749   1.792   2.950   3.191  0.3683  0.0387 -0.0668
  310MOL0     O41750   1.723   2.851   3.125 -0.2075  0.5019 -0.5381
  310MOL0     C41751   1.578   2.841   3.155  0.3037  0.7208  0.0028
  310MOL0     C41752   1.520   2.698   3.128 -0.2738 -0.1053 -0.2747
  310MOL0     C41753   1.526   2.669   2.974  0.1342 -0.0060  0.9934
  310MOL0     C41754   1.393   2.655   2.907 -0.0435 -0.0965 -0.2602
  310MOL0     C41755   1.407   2.633   2.753 -0.8628  0.6251  0.5662
  310MOL0     C41756   1.272   2.580   2.708 -0.8578  0.4715 -0.5608
  310MOL0     C41757   1.261   2.568   2.557  0.0926  0.5535 -0.6091
  310MOL0     C41758   1.107   2.562   2.524 -0.3648 -0.5617  0.2129
  310MOL0    Cl41759   1.038   2.427   2.613 -0.2425 -0.4521  0.5915
  310MOL0     C41760   1.768   3.006   3.320  0.1666 -0.8394 -0.9039
  310MOL0     C41761   1.846   3.108   3.368 -0.3873  0.2055 -0.9731
  310MOL0     O41762   2.074   3.376   3.170 -0.1958  0.8016  0.1964
  310MOL0     C41763   2.218   3.459   3.492 -0.5037 -0.3400  0.1173
  310MOL0     C41764   2.322   3.524   3.549 -0.6434  0.2986 -0.4542
  310MOL0     N41765   2.591   4.194   3.681 -0.6422 -0.3160 -0.3805
  310MOL0     N41766   2.538   4.251   3.793  0.0353  0.9238 -0.6567
  310MOL0     C41767   2.082   3.320   3.997 -0.3958  0.7895 -0.1130
  310MOL0     C41768   2.052   3.198   3.935 -0.7128 -0.0877 -0.4904
  310MOL0     C41769   1.783   2.907   3.684  0.1307  0.3702  0.5147
  310MOL0     C41770   1.848   2.846   3.572 -0.5645  0.4369  0.5244
  310MOL0     C41771   1.806   2.726   3.511  0.0706  0.6202  0.4458
  310MOL0     C41772   1.690   2.657   3.553 -0.3253  0.3926 -0.5636
  310MOL0     O41773   1.658   2.537   3.487 -1.0298 -0.3102 -0.3420
  310MOL0     C41774   1.531   2.470   3.509  0.2269  0.2889 -0.9017
  310MOL0     C41775   1.493   2.394   3.379 -0.1709  0.0531  0.5112
  310MOL0     C41776   1.401   2.275   3.407 -0.7152  0.4883 -0.2203
  310MOL0     C41777   1.418   2.182   3.295  0.3410  0.2805 -0.4822
  310MOL0     C41778   1.357   2.235   3.173 -0.2699  0.3598 -0.4012
  310MOL0     C41779   1.309   2.266   3.059  0.2278 -0.1206 -0.8850
  310MOL0     C41780   1.619   2.718   3.657  1.1192  0.2080 -0.2521
  310MOL0     C41781   1.661   2.841   3.715 -0.3625 -0.7215  0.2088
  310MOL0     C41782   1.565   2.899   3.816 -0.4043 -0.5334 -0.4372
  310MOL0     H41783   1.937   3.279   3.626 -1.0520 -1.5826  0.5234
  310MOL0     H41784   1.992   3.520   3.737  2.8216  0.7948  0.1074
  310MOL0     H41785   2.291   3.495   4.005 -0.7903 -1.0361 -0.7290
  310MOL0     H41786   2.271   3.615   3.876 -1.2341  0.6567 -1.6801
  310MOL0     H41787   2.342   3.640   4.138  1.2241 -0.8065 -2.9011
  310MOL0     H41788   2.176   3.703   4.147 -1.3304 -0.4476 -1.7241
  310MOL0     H41789   2.229   3.872   3.967 -0.8253 -1.8186  0.0368
  310MOL0     H41790   2.390   3.805   3.959  0.8990 -0.5588  2.5701
  310MOL0     H41791   2.275   3.930   4.210  0.5576  0.6391  1.4162
  310MOL0     H41792   2.430   3.859   4.194 -3.1092 -1.6303  1.7256
  310MOL0     H41793   2.528   4.016   4.032 -0.4719  0.7194 -0.0009
  310MOL0     H41794   2.371   4.052   3.963  1.2203  2.9698 -1.5428
  310MOL0     H41795   2.312   4.189   4.164  0.7674  0.1476 -0.7562
  310MOL0     H41796   2.471   4.153   4.241  3.2070  0.7075 -0.7416
  310MOL0     H41797   2.447   4.380   4.151  1.7226 -0.3639  0.6441
  310MOL0     H41798   2.393   4.312   3.993  2.1029 -0.3973 -1.3788
  310MOL0     H41799   2.630   4.396   4.027 -0.2127  0.3052  2.2962
  310MOL0     H41800   2.664   4.252   4.110  2.2828  2.7829 -1.4271
  310MOL0     H41801   2.814   4.126   3.905  0.4099  4.0609  0.4794
  310MOL0     H41802   2.865   4.140   3.572  0.8918 -0.2701  1.2420
  310MOL0     H41803   2.866   4.007   3.685  0.5193  1.1241 -0.0059
  310MOL0     H41804   2.639   4.057   3.476 -0.3284 -0.5531  0.3835
  310MOL0     H41805   2.780   3.982   3.424 -2.2162  2.3719 -1.2047
  310MOL0     H41806   2.584   3.902   3.658 -0.3546 -0.1595 -0.2954
  310MOL0     H41807   2.717   3.800   3.632 -2.4310 -0.9697  3.1710
  310MOL0     H41808   2.632   3.746   3.410  0.5559  0.8658  0.9763
  310MOL0     H41809   2.487   3.852   3.438 -1.0561  0.5905  1.3942
  310MOL0     H41810   2.440   3.676   3.286 -0.4354 -3.0207 -1.9265
  310MOL0     H41811   2.244   3.553   3.173 -0.7132  1.3062 -0.2430
  310MOL0     H41812   2.080   3.122   3.127  0.5800 -0.8796 -0.0297
  310MOL0     H41813   1.944   2.927   3.039 -0.4405 -0.1292 -0.7538
  310MOL0     H41814   1.561   2.850   3.263 -0.7270  1.1461 -0.1827
  310MOL0     H41815   1.517   2.925   3.121 -2.1080 -1.2418 -0.8624
  310MOL0     H41816   1.590   2.641   3.190  0.8706  1.5529  0.0040
  310MOL0     H41817   1.414   2.689   3.154 -0.0423 -0.6816  0.4936
  310MOL0     H41818   1.586   2.739   2.915 -1.7856  0.0758 -0.9819
  310MOL0     H41819   1.567   2.568   2.962 -1.2181 -0.8475  2.9588
  310MOL0     H41820   1.335   2.744   2.933  0.0740  0.4104 -1.6187
  310MOL0     H41821   1.357   2.566   2.958  0.3105  1.5808  3.1509
  310MOL0     H41822   1.479   2.554   2.728 -0.3961  1.0806  0.4652
  310MOL0     H41823   1.436   2.726   2.704  0.6895  0.1025  0.4410
  310MOL0     H41824   1.253   2.483   2.755 -0.1738  0.7529  0.3382
  310MOL0     H41825   1.203   2.661   2.736  0.5169  2.7713 -3.2646
  310MOL0     H41826   1.313   2.481   2.514 -2.3158 -1.0088 -0.5264
  310MOL0     H41827   1.294   2.656   2.501 -2.2931  1.0382 -1.3291
  310MOL0     H41828   1.052   2.649   2.558 -2.0753 -2.0353  1.4132
  310MOL0     H41829   1.089   2.562   2.416  2.2550 -1.5174 -0.3011
  310MOL0     H41830   1.680   2.966   3.368 -0.0571  0.3371 -0.3031
  310MOL0     H41831   1.835   3.151   3.467  2.3865  1.1073 -0.9574
  310MOL0     H41832   2.168   3.385   3.552 -0.8199 -0.9185 -0.8294
  310MOL0     H41833   2.328   3.502   3.655  2.4622 -2.9921 -1.1115
  310MOL0     H41834   2.140   3.327   4.088 -0.0662  3.5830 -0.4670
  310MOL0     H41835   2.075   3.111   3.995  1.9908  2.1219  1.9463
  310MOL0     H41836   1.941   2.886   3.535 -0.4770  1.0631  1.3934
  310MOL0     H41837   1.871   2.665   3.448 -0.0145  0.4660  0.5049
  310MOL0     H41838   1.448   2.540   3.526 -1.2598 -1.1071 -2.0752
  310MOL0     H41839   1.546   2.388   3.580 -1.6221  1.0650  0.4706
  310MOL0     H41840   1.585   2.349   3.340  0.5282  1.1686  0.8143
  310MOL0     H41841   1.445   2.464   3.310 -0.7305 -3.6818 -3.2919
  310MOL0     H41842   1.295   2.303   3.415 -0.1852  2.2024  1.5181
  310MOL0     H41843   1.411   2.217   3.499 -2.2922 -0.9709 -0.9183
  310MOL0     H41844   1.524   2.162   3.284  0.4030  0.9717 -1.2922
  310MOL0     H41845   1.372   2.089   3.329  2.9557  0.2139  3.6074
  310MOL0     H41846   1.267   2.301   2.966 -1.9478  2.4884  0.9313
  310MOL0     H41847   1.525   2.686   3.699  2.0206  2.4289  3.9706
  310MOL0     H41848   1.613   2.891   3.914 -3.7711 -0.0248  1.4409
  310MOL0     H41849   1.541   3.003   3.792  0.0507  0.8254  3.9756
  310MOL0     H41850   1.472   2.841   3.817  1.0868 -3.0761 -0.8224
  311MOL0     O41851   1.124   5.621   9.841 -0.1837  0.0452  0.2060
  311MOL0     C41852   1.185   5.725   9.819  0.2664 -0.4689 -0.7659
  311MOL0     O41853   1.321   5.741   9.806 -0.5493  0.1436 -0.5744
  311MOL0     C41854   1.396   5.630   9.816 -0.0577  0.1609  0.5296
  311MOL0     C41855   1.476   5.603   9.932 -0.3139  1.0831 -0.1950
  311MOL0     C41856   1.534   5.480   9.949 -0.6260  0.5255  0.2858
  311MOL0     C41857   1.539   5.389   9.842 -0.4098 -0.8763 -0.9666
  311MOL0     O41858   1.607   5.274   9.855  0.4373 -0.5179  0.4851
  311MOL0     C41859   1.589   5.167   9.759 -0.4786  1.2235 -0.3501
  311MOL0     C41860   1.645   5.030   9.813 -0.6862  0.1008 -0.1163
  311MOL0     C41861   1.801   5.037   9.852  1.3833  0.3179 -0.2782
  311MOL0     C41862   1.879   5.078   9.732  0.6504  0.8488 -1.0543
  311MOL0     C41863   2.029   5.053   9.742  1.2621  0.7526 -0.1382
  311MOL0     C41864   2.096   5.121   9.619 -0.0592 -0.0439  0.5515
  311MOL0     C41865   2.245   5.107   9.642 -0.5998  0.7476  0.0731
  311MOL0     C41866   2.321   5.209   9.571  0.3122  0.3164 -0.1957
  311MOL0     N41867   2.464   5.184   9.548  0.1513  0.0751 -0.9404
  311MOL0     C41868   2.539   5.238   9.447  0.0587  0.1781 -0.4326
  311MOL0     C41869   2.655   5.161   9.446 -0.2260  0.9435 -0.6024
  311MOL0     C41870   2.784   5.162   9.369  0.6495  0.0998  1.1609
  311MOL0     C41871   2.862   5.289   9.406  0.2374 -0.1821  0.5482
  311MOL0     C41872   3.001   5.302   9.341  0.3540 -0.5777  0.3246
  311MOL0     C41873   3.102   5.205   9.405 -0.5229  0.3558 -0.5368
  311MOL0     O41874   3.137   5.250   9.535  0.2430 -0.2155 -0.3541
  311MOL0     C41875   3.223   5.189   9.618  0.1542 -0.3859 -0.5677
  311MOL0     C41876   3.280   5.282   9.707  0.3283  0.7478  0.4674
  311MOL0     C41877   3.384   5.241   9.788 -0.0114  1.1024 -0.2923
  311MOL0     C41878   3.421   5.106   9.792 -0.6630 -0.4055 -0.8237
  311MOL0     C41879   3.531   5.071   9.882 -0.5997  0.2015  0.0937
  311MOL0     O41880   3.607   5.171   9.942 -0.3431  0.4366 -0.9114
  311MOL0     C41881   3.688   5.138  10.054 -0.0191  0.1773 -0.4373
  311MOL0     C41882   3.809   5.216  10.068 -0.7407 -0.3885 -0.6896
  311MOL0     C41883   3.897   5.177  10.180  0.5344  0.4585  0.6885
  311MOL0     C41884   3.856   5.098  10.282  0.6780  0.8440  0.7778
  311MOL0     O41885   3.920   5.073  10.397  0.7190 -0.2134 -0.3910
  311MOL0     C41886   4.021   5.166  10.446 -0.4027  0.5883  0.6231
  311MOL0     C41887   4.117   5.098  10.550 -0.6860 -0.0408 -1.0071
  311MOL0     C41888   4.220   5.206  10.596 -0.8291 -0.1002 -0.0659
  311MOL0     C41889   4.159   5.323  10.676 -0.0755  0.1435 -0.6245
  311MOL0     C41890   4.259   5.423  10.737  0.5542  0.3209 -0.1886
  311MOL0     C41891   4.327   5.523  10.637  0.9118 -0.8382 -0.5578
  311MOL0     C41892   4.451   5.590  10.697  0.1671  1.0927 -0.1321
  311MOL0     C41893   4.551   5.640  10.588  0.5535  0.1418 -0.5547
  311MOL0    Cl41894   4.702   5.699  10.652  0.5855  0.2702 -0.4637
  311MOL0     C41895   3.740   5.022  10.262  0.9590 -1.1774 -0.1397
  311MOL0     C41896   3.659   5.036  10.149 -0.4146  0.1118  1.3298
  311MOL0     O41897   3.567   4.951   9.883  0.4201  0.3346 -0.4399
  311MOL0     C41898   3.355   5.014   9.718  0.1690 -0.2660 -0.1984
  311MOL0     C41899   3.254   5.054   9.628 -0.8887 -0.1568 -0.9406
  311MOL0     N41900   2.633   5.064   9.542 -0.7452  0.6109  0.2297
  311MOL0     N41901   2.518   5.068   9.591  0.1277 -0.2845  0.0878
  311MOL0     C41902   1.458   5.417   9.725 -0.3488  0.4076 -0.0559
  311MOL0     C41903   1.390   5.535   9.715 -0.7986  0.1681 -0.0549
  311MOL0     C41904   1.099   5.840   9.813  1.2720 -0.5170  0.3255
  311MOL0     C41905   1.159   5.968   9.806  0.3533 -0.2098 -0.2436
  311MOL0     C41906   1.086   6.084   9.787  0.6000 -0.4001  0.7359
  311MOL0     C41907   0.953   6.072   9.746  0.0306  0.0122  0.3816
  311MOL0     O41908   0.881   6.182   9.695 -0.6977 -0.6395 -0.8670
  311MOL0     C41909   0.933   6.309   9.637  0.1019  0.1723 -0.9709
  311MOL0     C41910   0.960   6.282   9.490 -0.0214 -0.3853 -0.4944
  311MOL0     C41911   1.007   6.415   9.418  0.2611  0.1558 -0.4757
  311MOL0     C41912   1.043   6.380   9.275 -0.3356  0.0694 -0.4572
  311MOL0     C41913   1.064   6.498   9.195  0.4483 -0.8762 -0.3039
  311MOL0     C41914   1.091   6.601   9.147 -0.2010  0.8348  0.1978
  311MOL0     C41915   0.895   5.951   9.755  0.0293  1.2408 -0.3797
  311MOL0     C41916   0.959   5.833   9.786  0.0790  0.1310 -0.1013
  311MOL0     C41917   0.866   5.710   9.783 -0.3631  0.4503  0.6184
  311MOL0     H41918   1.478   5.666  10.020 -0.4427 -2.3335  2.4619
  311MOL0     H41919   1.584   5.457  10.042 -0.9013  2.3933  0.9427
  311MOL0     H41920   1.484   5.144   9.736 -0.3305 -1.4410  1.1574
  311MOL0     H41921   1.641   5.185   9.665  3.7811 -3.0489  0.7691
  311MOL0     H41922   1.639   4.959   9.730  1.7855  3.2457 -3.2669
  311MOL0     H41923   1.586   4.987   9.895 -0.7725  1.0557  0.3377
  311MOL0     H41924   1.832   4.941   9.893  0.9742  1.1314  2.1092
  311MOL0     H41925   1.830   5.113   9.925  0.4158 -0.9710  1.5291
  311MOL0     H41926   1.854   5.016   9.645  0.3795  0.3613 -0.6353
  311MOL0     H41927   1.849   5.177   9.696 -0.9698  1.5449  1.8683
  311MOL0     H41928   2.055   5.100   9.837 -1.2014  2.7951 -0.3602
  311MOL0     H41929   2.050   4.946   9.752  1.3314  0.8688  1.1882
  311MOL0     H41930   2.070   5.062   9.531 -1.9532 -0.5933  1.4444
  311MOL0     H41931   2.065   5.226   9.614  0.3562  0.1159  1.2062
  311MOL0     H41932   2.276   5.013   9.595 -1.6439  1.0374 -1.2711
  311MOL0     H41933   2.267   5.123   9.748 -1.3095 -3.8179  1.1068
  311MOL0     H41934   2.281   5.235   9.473  4.1527 -0.3473 -2.1367
  311MOL0     H41935   2.315   5.304   9.624  1.1112  1.0439 -1.3804
  311MOL0     H41936   2.533   5.331   9.391  2.3653  1.5301  1.3302
  311MOL0     H41937   2.846   5.076   9.393 -0.5900 -1.0528  0.3858
  311MOL0     H41938   2.751   5.159   9.264  3.7957 -3.3354  0.0587
  311MOL0     H41939   2.798   5.372   9.377  4.5925  2.3334 -3.2633
  311MOL0     H41940   2.865   5.277   9.514 -1.5111 -1.1310  0.5377
  311MOL0     H41941   3.031   5.406   9.355 -2.8709  1.2933 -4.0873
  311MOL0     H41942   2.989   5.295   9.232 -0.4480  2.1267  0.1508
  311MOL0     H41943   3.196   5.197   9.349 -0.0571 -1.0460  0.3860
  311MOL0     H41944   3.073   5.100   9.420  0.2226  0.2674  0.3741
  311MOL0     H41945   3.249   5.386   9.704  1.1006  0.9703 -0.8027
  311MOL0     H41946   3.448   5.318   9.830  2.0232 -0.4747 -0.3399
  311MOL0     H41947   3.834   5.295   9.998 -1.9286  1.4468  0.8558
  311MOL0     H41948   3.979   5.246  10.193  0.7545 -0.3175  4.3188
  311MOL0     H41949   4.087   5.212  10.372  1.7623 -0.6705  1.6723
  311MOL0     H41950   3.965   5.244  10.500  0.3144  1.6233 -0.0861
  311MOL0     H41951   4.065   5.065  10.640  0.7785  0.2200 -0.0316
  311MOL0     H41952   4.179   5.014  10.518  0.3774 -0.0737  0.9746
  311MOL0     H41953   4.297   5.154  10.654  1.4222  1.3092 -1.6242
  311MOL0     H41954   4.269   5.249  10.508 -1.0115 -1.1796 -0.7174
  311MOL0     H41955   4.097   5.285  10.759 -1.5057 -0.6315 -1.9910
  311MOL0     H41956   4.093   5.389  10.620  0.2426  0.3772 -0.7266
  311MOL0     H41957   4.332   5.373  10.802 -0.6142  2.9855  3.5045
  311MOL0     H41958   4.209   5.479  10.817  2.8483  1.8594  0.2898
  311MOL0     H41959   4.365   5.485  10.542  1.8072  1.2114 -1.0795
  311MOL0     H41960   4.254   5.601  10.614  1.5352 -0.7456 -2.3216
  311MOL0     H41961   4.508   5.513  10.749 -0.7900  0.9223  0.7051
  311MOL0     H41962   4.417   5.675  10.758 -6.5434  0.9339 -2.7480
  311MOL0     H41963   4.577   5.558  10.520  1.5360 -1.3430  1.5088
  311MOL0     H41964   4.496   5.711  10.526 -3.1757 -3.0380 -1.2334
  311MOL0     H41965   3.716   4.954  10.344 -2.9329 -1.0580 -0.9787
  311MOL0     H41966   3.569   4.978  10.135 -0.5896  1.0731 -2.5793
  311MOL0     H41967   3.372   4.908   9.730  2.6573  0.0739 -0.1111
  311MOL0     H41968   3.223   4.966   9.573  2.2570 -1.7849 -0.3590
  311MOL0     H41969   1.452   5.359   9.634  2.7404  0.9448 -0.7227
  311MOL0     H41970   1.337   5.551   9.622 -1.7160 -2.8824 -0.1464
  311MOL0     H41971   1.267   5.971   9.820  0.4349 -1.7921 -0.4378
  311MOL0     H41972   1.139   6.179   9.788 -0.6923  0.3909 -0.9874
  311MOL0     H41973   1.020   6.350   9.690  1.8830 -2.0097 -2.0838
  311MOL0     H41974   0.848   6.377   9.643 -2.3410 -2.8063  3.0300
  311MOL0     H41975   0.873   6.240   9.439  1.1699 -1.2327 -1.9057
  311MOL0     H41976   1.039   6.208   9.474 -1.6773 -2.2565 -0.4747
  311MOL0     H41977   1.099   6.458   9.460  0.2613  0.2145 -0.5350
  311MOL0     H41978   0.921   6.482   9.429  0.2628  0.7026 -3.0490
  311MOL0     H41979   1.128   6.312   9.272 -0.8990 -0.8050  1.7846
  311MOL0     H41980   0.951   6.335   9.237 -1.5410  2.7380 -0.9573
  311MOL0     H41981   1.131   6.696   9.119  0.4220  0.6147  0.3250
  311MOL0     H41982   0.792   5.943   9.723 -0.4000  2.4143  0.6396
  311MOL0     H41983   0.889   5.651   9.872  0.2520  0.2236  0.3146
  311MOL0     H41984   0.761   5.736   9.770 -0.2165  0.8345  0.1647
  311MOL0     H41985   0.896   5.647   9.699  2.1403  1.2742  0.8037
  312MOL0     O41986   4.294   3.644   3.565 -0.6785 -0.5164  0.4015
  312MOL0     C41987   4.234   3.537   3.568  0.4201 -0.9582  0.8766
  312MOL0     O41988   4.289   3.419   3.603  0.3382 -0.7749 -0.6539
  312MOL0     C41989   4.421   3.413   3.637  0.2022  0.2608  0.1259
  312MOL0     C41990   4.521   3.440   3.543 -0.2827 -0.2879 -0.1903
  312MOL0     C41991   4.662   3.435   3.558 -0.8321 -0.3783  0.3998
  312MOL0     C41992   4.704   3.419   3.687  0.3530 -0.2088 -0.1601
  312MOL0     O41993   4.839   3.407   3.699  0.0583 -0.4037 -0.4114
  312MOL0     C41994   4.885   3.392   3.834 -0.3196  0.1979  0.0972
  312MOL0     C41995   5.035   3.388   3.827  0.2603 -0.7430  0.1038
  312MOL0     C41996   5.095   3.535   3.790 -0.2725  0.8632 -0.2446
  312MOL0     C41997   5.256   3.530   3.803  1.2800 -1.0656  0.3840
  312MOL0     C41998   5.325   3.650   3.723  0.8521 -0.5305 -0.4813
  312MOL0     C41999   5.476   3.663   3.767  1.0359 -0.0054 -0.1790
  312MOL0     C42000   5.528   3.781   3.684 -0.9299 -1.0344  0.4199
  312MOL0     C42001   5.579   3.724   3.554 -0.0722  0.1559 -0.2946
  312MOL0     N42002   5.548   3.827   3.449  0.3699  0.0650 -0.7331
  312MOL0     C42003   5.628   3.932   3.411 -0.3087  0.2907  0.1858
  312MOL0     C42004   5.569   3.991   3.303  0.5237 -0.6610 -0.5822
  312MOL0     C42005   5.639   4.107   3.236 -0.0813 -1.1414  0.0248
  312MOL0     C42006   5.526   4.212   3.230  0.0862  0.4544 -0.0132
  312MOL0     C42007   5.573   4.356   3.213 -0.9787 -1.1394 -0.3099
  312MOL0     C42008   5.656   4.416   3.335 -0.0604 -0.7556  0.0158
  312MOL0     O42009   5.776   4.495   3.300  0.1342  0.6069 -0.4926
  312MOL0     C42010   5.886   4.419   3.267 -1.0254 -0.8891 -0.3338
  312MOL0     C42011   5.941   4.422   3.137  0.0576  0.1623 -0.5463
  312MOL0     C42012   6.051   4.342   3.104 -1.0092 -0.2584 -0.0102
  312MOL0     C42013   6.111   4.247   3.192  0.2811  0.6916 -0.1607
  312MOL0     C42014   6.225   4.163   3.155 -0.7298 -0.6236  0.4362
  312MOL0     O42015   6.268   4.187   3.030  0.4731  0.2924 -0.0456
  312MOL0     C42016   6.402   4.180   2.997  0.4523  0.0762 -0.2178
  312MOL0     C42017   6.420   4.147   2.861 -0.0217 -1.0607 -0.3370
  312MOL0     C42018   6.549   4.155   2.815  0.5862 -0.2372  1.0242
  312MOL0     C42019   6.654   4.183   2.890 -0.1102  0.2460  0.0990
  312MOL0     O42020   6.772   4.172   2.817  0.0435 -0.3770  0.2574
  312MOL0     C42021   6.901   4.193   2.874 -0.2919  0.9032 -0.5148
  312MOL0     C42022   7.002   4.164   2.770  0.1678 -0.4218 -0.0252
  312MOL0     C42023   6.991   4.021   2.727 -0.6382  0.1799 -0.6434
  312MOL0     C42024   7.125   3.972   2.682 -0.1293 -0.7507 -0.2115
  312MOL0     C42025   7.142   3.832   2.635  0.0704  0.0263  0.1110
  312MOL0     C42026   7.268   3.816   2.549 -1.1542  0.0420 -0.5969
  312MOL0     C42027   7.306   3.671   2.508 -0.9962 -0.2146 -0.4592
  312MOL0     C42028   7.450   3.669   2.457  0.5544  0.4682  0.1758
  312MOL0    Cl42029   7.474   3.514   2.368 -0.3367  0.2871 -0.1576
  312MOL0     C42030   6.642   4.206   3.022  0.8945 -0.7763  0.6789
  312MOL0     C42031   6.516   4.198   3.080 -0.7333  0.0802  0.1841
  312MOL0     O42032   6.284   4.110   3.248  0.2095 -0.7882 -0.9057
  312MOL0     C42033   6.054   4.243   3.318 -0.8051 -0.4887 -0.5717
  312MOL0     C42034   5.941   4.323   3.352 -0.7711 -0.2058  0.3865
  312MOL0     N42035   5.443   3.912   3.274 -0.1594 -0.1902  0.3910
  312MOL0     N42036   5.438   3.823   3.369 -0.5192  0.2575 -0.0701
  312MOL0     C42037   4.603   3.393   3.788  0.6498  0.3155  0.1964
  312MOL0     C42038   4.463   3.386   3.762  0.3507 -0.2024 -0.3708
  312MOL0     C42039   4.080   3.549   3.535 -0.4533  1.0688  0.3045
  312MOL0     C42040   4.002   3.429   3.533  0.3193 -0.9045 -0.3444
  312MOL0     C42041   3.862   3.431   3.522  0.1278 -0.5850 -1.1096
  312MOL0     C42042   3.793   3.548   3.501 -0.5028 -0.1636  0.7479
  312MOL0     O42043   3.657   3.525   3.481 -0.7932  0.1499  0.1430
  312MOL0     C42044   3.581   3.625   3.432  0.8749 -0.8883  0.1188
  312MOL0     C42045   3.460   3.554   3.370 -0.1593 -0.5472 -0.0154
  312MOL0     C42046   3.360   3.654   3.309  0.1673  0.6876 -0.3070
  312MOL0     C42047   3.271   3.581   3.210  0.3077 -0.2862 -0.2913
  312MOL0     C42048   3.337   3.556   3.079  0.3698 -0.4953 -0.3621
  312MOL0     C42049   3.372   3.557   2.966  0.5794  0.6461 -0.0971
  312MOL0     C42050   3.865   3.666   3.504 -0.1493 -0.3822 -0.4339
  312MOL0     C42051   4.001   3.662   3.532  0.5328 -0.5515  0.5541
  312MOL0     C42052   4.058   3.804   3.542 -0.1000 -0.3415 -0.9525
  312MOL0     H42053   4.484   3.489   3.453 -1.4430  1.9936  1.4111
  312MOL0     H42054   4.733   3.458   3.480  0.2688 -3.0160  0.5051
  312MOL0     H42055   4.860   3.471   3.906 -0.3181 -1.9981  2.6932
  312MOL0     H42056   4.846   3.308   3.894  0.4905  0.8003  1.5323
  312MOL0     H42057   5.076   3.316   3.756 -1.8882 -4.3090  2.2113
  312MOL0     H42058   5.074   3.356   3.925  0.2133 -1.3221 -0.0616
  312MOL0     H42059   5.054   3.612   3.857  1.1840  2.5498 -1.1948
  312MOL0     H42060   5.074   3.569   3.688  2.9405  1.6164 -0.7856
  312MOL0     H42061   5.300   3.523   3.902  1.8254 -1.1721  0.1392
  312MOL0     H42062   5.281   3.434   3.756  1.9196 -0.4893 -0.4837
  312MOL0     H42063   5.313   3.627   3.617 -1.9255 -0.5094 -0.2404
  312MOL0     H42064   5.262   3.738   3.738 -1.4371 -1.6273 -2.7856
  312MOL0     H42065   5.498   3.697   3.869  0.4081  2.4801 -0.8039
  312MOL0     H42066   5.538   3.575   3.750  3.2936  1.9871 -3.3584
  312MOL0     H42067   5.611   3.828   3.738  0.2796 -2.4085 -0.1889
  312MOL0     H42068   5.449   3.850   3.654 -0.8052 -0.9260  0.3402
  312MOL0     H42069   5.686   3.698   3.560 -0.4998 -1.5734  0.2908
  312MOL0     H42070   5.532   3.632   3.519  1.9636 -1.4717  0.9407
  312MOL0     H42071   5.721   3.966   3.455  1.6177 -0.6656 -2.8192
  312MOL0     H42072   5.718   4.153   3.296 -0.9106 -1.3032  1.2805
  312MOL0     H42073   5.685   4.085   3.139  1.2592  1.3393  0.0145
  312MOL0     H42074   5.457   4.182   3.151 -0.4225 -1.8079  1.1919
  312MOL0     H42075   5.473   4.222   3.326 -1.7844  1.8778 -1.1155
  312MOL0     H42076   5.480   4.414   3.213  1.0218  2.6439  3.3524
  312MOL0     H42077   5.631   4.359   3.120  0.9855  3.3499  0.7963
  312MOL0     H42078   5.685   4.345   3.414 -1.0222  0.1875  1.2725
  312MOL0     H42079   5.593   4.474   3.404  0.7784  0.0308  0.1407
  312MOL0     H42080   5.892   4.488   3.066  0.3795  0.9788 -0.0220
  312MOL0     H42081   6.083   4.344   3.000  1.0317  1.4001  0.5690
  312MOL0     H42082   6.338   4.119   2.796 -3.2227  3.3041  1.3420
  312MOL0     H42083   6.556   4.126   2.711 -1.4925 -0.0644  0.7852
  312MOL0     H42084   6.913   4.299   2.895 -1.0603  0.8774  0.0957
  312MOL0     H42085   6.908   4.139   2.970 -1.6927  1.9108  0.1827
  312MOL0     H42086   6.983   4.229   2.685 -0.5327 -0.9512 -0.2818
  312MOL0     H42087   7.102   4.195   2.803 -2.0168  4.7242  3.0208
  312MOL0     H42088   6.953   3.957   2.807 -3.5479  2.5697  0.0958
  312MOL0     H42089   6.921   4.019   2.644  0.9112 -0.8754 -1.9859
  312MOL0     H42090   7.193   3.976   2.767  0.0617  0.8425 -0.4092
  312MOL0     H42091   7.157   4.043   2.605  0.3523 -0.1703  0.5053
  312MOL0     H42092   7.051   3.807   2.580 -1.3395  1.1000  1.8471
  312MOL0     H42093   7.141   3.775   2.728  0.4608  2.2836  1.5710
  312MOL0     H42094   7.253   3.875   2.458 -0.9456 -0.0408 -0.6840
  312MOL0     H42095   7.351   3.855   2.608 -1.4953 -2.1479  1.4995
  312MOL0     H42096   7.235   3.635   2.433 -1.0395 -2.7379  0.6999
  312MOL0     H42097   7.301   3.610   2.599 -0.3396  3.5376  2.3371
  312MOL0     H42098   7.491   3.745   2.389  2.7089 -1.0520 -0.3269
  312MOL0     H42099   7.515   3.673   2.545  0.0052 -0.4315  0.6316
  312MOL0     H42100   6.732   4.232   3.076  1.0198 -0.3084  0.2535
  312MOL0     H42101   6.500   4.208   3.187  1.8319 -1.1116  0.7568
  312MOL0     H42102   6.080   4.165   3.389  3.2661 -0.1599 -1.4307
  312MOL0     H42103   5.899   4.316   3.451 -1.8292 -0.6079 -0.0725
  312MOL0     H42104   4.620   3.351   3.887 -0.3077 -3.6967 -1.1681
  312MOL0     H42105   4.379   3.367   3.829 -0.7209 -1.8363 -2.0819
  312MOL0     H42106   4.051   3.333   3.525 -0.6179 -1.3841 -0.3891
  312MOL0     H42107   3.805   3.339   3.513  2.3004 -2.2749  0.8771
  312MOL0     H42108   3.623   3.696   3.361  2.1217 -2.2815 -0.5658
  312MOL0     H42109   3.543   3.690   3.512  2.1844  0.4376 -0.2970
  312MOL0     H42110   3.418   3.472   3.429 -1.5745  0.4948  0.4955
  312MOL0     H42111   3.507   3.505   3.284  0.5145 -1.3278  0.7834
  312MOL0     H42112   3.415   3.731   3.254  6.5377 -2.4652  0.5840
  312MOL0     H42113   3.302   3.695   3.392  0.0125  2.6527 -1.3258
  312MOL0     H42114   3.237   3.485   3.250  4.1849 -0.9678  1.8996
  312MOL0     H42115   3.180   3.640   3.198 -0.0170 -0.3870  1.4355
  312MOL0     H42116   3.384   3.549   2.859 -0.8202  1.1224 -0.3172
  312MOL0     H42117   3.822   3.766   3.501  1.1944  0.2830  1.0040
  312MOL0     H42118   3.998   3.887   3.501  2.3705  2.0638  0.0216
  312MOL0     H42119   4.106   3.832   3.636  4.0783  0.5962 -3.1057
  312MOL0     H42120   4.149   3.806   3.482  0.5141  0.2682 -0.0228
  313MOL0     O42121  10.470   9.573   2.937 -0.3319  0.5219  0.7712
  313MOL0     C42122  10.394   9.509   2.861 -0.4979  0.3441  0.4910
  313MOL0     O42123  10.343   9.551   2.741 -0.5073 -0.0326 -0.6160
  313MOL0     C42124  10.414   9.647   2.671  0.8554 -0.9101 -0.1733
  313MOL0     C42125  10.334   9.738   2.608  0.1923  0.0224  0.4595
  313MOL0     C42126  10.385   9.841   2.526  0.1600  0.9521  0.5711
  313MOL0     C42127  10.529   9.839   2.509  0.3562  0.1665 -0.0326
  313MOL0     O42128  10.578   9.941   2.429  0.0707 -0.0477 -0.9871
  313MOL0     C42129  10.711   9.942   2.377  1.0816  1.0577 -0.2879
  313MOL0     C42130  10.731  10.040   2.269 -0.0963 -0.7454  0.1035
  313MOL0     C42131  10.865  10.027   2.210 -0.1070 -0.2532 -0.6641
  313MOL0     C42132  10.857  10.122   2.081 -0.5083 -0.2124  0.7363
  313MOL0     C42133  11.000  10.139   2.032 -1.0990 -0.2167 -0.0755
  313MOL0     C42134  11.062  10.014   1.974  0.2353 -0.9843  0.4078
  313MOL0     C42135  10.979   9.952   1.868  0.2303 -0.8773 -0.0295
  313MOL0     C42136  10.975  10.039   1.742 -0.2189 -0.5457 -1.2452
  313MOL0     N42137  10.916   9.982   1.623  1.1677  0.1765 -0.4787
  313MOL0     C42138  10.784   9.955   1.618 -0.9363 -0.4210 -0.4741
  313MOL0     C42139  10.759   9.935   1.488 -0.3744 -0.1258 -0.3556
  313MOL0     C42140  10.625   9.884   1.429 -0.8707  0.4987 -1.5146
  313MOL0     C42141  10.642   9.759   1.340 -0.0020  0.1412 -0.0793
  313MOL0     C42142  10.725   9.777   1.216 -0.3549  0.0513  0.3912
  313MOL0     C42143  10.672   9.893   1.133 -0.3915 -0.0965  0.2843
  313MOL0     O42144  10.722   9.898   0.997 -0.3005  0.9115  0.0600
  313MOL0     C42145  10.851   9.913   0.959 -0.5393 -0.3082  0.1143
  313MOL0     C42146  10.962   9.958   1.039  0.0847  0.7427  0.7814
  313MOL0     C42147  11.089   9.985   0.983  0.0820 -0.3289 -0.4463
  313MOL0     C42148  11.107   9.966   0.852 -0.2090  0.8967  0.2143
  313MOL0     C42149  11.241   9.973   0.788  1.2413 -0.0981 -0.2454
  313MOL0     O42150  11.348  10.010   0.869  0.0088  0.9206  0.8173
  313MOL0     C42151  11.476   9.988   0.811 -0.0788 -0.2369  0.4359
  313MOL0     C42152  11.559   9.879   0.826  0.3989 -0.1407  0.2566
  313MOL0     C42153  11.691   9.875   0.779 -0.4280 -0.0899  0.0111
  313MOL0     C42154  11.749   9.989   0.727  0.1147  0.5260  0.8487
  313MOL0     O42155  11.881   9.982   0.687  0.1125  0.0314 -0.7677
  313MOL0     C42156  11.956  10.097   0.719 -0.4066 -0.0395  0.5998
  313MOL0     C42157  12.108  10.079   0.651  0.9403  0.5431 -0.7471
  313MOL0     C42158  12.212  10.078   0.761  0.0602  0.1104  0.5289
  313MOL0     C42159  12.244  10.224   0.810 -0.0962  0.4541  1.0963
  313MOL0     C42160  12.348  10.232   0.929 -0.5268  0.9337  0.4003
  313MOL0     C42161  12.488  10.261   0.881 -0.2227 -0.1117  0.5568
  313MOL0     C42162  12.580  10.283   1.002 -0.2512  0.4075  0.2005
  313MOL0     C42163  12.722  10.338   0.958  0.5221 -1.3731  0.3573
  313MOL0    Cl42164  12.826  10.352   1.098 -0.3002 -0.1783  0.3532
  313MOL0     C42165  11.666  10.104   0.716 -0.7083  0.3173 -0.0022
  313MOL0     C42166  11.531  10.104   0.762  0.3433 -0.1737  1.2742
  313MOL0     O42167  11.251   9.929   0.675  0.2839  0.0850 -0.4382
  313MOL0     C42168  11.001   9.910   0.772 -0.3684 -0.2718  0.2196
  313MOL0     C42169  10.877   9.887   0.825 -0.2390  0.3120 -0.7706
  313MOL0     N42170  10.883   9.961   1.411 -0.2755 -0.4191 -0.3609
  313MOL0     N42171  10.968   9.997   1.500 -0.1011 -0.7035  0.9325
  313MOL0     C42172  10.607   9.739   2.560  0.8205  0.1211 -1.1059
  313MOL0     C42173  10.550   9.649   2.643  0.6026  0.3293 -0.3044
  313MOL0     C42174  10.368   9.372   2.911  0.0061 -0.6741 -0.6169
  313MOL0     C42175  10.476   9.285   2.942  0.0422  0.8384 -0.1191
  313MOL0     C42176  10.450   9.153   2.977  0.2845 -0.1770  0.2650
  313MOL0     C42177  10.321   9.124   3.021 -0.0519 -0.3757  0.7620
  313MOL0     O42178  10.283   9.001   3.073  1.2088 -0.0622 -0.5583
  313MOL0     C42179  10.287   8.990   3.217  0.4582 -0.6381  0.3583
  313MOL0     C42180  10.377   8.882   3.278  0.1673 -0.0909  0.2753
  313MOL0     C42181  10.535   8.901   3.259 -0.5449 -0.8155 -0.1718
  313MOL0     C42182  10.583   9.011   3.352 -0.2802 -0.5251  0.4163
  313MOL0     C42183  10.550   9.149   3.322  0.4460 -0.6540 -0.6779
  313MOL0     C42184  10.516   9.268   3.295 -1.1084  0.5544 -0.7039
  313MOL0     C42185  10.214   9.211   3.000 -0.2095 -0.4211  0.4511
  313MOL0     C42186  10.236   9.330   2.929  0.4101 -0.1954  0.4451
  313MOL0     C42187  10.118   9.406   2.888  0.0515  0.2943  0.4729
  313MOL0     H42188  10.227   9.727   2.622  0.3896 -0.9637  1.3721
  313MOL0     H42189  10.329   9.927   2.489 -2.3591 -1.1901 -0.9216
  313MOL0     H42190  10.795   9.950   2.447  1.4968  2.1391 -0.8686
  313MOL0     H42191  10.728   9.845   2.331  2.1659  1.6135 -1.1127
  313MOL0     H42192  10.721  10.145   2.299  0.9182  0.0373 -2.0868
  313MOL0     H42193  10.664  10.018   2.185 -1.0198 -0.5183  0.7717
  313MOL0     H42194  10.880   9.920   2.195 -0.4161 -0.6456  1.5409
  313MOL0     H42195  10.942  10.063   2.280  1.1052 -3.7496 -0.0088
  313MOL0     H42196  10.781  10.086   2.012 -0.7054  1.7987 -0.1605
  313MOL0     H42197  10.835  10.222   2.119 -2.6558 -0.6658  0.8081
  313MOL0     H42198  10.990  10.219   1.958 -2.3691 -1.2818 -1.1103
  313MOL0     H42199  11.057  10.169   2.120 -1.2604  1.0527 -0.3857
  313MOL0     H42200  11.160  10.038   1.932 -1.3700  0.6905 -2.7993
  313MOL0     H42201  11.083   9.940   2.051  3.1122 -0.2952  0.4063
  313MOL0     H42202  10.879   9.924   1.903  1.3574 -1.4732  3.0472
  313MOL0     H42203  11.031   9.862   1.835  3.2545  1.6516 -2.8712
  313MOL0     H42204  10.928  10.136   1.762  0.4899 -0.2835 -0.8239
  313MOL0     H42205  11.081  10.057   1.725  0.1958  0.5594  1.8566
  313MOL0     H42206  10.706   9.946   1.694 -1.1152 -2.2974 -0.8132
  313MOL0     H42207  10.558   9.846   1.507  1.5153 -0.2315  0.3120
  313MOL0     H42208  10.578   9.967   1.375 -0.3516  1.7388 -0.1296
  313MOL0     H42209  10.688   9.679   1.399  2.9316  1.7797  0.0373
  313MOL0     H42210  10.542   9.729   1.306  0.6485 -0.9332 -1.1176
  313MOL0     H42211  10.706   9.692   1.149  0.6287  0.9045 -1.0484
  313MOL0     H42212  10.833   9.775   1.233 -0.5656 -3.7891  2.3931
  313MOL0     H42213  10.711   9.988   1.171  2.8100  0.2598 -3.3030
  313MOL0     H42214  10.563   9.885   1.127 -0.4656 -1.4260  2.3058
  313MOL0     H42215  10.945   9.981   1.144  0.8894 -3.3604  1.9975
  313MOL0     H42216  11.155  10.033   1.055  1.2095 -2.3404 -0.0740
  313MOL0     H42217  11.524   9.789   0.875  2.0187 -1.0032 -0.1065
  313MOL0     H42218  11.745   9.782   0.792  2.6827  1.6363  0.3511
  313MOL0     H42219  11.922  10.193   0.679  0.7321 -0.2082 -0.8933
  313MOL0     H42220  11.964  10.097   0.828 -0.4002  3.3041  0.7034
  313MOL0     H42221  12.109   9.978   0.610 -0.8251 -0.4422  1.4669
  313MOL0     H42222  12.121  10.153   0.571 -0.6181  1.8044  0.1102
  313MOL0     H42223  12.187  10.012   0.845  0.1363 -2.0920 -1.1019
  313MOL0     H42224  12.302  10.024   0.731 -0.7691 -3.3235  3.4756
  313MOL0     H42225  12.145  10.266   0.827 -0.7423 -0.4912 -0.1615
  313MOL0     H42226  12.296  10.273   0.727  3.2509 -1.1256  2.0447
  313MOL0     H42227  12.358  10.137   0.983 -4.5440 -0.9230 -1.7113
  313MOL0     H42228  12.313  10.304   1.004 -0.8548 -1.3773  2.6332
  313MOL0     H42229  12.523  10.187   0.808  0.6397  3.5719 -3.1525
  313MOL0     H42230  12.486  10.359   0.831 -0.9164  0.0894  0.9718
  313MOL0     H42231  12.583  10.190   1.060 -3.4480 -0.7164 -1.2314
  313MOL0     H42232  12.545  10.364   1.067  1.8408 -0.0996  2.0763
  313MOL0     H42233  12.768  10.268   0.887  1.2892  0.1089 -0.6681
  313MOL0     H42234  12.719  10.438   0.914  2.3410  0.4790  3.9662
  313MOL0     H42235  11.714  10.193   0.676 -1.2085  1.8886  2.6802
  313MOL0     H42236  11.469  10.192   0.748 -2.2999 -2.1181 -0.3825
  313MOL0     H42237  11.007   9.889   0.665 -0.8453  2.0152 -0.3035
  313MOL0     H42238  10.792   9.867   0.760 -0.0629 -1.8106 -0.3995
  313MOL0     H42239  10.711   9.737   2.530  0.5581  0.1446 -2.0256
  313MOL0     H42240  10.607   9.569   2.690 -0.8194  0.0287  1.0067
  313MOL0     H42241  10.582   9.307   2.931 -0.2813  1.7894 -1.5919
  313MOL0     H42242  10.523   9.079   3.010  1.8841  1.9278  1.7110
  313MOL0     H42243  10.185   8.967   3.248 -0.2078  0.4517 -0.9178
  313MOL0     H42244  10.306   9.085   3.267  2.3744 -0.6689 -0.2063
  313MOL0     H42245  10.353   8.779   3.251  1.7973 -0.8474  1.5816
  313MOL0     H42246  10.359   8.894   3.385 -1.9175  2.5464 -0.2293
  313MOL0     H42247  10.551   8.938   3.158 -1.2511 -1.4166 -0.5102
  313MOL0     H42248  10.585   8.807   3.284  0.6076 -0.3288 -0.5590
  313MOL0     H42249  10.549   8.989   3.454  2.3890 -1.0657  1.2738
  313MOL0     H42250  10.691   9.004   3.343 -0.3784 -1.0156 -0.4460
  313MOL0     H42251  10.477   9.368   3.284 -4.2611 -0.0040  3.2137
  313MOL0     H42252  10.114   9.175   3.025 -0.7246 -0.8843 -2.0252
  313MOL0     H42253  10.114   9.509   2.923  3.5183  1.1584 -1.2453
  313MOL0     H42254  10.104   9.405   2.780  0.5695 -0.8812  0.3960
  313MOL0     H42255  10.032   9.353   2.931  0.0119  1.1478  1.4865
  314MOL0     O42256  10.447   1.372   8.711  0.6598  0.2265  0.7443
  314MOL0     C42257  10.457   1.473   8.777 -0.2848  0.0620  0.0730
  314MOL0     O42258  10.368   1.525   8.857 -0.3549 -0.1276 -1.3145
  314MOL0     C42259  10.246   1.473   8.883  0.0209  0.6838  0.4776
  314MOL0     C42260  10.208   1.334   8.877  0.0737 -0.1720  0.7108
  314MOL0     C42261  10.075   1.294   8.911  0.3063 -0.3281  0.9862
  314MOL0     C42262   9.974   1.385   8.944 -0.9247 -0.0763  0.6857
  314MOL0     O42263   9.853   1.322   8.957 -0.0783  0.1716  0.8828
  314MOL0     C42264   9.747   1.399   8.978  0.4710  1.0871  0.0485
  314MOL0     C42265   9.744   1.446   9.124  0.0661 -0.2215 -0.4336
  314MOL0     C42266   9.627   1.540   9.161 -0.2206 -0.7534  0.0936
  314MOL0     C42267   9.673   1.692   9.135  0.3548  0.3504 -0.1903
  314MOL0     C42268   9.557   1.788   9.164  0.1188 -0.4145  0.0667
  314MOL0     C42269   9.577   1.838   9.310 -0.1347 -0.8846  0.2093
  314MOL0     C42270   9.487   1.960   9.330  0.0778 -0.4924 -0.4877
  314MOL0     C42271   9.483   2.003   9.475 -0.1548 -0.2305  1.3239
  314MOL0     N42272   9.420   1.906   9.569  0.3700 -0.1776  0.3689
  314MOL0     C42273   9.303   1.837   9.543  0.3427 -0.6877  0.6467
  314MOL0     C42274   9.261   1.794   9.659  0.2976  0.3165  0.2573
  314MOL0     C42275   9.138   1.707   9.682 -0.0309 -0.1107 -0.0433
  314MOL0     C42276   9.023   1.762   9.776  0.0394  0.2718  0.3062
  314MOL0     C42277   8.908   1.659   9.752  0.5096  0.7479 -0.4615
  314MOL0     C42278   8.781   1.712   9.796  0.3637 -0.0627 -0.1632
  314MOL0     O42279   8.688   1.675   9.692  0.2295 -0.3755 -0.7268
  314MOL0     C42280   8.568   1.751   9.689  0.2126 -0.3653  0.7079
  314MOL0     C42281   8.509   1.783   9.561 -0.0687 -0.8802 -0.9173
  314MOL0     C42282   8.388   1.850   9.556 -0.3192 -0.0240 -0.4088
  314MOL0     C42283   8.306   1.861   9.670 -0.6129 -0.0702  0.3290
  314MOL0     C42284   8.179   1.925   9.665 -0.3207 -0.3887 -0.0755
  314MOL0     O42285   8.129   1.958   9.538  0.3269  0.1344  0.1061
  314MOL0     C42286   7.998   1.995   9.518  0.2179  0.7104 -0.2800
  314MOL0     C42287   7.932   1.953   9.403 -0.2112  0.5998 -0.0516
  314MOL0     C42288   7.799   1.994   9.372  0.3073 -0.6677 -0.2198
  314MOL0     C42289   7.722   2.077   9.451  0.4505  0.8134 -0.0792
  314MOL0     O42290   7.594   2.107   9.420 -0.0183 -0.2143  0.0687
  314MOL0     C42291   7.514   2.021   9.346  0.2847 -0.5963 -0.8254
  314MOL0     C42292   7.371   2.044   9.408  0.0998  0.5293  0.9652
  314MOL0     C42293   7.350   1.955   9.535  0.5205 -0.3300  0.4318
  314MOL0     C42294   7.413   2.003   9.668  0.2419  0.2264 -0.0002
  314MOL0     C42295   7.440   1.885   9.754 -0.3765  0.6678 -0.0010
  314MOL0     C42296   7.579   1.818   9.727  0.2843 -0.7091  0.1169
  314MOL0     C42297   7.630   1.717   9.835 -0.3057 -0.7545  0.1697
  314MOL0     C42298   7.672   1.793   9.963 -0.0652 -0.6690 -0.7922
  314MOL0    Cl42299   7.783   1.922   9.915 -0.2490  0.1936 -0.2344
  314MOL0     C42300   7.781   2.122   9.571  0.2468  0.2744  0.2999
  314MOL0     C42301   7.910   2.068   9.607  0.5287  0.5596  0.2214
  314MOL0     O42302   8.125   1.939   9.772 -0.3307 -0.9577 -0.0974
  314MOL0     C42303   8.357   1.823   9.793 -0.3331  1.1627 -0.1525
  314MOL0     C42304   8.485   1.758   9.798 -0.3821 -0.2030 -0.1717
  314MOL0     N42305   9.342   1.835   9.758 -0.9475  0.0118 -0.4944
  314MOL0     N42306   9.440   1.901   9.703 -0.9209 -1.0603  0.0318
  314MOL0     C42307  10.009   1.519   8.949  1.1668 -0.2593 -0.0019
  314MOL0     C42308  10.138   1.562   8.921 -0.0275  0.7918 -0.0147
  314MOL0     C42309  10.579   1.559   8.765  0.4839 -0.1502 -1.1304
  314MOL0     C42310  10.556   1.702   8.758  0.3240  0.6940 -0.6521
  314MOL0     C42311  10.667   1.788   8.744 -0.5581  0.8052  0.3120
  314MOL0     C42312  10.797   1.739   8.741  0.3284  0.3474 -0.2314
  314MOL0     O42313  10.895   1.829   8.764  0.1113  1.0921 -0.9608
  314MOL0     C42314  11.030   1.776   8.758  0.0701 -0.5706 -0.0249
  314MOL0     C42315  11.118   1.896   8.792 -0.2046 -0.0353 -0.7819
  314MOL0     C42316  11.094   1.944   8.935  1.0599 -0.1618  0.7759
  314MOL0     C42317  11.156   1.865   9.044 -0.3249 -0.5536 -0.1697
  314MOL0     C42318  11.301   1.864   9.038 -0.8863 -0.4364 -0.0036
  314MOL0     C42319  11.419   1.873   9.041  0.1009 -1.3830 -0.2568
  314MOL0     C42320  10.809   1.602   8.731 -0.0279 -0.1309 -0.1082
  314MOL0     C42321  10.706   1.507   8.743  0.6258 -0.2184 -0.1406
  314MOL0     C42322  10.743   1.360   8.752  0.4651 -0.4385 -0.1751
  314MOL0     H42323  10.285   1.260   8.858 -0.0785 -0.9308  2.7908
  314MOL0     H42324  10.036   1.193   8.915 -1.5968  0.2969 -0.1724
  314MOL0     H42325   9.749   1.490   8.917  1.3879  1.2571  0.3187
  314MOL0     H42326   9.670   1.327   8.951  0.6826  0.8052  0.1951
  314MOL0     H42327   9.837   1.490   9.160  1.6331 -1.0584 -3.1158
  314MOL0     H42328   9.724   1.356   9.184 -0.3815  0.4508  0.4504
  314MOL0     H42329   9.593   1.544   9.265 -0.9517 -1.9220 -0.0885
  314MOL0     H42330   9.542   1.510   9.099 -1.8055  0.7919  1.4320
  314MOL0     H42331   9.766   1.729   9.180  0.7807  0.0882 -0.8369
  314MOL0     H42332   9.678   1.699   9.026 -1.9742 -0.4594 -0.3943
  314MOL0     H42333   9.569   1.861   9.084 -0.8904 -0.8380 -0.4873
  314MOL0     H42334   9.455   1.749   9.154 -1.1882  2.5804  0.5431
  314MOL0     H42335   9.542   1.760   9.377 -2.5783 -0.0761 -0.0232
  314MOL0     H42336   9.683   1.860   9.328 -0.9643  4.0362  0.4364
  314MOL0     H42337   9.382   1.943   9.304 -0.1590  0.9726 -0.5966
  314MOL0     H42338   9.528   2.042   9.270  2.8960  1.0312  3.1808
  314MOL0     H42339   9.578   2.045   9.510 -0.3120  0.3126  1.1077
  314MOL0     H42340   9.415   2.088   9.473 -2.9495 -2.0225 -4.8815
  314MOL0     H42341   9.260   1.822   9.444 -1.3825 -0.1405  1.2662
  314MOL0     H42342   9.097   1.693   9.582 -1.0558  3.0157 -0.1559
  314MOL0     H42343   9.164   1.605   9.711  1.5752  0.5771  1.1128
  314MOL0     H42344   9.052   1.777   9.880  0.5815  0.1444  0.1779
  314MOL0     H42345   8.989   1.860   9.742 -1.1538 -0.0086  0.6293
  314MOL0     H42346   8.925   1.564   9.805 -0.6232  1.5493  1.4688
  314MOL0     H42347   8.891   1.626   9.649 -0.5644  2.3220 -0.8265
  314MOL0     H42348   8.770   1.820   9.812 -3.3207 -0.3643  0.2517
  314MOL0     H42349   8.759   1.661   9.890 -2.0880 -0.7974 -1.0487
  314MOL0     H42350   8.563   1.770   9.468  0.8977 -3.0892 -0.0857
  314MOL0     H42351   8.362   1.893   9.460 -1.1915  0.3409 -0.0154
  314MOL0     H42352   7.979   1.884   9.333 -3.5215 -3.4515  1.2573
  314MOL0     H42353   7.750   1.971   9.278 -1.6913  4.4218 -0.7082
  314MOL0     H42354   7.506   2.044   9.239 -2.9345  1.6852 -0.2546
  314MOL0     H42355   7.551   1.922   9.371  1.5412  0.7044  3.2914
  314MOL0     H42356   7.358   2.146   9.446  0.8443  0.7076  0.7421
  314MOL0     H42357   7.304   2.016   9.326  0.7816 -2.9447  1.4556
  314MOL0     H42358   7.243   1.957   9.555  0.5354 -0.2446  0.5049
  314MOL0     H42359   7.375   1.852   9.507 -1.8146 -1.1382  1.1302
  314MOL0     H42360   7.342   2.075   9.709 -0.3067  1.0264 -2.2204
  314MOL0     H42361   7.507   2.059   9.656 -0.2212  1.5441  1.9045
  314MOL0     H42362   7.374   1.799   9.746 -0.1416  0.3561  1.1458
  314MOL0     H42363   7.435   1.933   9.853  2.0250  3.2739 -0.9834
  314MOL0     H42364   7.557   1.771   9.631 -0.6978  1.6208 -0.8685
  314MOL0     H42365   7.645   1.905   9.715  0.7816 -1.2161 -1.0248
  314MOL0     H42366   7.721   1.664   9.806  1.9221  1.8360  2.0178
  314MOL0     H42367   7.552   1.640   9.842 -2.9719  1.8997  3.1719
  314MOL0     H42368   7.587   1.830  10.020  1.7558 -1.3198  2.6002
  314MOL0     H42369   7.723   1.737  10.042 -1.2103  0.2212  0.6305
  314MOL0     H42370   7.741   2.190   9.645  4.0499  1.5627  1.4073
  314MOL0     H42371   7.957   2.102   9.699 -0.6636 -0.8914  1.4139
  314MOL0     H42372   8.311   1.829   9.891  0.1376  0.1393  0.1458
  314MOL0     H42373   8.501   1.708   9.893 -3.6184 -0.8290  0.1522
  314MOL0     H42374   9.940   1.600   8.970 -0.4084 -1.4695 -0.3469
  314MOL0     H42375  10.158   1.668   8.919  0.7867  0.6958  1.3425
  314MOL0     H42376  10.457   1.747   8.766 -0.7554 -1.0944 -2.8386
  314MOL0     H42377  10.649   1.894   8.734 -3.7464  0.4695  1.4184
  314MOL0     H42378  11.049   1.729   8.661  1.4229  0.1787 -0.1504
  314MOL0     H42379  11.035   1.700   8.836  1.7057 -1.1303 -0.6329
  314MOL0     H42380  11.102   1.986   8.731 -2.0268  1.2013  1.3431
  314MOL0     H42381  11.219   1.858   8.778 -0.4147 -1.0122  0.2380
  314MOL0     H42382  10.988   1.954   8.960  1.0162 -1.3872  1.1136
  314MOL0     H42383  11.125   2.049   8.940  0.3003  0.0488  1.1098
  314MOL0     H42384  11.124   1.902   9.142  0.7247 -2.7122  1.0568
  314MOL0     H42385  11.126   1.761   9.031 -3.2564  0.5816 -4.8882
  314MOL0     H42386  11.515   1.919   9.035 -0.8886  0.7937 -0.5210
  314MOL0     H42387  10.907   1.556   8.733 -0.5158 -1.3673 -2.0202
  314MOL0     H42388  10.782   1.335   8.652  0.2759 -1.3651 -0.0312
  314MOL0     H42389  10.825   1.330   8.818 -0.4241 -4.1582 -0.5545
  314MOL0     H42390  10.660   1.292   8.773  0.2824  0.3604  1.8644
  315MOL0     O42391   3.001   6.298   7.898 -0.4010  0.4067  0.7306
  315MOL0     C42392   3.094   6.370   7.861  0.5085 -0.9276 -0.3327
  315MOL0     O42393   3.076   6.497   7.795  0.1918 -0.2246 -0.7973
  315MOL0     C42394   2.960   6.513   7.726  0.7593  0.0421  0.2435
  315MOL0     C42395   2.951   6.472   7.594 -1.3853  0.1856  0.0160
  315MOL0     C42396   2.825   6.471   7.530 -0.2786  0.9339 -0.7057
  315MOL0     C42397   2.714   6.523   7.595 -0.3898 -0.7613 -0.0168
  315MOL0     O42398   2.592   6.524   7.541  0.4228  0.5904  0.0582
  315MOL0     C42399   2.517   6.643   7.527 -0.2925  0.8505 -0.3322
  315MOL0     C42400   2.380   6.616   7.590  0.4338 -0.0188 -0.2232
  315MOL0     C42401   2.313   6.750   7.654  0.7538 -0.0087  0.0618
  315MOL0     C42402   2.163   6.738   7.659 -0.5116  0.0809 -0.3174
  315MOL0     C42403   2.116   6.874   7.679 -0.5128 -0.6932 -0.1679
  315MOL0     C42404   1.975   6.890   7.641  0.4168 -0.6596 -0.8326
  315MOL0     C42405   1.945   7.036   7.642  0.6964 -0.4934 -0.3620
  315MOL0     C42406   1.972   7.100   7.773 -0.2451  1.2568  0.2260
  315MOL0     N42407   2.090   7.191   7.760  0.6318  0.3988 -0.2484
  315MOL0     C42408   2.083   7.327   7.759 -0.0470  0.0558  0.0778
  315MOL0     C42409   2.204   7.377   7.731  0.0874 -0.3209  0.3857
  315MOL0     C42410   2.239   7.522   7.728 -0.2418  1.0324 -0.3938
  315MOL0     C42411   2.218   7.588   7.863 -0.1264 -0.7054 -0.8369
  315MOL0     C42412   2.241   7.744   7.839 -0.3693  0.3451  0.4308
  315MOL0     C42413   2.180   7.827   7.964 -0.8923  0.9456  0.2190
  315MOL0     O42414   2.239   7.956   7.948 -0.4465  0.8547 -0.1853
  315MOL0     C42415   2.193   8.042   7.858 -0.3573 -0.1022 -0.4606
  315MOL0     C42416   2.063   8.052   7.823 -0.5313 -0.5227 -0.3272
  315MOL0     C42417   2.031   8.144   7.723 -0.5897 -0.5988 -0.1544
  315MOL0     C42418   2.127   8.214   7.647 -0.7013 -0.1526 -1.0165
  315MOL0     C42419   2.102   8.293   7.531 -1.1043  0.1534 -0.5652
  315MOL0     O42420   1.974   8.308   7.492 -0.2803 -0.1170 -0.3883
  315MOL0     C42421   1.961   8.390   7.386 -0.5397  0.6877  0.5386
  315MOL0     C42422   1.900   8.336   7.268 -0.3923  0.7013  0.2150
  315MOL0     C42423   1.858   8.437   7.175 -0.1019 -0.0363 -0.2546
  315MOL0     C42424   1.861   8.571   7.196  0.4401  0.1788  0.8077
  315MOL0     O42425   1.819   8.665   7.102 -0.8658 -0.2900 -0.1101
  315MOL0     C42426   1.729   8.618   7.006 -0.5805  0.8376 -0.1971
  315MOL0     C42427   1.685   8.736   6.928  0.0839 -0.2581 -0.1417
  315MOL0     C42428   1.587   8.701   6.815 -0.1624  0.3593 -0.6910
  315MOL0     C42429   1.444   8.716   6.863 -0.4398 -0.4650 -0.6557
  315MOL0     C42430   1.403   8.861   6.886 -0.0526 -0.8814  0.0660
  315MOL0     C42431   1.405   8.954   6.760  0.3228 -0.9167 -0.0194
  315MOL0     C42432   1.301   8.922   6.658 -0.3199 -0.0992  0.4761
  315MOL0     C42433   1.327   8.985   6.524  0.5215 -0.7995  0.5852
  315MOL0    Cl42434   1.189   8.952   6.419  0.3118 -0.3848 -0.1851
  315MOL0     C42435   1.920   8.620   7.312 -0.4111  0.0029  0.1019
  315MOL0     C42436   1.957   8.530   7.408 -0.3760  0.4648 -0.8234
  315MOL0     O42437   2.202   8.351   7.485  0.6144  0.0049 -0.0703
  315MOL0     C42438   2.264   8.194   7.681  0.2229 -0.4713 -0.0154
  315MOL0     C42439   2.289   8.117   7.792  0.2055 -1.1157  0.3165
  315MOL0     N42440   2.287   7.274   7.714  0.1998  0.1371  0.4350
  315MOL0     N42441   2.219   7.160   7.729  0.2406 -0.3458  0.7487
  315MOL0     C42442   2.735   6.593   7.714 -0.2664  0.5380 -0.1710
  315MOL0     C42443   2.859   6.581   7.776 -0.0024  0.2367 -0.7666
  315MOL0     C42444   3.231   6.335   7.901  0.3210 -0.2468 -0.7573
  315MOL0     C42445   3.325   6.397   7.827 -0.3525  0.4122  0.4934
  315MOL0     C42446   3.456   6.392   7.875 -1.2025  0.1989 -0.2547
  315MOL0     C42447   3.501   6.307   7.977  0.0494 -0.6508  0.1992
  315MOL0     O42448   3.636   6.295   8.002 -0.5755  0.3281  0.1324
  315MOL0     C42449   3.678   6.335   8.132  0.2878 -0.0669 -0.5342
  315MOL0     C42450   3.709   6.488   8.144 -1.1298 -0.2640  0.5326
  315MOL0     C42451   3.838   6.514   8.068  1.0557  0.1569 -0.2006
  315MOL0     C42452   3.864   6.665   8.059 -0.0245  0.0072  0.0292
  315MOL0     C42453   3.981   6.691   7.977 -0.0718  0.2686  0.4525
  315MOL0     C42454   4.075   6.683   7.898 -0.0419 -1.4647  0.2036
  315MOL0     C42455   3.395   6.238   8.046  0.6527  0.8090 -0.4453
  315MOL0     C42456   3.258   6.249   8.011 -0.9591 -0.0780  0.0801
  315MOL0     C42457   3.158   6.178   8.091 -0.4372 -0.4955 -0.3417
  315MOL0     H42458   3.039   6.439   7.540 -0.8621  0.0300  0.9533
  315MOL0     H42459   2.818   6.427   7.431 -3.0418 -1.1530  0.2860
  315MOL0     H42460   2.574   6.719   7.582 -1.2988 -0.0039  2.0033
  315MOL0     H42461   2.495   6.675   7.425  0.2565 -1.5150 -1.2453
  315MOL0     H42462   2.381   6.540   7.669  2.3648 -0.6073 -0.7676
  315MOL0     H42463   2.313   6.567   7.518 -1.7904 -0.6057  2.0904
  315MOL0     H42464   2.353   6.822   7.583  0.5337 -0.6570 -0.7287
  315MOL0     H42465   2.355   6.767   7.754 -0.6427 -1.9014  1.0421
  315MOL0     H42466   2.118   6.683   7.575  0.5241  0.8058 -1.3816
  315MOL0     H42467   2.131   6.677   7.744 -1.2558  1.5121  0.4513
  315MOL0     H42468   2.114   6.906   7.784 -2.9854 -2.7655  0.5084
  315MOL0     H42469   2.181   6.943   7.624  1.0256  0.6427  3.0321
  315MOL0     H42470   1.954   6.864   7.537 -0.3216  0.2355 -0.9282
  315MOL0     H42471   1.902   6.833   7.699 -0.1559  0.6419 -0.2196
  315MOL0     H42472   1.836   7.048   7.638  0.7375  1.3385  1.8295
  315MOL0     H42473   1.986   7.096   7.560  2.2315 -0.0612  0.6913
  315MOL0     H42474   1.889   7.166   7.798 -1.5165 -0.1146 -0.2088
  315MOL0     H42475   1.985   7.028   7.854  2.5499 -0.0214 -1.1912
  315MOL0     H42476   1.993   7.384   7.779  0.8106  1.3858  0.2829
  315MOL0     H42477   2.340   7.521   7.686 -0.1077  0.7460 -0.0658
  315MOL0     H42478   2.173   7.562   7.651 -0.7083  0.3594 -0.3548
  315MOL0     H42479   2.118   7.576   7.904  0.9784 -2.5631  1.6133
  315MOL0     H42480   2.285   7.547   7.940 -0.9416 -1.4692 -0.5185
  315MOL0     H42481   2.191   7.781   7.749 -2.5341 -1.7827  0.6240
  315MOL0     H42482   2.349   7.752   7.830 -0.4509  1.3250  0.2452
  315MOL0     H42483   2.211   7.791   8.062  1.7383  0.7289 -0.6074
  315MOL0     H42484   2.072   7.834   7.953 -0.7470  2.1990 -0.5907
  315MOL0     H42485   1.989   8.001   7.883  2.1918 -3.6066  0.7576
  315MOL0     H42486   1.929   8.151   7.688 -0.7078 -1.7091 -0.0582
  315MOL0     H42487   1.891   8.230   7.250 -0.6153  0.4290  1.7847
  315MOL0     H42488   1.818   8.389   7.086 -0.2451 -1.4559  0.5491
  315MOL0     H42489   1.780   8.549   6.938 -0.9479  0.0877  0.2755
  315MOL0     H42490   1.645   8.570   7.056  0.7405 -0.3211  0.9903
  315MOL0     H42491   1.644   8.818   6.987  0.5212  0.4841 -0.8461
  315MOL0     H42492   1.767   8.784   6.872 -0.4250 -1.7791 -2.3297
  315MOL0     H42493   1.605   8.768   6.730 -3.0413  0.9029 -0.9785
  315MOL0     H42494   1.605   8.599   6.779 -3.3846 -0.0274 -1.4803
  315MOL0     H42495   1.428   8.659   6.955 -0.9481 -1.5073 -1.3829
  315MOL0     H42496   1.381   8.676   6.784  0.1026 -1.8191 -0.4221
  315MOL0     H42497   1.467   8.906   6.961 -0.8431  2.0989 -0.9329
  315MOL0     H42498   1.298   8.864   6.917 -0.6846  0.8791 -1.9917
  315MOL0     H42499   1.390   9.054   6.802  1.7753  0.0504 -1.6921
  315MOL0     H42500   1.501   8.957   6.709 -1.3963 -2.8140 -3.7677
  315MOL0     H42501   1.203   8.946   6.700  1.0234  0.4208  3.5989
  315MOL0     H42502   1.295   8.816   6.629 -3.3204 -0.3571  1.6305
  315MOL0     H42503   1.327   9.092   6.545  0.5919 -0.7671  0.4209
  315MOL0     H42504   1.419   8.965   6.469  1.5123  3.1598  0.5356
  315MOL0     H42505   1.919   8.726   7.338 -0.8299 -0.3270  1.5444
  315MOL0     H42506   1.996   8.573   7.500 -2.9063  2.7606 -0.7221
  315MOL0     H42507   2.352   8.239   7.638  1.8537 -3.0758  0.3632
  315MOL0     H42508   2.391   8.121   7.831 -0.0071 -2.2162  1.0416
  315MOL0     H42509   2.658   6.648   7.767 -2.1944  1.3388 -3.5511
  315MOL0     H42510   2.871   6.638   7.868  2.4284  0.4198 -1.1278
  315MOL0     H42511   3.302   6.469   7.749 -1.1506  0.2665  0.5912
  315MOL0     H42512   3.535   6.441   7.820  0.7737  0.3725  2.5413
  315MOL0     H42513   3.767   6.275   8.154 -0.3239 -0.3319  1.3978
  315MOL0     H42514   3.601   6.318   8.207  0.3338  0.3210 -0.3968
  315MOL0     H42515   3.724   6.516   8.249 -5.1967  0.2110  1.1526
  315MOL0     H42516   3.630   6.556   8.113  0.8674  2.0257  0.1554
  315MOL0     H42517   3.823   6.465   7.972 -0.3952 -0.4003  0.2843
  315MOL0     H42518   3.925   6.470   8.119  0.9841  0.3398  0.0776
  315MOL0     H42519   3.780   6.720   8.014  0.0496 -3.1373 -4.6652
  315MOL0     H42520   3.883   6.689   8.164 -0.6003 -0.5183  0.2644
  315MOL0     H42521   4.153   6.690   7.825 -0.9148 -0.1687 -0.6432
  315MOL0     H42522   3.417   6.168   8.126 -2.3495 -2.1949 -2.0307
  315MOL0     H42523   3.200   6.129   8.179 -1.7644  0.4506  0.8538
  315MOL0     H42524   3.076   6.243   8.122  0.9917  1.2266 -0.0089
  315MOL0     H42525   3.106   6.102   8.032 -3.2183  0.9148  0.1465
  316MOL0     O42526   0.722   4.499   8.632  0.5343 -1.2524 -0.5718
  316MOL0     C42527   0.831   4.540   8.658  0.3083  0.4162 -0.9362
  316MOL0     O42528   0.846   4.647   8.730  0.2394 -0.4615 -0.0621
  316MOL0     C42529   0.756   4.744   8.742 -0.6750  0.1844 -0.1103
  316MOL0     C42530   0.662   4.783   8.641 -0.2433  0.1276 -0.0681
  316MOL0     C42531   0.577   4.894   8.676 -1.2349 -0.2306 -0.6509
  316MOL0     C42532   0.602   4.969   8.791 -0.9881  0.5853  0.9672
  316MOL0     O42533   0.523   5.077   8.822  0.0282 -0.6517 -0.4804
  316MOL0     C42534   0.549   5.196   8.744 -0.2092 -0.0626  0.0262
  316MOL0     C42535   0.431   5.295   8.768 -0.8379 -0.8067  1.0918
  316MOL0     C42536   0.299   5.259   8.699 -0.0308 -1.2880 -0.1612
  316MOL0     C42537   0.278   5.294   8.552  0.0599 -0.3931  0.3409
  316MOL0     C42538   0.175   5.200   8.476 -0.2652 -0.0854 -0.4286
  316MOL0     C42539   0.024   5.226   8.519  0.5292 -0.0402  0.8532
  316MOL0     C42540  -0.076   5.135   8.447 -0.2899 -0.5230  0.2752
  316MOL0     C42541  -0.228   5.158   8.475 -0.0015  0.1871 -0.3329
  316MOL0     N42542  -0.297   5.245   8.387  0.5509 -0.4440  1.4859
  316MOL0     C42543  -0.275   5.380   8.357 -0.2336  0.6694 -0.0845
  316MOL0     C42544  -0.345   5.409   8.245 -0.4473 -0.5462  0.9362
  316MOL0     C42545  -0.342   5.539   8.161  0.8734  0.8517  0.9932
  316MOL0     C42546  -0.210   5.582   8.111  0.2729 -0.0979  0.2216
  316MOL0     C42547  -0.169   5.504   7.982  0.4386  0.7510  0.3607
  316MOL0     C42548  -0.063   5.396   8.010  0.3505 -0.0130  0.0368
  316MOL0     O42549   0.054   5.464   8.062 -0.7395  0.5410 -1.0221
  316MOL0     C42550   0.160   5.386   8.103  0.1662  0.2302  0.6312
  316MOL0     C42551   0.182   5.251   8.080  0.1242  0.4980 -0.1647
  316MOL0     C42552   0.300   5.187   8.119 -0.3423 -0.0944  0.3407
  316MOL0     C42553   0.394   5.254   8.194 -0.4079 -0.6178 -0.4883
  316MOL0     C42554   0.531   5.204   8.233 -0.3044 -0.4036 -0.2817
  316MOL0     O42555   0.600   5.261   8.351  0.1835 -0.6581  0.4849
  316MOL0     C42556   0.725   5.220   8.391 -0.7294  0.8626  0.2249
  316MOL0     C42557   0.833   5.305   8.423  0.3481  0.1870 -0.9911
  316MOL0     C42558   0.955   5.261   8.471  0.0448  0.2888 -1.0069
  316MOL0     C42559   0.968   5.121   8.503  0.2891 -1.1155 -0.8699
  316MOL0     O42560   1.069   5.078   8.589  0.6083 -0.0354  0.3647
  316MOL0     C42561   1.039   4.974   8.686  0.7545 -0.9439 -0.1679
  316MOL0     C42562   1.138   4.859   8.690 -1.1056  0.4091 -0.5513
  316MOL0     C42563   1.140   4.792   8.552 -0.3601 -0.4558  0.0270
  316MOL0     C42564   1.243   4.668   8.560 -0.0544 -0.9900  0.5573
  316MOL0     C42565   1.396   4.694   8.556  0.5210  0.1179  0.2268
  316MOL0     C42566   1.484   4.562   8.576 -1.1357  0.3194 -0.6880
  316MOL0     C42567   1.634   4.585   8.544  0.5292 -0.6768  1.2330
  316MOL0     C42568   1.697   4.685   8.646 -0.6677 -0.3012 -0.2228
  316MOL0    Cl42569   1.696   4.858   8.597 -0.0390  0.0395  0.0934
  316MOL0     C42570   0.862   5.033   8.472  0.0708 -0.2023 -0.5341
  316MOL0     C42571   0.746   5.084   8.417  0.6323 -1.5537  0.4831
  316MOL0     O42572   0.596   5.136   8.154 -0.3403  0.2135  0.0958
  316MOL0     C42573   0.370   5.393   8.235 -1.5095  0.1465  0.3909
  316MOL0     C42574   0.250   5.452   8.191 -0.6092 -0.3051 -0.4667
  316MOL0     N42575  -0.422   5.293   8.220 -0.6406 -0.1428  0.3289
  316MOL0     N42576  -0.396   5.204   8.304 -1.1315  0.7121  0.1799
  316MOL0     C42577   0.697   4.932   8.881 -0.0459  0.1701 -0.1630
  316MOL0     C42578   0.777   4.822   8.854 -0.0694 -0.0711  0.0880
  316MOL0     C42579   0.951   4.460   8.628 -0.1551  0.7627 -0.6292
  316MOL0     C42580   1.028   4.420   8.739  0.4917 -0.3757 -0.5283
  316MOL0     C42581   1.125   4.321   8.723  0.6973 -0.4298  0.2819
  316MOL0     C42582   1.159   4.280   8.592 -0.0541 -0.2006  0.4286
  316MOL0     O42583   1.257   4.182   8.574  1.4409  0.3425  0.0365
  316MOL0     C42584   1.311   4.153   8.442  0.9222 -0.2127 -0.6366
  316MOL0     C42585   1.417   4.049   8.474 -1.8706 -0.6792  0.2475
  316MOL0     C42586   1.508   4.004   8.359 -0.0926  0.3555  1.6983
  316MOL0     C42587   1.528   3.851   8.358  0.4098 -0.8733 -0.4869
  316MOL0     C42588   1.413   3.778   8.309 -0.0420  0.4898  0.0430
  316MOL0     C42589   1.303   3.722   8.293 -0.3687  1.2501 -0.1955
  316MOL0     C42590   1.094   4.337   8.477  0.4315  0.6159  1.0349
  316MOL0     C42591   0.983   4.415   8.495  1.1213  0.6257 -0.2740
  316MOL0     C42592   0.895   4.475   8.377 -0.5812 -0.2366  0.5987
  316MOL0     H42593   0.654   4.729   8.547 -2.4418  1.5484 -0.7746
  316MOL0     H42594   0.506   4.935   8.604 -3.6112 -1.5159  0.8533
  316MOL0     H42595   0.635   5.243   8.794  0.1198 -1.4956  0.8795
  316MOL0     H42596   0.563   5.172   8.638  1.3412  2.2577 -0.3667
  316MOL0     H42597   0.460   5.397   8.741  0.8813 -0.7112  3.0583
  316MOL0     H42598   0.421   5.292   8.877  1.2765  0.9313  1.3998
  316MOL0     H42599   0.218   5.305   8.756  1.4039  0.7034  0.3788
  316MOL0     H42600   0.284   5.152   8.715 -1.5922 -0.7434  2.6456
  316MOL0     H42601   0.245   5.399   8.551 -1.9791 -0.9066  2.7016
  316MOL0     H42602   0.372   5.288   8.497  0.9917  1.1400  1.6764
  316MOL0     H42603   0.187   5.210   8.368  0.2090  0.2507 -0.3502
  316MOL0     H42604   0.205   5.100   8.508  2.5649  1.4383  2.2179
  316MOL0     H42605   0.015   5.220   8.628 -0.5392  2.5547  0.9913
  316MOL0     H42606   0.000   5.323   8.474  0.0408 -1.5625 -2.5212
  316MOL0     H42607  -0.053   5.031   8.470 -2.4684 -1.2250 -0.4663
  316MOL0     H42608  -0.061   5.143   8.339 -2.4867 -0.4485 -0.0632
  316MOL0     H42609  -0.264   5.055   8.468 -2.3823  0.6919  2.4526
  316MOL0     H42610  -0.231   5.189   8.580 -5.4425 -2.1723  0.5671
  316MOL0     H42611  -0.194   5.440   8.395  0.3105  0.9609 -1.6339
  316MOL0     H42612  -0.403   5.516   8.073  4.0642  1.6611 -1.6741
  316MOL0     H42613  -0.393   5.621   8.211 -2.1218 -1.0895  1.3792
  316MOL0     H42614  -0.205   5.690   8.093  2.1600 -0.2102 -0.0832
  316MOL0     H42615  -0.133   5.574   8.187  1.6180  1.1683 -0.9554
  316MOL0     H42616  -0.123   5.571   7.909 -0.9473 -2.3454 -3.7485
  316MOL0     H42617  -0.241   5.438   7.932  0.2584 -0.6655  2.3741
  316MOL0     H42618  -0.037   5.353   7.913 -0.1226  1.0748 -0.5898
  316MOL0     H42619  -0.101   5.315   8.073 -0.1841  0.1047 -0.1358
  316MOL0     H42620   0.111   5.199   8.017  0.2226 -1.7923  1.5025
  316MOL0     H42621   0.317   5.089   8.075  0.3039  0.6023 -1.0182
  316MOL0     H42622   0.826   5.412   8.406  1.5764 -0.0639 -3.6761
  316MOL0     H42623   1.036   5.326   8.502  0.1268 -0.8606  1.3662
  316MOL0     H42624   1.042   5.008   8.790 -1.2731 -1.7012  0.1863
  316MOL0     H42625   0.936   4.939   8.673  0.3267  0.8413 -2.0634
  316MOL0     H42626   1.236   4.898   8.722 -1.3548 -0.2884  1.1552
  316MOL0     H42627   1.112   4.784   8.764  0.6475 -0.1206 -0.4163
  316MOL0     H42628   1.040   4.752   8.533 -0.3078 -0.1218 -1.0223
  316MOL0     H42629   1.177   4.859   8.474 -0.1711  0.4198  0.8356
  316MOL0     H42630   1.227   4.596   8.480  1.1338 -2.3102  1.4706
  316MOL0     H42631   1.221   4.619   8.656 -2.9527  0.4822  0.7661
  316MOL0     H42632   1.425   4.757   8.641 -1.4609 -2.1840  2.8107
  316MOL0     H42633   1.419   4.740   8.460 -1.0025 -0.2226 -0.3299
  316MOL0     H42634   1.478   4.533   8.681  0.5689  0.0203 -0.6348
  316MOL0     H42635   1.446   4.479   8.517 -1.8957 -0.3021  0.6370
  316MOL0     H42636   1.654   4.634   8.448 -2.3312  1.9320  1.8287
  316MOL0     H42637   1.688   4.489   8.551  1.0258 -0.3679  1.6790
  316MOL0     H42638   1.670   4.665   8.750  2.5199 -1.9754  0.4271
  316MOL0     H42639   1.805   4.669   8.639 -0.8488 -0.9671 -2.0393
  316MOL0     H42640   0.874   4.926   8.470 -0.3831 -0.2511 -0.7519
  316MOL0     H42641   0.664   5.028   8.374  0.9277  0.4955 -3.1109
  316MOL0     H42642   0.447   5.439   8.295 -0.0381 -0.4325 -0.9765
  316MOL0     H42643   0.222   5.554   8.216  0.4307 -0.3426  1.0114
  316MOL0     H42644   0.698   4.999   8.966 -1.5481  1.4999 -1.1222
  316MOL0     H42645   0.851   4.776   8.919 -0.3751 -0.4671  0.1649
  316MOL0     H42646   1.001   4.451   8.840 -1.4710 -2.4489 -0.3276
  316MOL0     H42647   1.188   4.283   8.803  1.4734 -1.9513 -1.0015
  316MOL0     H42648   1.358   4.240   8.397 -2.0709  1.3311 -1.0414
  316MOL0     H42649   1.241   4.106   8.371  3.1079 -2.2594 -1.5778
  316MOL0     H42650   1.369   3.965   8.524 -1.0284 -2.3284 -1.5662
  316MOL0     H42651   1.489   4.091   8.545 -1.4715 -0.7859 -0.0899
  316MOL0     H42652   1.601   4.058   8.377  0.6270 -1.3453  3.3034
  316MOL0     H42653   1.476   4.039   8.260 -3.4743  1.9068  3.1975
  316MOL0     H42654   1.611   3.820   8.295 -0.7007  0.4470 -2.7020
  316MOL0     H42655   1.544   3.815   8.460 -1.3906  0.2645  0.2482
  316MOL0     H42656   1.214   3.663   8.291  2.6856 -3.9746 -2.5244
  316MOL0     H42657   1.122   4.312   8.375 -0.6357 -1.1084  1.1256
  316MOL0     H42658   0.959   4.503   8.293  0.2942 -0.5839  1.1328
  316MOL0     H42659   0.836   4.393   8.335 -1.7848 -0.4347  2.5492
  316MOL0     H42660   0.840   4.564   8.407  0.7044 -0.3231  3.5748
  317MOL0     O42661   4.374   3.526   8.250  0.1840 -0.0014 -0.1446
  317MOL0     C42662   4.483   3.492   8.295  1.0375  1.1705  0.0784
  317MOL0     O42663   4.517   3.365   8.344 -0.3968  0.2413 -0.3580
  317MOL0     C42664   4.449   3.253   8.291 -1.3619  0.1633  0.4855
  317MOL0     C42665   4.375   3.161   8.368 -0.3990  0.2196  0.9499
  317MOL0     C42666   4.296   3.060   8.313  0.1235  0.1679  0.0547
  317MOL0     C42667   4.300   3.036   8.179  0.6541 -0.2241  0.0523
  317MOL0     O42668   4.245   2.925   8.134  0.0216  0.0312 -0.1545
  317MOL0     C42669   4.321   2.839   8.048 -0.6301 -0.2328 -0.5056
  317MOL0     C42670   4.227   2.731   7.977 -0.3593  0.2666  0.4028
  317MOL0     C42671   4.262   2.589   8.026 -0.2241 -0.9115 -0.6331
  317MOL0     C42672   4.251   2.582   8.180  0.3256 -0.6907  0.5922
  317MOL0     C42673   4.281   2.438   8.239  0.1815 -0.2900  0.1876
  317MOL0     C42674   4.412   2.379   8.183 -0.0319  0.2153  0.7442
  317MOL0     C42675   4.468   2.264   8.265  0.4466 -0.6738 -0.1796
  317MOL0     C42676   4.553   2.319   8.382  0.1706  0.6066 -0.7185
  317MOL0     N42677   4.662   2.402   8.341 -0.2952  0.3411 -0.7372
  317MOL0     C42678   4.737   2.404   8.228 -0.1215 -0.9484 -0.0932
  317MOL0     C42679   4.828   2.508   8.224  0.0927  0.9154 -0.0869
  317MOL0     C42680   4.905   2.553   8.105 -0.0620  1.1853  0.4617
  317MOL0     C42681   4.806   2.620   8.013  0.1223 -0.0928  0.5857
  317MOL0     C42682   4.882   2.697   7.898 -0.0154  0.4825  0.2476
  317MOL0     C42683   4.811   2.693   7.764 -0.2524 -0.7705  0.1490
  317MOL0     O42684   4.670   2.714   7.765 -0.3739 -0.6921 -0.2552
  317MOL0     C42685   4.610   2.841   7.749  0.4795  0.7871 -0.5892
  317MOL0     C42686   4.481   2.838   7.698 -0.8724 -0.3355  0.4622
  317MOL0     C42687   4.412   2.959   7.676  0.4622 -0.6101 -0.2509
  317MOL0     C42688   4.463   3.088   7.706 -0.8465  1.5050 -0.5419
  317MOL0     C42689   4.379   3.198   7.701  0.8093 -0.7535  0.3434
  317MOL0     O42690   4.406   3.303   7.781 -0.0370 -0.7937 -0.6258
  317MOL0     C42691   4.328   3.416   7.776  0.6203  0.6793 -0.2158
  317MOL0     C42692   4.301   3.491   7.662 -0.6049  0.3020 -0.1732
  317MOL0     C42693   4.250   3.623   7.673  0.3958  0.0033 -0.1621
  317MOL0     C42694   4.220   3.680   7.795  0.5835 -0.0856  1.1315
  317MOL0     O42695   4.161   3.806   7.816  0.6336  0.7495 -0.5738
  317MOL0     C42696   4.229   3.914   7.750 -0.1102 -0.1315  0.7904
  317MOL0     C42697   4.355   3.966   7.821  0.6893  0.1607  0.5651
  317MOL0     C42698   4.370   4.118   7.806  0.4738  1.0834  0.0379
  317MOL0     C42699   4.283   4.184   7.910  0.6619 -0.1427 -0.5659
  317MOL0     C42700   4.308   4.342   7.913 -0.4531 -0.4253 -0.6170
  317MOL0     C42701   4.453   4.378   7.960  0.4259  0.8946  0.1665
  317MOL0     C42702   4.491   4.525   7.935 -0.4628  0.3479 -0.5093
  317MOL0     C42703   4.624   4.555   8.013 -0.4285 -0.8651  0.4989
  317MOL0    Cl42704   4.612   4.545   8.194  0.0233 -0.0255 -0.0010
  317MOL0     C42705   4.215   3.595   7.908  0.6666  0.1322 -0.2565
  317MOL0     C42706   4.278   3.468   7.900 -0.0635  1.0280  0.6806
  317MOL0     O42707   4.286   3.193   7.622 -0.2902  0.5994 -0.3064
  317MOL0     C42708   4.599   3.094   7.756 -0.5949 -0.2690 -0.2388
  317MOL0     C42709   4.663   2.967   7.770  0.2493  1.0716  0.2992
  317MOL0     N42710   4.794   2.572   8.345 -0.7494 -0.3611 -0.2443
  317MOL0     N42711   4.709   2.510   8.414 -0.8733  0.3548  0.0867
  317MOL0     C42712   4.374   3.116   8.098 -0.5111 -0.5611  0.0990
  317MOL0     C42713   4.449   3.228   8.151  0.3596 -0.7151 -0.2394
  317MOL0     C42714   4.595   3.587   8.282 -0.6039  0.4782  0.6356
  317MOL0     C42715   4.700   3.577   8.369 -0.4412  0.2769  0.3832
  317MOL0     C42716   4.817   3.657   8.364  0.1883  0.5478  0.7764
  317MOL0     C42717   4.820   3.755   8.273  0.2772  0.1368  0.3234
  317MOL0     O42718   4.924   3.843   8.280 -0.5180 -1.0527 -0.4417
  317MOL0     C42719   5.022   3.832   8.174  0.3523 -0.2962 -0.0077
  317MOL0     C42720   5.158   3.823   8.238  0.8848 -0.3257  0.1477
  317MOL0     C42721   5.196   3.948   8.314 -0.5062 -0.6055  0.1742
  317MOL0     C42722   5.327   3.926   8.389  0.0777  0.3973 -0.0398
  317MOL0     C42723   5.355   4.047   8.462 -0.9088  0.7087 -0.6445
  317MOL0     C42724   5.380   4.150   8.512 -1.5182 -0.1546  0.3823
  317MOL0     C42725   4.710   3.781   8.187 -0.8591 -0.6159 -0.1886
  317MOL0     C42726   4.600   3.698   8.186  0.1822  0.4689 -0.5756
  317MOL0     C42727   4.513   3.707   8.071  0.2938  0.7020  0.5730
  317MOL0     H42728   4.365   3.171   8.475  1.8066 -1.2909  1.3533
  317MOL0     H42729   4.250   2.985   8.377  2.6750 -2.4440 -0.9393
  317MOL0     H42730   4.376   2.889   7.967  0.3238 -2.6616 -1.4567
  317MOL0     H42731   4.404   2.787   8.096 -0.1873  0.3228 -0.6570
  317MOL0     H42732   4.233   2.722   7.868  0.8541 -0.6332  0.5319
  317MOL0     H42733   4.128   2.751   8.018 -0.6807  0.5707 -0.4995
  317MOL0     H42734   4.362   2.558   7.995  1.0109 -0.5102  2.6006
  317MOL0     H42735   4.195   2.512   7.983 -4.2510  2.0835 -0.3142
  317MOL0     H42736   4.324   2.651   8.225 -0.0637 -0.8721  1.5304
  317MOL0     H42737   4.150   2.615   8.206 -0.0364 -0.3915 -1.0762
  317MOL0     H42738   4.276   2.441   8.349 -2.2885 -0.6723  0.1386
  317MOL0     H42739   4.207   2.366   8.205 -0.4258  0.0235  0.8045
  317MOL0     H42740   4.389   2.336   8.085  1.9671  0.2164  0.2484
  317MOL0     H42741   4.487   2.458   8.176  1.6332 -1.4924 -3.3273
  317MOL0     H42742   4.543   2.212   8.205 -0.2500 -2.4396  0.4399
  317MOL0     H42743   4.378   2.211   8.297 -1.5522  3.0256  0.8715
  317MOL0     H42744   4.483   2.380   8.440  0.7398  0.9913 -0.4373
  317MOL0     H42745   4.583   2.232   8.441 -3.9885 -0.2260  0.5498
  317MOL0     H42746   4.719   2.332   8.149 -1.1175 -2.7353  1.6635
  317MOL0     H42747   4.987   2.612   8.146  2.0306 -2.6007  2.2787
  317MOL0     H42748   4.951   2.466   8.057 -1.7227  0.1344  0.6975
  317MOL0     H42749   4.744   2.536   7.981  0.0488  0.1850 -0.0262
  317MOL0     H42750   4.754   2.696   8.072  1.6136  2.4343 -1.1098
  317MOL0     H42751   4.976   2.644   7.879  0.3680  1.2271  0.0226
  317MOL0     H42752   4.909   2.798   7.930  1.6081  0.2084 -0.1777
  317MOL0     H42753   4.827   2.602   7.705 -0.0559  1.2981 -3.3158
  317MOL0     H42754   4.848   2.779   7.706  1.7195 -0.0378  2.3526
  317MOL0     H42755   4.433   2.741   7.694 -1.1368 -0.2367 -3.6886
  317MOL0     H42756   4.308   2.950   7.646 -0.3179  3.1828  0.7875
  317MOL0     H42757   4.316   3.449   7.563  2.5598  2.3616 -0.7142
  317MOL0     H42758   4.239   3.681   7.582 -1.3511 -1.5544 -1.0006
  317MOL0     H42759   4.250   3.891   7.645  4.1952 -1.6982  1.7924
  317MOL0     H42760   4.153   3.992   7.739 -1.1724 -1.0809  1.1676
  317MOL0     H42761   4.357   3.926   7.923 -0.5121  0.3617  0.6836
  317MOL0     H42762   4.437   3.923   7.763  1.3957  2.0773  0.0954
  317MOL0     H42763   4.478   4.124   7.818  0.6221  1.1817 -1.1900
  317MOL0     H42764   4.343   4.150   7.705 -0.9959 -0.0661  0.0410
  317MOL0     H42765   4.294   4.142   8.010 -2.4102 -0.8573 -0.4177
  317MOL0     H42766   4.179   4.164   7.884  0.4549 -0.4407  0.4366
  317MOL0     H42767   4.230   4.389   7.973  0.2758  0.6668 -0.4956
  317MOL0     H42768   4.300   4.383   7.812  0.1497  2.5561  0.4691
  317MOL0     H42769   4.454   4.346   8.064 -1.1228 -1.1654 -0.3853
  317MOL0     H42770   4.528   4.312   7.913  2.0000  1.8182  1.2797
  317MOL0     H42771   4.416   4.595   7.974  0.7027 -0.2515  3.1914
  317MOL0     H42772   4.498   4.545   7.828  0.4608 -1.0932 -0.7500
  317MOL0     H42773   4.701   4.486   7.978 -1.1160 -0.3918 -2.2174
  317MOL0     H42774   4.649   4.658   7.986  0.0777 -1.5733 -1.9746
  317MOL0     H42775   4.188   3.628   8.007  1.6633 -1.2520  0.5198
  317MOL0     H42776   4.289   3.409   7.990 -0.9103  2.0004  1.4567
  317MOL0     H42777   4.651   3.186   7.781  0.0602 -0.3242 -1.3388
  317MOL0     H42778   4.766   2.971   7.804  0.3878  3.9394 -0.1719
  317MOL0     H42779   4.371   3.096   7.991 -0.7300 -1.6649  0.3019
  317MOL0     H42780   4.508   3.301   8.097 -0.6897  1.7696  1.7564
  317MOL0     H42781   4.685   3.500   8.443  0.2270 -1.1171 -0.8845
  317MOL0     H42782   4.893   3.645   8.441 -0.0446 -1.0085  0.7935
  317MOL0     H42783   5.018   3.922   8.112 -3.3650  0.1792  0.7035
  317MOL0     H42784   5.010   3.743   8.111 -0.3410  1.6381 -2.7961
  317MOL0     H42785   5.235   3.808   8.162  3.5452 -1.9612  2.9379
  317MOL0     H42786   5.158   3.737   8.305 -4.1498 -0.7274  0.0156
  317MOL0     H42787   5.122   3.986   8.385  2.1782  3.2289  1.2699
  317MOL0     H42788   5.208   4.035   8.249  0.0226  0.8782  2.1414
  317MOL0     H42789   5.310   3.843   8.459 -1.3017 -0.3049 -1.1675
  317MOL0     H42790   5.406   3.892   8.322  1.8416  0.5205  1.8688
  317MOL0     H42791   5.408   4.233   8.573  2.2479  1.0864 -2.6218
  317MOL0     H42792   4.733   3.868   8.127  4.6531 -0.7607  1.1989
  317MOL0     H42793   4.409   3.734   8.092 -0.7091  1.1220 -3.9988
  317MOL0     H42794   4.545   3.786   8.003  0.7059  1.5513  1.7339
  317MOL0     H42795   4.529   3.614   8.015 -2.3198 -0.0697  0.9558
  318MOL0     O42796   1.145  11.004   5.654 -0.1424 -0.3399 -0.3600
  318MOL0     C42797   1.133  10.892   5.703 -0.9447  0.5728 -0.0492
  318MOL0     O42798   1.238  10.806   5.712 -0.7939  0.2309  0.2222
  318MOL0     C42799   1.356  10.867   5.701  0.0834 -0.0844 -0.2874
  318MOL0     C42800   1.441  10.817   5.597 -0.2044 -0.3447 -0.1911
  318MOL0     C42801   1.577  10.838   5.604 -0.4407 -0.1783  0.1586
  318MOL0     C42802   1.629  10.922   5.703  0.6326 -0.5420  0.9867
  318MOL0     O42803   1.757  10.945   5.723 -0.2857  0.0997  0.4681
  318MOL0     C42804   1.859  10.854   5.680  0.0040  0.0588 -0.3653
  318MOL0     C42805   1.996  10.891   5.759 -0.1499 -0.4138  0.2365
  318MOL0     C42806   2.056  11.032   5.723  0.2700 -0.5192 -0.3480
  318MOL0     C42807   2.206  11.052   5.753 -0.4797  0.3144 -0.5170
  318MOL0     C42808   2.312  10.998   5.656  0.7184  0.5767 -0.3739
  318MOL0     C42809   2.338  11.096   5.539  0.6015  0.0518  0.5770
  318MOL0     C42810   2.438  11.028   5.453 -0.2932  0.7148  0.8535
  318MOL0     C42811   2.383  10.893   5.392  0.4850  0.4135 -0.3223
  318MOL0     N42812   2.450  10.853   5.265  0.1109  0.0273  0.3921
  318MOL0     C42813   2.390  10.822   5.148  0.1912  0.7540  0.6451
  318MOL0     C42814   2.481  10.754   5.069  0.6078 -1.3728  0.1011
  318MOL0     C42815   2.448  10.701   4.934 -0.5047  0.0121  1.1144
  318MOL0     C42816   2.446  10.537   4.911 -0.2250  0.5505 -0.1096
  318MOL0     C42817   2.574  10.466   4.939 -0.2792  1.1235  0.0519
  318MOL0     C42818   2.688  10.526   4.853  0.5824 -0.1892  0.1138
  318MOL0     O42819   2.657  10.483   4.718 -0.8650 -0.5380 -0.4296
  318MOL0     C42820   2.755  10.488   4.619 -0.0781  0.2202  0.2284
  318MOL0     C42821   2.855  10.586   4.616  0.6218 -0.1624  0.3650
  318MOL0     C42822   2.954  10.588   4.519  0.3953  0.5250 -0.2158
  318MOL0     C42823   2.959  10.489   4.423  0.1939  0.1096 -0.1066
  318MOL0     C42824   3.051  10.483   4.310  0.9526  0.5495  0.7503
  318MOL0     O42825   3.059  10.363   4.248 -0.0557  0.3258 -0.1527
  318MOL0     C42826   3.113  10.363   4.120 -0.5698 -0.7178 -0.2236
  318MOL0     C42827   3.028  10.361   4.006  0.4311 -0.4209 -0.4561
  318MOL0     C42828   3.088  10.363   3.880 -0.2898 -0.0710  0.9302
  318MOL0     C42829   3.221  10.371   3.857 -0.7151 -0.4109  0.5554
  318MOL0     O42830   3.282  10.366   3.731  0.6073  0.4244  0.1806
  318MOL0     C42831   3.329  10.493   3.687  0.8259 -0.1352  0.7196
  318MOL0     C42832   3.227  10.595   3.643  0.2362 -0.5465  0.0311
  318MOL0     C42833   3.156  10.545   3.518 -0.0477  0.4285 -0.3845
  318MOL0     C42834   3.070  10.646   3.456  1.3114 -0.5564  0.6144
  318MOL0     C42835   2.928  10.642   3.517 -0.5756  0.2252  0.4585
  318MOL0     C42836   2.842  10.756   3.471 -0.1916 -1.1957  0.4957
  318MOL0     C42837   2.771  10.734   3.343 -1.1712 -0.0248  0.3186
  318MOL0     C42838   2.681  10.855   3.311  0.7068 -0.2803  0.3360
  318MOL0    Cl42839   2.769  10.987   3.229 -0.3839 -0.7766  0.1122
  318MOL0     C42840   3.305  10.375   3.971  0.2067  0.7421 -0.3529
  318MOL0     C42841   3.250  10.367   4.102  0.2594 -0.4665  0.0748
  318MOL0     O42842   3.111  10.581   4.276 -0.1950  0.0223  0.0973
  318MOL0     C42843   2.864  10.383   4.435  0.4164 -1.1445  0.3439
  318MOL0     C42844   2.766  10.378   4.534  0.7383 -1.4471  0.5217
  318MOL0     N42845   2.598  10.741   5.141  0.2127  0.0503  0.3691
  318MOL0     N42846   2.575  10.796   5.256 -0.2433  0.8334  0.8022
  318MOL0     C42847   1.548  10.990   5.797 -0.2761 -0.3915 -0.0867
  318MOL0     C42848   1.407  10.965   5.796 -0.1354 -0.4663 -0.1460
  318MOL0     C42849   1.007  10.850   5.768  0.0518  0.0769 -0.4011
  318MOL0     C42850   0.983  10.712   5.791  0.0051  0.2137 -0.0409
  318MOL0     C42851   0.867  10.655   5.846  0.4554 -0.3700 -0.4467
  318MOL0     C42852   0.759  10.745   5.874 -0.1262  0.8039  0.3575
  318MOL0     O42853   0.632  10.706   5.919 -0.7135  0.0271 -0.0550
  318MOL0     C42854   0.597  10.573   5.948  0.0110  0.8344 -0.3646
  318MOL0     C42855   0.670  10.505   6.065 -0.3295 -0.4589  0.0115
  318MOL0     C42856   0.673  10.587   6.194 -0.1146 -0.0456  0.0598
  318MOL0     C42857   0.540  10.645   6.238 -0.3739 -0.0037  0.0973
  318MOL0     C42858   0.437  10.536   6.240 -0.1932 -0.0271  0.0842
  318MOL0     C42859   0.358  10.452   6.244  0.4801 -0.0524 -1.1026
  318MOL0     C42860   0.773  10.886   5.852  0.4672  0.1100 -0.1149
  318MOL0     C42861   0.888  10.937   5.796  0.0106 -0.4306  0.2603
  318MOL0     C42862   0.896  11.082   5.779  0.2091 -0.1302 -0.3088
  318MOL0     H42863   1.391  10.760   5.519 -3.2193 -1.3958  2.2852
  318MOL0     H42864   1.651  10.791   5.540  0.8635  0.1567  1.3723
  318MOL0     H42865   1.829  10.753   5.711 -2.4525 -0.0234 -2.6341
  318MOL0     H42866   1.877  10.851   5.572 -0.9212 -2.5991 -0.5336
  318MOL0     H42867   2.083  10.828   5.737 -0.8963 -2.0959  1.7661
  318MOL0     H42868   1.972  10.891   5.866 -0.8240 -1.5267  0.0983
  318MOL0     H42869   2.010  11.104   5.791 -0.9684 -3.3027  1.9788
  318MOL0     H42870   2.026  11.052   5.619 -0.2719  1.6545  0.1710
  318MOL0     H42871   2.226  11.159   5.763 -0.7640  0.2583  0.8394
  318MOL0     H42872   2.224  11.015   5.855 -0.0104 -0.9042 -1.0251
  318MOL0     H42873   2.406  10.989   5.712  0.6441  1.3848 -0.0994
  318MOL0     H42874   2.293  10.893   5.633  0.5996  0.3024  0.8822
  318MOL0     H42875   2.249  11.121   5.480  1.7523  1.0967 -0.7924
  318MOL0     H42876   2.382  11.191   5.568  0.5855 -0.9654  4.3707
  318MOL0     H42877   2.537  11.015   5.498  1.3279  0.9031 -2.3400
  318MOL0     H42878   2.454  11.094   5.367  1.0300  3.0856  2.8127
  318MOL0     H42879   2.406  10.812   5.462 -0.2177  1.5337  1.2757
  318MOL0     H42880   2.274  10.898   5.383  0.3982  0.3092  0.5600
  318MOL0     H42881   2.288  10.837   5.116  1.0893 -0.5811 -3.5153
  318MOL0     H42882   2.350  10.743   4.909  0.8920  2.1677 -1.2453
  318MOL0     H42883   2.515  10.752   4.865 -3.1800  2.2874 -0.0068
  318MOL0     H42884   2.368  10.496   4.975 -1.0241 -1.2863 -2.1193
  318MOL0     H42885   2.415  10.523   4.807 -2.2815 -1.0869  0.6523
  318MOL0     H42886   2.566  10.359   4.919 -0.4466  0.5802  2.6854
  318MOL0     H42887   2.591  10.464   5.047  0.4483 -2.0452 -0.0217
  318MOL0     H42888   2.780  10.479   4.889  1.2280 -0.0589 -1.3248
  318MOL0     H42889   2.681  10.635   4.863  3.0426  0.0633 -0.1729
  318MOL0     H42890   2.842  10.659   4.695  1.4217 -2.2512  2.5380
  318MOL0     H42891   3.022  10.673   4.524  1.1154 -0.1149  2.0682
  318MOL0     H42892   2.920  10.350   4.016  0.3358 -1.2170 -1.8810
  318MOL0     H42893   3.021  10.348   3.796  1.9260  0.0815 -0.9786
  318MOL0     H42894   3.397  10.533   3.764  1.6001 -1.4083  0.7284
  318MOL0     H42895   3.396  10.500   3.601 -0.8217  6.1674 -0.5915
  318MOL0     H42896   3.147  10.618   3.715 -0.6992 -0.7560 -0.9195
  318MOL0     H42897   3.272  10.693   3.623 -2.0124  0.0554 -2.7347
  318MOL0     H42898   3.229  10.526   3.439 -0.2431 -3.0114  0.1078
  318MOL0     H42899   3.095  10.455   3.533  1.1899 -0.8970 -2.7402
  318MOL0     H42900   3.073  10.628   3.349  1.1434 -0.5945  0.6153
  318MOL0     H42901   3.111  10.747   3.465  1.2150 -0.2237 -2.0305
  318MOL0     H42902   2.933  10.659   3.625 -2.5639  4.9665  0.0682
  318MOL0     H42903   2.873  10.550   3.495  0.7084 -0.6553  0.8535
  318MOL0     H42904   2.769  10.767   3.551 -0.7730 -3.5167  0.3566
  318MOL0     H42905   2.895  10.851   3.458 -3.5057  0.6773 -0.5458
  318MOL0     H42906   2.710  10.645   3.360 -0.6763 -0.0332  2.3960
  318MOL0     H42907   2.821  10.706   3.250 -0.7625  2.1655 -0.1920
  318MOL0     H42908   2.594  10.821   3.254  0.2490 -1.9186  1.9248
  318MOL0     H42909   2.637  10.890   3.404 -0.8005  1.0449 -0.8196
  318MOL0     H42910   3.408  10.398   3.948  0.0111  1.7128 -0.3098
  318MOL0     H42911   3.323  10.380   4.182  3.0894 -3.9369 -1.6763
  318MOL0     H42912   2.874  10.307   4.359  1.1575 -0.7274  0.0063
  318MOL0     H42913   2.696  10.295   4.537  1.4193 -2.0505  0.0167
  318MOL0     H42914   1.591  11.058   5.870  0.4637 -1.8961  0.9248
  318MOL0     H42915   1.358  11.002   5.885 -0.0924  0.5115 -0.5188
  318MOL0     H42916   1.062  10.646   5.756  0.2752  1.5053 -2.0632
  318MOL0     H42917   0.851  10.549   5.865  1.2459 -0.3083  0.7204
  318MOL0     H42918   0.592  10.503   5.864 -1.1921 -0.4711  0.7341
  318MOL0     H42919   0.489  10.578   5.967 -0.2681 -1.2840 -1.1556
  318MOL0     H42920   0.776  10.487   6.045 -0.4074  0.1624 -1.0116
  318MOL0     H42921   0.619  10.409   6.070 -0.1338 -0.7935 -2.8652
  318MOL0     H42922   0.747  10.668   6.187 -0.5676  0.3476 -0.2518
  318MOL0     H42923   0.697  10.512   6.269  0.0581 -0.4061 -0.3509
  318MOL0     H42924   0.551  10.690   6.337 -0.5813 -0.0288  0.1337
  318MOL0     H42925   0.533  10.722   6.160  3.2042  0.9564  0.5679
  318MOL0     H42926   0.293  10.370   6.263 -1.6751  2.1400  1.9989
  318MOL0     H42927   0.688  10.953   5.868 -1.0871 -1.3927 -1.6422
  318MOL0     H42928   0.877  11.124   5.680 -1.4943 -1.2195 -0.4854
  318MOL0     H42929   0.823  11.134   5.842 -0.7701 -1.6962 -0.1041
  318MOL0     H42930   0.997  11.121   5.794  0.4547 -0.3137 -1.4293
  319MOL0     O42931   5.498   7.463   8.139 -0.3219  0.4982  0.6352
  319MOL0     C42932   5.402   7.502   8.206 -0.2001 -1.0892  0.3030
  319MOL0     O42933   5.408   7.620   8.284  0.5117 -0.1809  0.6845
  319MOL0     C42934   5.512   7.714   8.290  0.4987  0.4307  0.0436
  319MOL0     C42935   5.649   7.704   8.284  0.1852 -0.5107 -0.3573
  319MOL0     C42936   5.733   7.813   8.316 -0.9957 -0.0127 -0.2183
  319MOL0     C42937   5.687   7.941   8.352  0.8592 -0.1544  0.3465
  319MOL0     O42938   5.766   8.044   8.383  0.0762  0.0875  0.9130
  319MOL0     C42939   5.887   8.032   8.461 -0.5527  0.1012 -0.2877
  319MOL0     C42940   5.936   8.154   8.531 -0.2945 -0.2307 -0.3801
  319MOL0     C42941   5.857   8.195   8.654  0.0578 -0.5775  0.2667
  319MOL0     C42942   5.874   8.100   8.778  0.0617 -0.0299  0.0280
  319MOL0     C42943   5.786   8.143   8.904  0.2116 -0.7641  0.1798
  319MOL0     C42944   5.784   8.029   9.001 -0.2777  0.4792 -0.5106
  319MOL0     C42945   5.682   8.063   9.115 -0.0818  0.0812 -0.7815
  319MOL0     C42946   5.725   8.167   9.221 -0.3684 -0.5016  0.5382
  319MOL0     N42947   5.853   8.135   9.275 -0.6759  0.0257  0.1846
  319MOL0     C42948   5.877   8.051   9.380 -0.3163 -0.8034 -1.5189
  319MOL0     C42949   5.995   8.083   9.435 -0.0978  0.7417 -0.0417
  319MOL0     C42950   6.069   8.031   9.558 -0.3912 -0.6275  0.0717
  319MOL0     C42951   5.990   8.043   9.687 -0.1803 -1.0840  0.0582
  319MOL0     C42952   5.933   8.183   9.724 -0.2590 -0.4005  0.7668
  319MOL0     C42953   5.814   8.159   9.814 -1.3399  0.3688  0.8562
  319MOL0     O42954   5.715   8.085   9.752  0.0255 -0.6090  0.0817
  319MOL0     C42955   5.635   8.136   9.658  0.2393 -0.7519  0.2700
  319MOL0     C42956   5.549   8.044   9.600 -0.4657 -0.4921  0.5623
  319MOL0     C42957   5.446   8.097   9.514 -0.7377  0.9246 -0.6383
  319MOL0     C42958   5.432   8.236   9.497 -0.0976  0.6541  0.2135
  319MOL0     C42959   5.323   8.288   9.416  0.0241  0.1647 -1.6253
  319MOL0     O42960   5.256   8.194   9.359 -0.2080 -0.1793  0.1642
  319MOL0     C42961   5.153   8.229   9.272  0.3358 -0.9411 -0.0344
  319MOL0     C42962   5.015   8.241   9.310 -1.0664 -0.1905  1.0090
  319MOL0     C42963   4.918   8.286   9.215 -0.8388 -0.3506 -0.8054
  319MOL0     C42964   4.957   8.338   9.084  0.9514 -0.0801  0.0695
  319MOL0     O42965   4.860   8.391   8.999  0.0052  0.0221  0.0711
  319MOL0     C42966   4.897   8.516   8.946  0.0917  0.0316 -0.2395
  319MOL0     C42967   4.907   8.622   9.058 -0.1239 -0.2327 -1.0176
  319MOL0     C42968   4.940   8.754   8.998  0.2154 -0.4974 -0.5189
  319MOL0     C42969   5.080   8.754   8.940 -0.3229  0.2744 -0.0089
  319MOL0     C42970   5.195   8.702   9.022  1.1525  0.6488  0.3739
  319MOL0     C42971   5.216   8.787   9.154 -0.7730 -0.4043  0.7647
  319MOL0     C42972   5.361   8.767   9.211  0.1703  0.4735  0.1568
  319MOL0     C42973   5.481   8.830   9.128  0.1702  0.8416  0.1933
  319MOL0    Cl42974   5.469   9.000   9.170 -0.0955  0.2049  0.2061
  319MOL0     C42975   5.096   8.330   9.053 -0.0206 -0.8237  0.0295
  319MOL0     C42976   5.191   8.277   9.143 -0.8204  0.9644  1.0744
  319MOL0     O42977   5.306   8.409   9.408 -0.1160 -0.4708  0.2038
  319MOL0     C42978   5.527   8.325   9.557 -0.7104 -1.1194 -0.4727
  319MOL0     C42979   5.633   8.268   9.628  0.2749 -0.0514  0.3348
  319MOL0     N42980   6.046   8.186   9.356  0.6573 -0.4005  0.1550
  319MOL0     N42981   5.965   8.210   9.261  0.1020  0.2757  0.5146
  319MOL0     C42982   5.545   7.948   8.353 -0.0682 -0.5874 -0.2019
  319MOL0     C42983   5.459   7.839   8.325  0.4630 -0.1024  0.0027
  319MOL0     C42984   5.265   7.437   8.180  0.5740 -0.0343  0.3164
  319MOL0     C42985   5.149   7.489   8.236  0.3095 -0.2254  0.2638
  319MOL0     C42986   5.017   7.427   8.234  0.0119 -0.4938  0.5735
  319MOL0     C42987   5.000   7.312   8.165 -0.1005 -1.1424  0.2925
  319MOL0     O42988   4.875   7.263   8.158  0.8142  0.9891  0.3250
  319MOL0     C42989   4.852   7.135   8.088 -0.2953  0.2083 -0.7581
  319MOL0     C42990   4.710   7.081   8.097 -0.6911  0.5463  0.2964
  319MOL0     C42991   4.660   7.062   8.241  0.6726 -0.1948 -0.6624
  319MOL0     C42992   4.757   7.002   8.346 -0.2393 -0.1913  0.0601
  319MOL0     C42993   4.698   6.988   8.474  0.6033 -0.7556 -0.5233
  319MOL0     C42994   4.645   6.975   8.588 -0.1897  1.0787  0.4814
  319MOL0     C42995   5.113   7.268   8.091  0.4437  1.1525  0.9599
  319MOL0     C42996   5.247   7.318   8.094  0.2951  0.3704  0.3090
  319MOL0     C42997   5.343   7.239   8.009  0.1467 -0.0019  1.0486
  319MOL0     H42998   5.691   7.608   8.255 -1.2855 -1.6921  1.2747
  319MOL0     H42999   5.841   7.805   8.319 -0.9007  0.6662 -1.3434
  319MOL0     H43000   5.871   7.949   8.531  1.9159 -0.3561 -0.1561
  319MOL0     H43001   5.969   8.011   8.391 -1.1495  1.9752 -1.6309
  319MOL0     H43002   5.943   8.242   8.467  0.5956  1.4934  1.9242
  319MOL0     H43003   6.036   8.137   8.571  0.3978  0.7315 -1.6481
  319MOL0     H43004   5.749   8.206   8.639 -0.3868 -4.1151  0.0215
  319MOL0     H43005   5.883   8.296   8.689  0.9634  0.0078 -1.9435
  319MOL0     H43006   5.866   7.993   8.756  2.3677 -0.0859 -0.7663
  319MOL0     H43007   5.976   8.109   8.814 -0.0244 -1.0096  0.5564
  319MOL0     H43008   5.827   8.231   8.954 -0.9744  0.1464 -0.3999
  319MOL0     H43009   5.684   8.167   8.872 -0.5021 -0.2709  2.6345
  319MOL0     H43010   5.749   7.935   8.959 -0.9638 -0.5127  2.0823
  319MOL0     H43011   5.880   8.005   9.047  0.2430  0.3505 -1.6482
  319MOL0     H43012   5.681   7.970   9.173  4.1242 -0.5550 -1.4019
  319MOL0     H43013   5.580   8.087   9.085 -0.6421 -0.6824  0.4635
  319MOL0     H43014   5.721   8.265   9.173 -1.8988 -0.4135  0.8013
  319MOL0     H43015   5.647   8.162   9.297 -1.8894 -0.7704 -0.9862
  319MOL0     H43016   5.801   7.984   9.418  1.2853 -0.8623  1.9963
  319MOL0     H43017   6.101   7.927   9.552 -0.3883 -0.6183 -0.0668
  319MOL0     H43018   6.162   8.089   9.554 -1.0903  0.6944  1.6565
  319MOL0     H43019   5.912   7.968   9.701 -0.9878 -0.3562 -0.4451
  319MOL0     H43020   6.073   8.022   9.755  1.6782 -0.6235 -1.9573
  319MOL0     H43021   5.904   8.248   9.642 -0.6297  0.4852  1.5821
  319MOL0     H43022   6.007   8.239   9.781  1.0768 -2.1366  0.8196
  319MOL0     H43023   5.776   8.255   9.850 -0.3084  0.8442  0.6913
  319MOL0     H43024   5.855   8.109   9.903 -2.2998 -1.9049  0.1075
  319MOL0     H43025   5.553   7.936   9.614 -1.3129 -1.3677 -4.0872
  319MOL0     H43026   5.377   8.021   9.481  1.0133 -0.1366 -2.0363
  319MOL0     H43027   4.994   8.208   9.411  3.8743  0.5656  2.5609
  319MOL0     H43028   4.816   8.277   9.253  0.1663 -3.6910  1.4891
  319MOL0     H43029   4.987   8.509   8.885 -0.8035  1.5750 -1.8137
  319MOL0     H43030   4.820   8.534   8.871 -2.0743  0.0359  1.8373
  319MOL0     H43031   4.809   8.634   9.105 -0.0591 -0.3599 -0.8509
  319MOL0     H43032   4.969   8.585   9.139 -1.8232 -0.9137  0.0156
  319MOL0     H43033   4.867   8.773   8.918  1.5489 -0.2271 -1.7096
  319MOL0     H43034   4.939   8.833   9.074  0.6598 -0.6591 -0.3416
  319MOL0     H43035   5.096   8.860   8.919  1.4188  0.2313  0.9467
  319MOL0     H43036   5.067   8.703   8.845  0.1385  0.7698 -0.3393
  319MOL0     H43037   5.285   8.703   8.960 -0.1294  2.0096 -1.5581
  319MOL0     H43038   5.182   8.600   9.060  1.0424  1.8198  3.8263
  319MOL0     H43039   5.208   8.893   9.127  0.3095  0.2227  2.6783
  319MOL0     H43040   5.132   8.761   9.219 -0.9965 -3.7737 -0.6789
  319MOL0     H43041   5.386   8.661   9.220 -0.9890  0.1993  0.3512
  319MOL0     H43042   5.357   8.805   9.314 -0.0364  0.8937 -0.0038
  319MOL0     H43043   5.575   8.786   9.162 -1.0961 -3.3040 -1.0688
  319MOL0     H43044   5.473   8.812   9.021  1.7297 -1.8818  0.4612
  319MOL0     H43045   5.128   8.365   8.956  0.0498 -2.2480 -0.4889
  319MOL0     H43046   5.296   8.273   9.113 -0.7229 -2.7203  1.3866
  319MOL0     H43047   5.532   8.431   9.535  0.9039 -0.7366  1.4464
  319MOL0     H43048   5.714   8.331   9.664 -3.2935  4.1471  1.9947
  319MOL0     H43049   5.502   8.043   8.383 -1.4230 -0.8817 -1.1369
  319MOL0     H43050   5.352   7.855   8.339  0.4884 -0.6792  0.9092
  319MOL0     H43051   5.157   7.585   8.286  0.3584  0.1720 -0.4920
  319MOL0     H43052   4.935   7.470   8.291  2.5634  3.2248  1.8450
  319MOL0     H43053   4.920   7.054   8.115 -0.3763 -0.2619 -1.8838
  319MOL0     H43054   4.888   7.158   7.987  0.9747  3.0368  0.2166
  319MOL0     H43055   4.701   6.993   8.032  0.8930  1.2511 -0.9505
  319MOL0     H43056   4.637   7.149   8.052 -0.1041  2.2829  1.8155
  319MOL0     H43057   4.577   6.993   8.221 -0.9038  1.9120 -1.7354
  319MOL0     H43058   4.604   7.149   8.274 -2.7029 -2.3168 -0.2891
  319MOL0     H43059   4.795   6.912   8.298  1.4407 -0.0850  1.1011
  319MOL0     H43060   4.842   7.071   8.355 -0.2172 -0.4341  2.4594
  319MOL0     H43061   4.595   6.945   8.679 -0.2171 -1.5629 -0.3141
  319MOL0     H43062   5.095   7.191   8.017  0.8063  0.8593  1.1734
  319MOL0     H43063   5.400   7.173   8.075 -1.2251 -1.3332  0.9698
  319MOL0     H43064   5.287   7.178   7.938 -4.0942 -0.5618  4.4469
  319MOL0     H43065   5.417   7.304   7.961  1.8845 -1.9546  0.9531
  320MOL0     O43066   3.018   1.756   6.624 -0.1305  0.2208 -0.5837
  320MOL0     C43067   2.963   1.757   6.520  0.1273  0.1392 -0.0338
  320MOL0     O43068   2.842   1.697   6.487  0.2219  0.0674 -0.0372
  320MOL0     C43069   2.783   1.627   6.590 -0.4009 -0.9388  0.3837
  320MOL0     C43070   2.685   1.691   6.672  0.1782  0.7121  0.9183
  320MOL0     C43071   2.630   1.637   6.786  0.1794  0.5778  1.2128
  320MOL0     C43072   2.671   1.500   6.808  0.3133 -0.3298 -0.4296
  320MOL0     O43073   2.627   1.443   6.922 -0.2563 -0.0652  0.1145
  320MOL0     C43074   2.692   1.321   6.970  0.6637  0.4452 -0.2084
  320MOL0     C43075   2.630   1.285   7.110  0.1028 -0.2985 -0.1214
  320MOL0     C43076   2.515   1.181   7.100 -0.6516 -0.3026 -0.0280
  320MOL0     C43077   2.467   1.153   7.245  0.1362 -0.1783 -0.4431
  320MOL0     C43078   2.354   1.045   7.247  0.0733 -0.4497  0.0195
  320MOL0     C43079   2.418   0.907   7.241  0.6201  0.0659 -1.1894
  320MOL0     C43080   2.314   0.796   7.250 -0.0094  0.6541  0.8183
  320MOL0     C43081   2.259   0.799   7.395  0.2422  0.0759 -0.1583
  320MOL0     N43082   2.165   0.685   7.408  0.5748  0.7953 -0.0112
  320MOL0     C43083   2.033   0.692   7.376  0.6713 -0.8061  0.5594
  320MOL0     C43084   1.966   0.590   7.440  0.5020  0.4093 -0.4899
  320MOL0     C43085   1.819   0.578   7.460 -0.6995  1.0390 -0.2992
  320MOL0     C43086   1.771   0.606   7.609  0.4739 -0.5604  0.4745
  320MOL0     C43087   1.756   0.757   7.635  0.1437  0.7688  0.5241
  320MOL0     C43088   1.661   0.796   7.754  0.1072 -0.0508 -0.3813
  320MOL0     O43089   1.716   0.769   7.885 -0.3813  0.5434 -0.1879
  320MOL0     C43090   1.638   0.810   7.997 -0.6554  1.0898  0.1366
  320MOL0     C43091   1.503   0.848   7.975  0.0843  0.0983  0.7964
  320MOL0     C43092   1.432   0.890   8.085 -0.7729  0.7164 -0.2368
  320MOL0     C43093   1.482   0.871   8.220 -0.6826 -0.1703  0.2315
  320MOL0     C43094   1.392   0.901   8.335  0.1059  0.3773 -0.2540
  320MOL0     O43095   1.454   0.943   8.453  0.0445 -0.6101  0.4751
  320MOL0     C43096   1.375   0.948   8.565 -1.3146  0.2615 -0.0960
  320MOL0     C43097   1.370   1.059   8.640  0.4205  1.1652  0.1248
  320MOL0     C43098   1.272   1.052   8.739 -0.6007 -0.1841  0.0516
  320MOL0     C43099   1.197   0.935   8.766 -0.3129 -0.5753  0.2198
  320MOL0     O43100   1.103   0.933   8.865 -0.1987  0.3837  0.1611
  320MOL0     C43101   1.040   0.816   8.920 -0.0058  0.5577  0.4654
  320MOL0     C43102   0.973   0.867   9.044  0.5312  0.5108 -0.6664
  320MOL0     C43103   0.921   0.752   9.134 -0.0874  0.0893 -0.1760
  320MOL0     C43104   1.025   0.698   9.235  0.0919 -0.2284 -0.2126
  320MOL0     C43105   0.956   0.593   9.323 -0.1249 -0.4766 -0.2847
  320MOL0     C43106   1.060   0.493   9.382  1.1509  0.2231  0.0515
  320MOL0     C43107   0.989   0.359   9.408  0.4208  0.5547  0.0784
  320MOL0     C43108   0.885   0.357   9.517  0.4866 -0.7054 -0.0557
  320MOL0    Cl43109   0.944   0.443   9.671 -0.0026 -0.0767  0.0247
  320MOL0     C43110   1.227   0.817   8.701  0.5387  0.9731 -0.9272
  320MOL0     C43111   1.314   0.824   8.597  0.0872 -1.5173 -0.2737
  320MOL0     O43112   1.275   0.885   8.314  0.0998 -0.3287 -0.8960
  320MOL0     C43113   1.622   0.836   8.236  0.3540  0.8891  0.3862
  320MOL0     C43114   1.696   0.816   8.123 -0.3290  0.2722 -0.0837
  320MOL0     N43115   2.057   0.538   7.530  0.7425  0.8176  0.2042
  320MOL0     N43116   2.175   0.587   7.503 -0.0445 -0.6494 -0.2212
  320MOL0     C43117   2.768   1.437   6.730  0.0484  1.2563  0.5900
  320MOL0     C43118   2.825   1.495   6.618 -0.8087 -0.4507  0.8074
  320MOL0     C43119   3.044   1.812   6.412  0.5299 -0.0907  0.0110
  320MOL0     C43120   3.028   1.753   6.289  1.2189 -0.3112  0.7883
  320MOL0     C43121   3.078   1.826   6.173 -0.2851 -0.3553 -0.3525
  320MOL0     C43122   3.156   1.936   6.181  0.4639 -0.3094 -0.1989
  320MOL0     O43123   3.203   1.988   6.059  0.2000 -0.1825  0.8050
  320MOL0     C43124   3.314   2.080   6.054  0.0047  0.4939 -0.8113
  320MOL0     C43125   3.442   2.019   6.109 -0.4424 -0.2674 -0.3467
  320MOL0     C43126   3.501   1.919   6.020 -0.2205 -0.6089 -0.5034
  320MOL0     C43127   3.595   1.968   5.911  0.0717 -0.4054  0.5552
  320MOL0     C43128   3.632   1.846   5.830 -0.2517  0.5187 -0.4369
  320MOL0     C43129   3.678   1.755   5.766  0.6769  0.0677 -0.1188
  320MOL0     C43130   3.197   1.974   6.313 -0.1464 -0.6983  0.2161
  320MOL0     C43131   3.140   1.913   6.419 -0.3130 -1.1921 -0.5896
  320MOL0     C43132   3.180   1.972   6.551 -0.4626  0.0170  0.7556
  320MOL0     H43133   2.640   1.789   6.655 -2.8196 -0.6537  0.2430
  320MOL0     H43134   2.557   1.687   6.848 -0.7771 -0.9714  1.3931
  320MOL0     H43135   2.696   1.233   6.905  1.9230 -1.4956  2.3149
  320MOL0     H43136   2.798   1.346   6.987  0.9202 -0.4535 -0.4275
  320MOL0     H43137   2.597   1.373   7.165 -1.9666 -0.0432 -1.6716
  320MOL0     H43138   2.712   1.252   7.175  0.2036  2.1834  1.1260
  320MOL0     H43139   2.531   1.088   7.045 -4.6813 -2.2335  1.6289
  320MOL0     H43140   2.431   1.233   7.053 -0.5067  0.6809  0.7567
  320MOL0     H43141   2.559   1.132   7.299  2.3885  1.0984 -3.4783
  320MOL0     H43142   2.426   1.246   7.287  2.1876  0.4049  0.3968
  320MOL0     H43143   2.301   1.075   7.338  0.5529  0.1100  0.1262
  320MOL0     H43144   2.283   1.061   7.166 -0.7112 -2.6666  0.2132
  320MOL0     H43145   2.461   0.895   7.141 -1.5558 -0.0828 -2.1859
  320MOL0     H43146   2.495   0.900   7.317 -2.9986  1.3994  3.0325
  320MOL0     H43147   2.371   0.706   7.228 -1.6546  0.0708 -1.4263
  320MOL0     H43148   2.231   0.800   7.179  1.5893  2.1517 -1.0869
  320MOL0     H43149   2.338   0.797   7.471  0.3814  1.1385 -0.2575
  320MOL0     H43150   2.202   0.891   7.406 -1.3572 -0.7476 -1.1820
  320MOL0     H43151   1.995   0.778   7.322 -1.6806 -1.2520  1.3908
  320MOL0     H43152   1.781   0.662   7.400  3.0071  2.3387 -1.0895
  320MOL0     H43153   1.792   0.483   7.414  1.6461 -0.5905  1.4904
  320MOL0     H43154   1.673   0.558   7.621 -0.2803  1.0878  1.1903
  320MOL0     H43155   1.830   0.556   7.685 -3.0756 -3.5249  1.5891
  320MOL0     H43156   1.702   0.802   7.551 -1.1348 -0.9819  0.3541
  320MOL0     H43157   1.850   0.812   7.645 -0.2683  2.0147 -1.8407
  320MOL0     H43158   1.570   0.735   7.753  0.0881 -0.1999  2.4870
  320MOL0     H43159   1.653   0.902   7.730  0.0686 -0.0156 -0.2091
  320MOL0     H43160   1.453   0.832   7.880  1.4532 -1.6280  0.3168
  320MOL0     H43161   1.326   0.907   8.068 -0.9745  0.6107  0.8407
  320MOL0     H43162   1.439   1.140   8.619  0.0570  1.4390 -0.0200
  320MOL0     H43163   1.257   1.140   8.801 -0.5697  0.8881 -1.4109
  320MOL0     H43164   0.968   0.764   8.855  1.0738 -1.7147  0.9831
  320MOL0     H43165   1.119   0.747   8.950 -0.0972 -0.6311 -1.7713
  320MOL0     H43166   1.028   0.945   9.097  1.2357  1.7063 -3.0039
  320MOL0     H43167   0.883   0.917   9.005  1.0257 -0.4474 -3.2290
  320MOL0     H43168   0.829   0.783   9.184  0.8946  0.4561  1.4651
  320MOL0     H43169   0.899   0.673   9.062  0.7463 -0.6201  0.3200
  320MOL0     H43170   1.067   0.780   9.294  1.8196  0.0422 -1.7664
  320MOL0     H43171   1.107   0.663   9.172  0.2421  2.2027 -1.4836
  320MOL0     H43172   0.880   0.540   9.263  0.2181  0.6316 -1.7488
  320MOL0     H43173   0.911   0.643   9.409 -1.0432  1.6658 -1.8911
  320MOL0     H43174   1.129   0.473   9.299 -0.7792 -2.0044 -1.1485
  320MOL0     H43175   1.102   0.532   9.475 -1.6764 -0.4255  1.7131
  320MOL0     H43176   1.074   0.296   9.436  0.3706  1.6459  3.0912
  320MOL0     H43177   0.948   0.314   9.317  3.4225 -1.3572 -0.4529
  320MOL0     H43178   0.794   0.401   9.475  0.6888 -1.3889 -1.2419
  320MOL0     H43179   0.860   0.257   9.556 -0.8833 -0.9624 -1.4866
  320MOL0     H43180   1.190   0.721   8.737  3.9505  0.2987  1.3345
  320MOL0     H43181   1.345   0.746   8.528  1.1342 -0.2162 -1.3359
  320MOL0     H43182   1.663   0.825   8.335  0.9316  2.3162  0.3263
  320MOL0     H43183   1.804   0.803   8.135 -0.2508  1.4275  0.7347
  320MOL0     H43184   2.809   1.337   6.742 -1.0492  0.7884  0.5541
  320MOL0     H43185   2.894   1.439   6.556 -0.2990  0.2567  0.7232
  320MOL0     H43186   2.962   1.668   6.275  0.1107  0.7216 -0.5095
  320MOL0     H43187   3.063   1.785   6.073  2.5747 -1.7606 -0.2996
  320MOL0     H43188   3.284   2.164   6.118 -1.5056 -2.0328  2.0345
  320MOL0     H43189   3.337   2.109   5.951  0.0772 -1.6892 -1.4561
  320MOL0     H43190   3.421   1.964   6.202 -1.5793 -2.1177 -1.6419
  320MOL0     H43191   3.513   2.097   6.139 -2.5768  1.1762  1.2294
  320MOL0     H43192   3.424   1.860   5.970 -0.0679 -0.7725 -0.5462
  320MOL0     H43193   3.563   1.852   6.081  2.0098  0.8466 -1.0621
  320MOL0     H43194   3.545   2.030   5.836 -0.6889  0.3408  1.6408
  320MOL0     H43195   3.686   2.015   5.950  0.9651 -0.3092 -1.4947
  320MOL0     H43196   3.715   1.686   5.692 -0.2120 -1.0735  0.4845
  320MOL0     H43197   3.264   2.059   6.321 -0.1891 -0.6782  0.3851
  320MOL0     H43198   3.231   2.066   6.531 -2.1323  1.0701  1.2334
  320MOL0     H43199   3.099   1.998   6.620 -2.1782  2.1850 -1.8766
  320MOL0     H43200   3.245   1.897   6.597 -0.2778  1.4573  2.9674
  321MOL0     O43201   4.062   4.577   3.818 -0.0320 -0.4584  0.7800
  321MOL0     C43202   3.987   4.610   3.909 -0.2705 -0.0795  0.4583
  321MOL0     O43203   3.976   4.733   3.965  1.1528 -0.2557  0.3499
  321MOL0     C43204   4.051   4.853   3.934  0.5666  0.9868 -0.3588
  321MOL0     C43205   4.147   4.882   3.832  0.2796  0.5809  0.3694
  321MOL0     C43206   4.201   5.005   3.822  0.2724 -0.7006 -0.0472
  321MOL0     C43207   4.173   5.112   3.912  0.3805  0.7929 -0.9969
  321MOL0     O43208   4.248   5.224   3.902  0.0637  0.2809 -0.6868
  321MOL0     C43209   4.188   5.346   3.949 -0.3124 -0.0037  0.3733
  321MOL0     C43210   4.285   5.471   3.912  0.3554  0.0102 -0.8271
  321MOL0     C43211   4.235   5.592   3.990  0.1623 -0.4564 -0.3981
  321MOL0     C43212   4.272   5.715   3.917 -1.0990  0.0288  0.0989
  321MOL0     C43213   4.417   5.746   3.955  0.2920 -0.3153  0.4894
  321MOL0     C43214   4.483   5.856   3.873  0.6165 -0.2912 -0.0839
  321MOL0     C43215   4.633   5.858   3.873 -0.2946 -0.1735  0.0524
  321MOL0     C43216   4.688   5.924   4.002  0.4663 -1.1678  1.1301
  321MOL0     N43217   4.835   5.927   3.980 -0.3955 -0.1891 -0.0880
  321MOL0     C43218   4.905   5.999   3.883  0.3295  0.1344  0.7266
  321MOL0     C43219   5.032   5.951   3.869  0.4343 -0.0867 -0.1799
  321MOL0     C43220   5.152   6.017   3.803  0.5277 -0.0131  0.0778
  321MOL0     C43221   5.256   6.060   3.909  0.1160 -0.6671 -0.8074
  321MOL0     C43222   5.396   6.085   3.865 -0.1295  1.1059  0.5010
  321MOL0     C43223   5.491   6.096   3.991 -0.0799  0.8458  0.0861
  321MOL0     O43224   5.465   6.223   4.052 -0.1872 -0.3958 -0.2455
  321MOL0     C43225   5.580   6.294   4.085  1.0099 -0.6166 -0.2363
  321MOL0     C43226   5.645   6.288   4.207  0.1894 -0.4075  0.5426
  321MOL0     C43227   5.768   6.352   4.215 -0.4536 -0.4354 -0.5251
  321MOL0     C43228   5.818   6.439   4.120 -1.0862 -0.3060  0.8090
  321MOL0     C43229   5.958   6.506   4.140  0.5659 -0.6188  0.9457
  321MOL0     O43230   6.040   6.439   4.234  0.0839  0.3401  0.6195
  321MOL0     C43231   6.168   6.462   4.252 -0.9814  0.7356  0.6317
  321MOL0     C43232   6.241   6.576   4.213  0.1084  0.2140  0.2111
  321MOL0     C43233   6.377   6.583   4.235 -0.0714 -0.1777  0.1185
  321MOL0     C43234   6.450   6.489   4.302  0.8654  0.5612 -0.5756
  321MOL0     O43235   6.586   6.504   4.320 -0.5502 -0.6458  0.2757
  321MOL0     C43236   6.663   6.372   4.325  0.8930 -0.4358 -0.1043
  321MOL0     C43237   6.798   6.409   4.252 -0.2755  0.0531  0.3616
  321MOL0     C43238   6.768   6.476   4.114  0.5772 -1.3217  0.0904
  321MOL0     C43239   6.854   6.434   3.995 -0.0767 -0.0158 -0.8153
  321MOL0     C43240   6.813   6.304   3.925  0.2933  1.0261 -0.2953
  321MOL0     C43241   6.924   6.244   3.845  1.0357 -0.7639 -0.2268
  321MOL0     C43242   6.867   6.130   3.757 -0.2692  0.6057  0.0133
  321MOL0     C43243   6.808   6.012   3.843 -1.1577 -0.6044  0.5910
  321MOL0    Cl43244   6.933   5.976   3.975  0.3642 -0.0815  0.7029
  321MOL0     C43245   6.375   6.384   4.365 -0.1756  0.0076  0.1182
  321MOL0     C43246   6.249   6.366   4.315  0.8431 -0.4316  0.2299
  321MOL0     O43247   5.991   6.599   4.064  0.3732  0.0511  0.2557
  321MOL0     C43248   5.746   6.447   4.002  0.5907  0.0212 -0.3942
  321MOL0     C43249   5.623   6.383   3.991  0.9419 -0.1480  0.3534
  321MOL0     N43250   5.033   5.838   3.947 -0.2940 -0.2717 -0.1289
  321MOL0     N43251   4.920   5.823   4.007  1.1247 -0.4002  0.0751
  321MOL0     C43252   4.073   5.089   4.014 -0.0451 -0.2703  0.6139
  321MOL0     C43253   4.021   4.959   4.024 -0.5860 -0.1791  1.0305
  321MOL0     C43254   3.889   4.510   3.959 -0.1210  0.0644 -0.3708
  321MOL0     C43255   3.805   4.538   4.076 -0.0039 -0.4585  0.8439
  321MOL0     C43256   3.725   4.437   4.131  0.4890  0.1914 -0.7935
  321MOL0     C43257   3.709   4.316   4.074  0.1524  0.2419 -0.7571
  321MOL0     O43258   3.624   4.220   4.119  0.4843  0.2721 -0.3563
  321MOL0     C43259   3.631   4.190   4.259  0.2581 -0.3548 -0.3238
  321MOL0     C43260   3.753   4.106   4.309  0.5376 -0.4260  0.6065
  321MOL0     C43261   3.736   3.964   4.245 -0.3315 -1.3371  0.0484
  321MOL0     C43262   3.825   3.860   4.312  0.0222 -0.0961 -0.0619
  321MOL0     C43263   3.814   3.734   4.242 -0.4927  0.5347  0.2646
  321MOL0     C43264   3.813   3.619   4.194 -0.2985  0.0360  0.2977
  321MOL0     C43265   3.784   4.282   3.964 -0.8507 -0.7320  0.1266
  321MOL0     C43266   3.876   4.372   3.909  0.4659 -0.2538 -0.5354
  321MOL0     C43267   3.923   4.339   3.774  0.7883 -0.0461  0.1788
  321MOL0     H43268   4.173   4.802   3.762 -0.7589 -2.5896  3.3104
  321MOL0     H43269   4.265   5.019   3.736 -0.7577 -1.1860 -0.9175
  321MOL0     H43270   4.091   5.367   3.901  0.0741  0.8056 -0.0729
  321MOL0     H43271   4.163   5.353   4.055  0.1330  0.3540  0.4566
  321MOL0     H43272   4.287   5.491   3.805  0.4719  3.3737 -0.2899
  321MOL0     H43273   4.382   5.434   3.946 -0.8881 -1.3905  1.5368
  321MOL0     H43274   4.264   5.598   4.095 -0.2566  1.8144 -0.3451
  321MOL0     H43275   4.126   5.595   3.990  0.1753  1.0367 -0.7384
  321MOL0     H43276   4.245   5.706   3.811 -2.6298 -1.0640  0.5422
  321MOL0     H43277   4.218   5.806   3.946 -0.1251  0.7480 -0.2868
  321MOL0     H43278   4.418   5.787   4.057  0.5192 -0.4530  0.5453
  321MOL0     H43279   4.468   5.649   3.947 -0.8837 -0.9383  0.4324
  321MOL0     H43280   4.457   5.854   3.767  3.7522  2.0085 -1.0447
  321MOL0     H43281   4.440   5.952   3.902 -0.7449  0.4302 -3.9451
  321MOL0     H43282   4.660   5.912   3.781  0.2524 -2.0157 -0.9250
  321MOL0     H43283   4.681   5.760   3.870  2.4058  0.9330  2.1775
  321MOL0     H43284   4.653   6.027   4.011  0.1157 -0.6850 -3.4506
  321MOL0     H43285   4.673   5.862   4.092 -0.5269 -0.8417  1.1977
  321MOL0     H43286   4.867   6.090   3.838 -1.1106 -1.7585 -2.1335
  321MOL0     H43287   5.196   5.946   3.731  1.4518  2.2132 -1.6699
  321MOL0     H43288   5.109   6.100   3.746 -2.8426 -1.4743  0.2795
  321MOL0     H43289   5.217   6.153   3.953 -2.8340 -2.4106  0.5621
  321MOL0     H43290   5.265   5.983   3.987  0.9294 -0.8663 -1.0901
  321MOL0     H43291   5.403   6.176   3.805 -1.9825 -0.1060 -1.6755
  321MOL0     H43292   5.420   5.995   3.807 -0.6829  0.0760  1.8218
  321MOL0     H43293   5.594   6.106   3.954  0.7296 -0.2379  1.9181
  321MOL0     H43294   5.493   6.003   4.048 -0.2253 -0.5543 -2.1014
  321MOL0     H43295   5.616   6.209   4.275 -3.2777  0.0308 -0.2368
  321MOL0     H43296   5.818   6.324   4.307  1.0048  0.1096 -1.1290
  321MOL0     H43297   6.197   6.650   4.147 -3.4850 -2.8626 -1.2119
  321MOL0     H43298   6.436   6.670   4.211  0.2521 -0.5625 -0.5104
  321MOL0     H43299   6.689   6.347   4.428  0.7624 -2.1194 -0.4631
  321MOL0     H43300   6.610   6.302   4.261  0.0155  0.4897 -0.4171
  321MOL0     H43301   6.846   6.478   4.322  0.6453  0.7236 -0.8986
  321MOL0     H43302   6.866   6.326   4.229  0.3979  1.4740 -3.4494
  321MOL0     H43303   6.661   6.471   4.092  0.8052  0.1514 -1.5696
  321MOL0     H43304   6.798   6.581   4.122 -2.4787 -0.2960 -0.5139
  321MOL0     H43305   6.945   6.413   4.052 -0.6730 -0.3217  0.0561
  321MOL0     H43306   6.874   6.513   3.923  2.7475 -1.2877 -1.5465
  321MOL0     H43307   6.732   6.343   3.862 -0.6490  1.6693  1.2477
  321MOL0     H43308   6.781   6.227   3.998 -2.1242 -0.0057 -2.2843
  321MOL0     H43309   6.970   6.325   3.787 -0.7244  1.5779  1.4353
  321MOL0     H43310   7.005   6.217   3.913  2.9135  1.1238 -1.5750
  321MOL0     H43311   6.931   6.088   3.679 -3.4994 -1.6400 -1.6701
  321MOL0     H43312   6.778   6.159   3.701 -1.5076 -1.2840  0.9114
  321MOL0     H43313   6.705   6.022   3.879 -1.0325  2.7123  0.3312
  321MOL0     H43314   6.801   5.926   3.775  1.4923 -2.2267  2.1924
  321MOL0     H43315   6.424   6.311   4.428 -1.9487 -1.2542  0.1308
  321MOL0     H43316   6.203   6.271   4.341  1.5855 -0.5080  1.3600
  321MOL0     H43317   5.785   6.504   3.919 -0.3368 -0.3022 -1.0801
  321MOL0     H43318   5.555   6.402   3.908  2.7667 -2.2019 -1.7191
  321MOL0     H43319   4.043   5.156   4.094  0.2667 -1.3213  1.6492
  321MOL0     H43320   3.950   4.927   4.100 -5.0497  2.5344 -1.6147
  321MOL0     H43321   3.835   4.635   4.115  1.0846  0.5048 -2.0854
  321MOL0     H43322   3.657   4.464   4.211  1.8172  1.4971 -0.0573
  321MOL0     H43323   3.542   4.132   4.287  0.3549 -0.2105  0.2945
  321MOL0     H43324   3.632   4.283   4.316  5.0520  0.0050 -0.6569
  321MOL0     H43325   3.717   4.100   4.412 -1.2543 -0.3520  0.0322
  321MOL0     H43326   3.849   4.156   4.295  0.1297 -0.0123 -0.9991
  321MOL0     H43327   3.765   3.978   4.140 -0.5480  1.7565  0.3172
  321MOL0     H43328   3.631   3.932   4.242 -1.4485  1.7087  2.3837
  321MOL0     H43329   3.928   3.896   4.313 -0.6235  1.9397  2.2698
  321MOL0     H43330   3.790   3.855   4.416 -1.4376  2.5302 -0.3473
  321MOL0     H43331   3.811   3.518   4.157 -0.6527 -0.5440  1.8434
  321MOL0     H43332   3.794   4.178   3.937  1.5095 -2.0200  4.8150
  321MOL0     H43333   4.031   4.329   3.780  0.7728 -0.1742  0.2452
  321MOL0     H43334   3.885   4.239   3.752  3.2147 -1.4353  1.8816
  321MOL0     H43335   3.899   4.420   3.705 -1.2241  0.2318  1.1199
  322MOL0     O43336   7.592   9.686   6.710 -0.5654  0.0388  0.4107
  322MOL0     C43337   7.578   9.767   6.618  0.1518  0.1403  0.4257
  322MOL0     O43338   7.496   9.875   6.612  0.3420  0.7602  0.4142
  322MOL0     C43339   7.485   9.931   6.738  0.5432 -0.5530 -0.5459
  322MOL0     C43340   7.353   9.965   6.789 -0.6648 -0.3860  0.6509
  322MOL0     C43341   7.325  10.002   6.923 -1.1655 -0.0622  0.6543
  322MOL0     C43342   7.437  10.014   7.011 -0.8913  0.1845  0.0822
  322MOL0     O43343   7.407  10.058   7.132  0.6551 -1.1083 -0.2919
  322MOL0     C43344   7.470  10.010   7.247 -0.2690  0.3225 -1.2339
  322MOL0     C43345   7.417  10.098   7.362  0.3643  0.0404  0.0769
  322MOL0     C43346   7.452  10.038   7.499 -0.8143  0.2915 -0.1670
  322MOL0     C43347   7.610  10.013   7.517 -0.1289 -0.3280  0.1624
  322MOL0     C43348   7.683  10.144   7.492  0.5273 -0.3246 -0.6604
  322MOL0     C43349   7.830  10.127   7.506  0.8258  0.4746  0.1335
  322MOL0     C43350   7.903  10.097   7.372  0.2045  0.2624 -0.6629
  322MOL0     C43351   8.055  10.093   7.393  1.1394  0.8254 -0.3230
  322MOL0     N43352   8.127  10.098   7.265 -0.2746  0.0181  0.0634
  322MOL0     C43353   8.142   9.989   7.182 -0.2823 -0.0347  0.7066
  322MOL0     C43354   8.177  10.049   7.068 -0.3318 -0.8534  1.4189
  322MOL0     C43355   8.199   9.982   6.937 -0.1904 -0.3148 -0.5966
  322MOL0     C43356   8.345   9.959   6.910 -0.1199  0.5635 -0.0919
  322MOL0     C43357   8.419  10.082   6.856  0.9530 -0.1427  0.4963
  322MOL0     C43358   8.566  10.042   6.847 -0.8575  1.1550 -0.3090
  322MOL0     O43359   8.635  10.151   6.788 -0.3540  0.3010 -0.1362
  322MOL0     C43360   8.739  10.113   6.708  0.1265 -0.4447 -0.8225
  322MOL0     C43361   8.778  10.213   6.622 -0.8560 -0.1178 -0.0401
  322MOL0     C43362   8.887  10.197   6.545 -0.6707  0.0822  0.1006
  322MOL0     C43363   8.963  10.073   6.526 -0.4156 -0.1104  0.0688
  322MOL0     C43364   9.075  10.058   6.430 -0.0055  0.2248  0.7205
  322MOL0     O43365   9.117   9.935   6.407 -0.7141 -0.2369 -0.3020
  322MOL0     C43366   9.214   9.897   6.317 -0.3121 -0.0977 -0.2651
  322MOL0     C43367   9.290   9.978   6.233 -0.2378 -0.4255  0.2120
  322MOL0     C43368   9.381   9.927   6.139  0.8266  0.1867  0.0901
  322MOL0     C43369   9.402   9.787   6.125  0.4553 -0.9730  0.4239
  322MOL0     O43370   9.503   9.756   6.042 -0.2259  1.1339 -0.0888
  322MOL0     C43371   9.514   9.629   5.984 -0.4870 -0.3688  0.3323
  322MOL0     C43372   9.655   9.573   6.016  0.1120  0.4746 -0.1507
  322MOL0     C43373   9.670   9.441   5.932 -0.2510  0.0749 -0.0278
  322MOL0     C43374   9.729   9.476   5.799  0.2047 -0.8471  1.2513
  322MOL0     C43375   9.761   9.353   5.706 -0.2231  0.0837 -0.4024
  322MOL0     C43376   9.874   9.261   5.754 -0.5384 -0.4012  0.1652
  322MOL0     C43377   9.926   9.169   5.644  0.3982  0.2950 -0.5720
  322MOL0     C43378  10.078   9.157   5.652  0.7551 -0.2402  0.4118
  322MOL0    Cl43379  10.130   9.071   5.800 -0.2810 -0.5252  0.1894
  322MOL0     C43380   9.327   9.702   6.207 -0.2493 -0.5536 -0.3718
  322MOL0     C43381   9.244   9.760   6.309  0.2956  0.4632  0.6479
  322MOL0     O43382   9.108  10.162   6.372  0.0288  1.1496 -0.0803
  322MOL0     C43383   8.912   9.965   6.602  0.2772 -0.7415  0.1567
  322MOL0     C43384   8.800   9.989   6.693 -0.4975  0.4233  0.8868
  322MOL0     N43385   8.192  10.185   7.081 -0.4296  0.4760  0.5052
  322MOL0     N43386   8.174  10.210   7.206 -0.1406  0.2539  0.0213
  322MOL0     C43387   7.571   9.992   6.967 -0.3736 -0.1679  1.1572
  322MOL0     C43388   7.592   9.955   6.831 -0.2728 -1.1611  0.4857
  322MOL0     C43389   7.668   9.744   6.498  0.7461  0.6561  0.3039
  322MOL0     C43390   7.698   9.611   6.463 -0.4704 -0.1957  0.1911
  322MOL0     C43391   7.789   9.585   6.360  0.3538  0.3485 -0.3689
  322MOL0     C43392   7.851   9.693   6.282 -0.1671  1.1897 -0.7378
  322MOL0     O43393   7.950   9.679   6.186  0.3587 -0.2014  0.1807
  322MOL0     C43394   8.058   9.581   6.182 -1.0692  0.0922 -0.7864
  322MOL0     C43395   8.096   9.526   6.315  0.1589 -0.3288 -0.0498
  322MOL0     C43396   8.250   9.498   6.313  0.0342  0.6148  0.4142
  322MOL0     C43397   8.283   9.363   6.253  0.1428 -0.5951 -1.0122
  322MOL0     C43398   8.226   9.239   6.316 -0.2093  0.1847  0.4812
  322MOL0     C43399   8.191   9.126   6.343  0.2537  0.3667 -0.4636
  322MOL0     C43400   7.799   9.818   6.310 -0.2656 -0.7724 -1.1111
  322MOL0     C43401   7.708   9.858   6.415  0.0916  0.1609 -0.4130
  322MOL0     C43402   7.670   9.996   6.446 -0.5713  1.0221 -0.2197
  322MOL0     H43403   7.263   9.960   6.729  0.3105 -2.6301 -0.7314
  322MOL0     H43404   7.235  10.024   6.981  0.0930  2.5773  1.7507
  322MOL0     H43405   7.422   9.915   7.273 -2.8447  1.1872 -2.4159
  322MOL0     H43406   7.578  10.023   7.242 -0.4614  2.8998 -0.3400
  322MOL0     H43407   7.310  10.117   7.360  0.2919 -0.3511  0.0341
  322MOL0     H43408   7.460  10.198   7.374  1.5089 -0.6201  1.8446
  322MOL0     H43409   7.413   9.936   7.505 -2.5360  0.6914 -2.8984
  322MOL0     H43410   7.408  10.094   7.582 -1.7729  0.0023 -0.4669
  322MOL0     H43411   7.615   9.982   7.622 -2.7576  0.2112  0.5222
  322MOL0     H43412   7.640   9.940   7.442  2.0697  1.8246 -1.1955
  322MOL0     H43413   7.666  10.199   7.399 -3.0202  0.8925  0.5489
  322MOL0     H43414   7.651  10.211   7.573  0.5449 -0.5567 -0.4621
  322MOL0     H43415   7.876  10.219   7.545  0.4721  0.3832  0.7731
  322MOL0     H43416   7.846  10.047   7.578 -1.5169  0.2789  0.4873
  322MOL0     H43417   7.874  10.168   7.294 -1.0789 -0.5397 -0.9593
  322MOL0     H43418   7.869   9.996   7.347 -0.7718  0.6227 -0.8508
  322MOL0     H43419   8.081  10.184   7.448 -1.3098  2.2417 -1.3430
  322MOL0     H43420   8.085  10.005   7.450 -2.7308  0.2501  1.1436
  322MOL0     H43421   8.118   9.884   7.193  2.2448 -0.5652  2.0274
  322MOL0     H43422   8.163   9.883   6.968 -1.9681  0.2391 -0.7742
  322MOL0     H43423   8.150  10.033   6.854  2.6141  0.9492 -1.5942
  322MOL0     H43424   8.379   9.928   7.009 -1.8977  1.8172  0.9778
  322MOL0     H43425   8.354   9.872   6.844 -2.4681  1.2009 -1.4030
  322MOL0     H43426   8.411  10.174   6.915 -0.6695  0.0433  0.0167
  322MOL0     H43427   8.387  10.103   6.754 -0.5820  0.8738  1.1624
  322MOL0     H43428   8.577   9.949   6.791  1.0118  0.3799  1.2119
  322MOL0     H43429   8.604  10.028   6.949 -2.6444 -0.5944  0.1720
  322MOL0     H43430   8.724  10.307   6.620 -1.7323 -0.5910  0.6323
  322MOL0     H43431   8.898  10.276   6.471  1.8569  1.6113  1.9448
  322MOL0     H43432   9.288  10.087   6.239 -2.7655 -0.4449  0.9791
  322MOL0     H43433   9.425   9.995   6.067 -0.5913  2.3991  1.1771
  322MOL0     H43434   9.435   9.561   6.015  1.8262 -2.0719  3.0692
  322MOL0     H43435   9.510   9.638   5.875  1.0154  0.3397  0.3044
  322MOL0     H43436   9.740   9.639   6.001 -1.1571  2.0287 -0.8375
  322MOL0     H43437   9.638   9.550   6.122 -4.6049  0.8591 -0.6099
  322MOL0     H43438   9.730   9.367   5.985  1.2565  0.5781 -0.9765
  322MOL0     H43439   9.569   9.399   5.926  0.4204 -1.5802 -0.1745
  322MOL0     H43440   9.820   9.534   5.813 -0.6019  1.0780 -0.9307
  322MOL0     H43441   9.669   9.542   5.737  2.4986  1.7937  1.6692
  322MOL0     H43442   9.801   9.397   5.614  2.3260 -1.9825 -0.3716
  322MOL0     H43443   9.672   9.292   5.687  0.5220 -1.6329  1.3949
  322MOL0     H43444   9.956   9.325   5.789  1.0720 -2.6283  0.7374
  322MOL0     H43445   9.855   9.195   5.840  2.3623 -3.3325 -1.2035
  322MOL0     H43446   9.895   9.225   5.555  0.3950  0.1522 -0.6609
  322MOL0     H43447   9.875   9.072   5.647  1.1930 -0.1187  0.5016
  322MOL0     H43448  10.112   9.104   5.563  0.3490  0.5819 -0.2585
  322MOL0     H43449  10.123   9.257   5.656  0.6121  0.0021 -2.0693
  322MOL0     H43450   9.330   9.595   6.193 -1.0410 -1.3051  3.9161
  322MOL0     H43451   9.193   9.680   6.362 -3.5100  3.1469  1.4374
  322MOL0     H43452   8.971   9.873   6.604 -1.3179 -1.9822 -2.9209
  322MOL0     H43453   8.768   9.912   6.763 -2.7803 -1.8048 -2.3154
  322MOL0     H43454   7.661  10.017   7.023  1.4113 -1.4425 -0.9564
  322MOL0     H43455   7.693   9.944   6.795  0.4780 -2.6706  2.8714
  322MOL0     H43456   7.667   9.530   6.528  2.5821 -1.3990  0.2947
  322MOL0     H43457   7.821   9.484   6.335  0.8001  0.5578 -0.6746
  322MOL0     H43458   8.139   9.637   6.136  2.1517 -2.5636  1.2090
  322MOL0     H43459   8.036   9.491   6.124  0.0004 -1.4212  1.0220
  322MOL0     H43460   8.032   9.444   6.347 -2.9779  0.6028 -3.2008
  322MOL0     H43461   8.087   9.604   6.392  3.2416  3.3012 -2.9472
  322MOL0     H43462   8.293   9.499   6.414  0.7956 -0.8416  0.1298
  322MOL0     H43463   8.318   9.562   6.256  0.7935 -2.2318 -2.1126
  322MOL0     H43464   8.251   9.356   6.148 -1.0291  1.0236 -0.8012
  322MOL0     H43465   8.391   9.349   6.259  0.0411 -2.5978 -2.7667
  322MOL0     H43466   8.160   9.028   6.372 -1.3153  1.2302  1.0202
  322MOL0     H43467   7.844   9.888   6.241 -1.8133 -2.2887 -3.8243
  322MOL0     H43468   7.724  10.073   6.391 -1.5403  1.3401 -0.7546
  322MOL0     H43469   7.564  10.014   6.426 -0.4649  1.0414 -0.7945
  322MOL0     H43470   7.681  10.009   6.554  2.4305 -3.3369  0.2355
  323MOL0     O43471   5.359   6.818   7.464 -0.2212 -0.0378 -0.3068
  323MOL0     C43472   5.271   6.891   7.417  0.5391 -0.3043 -0.9110
  323MOL0     O43473   5.183   6.862   7.310  0.0030 -0.1653  0.5917
  323MOL0     C43474   5.195   6.731   7.258  0.6384 -0.6491  0.9440
  323MOL0     C43475   5.096   6.640   7.312  0.0780  0.0346  0.0650
  323MOL0     C43476   5.090   6.505   7.272 -0.5418 -0.1254 -0.0103
  323MOL0     C43477   5.177   6.451   7.171  0.5487 -0.0770 -0.6096
  323MOL0     O43478   5.181   6.317   7.153 -0.5746 -0.4363 -0.3759
  323MOL0     C43479   5.249   6.252   7.040  0.6570  0.3239 -0.7822
  323MOL0     C43480   5.399   6.240   7.069 -1.6782  0.3122 -0.0044
  323MOL0     C43481   5.431   6.129   7.164 -0.4390 -0.2675 -0.1160
  323MOL0     C43482   5.580   6.112   7.190  0.4885 -0.9090 -0.1216
  323MOL0     C43483   5.614   6.067   7.332  0.4516  0.9725  0.5642
  323MOL0     C43484   5.559   5.931   7.373  1.1556  0.4564 -0.2762
  323MOL0     C43485   5.616   5.817   7.300 -0.4211  0.2326 -1.2591
  323MOL0     C43486   5.550   5.687   7.322  0.0268 -0.1192 -0.0393
  323MOL0     N43487   5.561   5.647   7.464 -0.7392  0.3513 -0.8985
  323MOL0     C43488   5.486   5.699   7.572  0.3059 -0.1158  0.0328
  323MOL0     C43489   5.530   5.627   7.675  0.5039  0.7544  0.3256
  323MOL0     C43490   5.469   5.640   7.809  0.9115  0.5434 -0.2918
  323MOL0     C43491   5.369   5.529   7.835  0.1606 -0.5376  0.1046
  323MOL0     C43492   5.242   5.548   7.748 -0.8249  0.7415 -0.3240
  323MOL0     C43493   5.129   5.456   7.778  0.7053 -0.4444 -0.1280
  323MOL0     O43494   5.173   5.316   7.766 -0.5846 -0.0400 -0.2126
  323MOL0     C43495   5.077   5.219   7.798 -0.7844 -0.3207 -0.0592
  323MOL0     C43496   5.111   5.112   7.880 -0.2036 -0.6861 -0.4238
  323MOL0     C43497   5.020   5.013   7.917 -0.6725 -0.1756  0.0104
  323MOL0     C43498   4.881   5.034   7.892  0.6247  0.2862  0.1175
  323MOL0     C43499   4.768   4.947   7.945  0.4945  0.0310 -0.0250
  323MOL0     O43500   4.639   4.993   7.936 -0.5529 -0.8831  0.3266
  323MOL0     C43501   4.536   4.946   8.003 -0.1957  1.0292  0.0664
  323MOL0     C43502   4.418   4.925   7.932  0.8146 -0.1928  0.2357
  323MOL0     C43503   4.306   4.860   7.985  0.0370 -0.5120  0.0124
  323MOL0     C43504   4.317   4.790   8.110  0.0217 -0.2917 -0.7855
  323MOL0     O43505   4.218   4.715   8.172  0.0198  0.1259  0.5246
  323MOL0     C43506   4.097   4.710   8.100 -0.4296  0.1096 -0.0918
  323MOL0     C43507   3.983   4.634   8.163  0.6352 -0.0279 -0.5329
  323MOL0     C43508   4.006   4.478   8.194 -1.0247 -0.6895 -0.0562
  323MOL0     C43509   3.875   4.404   8.239 -0.2292  1.0410  0.2953
  323MOL0     C43510   3.800   4.446   8.353 -0.7286  0.6632 -0.6964
  323MOL0     C43511   3.876   4.445   8.491  0.3421  0.2656  0.0049
  323MOL0     C43512   3.796   4.535   8.584 -0.1008 -0.3481  0.5607
  323MOL0     C43513   3.859   4.554   8.723 -0.1712  0.4399 -0.7021
  323MOL0    Cl43514   3.902   4.387   8.785 -0.4268  0.5151  0.1640
  323MOL0     C43515   4.440   4.796   8.168  0.2130  0.3772  0.5962
  323MOL0     C43516   4.540   4.879   8.125 -0.9882  0.3666 -0.4821
  323MOL0     O43517   4.806   4.853   8.017 -0.0112 -0.2409 -0.7088
  323MOL0     C43518   4.848   5.150   7.816  0.1983 -0.8135 -0.5679
  323MOL0     C43519   4.942   5.241   7.770 -0.1896  0.2032  0.8431
  323MOL0     N43520   5.622   5.534   7.628 -0.6561 -0.2472 -0.6106
  323MOL0     N43521   5.642   5.549   7.506  0.4890  0.2627  1.0067
  323MOL0     C43522   5.252   6.544   7.102 -0.3451 -0.1170  0.2762
  323MOL0     C43523   5.266   6.683   7.149  0.2016 -0.3728  0.4938
  323MOL0     C43524   5.255   7.029   7.485  0.0035  0.5149  0.4412
  323MOL0     C43525   5.121   7.071   7.533  0.4048  0.2658 -0.6386
  323MOL0     C43526   5.106   7.194   7.610 -0.1471  0.0800  0.0648
  323MOL0     C43527   5.219   7.269   7.638 -0.0785 -0.2504 -0.2723
  323MOL0     O43528   5.210   7.391   7.713 -0.7626  0.0270 -0.2887
  323MOL0     C43529   5.088   7.465   7.706  0.0341  0.0391  0.0599
  323MOL0     C43530   5.098   7.614   7.753  0.6504  1.1449  0.1484
  323MOL0     C43531   5.030   7.630   7.894 -0.8997 -0.6628 -0.1505
  323MOL0     C43532   5.067   7.769   7.946  0.3325  0.1225  0.0127
  323MOL0     C43533   4.993   7.800   8.065  0.7300 -0.2136  0.2044
  323MOL0     C43534   4.924   7.827   8.163  0.0799 -0.0800  0.2984
  323MOL0     C43535   5.343   7.226   7.592 -0.4710 -0.0180 -0.2531
  323MOL0     C43536   5.363   7.102   7.527 -0.1817  0.5105 -0.4987
  323MOL0     C43537   5.508   7.059   7.499  0.4742  0.3370  0.0432
  323MOL0     H43538   5.045   6.667   7.404  0.3422 -1.7145  0.7625
  323MOL0     H43539   5.036   6.441   7.341  0.2118 -1.3921 -0.5483
  323MOL0     H43540   5.200   6.155   7.051 -0.6882  0.9009 -1.4094
  323MOL0     H43541   5.234   6.302   6.943  1.5654 -1.9004 -2.1350
  323MOL0     H43542   5.429   6.339   7.106 -2.5828  0.5314  0.1724
  323MOL0     H43543   5.455   6.210   6.979 -1.3265 -0.0477  0.3317
  323MOL0     H43544   5.387   6.030   7.147  1.0215 -1.4688  2.5374
  323MOL0     H43545   5.379   6.166   7.252 -1.4257  3.4032 -2.0583
  323MOL0     H43546   5.627   6.052   7.112 -0.5120  0.4227 -1.8168
  323MOL0     H43547   5.607   6.217   7.171 -3.5564  0.6225  1.3529
  323MOL0     H43548   5.723   6.067   7.343  0.6478 -0.9267 -0.8846
  323MOL0     H43549   5.582   6.140   7.407  0.2797  0.0094  1.4495
  323MOL0     H43550   5.581   5.911   7.478 -2.2800 -0.9491  0.2974
  323MOL0     H43551   5.451   5.941   7.359  0.5740 -0.6692  2.7142
  323MOL0     H43552   5.722   5.802   7.324 -0.1199  0.6894 -2.2909
  323MOL0     H43553   5.616   5.836   7.193  1.8785 -1.2711 -1.5978
  323MOL0     H43554   5.445   5.681   7.293  0.5718 -2.2344 -1.8300
  323MOL0     H43555   5.591   5.609   7.257  0.9711 -1.4151  1.9940
  323MOL0     H43556   5.415   5.781   7.577  1.0544  0.5119  0.5730
  323MOL0     H43557   5.556   5.635   7.875  0.9376  0.9858 -0.2912
  323MOL0     H43558   5.414   5.734   7.819  1.3917  0.9142 -1.0060
  323MOL0     H43559   5.418   5.435   7.808  1.6646  0.7696 -2.0433
  323MOL0     H43560   5.333   5.517   7.938 -3.0715  1.4663 -0.6339
  323MOL0     H43561   5.271   5.545   7.642  0.2357 -0.2127 -0.0242
  323MOL0     H43562   5.202   5.648   7.768 -2.7995 -0.3772  1.7422
  323MOL0     H43563   5.053   5.473   7.701  1.1872 -3.4254 -1.4048
  323MOL0     H43564   5.084   5.484   7.873 -2.0392  0.4472 -1.5823
  323MOL0     H43565   5.209   5.110   7.928  0.5338 -0.5527 -1.8644
  323MOL0     H43566   5.054   4.930   7.978 -0.5791 -0.9146 -1.0315
  323MOL0     H43567   4.401   4.965   7.833 -0.0476  1.3142  0.9582
  323MOL0     H43568   4.207   4.864   7.941 -0.8747  0.8560  2.0269
  323MOL0     H43569   4.066   4.815   8.099 -0.0496  0.2322 -1.6665
  323MOL0     H43570   4.100   4.664   8.001 -2.8605 -2.6984  0.9724
  323MOL0     H43571   3.949   4.676   8.258 -1.6189 -1.0835 -0.8008
  323MOL0     H43572   3.895   4.651   8.100  0.0711 -0.4384  0.1347
  323MOL0     H43573   4.042   4.436   8.099 -1.4993 -1.2172 -0.0091
  323MOL0     H43574   4.083   4.479   8.272 -1.3437  1.4958  0.2715
  323MOL0     H43575   3.899   4.299   8.257  4.0904  1.9393  0.9652
  323MOL0     H43576   3.807   4.403   8.154  1.2536 -0.5071 -0.9265
  323MOL0     H43577   3.716   4.378   8.346 -1.2523  1.4759 -3.4046
  323MOL0     H43578   3.766   4.547   8.328  0.6302  0.9086 -1.6757
  323MOL0     H43579   3.888   4.345   8.534  1.3480  0.8693  1.1983
  323MOL0     H43580   3.978   4.482   8.476  0.4703 -0.2676 -0.4728
  323MOL0     H43581   3.691   4.503   8.588 -0.6789  1.3437 -0.2211
  323MOL0     H43582   3.778   4.637   8.550  1.6664  0.5877  2.1957
  323MOL0     H43583   3.952   4.610   8.713 -1.2002  3.3516  3.3392
  323MOL0     H43584   3.787   4.613   8.781 -0.5669 -1.7620  1.2185
  323MOL0     H43585   4.465   4.739   8.257  0.9992  3.8104  2.7395
  323MOL0     H43586   4.631   4.875   8.184 -0.3942  1.4398 -1.2779
  323MOL0     H43587   4.747   5.175   7.785  0.4655 -0.5111 -1.2242
  323MOL0     H43588   4.903   5.317   7.704  0.8053 -0.7508 -0.9210
  323MOL0     H43589   5.300   6.514   7.010  0.2617 -1.7736  1.0846
  323MOL0     H43590   5.336   6.752   7.103  1.6140 -1.5877  0.7255
  323MOL0     H43591   5.045   6.995   7.517 -1.1203  1.9013 -1.6030
  323MOL0     H43592   5.014   7.224   7.659 -0.8440  0.9914 -1.7144
  323MOL0     H43593   5.017   7.420   7.776  1.2964 -1.9622  0.1231
  323MOL0     H43594   5.046   7.455   7.605 -2.3262 -2.6157  1.1654
  323MOL0     H43595   5.055   7.671   7.671  1.1278 -1.3178 -1.9335
  323MOL0     H43596   5.205   7.638   7.762  0.5546  0.7392  3.6782
  323MOL0     H43597   5.065   7.558   7.969  0.7448  2.8306  2.7569
  323MOL0     H43598   4.922   7.617   7.892 -0.9101 -0.5116 -1.6521
  323MOL0     H43599   5.176   7.766   7.960  0.2821 -2.4950  0.3534
  323MOL0     H43600   5.050   7.845   7.869  0.6444  1.7250  1.4688
  323MOL0     H43601   4.839   7.840   8.227 -1.5375  0.6812 -1.8839
  323MOL0     H43602   5.422   7.293   7.624 -0.6794 -0.0148  0.2567
  323MOL0     H43603   5.575   7.136   7.539  1.8342 -2.1627  3.0164
  323MOL0     H43604   5.545   6.965   7.542  0.4883 -1.0027 -2.6420
  323MOL0     H43605   5.546   7.052   7.396  0.2418 -1.0149  0.0255
  324MOL0     O43606   2.108   2.902   6.860 -1.3671 -0.0223  0.7320
  324MOL0     C43607   2.122   2.836   6.755  0.3577  0.0240  0.4673
  324MOL0     O43608   2.237   2.827   6.679  0.0744 -0.2647  0.1626
  324MOL0     C43609   2.348   2.901   6.704  0.1935 -0.0017  0.4429
  324MOL0     C43610   2.371   2.988   6.812 -0.7733  0.0170  1.0643
  324MOL0     C43611   2.493   3.053   6.822 -0.0274  0.6098 -0.2217
  324MOL0     C43612   2.593   3.053   6.727  0.4728  0.6830 -0.5806
  324MOL0     O43613   2.701   3.129   6.755  0.2224 -0.6002  0.2806
  324MOL0     C43614   2.803   3.093   6.666 -1.2074 -0.8452 -0.7285
  324MOL0     C43615   2.934   3.164   6.709 -0.4023 -0.0479 -0.4914
  324MOL0     C43616   3.053   3.119   6.633  0.7129 -0.7747  0.4561
  324MOL0     C43617   3.179   3.203   6.666  0.1438  0.0090 -0.2709
  324MOL0     C43618   3.294   3.197   6.571  0.0394  0.3959  1.4043
  324MOL0     C43619   3.398   3.303   6.609 -0.0705 -0.4348  0.4678
  324MOL0     C43620   3.520   3.279   6.524  0.0350 -0.2597  0.2836
  324MOL0     C43621   3.619   3.403   6.521 -0.9132 -0.1871 -0.5832
  324MOL0     N43622   3.646   3.466   6.654 -0.1699 -0.2226  0.4005
  324MOL0     C43623   3.728   3.428   6.759 -0.2691 -1.0577 -0.5488
  324MOL0     C43624   3.751   3.542   6.833  0.1610  0.6237 -0.1978
  324MOL0     C43625   3.848   3.553   6.953  0.9822  0.3017  0.2815
  324MOL0     C43626   4.001   3.523   6.919  0.2818  0.4234 -0.0850
  324MOL0     C43627   4.066   3.612   6.813  0.1907 -0.0505  0.7091
  324MOL0     C43628   4.060   3.764   6.842 -0.2031  1.0712  0.2311
  324MOL0     O43629   4.147   3.833   6.757  0.7450 -0.6208  0.3633
  324MOL0     C43630   4.286   3.826   6.781 -0.7862  0.4191 -0.0158
  324MOL0     C43631   4.343   3.762   6.889  0.6638  0.1060  0.1830
  324MOL0     C43632   4.483   3.768   6.915  0.2862 -0.3305  1.0766
  324MOL0     C43633   4.568   3.833   6.819 -0.3749  0.1124  0.0722
  324MOL0     C43634   4.710   3.824   6.833 -0.4953  0.4455 -0.5378
  324MOL0     O43635   4.768   3.858   6.711  0.0946  0.0022  0.0094
  324MOL0     C43636   4.904   3.857   6.692  0.5480  0.1947 -0.5078
  324MOL0     C43637   4.981   3.756   6.735  0.1173 -0.4055  0.0092
  324MOL0     C43638   5.112   3.752   6.706 -1.1599  0.4866 -0.0582
  324MOL0     C43639   5.178   3.853   6.636  0.8687  0.4696 -0.5377
  324MOL0     O43640   5.309   3.853   6.599  1.5272  0.2383  0.4455
  324MOL0     C43641   5.389   3.743   6.648 -0.2398 -0.2452  0.3509
  324MOL0     C43642   5.540   3.768   6.624 -0.7146  0.7631 -0.0545
  324MOL0     C43643   5.567   3.919   6.656  0.5848 -0.4348 -0.0676
  324MOL0     C43644   5.712   3.938   6.685 -0.3448 -0.9092  0.1101
  324MOL0     C43645   5.792   3.919   6.551  0.2450 -0.5066 -0.0867
  324MOL0     C43646   5.939   3.956   6.537 -0.6656  0.6679 -0.3339
  324MOL0     C43647   5.981   4.095   6.598 -0.0136  0.1358 -0.3596
  324MOL0     C43648   6.140   4.095   6.609  0.5999  0.4838  0.6819
  324MOL0    Cl43649   6.191   4.257   6.648  0.3546 -0.1916 -0.2420
  324MOL0     C43650   5.095   3.952   6.581  0.6210  0.3252 -0.5502
  324MOL0     C43651   4.951   3.958   6.615 -0.3761  0.5191  0.8298
  324MOL0     O43652   4.757   3.769   6.933 -0.6218 -0.5496 -0.2758
  324MOL0     C43653   4.506   3.888   6.701 -0.1273  0.1504 -0.8403
  324MOL0     C43654   4.361   3.889   6.686 -0.0860  0.1664 -0.2125
  324MOL0     N43655   3.680   3.642   6.776 -0.8646  0.5511  0.8739
  324MOL0     N43656   3.618   3.597   6.670 -0.4429 -0.6141 -1.0460
  324MOL0     C43657   2.568   2.971   6.612 -0.6785  0.0049 -0.5305
  324MOL0     C43658   2.447   2.898   6.606  0.4267 -0.5388 -1.6457
  324MOL0     C43659   2.005   2.756   6.713  0.0597  0.4965 -0.9006
  324MOL0     C43660   2.019   2.665   6.607  0.1208 -0.2220  0.6280
  324MOL0     C43661   1.901   2.595   6.566  0.0098 -1.1030  0.0983
  324MOL0     C43662   1.777   2.613   6.628  1.3416  1.4814 -0.5472
  324MOL0     O43663   1.658   2.548   6.596  0.8904  0.7638  0.0913
  324MOL0     C43664   1.627   2.494   6.467 -0.2971  0.4675 -0.5140
  324MOL0     C43665   1.656   2.344   6.479  0.4619 -0.3678  0.5473
  324MOL0     C43666   1.553   2.271   6.385 -0.8466 -0.2773 -1.3114
  324MOL0     C43667   1.594   2.255   6.245 -0.3510 -0.3437 -0.1862
  324MOL0     C43668   1.469   2.217   6.174 -1.1823  0.4273  0.2233
  324MOL0     C43669   1.376   2.171   6.112  0.3867  0.3325 -0.6278
  324MOL0     C43670   1.763   2.705   6.728  0.1689  0.7106 -0.5852
  324MOL0     C43671   1.870   2.784   6.767  0.0085  0.5516  0.0019
  324MOL0     C43672   1.822   2.885   6.869 -0.4283 -0.8417 -0.1127
  324MOL0     H43673   2.312   3.003   6.902 -0.0960  1.8502  1.2404
  324MOL0     H43674   2.501   3.114   6.911  1.9457 -2.5862  1.9789
  324MOL0     H43675   2.812   2.985   6.677  2.6348 -0.6693 -1.0306
  324MOL0     H43676   2.782   3.107   6.559 -0.4744 -1.5764 -0.9734
  324MOL0     H43677   2.948   3.138   6.814 -0.4784  1.3556 -0.1090
  324MOL0     H43678   2.932   3.273   6.702  1.8165  0.0729  0.1969
  324MOL0     H43679   3.032   3.122   6.526  3.4186 -2.8098 -0.2609
  324MOL0     H43680   3.057   3.013   6.662 -0.1048 -1.0965 -0.5570
  324MOL0     H43681   3.158   3.309   6.681  1.1889  0.3108 -0.7914
  324MOL0     H43682   3.214   3.178   6.766  1.9533  1.5303 -0.4716
  324MOL0     H43683   3.339   3.097   6.580 -1.2927 -0.2910  0.7336
  324MOL0     H43684   3.248   3.211   6.472 -0.5753  0.3188  1.6744
  324MOL0     H43685   3.353   3.401   6.593  0.9875 -0.0657 -0.4073
  324MOL0     H43686   3.430   3.303   6.713  1.3557  1.1782  0.0764
  324MOL0     H43687   3.486   3.263   6.421  0.6716  1.1776 -0.1700
  324MOL0     H43688   3.577   3.198   6.571 -0.8035  0.5677  2.9482
  324MOL0     H43689   3.715   3.367   6.483 -1.2439  0.8368 -2.5236
  324MOL0     H43690   3.574   3.483   6.462 -2.0936 -1.1867 -1.0895
  324MOL0     H43691   3.792   3.341   6.766  0.9064 -0.1715 -0.0585
  324MOL0     H43692   3.835   3.648   7.006  1.2671  0.1046  0.7062
  324MOL0     H43693   3.819   3.473   7.022 -0.9068  0.0630 -0.7169
  324MOL0     H43694   4.062   3.537   7.008  2.1198  0.7896 -1.3596
  324MOL0     H43695   4.009   3.421   6.880  1.9771  1.0731 -1.5450
  324MOL0     H43696   4.013   3.587   6.720 -1.1191 -0.9310  1.6504
  324MOL0     H43697   4.169   3.581   6.793 -0.0628  0.1478 -1.1178
  324MOL0     H43698   4.076   3.783   6.949 -0.9956  0.7873  0.4068
  324MOL0     H43699   3.956   3.794   6.831  0.0425  1.6083 -0.7043
  324MOL0     H43700   4.294   3.696   6.960  0.2344 -0.7167 -0.8396
  324MOL0     H43701   4.527   3.719   7.002 -0.1823 -1.4724  0.6962
  324MOL0     H43702   4.944   3.669   6.789  0.1183  0.0800  0.8019
  324MOL0     H43703   5.164   3.660   6.728 -0.8009  0.6739 -0.1240
  324MOL0     H43704   5.372   3.723   6.754  2.2916  0.8340  1.0460
  324MOL0     H43705   5.362   3.658   6.585 -2.4578  0.7498 -0.1543
  324MOL0     H43706   5.589   3.697   6.690 -4.6676 -3.0285 -0.7238
  324MOL0     H43707   5.564   3.738   6.522 -0.1953  0.6811  0.0905
  324MOL0     H43708   5.540   3.984   6.572  0.5021 -0.9788 -0.4640
  324MOL0     H43709   5.505   3.949   6.742  0.5053  0.7768 -0.5245
  324MOL0     H43710   5.738   3.866   6.763  1.5816 -1.2299 -0.7591
  324MOL0     H43711   5.736   4.036   6.727  1.2113 -0.4367 -1.7235
  324MOL0     H43712   5.751   3.980   6.469  0.5841 -0.0153  0.1072
  324MOL0     H43713   5.783   3.814   6.519  1.7135  0.1861 -3.2271
  324MOL0     H43714   5.995   3.871   6.577 -0.4467 -0.2607 -2.4388
  324MOL0     H43715   5.972   3.965   6.433 -0.7677 -0.0469 -0.4311
  324MOL0     H43716   5.945   4.112   6.700  2.4107  0.8450  0.4298
  324MOL0     H43717   5.953   4.177   6.532  0.4375 -0.7451 -1.6939
  324MOL0     H43718   6.187   4.013   6.664  1.0910 -1.2608 -2.1337
  324MOL0     H43719   6.167   4.076   6.504 -4.0521 -0.8163 -0.5084
  324MOL0     H43720   5.146   4.023   6.516  1.1000  1.2712  0.8123
  324MOL0     H43721   4.886   4.034   6.572  2.4892  1.4165 -2.4642
  324MOL0     H43722   4.567   3.932   6.624  1.6601  1.4493  1.1950
  324MOL0     H43723   4.318   3.935   6.598  0.2613  0.6799 -0.1130
  324MOL0     H43724   2.629   2.947   6.526 -1.2939  0.5109 -1.1239
  324MOL0     H43725   2.432   2.831   6.522 -2.3020 -3.0091  0.6061
  324MOL0     H43726   2.115   2.653   6.559  1.8614  0.7911  3.5647
  324MOL0     H43727   1.892   2.524   6.484  1.6156 -1.8635  0.5345
  324MOL0     H43728   1.686   2.541   6.388 -0.9699 -1.2657 -2.1455
  324MOL0     H43729   1.522   2.521   6.453 -0.5386  0.8724  1.7134
  324MOL0     H43730   1.638   2.297   6.576  4.3742  1.5644  2.4572
  324MOL0     H43731   1.759   2.333   6.444  0.1569  1.4038 -1.1073
  324MOL0     H43732   1.455   2.314   6.407 -0.2993 -0.2363  1.4050
  324MOL0     H43733   1.551   2.171   6.429  1.0217  0.1959 -0.0393
  324MOL0     H43734   1.641   2.340   6.194  0.8354 -0.8776 -0.0103
  324MOL0     H43735   1.668   2.175   6.250  0.6269  0.3593 -2.1591
  324MOL0     H43736   1.298   2.121   6.058  1.2721 -4.1989  1.7514
  324MOL0     H43737   1.664   2.708   6.770  1.5351 -0.7147  3.1067
  324MOL0     H43738   1.849   2.988   6.842  0.9404 -0.2878  2.9615
  324MOL0     H43739   1.723   2.877   6.915  0.0816  1.1310  1.4904
  324MOL0     H43740   1.889   2.866   6.953  1.5373 -3.7361 -2.1388
  325MOL0     O43741  10.057   3.588   7.534  0.2442 -0.1292 -0.8645
  325MOL0     C43742   9.989   3.501   7.588 -0.5010 -0.9128 -0.6310
  325MOL0     O43743  10.022   3.419   7.693  1.2585  0.3088  0.6420
  325MOL0     C43744  10.154   3.429   7.731  0.0255  0.5769  0.0713
  325MOL0     C43745  10.254   3.418   7.629  0.8560  0.1303 -0.5035
  325MOL0     C43746  10.382   3.437   7.669  0.0704 -1.0108 -0.3479
  325MOL0     C43747  10.417   3.475   7.803 -0.6907  0.5704  0.5666
  325MOL0     O43748  10.541   3.497   7.834 -0.5378  0.0233 -0.1551
  325MOL0     C43749  10.637   3.387   7.812  0.2219 -0.1869 -0.3816
  325MOL0     C43750  10.777   3.444   7.823  0.2170  0.1728 -0.0562
  325MOL0     C43751  10.818   3.501   7.959 -1.1514  0.4744  0.2037
  325MOL0     C43752  10.896   3.630   7.938  0.0278 -0.6083 -0.4026
  325MOL0     C43753  10.968   3.689   8.058 -0.5724  0.1047 -0.4202
  325MOL0     C43754  11.032   3.821   8.016  0.4772 -0.0709 -0.3800
  325MOL0     C43755  11.106   3.892   8.127 -0.8280 -0.2842  0.2159
  325MOL0     C43756  11.239   3.820   8.160  0.4857  0.1062  0.4156
  325MOL0     N43757  11.322   3.895   8.249  0.7144  0.0884  0.1782
  325MOL0     C43758  11.291   3.949   8.369  0.1110 -0.0025  0.3465
  325MOL0     C43759  11.413   3.984   8.425  0.4873  0.7226  0.3388
  325MOL0     C43760  11.427   4.048   8.561 -0.9798  1.1949 -0.9211
  325MOL0     C43761  11.526   3.962   8.642  0.5866  0.8004 -0.2897
  325MOL0     C43762  11.590   4.041   8.764  0.2484 -0.1841 -0.5409
  325MOL0     C43763  11.671   3.954   8.859 -0.3475 -0.4153  0.2319
  325MOL0     O43764  11.743   4.027   8.960  0.8221 -0.3400 -0.6653
  325MOL0     C43765  11.847   3.967   9.032 -0.4610 -0.3316  0.2501
  325MOL0     C43766  11.914   4.045   9.113 -0.1565 -0.0063 -0.0850
  325MOL0     C43767  12.014   3.994   9.203  0.3925 -0.9870 -0.4228
  325MOL0     C43768  12.042   3.859   9.202 -0.2648 -0.1764 -0.2545
  325MOL0     C43769  12.142   3.803   9.296 -0.3166  0.1628 -0.3350
  325MOL0     O43770  12.198   3.678   9.265 -0.1189 -0.0080  0.6515
  325MOL0     C43771  12.301   3.642   9.346 -0.3548  0.2945  0.5402
  325MOL0     C43772  12.436   3.663   9.306 -0.8021  0.6149 -0.5870
  325MOL0     C43773  12.547   3.621   9.388  0.7510  0.6563 -0.0482
  325MOL0     C43774  12.518   3.547   9.507  0.5748  0.2019  0.7461
  325MOL0     O43775  12.621   3.495   9.592 -0.2734 -0.1909 -0.2356
  325MOL0     C43776  12.753   3.556   9.584 -0.5116 -1.0038 -0.9499
  325MOL0     C43777  12.850   3.491   9.684 -0.1840 -0.0105  0.1694
  325MOL0     C43778  12.937   3.392   9.613  0.5971  0.4737 -0.5711
  325MOL0     C43779  13.036   3.311   9.704  0.2487  0.1838 -0.1619
  325MOL0     C43780  13.166   3.266   9.638 -0.5146  0.0758 -0.4614
  325MOL0     C43781  13.148   3.183   9.514 -0.5316  0.1902 -0.9926
  325MOL0     C43782  13.291   3.130   9.465 -0.1292 -0.3147 -0.4030
  325MOL0     C43783  13.369   3.227   9.365  0.6632 -0.2309  0.0052
  325MOL0    Cl43784  13.521   3.153   9.319  0.2998  0.2392  0.0508
  325MOL0     C43785  12.382   3.508   9.534  0.1733  0.3762 -0.1934
  325MOL0     C43786  12.279   3.555   9.459  0.8479 -0.6614  0.8746
  325MOL0     O43787  12.179   3.875   9.385  0.2315 -0.1460 -0.7367
  325MOL0     C43788  11.966   3.774   9.118  0.7403  0.0966 -0.6994
  325MOL0     C43789  11.875   3.827   9.028 -1.2497 -0.1791 -0.3204
  325MOL0     N43790  11.515   3.952   8.333  0.0667  1.1281 -0.9092
  325MOL0     N43791  11.456   3.905   8.229 -0.9840 -0.8909 -0.1307
  325MOL0     C43792  10.319   3.487   7.895 -0.0050  1.1373 -0.7273
  325MOL0     C43793  10.190   3.461   7.861 -0.4667 -0.5706  0.2425
  325MOL0     C43794   9.853   3.472   7.532 -0.4114  0.2982  1.3198
  325MOL0     C43795   9.788   3.562   7.445  1.2905 -0.0996  0.1704
  325MOL0     C43796   9.675   3.536   7.376 -0.5319 -0.1768 -0.7716
  325MOL0     C43797   9.603   3.414   7.390 -0.3477  0.5599 -0.1315
  325MOL0     O43798   9.494   3.374   7.328  0.0751 -0.1044  0.6735
  325MOL0     C43799   9.408   3.484   7.287 -0.0435 -0.0507 -1.2706
  325MOL0     C43800   9.290   3.445   7.216 -0.4044  0.6009 -0.8924
  325MOL0     C43801   9.186   3.384   7.310 -0.5259  0.9998  0.7601
  325MOL0     C43802   9.064   3.474   7.321  0.7440 -0.5129  0.4016
  325MOL0     C43803   8.956   3.398   7.385 -0.8674 -0.2079  0.4232
  325MOL0     C43804   8.877   3.320   7.434  0.0522  0.2031  0.1943
  325MOL0     C43805   9.666   3.315   7.466  0.1006 -0.0239  0.0579
  325MOL0     C43806   9.786   3.347   7.543  0.5289  0.2228  0.3755
  325MOL0     C43807   9.825   3.234   7.643 -0.8671 -0.4139  0.4163
  325MOL0     H43808  10.235   3.395   7.524  2.0053  3.6864 -1.6522
  325MOL0     H43809  10.463   3.428   7.597  0.5508  1.9161 -0.2829
  325MOL0     H43810  10.628   3.312   7.891  5.3040  1.2029  1.9031
  325MOL0     H43811  10.616   3.340   7.715 -3.3758 -1.3479  0.8072
  325MOL0     H43812  10.801   3.521   7.749  3.6107  1.6111  2.3338
  325MOL0     H43813  10.845   3.361   7.804 -1.0808 -1.0619  0.5283
  325MOL0     H43814  10.882   3.436   8.019  2.1377  2.9522 -0.3590
  325MOL0     H43815  10.735   3.529   8.024  0.3069  2.0407  1.4857
  325MOL0     H43816  10.981   3.596   7.878  0.5020 -2.7191  1.3319
  325MOL0     H43817  10.833   3.708   7.895  3.6072  2.8294 -0.0638
  325MOL0     H43818  10.896   3.711   8.138  2.0563  2.4172  1.5113
  325MOL0     H43819  11.037   3.613   8.096 -3.5025 -2.7358 -0.2655
  325MOL0     H43820  11.105   3.811   7.935  0.7467  1.3398 -0.3328
  325MOL0     H43821  10.948   3.884   7.983  0.0227 -0.2346  0.4456
  325MOL0     H43822  11.030   3.895   8.205 -0.9618 -1.1548  0.1291
  325MOL0     H43823  11.117   3.997   8.100  2.3340 -0.5989 -0.0832
  325MOL0     H43824  11.221   3.722   8.204  4.4124 -1.8888 -1.8922
  325MOL0     H43825  11.305   3.805   8.074  1.5724  2.1256  0.8285
  325MOL0     H43826  11.189   3.963   8.401 -0.0274  1.8108 -0.7492
  325MOL0     H43827  11.460   4.152   8.553  0.0168  1.0120  0.4777
  325MOL0     H43828  11.333   4.062   8.615  0.0105  2.7077  0.5161
  325MOL0     H43829  11.471   3.872   8.671 -1.9207  2.0694 -0.8970
  325MOL0     H43830  11.608   3.928   8.578  1.7466  3.6552 -0.4856
  325MOL0     H43831  11.504   4.088   8.812 -0.4652 -1.7824 -0.1831
  325MOL0     H43832  11.647   4.124   8.723  0.5130 -0.0579  0.0758
  325MOL0     H43833  11.748   3.905   8.798  2.2106  0.1759  2.7668
  325MOL0     H43834  11.605   3.875   8.896 -3.3134  1.2780 -1.0812
  325MOL0     H43835  11.880   4.147   9.123  1.3688  0.6680 -1.2792
  325MOL0     H43836  12.059   4.070   9.266 -2.5708 -0.7196  1.6051
  325MOL0     H43837  12.458   3.726   9.220 -0.6545  2.0860  0.4863
  325MOL0     H43838  12.650   3.631   9.356 -0.4683  2.3886 -4.0365
  325MOL0     H43839  12.802   3.548   9.487 -2.0135 -1.2007 -1.7233
  325MOL0     H43840  12.754   3.659   9.621  1.8990 -1.8033  1.5694
  325MOL0     H43841  12.914   3.568   9.728 -1.3360  2.7370 -2.6038
  325MOL0     H43842  12.788   3.436   9.756 -2.6636  2.2672 -0.0936
  325MOL0     H43843  12.884   3.312   9.560  0.8109 -0.5307  0.6854
  325MOL0     H43844  13.003   3.445   9.544 -0.4009  1.8421 -0.4982
  325MOL0     H43845  12.987   3.229   9.757  3.6969 -2.1938 -0.3208
  325MOL0     H43846  13.058   3.372   9.793 -0.1732 -2.9500  2.2873
  325MOL0     H43847  13.221   3.199   9.705 -4.1088  0.5891  3.3563
  325MOL0     H43848  13.230   3.354   9.623 -0.2573 -0.3941 -2.4239
  325MOL0     H43849  13.091   3.094   9.540  3.0505 -1.9211  0.3145
  325MOL0     H43850  13.093   3.240   9.438 -3.4555 -1.4596 -0.2466
  325MOL0     H43851  13.272   3.040   9.405 -0.5213 -1.4524  1.3622
  325MOL0     H43852  13.352   3.095   9.549 -0.5876  0.2918  0.1877
  325MOL0     H43853  13.301   3.248   9.282  1.0763  0.5803 -0.1349
  325MOL0     H43854  13.402   3.321   9.409  1.5530 -0.5245 -0.0237
  325MOL0     H43855  12.370   3.453   9.627  0.6142  1.8377  0.7577
  325MOL0     H43856  12.172   3.550   9.474  0.3961  1.7581 -1.0081
  325MOL0     H43857  11.975   3.667   9.133  1.3924  0.2850  0.3768
  325MOL0     H43858  11.812   3.768   8.963 -0.6941 -2.3361  1.0146
  325MOL0     H43859  10.359   3.497   7.996  0.9483 -1.7422 -0.7178
  325MOL0     H43860  10.117   3.485   7.937 -2.4952 -0.2770 -1.7195
  325MOL0     H43861   9.832   3.659   7.424  1.0586 -0.1906 -0.7862
  325MOL0     H43862   9.633   3.608   7.306 -3.1472  1.4524  2.1948
  325MOL0     H43863   9.464   3.548   7.217  2.1982  1.5976  1.7875
  325MOL0     H43864   9.372   3.548   7.368 -0.3872  0.2236 -1.6353
  325MOL0     H43865   9.316   3.383   7.130 -2.2703 -0.2452 -0.8974
  325MOL0     H43866   9.244   3.537   7.180 -1.7923 -0.2455 -1.3445
  325MOL0     H43867   9.226   3.361   7.409  0.4118 -0.1701  0.1402
  325MOL0     H43868   9.156   3.288   7.267 -0.6787  2.4733 -2.8144
  325MOL0     H43869   9.086   3.564   7.381 -1.3911  2.0310 -2.3274
  325MOL0     H43870   9.035   3.502   7.220 -2.9142  0.8318  1.6504
  325MOL0     H43871   8.810   3.249   7.478 -1.8569  1.8190  0.0420
  325MOL0     H43872   9.623   3.216   7.476  0.7922 -0.6039 -2.1478
  325MOL0     H43873   9.832   3.261   7.749 -3.3455  1.3925  0.2155
  325MOL0     H43874   9.746   3.159   7.633 -0.8491 -0.1569 -2.6732
  325MOL0     H43875   9.918   3.187   7.609 -0.5428 -3.2497  4.5786
  326MOL0     O43876   7.180   0.881   5.418  0.2242  0.1289 -0.0359
  326MOL0     C43877   7.257   0.800   5.471 -0.5747  0.6898  1.0691
  326MOL0     O43878   7.257   0.764   5.603 -0.6287 -0.5073  0.1950
  326MOL0     C43879   7.179   0.819   5.707  0.8907  0.0453 -0.7579
  326MOL0     C43880   7.188   0.748   5.830  1.0505  0.5463  0.6168
  326MOL0     C43881   7.118   0.780   5.947 -0.5707 -0.4723 -0.3929
  326MOL0     C43882   7.039   0.890   5.947  0.8273 -0.3820 -0.1222
  326MOL0     O43883   6.965   0.939   6.052 -0.1745  0.4679  0.6554
  326MOL0     C43884   6.992   0.897   6.185  0.2448  0.4955  0.2387
  326MOL0     C43885   6.885   0.979   6.259  0.1211 -0.1006 -0.7437
  326MOL0     C43886   6.743   0.926   6.274  0.1303  0.0517  0.1464
  326MOL0     C43887   6.657   0.939   6.148  0.2966 -0.5082  0.2285
  326MOL0     C43888   6.552   0.831   6.168  0.1162  0.2169  0.4711
  326MOL0     C43889   6.460   0.854   6.289 -0.6336  0.9600  0.5203
  326MOL0     C43890   6.383   0.983   6.294 -1.1156 -0.3093  0.0383
  326MOL0     C43891   6.280   0.986   6.405 -0.7250  0.0386  0.0147
  326MOL0     N43892   6.174   0.913   6.350  0.1673  0.1186 -0.5367
  326MOL0     C43893   6.075   0.971   6.283 -0.5029 -0.0094  0.3425
  326MOL0     C43894   5.984   0.870   6.281 -0.4276 -0.2340  0.2716
  326MOL0     C43895   5.851   0.895   6.206 -0.0927  0.4003  0.5170
  326MOL0     C43896   5.730   0.847   6.277  0.4319 -0.3555 -0.4758
  326MOL0     C43897   5.705   0.693   6.248 -0.4853 -1.0165 -0.1326
  326MOL0     C43898   5.564   0.651   6.299 -0.5497 -0.5212  0.1416
  326MOL0     O43899   5.480   0.692   6.191  0.3464  0.1533  0.6614
  326MOL0     C43900   5.349   0.716   6.220 -0.3923  0.0775  0.3058
  326MOL0     C43901   5.290   0.678   6.342 -0.2042 -0.0751 -0.1902
  326MOL0     C43902   5.156   0.697   6.368 -0.2012 -0.0077  0.3842
  326MOL0     C43903   5.076   0.771   6.275  0.3613 -0.3641 -0.6152
  326MOL0     C43904   4.925   0.801   6.298 -1.1198  1.1328 -0.1173
  326MOL0     O43905   4.862   0.886   6.204 -0.4842 -0.6294  0.1142
  326MOL0     C43906   4.734   0.919   6.213  0.3365  0.0807  0.9956
  326MOL0     C43907   4.652   0.891   6.108  0.2103 -0.4157 -0.0119
  326MOL0     C43908   4.516   0.941   6.106 -0.3410  0.0363 -0.5201
  326MOL0     C43909   4.466   1.030   6.199  0.0707 -0.0745 -0.3781
  326MOL0     O43910   4.336   1.070   6.206  0.5597  0.3345 -0.0505
  326MOL0     C43911   4.264   1.069   6.086 -0.2312  0.5043  1.0929
  326MOL0     C43912   4.137   1.151   6.097 -0.1145 -0.3546  0.2806
  326MOL0     C43913   4.038   1.091   6.199 -0.1070  0.5094  0.0656
  326MOL0     C43914   3.911   1.169   6.194  0.1912  1.0308  0.8400
  326MOL0     C43915   3.810   1.120   6.305  0.0617  0.1544 -0.5011
  326MOL0     C43916   3.748   0.985   6.271  0.1062 -0.4077 -0.5975
  326MOL0     C43917   3.626   0.955   6.366 -0.2543  0.5281  0.0729
  326MOL0     C43918   3.669   0.974   6.515 -0.2730 -0.8376 -0.4350
  326MOL0    Cl43919   3.667   1.143   6.573  0.1209  0.0912  0.3002
  326MOL0     C43920   4.548   1.051   6.314  0.5290  0.0885 -0.1408
  326MOL0     C43921   4.683   1.000   6.316  0.6445  0.0010 -1.0042
  326MOL0     O43922   4.868   0.729   6.377  0.5621  0.4429 -0.1507
  326MOL0     C43923   5.133   0.805   6.155 -0.5691 -0.1653 -0.1063
  326MOL0     C43924   5.272   0.787   6.131 -0.1685 -0.2998  0.3901
  326MOL0     N43925   6.026   0.755   6.350  0.0656 -1.6031  0.2486
  326MOL0     N43926   6.137   0.790   6.401  0.0943  0.0563 -0.5859
  326MOL0     C43927   7.028   0.973   5.834  0.0668  0.3049  0.0895
  326MOL0     C43928   7.089   0.936   5.714  0.0398  0.0057 -0.7173
  326MOL0     C43929   7.348   0.727   5.375  0.1573  0.4186 -0.6401
  326MOL0     C43930   7.391   0.776   5.252  0.4526  0.4600  1.0762
  326MOL0     C43931   7.463   0.704   5.157 -0.0485  0.2862  0.0702
  326MOL0     C43932   7.496   0.570   5.190  0.1036 -0.4689  0.5921
  326MOL0     O43933   7.589   0.513   5.100  0.7209 -0.5852 -0.6926
  326MOL0     C43934   7.641   0.385   5.146 -0.7700 -0.1157  0.0140
  326MOL0     C43935   7.762   0.346   5.069 -0.1132 -0.3864  0.3064
  326MOL0     C43936   7.868   0.459   5.075 -0.6836  1.2024  0.0449
  326MOL0     C43937   7.879   0.542   4.947 -0.8939  0.1093  0.1939
  326MOL0     C43938   7.959   0.463   4.848 -0.3504 -0.6552 -0.1732
  326MOL0     C43939   8.027   0.418   4.759  0.0420  0.7707  0.2955
  326MOL0     C43940   7.447   0.511   5.310  0.2308  0.0829  0.3055
  326MOL0     C43941   7.370   0.590   5.398 -0.5045 -0.5482  0.2696
  326MOL0     C43942   7.302   0.507   5.506 -0.4056 -0.3600 -0.8978
  326MOL0     H43943   7.265   0.673   5.839 -0.7092 -1.3190  0.7987
  326MOL0     H43944   7.127   0.719   6.036 -2.2690 -0.9124 -0.5020
  326MOL0     H43945   6.980   0.789   6.196  0.8347  0.3989 -0.0499
  326MOL0     H43946   7.091   0.933   6.215 -0.3315  0.7856  1.8831
  326MOL0     H43947   6.876   1.081   6.223  0.7688  1.0296  2.0492
  326MOL0     H43948   6.917   1.002   6.361 -2.5332  2.3997 -0.3566
  326MOL0     H43949   6.693   0.981   6.354 -0.3119  0.3589 -0.3352
  326MOL0     H43950   6.747   0.822   6.308 -0.4081  0.4804  1.5673
  326MOL0     H43951   6.611   1.038   6.138 -1.1306 -1.2392 -0.8657
  326MOL0     H43952   6.723   0.911   6.065  1.6641  1.6867  0.5129
  326MOL0     H43953   6.497   0.831   6.073  0.5772 -1.2802  0.1838
  326MOL0     H43954   6.605   0.737   6.184  2.1037  1.0615 -0.8494
  326MOL0     H43955   6.402   0.762   6.293 -0.3839  0.8131  0.7883
  326MOL0     H43956   6.512   0.850   6.385  1.3805 -0.7965 -0.5371
  326MOL0     H43957   6.335   1.021   6.203 -1.5336  0.6594  0.6444
  326MOL0     H43958   6.449   1.060   6.335 -0.6014 -0.9084  0.3576
  326MOL0     H43959   6.320   0.943   6.498  1.8908  0.9082 -0.6394
  326MOL0     H43960   6.241   1.088   6.417 -3.3162 -0.7040 -1.3700
  326MOL0     H43961   6.068   1.074   6.248 -0.3466 -0.4708 -1.1496
  326MOL0     H43962   5.837   1.000   6.178 -0.1299  0.6212  1.3400
  326MOL0     H43963   5.868   0.859   6.104 -0.9397  1.9386 -0.2024
  326MOL0     H43964   5.749   0.867   6.383  1.0880  1.2376 -0.8528
  326MOL0     H43965   5.643   0.896   6.233 -1.4128 -3.1163 -0.1464
  326MOL0     H43966   5.788   0.645   6.301  0.1149  2.0206  1.9423
  326MOL0     H43967   5.725   0.676   6.141 -2.0393 -0.4405 -0.5460
  326MOL0     H43968   5.544   0.716   6.385 -3.0365 -1.1467  0.1027
  326MOL0     H43969   5.559   0.543   6.318 -2.1467 -0.2611  1.3815
  326MOL0     H43970   5.353   0.636   6.420  0.1431 -1.7864 -1.3392
  326MOL0     H43971   5.111   0.655   6.458 -1.8579  0.2624 -0.2781
  326MOL0     H43972   4.687   0.837   6.020 -1.9531  0.8014 -1.7227
  326MOL0     H43973   4.461   0.917   6.016  1.2430 -0.5518 -1.3709
  326MOL0     H43974   4.314   1.122   6.004 -1.8553 -1.3360 -1.2467
  326MOL0     H43975   4.235   0.966   6.061 -2.2066  1.0140  1.1290
  326MOL0     H43976   4.159   1.256   6.115 -0.5842  0.4059 -3.0251
  326MOL0     H43977   4.091   1.151   5.998 -1.3238  0.2937  0.8216
  326MOL0     H43978   4.017   0.988   6.172  2.0538  0.0349 -0.0014
  326MOL0     H43979   4.076   1.096   6.302 -2.7399 -1.0075  1.2084
  326MOL0     H43980   3.868   1.133   6.100  0.0800  0.3284  1.1484
  326MOL0     H43981   3.925   1.277   6.200  0.8150  1.0476 -0.5202
  326MOL0     H43982   3.726   1.190   6.308 -0.4360 -0.2444 -2.7156
  326MOL0     H43983   3.863   1.116   6.400 -2.8069 -2.0718  1.1571
  326MOL0     H43984   3.717   0.978   6.167  1.1857 -0.9954 -0.8927
  326MOL0     H43985   3.821   0.904   6.283 -1.8010 -2.1288  0.2357
  326MOL0     H43986   3.606   0.849   6.350 -1.6637  0.3160  2.6873
  326MOL0     H43987   3.540   1.021   6.345  0.3100  1.4482  0.5778
  326MOL0     H43988   3.597   0.910   6.566  1.0610 -0.3532  2.2527
  326MOL0     H43989   3.770   0.937   6.534  0.4103  1.4794  0.8816
  326MOL0     H43990   4.493   1.089   6.400 -0.6066 -2.9480  0.6217
  326MOL0     H43991   4.758   1.006   6.394 -0.6076  1.6988  0.1493
  326MOL0     H43992   5.070   0.833   6.071  1.1385 -0.7364 -1.6529
  326MOL0     H43993   5.304   0.813   6.030 -2.1096 -0.8564 -0.4251
  326MOL0     H43994   6.967   1.063   5.832  1.5880  1.3996  0.9406
  326MOL0     H43995   7.069   0.998   5.627 -0.2611  0.6199 -0.2256
  326MOL0     H43996   7.376   0.882   5.234 -0.0491 -0.0239 -1.8817
  326MOL0     H43997   7.491   0.756   5.066 -0.7720 -0.5252 -0.6397
  326MOL0     H43998   7.563   0.312   5.120 -0.2481 -0.4659 -0.6038
  326MOL0     H43999   7.659   0.377   5.254 -2.1497 -2.2774  0.1529
  326MOL0     H44000   7.723   0.328   4.968  1.5010 -2.8707  0.0259
  326MOL0     H44001   7.802   0.251   5.106 -2.1326 -1.3031  0.2557
  326MOL0     H44002   7.968   0.413   5.077 -0.5306  1.5163 -0.3184
  326MOL0     H44003   7.850   0.526   5.160  0.4113  1.0927  0.3920
  326MOL0     H44004   7.784   0.573   4.903 -0.5942  2.8749  1.3368
  326MOL0     H44005   7.938   0.629   4.976 -0.8907 -0.5328  2.3041
  326MOL0     H44006   8.084   0.387   4.674 -2.7620 -0.3180 -1.3641
  326MOL0     H44007   7.453   0.405   5.329  0.0956  0.1164  0.5380
  326MOL0     H44008   7.373   0.491   5.588 -0.8799 -2.8959 -0.9140
  326MOL0     H44009   7.205   0.532   5.550  1.4600  3.6906  1.6079
  326MOL0     H44010   7.288   0.403   5.477  2.8264 -1.7461  1.8549
  327MOL0     O44011   9.983   6.241   2.080  0.4050  0.5527 -0.1155
  327MOL0     C44012   9.930   6.136   2.042  0.3727  0.1665  0.6200
  327MOL0     O44013   9.976   6.053   1.942 -0.0015  0.0142  0.3600
  327MOL0     C44014  10.113   6.056   1.902  0.2636 -0.6819  0.1085
  327MOL0     C44015  10.137   6.064   1.768 -0.5014 -0.1796 -0.4513
  327MOL0     C44016  10.271   6.082   1.717  1.2079  0.5681  0.8001
  327MOL0     C44017  10.382   6.076   1.803  0.3621  0.0959 -0.2131
  327MOL0     O44018  10.516   6.086   1.766  0.2656  1.0283  0.0067
  327MOL0     C44019  10.571   6.007   1.656 -0.7070 -0.5909 -0.6108
  327MOL0     C44020  10.727   5.998   1.673 -0.1401 -0.0165  0.0976
  327MOL0     C44021  10.778   5.937   1.811 -0.7543 -0.1902 -0.7162
  327MOL0     C44022  10.920   5.886   1.802  0.1952  0.1438 -0.5606
  327MOL0     C44023  10.975   5.820   1.932  0.4399  0.8305  1.2798
  327MOL0     C44024  11.110   5.754   1.913  0.4594 -0.4134 -0.4713
  327MOL0     C44025  11.154   5.679   2.043 -0.9929  0.5024 -0.3207
  327MOL0     C44026  11.238   5.561   2.011  0.0917 -1.4599 -0.7524
  327MOL0     N44027  11.171   5.455   1.939  0.3967  0.4122  0.0009
  327MOL0     C44028  11.216   5.391   1.822 -0.8021 -0.1564  0.0388
  327MOL0     C44029  11.133   5.294   1.791  0.6852  0.7863 -0.4737
  327MOL0     C44030  11.149   5.193   1.677  0.5680 -1.1547  0.7245
  327MOL0     C44031  11.240   5.088   1.732  0.3723 -0.5592  0.2352
  327MOL0     C44032  11.271   4.975   1.628 -0.3133  0.0039 -0.3599
  327MOL0     C44033  11.366   4.871   1.698 -0.3662  0.4003  0.5309
  327MOL0     O44034  11.432   4.796   1.597  0.2050  0.1202  0.3325
  327MOL0     C44035  11.543   4.734   1.635 -0.0296  0.5262 -0.6216
  327MOL0     C44036  11.661   4.783   1.580  0.2621  0.7132 -0.2274
  327MOL0     C44037  11.786   4.732   1.608  0.6775  0.1089 -0.1371
  327MOL0     C44038  11.798   4.628   1.702 -0.6434  0.7393  0.7844
  327MOL0     C44039  11.927   4.586   1.746  0.4739  0.2950 -0.0302
  327MOL0     O44040  12.024   4.574   1.650  0.0427  0.0994  0.1256
  327MOL0     C44041  12.148   4.516   1.683 -0.1412 -0.8106  0.4999
  327MOL0     C44042  12.206   4.411   1.607 -0.0526 -0.2382  0.1171
  327MOL0     C44043  12.338   4.369   1.643 -0.3482  1.0259  0.2516
  327MOL0     C44044  12.404   4.412   1.748 -0.1277 -0.3171  0.7183
  327MOL0     O44045  12.524   4.343   1.772  0.1526  0.3935 -0.4286
  327MOL0     C44046  12.569   4.349   1.914  0.2042  0.2277  0.1158
  327MOL0     C44047  12.705   4.275   1.928 -0.5811 -0.1697  0.5150
  327MOL0     C44048  12.767   4.284   2.067 -0.1300 -0.1819 -0.5178
  327MOL0     C44049  12.862   4.409   2.081 -0.4112  0.6998  0.2369
  327MOL0     C44050  12.880   4.463   2.226  0.1021  0.9406  0.5397
  327MOL0     C44051  13.021   4.495   2.276 -0.3681  0.5370  0.8263
  327MOL0     C44052  13.020   4.570   2.405  0.4475  0.6626  1.0148
  327MOL0     C44053  13.159   4.606   2.460  0.1039 -0.4797 -0.6144
  327MOL0    Cl44054  13.236   4.724   2.349  0.4638 -0.0051  0.5411
  327MOL0     C44055  12.345   4.515   1.821 -0.8993  0.2183  0.4677
  327MOL0     C44056  12.226   4.571   1.787 -0.2888  0.9513 -0.1494
  327MOL0     O44057  11.944   4.548   1.861 -0.4387 -0.8981 -0.0336
  327MOL0     C44058  11.680   4.585   1.772 -0.7879  0.4576  0.6065
  327MOL0     C44059  11.553   4.639   1.739 -0.3369 -0.1016  0.2490
  327MOL0     N44060  11.026   5.299   1.884 -0.5533 -0.3776 -0.6018
  327MOL0     N44061  11.058   5.388   1.978  0.0623  0.7383 -0.1083
  327MOL0     C44062  10.349   6.059   1.937 -0.3300  0.4000 -0.8527
  327MOL0     C44063  10.220   6.056   1.986 -0.1415 -0.1082  0.3818
  327MOL0     C44064   9.794   6.109   2.087  0.8579 -0.1340 -0.4536
  327MOL0     C44065   9.716   6.019   2.007  0.7823  0.1894  1.0078
  327MOL0     C44066   9.584   5.991   2.037  0.6016  0.2251  0.1190
  327MOL0     C44067   9.521   6.048   2.150  0.0390  0.4546  0.2194
  327MOL0     O44068   9.394   6.019   2.188 -0.2620  0.8107  0.1603
  327MOL0     C44069   9.312   5.937   2.109  0.0554  0.2494  0.2043
  327MOL0     C44070   9.217   6.026   2.021  0.1342 -0.3592  0.8409
  327MOL0     C44071   9.284   6.086   1.894  0.1181 -0.8545  0.6332
  327MOL0     C44072   9.179   6.180   1.832 -0.0431 -1.3913  0.2190
  327MOL0     C44073   9.216   6.226   1.699 -0.0573 -0.0150  0.4600
  327MOL0     C44074   9.239   6.259   1.584 -0.3420  0.4748 -0.5218
  327MOL0     C44075   9.599   6.117   2.233 -0.4292  0.7097  0.5657
  327MOL0     C44076   9.735   6.144   2.212  0.1384 -0.3591 -0.1576
  327MOL0     C44077   9.822   6.212   2.326  0.3681  0.4181  0.1293
  327MOL0     H44078  10.055   6.078   1.699  0.3504 -0.6160 -1.5920
  327MOL0     H44079  10.268   6.099   1.610 -1.6066 -0.0863  0.6853
  327MOL0     H44080  10.534   5.904   1.652  0.7944 -1.1373 -1.1154
  327MOL0     H44081  10.553   6.066   1.565 -0.3932 -1.6934 -1.4157
  327MOL0     H44082  10.767   6.100   1.666 -0.8451  0.2071 -0.9963
  327MOL0     H44083  10.762   5.950   1.581 -1.1822 -0.8297  0.1124
  327MOL0     H44084  10.711   5.851   1.825  0.8028 -1.0163  2.8235
  327MOL0     H44085  10.768   6.004   1.896 -3.8261  1.5564 -2.2769
  327MOL0     H44086  10.918   5.806   1.727 -1.8678 -1.2802  0.9229
  327MOL0     H44087  10.987   5.962   1.762 -1.0085  1.1238 -0.7490
  327MOL0     H44088  10.976   5.891   2.015  0.6483  3.0847 -0.5504
  327MOL0     H44089  10.904   5.739   1.951 -2.1619  1.4532 -4.0167
  327MOL0     H44090  11.099   5.679   1.834 -2.8685 -1.8659  1.1823
  327MOL0     H44091  11.184   5.828   1.880  2.4373 -3.4890 -3.6491
  327MOL0     H44092  11.063   5.639   2.090 -1.2885  0.6315 -0.7778
  327MOL0     H44093  11.208   5.740   2.116 -0.0538 -0.1445 -0.4583
  327MOL0     H44094  11.333   5.595   1.969  0.3050  2.1366  2.1096
  327MOL0     H44095  11.258   5.515   2.108 -1.0809 -0.3795  0.0431
  327MOL0     H44096  11.308   5.420   1.774 -1.3374  0.5572 -0.5800
  327MOL0     H44097  11.049   5.156   1.655  0.7213 -2.5749  2.2430
  327MOL0     H44098  11.190   5.250   1.594  0.3191  0.1680  1.4717
  327MOL0     H44099  11.332   5.140   1.762  1.1703 -0.4003 -2.1906
  327MOL0     H44100  11.177   5.042   1.808 -1.8097  2.4015  0.3660
  327MOL0     H44101  11.320   5.014   1.538  1.4725  1.4365  1.1572
  327MOL0     H44102  11.179   4.933   1.587 -0.8317  2.2300 -1.6422
  327MOL0     H44103  11.316   4.810   1.774 -0.1043  2.5851  2.6015
  327MOL0     H44104  11.438   4.930   1.756  2.6977 -1.4869 -1.0864
  327MOL0     H44105  11.643   4.856   1.502  0.8484  2.4360  1.1864
  327MOL0     H44106  11.877   4.763   1.557  1.2762 -3.4655 -1.4902
  327MOL0     H44107  12.159   4.364   1.521  1.7249 -1.6798 -0.1493
  327MOL0     H44108  12.378   4.293   1.577 -2.4023 -1.7316  1.9498
  327MOL0     H44109  12.572   4.453   1.948  1.1015  0.2394  0.0194
  327MOL0     H44110  12.498   4.296   1.978  2.5012 -1.4875  1.3889
  327MOL0     H44111  12.684   4.168   1.919  1.2220 -0.5396  0.3767
  327MOL0     H44112  12.778   4.308   1.853  0.5412  0.1730  1.7262
  327MOL0     H44113  12.682   4.297   2.134 -0.4201 -3.1774 -0.1594
  327MOL0     H44114  12.816   4.193   2.103 -3.3491 -1.9114 -0.1576
  327MOL0     H44115  12.832   4.493   2.017  0.0182  3.3585  3.2820
  327MOL0     H44116  12.955   4.365   2.043 -1.7044 -2.0541  0.0730
  327MOL0     H44117  12.836   4.384   2.288 -1.6010 -0.0275 -1.7348
  327MOL0     H44118  12.821   4.553   2.240  1.6895  2.6648 -2.7608
  327MOL0     H44119  13.075   4.399   2.275 -1.5558 -0.1732 -1.0379
  327MOL0     H44120  13.080   4.558   2.208  0.8836 -0.6594  0.7488
  327MOL0     H44121  12.974   4.502   2.478  2.1358 -1.6576  0.0194
  327MOL0     H44122  12.972   4.668   2.399  1.8961  1.3444  0.0735
  327MOL0     H44123  13.150   4.656   2.557  0.1405  1.2420 -1.4655
  327MOL0     H44124  13.222   4.516   2.465 -0.2985 -0.7173  0.3768
  327MOL0     H44125  12.392   4.554   1.910  1.5247 -1.7448  0.1623
  327MOL0     H44126  12.185   4.654   1.843 -0.6289  0.9334 -0.3646
  327MOL0     H44127  11.684   4.519   1.858 -1.9980  0.7640  0.9128
  327MOL0     H44128  11.463   4.594   1.779 -0.2455 -1.0293 -0.5674
  327MOL0     H44129  10.433   6.045   2.005 -1.2466  0.8003  0.4070
  327MOL0     H44130  10.210   6.047   2.094  1.4850  1.4174  0.7083
  327MOL0     H44131   9.752   5.980   1.913  0.4361 -2.4152  1.8623
  327MOL0     H44132   9.533   5.932   1.961  0.8832  1.3625 -0.9824
  327MOL0     H44133   9.254   5.882   2.183  1.1095  0.7803  1.4499
  327MOL0     H44134   9.362   5.858   2.051 -3.5619  0.1890 -3.2291
  327MOL0     H44135   9.194   6.110   2.087  0.8638 -0.6381  1.4722
  327MOL0     H44136   9.134   5.966   1.983 -0.0825 -0.3595  1.3066
  327MOL0     H44137   9.311   6.001   1.831 -1.7399 -0.2499 -1.0829
  327MOL0     H44138   9.379   6.136   1.914  0.3037 -0.5451 -0.9022
  327MOL0     H44139   9.078   6.140   1.825 -0.2832 -0.6535 -0.7930
  327MOL0     H44140   9.169   6.270   1.893  0.9486  0.6158 -2.3741
  327MOL0     H44141   9.258   6.291   1.483 -1.3025  2.4393 -0.1189
  327MOL0     H44142   9.557   6.145   2.329 -0.8084  1.7721  0.1065
  327MOL0     H44143   9.780   6.180   2.422 -0.6671  0.1298 -0.4060
  327MOL0     H44144   9.926   6.178   2.322  0.7364  0.9868  2.8232
  327MOL0     H44145   9.815   6.321   2.326 -2.5582  0.3375  1.7234
  328MOL0     O44146   8.034  10.761   4.955  0.1067  0.2547  0.2773
  328MOL0     C44147   7.974  10.834   5.030 -0.7133 -0.7449  0.3339
  328MOL0     O44148   7.846  10.833   5.055  0.4465 -0.2156 -0.2538
  328MOL0     C44149   7.776  10.722   5.023  0.1779 -0.9233  0.6453
  328MOL0     C44150   7.684  10.676   5.119  0.0679  0.0314  0.0687
  328MOL0     C44151   7.603  10.563   5.083 -0.2230 -0.6192  0.1129
  328MOL0     C44152   7.594  10.517   4.954 -0.2972  0.4234  0.4241
  328MOL0     O44153   7.519  10.404   4.927  0.3482 -0.4128 -0.5979
  328MOL0     C44154   7.420  10.434   4.825 -0.4137 -0.3814  0.5046
  328MOL0     C44155   7.317  10.318   4.822  0.1164 -0.0671  0.2146
  328MOL0     C44156   7.233  10.335   4.690  0.3084 -0.4278  0.3438
  328MOL0     C44157   7.177  10.194   4.640  0.2572  0.0987 -0.5842
  328MOL0     C44158   7.122  10.203   4.502  0.2894 -1.0085  0.2428
  328MOL0     C44159   7.080  10.068   4.451 -0.4091 -0.1901 -0.2584
  328MOL0     C44160   7.022  10.075   4.313 -0.0370  0.2317  0.3626
  328MOL0     C44161   6.984   9.940   4.266  0.0784  0.1969  0.2327
  328MOL0     N44162   6.841   9.936   4.250  0.3192  0.4707 -0.4682
  328MOL0     C44163   6.751   9.928   4.345  0.0881 -0.3700 -0.1311
  328MOL0     C44164   6.629   9.915   4.282  0.3845 -0.0014  0.5759
  328MOL0     C44165   6.506   9.906   4.373  0.5170  0.0763  0.5887
  328MOL0     C44166   6.405   9.802   4.317  0.9330  0.0026  0.6086
  328MOL0     C44167   6.301   9.764   4.426  0.4118  0.3166  0.7836
  328MOL0     C44168   6.208   9.651   4.380 -0.8969  0.1646 -0.3690
  328MOL0     O44169   6.132   9.612   4.493 -0.3820  0.3583 -0.0287
  328MOL0     C44170   6.009   9.665   4.514  1.1161 -0.6395  0.7680
  328MOL0     C44171   5.925   9.602   4.604 -0.2346 -0.0759  0.2354
  328MOL0     C44172   5.799   9.657   4.618 -1.1511  0.0925  0.2900
  328MOL0     C44173   5.757   9.785   4.561 -0.4659 -0.4168 -0.5739
  328MOL0     C44174   5.623   9.830   4.579  0.1155  0.4320 -0.6479
  328MOL0     O44175   5.558   9.773   4.683  0.0687  0.3087 -0.0042
  328MOL0     C44176   5.461   9.854   4.738 -0.6443 -0.0180 -0.9743
  328MOL0     C44177   5.344   9.876   4.678 -0.0877 -1.1047  0.2399
  328MOL0     C44178   5.233   9.940   4.745 -0.4605 -0.7697 -0.0861
  328MOL0     C44179   5.251   9.987   4.880 -0.1351  0.4582 -0.2420
  328MOL0     O44180   5.160  10.059   4.944 -0.0139  0.1805  0.1199
  328MOL0     C44181   5.140  10.195   4.914 -1.0646 -0.6877 -0.2227
  328MOL0     C44182   5.232  10.292   4.985  0.0476 -0.3467 -0.0736
  328MOL0     C44183   5.218  10.280   5.147  0.0857 -0.5074 -0.4217
  328MOL0     C44184   5.327  10.362   5.217 -1.2895 -0.5246  0.2146
  328MOL0     C44185   5.278  10.373   5.363 -0.6036  0.1405  0.6138
  328MOL0     C44186   5.374  10.452   5.456 -0.5872 -0.0669  0.3437
  328MOL0     C44187   5.494  10.371   5.512 -0.2267 -0.8297  0.0730
  328MOL0     C44188   5.600  10.344   5.414  0.1106  0.1316 -0.1756
  328MOL0    Cl44189   5.739  10.276   5.491  0.0755 -0.2815 -0.0401
  328MOL0     C44190   5.371   9.955   4.944  0.8655  0.8734 -0.2256
  328MOL0     C44191   5.478   9.892   4.880 -0.0066  1.0592  0.2831
  328MOL0     O44192   5.581   9.918   4.501 -0.2727 -0.1737  0.4591
  328MOL0     C44193   5.840   9.849   4.478 -0.8759  0.9588  0.0135
  328MOL0     C44194   5.969   9.798   4.464 -0.4021 -0.0074  0.5976
  328MOL0     N44195   6.651   9.922   4.146  0.0826  0.4201 -0.9180
  328MOL0     N44196   6.785   9.941   4.128  0.8145  0.0056  0.8767
  328MOL0     C44197   7.665  10.583   4.854  0.1890 -0.2086 -0.4019
  328MOL0     C44198   7.759  10.682   4.889  0.4005  1.0168  0.3254
  328MOL0     C44199   8.048  10.967   5.066  0.3708  0.8221 -0.0884
  328MOL0     C44200   8.182  10.985   5.031  0.1895  0.1904 -0.1942
  328MOL0     C44201   8.249  11.097   5.082 -0.0822 -0.9641 -0.0386
  328MOL0     C44202   8.193  11.182   5.172  0.2132 -0.2689  0.6065
  328MOL0     O44203   8.257  11.281   5.242 -0.1940  0.8110 -0.0844
  328MOL0     C44204   8.398  11.315   5.236 -0.7808  0.5731  0.1129
  328MOL0     C44205   8.476  11.199   5.295  0.2038  0.2650  0.0918
  328MOL0     C44206   8.423  11.158   5.438  0.5848  0.5113 -1.8949
  328MOL0     C44207   8.522  11.053   5.512  0.0380  0.4463  0.1158
  328MOL0     C44208   8.652  11.113   5.534 -0.2069  1.5797 -0.0477
  328MOL0     C44209   8.755  11.166   5.530 -0.4414  0.0714  0.0884
  328MOL0     C44210   8.062  11.173   5.197  0.2535  0.7586 -0.7140
  328MOL0     C44211   7.989  11.063   5.154 -0.2205  0.2384 -0.4386
  328MOL0     C44212   7.854  11.055   5.224  0.2288 -0.0922  0.2746
  328MOL0     H44213   7.694  10.725   5.215  0.8823 -1.0078  0.5298
  328MOL0     H44214   7.551  10.510   5.163  1.2835 -2.1934  0.0910
  328MOL0     H44215   7.363  10.523   4.853 -0.8494 -0.8935  1.2865
  328MOL0     H44216   7.474  10.438   4.729  2.2861 -1.4239  1.8729
  328MOL0     H44217   7.248  10.318   4.906  1.1109 -0.1395  1.0450
  328MOL0     H44218   7.371  10.223   4.834  3.2033  1.6696  1.3113
  328MOL0     H44219   7.296  10.384   4.615  1.0873  0.3443  1.4684
  328MOL0     H44220   7.151  10.404   4.712  0.2525 -1.1442  2.7019
  328MOL0     H44221   7.266  10.131   4.625 -0.5850 -0.4587 -4.0987
  328MOL0     H44222   7.116  10.146   4.716  0.7645 -2.1552 -1.5272
  328MOL0     H44223   7.041  10.275   4.505  0.1644 -1.1775  1.4155
  328MOL0     H44224   7.204  10.237   4.438  0.7119  0.7107  1.6398
  328MOL0     H44225   7.160   9.993   4.455  1.0219  1.2042 -1.2608
  328MOL0     H44226   7.011  10.020   4.520  3.3448 -1.3095  3.1519
  328MOL0     H44227   7.100  10.112   4.245 -0.0323  2.3988  1.4605
  328MOL0     H44228   6.946  10.152   4.300 -1.0667 -0.9286 -0.7977
  328MOL0     H44229   7.021   9.923   4.164  1.4382  0.5505  0.6443
  328MOL0     H44230   7.014   9.853   4.326 -0.3350 -0.8337 -0.9948
  328MOL0     H44231   6.773   9.926   4.451  0.3558 -1.1227 -0.1972
  328MOL0     H44232   6.527   9.873   4.475 -3.3604 -3.1653  0.5864
  328MOL0     H44233   6.460  10.002   4.395  0.5623  1.7893 -5.1943
  328MOL0     H44234   6.342   9.829   4.232  0.5660 -4.5038 -0.8249
  328MOL0     H44235   6.468   9.716   4.293 -1.4667 -1.5625 -0.3737
  328MOL0     H44236   6.243   9.856   4.439 -0.4920  0.5815 -3.6380
  328MOL0     H44237   6.350   9.736   4.520  1.1680 -3.2559 -0.5372
  328MOL0     H44238   6.276   9.577   4.336  1.1021  2.5042 -1.4088
  328MOL0     H44239   6.141   9.670   4.295 -0.8335  2.1071 -0.0257
  328MOL0     H44240   5.944   9.500   4.636  0.6963  0.3566  1.1078
  328MOL0     H44241   5.736   9.608   4.692 -0.4844 -1.3757 -0.0827
  328MOL0     H44242   5.327   9.838   4.577 -0.6248  0.1213 -0.1561
  328MOL0     H44243   5.135   9.951   4.699 -0.5859 -2.7139 -0.3299
  328MOL0     H44244   5.146  10.219   4.807  2.9135  2.2988  0.4231
  328MOL0     H44245   5.040  10.217   4.951 -0.2667  0.5898  1.2875
  328MOL0     H44246   5.336  10.276   4.954  0.5868  4.3565 -1.3313
  328MOL0     H44247   5.217  10.396   4.958  0.3064 -0.4157 -0.4817
  328MOL0     H44248   5.122  10.326   5.174  1.1873  0.8463  1.3970
  328MOL0     H44249   5.229  10.176   5.177  0.9889  0.0828  1.4084
  328MOL0     H44250   5.349  10.460   5.174  2.2679 -0.9530  0.8073
  328MOL0     H44251   5.418  10.302   5.210  0.9797  2.2763  2.6134
  328MOL0     H44252   5.270  10.274   5.409 -1.1492 -0.7318 -1.2835
  328MOL0     H44253   5.179  10.421   5.362 -1.4181 -1.4774  0.9423
  328MOL0     H44254   5.419  10.543   5.416  1.9934 -1.0743  0.8080
  328MOL0     H44255   5.304  10.482   5.535 -2.9372  1.8801 -2.2409
  328MOL0     H44256   5.450  10.278   5.550 -0.0725 -0.9912 -0.1360
  328MOL0     H44257   5.540  10.415   5.600  1.4442 -1.0757 -0.6365
  328MOL0     H44258   5.558  10.276   5.339 -1.1115  3.0994 -2.3790
  328MOL0     H44259   5.652  10.428   5.367  1.9944 -1.8770 -1.9207
  328MOL0     H44260   5.376   9.990   5.046  1.9342 -1.6228  0.6284
  328MOL0     H44261   5.567   9.871   4.939  0.0295  0.5440  0.0503
  328MOL0     H44262   5.808   9.933   4.417 -0.5040 -0.1731 -1.8358
  328MOL0     H44263   6.025   9.855   4.390 -0.8641  0.9235  0.9381
  328MOL0     H44264   7.664  10.547   4.751  0.5961 -1.9200  0.1647
  328MOL0     H44265   7.818  10.734   4.814  1.3787 -0.0443  0.3406
  328MOL0     H44266   8.231  10.919   4.961  0.4281 -1.6880  1.6300
  328MOL0     H44267   8.344  11.123   5.038  0.2262 -2.1984 -0.1305
  328MOL0     H44268   8.414  11.405   5.297 -1.6026  0.3490  0.6645
  328MOL0     H44269   8.430  11.347   5.136 -1.2421  0.4515 -0.0753
  328MOL0     H44270   8.578  11.229   5.321  0.6004 -0.2462 -0.8222
  328MOL0     H44271   8.474  11.124   5.215 -0.9826 -0.8809  1.1648
  328MOL0     H44272   8.323  11.114   5.434  2.1239 -3.4316 -2.1888
  328MOL0     H44273   8.411  11.246   5.502 -1.2730 -1.5693  0.8903
  328MOL0     H44274   8.485  11.027   5.612 -0.9903  3.0331  0.4664
  328MOL0     H44275   8.522  10.957   5.459 -3.0916  1.6198 -2.3338
  328MOL0     H44276   8.853  11.209   5.522  0.2918 -0.8867  2.7989
  328MOL0     H44277   8.018  11.237   5.273  1.0402  1.7899 -1.1162
  328MOL0     H44278   7.832  10.956   5.267  1.5880 -0.6817 -0.3119
  328MOL0     H44279   7.845  11.128   5.305 -1.5698 -1.0822  1.0219
  328MOL0     H44280   7.771  11.077   5.157  3.1721  1.1027 -3.2930
  329MOL0     O44281   7.445   6.232   0.123 -0.2816 -0.2079  0.5797
  329MOL0     C44282   7.362   6.278   0.200 -0.1361 -1.0271  0.2855
  329MOL0     O44283   7.314   6.408   0.204 -0.0671  0.4244 -0.2954
  329MOL0     C44284   7.366   6.514   0.133  0.7724  0.2498  0.2078
  329MOL0     C44285   7.392   6.501  -0.005  0.6279 -0.4388 -0.0310
  329MOL0     C44286   7.446   6.606  -0.074  0.2486 -0.2297 -0.9798
  329MOL0     C44287   7.455   6.732  -0.025 -0.4073 -0.7033 -0.7105
  329MOL0     O44288   7.479   6.838  -0.112 -0.3258 -0.4128  0.1453
  329MOL0     C44289   7.622   6.852  -0.123  0.0612 -1.4472  0.4676
  329MOL0     C44290   7.665   6.975  -0.206  0.2980  0.9613  0.5603
  329MOL0     C44291   7.661   7.105  -0.122  0.2998  1.8018 -0.3227
  329MOL0     C44292   7.591   7.216  -0.203  0.5828 -0.1213  0.0382
  329MOL0     C44293   7.626   7.360  -0.161  0.1638  0.6138  0.9433
  329MOL0     C44294   7.565   7.454  -0.267  0.1171 -0.3927  0.8144
  329MOL0     C44295   7.613   7.602  -0.257 -0.1579 -0.1552 -0.4616
  329MOL0     C44296   7.760   7.629  -0.287  0.5446  0.4789  0.4742
  329MOL0     N44297   7.801   7.770  -0.299 -0.0829  0.4585 -0.0244
  329MOL0     C44298   7.826   7.861  -0.197  0.2479 -0.2014 -0.0380
  329MOL0     C44299   7.871   7.969  -0.260 -0.3213 -0.1963  0.1729
  329MOL0     C44300   7.900   8.101  -0.194 -0.3978  0.0947 -0.0932
  329MOL0     C44301   7.780   8.147  -0.106 -0.8347  0.4879 -0.4419
  329MOL0     C44302   7.789   8.285  -0.041  0.2093 -0.2859  0.3347
  329MOL0     C44303   7.769   8.393  -0.152 -0.3195 -0.1849  0.6974
  329MOL0     O44304   7.885   8.430  -0.218 -0.1761 -0.1343 -0.9304
  329MOL0     C44305   7.982   8.503  -0.144 -1.2433  0.7593 -0.1779
  329MOL0     C44306   8.117   8.515  -0.195 -0.2574 -0.0879  0.0384
  329MOL0     C44307   8.213   8.586  -0.120  0.2040 -0.9461  0.7825
  329MOL0     C44308   8.189   8.635   0.008  0.4616 -0.9562  0.8712
  329MOL0     C44309   8.296   8.706   0.081 -0.4060  0.1789 -0.4073
  329MOL0     O44310   8.420   8.732   0.014  0.4291 -0.5108 -0.2058
  329MOL0     C44311   8.526   8.788   0.082 -0.0212 -0.0808 -0.2408
  329MOL0     C44312   8.594   8.703   0.170 -0.9825 -0.3349 -0.0287
  329MOL0     C44313   8.705   8.759   0.243  0.7008  0.0031  0.6835
  329MOL0     C44314   8.741   8.891   0.232 -0.0699  0.4686  0.1802
  329MOL0     O44315   8.841   8.942   0.300  0.1141  0.3175  0.1778
  329MOL0     C44316   8.899   8.863   0.412  0.4921 -0.1122  0.2781
  329MOL0     C44317   8.990   8.960   0.491  0.1844  0.0531  0.3339
  329MOL0     C44318   9.101   9.026   0.396  0.1727  0.7795  0.1149
  329MOL0     C44319   9.184   9.129   0.475  0.0113  0.0483  0.1892
  329MOL0     C44320   9.296   9.169   0.375  0.6782 -0.4649  0.7071
  329MOL0     C44321   9.382   9.274   0.428  0.5274 -0.3822 -0.2954
  329MOL0     C44322   9.466   9.242   0.544  0.2011  0.1592  0.3776
  329MOL0     C44323   9.616   9.289   0.543 -0.1005 -0.4630  0.2750
  329MOL0    Cl44324   9.713   9.192   0.427 -0.0035  0.0843 -0.5451
  329MOL0     C44325   8.663   8.971   0.147 -0.0156 -0.4865 -1.2741
  329MOL0     C44326   8.553   8.926   0.068 -0.1284 -0.2969  1.3361
  329MOL0     O44327   8.269   8.745   0.192  0.4083  0.9834 -0.0361
  329MOL0     C44328   8.058   8.621   0.059 -0.3993 -0.6215 -0.6322
  329MOL0     C44329   7.961   8.559  -0.011  0.1540 -0.6032 -0.3657
  329MOL0     N44330   7.875   7.952  -0.395  0.0291  0.2804 -0.3530
  329MOL0     N44331   7.838   7.829  -0.412 -0.3995  0.0493 -0.0875
  329MOL0     C44332   7.408   6.753   0.105 -0.6030  0.6317  1.0599
  329MOL0     C44333   7.359   6.639   0.183  1.1201 -0.6043  0.9543
  329MOL0     C44334   7.327   6.191   0.312 -0.2452  0.8487 -1.1001
  329MOL0     C44335   7.277   6.247   0.438  0.7270 -1.6667  0.0644
  329MOL0     C44336   7.235   6.169   0.546  0.4763 -0.8488 -0.4406
  329MOL0     C44337   7.239   6.036   0.540 -0.3654 -0.7158  0.9328
  329MOL0     O44338   7.202   5.957   0.643 -0.0906  0.8023 -0.0214
  329MOL0     C44339   7.311   5.929   0.732  0.0527 -0.5448 -0.4262
  329MOL0     C44340   7.221   5.884   0.847  0.5576 -0.8736 -0.0358
  329MOL0     C44341   7.300   5.842   0.973 -0.8443 -1.0206  0.1414
  329MOL0     C44342   7.393   5.714   0.959 -0.0673  0.0221 -0.9077
  329MOL0     C44343   7.315   5.595   0.988  0.0648  0.1487 -0.2346
  329MOL0     C44344   7.249   5.492   1.012  0.0721  0.2130 -1.0248
  329MOL0     C44345   7.291   5.975   0.424  0.1976 -0.7826 -1.3514
  329MOL0     C44346   7.331   6.048   0.309  0.0931  0.8225  0.1086
  329MOL0     C44347   7.384   5.959   0.198 -0.3400  0.3538  0.0547
  329MOL0     H44348   7.376   6.409  -0.060  2.3302  0.0345 -1.4304
  329MOL0     H44349   7.454   6.603  -0.182  0.0819 -0.2758 -0.9902
  329MOL0     H44350   7.666   6.871  -0.024 -0.3253  0.3846  0.3220
  329MOL0     H44351   7.666   6.760  -0.164 -0.6141 -0.5658 -2.4717
  329MOL0     H44352   7.594   6.979  -0.290  0.3867  0.4975  0.4576
  329MOL0     H44353   7.765   6.955  -0.245  0.1840 -0.4181  0.9121
  329MOL0     H44354   7.765   7.128  -0.097  0.2525 -0.5765  2.8144
  329MOL0     H44355   7.608   7.083  -0.028 -1.1721  2.2643 -1.0103
  329MOL0     H44356   7.630   7.200  -0.304 -1.6300  0.2192 -0.9144
  329MOL0     H44357   7.484   7.197  -0.195  0.2924  0.9368 -1.1967
  329MOL0     H44358   7.584   7.389  -0.064 -0.9440  1.2491  0.2828
  329MOL0     H44359   7.734   7.371  -0.144  0.6025  1.3566 -1.8905
  329MOL0     H44360   7.604   7.425  -0.365 -0.3192 -1.8404  1.0524
  329MOL0     H44361   7.455   7.451  -0.274 -0.1135  2.0236  2.1526
  329MOL0     H44362   7.596   7.615  -0.150 -2.1260 -2.8824 -0.3376
  329MOL0     H44363   7.546   7.668  -0.313 -1.9324 -0.1379  1.5931
  329MOL0     H44364   7.809   7.582  -0.201 -2.4026 -1.0624  1.4344
  329MOL0     H44365   7.786   7.580  -0.381  3.3113  0.4081  1.2011
  329MOL0     H44366   7.806   7.837  -0.093  2.9246 -2.3666  0.0933
  329MOL0     H44367   7.993   8.093  -0.138  0.5144 -0.2655 -1.5818
  329MOL0     H44368   7.925   8.175  -0.271 -0.2889  0.0063 -0.1423
  329MOL0     H44369   7.687   8.132  -0.160 -0.3535  0.4932 -1.2842
  329MOL0     H44370   7.785   8.076  -0.022  1.1743  3.3150  2.0838
  329MOL0     H44371   7.886   8.295   0.007  0.5001 -0.9090 -0.1130
  329MOL0     H44372   7.709   8.311   0.029 -1.0920 -1.5680 -0.6150
  329MOL0     H44373   7.724   8.483  -0.110  1.6529 -0.1827  2.9974
  329MOL0     H44374   7.697   8.357  -0.226 -2.5831  1.8396  1.7871
  329MOL0     H44375   8.138   8.482  -0.296  0.0259  1.3755 -0.3937
  329MOL0     H44376   8.307   8.598  -0.171 -0.4799 -1.8785 -0.7766
  329MOL0     H44377   8.577   8.596   0.179  3.5778 -1.2280  0.8210
  329MOL0     H44378   8.750   8.695   0.318  1.0999  2.3580  2.5607
  329MOL0     H44379   8.820   8.816   0.472  3.0794 -1.2289  3.1132
  329MOL0     H44380   8.957   8.787   0.361  0.2602 -0.0414 -0.0920
  329MOL0     H44381   8.940   9.047   0.534 -1.2299 -1.2214  1.3911
  329MOL0     H44382   9.035   8.912   0.578  0.1321  0.3356  0.5171
  329MOL0     H44383   9.164   8.943   0.363 -2.1755 -0.3155 -1.8889
  329MOL0     H44384   9.055   9.081   0.314 -3.2938  1.3799  2.2481
  329MOL0     H44385   9.210   9.096   0.576 -0.9415  2.6353  1.3734
  329MOL0     H44386   9.133   9.221   0.504  0.5671  0.6944 -0.8590
  329MOL0     H44387   9.253   9.220   0.288 -2.8414  0.5168  2.8008
  329MOL0     H44388   9.352   9.079   0.349 -1.8462 -1.2991 -2.6780
  329MOL0     H44389   9.444   9.307   0.343 -0.9010  0.1518 -1.1633
  329MOL0     H44390   9.323   9.359   0.463  0.5514 -0.6271  0.3550
  329MOL0     H44391   9.458   9.133   0.552 -0.3958  0.3041  2.4049
  329MOL0     H44392   9.421   9.270   0.640  0.1584 -0.1743  0.4554
  329MOL0     H44393   9.626   9.397   0.525  0.5495 -0.8858 -2.2279
  329MOL0     H44394   9.666   9.266   0.638  2.8571 -0.9307 -1.2616
  329MOL0     H44395   8.706   9.071   0.142  0.8353 -0.5741  1.9641
  329MOL0     H44396   8.493   8.990   0.005  2.4899  0.6877 -0.3176
  329MOL0     H44397   8.020   8.650   0.156 -0.5077 -0.9533 -0.5755
  329MOL0     H44398   7.864   8.566   0.037  0.4732 -0.1112  0.2160
  329MOL0     H44399   7.399   6.851   0.151 -0.8142  0.8385  0.5864
  329MOL0     H44400   7.337   6.658   0.288 -3.9663 -1.2619  0.2626
  329MOL0     H44401   7.264   6.355   0.442  3.2111 -1.0695 -3.2963
  329MOL0     H44402   7.201   6.210   0.641 -0.1293 -1.1650 -0.5121
  329MOL0     H44403   7.380   6.010   0.758 -0.8422 -0.4564  1.8494
  329MOL0     H44404   7.374   5.848   0.694  2.0154  0.5892  0.2447
  329MOL0     H44405   7.174   5.793   0.810 -0.4306 -0.1471 -0.6193
  329MOL0     H44406   7.147   5.955   0.884  2.3242  0.2014  1.6445
  329MOL0     H44407   7.224   5.827   1.051 -1.2182 -2.7683 -0.5052
  329MOL0     H44408   7.360   5.930   0.999 -0.1918 -1.4928  0.2730
  329MOL0     H44409   7.432   5.719   0.857 -2.0929 -0.9721 -1.7824
  329MOL0     H44410   7.471   5.720   1.036 -1.4397  0.1169  0.5407
  329MOL0     H44411   7.187   5.406   1.026  2.1677 -1.0650  1.3414
  329MOL0     H44412   7.297   5.867   0.424  0.5567 -0.7636 -1.3923
  329MOL0     H44413   7.316   5.968   0.113 -1.2424  2.0932  0.9017
  329MOL0     H44414   7.486   5.987   0.170  0.7092 -0.7150  2.5438
  329MOL0     H44415   7.392   5.851   0.214 -0.3761  0.2423 -0.6491
  330MOL0     O44416   5.057   1.609   3.773  0.1720 -0.8543 -0.0336
  330MOL0     C44417   4.956   1.556   3.724 -0.2432  0.2178 -0.8658
  330MOL0     O44418   4.858   1.627   3.671 -0.3173  0.3982  0.4501
  330MOL0     C44419   4.724   1.605   3.697  0.2078 -0.7941  0.1138
  330MOL0     C44420   4.663   1.580   3.822 -0.3835  0.2178 -0.2481
  330MOL0     C44421   4.529   1.578   3.826 -0.4468 -0.1664 -1.0552
  330MOL0     C44422   4.443   1.578   3.719 -0.0869  0.1478 -0.0787
  330MOL0     O44423   4.307   1.574   3.727  0.4198  0.1324 -0.5486
  330MOL0     C44424   4.252   1.671   3.817  1.2221  0.4040 -0.1200
  330MOL0     C44425   4.104   1.682   3.782 -0.6221  0.3142  0.3194
  330MOL0     C44426   4.077   1.777   3.664 -0.7239 -0.7916 -0.5749
  330MOL0     C44427   4.086   1.922   3.721 -0.1748  0.4761 -0.3173
  330MOL0     C44428   4.053   2.022   3.610  0.2053  0.0560 -0.5950
  330MOL0     C44429   3.996   2.150   3.655 -0.5434  0.5039  0.1298
  330MOL0     C44430   4.019   2.269   3.571 -0.2331 -0.5157  0.4932
  330MOL0     C44431   3.917   2.383   3.581 -0.5568 -0.1554  0.1654
  330MOL0     N44432   3.940   2.467   3.458 -0.4230 -0.5179  0.6724
  330MOL0     C44433   3.889   2.433   3.332  0.1628  0.6898 -0.6929
  330MOL0     C44434   3.950   2.524   3.252  0.2303  0.6300  0.0493
  330MOL0     C44435   3.924   2.530   3.098  0.4477  0.6429  0.7337
  330MOL0     C44436   3.780   2.551   3.055  0.0826  0.1473  0.3357
  330MOL0     C44437   3.729   2.692   3.089 -0.5661  0.6825  0.0235
  330MOL0     C44438   3.591   2.706   3.030 -0.5019  0.6145 -0.8945
  330MOL0     O44439   3.496   2.607   3.079 -0.9931 -0.2842  0.4727
  330MOL0     C44440   3.363   2.595   3.030 -0.1387  1.6014 -0.9321
  330MOL0     C44441   3.326   2.672   2.925 -0.2627 -0.0530  0.4287
  330MOL0     C44442   3.204   2.656   2.868  0.0729 -0.5299 -0.5447
  330MOL0     C44443   3.110   2.559   2.901  0.0752  0.3394 -0.8438
  330MOL0     C44444   2.982   2.539   2.815  0.5200  1.5474 -0.7112
  330MOL0     O44445   2.899   2.433   2.863 -0.5236 -0.1454  0.3259
  330MOL0     C44446   2.797   2.374   2.786  0.4641  0.2205 -0.3855
  330MOL0     C44447   2.784   2.384   2.644  0.2018  0.9531 -0.2331
  330MOL0     C44448   2.683   2.315   2.580  1.1749  0.0540  0.6108
  330MOL0     C44449   2.612   2.222   2.647  0.3882  0.2888 -0.1111
  330MOL0     O44450   2.512   2.151   2.581  0.4723  0.0776  0.2219
  330MOL0     C44451   2.518   2.128   2.443 -1.0809 -0.7041 -0.0571
  330MOL0     C44452   2.413   2.021   2.394 -0.8701 -0.3283  0.3984
  330MOL0     C44453   2.457   1.888   2.463 -0.1414 -0.4155  0.2589
  330MOL0     C44454   2.391   1.766   2.394  0.5333 -0.1467  0.2208
  330MOL0     C44455   2.360   1.646   2.494 -0.6817 -0.7109 -0.3187
  330MOL0     C44456   2.240   1.662   2.587  0.3612 -0.3078 -1.2722
  330MOL0     C44457   2.199   1.538   2.660  0.2604  0.8002  0.4616
  330MOL0     C44458   2.072   1.562   2.744 -0.8099  0.4344  0.0028
  330MOL0    Cl44459   2.102   1.663   2.882 -0.3395  0.0372  0.0306
  330MOL0     C44460   2.634   2.201   2.786 -0.2408  0.4357 -0.4141
  330MOL0     C44461   2.723   2.284   2.857 -0.1246  0.4048 -0.4196
  330MOL0     O44462   2.956   2.616   2.725  0.1023  0.2540  0.1875
  330MOL0     C44463   3.142   2.479   3.015 -0.3028 -0.6101 -0.1322
  330MOL0     C44464   3.268   2.494   3.078 -0.4469  0.0009  0.7309
  330MOL0     N44465   4.032   2.606   3.332 -0.3383  0.9101  0.5132
  330MOL0     N44466   4.039   2.567   3.448  0.4308  0.1831 -0.0312
  330MOL0     C44467   4.496   1.606   3.596 -0.3000  0.1236  0.3102
  330MOL0     C44468   4.640   1.621   3.588 -0.0687  0.4015  1.7173
  330MOL0     C44469   4.952   1.400   3.740 -0.2887  0.2687 -0.1881
  330MOL0     C44470   5.000   1.352   3.867 -0.7892 -0.2180  0.5784
  330MOL0     C44471   5.020   1.214   3.891  1.1376 -0.4929  0.2383
  330MOL0     C44472   4.970   1.123   3.795 -0.2118 -0.5953 -0.1106
  330MOL0     O44473   4.972   0.985   3.802  0.0450 -0.8611  0.5998
  330MOL0     C44474   5.026   0.919   3.918 -0.6641  0.3877 -0.2160
  330MOL0     C44475   5.114   0.807   3.877 -0.1762  0.6520 -0.5549
  330MOL0     C44476   5.032   0.698   3.811 -0.5511 -0.5426  0.7003
  330MOL0     C44477   5.105   0.572   3.808 -0.4846  0.3096  0.0118
  330MOL0     C44478   5.020   0.466   3.769 -0.5578 -0.1074  1.1961
  330MOL0     C44479   4.970   0.363   3.742 -0.2758  0.3484  0.1876
  330MOL0     C44480   4.914   1.177   3.678 -0.3767 -0.1487 -1.1542
  330MOL0     C44481   4.896   1.309   3.647  0.5184 -0.1834 -0.4577
  330MOL0     C44482   4.856   1.347   3.504 -0.6771  0.6885 -0.2287
  330MOL0     H44483   4.733   1.578   3.905  0.1219 -0.8769 -0.6791
  330MOL0     H44484   4.487   1.574   3.926  1.4642 -2.0175 -0.2420
  330MOL0     H44485   4.265   1.635   3.919 -0.5614 -0.8728 -0.3026
  330MOL0     H44486   4.292   1.773   3.811  0.4656  0.6957 -0.2845
  330MOL0     H44487   4.035   1.708   3.863 -3.4724 -3.1840 -0.7391
  330MOL0     H44488   4.065   1.588   3.742 -1.8683  0.8654  0.1782
  330MOL0     H44489   3.972   1.774   3.631 -0.5225  2.0182 -1.8057
  330MOL0     H44490   4.136   1.760   3.573  0.6028  0.4916  0.0022
  330MOL0     H44491   4.015   1.938   3.802 -1.5918  2.1910 -1.8347
  330MOL0     H44492   4.182   1.936   3.772 -1.4259 -1.9143  3.0364
  330MOL0     H44493   4.151   2.053   3.574  1.3259  0.3285  2.4175
  330MOL0     H44494   3.988   1.984   3.530  0.4789 -0.9924 -0.3395
  330MOL0     H44495   3.887   2.145   3.663 -0.5262 -1.2900 -0.2933
  330MOL0     H44496   4.028   2.170   3.757  2.0789  2.8735 -1.0411
  330MOL0     H44497   4.015   2.242   3.465  0.8730  0.9558  0.0359
  330MOL0     H44498   4.120   2.308   3.586 -0.0951 -0.9624  0.7342
  330MOL0     H44499   3.825   2.325   3.573  0.0714 -1.1988  0.2601
  330MOL0     H44500   3.925   2.441   3.673  0.0011  1.8335 -1.0596
  330MOL0     H44501   3.825   2.351   3.300  0.6384  0.4795 -1.1174
  330MOL0     H44502   3.998   2.605   3.070  3.4459 -1.0998  3.4139
  330MOL0     H44503   3.951   2.428   3.068  3.7792  1.0476  1.9442
  330MOL0     H44504   3.784   2.531   2.948  1.4323  1.2464  0.1461
  330MOL0     H44505   3.715   2.474   3.098  0.7578 -0.0823  0.9811
  330MOL0     H44506   3.797   2.772   3.056  0.5890  1.4536  3.7864
  330MOL0     H44507   3.714   2.716   3.195 -2.4551 -0.9643  0.1792
  330MOL0     H44508   3.589   2.707   2.920 -1.0199 -1.3055 -0.9411
  330MOL0     H44509   3.559   2.807   3.055  3.1297  1.6629  0.0305
  330MOL0     H44510   3.400   2.743   2.889  2.3420 -2.9450 -0.3362
  330MOL0     H44511   3.192   2.722   2.782 -2.1786 -0.8268 -0.5207
  330MOL0     H44512   2.847   2.452   2.588  1.3319 -1.0553 -1.5273
  330MOL0     H44513   2.667   2.334   2.474  1.6115  0.5607  0.6298
  330MOL0     H44514   2.491   2.217   2.386  2.7009  0.3994 -0.4221
  330MOL0     H44515   2.616   2.085   2.420 -0.3651 -0.0262  1.5281
  330MOL0     H44516   2.316   2.048   2.438  0.1440  0.6889  2.1630
  330MOL0     H44517   2.406   2.021   2.285 -2.5074 -0.9480  0.4661
  330MOL0     H44518   2.566   1.884   2.449 -0.4266 -2.2854 -1.9269
  330MOL0     H44519   2.432   1.890   2.570  3.4220  1.1818  1.2351
  330MOL0     H44520   2.465   1.731   2.321 -1.1690 -0.3430 -1.4958
  330MOL0     H44521   2.299   1.795   2.342  1.6038  2.2363 -0.4631
  330MOL0     H44522   2.454   1.635   2.550 -0.6803 -0.4500 -0.2655
  330MOL0     H44523   2.342   1.557   2.434  1.0889 -0.0611 -1.9517
  330MOL0     H44524   2.260   1.741   2.660  0.7786 -0.1414 -1.5604
  330MOL0     H44525   2.154   1.704   2.533  0.4150  3.5194  1.1733
  330MOL0     H44526   2.284   1.504   2.721  1.6365  0.3684 -1.6089
  330MOL0     H44527   2.170   1.462   2.586 -0.6732  2.2774 -0.7419
  330MOL0     H44528   1.995   1.605   2.679  1.2108  0.4328 -2.5856
  330MOL0     H44529   2.043   1.465   2.785  1.1461 -0.2565 -0.1382
  330MOL0     H44530   2.584   2.115   2.828  1.8471  0.2689  1.9764
  330MOL0     H44531   2.740   2.273   2.964  1.7407 -0.6922 -0.7934
  330MOL0     H44532   3.078   2.400   3.052 -0.5810  0.9911  3.1692
  330MOL0     H44533   3.279   2.429   3.164  1.8176 -0.1953  0.3696
  330MOL0     H44534   4.434   1.610   3.507  0.0020 -2.4264 -0.0876
  330MOL0     H44535   4.687   1.632   3.491  0.5296  1.3491  2.1016
  330MOL0     H44536   5.016   1.427   3.943 -0.0026 -0.0722  0.2803
  330MOL0     H44537   5.064   1.173   3.982  1.4713  0.4554  0.5080
  330MOL0     H44538   4.947   0.882   3.985  0.7450 -1.5173  0.5013
  330MOL0     H44539   5.082   0.976   3.993  1.5420 -1.5352 -0.2943
  330MOL0     H44540   5.161   0.758   3.963  2.5571 -2.2079 -3.3917
  330MOL0     H44541   5.186   0.848   3.805 -0.4460 -0.2218 -1.3395
  330MOL0     H44542   5.004   0.733   3.711 -0.2671 -0.2608  0.7174
  330MOL0     H44543   4.936   0.693   3.863 -0.0552  0.5968  1.7494
  330MOL0     H44544   5.183   0.570   3.731 -1.6157  0.9125 -1.1724
  330MOL0     H44545   5.158   0.558   3.903  0.2008 -1.0103 -0.5443
  330MOL0     H44546   4.955   0.262   3.711 -1.6074  1.0679 -1.6969
  330MOL0     H44547   4.889   1.099   3.607 -0.9240 -0.6822 -0.4041
  330MOL0     H44548   4.828   1.265   3.438  0.1913 -0.8724  1.2788
  330MOL0     H44549   4.764   1.400   3.531  0.5027  2.1744  1.1198
  330MOL0     H44550   4.934   1.413   3.464 -0.4611  0.5268 -0.0722
  331MOL0     O44551   2.277   6.227  11.234 -0.3243 -0.3913 -0.1273
  331MOL0     C44552   2.158   6.232  11.261 -0.5615  0.4513 -0.5588
  331MOL0     O44553   2.102   6.222  11.377  0.8044  0.4205  0.3276
  331MOL0     C44554   2.175   6.214  11.493  1.0486 -0.7704  0.6333
  331MOL0     C44555   2.248   6.324  11.532  0.4981  0.0485 -0.0183
  331MOL0     C44556   2.332   6.316  11.645 -0.0387 -0.2735 -0.7894
  331MOL0     C44557   2.333   6.198  11.727  0.2981  0.4244  0.1718
  331MOL0     O44558   2.402   6.182  11.841  0.3076 -0.3142  0.0984
  331MOL0     C44559   2.477   6.286  11.897 -0.1489 -1.1607  0.3247
  331MOL0     C44560   2.507   6.269  12.042  0.7166  0.2196 -0.0815
  331MOL0     C44561   2.648   6.318  12.089  0.1518  0.2842 -0.4466
  331MOL0     C44562   2.669   6.297  12.242  0.2523  0.5480  1.3703
  331MOL0     C44563   2.792   6.375  12.302 -0.8950  0.5801  0.1665
  331MOL0     C44564   2.804   6.330  12.452 -0.2802  0.2703 -0.1594
  331MOL0     C44565   2.899   6.423  12.503 -0.0936  0.4389  0.5151
  331MOL0     C44566   2.902   6.406  12.652 -1.3183  0.3008  0.7643
  331MOL0     N44567   2.972   6.282  12.691 -0.1200 -0.2084 -0.0839
  331MOL0     C44568   2.915   6.185  12.769 -0.9179 -0.1718 -0.3723
  331MOL0     C44569   3.020   6.107  12.811  0.2391 -0.0679 -0.3550
  331MOL0     C44570   3.019   5.974  12.893 -0.6631 -0.6962  0.9268
  331MOL0     C44571   3.099   5.990  13.015 -0.8182  0.7041 -0.5216
  331MOL0     C44572   3.099   5.874  13.116 -0.0701  0.1407  0.0947
  331MOL0     C44573   3.176   5.752  13.058  1.4413 -1.1998  0.6109
  331MOL0     O44574   3.206   5.653  13.153 -0.4558 -0.1367  0.2915
  331MOL0     C44575   3.273   5.536  13.096  0.1569 -0.5753 -0.2618
  331MOL0     C44576   3.286   5.424  13.183 -0.2717 -0.2006  0.1700
  331MOL0     C44577   3.355   5.311  13.145  0.7151 -0.4517 -0.1109
  331MOL0     C44578   3.419   5.307  13.020 -0.3965  0.2774 -0.8818
  331MOL0     C44579   3.491   5.173  12.982 -0.0236 -0.3710  0.2593
  331MOL0     O44580   3.603   5.180  12.916 -0.4167 -0.0956 -0.1752
  331MOL0     C44581   3.667   5.063  12.875  0.9235 -0.2450 -0.0463
  331MOL0     C44582   3.597   4.975  12.798 -0.8390  0.5260  0.3074
  331MOL0     C44583   3.662   4.854  12.742  0.8043  0.1159 -0.6416
  331MOL0     C44584   3.786   4.828  12.791  0.0235  0.0745  0.1015
  331MOL0     O44585   3.861   4.715  12.758  0.8900  0.5984  0.0216
  331MOL0     C44586   3.797   4.587  12.719 -0.5204 -0.4834 -0.4276
  331MOL0     C44587   3.910   4.489  12.676  0.8804  0.2352  1.0205
  331MOL0     C44588   3.875   4.370  12.587 -0.5869  0.1743  0.4877
  331MOL0     C44589   3.811   4.406  12.451  0.1921  1.3041 -0.9522
  331MOL0     C44590   3.784   4.287  12.351 -0.1247 -0.8008  0.1926
  331MOL0     C44591   3.736   4.162  12.421  0.1104  0.9526  0.9721
  331MOL0     C44592   3.595   4.167  12.470 -0.0755 -0.4163 -0.0173
  331MOL0     C44593   3.484   4.162  12.362 -0.0912  0.2192 -0.2476
  331MOL0    Cl44594   3.418   4.324  12.322 -0.0575 -0.4195  0.2079
  331MOL0     C44595   3.857   4.909  12.872  0.4363  0.4000  0.0747
  331MOL0     C44596   3.797   5.032  12.916  0.0124  0.0561  0.1912
  331MOL0     O44597   3.422   5.070  13.012 -0.9027 -0.2089  0.3215
  331MOL0     C44598   3.411   5.411  12.932 -0.5177 -0.5238 -0.2908
  331MOL0     C44599   3.343   5.528  12.973 -0.0114  0.0165  0.8552
  331MOL0     N44600   3.129   6.164  12.753 -0.4021  0.7461  0.2721
  331MOL0     N44601   3.107   6.254  12.675 -0.3122  0.5088  0.3300
  331MOL0     C44602   2.255   6.088  11.676 -0.8087 -0.4256  0.1964
  331MOL0     C44603   2.186   6.096  11.557  0.9891 -0.3780 -0.3176
  331MOL0     C44604   2.064   6.243  11.150  0.1244 -0.1779 -0.1725
  331MOL0     C44605   2.092   6.331  11.043 -0.1360 -1.0429 -0.1117
  331MOL0     C44606   2.010   6.349  10.930 -0.0515 -0.5596  0.3749
  331MOL0     C44607   1.895   6.278  10.922  0.3329 -0.8427  0.4295
  331MOL0     O44608   1.808   6.308  10.820  0.1380 -0.2606  0.4302
  331MOL0     C44609   1.668   6.263  10.806  0.4930 -0.3360  0.1850
  331MOL0     C44610   1.579   6.352  10.888  0.1449 -0.3227  0.1561
  331MOL0     C44611   1.559   6.482  10.822  0.0564  0.5495 -0.2816
  331MOL0     C44612   1.484   6.579  10.909 -0.3688 -0.7949 -0.5678
  331MOL0     C44613   1.497   6.709  10.845  0.5368  0.3173  0.1580
  331MOL0     C44614   1.489   6.808  10.781 -0.4945 -0.4497 -0.0317
  331MOL0     C44615   1.861   6.188  11.021 -0.1849 -0.1098  0.0533
  331MOL0     C44616   1.950   6.162  11.124 -0.3109  0.6115 -0.6163
  331MOL0     C44617   1.910   6.062  11.222  0.2214 -0.3236 -0.1750
  331MOL0     H44618   2.243   6.416  11.476 -0.3107 -0.9626 -1.6712
  331MOL0     H44619   2.385   6.405  11.676  0.6121 -1.2221  1.0059
  331MOL0     H44620   2.569   6.278  11.839 -0.9003  0.4029 -1.1704
  331MOL0     H44621   2.429   6.384  11.883 -0.3810 -1.2736  0.3204
  331MOL0     H44622   2.510   6.163  12.067  0.7854  0.3647  0.5487
  331MOL0     H44623   2.428   6.310  12.106 -0.5898 -0.5182 -1.1915
  331MOL0     H44624   2.666   6.423  12.064 -0.8422  0.4686 -0.4119
  331MOL0     H44625   2.728   6.265  12.036 -0.6534 -1.2127 -0.2025
  331MOL0     H44626   2.583   6.348  12.287  0.7221  0.5529  2.2737
  331MOL0     H44627   2.665   6.192  12.272  0.2600 -0.1224 -0.8265
  331MOL0     H44628   2.876   6.344  12.239 -1.5058  1.1105 -0.9374
  331MOL0     H44629   2.779   6.483  12.288  1.9894  0.8142 -1.4793
  331MOL0     H44630   2.705   6.348  12.495 -1.3345 -2.2444 -1.3126
  331MOL0     H44631   2.854   6.234  12.471  3.4915  2.3949  1.6976
  331MOL0     H44632   2.874   6.522  12.464 -1.9813 -0.9117 -2.0031
  331MOL0     H44633   2.996   6.408  12.456 -1.2751 -2.3404 -1.3525
  331MOL0     H44634   2.952   6.497  12.686 -0.7099  0.3546 -0.2293
  331MOL0     H44635   2.800   6.394  12.691 -0.8011  1.4561  2.5960
  331MOL0     H44636   2.809   6.178  12.791 -1.6549 -0.2283 -3.4057
  331MOL0     H44637   2.918   5.943  12.921 -0.8452  0.4407  1.6049
  331MOL0     H44638   3.054   5.889  12.834 -0.5207 -0.4752  0.6915
  331MOL0     H44639   3.201   6.006  12.979 -0.5262 -0.4406 -0.2578
  331MOL0     H44640   3.075   6.088  13.058 -2.4916  0.0335  0.1417
  331MOL0     H44641   3.004   5.833  13.153  0.1463 -0.3695  0.0874
  331MOL0     H44642   3.158   5.907  13.202  1.3290  0.1635 -0.8532
  331MOL0     H44643   3.270   5.793  13.020  1.1469 -2.9767 -2.2414
  331MOL0     H44644   3.124   5.709  12.973  1.7419 -2.2901  0.9621
  331MOL0     H44645   3.230   5.435  13.276  0.3275 -2.1878  0.8236
  331MOL0     H44646   3.362   5.228  13.215  0.7025 -2.7902 -2.7431
  331MOL0     H44647   3.491   4.986  12.782 -0.5977  1.5157 -0.7628
  331MOL0     H44648   3.608   4.779  12.685 -2.6926  0.9460  1.3295
  331MOL0     H44649   3.733   4.549  12.799  0.3011 -2.1196 -0.4935
  331MOL0     H44650   3.738   4.595  12.627 -1.1506 -0.0536  0.0077
  331MOL0     H44651   3.978   4.550  12.616 -2.2490  4.4408  1.2545
  331MOL0     H44652   3.961   4.459  12.767  4.1130  0.0219 -0.7100
  331MOL0     H44653   3.971   4.326  12.558 -1.2975 -2.6369  2.0082
  331MOL0     H44654   3.821   4.291  12.641 -1.2001  0.1744 -0.1126
  331MOL0     H44655   3.874   4.479  12.400  0.2563  1.5575 -0.5186
  331MOL0     H44656   3.716   4.459  12.461 -0.1771  0.3854  1.1398
  331MOL0     H44657   3.878   4.260  12.303 -0.7314 -2.4747 -0.1275
  331MOL0     H44658   3.712   4.326  12.279  0.5787  0.8888  0.3492
  331MOL0     H44659   3.743   4.072  12.359  1.1559  1.9426 -0.4033
  331MOL0     H44660   3.798   4.135  12.507 -1.9061 -0.5552  2.0257
  331MOL0     H44661   3.587   4.257  12.533  3.4597 -0.4799  0.6916
  331MOL0     H44662   3.574   4.076  12.528 -0.2083 -0.7123 -0.5264
  331MOL0     H44663   3.533   4.122  12.273  1.7629 -2.4281  1.7981
  331MOL0     H44664   3.405   4.093  12.395  2.2042 -3.4809 -1.8156
  331MOL0     H44665   3.955   4.879  12.909  0.7530  0.4986 -0.6741
  331MOL0     H44666   3.847   5.103  12.981 -1.8636 -0.1665  1.9943
  331MOL0     H44667   3.454   5.408  12.833 -1.5633 -2.1391 -0.7392
  331MOL0     H44668   3.350   5.616  12.909  1.1829 -0.1677  0.7123
  331MOL0     H44669   2.249   6.000  11.739 -0.6846 -0.2016  0.5229
  331MOL0     H44670   2.154   6.003  11.512  1.8119 -0.7754 -0.1113
  331MOL0     H44671   2.182   6.391  11.054 -1.1372  0.2410  1.6978
  331MOL0     H44672   2.033   6.417  10.849 -3.5819  0.5177  0.0917
  331MOL0     H44673   1.655   6.159  10.835 -3.2451 -0.0459  0.0363
  331MOL0     H44674   1.632   6.266  10.702 -1.9255  0.2936  0.9722
  331MOL0     H44675   1.618   6.350  10.990  0.7952 -4.0764 -0.0332
  331MOL0     H44676   1.477   6.312  10.890 -0.5077  1.0788 -1.7515
  331MOL0     H44677   1.505   6.457  10.730 -0.2707  1.0789 -0.2346
  331MOL0     H44678   1.660   6.525  10.811  0.7161 -0.4368  1.5744
  331MOL0     H44679   1.380   6.546  10.918 -0.8218  0.0227 -2.3510
  331MOL0     H44680   1.537   6.583  11.005  0.6906  1.9666 -1.1636
  331MOL0     H44681   1.505   6.893  10.718 -1.1065  1.0019  1.6626
  331MOL0     H44682   1.771   6.128  11.028 -1.7917  2.2939  1.3306
  331MOL0     H44683   1.892   5.964  11.176  3.0660 -0.5996 -0.8941
  331MOL0     H44684   1.994   6.039  11.287 -0.7002 -1.3634  0.6753
  331MOL0     H44685   1.819   6.102  11.269 -0.7214  0.9184 -2.8121
  332MOL0     O44686   9.438   4.169   0.416 -0.0619 -0.8828  0.2811
  332MOL0     C44687   9.366   4.170   0.509  2.3178  0.1361 -0.1869
  332MOL0     O44688   9.381   4.239   0.621 -0.0370  0.5738 -0.0926
  332MOL0     C44689   9.507   4.290   0.650  0.0891 -0.3828 -0.0056
  332MOL0     C44690   9.580   4.248   0.757  0.0516  0.6422 -0.1477
  332MOL0     C44691   9.709   4.299   0.774  0.1285  0.8849 -0.4190
  332MOL0     C44692   9.763   4.390   0.687 -0.1941  0.1222  0.0707
  332MOL0     O44693   9.887   4.430   0.719 -0.1164 -0.4604  0.3399
  332MOL0     C44694   9.895   4.558   0.791  0.2028 -0.1357 -0.4611
  332MOL0     C44695   9.870   4.524   0.938 -0.1667  0.2324 -0.9172
  332MOL0     C44696   9.854   4.658   1.013 -0.2371  0.2431 -0.5610
  332MOL0     C44697   9.853   4.651   1.169 -0.5798 -0.3102  0.5229
  332MOL0     C44698   9.851   4.789   1.233 -0.3870 -1.1117 -0.1995
  332MOL0     C44699   9.741   4.892   1.190  0.3808  0.2421  0.5859
  332MOL0     C44700   9.731   5.007   1.283  0.5054 -0.9982 -1.3231
  332MOL0     C44701   9.660   4.996   1.420 -0.2617  0.1135  0.4948
  332MOL0     N44702   9.623   5.130   1.459  0.0650  0.4322  0.6403
  332MOL0     C44703   9.712   5.213   1.517  0.2192 -0.5833 -0.3299
  332MOL0     C44704   9.635   5.328   1.557 -0.6654  0.3475 -0.6475
  332MOL0     C44705   9.698   5.458   1.621  0.0944  0.0828  0.4294
  332MOL0     C44706   9.788   5.531   1.521  0.2679 -0.6049  0.1050
  332MOL0     C44707   9.816   5.661   1.593 -0.1546  0.5579 -0.1969
  332MOL0     C44708   9.933   5.725   1.519 -0.2616 -0.1146 -0.6983
  332MOL0     O44709   9.899   5.763   1.394 -0.2949 -0.3064  0.0460
  332MOL0     C44710   9.817   5.871   1.384 -0.2287  0.6231 -0.0177
  332MOL0     C44711   9.781   5.962   1.491  1.0166 -0.5091  0.0737
  332MOL0     C44712   9.688   6.057   1.459  0.4926 -0.2185 -0.0048
  332MOL0     C44713   9.626   6.073   1.330  0.2089  0.5056 -0.6364
  332MOL0     C44714   9.521   6.170   1.297 -0.1152  0.1078 -0.1725
  332MOL0     O44715   9.483   6.179   1.164  0.2066  0.1631 -0.1223
  332MOL0     C44716   9.420   6.288   1.112  0.9502  0.2234  0.3605
  332MOL0     C44717   9.438   6.418   1.158  0.1421 -0.8587  0.1455
  332MOL0     C44718   9.391   6.532   1.086  0.1709 -0.5355  0.4103
  332MOL0     C44719   9.320   6.523   0.971  0.1974 -0.1356 -0.1465
  332MOL0     O44720   9.264   6.628   0.897 -0.1719 -0.4426  0.1214
  332MOL0     C44721   9.349   6.732   0.868 -0.1181 -0.6343  0.0262
  332MOL0     C44722   9.325   6.865   0.936  0.1254 -0.0673  0.5548
  332MOL0     C44723   9.216   6.954   0.875  0.0086  0.8251  1.4250
  332MOL0     C44724   9.283   7.016   0.746  0.1867 -0.1413 -0.6092
  332MOL0     C44725   9.179   7.102   0.656  0.0501  0.0478 -1.3015
  332MOL0     C44726   9.061   7.026   0.605  0.5169  0.4392  0.3765
  332MOL0     C44727   8.970   7.128   0.531 -0.8544 -0.7160  0.3181
  332MOL0     C44728   8.873   7.057   0.437  0.1598  0.0929 -0.1745
  332MOL0    Cl44729   8.789   7.172   0.320  0.7272  0.0104 -0.1463
  332MOL0     C44730   9.311   6.393   0.919 -0.8266 -0.4330  0.4339
  332MOL0     C44731   9.350   6.278   0.992 -0.0032 -0.0147 -0.3573
  332MOL0     O44732   9.486   6.239   1.392 -0.6069 -0.2476 -0.7025
  332MOL0     C44733   9.668   5.987   1.228 -0.9499  0.4827  0.5796
  332MOL0     C44734   9.764   5.892   1.259  0.8010  0.5253 -0.0639
  332MOL0     N44735   9.506   5.303   1.513  0.1731  0.1311 -0.4301
  332MOL0     N44736   9.500   5.186   1.468 -0.1621 -0.2588 -0.3809
  332MOL0     C44737   9.689   4.446   0.586 -0.3079 -0.3445  0.2300
  332MOL0     C44738   9.565   4.388   0.565  0.0893 -0.5324  1.0516
  332MOL0     C44739   9.244   4.082   0.502 -0.3206  0.0976 -0.2776
  332MOL0     C44740   9.191   4.026   0.621 -0.3518  0.6028  0.2548
  332MOL0     C44741   9.070   3.952   0.632 -0.1169  0.3951 -0.0575
  332MOL0     C44742   9.002   3.919   0.511 -0.5674  0.5850  0.3043
  332MOL0     O44743   8.888   3.835   0.513 -0.3608  0.0935  0.7294
  332MOL0     C44744   8.795   3.837   0.402 -0.6042  0.4930 -0.5087
  332MOL0     C44745   8.657   3.828   0.456  0.5903  0.2414 -0.4014
  332MOL0     C44746   8.558   3.819   0.348  0.6268 -0.3482 -0.0586
  332MOL0     C44747   8.420   3.871   0.399 -0.1339 -0.0715 -0.7185
  332MOL0     C44748   8.356   3.762   0.488 -0.8728  0.2786 -0.9062
  332MOL0     C44749   8.314   3.676   0.559 -0.3087 -0.4862 -0.1380
  332MOL0     C44750   9.060   3.970   0.393 -0.5558  0.5641 -0.0863
  332MOL0     C44751   9.178   4.048   0.380 -0.0307  0.2775  0.0070
  332MOL0     C44752   9.218   4.100   0.243  0.8914  0.3549 -0.5051
  332MOL0     H44753   9.539   4.175   0.826  3.6691 -0.8752  0.6279
  332MOL0     H44754   9.768   4.253   0.852 -1.9077  1.7981  1.8057
  332MOL0     H44755   9.994   4.605   0.787  0.2648  0.0612  1.8979
  332MOL0     H44756   9.823   4.629   0.750  0.8132  0.2392 -0.8918
  332MOL0     H44757   9.953   4.465   0.977 -0.7752 -0.1525 -0.2044
  332MOL0     H44758   9.782   4.462   0.954 -1.1216  0.6904 -3.7490
  332MOL0     H44759   9.756   4.696   0.984  0.3373  2.7885  0.5514
  332MOL0     H44760   9.937   4.728   0.994  1.8292 -2.2189 -1.2045
  332MOL0     H44761   9.771   4.586   1.200 -1.0425 -0.4401 -0.9167
  332MOL0     H44762   9.948   4.602   1.194 -0.0300 -0.0925 -1.0417
  332MOL0     H44763   9.827   4.772   1.339 -0.4631  0.4563  0.0608
  332MOL0     H44764   9.951   4.831   1.216  0.6600 -3.8688 -1.3987
  332MOL0     H44765   9.768   4.927   1.089  1.9542  0.3500  1.0122
  332MOL0     H44766   9.642   4.848   1.183  0.6656 -0.4665  0.9249
  332MOL0     H44767   9.688   5.086   1.221  0.7556  0.2426 -0.0018
  332MOL0     H44768   9.826   5.053   1.314 -0.9407 -0.0348  2.2545
  332MOL0     H44769   9.565   4.941   1.414 -1.4267  1.7493  2.6041
  332MOL0     H44770   9.728   4.948   1.491  0.2021 -0.4283 -0.2997
  332MOL0     H44771   9.820   5.213   1.525  0.2138 -0.3237 -0.2487
  332MOL0     H44772   9.618   5.531   1.639 -1.3576 -0.8365 -1.8600
  332MOL0     H44773   9.746   5.438   1.717  1.5368  2.0990  0.1997
  332MOL0     H44774   9.876   5.468   1.508  1.1610  0.2851  1.5945
  332MOL0     H44775   9.742   5.548   1.423  1.5852 -1.6277 -0.7243
  332MOL0     H44776   9.849   5.645   1.696 -0.4277 -1.8569 -0.4247
  332MOL0     H44777   9.729   5.727   1.598 -0.3017  0.3261  3.5024
  332MOL0     H44778  10.010   5.649   1.510 -1.0659 -1.5440  2.9078
  332MOL0     H44779   9.980   5.804   1.578  2.6825 -3.3497  1.7310
  332MOL0     H44780   9.812   5.953   1.594 -1.9027 -2.0612  0.9438
  332MOL0     H44781   9.639   6.116   1.535  0.1493 -1.5916  0.8732
  332MOL0     H44782   9.499   6.441   1.245  0.5955  2.6662 -0.9291
  332MOL0     H44783   9.424   6.631   1.118 -0.0953  0.2878 -1.6948
  332MOL0     H44784   9.451   6.698   0.886 -0.2303  0.0682  2.2431
  332MOL0     H44785   9.332   6.756   0.762  0.2769  0.9537  0.3030
  332MOL0     H44786   9.300   6.859   1.042 -0.6909  2.7004  0.6060
  332MOL0     H44787   9.422   6.915   0.924 -0.0946 -0.0671 -1.6667
  332MOL0     H44788   9.127   6.902   0.839  1.1190  1.4938 -2.7404
  332MOL0     H44789   9.179   7.033   0.941 -3.3601  0.0463  0.6383
  332MOL0     H44790   9.321   6.947   0.670  0.7028 -1.4694  0.8126
  332MOL0     H44791   9.367   7.080   0.774  0.5992 -0.4854 -1.0401
  332MOL0     H44792   9.234   7.151   0.576  0.5205  0.4381 -0.7528
  332MOL0     H44793   9.138   7.185   0.714 -0.5891  0.8752 -2.8754
  332MOL0     H44794   9.111   6.951   0.543  1.3576  0.7540  0.6588
  332MOL0     H44795   9.014   6.975   0.689  2.0962 -1.1063  0.3920
  332MOL0     H44796   9.028   7.199   0.472 -1.5286 -0.1190  0.3528
  332MOL0     H44797   8.906   7.190   0.595 -1.0565  1.2438 -1.6724
  332MOL0     H44798   8.922   6.974   0.386 -0.7995 -1.9130  1.9609
  332MOL0     H44799   8.789   7.018   0.496 -1.5271 -0.2460 -2.6585
  332MOL0     H44800   9.264   6.388   0.821  2.9280 -1.7803 -1.5224
  332MOL0     H44801   9.348   6.176   0.956  1.2733  0.3453 -1.5377
  332MOL0     H44802   9.631   5.998   1.126  3.3377 -1.2915 -1.4193
  332MOL0     H44803   9.779   5.823   1.177 -0.2211 -0.4474  0.5418
  332MOL0     H44804   9.715   4.531   0.523 -1.7295 -0.4730 -0.5514
  332MOL0     H44805   9.517   4.433   0.478 -1.7765  1.2961  2.9392
  332MOL0     H44806   9.234   4.055   0.715 -0.1651  1.6632 -0.1486
  332MOL0     H44807   9.031   3.907   0.722 -0.0857 -1.5327 -0.9500
  332MOL0     H44808   8.824   3.751   0.341  2.4933 -1.2231  2.9511
  332MOL0     H44809   8.815   3.922   0.337  1.2480  0.4892 -0.0248
  332MOL0     H44810   8.632   3.914   0.519 -0.7778 -2.5249  3.1701
  332MOL0     H44811   8.659   3.739   0.518  1.6295 -1.4522 -2.7243
  332MOL0     H44812   8.545   3.716   0.314  0.3965  0.5156 -2.8794
  332MOL0     H44813   8.588   3.885   0.265 -1.4973  0.5590 -0.1839
  332MOL0     H44814   8.425   3.972   0.440 -0.2973  0.7704 -2.6657
  332MOL0     H44815   8.355   3.883   0.311 -0.7268 -3.4675 -0.8761
  332MOL0     H44816   8.275   3.595   0.617 -0.7776  1.7020  2.8180
  332MOL0     H44817   9.010   3.942   0.301  1.1131 -3.3579 -0.0017
  332MOL0     H44818   9.250   4.204   0.249 -0.8747  0.8297  2.9052
  332MOL0     H44819   9.298   4.042   0.195  1.3138  2.1575 -2.0829
  332MOL0     H44820   9.134   4.100   0.173  0.6536  0.2977 -0.2175
  333MOL0     O44821   7.731   2.195   1.510 -0.4399 -0.5498  0.5506
  333MOL0     C44822   7.821   2.207   1.587  0.1383  0.3748  0.1550
  333MOL0     O44823   7.943   2.137   1.570  0.2125  0.9341  0.1191
  333MOL0     C44824   7.982   2.051   1.467  0.1514 -0.1215  0.0957
  333MOL0     C44825   7.896   2.002   1.354 -0.2744  0.1530  0.0356
  333MOL0     C44826   7.956   1.916   1.256  0.5361  0.2412 -0.3307
  333MOL0     C44827   8.094   1.885   1.272 -0.2531 -0.6215 -0.0052
  333MOL0     O44828   8.167   1.811   1.186  0.1840 -0.0170 -0.3656
  333MOL0     C44829   8.181   1.854   1.046  0.5022  0.5062 -0.9825
  333MOL0     C44830   8.282   1.754   0.983 -0.0876 -0.0807  0.0227
  333MOL0     C44831   8.426   1.770   1.042 -0.0323  0.3518 -0.7707
  333MOL0     C44832   8.510   1.644   1.019  0.8536 -0.5052 -0.2865
  333MOL0     C44833   8.666   1.668   1.032  0.0135  1.1091 -0.0123
  333MOL0     C44834   8.768   1.557   1.005  0.0445 -0.0628  0.3331
  333MOL0     C44835   8.910   1.614   1.029  0.4734 -0.3040  0.1334
  333MOL0     C44836   9.012   1.514   1.007  0.3974  0.3081  0.2767
  333MOL0     N44837   9.021   1.412   1.108 -0.5113 -0.2594 -0.4725
  333MOL0     C44838   8.979   1.283   1.087 -0.0692 -0.5770  0.3980
  333MOL0     C44839   8.977   1.222   1.207 -0.7537 -0.5123  1.1924
  333MOL0     C44840   8.900   1.100   1.241 -0.2142 -0.0944  0.5889
  333MOL0     C44841   9.000   0.978   1.252  0.5728 -0.1271 -0.4057
  333MOL0     C44842   9.071   0.933   1.121  0.1347  1.1280  0.6470
  333MOL0     C44843   8.988   0.870   1.011  0.0061 -0.3444 -0.4851
  333MOL0     O44844   8.885   0.800   1.078 -0.5762 -0.4939  0.2039
  333MOL0     C44845   8.756   0.802   1.013  0.0254  0.6556 -0.0417
  333MOL0     C44846   8.742   0.822   0.878  1.1217 -0.4907  0.9434
  333MOL0     C44847   8.610   0.818   0.826  0.2599 -0.1313 -0.9106
  333MOL0     C44848   8.492   0.799   0.909 -0.5644  0.5044 -0.9888
  333MOL0     C44849   8.359   0.778   0.846  1.0256  0.1566  0.6043
  333MOL0     O44850   8.268   0.710   0.923  0.8644 -0.1506 -1.0973
  333MOL0     C44851   8.144   0.694   0.872 -0.8248 -0.2789 -0.3491
  333MOL0     C44852   8.121   0.603   0.775 -1.1472 -0.5507  0.1646
  333MOL0     C44853   7.994   0.570   0.743 -0.0044 -0.2361  0.1043
  333MOL0     C44854   7.881   0.634   0.791  0.4686 -0.2294  0.7213
  333MOL0     O44855   7.755   0.597   0.749  0.1734 -0.1753 -0.0884
  333MOL0     C44856   7.659   0.700   0.731  0.7513  1.1597  0.2111
  333MOL0     C44857   7.573   0.622   0.617  0.0908  0.0735  0.0134
  333MOL0     C44858   7.482   0.717   0.551 -0.9330 -0.8818 -0.1288
  333MOL0     C44859   7.404   0.676   0.429 -0.4517 -0.1094 -0.8751
  333MOL0     C44860   7.483   0.624   0.308 -0.4546  0.0188 -0.3252
  333MOL0     C44861   7.578   0.721   0.245  0.2116  0.7496  0.1082
  333MOL0     C44862   7.505   0.831   0.171 -0.4485 -0.6245  0.0155
  333MOL0     C44863   7.619   0.927   0.108  0.4146 -0.6126 -1.1102
  333MOL0    Cl44864   7.644   1.078   0.202 -0.0249 -0.2066  0.0209
  333MOL0     C44865   7.907   0.735   0.885 -0.3254 -0.2481 -0.3066
  333MOL0     C44866   8.041   0.767   0.929 -0.3848 -0.3745 -0.2417
  333MOL0     O44867   8.346   0.811   0.730  1.0915  0.1699  0.0064
  333MOL0     C44868   8.516   0.784   1.053 -0.0287 -0.2910  0.0646
  333MOL0     C44869   8.649   0.790   1.094  0.3337  0.8751 -0.0777
  333MOL0     N44870   9.031   1.305   1.299 -1.2746  0.2080 -0.2486
  333MOL0     N44871   9.066   1.415   1.238  0.1307  0.4125  0.5327
  333MOL0     C44872   8.165   1.933   1.383 -0.0497 -0.1045 -0.9236
  333MOL0     C44873   8.114   2.013   1.486  0.2235 -0.2906  0.2401
  333MOL0     C44874   7.802   2.292   1.704  1.2607  0.7844 -1.0602
  333MOL0     C44875   7.715   2.399   1.696 -0.4759  0.3387  0.6663
  333MOL0     C44876   7.698   2.485   1.802  1.1756  0.3688 -0.3882
  333MOL0     C44877   7.744   2.446   1.928 -0.3410 -0.1157  0.2259
  333MOL0     O44878   7.749   2.534   2.035  0.8201 -0.8690  0.2225
  333MOL0     C44879   7.611   2.569   2.072 -0.0684  0.7273 -0.2989
  333MOL0     C44880   7.572   2.533   2.219  0.0350 -0.1202  0.1232
  333MOL0     C44881   7.569   2.387   2.232  0.5929  0.1795 -0.2285
  333MOL0     C44882   7.543   2.339   2.372  0.5846  0.0296  0.5275
  333MOL0     C44883   7.641   2.384   2.473  0.5651  0.1709  0.7939
  333MOL0     C44884   7.733   2.422   2.536  0.2838 -0.1781  0.2135
  333MOL0     C44885   7.819   2.329   1.941 -0.0968 -0.5312 -1.3118
  333MOL0     C44886   7.861   2.269   1.826  0.2066  0.8861 -0.5983
  333MOL0     C44887   7.943   2.140   1.855  0.5859  0.4179  0.8039
  333MOL0     H44888   7.795   2.035   1.333  0.5434  1.2861 -2.4681
  333MOL0     H44889   7.911   1.873   1.167 -1.4657  0.0365  0.7428
  333MOL0     H44890   8.082   1.853   0.998 -0.3657 -0.4343  0.7129
  333MOL0     H44891   8.221   1.956   1.044  2.4814 -0.1173  1.2590
  333MOL0     H44892   8.280   1.776   0.876 -1.6260  1.1064  0.2661
  333MOL0     H44893   8.248   1.652   1.005  2.7942 -0.7308  2.0465
  333MOL0     H44894   8.419   1.795   1.148 -2.9800 -0.1965 -0.7593
  333MOL0     H44895   8.478   1.853   0.993 -0.3386  1.7598  1.1617
  333MOL0     H44896   8.486   1.570   1.096  3.2949  0.0058  1.0651
  333MOL0     H44897   8.486   1.594   0.925 -0.5086 -1.0950  0.3521
  333MOL0     H44898   8.683   1.744   0.954 -1.8691 -1.3005 -2.9756
  333MOL0     H44899   8.690   1.706   1.132 -1.1372  0.1725  0.6300
  333MOL0     H44900   8.748   1.470   1.068  0.8462 -1.4228 -1.1975
  333MOL0     H44901   8.755   1.525   0.901 -0.4065  0.4811  0.2160
  333MOL0     H44902   8.909   1.631   1.137 -1.2700 -1.0597  0.2811
  333MOL0     H44903   8.932   1.706   0.974 -0.7375 -0.8574 -1.3480
  333MOL0     H44904   8.986   1.474   0.908 -1.4007  0.4226  0.6748
  333MOL0     H44905   9.113   1.556   1.018  0.5961  0.5879 -2.0397
  333MOL0     H44906   8.931   1.247   0.996  0.8043 -1.7829  0.3963
  333MOL0     H44907   8.856   1.126   1.338  3.9500  1.4968  2.3293
  333MOL0     H44908   8.824   1.066   1.171  0.6195  1.7376 -1.3047
  333MOL0     H44909   9.077   1.003   1.325 -0.7908 -1.8076  1.7191
  333MOL0     H44910   8.936   0.903   1.298 -0.4294  0.6742 -0.4461
  333MOL0     H44911   9.133   0.844   1.136 -3.1323 -1.8114 -1.5778
  333MOL0     H44912   9.124   1.017   1.075 -1.7388  0.8617 -2.2546
  333MOL0     H44913   9.045   0.810   0.939 -1.8979 -0.3748 -2.0482
  333MOL0     H44914   8.939   0.950   0.955 -2.4483 -1.6367 -0.3243
  333MOL0     H44915   8.822   0.849   0.811 -0.0923  0.9382  0.0139
  333MOL0     H44916   8.605   0.835   0.719 -0.7472  0.2218 -0.8218
  333MOL0     H44917   8.214   0.560   0.740  0.0056  2.4980 -0.8434
  333MOL0     H44918   7.970   0.499   0.663 -4.5617 -1.0377  1.8787
  333MOL0     H44919   7.594   0.716   0.817 -0.6227 -4.1941  0.5061
  333MOL0     H44920   7.705   0.793   0.695  1.3262  1.3258  1.3376
  333MOL0     H44921   7.643   0.582   0.544  0.4421  1.7639 -0.6194
  333MOL0     H44922   7.504   0.552   0.666  0.9109 -0.7861 -0.0378
  333MOL0     H44923   7.405   0.754   0.619 -2.7287 -2.0381 -1.4636
  333MOL0     H44924   7.544   0.803   0.521 -1.2349 -1.1454 -1.6169
  333MOL0     H44925   7.343   0.763   0.403 -1.3893 -0.6545 -0.5624
  333MOL0     H44926   7.333   0.598   0.457  1.7074 -1.5623  0.9384
  333MOL0     H44927   7.412   0.589   0.232  1.2791 -0.3089 -1.8694
  333MOL0     H44928   7.541   0.537   0.339 -0.0689 -0.7672 -2.9690
  333MOL0     H44929   7.638   0.766   0.325 -0.9975  0.3241  1.2871
  333MOL0     H44930   7.639   0.662   0.176 -0.7039 -0.8332  0.5935
  333MOL0     H44931   7.449   0.887   0.246 -1.3281 -0.2466 -0.9111
  333MOL0     H44932   7.440   0.795   0.091  0.1965 -0.7581 -0.4568
  333MOL0     H44933   7.714   0.875   0.091 -0.1844 -1.3573 -2.2849
  333MOL0     H44934   7.580   0.962   0.013  2.3436  1.7301 -1.1508
  333MOL0     H44935   7.830   0.796   0.930 -0.5666 -0.7973  0.0334
  333MOL0     H44936   8.062   0.826   1.018  2.3392  0.8618 -1.5912
  333MOL0     H44937   8.432   0.780   1.121 -1.0367  0.8050 -1.0646
  333MOL0     H44938   8.663   0.778   1.201  2.3178 -1.6794 -0.5200
  333MOL0     H44939   8.269   1.904   1.397 -0.3318 -0.7870 -0.1881
  333MOL0     H44940   8.166   2.045   1.575 -0.6841  0.2632  0.5896
  333MOL0     H44941   7.660   2.425   1.605 -0.8765 -1.7121  0.2768
  333MOL0     H44942   7.648   2.581   1.793  1.2754  0.3159 -1.7878
  333MOL0     H44943   7.536   2.529   2.003  0.1625  2.7455 -1.8396
  333MOL0     H44944   7.600   2.676   2.051  2.8630  1.6259  2.0212
  333MOL0     H44945   7.484   2.585   2.258  0.9703 -0.7005  3.2195
  333MOL0     H44946   7.652   2.574   2.280 -1.7141  1.9061  1.1852
  333MOL0     H44947   7.653   2.334   2.186 -0.6674 -2.0584 -0.1264
  333MOL0     H44948   7.485   2.349   2.173  1.6377 -3.0187  0.1068
  333MOL0     H44949   7.443   2.376   2.399 -0.5781  1.6263 -4.7978
  333MOL0     H44950   7.530   2.231   2.371 -1.0988  0.1533 -2.5199
  333MOL0     H44951   7.814   2.454   2.598 -0.7435  1.5860  0.6814
  333MOL0     H44952   7.874   2.299   2.030  3.1097  2.3193 -2.1177
  333MOL0     H44953   7.957   2.125   1.962 -1.5208  0.3335  1.1138
  333MOL0     H44954   7.885   2.057   1.812 -1.3633  2.0692  0.0626
  333MOL0     H44955   8.047   2.150   1.823  1.0892 -1.2965  1.8070
  334MOL0     O44956   8.784   4.843   7.358 -0.4903 -0.0645  0.0136
  334MOL0     C44957   8.903   4.851   7.315 -0.0949 -0.9882 -0.3376
  334MOL0     O44958   8.951   4.937   7.222 -0.5508 -0.4188 -0.4441
  334MOL0     C44959   8.859   4.958   7.116 -0.7701 -0.1712 -0.2981
  334MOL0     C44960   8.868   5.078   7.052  0.4283  0.2148 -0.7573
  334MOL0     C44961   8.785   5.108   6.947  0.9242  0.8435  0.9354
  334MOL0     C44962   8.706   5.007   6.883  0.6253 -0.2564  0.3296
  334MOL0     O44963   8.633   5.026   6.763 -0.5095 -0.0510  0.2899
  334MOL0     C44964   8.638   5.159   6.708 -0.3275  0.2744  0.5920
  334MOL0     C44965   8.529   5.162   6.600 -0.5727  0.5307 -0.6162
  334MOL0     C44966   8.385   5.164   6.653 -0.8581  0.5562 -0.4000
  334MOL0     C44967   8.326   5.016   6.659  0.2088  0.3875  0.3863
  334MOL0     C44968   8.198   5.009   6.738  0.0815 -0.5258  0.2029
  334MOL0     C44969   8.169   4.865   6.751  0.6478  0.8116 -0.3803
  334MOL0     C44970   8.025   4.847   6.804  0.0315 -1.1456 -0.1040
  334MOL0     C44971   7.988   4.701   6.807 -0.5083 -0.6678  0.4566
  334MOL0     N44972   7.976   4.650   6.669 -0.0331  0.3176  0.0055
  334MOL0     C44973   8.070   4.590   6.591 -0.1154  0.6791 -0.3337
  334MOL0     C44974   8.021   4.572   6.465 -0.0730  0.5137 -0.3223
  334MOL0     C44975   8.100   4.511   6.354  0.3403  0.1489  0.0648
  334MOL0     C44976   8.096   4.357   6.349 -0.6915 -0.6526 -0.7653
  334MOL0     C44977   8.203   4.297   6.249 -0.0371 -1.2502 -0.4491
  334MOL0     C44978   8.335   4.249   6.312 -0.1449  0.3979 -0.2503
  334MOL0     O44979   8.369   4.353   6.401 -0.2490 -0.1740  0.2297
  334MOL0     C44980   8.480   4.340   6.486 -0.4932  0.5556 -0.3768
  334MOL0     C44981   8.580   4.237   6.474 -0.0915 -0.4777  0.9792
  334MOL0     C44982   8.693   4.234   6.566 -0.4185  0.3072  0.2679
  334MOL0     C44983   8.695   4.324   6.676 -0.0039 -0.1747  0.4930
  334MOL0     C44984   8.785   4.325   6.791 -0.8189 -0.3775  0.4568
  334MOL0     O44985   8.761   4.418   6.879 -0.4031  0.6385 -0.7143
  334MOL0     C44986   8.823   4.390   7.002  0.3164  1.2020  0.7944
  334MOL0     C44987   8.794   4.277   7.077 -0.0513 -0.1293  0.4543
  334MOL0     C44988   8.869   4.263   7.195  0.4549 -0.5448  0.4988
  334MOL0     C44989   8.963   4.354   7.232  0.1947  0.6579 -0.2111
  334MOL0     O44990   9.038   4.336   7.339  0.8345 -0.3815  0.3117
  334MOL0     C44991   9.014   4.239   7.438  1.4964 -0.1120  0.2624
  334MOL0     C44992   9.088   4.269   7.571  0.5493  0.1346  0.5667
  334MOL0     C44993   9.058   4.159   7.682  0.6097 -0.2400  0.4789
  334MOL0     C44994   9.113   4.214   7.816 -1.3838  0.9286  0.1533
  334MOL0     C44995   9.235   4.131   7.855  0.7967  0.4205 -0.3551
  334MOL0     C44996   9.289   4.169   7.991  0.1945  0.5481 -0.2431
  334MOL0     C44997   9.393   4.066   8.044 -0.1028  0.0202  0.0552
  334MOL0     C44998   9.528   4.117   7.989  0.6551 -0.0863 -1.2977
  334MOL0    Cl44999   9.606   4.226   8.118 -0.2366 -0.4280 -0.1859
  334MOL0     C45000   8.989   4.466   7.155  0.0936 -0.2707  0.3406
  334MOL0     C45001   8.907   4.491   7.044 -0.8608 -0.5703  0.1878
  334MOL0     O45002   8.877   4.250   6.790 -0.7650 -0.2398  0.5946
  334MOL0     C45003   8.596   4.430   6.676 -0.6225  0.2233 -0.0738
  334MOL0     C45004   8.497   4.438   6.584  1.1473 -0.6515 -0.0363
  334MOL0     N45005   7.917   4.652   6.458  0.2951  0.5982  0.6228
  334MOL0     N45006   7.879   4.684   6.576 -0.1191 -0.5783  0.8053
  334MOL0     C45007   8.689   4.882   6.945  0.0926 -0.1577 -0.8700
  334MOL0     C45008   8.767   4.862   7.064  0.4336 -0.2912 -0.7609
  334MOL0     C45009   8.999   4.780   7.393 -0.4104 -0.2921  0.0251
  334MOL0     C45010   9.119   4.751   7.328 -0.8596 -0.5457 -0.5872
  334MOL0     C45011   9.215   4.677   7.389  0.4424  0.6812  0.6395
  334MOL0     C45012   9.209   4.633   7.516  0.0328 -0.1621  0.2859
  334MOL0     O45013   9.306   4.576   7.585 -1.2714 -0.0680  0.4381
  334MOL0     C45014   9.427   4.551   7.526 -0.4313  0.1343 -0.2740
  334MOL0     C45015   9.493   4.433   7.597  0.5106 -0.0797  0.0415
  334MOL0     C45016   9.528   4.439   7.750 -0.4648 -0.2395  0.3160
  334MOL0     C45017   9.646   4.540   7.782  0.6449 -0.6509  0.3996
  334MOL0     C45018   9.700   4.530   7.916 -0.5204 -0.5664  0.3692
  334MOL0     C45019   9.732   4.539   8.027 -0.3083  0.4229 -0.3063
  334MOL0     C45020   9.089   4.657   7.581  0.0759  0.6699 -0.1391
  334MOL0     C45021   8.980   4.733   7.525 -0.7552  0.4924  0.3262
  334MOL0     C45022   8.867   4.761   7.627 -0.2425  0.2136  0.7082
  334MOL0     H45023   8.939   5.157   7.074  0.3818  0.4998 -1.6075
  334MOL0     H45024   8.794   5.205   6.900  0.9617 -0.9602 -3.1938
  334MOL0     H45025   8.615   5.237   6.782 -1.9839 -1.2727  1.7999
  334MOL0     H45026   8.735   5.166   6.659 -0.0550 -0.4056  1.0226
  334MOL0     H45027   8.546   5.082   6.527  1.6436 -0.5865  1.0237
  334MOL0     H45028   8.547   5.261   6.556  2.4040  1.2512  1.8710
  334MOL0     H45029   8.328   5.226   6.584 -1.6307 -1.3227 -1.5301
  334MOL0     H45030   8.378   5.203   6.755  0.5748  2.6626 -1.0284
  334MOL0     H45031   8.299   4.989   6.556  2.1677  1.6848 -0.5325
  334MOL0     H45032   8.404   4.950   6.697  3.9220  4.8593  1.4953
  334MOL0     H45033   8.211   5.055   6.836 -1.0082  2.0161 -0.7555
  334MOL0     H45034   8.123   5.065   6.681  0.7704  1.3233  1.0668
  334MOL0     H45035   8.181   4.809   6.657 -1.4423  3.4298 -2.3506
  334MOL0     H45036   8.232   4.823   6.830  0.0911 -2.4830 -1.5033
  334MOL0     H45037   7.958   4.907   6.741 -0.3916 -1.2285  0.2558
  334MOL0     H45038   8.011   4.894   6.902 -3.5948 -1.7547 -0.1702
  334MOL0     H45039   8.054   4.648   6.877  1.3704  3.8234  2.4884
  334MOL0     H45040   7.893   4.691   6.860  0.6738 -0.7311  2.6793
  334MOL0     H45041   8.163   4.544   6.625 -0.2389 -0.8470 -1.9004
  334MOL0     H45042   8.059   4.556   6.263 -1.1979  2.7576  1.9215
  334MOL0     H45043   8.202   4.549   6.354  0.3544  0.1480  1.3364
  334MOL0     H45044   8.097   4.319   6.451  2.6402 -0.1398 -0.5213
  334MOL0     H45045   7.998   4.328   6.310 -1.4271 -0.3350  0.7871
  334MOL0     H45046   8.222   4.371   6.170  1.3525 -0.4221  0.6360
  334MOL0     H45047   8.150   4.211   6.206 -1.3561 -0.2435 -0.9351
  334MOL0     H45048   8.420   4.214   6.252 -0.8567 -4.0387  0.9132
  334MOL0     H45049   8.309   4.162   6.373 -1.0527  0.3372 -0.7177
  334MOL0     H45050   8.597   4.167   6.393  1.1384  1.8273 -0.8935
  334MOL0     H45051   8.774   4.163   6.553 -0.0556  1.1336 -2.7730
  334MOL0     H45052   8.719   4.205   7.044  0.2919 -0.8860  1.2701
  334MOL0     H45053   8.839   4.176   7.252 -0.4975  0.7188  2.0152
  334MOL0     H45054   8.909   4.238   7.468  1.4023  3.3680  0.4240
  334MOL0     H45055   9.042   4.139   7.402  0.0812 -0.7803  0.9073
  334MOL0     H45056   9.193   4.263   7.542  0.2562  0.2961 -0.5868
  334MOL0     H45057   9.067   4.372   7.601 -1.3711 -0.5465  1.7336
  334MOL0     H45058   8.951   4.137   7.681  0.1518  1.6680 -1.7745
  334MOL0     H45059   9.107   4.064   7.660 -0.5408 -0.5389 -0.9617
  334MOL0     H45060   9.043   4.199   7.899 -0.0916 -4.6071  0.6730
  334MOL0     H45061   9.133   4.322   7.813 -1.2578  0.8825 -0.9056
  334MOL0     H45062   9.320   4.140   7.787  1.8716  3.1980  1.1879
  334MOL0     H45063   9.211   4.024   7.861 -4.0334  1.3118  0.4936
  334MOL0     H45064   9.328   4.271   7.987  0.0565  0.6023 -0.1824
  334MOL0     H45065   9.197   4.162   8.049 -1.6807  0.9954 -3.0011
  334MOL0     H45066   9.377   3.963   8.011  0.9311  0.5128 -2.1705
  334MOL0     H45067   9.404   4.065   8.153 -0.1709  2.7641  0.1474
  334MOL0     H45068   9.601   4.040   7.966  3.2832  0.9892  2.4409
  334MOL0     H45069   9.501   4.169   7.897 -0.1898  0.4649 -0.7534
  334MOL0     H45070   9.059   4.542   7.188 -0.0717 -0.7130  1.7795
  334MOL0     H45071   8.920   4.583   6.988 -1.4076 -1.1405 -0.9172
  334MOL0     H45072   8.593   4.508   6.751 -2.2058 -2.2168  2.6437
  334MOL0     H45073   8.434   4.525   6.592  0.8165 -1.0812  3.5517
  334MOL0     H45074   8.615   4.814   6.906 -1.1765  1.5016 -1.4815
  334MOL0     H45075   8.757   4.765   7.114 -0.1375 -0.0651 -0.4260
  334MOL0     H45076   9.133   4.780   7.225  2.3836 -0.1229 -0.1432
  334MOL0     H45077   9.304   4.653   7.331  0.7272 -1.3572  1.8287
  334MOL0     H45078   9.485   4.643   7.520  0.2817 -0.2276  0.7094
  334MOL0     H45079   9.415   4.516   7.424 -3.0115 -0.7629  0.2730
  334MOL0     H45080   9.583   4.402   7.544 -0.4564  1.4628 -2.6790
  334MOL0     H45081   9.430   4.349   7.569  0.3568  0.5762 -1.7233
  334MOL0     H45082   9.559   4.339   7.782  0.8070  0.3692  1.0863
  334MOL0     H45083   9.437   4.477   7.797  1.1620  2.4361  1.5658
  334MOL0     H45084   9.728   4.529   7.711  0.5378  2.3037 -0.3057
  334MOL0     H45085   9.600   4.639   7.771  0.5446 -0.8577 -1.2139
  334MOL0     H45086   9.769   4.523   8.127  1.5202 -1.3957 -1.1899
  334MOL0     H45087   9.071   4.618   7.680 -4.2425 -1.3028 -1.4313
  334MOL0     H45088   8.849   4.676   7.695  1.7136 -0.8752 -0.0641
  334MOL0     H45089   8.889   4.852   7.684  1.6457 -0.6837  1.4972
  334MOL0     H45090   8.768   4.769   7.581 -0.8494 -0.7303  1.7788
  335MOL0     O45091   2.373   7.432   2.188  0.0325 -0.1246  0.1747
  335MOL0     C45092   2.336   7.531   2.117  1.2044 -0.9001  1.2466
  335MOL0     O45093   2.357   7.542   1.980 -0.4971 -0.1129  0.0212
  335MOL0     C45094   2.452   7.466   1.917  0.2187  0.0894  0.0374
  335MOL0     C45095   2.540   7.533   1.822 -0.6166  0.4431 -0.2829
  335MOL0     C45096   2.635   7.447   1.765 -0.6964  0.8892  0.4689
  335MOL0     C45097   2.654   7.313   1.781 -0.6831  0.6818 -0.4263
  335MOL0     O45098   2.738   7.224   1.717  0.2888 -0.3802 -0.5933
  335MOL0     C45099   2.838   7.259   1.623  0.7676  0.3236 -0.5468
  335MOL0     C45100   2.952   7.333   1.703  0.1509 -0.3634  0.6927
  335MOL0     C45101   3.010   7.249   1.823 -0.6307 -0.3158 -1.1971
  335MOL0     C45102   3.083   7.351   1.911  0.0864 -0.1050 -0.1350
  335MOL0     C45103   3.101   7.291   2.053 -1.2890  0.1004 -0.5241
  335MOL0     C45104   2.994   7.341   2.141  0.2979 -0.3248  0.0499
  335MOL0     C45105   2.853   7.314   2.109  0.2022 -0.5571 -0.7189
  335MOL0     C45106   2.744   7.391   2.187 -0.5700  0.8590 -0.1021
  335MOL0     N45107   2.753   7.367   2.329  0.3141 -0.2320  0.0584
  335MOL0     C45108   2.744   7.244   2.383  0.2702  0.2852 -0.5055
  335MOL0     C45109   2.794   7.261   2.506  0.4696 -0.1149 -0.0757
  335MOL0     C45110   2.798   7.164   2.614 -0.2852 -0.3988 -0.2500
  335MOL0     C45111   2.908   7.194   2.711  0.2417  1.0224  1.1032
  335MOL0     C45112   2.923   7.092   2.830 -0.0332 -0.3131  0.5663
  335MOL0     C45113   3.022   7.138   2.939 -0.3709 -0.9168 -1.0916
  335MOL0     O45114   3.149   7.149   2.886 -0.8720 -1.3824  0.4477
  335MOL0     C45115   3.260   7.120   2.964  0.4996  0.0609 -0.3097
  335MOL0     C45116   3.366   7.190   2.920 -0.0660  0.2922  0.3855
  335MOL0     C45117   3.495   7.178   2.978 -0.3019  1.0340 -0.2447
  335MOL0     C45118   3.516   7.100   3.094  0.5114  1.0216  0.3096
  335MOL0     C45119   3.637   7.082   3.164  0.0688 -0.4278  1.3232
  335MOL0     O45120   3.734   7.155   3.120  0.6801  0.3785  0.6921
  335MOL0     C45121   3.840   7.179   3.203 -0.3045 -0.4964 -0.6436
  335MOL0     C45122   3.973   7.148   3.163  0.1106  0.7991  0.0486
  335MOL0     C45123   4.080   7.182   3.242  0.0433 -0.6640 -1.0808
  335MOL0     C45124   4.066   7.253   3.368  0.5534  0.1617 -0.0771
  335MOL0     O45125   4.168   7.285   3.457  0.3847 -0.1850 -0.3248
  335MOL0     C45126   4.303   7.266   3.417  0.6460 -0.1990  0.3185
  335MOL0     C45127   4.391   7.341   3.512 -0.3035 -0.6943  0.1038
  335MOL0     C45128   4.537   7.352   3.456  0.8101  0.3069  0.5541
  335MOL0     C45129   4.626   7.270   3.552  1.0564  0.2695 -1.4507
  335MOL0     C45130   4.769   7.270   3.513 -0.7484 -1.0711  0.0965
  335MOL0     C45131   4.835   7.413   3.524  0.1766 -0.2740  0.5396
  335MOL0     C45132   4.980   7.420   3.473 -0.4896 -0.6345 -0.2531
  335MOL0     C45133   4.996   7.353   3.340  0.0586  0.9307  0.0580
  335MOL0    Cl45134   4.873   7.396   3.213 -0.1632  0.2342 -0.1327
  335MOL0     C45135   3.933   7.283   3.401 -0.6574  0.6021 -1.1621
  335MOL0     C45136   3.823   7.255   3.317  0.2871  0.3517 -0.0655
  335MOL0     O45137   3.639   7.018   3.271  0.1219 -0.3315 -0.1958
  335MOL0     C45138   3.401   7.025   3.142 -0.2747  0.9086  1.1876
  335MOL0     C45139   3.280   7.040   3.081  0.8210  0.1138  0.2426
  335MOL0     N45140   2.830   7.395   2.525 -0.1177 -0.3049  0.7272
  335MOL0     N45141   2.808   7.461   2.416 -0.0310 -0.4310  0.4123
  335MOL0     C45142   2.564   7.250   1.870 -0.4737 -0.1154  0.4304
  335MOL0     C45143   2.457   7.322   1.923 -0.0170 -0.2979 -0.3128
  335MOL0     C45144   2.255   7.637   2.178  0.1230 -0.8623 -0.4054
  335MOL0     C45145   2.168   7.722   2.096 -1.0074  0.4546 -0.0031
  335MOL0     C45146   2.109   7.842   2.149 -0.3960  0.5943 -0.6717
  335MOL0     C45147   2.117   7.862   2.289 -0.3416  0.6229 -0.2862
  335MOL0     O45148   2.050   7.969   2.338  0.3611  0.6362  0.7600
  335MOL0     C45149   1.906   7.951   2.365 -0.4256  0.6124  0.5887
  335MOL0     C45150   1.887   7.890   2.500 -0.6142 -0.9574 -0.1913
  335MOL0     C45151   1.742   7.866   2.540  0.1427 -0.2529 -0.7342
  335MOL0     C45152   1.689   7.725   2.487  0.3237 -0.4161 -0.4731
  335MOL0     C45153   1.544   7.715   2.513  0.2595  0.3876 -0.0016
  335MOL0     C45154   1.422   7.712   2.509 -0.2593  0.0991  0.6161
  335MOL0     C45155   2.180   7.768   2.371  0.2243  0.5143  0.0235
  335MOL0     C45156   2.243   7.661   2.319 -0.2259  0.1791 -0.0067
  335MOL0     C45157   2.329   7.595   2.421  0.4681  0.0695  0.0257
  335MOL0     H45158   2.542   7.641   1.810  0.7793  0.2035 -2.7216
  335MOL0     H45159   2.706   7.482   1.691  1.4628 -2.2407  0.8931
  335MOL0     H45160   2.878   7.168   1.576  0.9914 -0.3165  0.8362
  335MOL0     H45161   2.796   7.330   1.551 -1.5983  1.4620  1.8087
  335MOL0     H45162   2.905   7.422   1.744 -0.4558 -0.4322  0.1567
  335MOL0     H45163   3.030   7.357   1.630  1.9454 -4.3908  1.0383
  335MOL0     H45164   3.083   7.172   1.794  0.0874 -0.2867  0.4092
  335MOL0     H45165   2.932   7.202   1.885 -0.4810  3.4043  2.2189
  335MOL0     H45166   3.180   7.371   1.865  0.1090 -0.8739 -0.4386
  335MOL0     H45167   3.035   7.449   1.904  0.1279 -0.1768 -1.8752
  335MOL0     H45168   3.114   7.182   2.050 -0.2852  0.1020  1.8626
  335MOL0     H45169   3.195   7.328   2.093 -0.4707  1.6216 -3.5580
  335MOL0     H45170   3.017   7.310   2.243  1.6161 -1.9024 -0.6898
  335MOL0     H45171   2.997   7.451   2.145 -0.5123 -0.3357  2.4733
  335MOL0     H45172   2.835   7.206   2.117  4.0830 -1.4358 -1.9217
  335MOL0     H45173   2.837   7.336   2.003 -0.7852  0.3728 -0.4012
  335MOL0     H45174   2.759   7.496   2.159  3.5545  0.6694  0.7615
  335MOL0     H45175   2.644   7.364   2.152 -0.3149 -0.5056  0.1618
  335MOL0     H45176   2.716   7.155   2.328 -0.4313  1.3405 -1.9368
  335MOL0     H45177   2.709   7.148   2.674 -1.1100  3.1699 -0.3220
  335MOL0     H45178   2.836   7.074   2.564  1.3787  0.2475 -0.2304
  335MOL0     H45179   3.002   7.188   2.656 -1.0947 -1.5048 -1.2094
  335MOL0     H45180   2.884   7.294   2.748 -0.1027 -0.3391  4.9892
  335MOL0     H45181   2.952   6.995   2.789  3.2616  1.2448 -1.0778
  335MOL0     H45182   2.821   7.083   2.870 -1.2407 -1.8607 -2.5013
  335MOL0     H45183   3.023   7.065   3.021 -1.0556 -0.2220 -0.4490
  335MOL0     H45184   2.984   7.232   2.979  1.5928 -0.4889 -0.1453
  335MOL0     H45185   3.360   7.251   2.830 -0.6858 -1.6605 -0.9697
  335MOL0     H45186   3.574   7.245   2.946 -1.1298  1.4428 -1.5468
  335MOL0     H45187   4.004   7.103   3.069 -0.2189  0.1615  0.2433
  335MOL0     H45188   4.174   7.147   3.202  0.1887 -1.0716 -0.3936
  335MOL0     H45189   4.324   7.161   3.436 -3.1022 -0.8886  1.5225
  335MOL0     H45190   4.317   7.302   3.314 -1.2896 -1.0196 -0.2771
  335MOL0     H45191   4.362   7.445   3.525 -3.6079 -1.6188  1.0666
  335MOL0     H45192   4.393   7.297   3.612  0.3074  2.1193  1.4005
  335MOL0     H45193   4.548   7.317   3.353  0.7154  0.8263  0.3664
  335MOL0     H45194   4.569   7.456   3.466  0.1918  0.3029  3.6110
  335MOL0     H45195   4.599   7.165   3.570  1.2777  0.6539  1.5625
  335MOL0     H45196   4.619   7.319   3.649  2.1578  0.0106 -1.2206
  335MOL0     H45197   4.769   7.243   3.407  1.7302  1.9966 -0.8239
  335MOL0     H45198   4.825   7.192   3.566 -2.3116 -1.2420  1.5867
  335MOL0     H45199   4.777   7.481   3.461  0.2693 -1.4925 -0.9136
  335MOL0     H45200   4.834   7.442   3.629  1.0985 -0.3199  0.5673
  335MOL0     H45201   5.042   7.370   3.548  1.7504  1.6738 -0.4515
  335MOL0     H45202   5.017   7.522   3.460 -2.0195 -0.1050 -0.6588
  335MOL0     H45203   5.096   7.381   3.305  0.4157  1.4072  1.3973
  335MOL0     H45204   4.997   7.245   3.362  1.1761  0.9755  0.3246
  335MOL0     H45205   3.913   7.317   3.502  1.3373  0.1068 -0.5517
  335MOL0     H45206   3.725   7.286   3.351 -0.0558  0.8642 -1.4619
  335MOL0     H45207   3.417   6.957   3.224  1.1036  0.4517  0.5640
  335MOL0     H45208   3.190   6.993   3.119  1.8224 -1.7505  0.4036
  335MOL0     H45209   2.563   7.144   1.891 -2.0382  0.2074  2.3007
  335MOL0     H45210   2.387   7.269   1.987  3.4742 -1.3981  2.9968
  335MOL0     H45211   2.165   7.712   1.988 -3.2530  0.4550  0.0072
  335MOL0     H45212   2.048   7.912   2.093 -1.0667  1.3441  0.9463
  335MOL0     H45213   1.866   7.897   2.279 -1.8564  1.6614  0.5529
  335MOL0     H45214   1.864   8.052   2.370  1.2851  1.4224 -0.2133
  335MOL0     H45215   1.928   7.964   2.569  1.7395 -0.9251 -1.5292
  335MOL0     H45216   1.944   7.797   2.503 -1.1392 -1.2705  1.9458
  335MOL0     H45217   1.678   7.944   2.496 -2.2462 -1.7456 -0.0885
  335MOL0     H45218   1.741   7.863   2.649  0.4286  0.5670 -0.7037
  335MOL0     H45219   1.704   7.723   2.378 -2.1437  1.2947 -0.9460
  335MOL0     H45220   1.738   7.641   2.536  2.6807 -0.4137 -2.5953
  335MOL0     H45221   1.317   7.705   2.488 -0.1311 -0.2638  0.0870
  335MOL0     H45222   2.162   7.789   2.476 -1.9692  0.0652 -0.2115
  335MOL0     H45223   2.428   7.571   2.382  1.2829 -1.2492  2.6562
  335MOL0     H45224   2.348   7.660   2.507  1.3063 -0.6602  0.3979
  335MOL0     H45225   2.280   7.503   2.453 -0.4218  0.4504 -0.2133
  336MOL0     O45226   7.677   3.911   2.083 -0.2554  0.5349  0.5529
  336MOL0     C45227   7.657   3.794   2.059  0.2265  0.6255  0.3764
  336MOL0     O45228   7.531   3.737   2.066  0.0850 -0.5091  0.3098
  336MOL0     C45229   7.411   3.808   2.066 -0.1009  0.3355  0.6334
  336MOL0     C45230   7.403   3.949   2.057 -0.4534  0.6231  0.3437
  336MOL0     C45231   7.277   4.004   2.063  0.6068 -0.4156  0.0247
  336MOL0     C45232   7.155   3.932   2.059 -0.1790  0.5177  0.1886
  336MOL0     O45233   7.035   3.995   2.061 -0.2433 -0.2647  0.7357
  336MOL0     C45234   6.923   3.932   1.998  0.1736  0.3237  0.4292
  336MOL0     C45235   6.838   4.040   1.949  0.2646 -0.4591  0.4349
  336MOL0     C45236   6.718   3.990   1.878 -0.5709  0.7957  0.2656
  336MOL0     C45237   6.587   3.966   1.959  0.1558 -0.0581  0.0086
  336MOL0     C45238   6.500   3.865   1.878 -0.1665 -0.1341  0.4023
  336MOL0     C45239   6.349   3.878   1.883  1.0259  0.3830  0.1815
  336MOL0     C45240   6.276   3.765   1.968 -0.4041 -0.3259 -0.1921
  336MOL0     C45241   6.122   3.779   1.960  0.1193 -0.4341  0.6967
  336MOL0     N45242   6.049   3.651   1.972 -0.8197 -0.6473 -0.1759
  336MOL0     C45243   6.044   3.582   2.081  0.8472  0.3715  0.3146
  336MOL0     C45244   5.964   3.474   2.045  0.2423  0.1373  0.5292
  336MOL0     C45245   5.919   3.373   2.145  0.7131 -0.3740 -0.3573
  336MOL0     C45246   5.821   3.273   2.071  0.3072  0.5369 -0.5320
  336MOL0     C45247   5.682   3.349   2.048  0.3410 -0.1287  1.0234
  336MOL0     C45248   5.583   3.254   1.967 -0.6514  0.4525 -1.5134
  336MOL0     O45249   5.453   3.322   1.945 -0.1231  0.6203 -0.7118
  336MOL0     C45250   5.362   3.309   2.048 -0.1870 -0.5636 -0.1697
  336MOL0     C45251   5.374   3.238   2.170  0.1278 -0.1074  0.4874
  336MOL0     C45252   5.288   3.243   2.276 -0.1745  0.1652 -0.4697
  336MOL0     C45253   5.170   3.312   2.265  0.2254  0.2190  0.4148
  336MOL0     C45254   5.091   3.332   2.378 -0.4850  0.8769 -0.2800
  336MOL0     O45255   5.124   3.249   2.493 -0.5133  0.2603 -0.3636
  336MOL0     C45256   5.036   3.234   2.601  0.7672 -0.1924  0.5876
  336MOL0     C45257   4.895   3.249   2.590 -0.4928 -0.6901 -0.9327
  336MOL0     C45258   4.807   3.227   2.693 -0.0226  0.1232 -0.9047
  336MOL0     C45259   4.859   3.179   2.814 -0.9569  0.1830  0.5585
  336MOL0     O45260   4.796   3.163   2.931 -0.2359  0.1060 -0.1871
  336MOL0     C45261   4.662   3.210   2.955 -0.5179  0.2560 -0.8674
  336MOL0     C45262   4.607   3.145   3.087  0.7200  0.0259  0.2076
  336MOL0     C45263   4.606   3.000   3.081 -0.1077 -0.3456 -0.4274
  336MOL0     C45264   4.568   2.935   3.212 -0.2395 -0.2659 -0.1467
  336MOL0     C45265   4.544   2.787   3.186 -0.1489  0.4278 -0.0631
  336MOL0     C45266   4.519   2.719   3.318  0.2967 -0.2954 -0.9212
  336MOL0     C45267   4.499   2.563   3.311 -0.4617  0.0203  0.0731
  336MOL0     C45268   4.365   2.526   3.255  0.2163  1.5494 -0.2048
  336MOL0    Cl45269   4.332   2.351   3.290  0.2515 -0.1663  0.0553
  336MOL0     C45270   5.001   3.151   2.827  0.1417 -0.1587  0.3669
  336MOL0     C45271   5.083   3.166   2.716  0.1637 -0.3902  0.2600
  336MOL0     O45272   5.008   3.420   2.369  0.3797  0.4547 -0.1552
  336MOL0     C45273   5.150   3.375   2.139 -0.2471 -0.0156  0.0660
  336MOL0     C45274   5.244   3.383   2.043  0.0610 -0.4000 -0.1587
  336MOL0     N45275   5.948   3.472   1.904 -0.1353 -0.2828  0.0620
  336MOL0     N45276   5.991   3.586   1.863 -0.5581 -0.0470  0.6652
  336MOL0     C45277   7.167   3.787   2.055  0.8143 -0.3838  0.7479
  336MOL0     C45278   7.292   3.731   2.070  0.4660 -0.7339 -0.8871
  336MOL0     C45279   7.765   3.701   2.019 -0.0204 -0.1253 -0.0314
  336MOL0     C45280   7.719   3.580   1.970 -0.5019  0.2230  0.1833
  336MOL0     C45281   7.814   3.481   1.934 -1.0530  0.9704 -0.1344
  336MOL0     C45282   7.947   3.512   1.929  0.5362 -0.3428 -0.0387
  336MOL0     O45283   8.042   3.415   1.905  0.2254  0.2142  0.1299
  336MOL0     C45284   8.186   3.449   1.913  0.5314  0.1644 -0.1288
  336MOL0     C45285   8.270   3.322   1.903  0.2849  0.6037 -0.4776
  336MOL0     C45286   8.255   3.257   1.765 -0.0484  0.6401 -0.3564
  336MOL0     C45287   8.339   3.129   1.750  0.9446  0.7486 -0.0961
  336MOL0     C45288   8.477   3.182   1.736 -0.3913 -0.3295  0.0229
  336MOL0     C45289   8.584   3.238   1.724  0.1041 -0.3216 -1.0118
  336MOL0     C45290   7.991   3.638   1.971 -0.5159 -0.6495 -0.0904
  336MOL0     C45291   7.901   3.736   2.020  0.1112 -0.3951  1.1242
  336MOL0     C45292   7.949   3.867   2.073 -0.4560  0.0789 -0.1778
  336MOL0     H45293   7.483   4.022   2.052  1.4172 -1.2985  0.7892
  336MOL0     H45294   7.266   4.110   2.048 -0.5132 -0.7647 -1.9269
  336MOL0     H45295   6.960   3.872   1.914 -2.3043  0.9483 -1.2214
  336MOL0     H45296   6.878   3.864   2.070  0.1336  1.5055  1.5494
  336MOL0     H45297   6.906   4.085   1.877 -1.2761 -1.7167 -1.9527
  336MOL0     H45298   6.823   4.120   2.022  1.5892  0.9440 -0.7679
  336MOL0     H45299   6.755   3.902   1.824  0.1433  0.8608  0.6276
  336MOL0     H45300   6.685   4.067   1.807 -2.1261  2.1015  2.3012
  336MOL0     H45301   6.627   3.934   2.055  3.3264  0.3569 -1.0373
  336MOL0     H45302   6.530   4.057   1.980 -1.8954 -1.3864  0.4723
  336MOL0     H45303   6.537   3.877   1.775  1.6149 -1.5865  0.8124
  336MOL0     H45304   6.529   3.766   1.915 -0.6374 -1.0907 -1.6225
  336MOL0     H45305   6.326   3.975   1.927  1.1100  0.9510 -0.9925
  336MOL0     H45306   6.314   3.883   1.779 -0.1710 -0.6230  0.5232
  336MOL0     H45307   6.303   3.779   2.073  4.3542 -4.6729 -0.3844
  336MOL0     H45308   6.316   3.670   1.930 -0.7631 -1.8989  3.0051
  336MOL0     H45309   6.084   3.851   2.033  1.9438  0.1822  1.0930
  336MOL0     H45310   6.092   3.825   1.865 -0.5184 -0.4414  0.8852
  336MOL0     H45311   6.081   3.596   2.182  2.4621 -3.6323  0.4870
  336MOL0     H45312   5.999   3.311   2.186 -1.0249 -2.2287  0.4137
  336MOL0     H45313   5.859   3.425   2.220 -2.1695 -0.0216 -2.7361
  336MOL0     H45314   5.863   3.227   1.981 -1.8864 -0.4115 -1.1397
  336MOL0     H45315   5.795   3.190   2.137 -1.2158 -1.1176 -3.0581
  336MOL0     H45316   5.693   3.443   1.992 -2.5543 -0.2338  0.1173
  336MOL0     H45317   5.636   3.366   2.145 -0.4121 -3.5712  1.3847
  336MOL0     H45318   5.567   3.157   2.015  1.4624  0.0370 -1.5266
  336MOL0     H45319   5.633   3.231   1.872  2.4038  2.4713 -0.5396
  336MOL0     H45320   5.452   3.166   2.192  2.5126  1.6803 -1.4385
  336MOL0     H45321   5.314   3.189   2.366 -0.6680  3.1300  1.6070
  336MOL0     H45322   4.852   3.301   2.504 -0.8461 -0.9485 -0.9126
  336MOL0     H45323   4.702   3.247   2.674 -1.6129 -4.3235  1.5701
  336MOL0     H45324   4.657   3.319   2.968 -0.8690  0.0549  1.0595
  336MOL0     H45325   4.601   3.180   2.869 -0.9556  2.4092 -1.3653
  336MOL0     H45326   4.669   3.173   3.173  1.4486 -2.3886  0.5290
  336MOL0     H45327   4.509   3.182   3.118  1.8307  3.6808 -0.1575
  336MOL0     H45328   4.528   2.961   3.014  1.2145  0.5251 -2.5907
  336MOL0     H45329   4.705   2.968   3.046 -0.4419 -1.3548 -0.4927
  336MOL0     H45330   4.479   2.988   3.246 -1.0209 -2.7431  1.9929
  336MOL0     H45331   4.649   2.955   3.283 -0.3045  0.1173 -0.1788
  336MOL0     H45332   4.639   2.746   3.151  0.6799  1.1848  1.2118
  336MOL0     H45333   4.460   2.770   3.118 -1.3522  1.7559  1.0372
  336MOL0     H45334   4.605   2.752   3.378 -0.7207  1.1868 -0.2285
  336MOL0     H45335   4.432   2.772   3.358  0.8317  0.2013 -0.3797
  336MOL0     H45336   4.511   2.512   3.406 -1.0606 -2.2848 -1.0229
  336MOL0     H45337   4.578   2.534   3.242  0.0048 -0.2842  0.7322
  336MOL0     H45338   4.290   2.596   3.293  0.2317  0.9154  1.0284
  336MOL0     H45339   4.375   2.546   3.148  1.1709  0.2897 -0.3723
  336MOL0     H45340   5.034   3.119   2.925 -0.5299  0.0103  0.6553
  336MOL0     H45341   5.186   3.132   2.728 -0.0576 -0.7755  1.0967
  336MOL0     H45342   5.055   3.427   2.128  0.9334  1.9566 -1.4629
  336MOL0     H45343   5.233   3.435   1.949 -0.7003 -0.7168 -0.2512
  336MOL0     H45344   7.077   3.728   2.053 -1.3861  2.6612  1.7311
  336MOL0     H45345   7.315   3.625   2.068  0.4519 -0.7588 -0.2067
  336MOL0     H45346   7.615   3.550   1.973 -0.1518 -0.9853  0.9379
  336MOL0     H45347   7.768   3.385   1.913 -0.6140  1.0879 -1.7961
  336MOL0     H45348   8.201   3.491   2.013  0.7891  1.0809 -0.5506
  336MOL0     H45349   8.202   3.513   1.827 -1.2960  1.1097  0.1824
  336MOL0     H45350   8.249   3.254   1.986  1.8196  1.2799  0.5225
  336MOL0     H45351   8.372   3.354   1.926  0.0853 -0.1307  1.7164
  336MOL0     H45352   8.295   3.321   1.686  0.7445  2.0917  1.1501
  336MOL0     H45353   8.149   3.233   1.756 -0.1901  0.7918  0.7275
  336MOL0     H45354   8.332   3.069   1.842  1.0109  2.1766  0.8766
  336MOL0     H45355   8.327   3.068   1.660  2.0176  0.5473 -0.1136
  336MOL0     H45356   8.675   3.294   1.715 -0.4948  1.1733  1.3400
  336MOL0     H45357   8.094   3.669   1.982 -0.4081 -1.1161  0.2610
  336MOL0     H45358   8.055   3.879   2.050 -0.1706 -0.4419  0.8038
  336MOL0     H45359   7.898   3.954   2.033  0.7878  0.4680 -0.9633
  336MOL0     H45360   7.929   3.864   2.181  0.7823  0.3774  0.0768
  337MOL0     O45361   5.264   7.916   7.114  0.5077 -0.3336 -0.5951
  337MOL0     C45362   5.194   8.002   7.163 -0.0675  0.4701 -0.3799
  337MOL0     O45363   5.211   8.140   7.143 -0.2309  0.4600 -0.7895
  337MOL0     C45364   5.328   8.185   7.086  0.1074  0.9425 -0.5312
  337MOL0     C45365   5.455   8.134   7.123 -1.3472 -0.5859 -0.6838
  337MOL0     C45366   5.567   8.189   7.050  0.2734 -0.2892 -0.9224
  337MOL0     C45367   5.553   8.287   6.948  1.1582  0.6956  0.2347
  337MOL0     O45368   5.654   8.339   6.866  0.2868  0.2601 -0.0018
  337MOL0     C45369   5.773   8.381   6.941  0.6681  0.1854 -0.0472
  337MOL0     C45370   5.879   8.269   6.930 -0.0135  0.4124 -0.1612
  337MOL0     C45371   6.021   8.318   6.910 -0.0254 -0.8435 -0.8499
  337MOL0     C45372   6.076   8.414   7.015 -0.1059 -0.0237 -0.7853
  337MOL0     C45373   6.204   8.494   6.954  0.3327  0.0452  0.2837
  337MOL0     C45374   6.312   8.536   7.045  0.3747 -0.8590 -0.7084
  337MOL0     C45375   6.421   8.430   7.059 -0.1090 -0.0326 -0.1420
  337MOL0     C45376   6.499   8.451   7.181 -0.2084  0.2590 -0.4470
  337MOL0     N45377   6.619   8.532   7.145 -0.5558 -1.1522  0.0848
  337MOL0     C45378   6.742   8.478   7.146 -0.5598  0.5587  1.0542
  337MOL0     C45379   6.826   8.571   7.093  0.1039 -0.3511 -1.6546
  337MOL0     C45380   6.972   8.560   7.085 -0.0404 -0.2950  0.9056
  337MOL0     C45381   7.043   8.674   7.143 -0.6284 -0.6883 -0.2661
  337MOL0     C45382   7.192   8.671   7.107  0.3305 -0.5151 -0.5008
  337MOL0     C45383   7.273   8.777   7.185  0.1061  0.2631  0.2950
  337MOL0     O45384   7.405   8.740   7.162  0.2822 -0.4608 -0.3922
  337MOL0     C45385   7.507   8.774   7.252 -0.9001  0.0027 -0.1349
  337MOL0     C45386   7.492   8.851   7.364 -1.0858 -0.5657  0.2322
  337MOL0     C45387   7.603   8.883   7.450 -0.7756 -1.0462  0.2250
  337MOL0     C45388   7.726   8.828   7.430  0.1739  0.2751 -0.6941
  337MOL0     C45389   7.839   8.844   7.525 -0.4271  0.5594  0.6735
  337MOL0     O45390   7.939   8.748   7.522  0.2624  0.4878 -0.3846
  337MOL0     C45391   8.044   8.766   7.602  0.4686  0.1615 -0.4218
  337MOL0     C45392   8.064   8.656   7.676 -0.0901  0.1196 -0.9236
  337MOL0     C45393   8.171   8.657   7.768 -0.1915 -0.3870  0.1858
  337MOL0     C45394   8.234   8.774   7.798 -0.1157 -0.4470  0.1761
  337MOL0     O45395   8.316   8.769   7.909  0.3801  0.4458 -0.6622
  337MOL0     C45396   8.323   8.880   7.996 -0.6317  0.3647 -0.1736
  337MOL0     C45397   8.469   8.897   8.044  0.9380  1.0834  0.9554
  337MOL0     C45398   8.471   8.992   8.165  0.9920  0.1447 -0.3857
  337MOL0     C45399   8.404   9.124   8.125 -0.1788  0.0656 -0.0977
  337MOL0     C45400   8.423   9.242   8.225  0.1792  0.7389 -0.4040
  337MOL0     C45401   8.353   9.366   8.148 -0.4638 -0.1378 -0.9444
  337MOL0     C45402   8.357   9.497   8.230  1.0993  0.3858  0.4607
  337MOL0     C45403   8.226   9.583   8.202 -0.1052  0.2910 -0.2058
  337MOL0    Cl45404   8.245   9.627   8.028 -0.0995 -0.2636  0.0388
  337MOL0     C45405   8.222   8.879   7.708 -0.2847 -0.0143  0.6230
  337MOL0     C45406   8.118   8.877   7.612  0.0250 -0.3221  0.2414
  337MOL0     O45407   7.832   8.943   7.595 -0.2456 -0.1253 -0.1808
  337MOL0     C45408   7.740   8.739   7.328  0.0653  0.6832  0.1445
  337MOL0     C45409   7.634   8.727   7.230 -0.5409  0.2602 -0.9451
  337MOL0     N45410   6.745   8.684   7.074 -0.5780  0.7868  0.1051
  337MOL0     N45411   6.629   8.661   7.109 -0.0397  0.0826 -0.5302
  337MOL0     C45412   5.421   8.328   6.913 -0.9890  0.0695  0.4585
  337MOL0     C45413   5.316   8.275   6.985  0.6917 -0.0731 -0.1082
  337MOL0     C45414   5.068   7.961   7.231  0.0612 -0.0494 -0.4632
  337MOL0     C45415   5.019   8.046   7.322 -0.2661 -0.5782 -0.7811
  337MOL0     C45416   4.902   8.019   7.393 -0.5414 -0.2948  1.1652
  337MOL0     C45417   4.837   7.900   7.371  0.0897  0.2308 -1.1626
  337MOL0     O45418   4.722   7.869   7.441 -0.5298  0.8461 -0.3808
  337MOL0     C45419   4.714   7.752   7.514  0.3901 -0.3894  0.3829
  337MOL0     C45420   4.704   7.797   7.659 -1.1448  1.2245  0.2456
  337MOL0     C45421   4.638   7.692   7.736 -0.3677  0.2456  1.4632
  337MOL0     C45422   4.624   7.705   7.883 -0.0076 -0.4117 -0.9074
  337MOL0     C45423   4.600   7.574   7.944  0.1921  0.0077 -0.1321
  337MOL0     C45424   4.586   7.466   8.007 -0.0941  0.7133  0.4408
  337MOL0     C45425   4.889   7.801   7.277  0.2159  0.0904 -0.5072
  337MOL0     C45426   4.999   7.842   7.201 -0.1232  0.5610 -0.1799
  337MOL0     C45427   5.038   7.733   7.099  0.0775 -1.6127 -0.4646
  337MOL0     H45428   5.474   8.054   7.194  0.7546  0.3282 -0.1420
  337MOL0     H45429   5.665   8.160   7.086  0.0220  0.8680  0.8385
  337MOL0     H45430   5.806   8.467   6.882 -4.6856  1.7941 -1.1933
  337MOL0     H45431   5.750   8.422   7.039 -1.0161  0.4772 -0.5427
  337MOL0     H45432   5.843   8.206   6.849 -2.3207  1.5027 -0.0781
  337MOL0     H45433   5.876   8.216   7.026 -0.9173 -1.1912 -1.0409
  337MOL0     H45434   6.021   8.376   6.818 -1.9597  0.7638  0.0877
  337MOL0     H45435   6.087   8.231   6.899 -0.1524 -0.8908 -1.2464
  337MOL0     H45436   5.999   8.484   7.047 -0.9301 -1.7434  1.2550
  337MOL0     H45437   6.103   8.351   7.101 -1.5881 -2.0851 -1.7564
  337MOL0     H45438   6.242   8.439   6.867 -2.9415  2.6854 -3.1610
  337MOL0     H45439   6.177   8.588   6.904  0.8066  0.1798  0.2771
  337MOL0     H45440   6.353   8.617   6.984  0.9717 -1.7322 -1.5100
  337MOL0     H45441   6.268   8.560   7.141  0.7471 -1.7840 -0.2962
  337MOL0     H45442   6.481   8.428   6.968  0.5944 -2.7711  0.3006
  337MOL0     H45443   6.364   8.337   7.066  1.2107 -0.7718  1.7086
  337MOL0     H45444   6.449   8.481   7.274  1.6997  2.8956 -0.1490
  337MOL0     H45445   6.518   8.345   7.198 -0.7932  0.4618  1.8982
  337MOL0     H45446   6.787   8.383   7.170 -0.6006  0.4509  0.7039
  337MOL0     H45447   7.004   8.463   7.123  0.3502 -0.6505 -0.2848
  337MOL0     H45448   6.994   8.558   6.978 -2.1220 -1.9371  0.4370
  337MOL0     H45449   7.010   8.774   7.112  1.4698 -0.2368 -1.2232
  337MOL0     H45450   7.039   8.667   7.252  1.6771 -5.3317 -0.2382
  337MOL0     H45451   7.206   8.706   7.004  0.8497  4.7827  1.0449
  337MOL0     H45452   7.225   8.569   7.127 -0.4002 -0.3266  2.0608
  337MOL0     H45453   7.245   8.764   7.290  0.6050 -0.3989  0.3601
  337MOL0     H45454   7.247   8.877   7.150 -1.4624 -0.4578 -0.7033
  337MOL0     H45455   7.404   8.907   7.395  0.5133  1.7007  0.9263
  337MOL0     H45456   7.585   8.960   7.525  2.9101  0.1419  0.0748
  337MOL0     H45457   8.021   8.558   7.662  0.1949 -0.7308  3.0152
  337MOL0     H45458   8.205   8.563   7.811  0.8310  0.3480  1.0411
  337MOL0     H45459   8.302   8.975   7.945  2.8202  1.5604  0.3676
  337MOL0     H45460   8.249   8.859   8.074 -1.2675 -1.7400 -1.2697
  337MOL0     H45461   8.494   8.801   8.091  1.5369  2.0141  2.6107
  337MOL0     H45462   8.534   8.928   7.962 -1.5473  3.6780 -0.1937
  337MOL0     H45463   8.421   8.951   8.254  2.6036 -1.0901 -0.0129
  337MOL0     H45464   8.574   9.007   8.197  0.0740  0.8196  2.6318
  337MOL0     H45465   8.295   9.116   8.125 -0.2910  1.3113  0.0152
  337MOL0     H45466   8.435   9.154   8.024 -5.5824  2.1220 -1.4663
  337MOL0     H45467   8.529   9.262   8.238 -0.4007  2.9933  1.6466
  337MOL0     H45468   8.391   9.215   8.326  1.7109 -0.7355 -0.2841
  337MOL0     H45469   8.387   9.387   8.047 -1.4347  3.0064 -0.7396
  337MOL0     H45470   8.250   9.332   8.131  0.7747 -4.2674 -1.3161
  337MOL0     H45471   8.451   9.550   8.213  1.6267 -0.9518 -1.0807
  337MOL0     H45472   8.354   9.459   8.332 -1.7848 -1.6646 -0.2507
  337MOL0     H45473   8.136   9.522   8.213  0.6722 -1.0109 -0.7109
  337MOL0     H45474   8.225   9.675   8.260  0.2254  1.9773 -2.7396
  337MOL0     H45475   8.280   8.970   7.723 -0.0645  0.5015 -2.6243
  337MOL0     H45476   8.108   8.963   7.547 -4.8390  1.0681  2.3418
  337MOL0     H45477   7.834   8.696   7.295 -1.5961 -1.5487 -2.0967
  337MOL0     H45478   7.654   8.676   7.137  1.9355 -1.7513  0.5587
  337MOL0     H45479   5.414   8.392   6.826  2.9149  1.4788  0.9584
  337MOL0     H45480   5.219   8.312   6.952 -0.5808 -2.5499  0.5671
  337MOL0     H45481   5.077   8.135   7.343  0.8112 -0.7902 -2.6112
  337MOL0     H45482   4.848   8.080   7.465  0.4472 -1.3788  2.9127
  337MOL0     H45483   4.801   7.686   7.505 -0.1574 -0.8884 -1.7933
  337MOL0     H45484   4.629   7.688   7.491  0.7343 -0.4424 -0.8096
  337MOL0     H45485   4.639   7.884   7.646 -2.2854  0.2667 -0.6660
  337MOL0     H45486   4.805   7.823   7.693  0.4474 -0.5619 -2.6923
  337MOL0     H45487   4.708   7.610   7.719 -0.7535  0.5374 -2.5741
  337MOL0     H45488   4.537   7.667   7.700  0.3373  1.0464 -1.3014
  337MOL0     H45489   4.717   7.747   7.924  1.3736 -1.8920 -2.3565
  337MOL0     H45490   4.539   7.773   7.895  0.3337  0.1174 -1.4210
  337MOL0     H45491   4.569   7.372   8.053 -1.5429  0.0634 -1.2915
  337MOL0     H45492   4.835   7.708   7.262 -1.0501  0.7095  0.0215
  337MOL0     H45493   5.136   7.703   7.139  3.3426  5.6858 -1.3140
  337MOL0     H45494   4.966   7.652   7.091 -2.5727  0.3122  1.7249
  337MOL0     H45495   5.055   7.787   7.006  3.7262  0.6764  1.2939
  338MOL0     O45496   9.188   3.194   0.145 -0.0037 -0.2011 -0.6333
  338MOL0     C45497   9.291   3.259   0.150 -0.3025  1.0703  0.2215
  338MOL0     O45498   9.366   3.271   0.261 -0.5523 -0.4663  0.1262
  338MOL0     C45499   9.333   3.215   0.382  0.5557 -0.0656  0.1748
  338MOL0     C45500   9.292   3.290   0.489  0.4892  0.8685 -0.6460
  338MOL0     C45501   9.268   3.229   0.612 -0.1759  0.8178  0.2158
  338MOL0     C45502   9.280   3.093   0.629 -1.0539 -0.6852  0.3094
  338MOL0     O45503   9.270   3.035   0.747  0.3115 -0.3045 -1.0320
  338MOL0     C45504   9.154   3.067   0.826 -0.9030 -0.4730 -0.2046
  338MOL0     C45505   9.178   3.011   0.959 -0.2802  0.5576  0.1845
  338MOL0     C45506   9.069   3.041   1.062 -0.1708 -0.1267  0.3729
  338MOL0     C45507   9.099   2.966   1.191 -0.1516 -0.2862  0.4220
  338MOL0     C45508   8.983   2.977   1.301 -1.2675  0.7987 -0.1479
  338MOL0     C45509   9.033   2.890   1.423  0.9649 -0.6711  0.1082
  338MOL0     C45510   8.942   2.900   1.542 -0.6564  0.0303 -0.6210
  338MOL0     C45511   9.003   2.828   1.668 -0.2295 -0.5158 -0.7112
  338MOL0     N45512   8.916   2.838   1.778  0.6838 -0.3591  0.0113
  338MOL0     C45513   8.929   2.929   1.878 -0.2341 -0.5196  0.1572
  338MOL0     C45514   8.851   2.884   1.975 -0.3046  0.4889 -0.2053
  338MOL0     C45515   8.824   2.966   2.100 -0.1465 -0.7416  0.0092
  338MOL0     C45516   8.706   3.071   2.108  0.3458  0.1605  0.3700
  338MOL0     C45517   8.571   3.009   2.076  0.7094 -1.1555 -0.2219
  338MOL0     C45518   8.526   2.915   2.188 -1.0981 -0.6659 -0.1789
  338MOL0     O45519   8.487   3.000   2.295 -0.1377  0.0231 -0.5455
  338MOL0     C45520   8.422   2.937   2.400 -0.8556  0.1238 -0.2057
  338MOL0     C45521   8.328   3.009   2.477 -0.5145  0.5420  0.1922
  338MOL0     C45522   8.229   2.936   2.554  0.2902 -0.2429 -1.0831
  338MOL0     C45523   8.232   2.794   2.566 -0.6489 -1.4992 -0.9845
  338MOL0     C45524   8.135   2.722   2.648 -0.3245  0.6674  1.2409
  338MOL0     O45525   8.132   2.760   2.780 -0.3442  0.5962  0.0824
  338MOL0     C45526   8.027   2.722   2.853  0.0052  0.9543 -0.3923
  338MOL0     C45527   7.900   2.769   2.813  1.8088 -0.2593  0.3061
  338MOL0     C45528   7.785   2.720   2.879 -0.2891  0.8881 -0.0797
  338MOL0     C45529   7.796   2.611   2.970 -0.4037  0.1833  0.7400
  338MOL0     O45530   7.687   2.560   3.026  0.0415 -0.2223  0.4863
  338MOL0     C45531   7.638   2.432   2.973 -0.4243  0.2983  0.0649
  338MOL0     C45532   7.536   2.364   3.062  0.5763 -0.2635 -0.1581
  338MOL0     C45533   7.475   2.246   2.990  0.5552  0.3230 -0.2806
  338MOL0     C45534   7.408   2.168   3.103 -0.2025 -0.2540 -0.5094
  338MOL0     C45535   7.317   2.048   3.064  0.5358 -0.7446 -0.0000
  338MOL0     C45536   7.180   2.097   3.008 -0.2323 -0.1076 -0.3136
  338MOL0     C45537   7.068   1.993   2.983 -0.9805 -1.1673  0.3516
  338MOL0     C45538   7.122   1.879   2.896 -0.2725  0.6015 -0.0633
  338MOL0    Cl45539   6.976   1.790   2.833 -0.1897  0.3912  0.2019
  338MOL0     C45540   7.932   2.572   3.008  0.2626 -1.0092  0.0051
  338MOL0     C45541   8.042   2.621   2.944  0.0546 -0.2719  0.1895
  338MOL0     O45542   8.087   2.616   2.608 -0.6700  0.3190 -0.0120
  338MOL0     C45543   8.332   2.732   2.505  0.0160 -0.1512  0.1063
  338MOL0     C45544   8.423   2.796   2.422 -0.4516 -0.6331  0.5624
  338MOL0     N45545   8.781   2.767   1.938  0.0864 -0.3976  0.0091
  338MOL0     N45546   8.817   2.744   1.816  0.5026  0.1891  0.2702
  338MOL0     C45547   9.320   3.011   0.524 -0.4887  0.1464  0.3833
  338MOL0     C45548   9.349   3.077   0.406 -1.3132  0.8636 -0.3115
  338MOL0     C45549   9.329   3.324   0.024 -0.6265  0.9944  0.8960
  338MOL0     C45550   9.257   3.294  -0.094  0.4680  0.7010  0.2994
  338MOL0     C45551   9.310   3.320  -0.221  0.1615 -0.0006 -0.1918
  338MOL0     C45552   9.420   3.407  -0.227  0.2384  1.2103  0.0666
  338MOL0     O45553   9.464   3.472  -0.344 -0.1879  0.5874 -0.0018
  338MOL0     C45554   9.414   3.440  -0.473 -0.5357  0.3598  0.5894
  338MOL0     C45555   9.303   3.546  -0.514 -0.3327 -0.9536 -0.3540
  338MOL0     C45556   9.253   3.520  -0.656  0.6815 -0.4928 -0.1304
  338MOL0     C45557   9.191   3.381  -0.688 -0.7668 -0.4093  0.5073
  338MOL0     C45558   9.127   3.371  -0.824 -0.5036  0.3602 -0.4493
  338MOL0     C45559   9.088   3.358  -0.939 -0.0802  0.3342 -0.1619
  338MOL0     C45560   9.474   3.456  -0.113 -0.3046 -0.9572  0.0576
  338MOL0     C45561   9.439   3.406   0.013 -0.3394 -0.7205 -0.2425
  338MOL0     C45562   9.513   3.459   0.128  0.1369 -0.2993  0.0250
  338MOL0     H45563   9.292   3.399   0.484  4.2205  1.0050 -0.9649
  338MOL0     H45564   9.248   3.280   0.706 -1.8527 -2.1554  1.6311
  338MOL0     H45565   9.157   3.174   0.848  2.2510 -0.4457 -0.3671
  338MOL0     H45566   9.061   3.035   0.779 -0.9276 -1.4947  0.5113
  338MOL0     H45567   9.272   3.053   0.995  0.2735 -1.8054  1.7402
  338MOL0     H45568   9.194   2.903   0.945 -2.5204  0.3854 -1.6672
  338MOL0     H45569   8.977   2.999   1.021 -1.1139  2.7881 -0.7600
  338MOL0     H45570   9.060   3.150   1.074  1.3345  0.0277  0.2688
  338MOL0     H45571   9.100   2.861   1.162  0.2365  0.0866 -1.0089
  338MOL0     H45572   9.199   2.995   1.223  0.4911 -0.8193 -1.0218
  338MOL0     H45573   8.966   3.083   1.324 -1.7880  0.5169  0.7966
  338MOL0     H45574   8.887   2.942   1.260  0.0677  0.3235 -3.1970
  338MOL0     H45575   9.052   2.786   1.393  0.2657 -0.6017 -0.6121
  338MOL0     H45576   9.130   2.938   1.437  0.3136  2.1108 -3.2942
  338MOL0     H45577   8.844   2.856   1.523 -1.2471  1.7086 -1.6495
  338MOL0     H45578   8.920   3.006   1.553 -0.5930 -0.1483  1.8278
  338MOL0     H45579   9.025   2.723   1.647 -0.3176 -0.7588  0.3559
  338MOL0     H45580   9.092   2.878   1.706 -1.9031 -0.3958  3.6495
  338MOL0     H45581   8.997   3.014   1.869 -0.7668 -0.3141 -4.2155
  338MOL0     H45582   8.799   2.896   2.180 -0.4459  1.9716  2.4753
  338MOL0     H45583   8.916   3.015   2.135  1.3571 -3.2137 -0.2566
  338MOL0     H45584   8.694   3.127   2.201  0.9399  3.5014 -1.4106
  338MOL0     H45585   8.715   3.144   2.027  1.1448  0.9685  1.1690
  338MOL0     H45586   8.577   2.951   1.983  2.2296 -1.1622 -0.1447
  338MOL0     H45587   8.505   3.096   2.063 -0.2043 -2.1735 -3.4231
  338MOL0     H45588   8.599   2.843   2.226  0.6750  0.8716 -0.5495
  338MOL0     H45589   8.440   2.855   2.155 -1.7164 -1.5423  2.7291
  338MOL0     H45590   8.334   3.117   2.472  3.6433  0.5494  1.5138
  338MOL0     H45591   8.149   2.989   2.604 -0.9635 -2.2977 -0.8212
  338MOL0     H45592   7.885   2.841   2.734  0.6606  0.0934  0.8329
  338MOL0     H45593   7.685   2.754   2.853 -0.3451  0.9085  0.1594
  338MOL0     H45594   7.595   2.448   2.874  1.8421  0.8532 -0.9181
  338MOL0     H45595   7.719   2.359   2.963  0.6698  1.2223  1.6153
  338MOL0     H45596   7.582   2.339   3.158  3.5419  2.5782 -0.6296
  338MOL0     H45597   7.453   2.430   3.091 -0.8480 -2.8839  2.1886
  338MOL0     H45598   7.401   2.278   2.917  0.9496  2.3371  0.1387
  338MOL0     H45599   7.550   2.191   2.932  0.6027 -0.0510  0.1267
  338MOL0     H45600   7.335   2.234   3.151 -1.2206 -3.4043  2.6868
  338MOL0     H45601   7.478   2.141   3.183 -1.0883 -0.4735  0.2096
  338MOL0     H45602   7.300   1.981   3.148 -2.8554  0.4462  0.4389
  338MOL0     H45603   7.360   1.985   2.986 -2.3099  0.5600 -2.8913
  338MOL0     H45604   7.140   2.175   3.074 -0.9508 -1.5037  0.9753
  338MOL0     H45605   7.193   2.137   2.907 -1.0563 -0.2140 -0.4719
  338MOL0     H45606   6.984   2.030   2.923 -1.4374  2.0579  2.6428
  338MOL0     H45607   7.021   1.957   3.075 -1.5673 -0.7069  0.2453
  338MOL0     H45608   7.159   1.915   2.799  3.9074 -2.8819 -0.0134
  338MOL0     H45609   7.187   1.814   2.954  0.7853  1.3685 -0.3607
  338MOL0     H45610   7.953   2.498   3.086  1.1355 -0.3573  0.4071
  338MOL0     H45611   8.144   2.594   2.969  1.3903  4.2171  0.4910
  338MOL0     H45612   8.321   2.624   2.502 -0.7003 -0.1750  2.1269
  338MOL0     H45613   8.478   2.734   2.352  0.2703  0.1726  0.4102
  338MOL0     H45614   9.329   2.903   0.531 -0.5951 -0.2641 -3.5399
  338MOL0     H45615   9.384   3.026   0.317 -1.2038  0.1737  0.1207
  338MOL0     H45616   9.168   3.232  -0.097  0.0315  1.3516 -0.8912
  338MOL0     H45617   9.249   3.288  -0.305 -1.8178  0.9536  0.8299
  338MOL0     H45618   9.376   3.338  -0.489 -3.1449  0.9957  2.1563
  338MOL0     H45619   9.490   3.463  -0.548 -3.4658  0.2525 -2.6471
  338MOL0     H45620   9.358   3.640  -0.510  3.0507 -2.5723 -2.8438
  338MOL0     H45621   9.219   3.531  -0.446  1.3166  0.4999  2.1462
  338MOL0     H45622   9.333   3.541  -0.727 -0.4718  0.0886 -1.3101
  338MOL0     H45623   9.172   3.590  -0.680  0.3677 -1.1273 -0.9592
  338MOL0     H45624   9.260   3.296  -0.685 -2.5704 -1.9051  1.4238
  338MOL0     H45625   9.103   3.357  -0.629 -0.0963  0.1076  1.7540
  338MOL0     H45626   9.049   3.340  -1.037  0.4238  2.3425 -0.7870
  338MOL0     H45627   9.557   3.524  -0.126 -1.1431  0.4157  1.5385
  338MOL0     H45628   9.575   3.381   0.173  0.6461  0.2296  0.2433
  338MOL0     H45629   9.577   3.547   0.115 -1.9706  1.1788 -1.0057
  338MOL0     H45630   9.450   3.494   0.211  3.3599  0.1003  2.4739
  339MOL0     O45631   2.215   2.062   3.946 -0.7525 -0.6816  0.2160
  339MOL0     C45632   2.162   1.996   3.858  0.9064 -0.1984  0.0403
  339MOL0     O45633   2.228   1.919   3.766  0.3668  0.7794  0.0531
  339MOL0     C45634   2.358   1.945   3.746  0.3984 -0.9835  0.0529
  339MOL0     C45635   2.400   2.066   3.689 -0.4782 -0.5069  0.5714
  339MOL0     C45636   2.536   2.104   3.666 -0.3131 -0.2698  0.6660
  339MOL0     C45637   2.639   2.015   3.701 -0.4388 -0.6384  0.5835
  339MOL0     O45638   2.765   2.065   3.680 -0.5728 -0.2697  0.2736
  339MOL0     C45639   2.879   1.978   3.702 -0.4289  0.8015 -0.0379
  339MOL0     C45640   3.006   2.026   3.632 -0.2001 -0.6629  0.4079
  339MOL0     C45641   3.071   2.159   3.675 -0.7972 -0.3054 -0.1779
  339MOL0     C45642   3.076   2.177   3.827 -1.4537 -0.9508  0.5058
  339MOL0     C45643   3.109   2.318   3.873  0.2319  0.5393 -0.2523
  339MOL0     C45644   3.131   2.313   4.032 -0.0596  0.0133  0.7569
  339MOL0     C45645   3.095   2.460   4.080 -0.6335 -0.1289 -0.4390
  339MOL0     C45646   3.133   2.476   4.225 -0.9896  0.2357 -0.0794
  339MOL0     N45647   3.075   2.376   4.310 -0.0393  0.4729 -0.5106
  339MOL0     C45648   2.938   2.347   4.305 -0.6655 -0.0946  0.2724
  339MOL0     C45649   2.929   2.244   4.396  0.1478  0.8384 -0.2715
  339MOL0     C45650   2.798   2.179   4.446  0.6423 -0.2567 -0.3910
  339MOL0     C45651   2.787   2.199   4.602 -0.3277 -0.7123 -0.0285
  339MOL0     C45652   2.853   2.097   4.694  0.8413  1.0675 -0.3654
  339MOL0     C45653   2.833   2.123   4.843  0.6782 -0.0108 -0.6776
  339MOL0     O45654   2.869   2.261   4.872  0.1027  0.2094 -0.5934
  339MOL0     C45655   2.992   2.310   4.911  0.5367  0.3982  0.4347
  339MOL0     C45656   3.109   2.233   4.905 -0.0508 -0.2082 -0.9248
  339MOL0     C45657   3.235   2.283   4.950 -0.3567 -0.0728  0.9067
  339MOL0     C45658   3.236   2.419   4.994 -0.2711 -0.9811 -1.4387
  339MOL0     C45659   3.360   2.486   5.030  0.7427  0.6682  0.4168
  339MOL0     O45660   3.470   2.404   5.037  0.1185  0.6522 -0.0400
  339MOL0     C45661   3.605   2.445   5.045  0.7441  0.1183  0.5385
  339MOL0     C45662   3.648   2.572   4.996  0.9712  0.9400  0.6052
  339MOL0     C45663   3.780   2.609   5.004 -0.1365 -0.4653  0.4979
  339MOL0     C45664   3.878   2.523   5.055 -0.6259 -0.1053 -0.1026
  339MOL0     O45665   4.012   2.562   5.056  0.1205 -0.4491  0.5277
  339MOL0     C45666   4.107   2.459   5.019 -0.7308 -0.3282 -0.5226
  339MOL0     C45667   4.239   2.528   5.029 -0.6084  0.2533  0.5607
  339MOL0     C45668   4.306   2.511   5.165 -0.2955  0.1038 -0.5140
  339MOL0     C45669   4.448   2.557   5.150  0.2503  0.4284 -0.1147
  339MOL0     C45670   4.491   2.554   5.299  0.5665 -0.2932  0.4849
  339MOL0     C45671   4.635   2.609   5.318 -0.2893 -0.1007  0.3103
  339MOL0     C45672   4.674   2.628   5.461  0.1936 -0.5010  0.8149
  339MOL0     C45673   4.799   2.714   5.486 -0.4134  0.6881 -0.1425
  339MOL0    Cl45674   4.816   2.739   5.663 -0.4612 -0.0458  0.9955
  339MOL0     C45675   3.828   2.401   5.095 -0.6815  0.7613 -0.4904
  339MOL0     C45676   3.698   2.356   5.098  0.3750 -0.5123  0.3267
  339MOL0     O45677   3.365   2.601   5.066 -0.3862  0.0577 -0.4443
  339MOL0     C45678   3.120   2.490   5.012 -0.2839 -0.5137  0.2389
  339MOL0     C45679   3.005   2.435   4.963  0.4583  1.0796  0.5462
  339MOL0     N45680   3.055   2.203   4.442 -0.0434 -0.2815 -0.0735
  339MOL0     N45681   3.145   2.281   4.382  0.0144  0.0200 -0.3138
  339MOL0     C45682   2.598   1.891   3.752  0.8533  0.5457  0.9102
  339MOL0     C45683   2.464   1.853   3.766  0.9504  0.2796  0.4602
  339MOL0     C45684   2.009   1.988   3.872  0.1998  0.0359 -0.0242
  339MOL0     C45685   1.962   1.982   4.006 -0.0230 -0.4192  0.5167
  339MOL0     C45686   1.823   1.973   4.035 -0.0910  0.3976 -0.0163
  339MOL0     C45687   1.727   1.967   3.930  0.3744 -0.0324 -0.4277
  339MOL0     O45688   1.595   1.942   3.950 -0.8919 -0.2292  0.7624
  339MOL0     C45689   1.547   1.938   4.088  0.2405  0.1110  0.5288
  339MOL0     C45690   1.398   1.910   4.094 -0.5007 -0.9234  0.1432
  339MOL0     C45691   1.318   2.028   4.040  0.3373 -0.4490 -0.2919
  339MOL0     C45692   1.280   2.030   3.890 -0.0814 -1.1174  0.5524
  339MOL0     C45693   1.178   1.926   3.853  0.2088  1.0586 -0.6489
  339MOL0     C45694   1.104   1.838   3.821  1.3687  0.0912 -0.2335
  339MOL0     C45695   1.775   1.980   3.797  0.3185  0.6854 -0.1081
  339MOL0     C45696   1.912   1.992   3.762 -1.5050  0.1401 -0.3596
  339MOL0     C45697   1.953   2.008   3.627  0.3469 -0.6458  0.5449
  339MOL0     H45698   2.326   2.143   3.676 -0.6038 -0.6770  0.2542
  339MOL0     H45699   2.570   2.192   3.613  0.1875  0.9607  2.9294
  339MOL0     H45700   2.896   1.952   3.807  0.3125  1.1521 -0.0665
  339MOL0     H45701   2.848   1.884   3.655 -0.7135  0.0156  1.6272
  339MOL0     H45702   2.969   2.045   3.531  0.4021 -0.9194  0.1310
  339MOL0     H45703   3.085   1.952   3.613  0.0834 -0.6108  1.3179
  339MOL0     H45704   3.007   2.242   3.643  0.8578  0.5945 -1.2746
  339MOL0     H45705   3.175   2.167   3.643  0.3813 -2.5518  2.6061
  339MOL0     H45706   2.980   2.155   3.874 -0.3269 -1.5704  2.6690
  339MOL0     H45707   3.159   2.116   3.866  2.6003  2.9745 -1.0858
  339MOL0     H45708   3.198   2.354   3.823  0.0862  2.7823  0.9550
  339MOL0     H45709   3.023   2.382   3.851  0.0862  0.2295 -0.5846
  339MOL0     H45710   3.060   2.245   4.080 -1.5136  0.2921 -0.8962
  339MOL0     H45711   3.232   2.286   4.064 -0.3655  0.3284  2.0727
  339MOL0     H45712   2.988   2.478   4.066 -1.0447 -1.6288  0.6324
  339MOL0     H45713   3.151   2.535   4.022 -0.5249  1.9818  2.2042
  339MOL0     H45714   3.241   2.473   4.235 -0.9518  2.5601  0.7348
  339MOL0     H45715   3.128   2.576   4.269  0.4503 -0.5010  1.8505
  339MOL0     H45716   2.858   2.389   4.245 -0.1673 -1.1964 -1.2036
  339MOL0     H45717   2.718   2.236   4.398  1.1807 -0.3354 -1.4029
  339MOL0     H45718   2.792   2.071   4.429  2.6104 -0.1891 -1.7907
  339MOL0     H45719   2.829   2.296   4.632 -1.7545 -0.3213  0.7890
  339MOL0     H45720   2.683   2.211   4.633 -0.4569  1.9237 -1.1870
  339MOL0     H45721   2.961   2.085   4.680  1.4739  1.5652  3.0287
  339MOL0     H45722   2.801   2.004   4.670  3.6843 -1.0310  0.8938
  339MOL0     H45723   2.896   2.053   4.898 -0.0358 -1.8280 -2.0761
  339MOL0     H45724   2.728   2.103   4.868  0.5968  1.9321  0.7771
  339MOL0     H45725   3.107   2.131   4.868  1.8286 -0.7226  0.2668
  339MOL0     H45726   3.325   2.226   4.931 -0.6716  0.2181 -1.7318
  339MOL0     H45727   3.571   2.633   4.949 -0.7120 -1.9174 -0.6022
  339MOL0     H45728   3.801   2.705   4.958  0.5527 -1.0060 -0.3381
  339MOL0     H45729   4.104   2.367   5.078  1.2612 -1.0640 -1.4787
  339MOL0     H45730   4.090   2.417   4.920  0.8185 -0.7826 -0.6128
  339MOL0     H45731   4.307   2.474   4.962 -1.5955 -0.3734  0.0428
  339MOL0     H45732   4.248   2.630   4.992  3.4410 -0.2340 -0.2973
  339MOL0     H45733   4.263   2.582   5.236 -0.9070 -1.1013  0.3631
  339MOL0     H45734   4.314   2.406   5.196 -0.4697 -0.1195 -1.2088
  339MOL0     H45735   4.453   2.664   5.128  0.3423  0.8602  1.8373
  339MOL0     H45736   4.521   2.505   5.087  0.1263  0.7108 -0.4981
  339MOL0     H45737   4.477   2.453   5.340  0.3375  0.1656  1.5647
  339MOL0     H45738   4.435   2.625   5.360  2.2411  0.5853  1.0786
  339MOL0     H45739   4.705   2.538   5.274 -0.1792  0.8151 -1.0572
  339MOL0     H45740   4.635   2.707   5.268  0.6197 -0.5088 -0.5166
  339MOL0     H45741   4.697   2.528   5.498 -0.4032 -1.3129 -0.9000
  339MOL0     H45742   4.591   2.665   5.522  0.0559 -2.3462  1.8104
  339MOL0     H45743   4.888   2.669   5.440 -0.3889  1.6959 -1.1139
  339MOL0     H45744   4.797   2.812   5.438  1.2267 -1.6498 -5.8388
  339MOL0     H45745   3.898   2.335   5.145 -1.7103  2.1921  3.1645
  339MOL0     H45746   3.666   2.268   5.153 -2.4220  0.8026  0.9878
  339MOL0     H45747   3.110   2.591   5.051 -1.7040 -0.6106  0.1815
  339MOL0     H45748   2.913   2.492   4.969 -1.3706 -1.5756 -0.4000
  339MOL0     H45749   2.674   1.816   3.771  0.8416  0.1617 -0.4234
  339MOL0     H45750   2.436   1.753   3.796  0.5902 -0.0862 -1.0216
  339MOL0     H45751   2.023   1.996   4.095 -0.4190  1.3886  0.5497
  339MOL0     H45752   1.794   1.981   4.140  2.3833  2.5466  0.6026
  339MOL0     H45753   1.566   2.033   4.139  1.0001 -0.2751  0.9804
  339MOL0     H45754   1.598   1.854   4.137 -2.6048 -4.0049 -2.8304
  339MOL0     H45755   1.379   1.895   4.200 -2.7074 -2.2170 -0.3813
  339MOL0     H45756   1.367   1.825   4.033  1.4931 -0.6214 -1.4182
  339MOL0     H45757   1.372   2.121   4.062  0.6539 -1.1384  2.1848
  339MOL0     H45758   1.229   2.031   4.103 -0.6313 -2.5827 -1.4468
  339MOL0     H45759   1.240   2.127   3.860 -0.1675 -1.6350 -1.1605
  339MOL0     H45760   1.364   2.011   3.822  0.3460  0.8150  0.4907
  339MOL0     H45761   1.032   1.764   3.793  1.4945  0.0833 -0.5314
  339MOL0     H45762   1.703   1.963   3.717 -3.6256  2.4378  2.7380
  339MOL0     H45763   1.915   1.922   3.570 -1.3656 -0.6657  1.6391
  339MOL0     H45764   1.913   2.101   3.585  0.9962 -2.1566 -3.9099
  339MOL0     H45765   2.061   2.009   3.611  0.9822 -0.6565  4.0412
  340MOL0     O45766   1.066   1.552   2.178  0.1720 -0.2034 -0.1589
  340MOL0     C45767   1.090   1.564   2.061  0.2149 -0.0388  0.5981
  340MOL0     O45768   1.214   1.556   2.005 -0.4672 -0.6364 -0.3115
  340MOL0     C45769   1.319   1.577   2.086 -0.3243 -0.0061 -0.9148
  340MOL0     C45770   1.369   1.705   2.098  0.5883  0.1233  0.2697
  340MOL0     C45771   1.475   1.733   2.184  0.4738  0.7153 -0.0710
  340MOL0     C45772   1.539   1.627   2.258 -0.2374 -0.1629  0.2066
  340MOL0     O45773   1.640   1.647   2.352  0.2480 -0.3133 -0.5824
  340MOL0     C45774   1.715   1.769   2.354  0.3686  0.3539 -0.6198
  340MOL0     C45775   1.782   1.789   2.492 -0.3095 -0.0395  0.5232
  340MOL0     C45776   1.838   1.931   2.510  0.5912  0.6171  0.5430
  340MOL0     C45777   1.931   1.928   2.626 -0.0354 -0.2434 -0.8809
  340MOL0     C45778   2.008   2.059   2.636  0.5255 -0.1274 -1.0711
  340MOL0     C45779   2.116   2.047   2.741 -0.1700  0.0306 -0.5752
  340MOL0     C45780   2.173   2.185   2.768  0.2356  0.2349 -0.4854
  340MOL0     C45781   2.290   2.180   2.870  0.6035  0.5046  0.2779
  340MOL0     N45782   2.246   2.174   3.008 -0.0182 -0.5252  0.1381
  340MOL0     C45783   2.137   2.248   3.059 -0.4757  0.2415 -0.9089
  340MOL0     C45784   2.132   2.214   3.191  1.3288  0.0536  0.0237
  340MOL0     C45785   2.029   2.248   3.285  0.4253 -0.1752 -0.6377
  340MOL0     C45786   2.054   2.374   3.366  1.5597 -1.0846  0.2108
  340MOL0     C45787   2.174   2.373   3.466  0.5197  0.1138  0.1376
  340MOL0     C45788   2.196   2.508   3.538 -0.3453 -0.4697 -0.3345
  340MOL0     O45789   2.267   2.471   3.657  0.2556  0.0798  0.2811
  340MOL0     C45790   2.277   2.563   3.758  0.3851 -0.1893 -0.6184
  340MOL0     C45791   2.355   2.524   3.869  0.2225  0.2225  0.9623
  340MOL0     C45792   2.375   2.602   3.983  1.1952 -0.0680 -0.4667
  340MOL0     C45793   2.321   2.736   3.983 -0.8302 -0.0556  0.2626
  340MOL0     C45794   2.337   2.813   4.100  0.3133 -0.3932  0.1154
  340MOL0     O45795   2.321   2.947   4.071 -0.9540 -0.3041  0.0176
  340MOL0     C45796   2.301   3.042   4.165 -0.1758  0.4202 -0.4035
  340MOL0     C45797   2.229   3.015   4.281  0.1188 -0.5463  0.0804
  340MOL0     C45798   2.220   3.119   4.372 -0.1128  0.1439 -0.1093
  340MOL0     C45799   2.291   3.241   4.350  0.1536  0.2226  0.8098
  340MOL0     O45800   2.272   3.354   4.424 -0.0994 -0.0355 -0.0767
  340MOL0     C45801   2.148   3.354   4.498  0.7946  0.6197 -0.8418
  340MOL0     C45802   2.136   3.475   4.587 -0.1404 -0.3621 -0.5685
  340MOL0     C45803   1.995   3.493   4.633  0.2514 -0.8498 -0.1118
  340MOL0     C45804   1.962   3.608   4.737 -0.1410  0.2441  0.3385
  340MOL0     C45805   1.813   3.637   4.743  0.2415 -0.1501  1.2481
  340MOL0     C45806   1.773   3.718   4.867  0.5292 -0.8768 -0.1494
  340MOL0     C45807   1.682   3.835   4.841  0.2773  0.1380  0.6224
  340MOL0     C45808   1.551   3.808   4.768  0.0723  0.3846 -0.2503
  340MOL0    Cl45809   1.456   3.717   4.894  0.0231  0.0608 -0.6926
  340MOL0     C45810   2.372   3.251   4.241  2.0022  0.0645 -0.4905
  340MOL0     C45811   2.379   3.150   4.151 -0.8846 -0.0977  0.8227
  340MOL0     O45812   2.347   2.767   4.211  0.0433  0.2474 -1.1306
  340MOL0     C45813   2.247   2.772   3.871  0.9770 -0.1381  0.9617
  340MOL0     C45814   2.226   2.691   3.760 -0.1932  0.4452  0.0718
  340MOL0     N45815   2.226   2.117   3.216 -0.3240  0.5055 -0.5882
  340MOL0     N45816   2.289   2.091   3.103 -0.0701 -0.8177  0.5629
  340MOL0     C45817   1.495   1.499   2.227 -0.0718 -0.2797 -0.8000
  340MOL0     C45818   1.387   1.475   2.146  0.1215  0.3663 -0.3627
  340MOL0     C45819   0.973   1.586   1.961 -0.3133  0.4357  0.1868
  340MOL0     C45820   0.846   1.614   2.014  0.4233 -0.1933  0.0707
  340MOL0     C45821   0.740   1.652   1.927  0.4044 -0.3324  0.7369
  340MOL0     C45822   0.752   1.656   1.789 -0.8532 -0.5868 -0.5629
  340MOL0     O45823   0.644   1.698   1.713  0.1275  0.7380  0.4089
  340MOL0     C45824   0.609   1.632   1.590 -0.3313  0.1562 -0.1240
  340MOL0     C45825   0.617   1.716   1.471 -0.8847 -0.1832  0.5429
  340MOL0     C45826   0.509   1.835   1.473 -0.3051  0.1900  0.9198
  340MOL0     C45827   0.371   1.782   1.422 -0.7715 -0.0151  0.1644
  340MOL0     C45828   0.266   1.884   1.434 -0.1245  0.5974  0.3065
  340MOL0     C45829   0.185   1.968   1.456 -0.5410  0.0961 -0.2316
  340MOL0     C45830   0.877   1.628   1.733 -0.1937  0.4636  0.0821
  340MOL0     C45831   0.987   1.597   1.816 -0.4247  0.6958 -0.2536
  340MOL0     C45832   1.128   1.581   1.749  0.3421 -0.1101 -0.1562
  340MOL0     H45833   1.325   1.793   2.052  2.9593  2.3900  2.0681
  340MOL0     H45834   1.506   1.837   2.181 -1.0021  1.2019  0.5140
  340MOL0     H45835   1.787   1.767   2.272 -0.1064  1.0485 -1.0646
  340MOL0     H45836   1.651   1.856   2.336 -1.2375 -0.3324  1.4396
  340MOL0     H45837   1.859   1.711   2.496 -0.3975 -0.1502  0.1409
  340MOL0     H45838   1.700   1.774   2.563 -1.3194  1.1133 -0.3503
  340MOL0     H45839   1.752   1.994   2.534  0.1941  1.7015 -3.1754
  340MOL0     H45840   1.883   1.961   2.415 -2.8945 -1.9268 -2.1952
  340MOL0     H45841   1.870   1.910   2.715 -0.9221  0.9208 -1.2277
  340MOL0     H45842   2.006   1.851   2.608  2.1745  1.5039  0.2159
  340MOL0     H45843   2.055   2.094   2.544 -1.1427  2.0186 -1.1732
  340MOL0     H45844   1.926   2.128   2.656 -0.5931 -0.5400 -3.8197
  340MOL0     H45845   2.080   2.014   2.839  0.4342  0.7176 -0.1082
  340MOL0     H45846   2.201   1.983   2.715  0.2432  0.7771 -1.1195
  340MOL0     H45847   2.086   2.244   2.797 -2.3305 -3.4243 -0.1549
  340MOL0     H45848   2.221   2.222   2.677  2.1150  1.1475  0.7959
  340MOL0     H45849   2.361   2.103   2.838  1.2159  1.6573 -1.2693
  340MOL0     H45850   2.339   2.274   2.847 -0.7603  1.1257 -0.1900
  340MOL0     H45851   2.074   2.313   2.999 -1.6973 -0.9064 -0.9182
  340MOL0     H45852   1.938   2.264   3.225 -0.5813  0.6533  1.0506
  340MOL0     H45853   2.014   2.159   3.346 -0.1774 -0.4214 -1.1327
  340MOL0     H45854   2.069   2.462   3.303 -0.0873  0.4064  1.7829
  340MOL0     H45855   1.956   2.392   3.410 -1.8581  1.5402 -6.8783
  340MOL0     H45856   2.273   2.343   3.430  0.4692 -0.4173  0.4434
  340MOL0     H45857   2.137   2.303   3.541 -1.5977 -1.6299 -2.3769
  340MOL0     H45858   2.095   2.543   3.559 -1.0814 -2.7603  0.2731
  340MOL0     H45859   2.265   2.576   3.487  0.7374  1.1015  2.9533
  340MOL0     H45860   2.391   2.424   3.847 -0.3571  0.4843 -1.5012
  340MOL0     H45861   2.431   2.563   4.068  2.3623  1.7466 -0.3566
  340MOL0     H45862   2.178   2.921   4.303 -2.1681  0.1344 -1.7813
  340MOL0     H45863   2.162   3.101   4.462 -0.9784 -0.6565 -0.7980
  340MOL0     H45864   2.064   3.339   4.430  0.9014  1.7816 -1.2633
  340MOL0     H45865   2.157   3.275   4.573 -0.0661  1.8723  0.6571
  340MOL0     H45866   2.197   3.453   4.675  2.1319  2.8798 -1.1652
  340MOL0     H45867   2.180   3.560   4.535 -1.2629  0.1900 -0.6458
  340MOL0     H45868   1.940   3.503   4.539  2.1568 -0.8994 -1.2874
  340MOL0     H45869   1.958   3.398   4.672 -0.4849 -0.0462  1.2300
  340MOL0     H45870   2.019   3.696   4.706 -1.5545  1.1622  0.2249
  340MOL0     H45871   1.993   3.585   4.839 -1.8732  1.9021  1.3163
  340MOL0     H45872   1.748   3.549   4.733  1.7457 -1.0821 -1.6009
  340MOL0     H45873   1.800   3.696   4.652  2.7614 -0.3722  0.6912
  340MOL0     H45874   1.718   3.652   4.934  2.8557 -1.2464  1.5031
  340MOL0     H45875   1.863   3.767   4.905  0.6426  0.5311 -2.0758
  340MOL0     H45876   1.731   3.905   4.772  1.2825 -0.8439  0.3132
  340MOL0     H45877   1.659   3.888   4.933 -1.2394 -0.0977  0.4017
  340MOL0     H45878   1.512   3.906   4.743  0.5501  1.7162  3.5055
  340MOL0     H45879   1.560   3.749   4.676 -2.3458  2.1197 -1.6962
  340MOL0     H45880   2.432   3.339   4.218 -0.8723  2.1386 -0.7088
  340MOL0     H45881   2.448   3.151   4.067 -1.7496  0.5499  0.1111
  340MOL0     H45882   2.187   2.862   3.878 -0.2136 -0.7469 -0.6341
  340MOL0     H45883   2.172   2.745   3.684 -2.9624 -0.2998  1.3676
  340MOL0     H45884   1.540   1.414   2.278  0.9938 -0.7370 -2.4007
  340MOL0     H45885   1.351   1.373   2.134  1.4261  0.1854 -4.0224
  340MOL0     H45886   0.820   1.602   2.119 -2.3595 -1.8061 -0.7063
  340MOL0     H45887   0.643   1.682   1.966  1.3571  1.5367  1.8309
  340MOL0     H45888   0.508   1.594   1.603  0.0138 -0.5907  0.4786
  340MOL0     H45889   0.670   1.542   1.575 -3.0019 -1.5541 -1.5742
  340MOL0     H45890   0.613   1.657   1.379  2.0155 -1.7864  1.3052
  340MOL0     H45891   0.709   1.774   1.464 -1.1715  0.6518  2.8576
  340MOL0     H45892   0.546   1.916   1.410  2.4783 -1.9972 -0.4753
  340MOL0     H45893   0.507   1.871   1.576  0.7986  0.3464  0.9015
  340MOL0     H45894   0.374   1.744   1.319  2.3531  1.1685 -0.2817
  340MOL0     H45895   0.341   1.702   1.490  0.3670  0.0491  0.7602
  340MOL0     H45896   0.114   2.045   1.477 -1.0515 -1.0273  2.6076
  340MOL0     H45897   0.889   1.626   1.625 -0.7975  0.6542  0.0094
  340MOL0     H45898   1.192   1.666   1.773 -0.7586 -0.0936  3.3602
  340MOL0     H45899   1.173   1.491   1.792  1.1151  1.4790  2.6001
  340MOL0     H45900   1.124   1.571   1.640 -3.4845 -3.0880  0.0405
  341MOL0     O45901   5.218   9.421   2.816  0.3821 -0.4793 -0.1744
  341MOL0     C45902   5.241   9.307   2.789  0.0432 -0.1958  0.4897
  341MOL0     O45903   5.349   9.265   2.713  1.1971  0.6358 -0.3862
  341MOL0     C45904   5.446   9.355   2.685  1.0471  0.0853  0.5192
  341MOL0     C45905   5.554   9.388   2.764  0.9108  0.1627 -0.7803
  341MOL0     C45906   5.653   9.483   2.713 -0.5893  0.3717 -0.0874
  341MOL0     C45907   5.634   9.542   2.586 -0.2498  0.5023 -0.1456
  341MOL0     O45908   5.723   9.633   2.540  0.2713 -0.4076  0.1245
  341MOL0     C45909   5.667   9.747   2.465 -1.0897 -0.1203  0.0140
  341MOL0     C45910   5.753   9.873   2.465  0.1553  0.5236 -0.1241
  341MOL0     C45911   5.897   9.863   2.423  0.3114  0.8580  0.4568
  341MOL0     C45912   5.969   9.990   2.412 -0.7246 -1.0364  0.7609
  341MOL0     C45913   6.116   9.974   2.384 -0.2050  0.5704  1.0315
  341MOL0     C45914   6.161   9.950   2.239  0.0386 -0.6551 -0.3667
  341MOL0     C45915   6.313   9.933   2.240  0.6030  0.4261 -0.6407
  341MOL0     C45916   6.359   9.782   2.221 -0.9558  0.5111 -0.4768
  341MOL0     N45917   6.318   9.727   2.091 -0.7395  1.0932 -0.3927
  341MOL0     C45918   6.358   9.782   1.967  0.5770  0.3206 -0.1246
  341MOL0     C45919   6.317   9.683   1.879  0.1513  0.8872 -0.3797
  341MOL0     C45920   6.312   9.682   1.728  0.7957  0.8279  1.2785
  341MOL0     C45921   6.457   9.714   1.686 -0.0493 -0.0443  0.1283
  341MOL0     C45922   6.470   9.750   1.538  0.5619  0.4420 -0.0010
  341MOL0     C45923   6.537   9.646   1.447  0.4947 -1.1853  0.7268
  341MOL0     O45924   6.567   9.709   1.322 -0.0875 -0.1761 -0.3924
  341MOL0     C45925   6.467   9.718   1.225  0.7974 -0.2256 -0.4078
  341MOL0     C45926   6.337   9.670   1.250  0.1704  0.2096  0.0860
  341MOL0     C45927   6.231   9.661   1.159 -0.4660 -0.4969 -0.7321
  341MOL0     C45928   6.244   9.714   1.033 -0.6542 -1.3223 -0.1186
  341MOL0     C45929   6.139   9.717   0.932  0.2076 -0.5169  0.0680
  341MOL0     O45930   6.008   9.685   0.963 -0.3955 -0.2049 -0.1756
  341MOL0     C45931   5.907   9.723   0.875 -0.2498 -0.1183  0.2945
  341MOL0     C45932   5.900   9.821   0.766 -0.2125  0.2415  0.2668
  341MOL0     C45933   5.785   9.826   0.685  0.1829  0.0267  0.1942
  341MOL0     C45934   5.673   9.754   0.715  0.6210  0.1885 -0.7756
  341MOL0     O45935   5.544   9.752   0.661 -0.0998  0.3865 -0.3760
  341MOL0     C45936   5.521   9.795   0.527  0.1627 -0.3059  0.5421
  341MOL0     C45937   5.590   9.714   0.414 -0.2264  0.9052 -1.2342
  341MOL0     C45938   5.585   9.788   0.286  0.1601  0.1840  0.0637
  341MOL0     C45939   5.664   9.917   0.272 -0.3149  0.7664  0.0696
  341MOL0     C45940   5.674   9.965   0.127  0.4271  0.8527 -0.1169
  341MOL0     C45941   5.817  10.027   0.114  0.7839  0.5720  0.5311
  341MOL0     C45942   5.833  10.084  -0.032  0.1016  0.5744 -0.7311
  341MOL0     C45943   5.982  10.085  -0.062 -0.3076 -0.8738 -0.5454
  341MOL0    Cl45944   6.056  10.207   0.041  0.4324  0.6544 -0.2334
  341MOL0     C45945   5.680   9.667   0.821 -0.2603 -0.6956  0.6412
  341MOL0     C45946   5.790   9.659   0.904  0.7185  1.0623  0.0113
  341MOL0     O45947   6.178   9.755   0.820  0.0161 -0.0306 -0.3103
  341MOL0     C45948   6.379   9.764   1.002  0.7948  0.1373  0.3357
  341MOL0     C45949   6.482   9.766   1.099  0.8157  0.0437  0.7437
  341MOL0     N45950   6.233   9.597   1.948 -0.5565 -0.7228  0.1879
  341MOL0     N45951   6.237   9.621   2.078  0.1643 -0.5056  0.3811
  341MOL0     C45952   5.521   9.504   2.510 -0.0316 -0.0468 -0.0133
  341MOL0     C45953   5.434   9.410   2.559  0.9542 -0.4698  0.1348
  341MOL0     C45954   5.145   9.203   2.832 -0.2354  0.5005  0.4980
  341MOL0     C45955   5.156   9.080   2.754  0.6271 -0.5203  0.6996
  341MOL0     C45956   5.064   8.977   2.773 -0.3478 -0.0449 -0.1347
  341MOL0     C45957   4.967   8.985   2.877 -0.9792 -0.2125  0.2226
  341MOL0     O45958   4.899   8.863   2.894  0.1649 -0.2133  0.0723
  341MOL0     C45959   4.794   8.870   2.984  0.8729  0.1432  0.0951
  341MOL0     C45960   4.725   8.734   2.988 -1.0053  0.1622  0.4205
  341MOL0     C45961   4.818   8.633   3.068  0.8233 -0.4457 -0.7053
  341MOL0     C45962   4.734   8.498   3.089  0.2265  0.3591 -0.4650
  341MOL0     C45963   4.704   8.432   2.967 -0.6752 -0.8158  0.3747
  341MOL0     C45964   4.650   8.400   2.864 -0.5672 -1.1007 -0.3907
  341MOL0     C45965   4.960   9.106   2.954  0.9070 -0.7191 -0.4495
  341MOL0     C45966   5.048   9.214   2.933  0.6065  0.2451 -0.3403
  341MOL0     C45967   5.031   9.330   3.021 -0.4924 -0.1782 -0.6244
  341MOL0     H45968   5.563   9.338   2.860 -1.6950  0.2655 -0.4225
  341MOL0     H45969   5.751   9.503   2.756 -0.6386  2.7769 -0.9308
  341MOL0     H45970   5.638   9.716   2.364 -1.6041 -1.8049  0.6541
  341MOL0     H45971   5.571   9.774   2.511 -1.1012  1.3749 -0.8277
  341MOL0     H45972   5.755   9.924   2.562 -0.1739  2.9089 -1.2967
  341MOL0     H45973   5.695   9.935   2.396 -0.3328  2.4505  1.8813
  341MOL0     H45974   5.895   9.811   2.326  1.5386  1.4913  0.0664
  341MOL0     H45975   5.956   9.798   2.488  1.8039  1.0503 -0.6524
  341MOL0     H45976   5.926  10.067   2.347  3.3237 -0.5075 -1.6414
  341MOL0     H45977   5.957  10.034   2.512 -1.4024 -0.9275  0.6362
  341MOL0     H45978   6.176  10.059   2.417  0.4721  0.2739  0.5699
  341MOL0     H45979   6.155   9.884   2.433  1.5994 -1.4606 -3.5716
  341MOL0     H45980   6.108   9.862   2.204 -1.3273  0.4818 -1.2840
  341MOL0     H45981   6.132  10.034   2.174 -1.0049 -0.1186  0.7681
  341MOL0     H45982   6.352   9.976   2.333 -2.4064 -2.5689  2.2605
  341MOL0     H45983   6.360   9.991   2.159 -0.4387  2.9657  0.4772
  341MOL0     H45984   6.467   9.785   2.233 -0.5968 -0.2958 -2.8942
  341MOL0     H45985   6.334   9.715   2.305 -0.1818  2.2590  1.2068
  341MOL0     H45986   6.410   9.873   1.941 -0.4939  0.5800 -1.4534
  341MOL0     H45987   6.284   9.585   1.684 -0.5555  1.2410  1.1781
  341MOL0     H45988   6.246   9.756   1.683  2.7482 -0.2519 -4.3000
  341MOL0     H45989   6.502   9.794   1.745 -1.9104  1.0607  0.1489
  341MOL0     H45990   6.514   9.625   1.710  0.2716 -1.0922 -3.7737
  341MOL0     H45991   6.536   9.837   1.534  1.1304  0.0141 -0.0518
  341MOL0     H45992   6.379   9.785   1.489  0.5754 -0.6448 -0.8434
  341MOL0     H45993   6.471   9.562   1.425  1.6670 -1.1654 -3.8046
  341MOL0     H45994   6.630   9.618   1.497  1.6557  1.8692  0.4898
  341MOL0     H45995   6.305   9.636   1.348 -0.4571  0.6828  0.0459
  341MOL0     H45996   6.134   9.623   1.190 -1.5135  3.7340  2.1848
  341MOL0     H45997   5.988   9.877   0.734 -0.5285  0.9535  0.6363
  341MOL0     H45998   5.771   9.894   0.601 -0.8167 -0.9529 -0.4708
  341MOL0     H45999   5.415   9.784   0.507  0.0698 -0.2403  0.9737
  341MOL0     H46000   5.547   9.901   0.527 -1.4022  0.0983  0.8520
  341MOL0     H46001   5.691   9.685   0.442 -1.5292 -3.7618 -0.5338
  341MOL0     H46002   5.538   9.618   0.405 -0.9376  0.7338  2.9014
  341MOL0     H46003   5.615   9.724   0.203  1.9670  0.4155  0.4801
  341MOL0     H46004   5.481   9.811   0.263 -0.2646  0.8777  2.3827
  341MOL0     H46005   5.767   9.899   0.306  0.6634 -0.1374 -3.0634
  341MOL0     H46006   5.626   9.995   0.339 -1.8879  0.4541 -0.4283
  341MOL0     H46007   5.608  10.047   0.099 -1.0138 -0.3595 -0.4179
  341MOL0     H46008   5.661   9.883   0.056  0.5275  0.7596 -0.0275
  341MOL0     H46009   5.829  10.119   0.172  0.2980  0.5669  0.6437
  341MOL0     H46010   5.901   9.958   0.120  1.5035  1.2500 -1.1201
  341MOL0     H46011   5.793  10.185  -0.040 -2.2196 -0.1239  0.9949
  341MOL0     H46012   5.789  10.013  -0.104  0.3778 -0.9787  0.5759
  341MOL0     H46013   6.024   9.986  -0.043 -0.5182 -0.8636 -0.0148
  341MOL0     H46014   6.000  10.113  -0.166 -0.8173 -0.7030 -0.5908
  341MOL0     H46015   5.598   9.606   0.858  0.6672 -1.1295  2.0318
  341MOL0     H46016   5.774   9.600   0.993 -2.0190 -1.5297 -2.0024
  341MOL0     H46017   6.403   9.808   0.906  3.6781 -2.7886 -0.4577
  341MOL0     H46018   6.581   9.800   1.071  0.7803 -0.0881  0.4552
  341MOL0     H46019   5.488   9.538   2.412  0.0738 -1.7184 -0.6646
  341MOL0     H46020   5.352   9.375   2.498  0.0437  2.0390 -0.2053
  341MOL0     H46021   5.220   9.078   2.666  0.1748 -2.1908  0.3714
  341MOL0     H46022   5.056   8.891   2.706 -3.0443  0.9289 -1.2104
  341MOL0     H46023   4.717   8.947   2.972  1.3512  1.3239  3.5274
  341MOL0     H46024   4.834   8.881   3.085  0.3255 -0.7735  0.4200
  341MOL0     H46025   4.699   8.700   2.888  1.5520  2.7135 -1.2756
  341MOL0     H46026   4.634   8.750   3.046 -0.6134 -1.3944  1.5252
  341MOL0     H46027   4.839   8.676   3.166 -1.0035 -1.3794  0.1552
  341MOL0     H46028   4.909   8.606   3.014  1.1400  1.8246 -1.4272
  341MOL0     H46029   4.795   8.428   3.148 -0.5573 -0.7178 -0.8955
  341MOL0     H46030   4.649   8.515   3.155  1.0595  1.7754  0.2840
  341MOL0     H46031   4.602   8.388   2.769 -1.9568  0.4574  0.0586
  341MOL0     H46032   4.898   9.106   3.043  2.4094 -2.0871  0.6694
  341MOL0     H46033   5.124   9.362   3.070  0.0503  1.3542 -2.5112
  341MOL0     H46034   4.986   9.411   2.963  0.1875  1.4552  1.0182
  341MOL0     H46035   4.958   9.303   3.097 -1.6026  0.9288 -1.2646
  342MOL0     O46036   8.494   3.623   5.643  0.1110  0.8291 -0.0813
  342MOL0     C46037   8.530   3.631   5.760 -0.2961 -0.8902  0.0982
  342MOL0     O46038   8.603   3.735   5.808  0.8875  0.0342 -0.0939
  342MOL0     C46039   8.641   3.853   5.744 -0.4672  0.4089  0.7115
  342MOL0     C46040   8.561   3.908   5.649 -0.3308  0.2219  0.0730
  342MOL0     C46041   8.594   4.021   5.576  0.2704  0.1428 -0.4934
  342MOL0     C46042   8.717   4.083   5.593  0.9855  0.2249 -0.0404
  342MOL0     O46043   8.760   4.200   5.529  0.1860  0.3832 -0.6382
  342MOL0     C46044   8.680   4.276   5.446  0.3116  0.1751  0.9347
  342MOL0     C46045   8.723   4.420   5.438 -1.1043 -0.7990  0.1388
  342MOL0     C46046   8.750   4.488   5.578  1.2057  1.1785 -0.1461
  342MOL0     C46047   8.832   4.609   5.566  0.1295  0.0163 -0.9384
  342MOL0     C46048   8.813   4.703   5.691  0.2328 -0.0498 -0.3533
  342MOL0     C46049   8.713   4.814   5.660  0.2894  0.6241 -0.0651
  342MOL0     C46050   8.711   4.918   5.771 -0.4080  0.4199  0.3809
  342MOL0     C46051   8.653   4.883   5.906  0.6941  0.4166 -0.1911
  342MOL0     N46052   8.533   4.794   5.917  0.5384 -0.5320  0.0380
  342MOL0     C46053   8.395   4.826   5.890  0.1404  0.4961 -0.2589
  342MOL0     C46054   8.330   4.706   5.885 -0.1965  0.9928  0.7897
  342MOL0     C46055   8.187   4.683   5.857 -0.0147 -0.4061  0.9461
  342MOL0     C46056   8.115   4.601   5.964 -0.8425 -0.1078  0.3210
  342MOL0     C46057   8.005   4.522   5.903 -0.3909 -0.4957 -0.0262
  342MOL0     C46058   7.907   4.460   6.002  0.4168 -0.1031  0.5161
  342MOL0     O46059   7.793   4.396   5.938 -0.1889 -0.6130  0.1263
  342MOL0     C46060   7.687   4.369   6.029  0.0785 -0.3638  0.9006
  342MOL0     C46061   7.679   4.413   6.165  0.3182 -0.0829  0.2191
  342MOL0     C46062   7.564   4.382   6.235 -0.7418  0.1609 -0.3499
  342MOL0     C46063   7.455   4.323   6.186  0.8909  0.2608  0.7079
  342MOL0     C46064   7.335   4.299   6.265 -0.4277  0.2680  0.0781
  342MOL0     O46065   7.220   4.268   6.192  0.2120 -0.2770  0.2087
  342MOL0     C46066   7.115   4.223   6.262  0.1871  0.1919 -0.3870
  342MOL0     C46067   6.995   4.279   6.232  0.8040 -0.6896 -0.3564
  342MOL0     C46068   6.866   4.230   6.288  0.4326  0.0676  0.0776
  342MOL0     C46069   6.867   4.112   6.370 -0.4006  0.1572  1.4514
  342MOL0     O46070   6.748   4.060   6.415 -0.2515 -0.2111  0.2466
  342MOL0     C46071   6.740   3.980   6.536  0.4950 -0.7552  0.2661
  342MOL0     C46072   6.657   3.850   6.507  0.1353  0.1098  0.5337
  342MOL0     C46073   6.533   3.862   6.591 -0.2859 -1.5069  0.0650
  342MOL0     C46074   6.469   3.723   6.620 -0.4884 -1.1352 -0.0136
  342MOL0     C46075   6.360   3.753   6.719 -0.2318  0.0097  0.3739
  342MOL0     C46076   6.235   3.660   6.695  0.7054  1.0447 -0.1280
  342MOL0     C46077   6.132   3.674   6.810 -0.5323  0.3087  0.6059
  342MOL0     C46078   6.170   3.628   6.942 -0.2219 -0.3586  0.2103
  342MOL0    Cl46079   6.268   3.479   6.945 -1.2209 -0.0112 -0.1177
  342MOL0     C46080   6.994   4.053   6.386  0.1865 -0.1928 -0.6030
  342MOL0     C46081   7.115   4.115   6.339 -0.8479  0.1992 -0.5396
  342MOL0     O46082   7.338   4.301   6.388 -0.4422 -0.4752 -0.5675
  342MOL0     C46083   7.452   4.301   6.046 -0.7299 -0.7009  1.5080
  342MOL0     C46084   7.571   4.326   5.975 -0.8685  0.2669  0.1645
  342MOL0     N46085   8.430   4.603   5.904  0.2975 -0.9331  0.2295
  342MOL0     N46086   8.538   4.659   5.929 -0.3410  0.2923 -0.2409
  342MOL0     C46087   8.799   4.026   5.688  1.0811  0.7791 -0.4699
  342MOL0     C46088   8.762   3.917   5.762 -1.0386  0.0490 -0.5115
  342MOL0     C46089   8.505   3.518   5.850  0.8309  0.7847  0.4792
  342MOL0     C46090   8.589   3.403   5.838  0.7650 -0.5451 -0.7753
  342MOL0     C46091   8.596   3.301   5.935  0.6405 -0.2966  0.2101
  342MOL0     C46092   8.507   3.310   6.038  0.0197  0.9502  0.8676
  342MOL0     O46093   8.486   3.204   6.124 -0.4665 -0.2223  0.1205
  342MOL0     C46094   8.370   3.120   6.102  0.4068  0.3985  0.7931
  342MOL0     C46095   8.416   2.980   6.064 -0.7094  0.0394  0.4405
  342MOL0     C46096   8.317   2.878   6.118 -0.2266 -1.2691 -0.6201
  342MOL0     C46097   8.351   2.730   6.080  0.5581 -0.2564 -0.3234
  342MOL0     C46098   8.235   2.649   6.137 -0.2076 -0.5006 -0.7680
  342MOL0     C46099   8.162   2.570   6.187 -0.1197 -0.0374 -0.0201
  342MOL0     C46100   8.428   3.429   6.060 -0.4075  0.2062 -0.0621
  342MOL0     C46101   8.424   3.528   5.964 -0.5355  1.2049  0.2699
  342MOL0     C46102   8.349   3.652   5.982 -0.7570  0.1294  0.4628
  342MOL0     H46103   8.460   3.869   5.653  0.1249 -0.9028  1.5015
  342MOL0     H46104   8.510   4.060   5.520 -0.8117 -0.4109  0.6987
  342MOL0     H46105   8.673   4.249   5.341  0.5680 -0.0980  0.9871
  342MOL0     H46106   8.576   4.284   5.480 -0.1217 -0.5707 -0.1698
  342MOL0     H46107   8.651   4.491   5.395  2.5998  3.3532  0.0412
  342MOL0     H46108   8.815   4.436   5.381 -0.8999 -0.6442  0.5041
  342MOL0     H46109   8.807   4.417   5.639 -0.7732  1.5226  2.2644
  342MOL0     H46110   8.659   4.517   5.631  0.7986  1.6015 -1.0620
  342MOL0     H46111   8.936   4.579   5.552 -0.0411 -0.3242 -1.5605
  342MOL0     H46112   8.810   4.658   5.470  0.9887 -5.0079 -4.0788
  342MOL0     H46113   8.774   4.646   5.775  1.0013  1.1828  0.8845
  342MOL0     H46114   8.915   4.742   5.706  0.6321 -1.3349  0.4194
  342MOL0     H46115   8.754   4.864   5.572  0.6895  0.5296  0.0656
  342MOL0     H46116   8.612   4.784   5.631 -0.3548  2.1656  0.4962
  342MOL0     H46117   8.648   5.000   5.734  0.6985  1.2174  0.2421
  342MOL0     H46118   8.814   4.952   5.769  0.9523 -3.1643 -2.1084
  342MOL0     H46119   8.740   4.834   5.952  1.4435 -0.0410 -2.0302
  342MOL0     H46120   8.631   4.981   5.948 -1.6969 -0.6562  1.2813
  342MOL0     H46121   8.341   4.917   5.865  0.9586  1.0700 -0.0032
  342MOL0     H46122   8.137   4.780   5.864  3.9590  1.9181  0.3156
  342MOL0     H46123   8.183   4.646   5.754  0.9430  0.6337  0.5149
  342MOL0     H46124   8.192   4.532   5.999  0.5988 -0.0841 -2.5257
  342MOL0     H46125   8.082   4.666   6.045  2.2493  2.0029  0.0389
  342MOL0     H46126   8.046   4.444   5.838  2.0870 -0.5916  1.5596
  342MOL0     H46127   7.943   4.590   5.843  1.1409 -0.5030 -1.6836
  342MOL0     H46128   7.885   4.537   6.077 -2.0514  1.1686 -1.3827
  342MOL0     H46129   7.969   4.383   6.049 -1.1025 -1.9532 -0.3778
  342MOL0     H46130   7.754   4.457   6.230  0.1611 -0.2847  0.5383
  342MOL0     H46131   7.565   4.409   6.340 -4.3513  0.7524 -0.3561
  342MOL0     H46132   7.001   4.375   6.183 -0.7261  0.0037  0.7234
  342MOL0     H46133   6.770   4.276   6.266  0.1111 -1.2886 -1.5850
  342MOL0     H46134   6.831   3.959   6.593  1.4833  0.0677 -0.9347
  342MOL0     H46135   6.686   4.048   6.603  1.6557 -0.5208  0.9858
  342MOL0     H46136   6.640   3.837   6.400 -0.2968 -5.1555  0.9606
  342MOL0     H46137   6.719   3.769   6.548 -1.7550 -0.6126  2.1520
  342MOL0     H46138   6.553   3.898   6.693 -1.9894 -2.4079  0.7629
  342MOL0     H46139   6.460   3.933   6.549  2.2087  1.2779  0.0942
  342MOL0     H46140   6.548   3.656   6.654  1.0437 -0.0357 -1.2356
  342MOL0     H46141   6.428   3.686   6.526  1.4379 -2.2060 -0.4942
  342MOL0     H46142   6.329   3.858   6.715  3.8007  1.3211 -1.6687
  342MOL0     H46143   6.398   3.745   6.822  0.6929  1.9828  0.2361
  342MOL0     H46144   6.190   3.683   6.597 -3.2307 -1.9173  0.7210
  342MOL0     H46145   6.255   3.553   6.697 -0.4077  0.8123 -0.7707
  342MOL0     H46146   6.040   3.621   6.782 -2.8693  3.6093  1.4495
  342MOL0     H46147   6.100   3.779   6.809  0.9512  0.8494  2.9602
  342MOL0     H46148   6.229   3.712   6.979  0.3978 -0.3377 -0.7894
  342MOL0     H46149   6.083   3.605   7.004  3.2001 -2.9242  4.6687
  342MOL0     H46150   6.988   3.958   6.438  2.5498 -0.0737 -0.0209
  342MOL0     H46151   7.208   4.066   6.365 -1.6359 -1.5768 -0.8989
  342MOL0     H46152   7.359   4.264   6.005 -0.2663 -1.6289  1.2785
  342MOL0     H46153   7.556   4.313   5.868 -0.2460 -1.1955  0.2279
  342MOL0     H46154   8.899   4.065   5.699 -0.2125  3.9083  1.9013
  342MOL0     H46155   8.820   3.868   5.840 -4.3839  0.1293  2.3056
  342MOL0     H46156   8.663   3.404   5.759  0.2843  0.4974 -1.2331
  342MOL0     H46157   8.665   3.220   5.916  2.2423  1.1158 -0.2570
  342MOL0     H46158   8.313   3.161   6.018  0.5029 -1.7752 -0.4053
  342MOL0     H46159   8.313   3.116   6.195  1.7056 -1.5854  1.5721
  342MOL0     H46160   8.513   2.945   6.100 -2.0809 -3.6405  0.9796
  342MOL0     H46161   8.412   2.975   5.955  1.3482  0.4259  0.3049
  342MOL0     H46162   8.217   2.903   6.081  0.5618  1.8441 -0.9450
  342MOL0     H46163   8.314   2.891   6.227  0.5154  3.5504 -0.9302
  342MOL0     H46164   8.371   2.721   5.973  0.8744 -1.9096 -0.1479
  342MOL0     H46165   8.443   2.697   6.130 -1.1358 -3.2192  1.0793
  342MOL0     H46166   8.081   2.514   6.229 -2.7125  2.9949 -0.5791
  342MOL0     H46167   8.391   3.453   6.159  3.0726 -0.3128  1.5496
  342MOL0     H46168   8.347   3.724   5.900 -0.2007 -0.1444  0.1969
  342MOL0     H46169   8.244   3.627   6.001 -0.9675  0.3298 -0.4019
  342MOL0     H46170   8.387   3.697   6.074  0.0559 -0.5481  0.4748
  343MOL0     O46171   2.725   3.845   0.350 -0.7208  0.0904  0.2878
  343MOL0     C46172   2.609   3.871   0.344 -1.0776 -0.4090 -0.2703
  343MOL0     O46173   2.521   3.813   0.253  0.0191 -0.3998  0.3745
  343MOL0     C46174   2.574   3.712   0.171 -0.0504  1.6620 -0.0665
  343MOL0     C46175   2.492   3.600   0.148  0.8693 -0.2237  0.1232
  343MOL0     C46176   2.536   3.493   0.073  0.5989  0.2369  1.2618
  343MOL0     C46177   2.660   3.490   0.014  0.3830 -0.4995  0.7822
  343MOL0     O46178   2.710   3.397  -0.073 -0.4047 -0.2663  0.1103
  343MOL0     C46179   2.633   3.345  -0.185 -0.8485  0.8247  0.2749
  343MOL0     C46180   2.634   3.182  -0.192 -0.0300 -1.2028  0.2232
  343MOL0     C46181   2.559   3.141  -0.318  0.5250 -0.7038  0.6960
  343MOL0     C46182   2.583   2.989  -0.331  0.2507 -0.1742 -0.6162
  343MOL0     C46183   2.489   2.929  -0.442 -0.3781  0.2364  0.1132
  343MOL0     C46184   2.526   2.971  -0.595 -0.1151 -0.0536 -0.0310
  343MOL0     C46185   2.670   2.919  -0.631  0.1814 -0.1920 -1.0574
  343MOL0     C46186   2.663   2.769  -0.674 -0.3264 -0.1417  0.4330
  343MOL0     N46187   2.791   2.731  -0.743 -0.6513  0.0808  0.2703
  343MOL0     C46188   2.852   2.786  -0.850 -0.3838  0.2383  0.2255
  343MOL0     C46189   2.968   2.717  -0.862 -0.2369  0.2264 -0.5225
  343MOL0     C46190   3.056   2.749  -0.978 -0.4280 -0.0494 -0.1642
  343MOL0     C46191   3.009   2.665  -1.106 -0.7135  0.3023  0.2098
  343MOL0     C46192   2.881   2.715  -1.184 -0.8594  0.5625  0.8418
  343MOL0     C46193   2.882   2.673  -1.326  0.1365  0.2952 -0.4471
  343MOL0     O46194   2.860   2.531  -1.330  0.3448  0.1301  0.6538
  343MOL0     C46195   2.864   2.459  -1.444 -0.0612  0.1287 -0.0936
  343MOL0     C46196   2.821   2.328  -1.437  0.1414  0.0739  1.0090
  343MOL0     C46197   2.840   2.237  -1.552 -0.2410 -0.5966 -0.4724
  343MOL0     C46198   2.893   2.292  -1.668 -1.4493  0.6588  1.1872
  343MOL0     C46199   2.917   2.217  -1.792  0.1868  0.0228  0.4463
  343MOL0     O46200   2.893   2.078  -1.790  1.0738  0.4335  0.0238
  343MOL0     C46201   2.851   2.027  -1.913  0.2106 -0.2618 -0.3633
  343MOL0     C46202   2.908   1.903  -1.943 -0.6080  1.0811  0.9374
  343MOL0     C46203   2.880   1.846  -2.067  0.9039  0.3165  0.1247
  343MOL0     C46204   2.790   1.903  -2.161 -0.3925  0.4330  0.6281
  343MOL0     O46205   2.761   1.814  -2.267  0.0131 -0.2596  0.3232
  343MOL0     C46206   2.613   1.827  -2.312 -0.7658  0.4020 -0.2067
  343MOL0     C46207   2.580   1.690  -2.383  0.4978 -0.7830 -0.4957
  343MOL0     C46208   2.637   1.678  -2.523  0.7545 -0.9963 -0.0444
  343MOL0     C46209   2.771   1.612  -2.527 -0.0176 -0.5398  0.8198
  343MOL0     C46210   2.847   1.621  -2.663 -0.0582  0.2564 -0.1406
  343MOL0     C46211   2.996   1.587  -2.610  0.5936  0.5117  0.0217
  343MOL0     C46212   3.095   1.569  -2.732  0.1400  0.3566  1.2797
  343MOL0     C46213   3.105   1.702  -2.813 -0.2771 -0.5413  0.4279
  343MOL0    Cl46214   3.151   1.836  -2.710  0.0353 -0.7841 -0.1554
  343MOL0     C46215   2.736   2.027  -2.126 -0.4822  0.1368  0.0704
  343MOL0     C46216   2.772   2.091  -2.006 -0.0593  0.9412  0.0704
  343MOL0     O46217   2.943   2.276  -1.899 -0.0788 -0.4413  0.3490
  343MOL0     C46218   2.939   2.429  -1.671 -0.1764 -0.3369 -0.0882
  343MOL0     C46219   2.925   2.511  -1.555 -1.0224  0.0813 -0.0655
  343MOL0     N46220   2.989   2.634  -0.751  0.8055  0.7475 -0.8313
  343MOL0     N46221   2.879   2.641  -0.683 -0.0900  0.6088 -0.4464
  343MOL0     C46222   2.743   3.604   0.033 -0.1547  0.0121 -0.4201
  343MOL0     C46223   2.696   3.711   0.104 -0.2406  0.4016 -0.3286
  343MOL0     C46224   2.551   3.979   0.446  0.6931  1.1190  0.4545
  343MOL0     C46225   2.425   4.028   0.410 -0.2331 -0.0896 -0.6719
  343MOL0     C46226   2.362   4.123   0.493  0.0818 -0.0461 -0.1948
  343MOL0     C46227   2.419   4.161   0.618 -0.7478  0.0485  0.5634
  343MOL0     O46228   2.353   4.253   0.688  0.4965  0.2583  0.5567
  343MOL0     C46229   2.413   4.301   0.813 -0.1003  0.4511  1.3209
  343MOL0     C46230   2.320   4.406   0.882  0.3401  0.4597 -0.1155
  343MOL0     C46231   2.293   4.522   0.786 -0.4087 -1.1081 -0.5112
  343MOL0     C46232   2.239   4.643   0.858  0.3291  0.1745  0.7119
  343MOL0     C46233   2.203   4.753   0.763 -0.9745 -1.2404 -0.1601
  343MOL0     C46234   2.180   4.840   0.678  0.7006 -0.1377  0.4181
  343MOL0     C46235   2.544   4.114   0.647 -0.3989  0.2289 -0.6363
  343MOL0     C46236   2.615   4.028   0.563  0.2550 -0.0875  0.5557
  343MOL0     C46237   2.747   3.970   0.608  0.4926  0.6164 -0.3671
  343MOL0     H46238   2.395   3.603   0.197  1.6300 -2.0025  1.8681
  343MOL0     H46239   2.475   3.404   0.059  0.4315  0.3784  1.0795
  343MOL0     H46240   2.528   3.377  -0.181 -1.2971 -0.6433  0.6373
  343MOL0     H46241   2.669   3.386  -0.280 -1.8883 -2.8182 -1.8884
  343MOL0     H46242   2.592   3.134  -0.103 -1.1386  2.0837  1.6528
  343MOL0     H46243   2.738   3.156  -0.212  0.0405  1.1927 -3.4343
  343MOL0     H46244   2.590   3.187  -0.413 -1.4272 -0.4234  0.1403
  343MOL0     H46245   2.452   3.163  -0.309  0.1653 -1.1977 -1.6718
  343MOL0     H46246   2.686   2.959  -0.351  0.6081  0.9999 -0.5800
  343MOL0     H46247   2.568   2.941  -0.234 -2.0169  2.1466  0.2973
  343MOL0     H46248   2.495   2.821  -0.424  0.1862 -0.2129 -2.4052
  343MOL0     H46249   2.383   2.949  -0.422  0.0324  4.0845 -0.8934
  343MOL0     H46250   2.460   2.914  -0.662 -1.3696 -2.1458  2.7603
  343MOL0     H46251   2.533   3.079  -0.611  2.2299 -0.3914 -1.8361
  343MOL0     H46252   2.741   2.927  -0.549  2.4484  3.2315 -3.0736
  343MOL0     H46253   2.707   2.974  -0.718  1.5690  2.4107  1.0335
  343MOL0     H46254   2.654   2.712  -0.581 -2.1303  1.4665  1.3060
  343MOL0     H46255   2.576   2.738  -0.731 -0.3135  2.9848 -1.5303
  343MOL0     H46256   2.812   2.870  -0.907 -1.0206 -0.3338 -0.1874
  343MOL0     H46257   3.062   2.852  -1.014 -0.1715 -0.2881 -0.8141
  343MOL0     H46258   3.162   2.727  -0.961  0.2419 -0.9079 -4.3991
  343MOL0     H46259   3.095   2.683  -1.171 -1.8060 -1.1116 -1.7729
  343MOL0     H46260   3.000   2.557  -1.093  1.9121 -0.2542 -1.8456
  343MOL0     H46261   2.878   2.824  -1.182  1.0431  0.6493  2.4689
  343MOL0     H46262   2.787   2.690  -1.134  0.2832 -1.7763  2.0161
  343MOL0     H46263   2.984   2.702  -1.354  0.6272 -1.3278 -0.4719
  343MOL0     H46264   2.810   2.729  -1.386 -0.6616  2.0571  2.0035
  343MOL0     H46265   2.779   2.279  -1.350  1.1690 -0.7669  1.0566
  343MOL0     H46266   2.805   2.135  -1.556  1.1463 -1.0550 -2.0368
  343MOL0     H46267   2.977   1.849  -1.879 -0.3865 -0.3897 -0.4642
  343MOL0     H46268   2.926   1.752  -2.096  1.0316  0.6568 -0.8309
  343MOL0     H46269   2.549   1.831  -2.223 -1.7312  1.6353 -0.9280
  343MOL0     H46270   2.611   1.918  -2.372  4.3432  0.6790 -0.3549
  343MOL0     H46271   2.615   1.604  -2.325  0.0558  0.0520  1.0605
  343MOL0     H46272   2.471   1.687  -2.388  0.4623 -4.2732 -0.1259
  343MOL0     H46273   2.569   1.610  -2.575 -0.6198 -0.9374  1.5755
  343MOL0     H46274   2.639   1.775  -2.573 -4.1036 -1.3913 -1.5877
  343MOL0     H46275   2.748   1.507  -2.508  0.5569 -0.3666  2.6306
  343MOL0     H46276   2.836   1.651  -2.448  0.5948  0.9638 -0.3734
  343MOL0     H46277   2.841   1.723  -2.704  1.0635  0.9493  1.2912
  343MOL0     H46278   2.815   1.552  -2.741  1.6667 -1.1903  0.3768
  343MOL0     H46279   3.022   1.664  -2.536  0.4131  0.5866  0.0088
  343MOL0     H46280   2.988   1.488  -2.564  0.1689 -0.4581 -2.0419
  343MOL0     H46281   3.068   1.493  -2.806  0.1931  0.5698  1.0410
  343MOL0     H46282   3.190   1.539  -2.688  0.1715 -1.8234 -0.1320
  343MOL0     H46283   3.156   1.689  -2.908 -2.2271 -1.3358 -0.5719
  343MOL0     H46284   3.005   1.724  -2.851 -0.1013  2.4197  1.4306
  343MOL0     H46285   2.654   2.069  -2.183 -2.1642  1.7244  3.4258
  343MOL0     H46286   2.736   2.192  -1.991 -0.9742  0.8822 -1.5241
  343MOL0     H46287   2.984   2.466  -1.763 -2.5008  0.6900 -0.9157
  343MOL0     H46288   2.977   2.606  -1.550 -0.5107 -0.1849 -0.3042
  343MOL0     H46289   2.833   3.600  -0.027 -0.1920 -1.4263 -0.4020
  343MOL0     H46290   2.760   3.798   0.099 -0.5299  0.5954 -0.6712
  343MOL0     H46291   2.377   4.000   0.316 -1.6511  0.0601 -0.0204
  343MOL0     H46292   2.268   4.171   0.466 -0.2955 -0.2844  0.6584
  343MOL0     H46293   2.508   4.352   0.791 -0.2997 -0.2486 -1.6052
  343MOL0     H46294   2.434   4.221   0.884  4.5294  1.8805  1.9291
  343MOL0     H46295   2.359   4.437   0.979 -2.7251  0.7514  1.1337
  343MOL0     H46296   2.219   4.367   0.898 -0.7706  2.5682 -1.4295
  343MOL0     H46297   2.226   4.494   0.704 -0.8420  0.7517 -0.8576
  343MOL0     H46298   2.386   4.564   0.745 -0.6956  2.6179  2.0751
  343MOL0     H46299   2.148   4.608   0.907  0.3308 -1.9888 -0.7161
  343MOL0     H46300   2.317   4.672   0.929  0.1631  0.7978  0.6430
  343MOL0     H46301   2.154   4.915   0.606  1.9410  0.4486  0.5562
  343MOL0     H46302   2.586   4.137   0.745  0.5992  0.2750 -1.0570
  343MOL0     H46303   2.746   3.861   0.599 -1.2136  0.7513 -2.6492
  343MOL0     H46304   2.829   3.993   0.538  0.8735  1.4249  0.3177
  343MOL0     H46305   2.777   4.001   0.709  0.5882  0.3141 -0.3005
  344MOL0     O46306   8.464   6.440   6.462  0.1738 -0.2028 -0.0409
  344MOL0     C46307   8.408   6.461   6.356 -0.3776 -0.9637  0.8337
  344MOL0     O46308   8.278   6.435   6.323  0.3684  0.3370 -0.4722
  344MOL0     C46309   8.210   6.380   6.432  0.8106 -0.6485 -0.2835
  344MOL0     C46310   8.188   6.251   6.441 -0.4704 -0.3527 -0.6047
  344MOL0     C46311   8.126   6.203   6.550  1.5779  0.3603 -0.6719
  344MOL0     C46312   8.059   6.283   6.646  0.5763 -0.3048 -0.0590
  344MOL0     O46313   7.992   6.236   6.758  0.5232  0.3759 -0.2278
  344MOL0     C46314   7.909   6.117   6.743 -0.1733  0.7532 -0.1168
  344MOL0     C46315   7.860   6.069   6.878 -0.3351  0.6296  0.6578
  344MOL0     C46316   7.753   6.169   6.946  0.3508  0.3186  0.0757
  344MOL0     C46317   7.597   6.158   6.922 -0.3424  1.6955 -0.2422
  344MOL0     C46318   7.520   6.253   7.010 -0.1475 -0.7575  0.5752
  344MOL0     C46319   7.423   6.178   7.110 -0.4158 -0.2266  0.9419
  344MOL0     C46320   7.374   6.277   7.216 -0.0554  0.2861  0.1851
  344MOL0     C46321   7.225   6.325   7.191 -0.1960  0.0867 -0.8633
  344MOL0     N46322   7.126   6.239   7.247 -0.3768  0.0569 -0.4316
  344MOL0     C46323   7.097   6.240   7.379  0.1757  0.3258 -0.1055
  344MOL0     C46324   7.015   6.136   7.401  0.2696  0.4935  0.0395
  344MOL0     C46325   6.959   6.080   7.532 -0.3290 -0.3135  0.0481
  344MOL0     C46326   6.996   5.927   7.542 -0.5112 -0.5943  0.5330
  344MOL0     C46327   6.948   5.865   7.672  0.3299  0.1395  0.7958
  344MOL0     C46328   7.039   5.860   7.791  0.6146  0.1750 -0.0091
  344MOL0     O46329   7.158   5.787   7.752 -0.7025  0.0592 -0.1032
  344MOL0     C46330   7.219   5.713   7.851  0.2224 -0.6191 -0.4842
  344MOL0     C46331   7.226   5.582   7.840 -0.6225 -0.2531  0.2564
  344MOL0     C46332   7.271   5.506   7.948  0.0781 -0.0074  0.0866
  344MOL0     C46333   7.338   5.568   8.055 -0.1766  0.9400  0.2309
  344MOL0     C46334   7.385   5.489   8.173 -0.7418 -0.0422  0.4600
  344MOL0     O46335   7.469   5.554   8.257  0.1235 -0.6514 -0.9668
  344MOL0     C46336   7.543   5.492   8.363 -0.2275 -0.4348 -0.2090
  344MOL0     C46337   7.595   5.374   8.364  0.5330  0.6820  0.2734
  344MOL0     C46338   7.672   5.326   8.469 -0.3951  0.0809  0.7959
  344MOL0     C46339   7.722   5.408   8.574  0.1295 -0.8097  0.4076
  344MOL0     O46340   7.816   5.375   8.668  0.1722 -0.8181  0.2171
  344MOL0     C46341   7.789   5.244   8.726 -0.0060  0.1727 -0.3090
  344MOL0     C46342   7.880   5.201   8.833  0.2378  0.7563  1.1366
  344MOL0     C46343   8.023   5.187   8.783  0.0337  0.3850  1.0728
  344MOL0     C46344   8.127   5.134   8.869  0.9080 -0.7040 -0.6275
  344MOL0     C46345   8.101   4.988   8.907  0.0118  0.0545  0.6734
  344MOL0     C46346   8.236   4.934   8.965 -0.3662  0.1266  0.1281
  344MOL0     C46347   8.238   4.784   8.947  0.3896 -0.2880  0.1771
  344MOL0     C46348   8.359   4.726   9.017 -0.5305 -0.0174 -0.7222
  344MOL0    Cl46349   8.371   4.738   9.197 -0.7015  0.2482  0.1766
  344MOL0     C46350   7.673   5.542   8.568  0.3204  0.0257  0.6656
  344MOL0     C46351   7.582   5.584   8.467 -0.3779 -0.0833 -0.4985
  344MOL0     O46352   7.350   5.371   8.184 -0.3181  0.6487 -0.9967
  344MOL0     C46353   7.334   5.706   8.061 -0.4092  0.2353 -0.0449
  344MOL0     C46354   7.266   5.777   7.965  0.0899  0.1560 -0.0156
  344MOL0     N46355   6.992   6.080   7.276  0.0825 -0.7811 -0.7446
  344MOL0     N46356   7.079   6.131   7.190  0.6831  0.1695  0.8046
  344MOL0     C46357   8.068   6.416   6.631  0.1425  0.0447  0.5916
  344MOL0     C46358   8.146   6.466   6.526 -0.6443 -0.9636 -0.3630
  344MOL0     C46359   8.486   6.504   6.246  0.0026 -0.2666  0.5201
  344MOL0     C46360   8.428   6.518   6.122  0.8461 -0.5508 -0.7960
  344MOL0     C46361   8.497   6.547   6.003  0.8056  0.6856  0.1142
  344MOL0     C46362   8.633   6.550   6.000  0.1397  0.7565 -0.7770
  344MOL0     O46363   8.680   6.592   5.879  0.6919 -0.9151  0.1532
  344MOL0     C46364   8.813   6.641   5.861 -1.1586  0.3221  0.1404
  344MOL0     C46365   8.820   6.724   5.737  0.7224  0.3252  0.3788
  344MOL0     C46366   8.742   6.848   5.750  0.0374  0.0340  0.4394
  344MOL0     C46367   8.775   6.947   5.644 -0.4518 -0.3556 -0.2403
  344MOL0     C46368   8.740   6.899   5.513  0.2078 -0.3577  0.3922
  344MOL0     C46369   8.701   6.872   5.405  0.7585 -0.0375  0.1189
  344MOL0     C46370   8.699   6.518   6.117 -0.5082 -0.0881 -0.0236
  344MOL0     C46371   8.633   6.514   6.240  0.1752 -0.5927 -0.7831
  344MOL0     C46372   8.736   6.493   6.363 -0.1444 -0.5518 -0.1226
  344MOL0     H46373   8.231   6.180   6.372 -0.6137  0.2983 -1.3869
  344MOL0     H46374   8.119   6.096   6.565  0.6947  0.5861  0.7283
  344MOL0     H46375   7.826   6.127   6.673  1.5278  2.1408 -2.0232
  344MOL0     H46376   7.964   6.033   6.701  1.6001  1.3888  0.8363
  344MOL0     H46377   7.955   6.052   6.930 -1.2040  0.5357  2.2766
  344MOL0     H46378   7.813   5.972   6.859 -1.4982  1.0371  1.3759
  344MOL0     H46379   7.777   6.272   6.918 -0.6517  0.8718  1.1576
  344MOL0     H46380   7.761   6.167   7.055 -0.5769  0.0418  0.1456
  344MOL0     H46381   7.557   6.182   6.823  0.3594  1.2887 -0.6332
  344MOL0     H46382   7.550   6.060   6.938 -2.4585  2.4422 -1.4339
  344MOL0     H46383   7.598   6.311   7.060  0.8377 -0.0915 -1.6288
  344MOL0     H46384   7.467   6.323   6.944 -0.5505 -1.8591 -0.2970
  344MOL0     H46385   7.339   6.134   7.057 -1.3217  0.9011  1.3965
  344MOL0     H46386   7.477   6.099   7.164 -0.1023 -0.5911  0.1086
  344MOL0     H46387   7.446   6.358   7.233  2.0348 -0.8084 -2.6849
  344MOL0     H46388   7.378   6.221   7.310  0.8383  3.4215  2.1676
  344MOL0     H46389   7.207   6.421   7.239 -0.7165 -0.4247  0.0012
  344MOL0     H46390   7.211   6.333   7.083  0.0449  1.0787 -0.8267
  344MOL0     H46391   7.133   6.299   7.462 -0.6848  0.4198  0.2182
  344MOL0     H46392   7.002   6.134   7.617  1.6062  1.0768 -1.6896
  344MOL0     H46393   6.853   6.099   7.517  0.1898  2.3153 -0.8095
  344MOL0     H46394   6.947   5.877   7.458  2.4987  0.0535 -1.7851
  344MOL0     H46395   7.103   5.917   7.522 -0.5291 -4.2480  1.6010
  344MOL0     H46396   6.934   5.760   7.644  2.3315  0.2586 -0.8805
  344MOL0     H46397   6.847   5.895   7.699  0.6928  0.6505  1.6597
  344MOL0     H46398   6.986   5.816   7.876  2.0632 -2.7215 -0.4899
  344MOL0     H46399   7.052   5.965   7.816 -2.3940  1.3122 -2.4690
  344MOL0     H46400   7.173   5.546   7.752  0.8415  2.2373 -1.8030
  344MOL0     H46401   7.249   5.400   7.960  2.2812 -0.3915  1.3438
  344MOL0     H46402   7.582   5.316   8.273  1.6051  0.7381  0.0702
  344MOL0     H46403   7.706   5.223   8.466 -2.2629 -0.6208 -3.2931
  344MOL0     H46404   7.690   5.218   8.764  1.0160 -2.1286  0.9684
  344MOL0     H46405   7.808   5.167   8.651  1.5144  0.6836 -0.4927
  344MOL0     H46406   7.877   5.277   8.912  0.5834  1.6005  0.3574
  344MOL0     H46407   7.844   5.103   8.867 -2.4085  2.6050  4.2515
  344MOL0     H46408   8.014   5.121   8.697  2.1472  3.4277 -1.7533
  344MOL0     H46409   8.063   5.285   8.753  3.4227 -0.4674  2.2992
  344MOL0     H46410   8.130   5.204   8.953  1.9246  0.2993 -1.4737
  344MOL0     H46411   8.217   5.156   8.811  0.4141 -1.0612 -1.5535
  344MOL0     H46412   8.069   4.931   8.819  2.1811 -1.4467  0.7782
  344MOL0     H46413   8.013   4.980   8.971 -0.2694 -1.7050  0.1346
  344MOL0     H46414   8.318   4.980   8.908 -1.4988  3.7219  1.0942
  344MOL0     H46415   8.236   4.965   9.070 -0.3390 -0.2377  0.2342
  344MOL0     H46416   8.241   4.744   8.845  0.6962 -1.9379  0.7964
  344MOL0     H46417   8.144   4.760   8.998  0.1617  0.1688 -0.0270
  344MOL0     H46418   8.356   4.618   8.998 -1.9540 -0.0639 -0.3543
  344MOL0     H46419   8.454   4.762   8.976  2.1867 -1.7986  3.3019
  344MOL0     H46420   7.715   5.624   8.625 -0.2053  1.0646 -0.3926
  344MOL0     H46421   7.543   5.685   8.462  3.5227  1.6172  0.0586
  344MOL0     H46422   7.379   5.772   8.134  0.4129  0.9233 -1.1461
  344MOL0     H46423   7.249   5.882   7.985  1.1255 -0.0463  2.1332
  344MOL0     H46424   8.034   6.478   6.713 -0.2485 -0.1965  0.6099
  344MOL0     H46425   8.160   6.573   6.514  3.2387 -1.2376  0.3437
  344MOL0     H46426   8.322   6.499   6.106  0.5414 -0.6437  1.0612
  344MOL0     H46427   8.440   6.568   5.913  3.4875  3.5458 -1.0887
  344MOL0     H46428   8.885   6.559   5.850 -0.0671  1.5183 -2.9725
  344MOL0     H46429   8.845   6.713   5.936  2.3470  1.0834 -1.8562
  344MOL0     H46430   8.789   6.669   5.648  0.5105  0.7577  0.1804
  344MOL0     H46431   8.924   6.755   5.727  0.4518  0.5601 -2.6822
  344MOL0     H46432   8.752   6.894   5.849  1.1219 -0.3104  0.5060
  344MOL0     H46433   8.637   6.820   5.740  0.2857 -1.5965  1.8374
  344MOL0     H46434   8.720   7.042   5.655 -0.8070 -0.6218  0.3908
  344MOL0     H46435   8.882   6.969   5.640  0.1957 -3.0428  0.3342
  344MOL0     H46436   8.667   6.839   5.308 -0.1828  2.4864 -0.4891
  344MOL0     H46437   8.807   6.523   6.115 -0.4651  3.4525  2.7237
  344MOL0     H46438   8.693   6.527   6.457  0.5306 -0.8718  0.3060
  344MOL0     H46439   8.762   6.387   6.377 -0.2361 -0.6673 -0.7668
  344MOL0     H46440   8.825   6.553   6.343  0.8290 -1.7478  0.4108
  345MOL0     O46441   1.370   0.723   9.604  0.2233 -0.5310 -0.1600
  345MOL0     C46442   1.450   0.633   9.625 -0.3031 -0.3364 -0.7254
  345MOL0     O46443   1.469   0.565   9.745 -0.3003  0.1180 -0.3693
  345MOL0     C46444   1.372   0.595   9.845 -0.3020  0.5480  0.0042
  345MOL0     C46445   1.234   0.568   9.822  0.7331  1.2198 -1.0720
  345MOL0     C46446   1.140   0.604   9.922 -0.5012  0.2999  0.5254
  345MOL0     C46447   1.188   0.661  10.043  0.6562 -0.3558 -0.0854
  345MOL0     O46448   1.102   0.715  10.138  0.0586  0.5539  1.1999
  345MOL0     C46449   0.968   0.768  10.097 -1.1620  0.5469 -0.2499
  345MOL0     C46450   0.902   0.801  10.221 -0.6263  0.1312  0.4053
  345MOL0     C46451   0.749   0.833  10.208 -0.3286  0.0759 -0.2734
  345MOL0     C46452   0.647   0.721  10.229 -0.4819  0.4157  1.3889
  345MOL0     C46453   0.646   0.659  10.362  0.6148 -0.1181 -1.4540
  345MOL0     C46454   0.542   0.552  10.356  0.6880  0.2803 -1.2139
  345MOL0     C46455   0.528   0.475  10.490  0.3442 -0.0942 -0.0351
  345MOL0     C46456   0.591   0.332  10.482 -0.5508 -0.7867  0.4151
  345MOL0     N46457   0.576   0.267  10.614 -0.6439 -0.1101  0.3806
  345MOL0     C46458   0.539   0.141  10.631 -0.2220  0.2304  0.2415
  345MOL0     C46459   0.551   0.116  10.764 -0.8469 -0.6966  0.1403
  345MOL0     C46460   0.504  -0.010  10.824 -0.3355  0.2988  0.3108
  345MOL0     C46461   0.594  -0.125  10.777  0.0502 -0.8369  0.4834
  345MOL0     C46462   0.736  -0.098  10.820  0.3222 -0.0005  0.4494
  345MOL0     C46463   0.824  -0.211  10.761  0.1908  0.6964  0.2784
  345MOL0     O46464   0.953  -0.183  10.805 -0.3672 -0.9798 -0.6061
  345MOL0     C46465   1.054  -0.272  10.758  1.0819 -0.0079  0.7995
  345MOL0     C46466   1.048  -0.335  10.637  0.5474  0.9985 -0.0267
  345MOL0     C46467   1.155  -0.409  10.583  0.2093 -0.0861 -0.2827
  345MOL0     C46468   1.275  -0.426  10.655  0.7517 -0.1581 -0.2541
  345MOL0     C46469   1.401  -0.482  10.597 -0.3286 -0.1408  0.0260
  345MOL0     O46470   1.372  -0.564  10.490 -0.5356  0.4253 -0.7364
  345MOL0     C46471   1.473  -0.603  10.408 -0.3278  0.1620 -0.8765
  345MOL0     C46472   1.559  -0.521  10.337  0.4358  0.3450  1.1690
  345MOL0     C46473   1.632  -0.562  10.226 -0.2122 -0.3910 -0.7491
  345MOL0     C46474   1.639  -0.698  10.198 -0.6477 -0.0022  1.1582
  345MOL0     O46475   1.722  -0.745  10.095  0.2700 -0.4309 -0.0228
  345MOL0     C46476   1.827  -0.836  10.132  0.4952  0.6069  0.3670
  345MOL0     C46477   1.870  -0.924  10.007 -0.2671 -0.2386  0.0793
  345MOL0     C46478   1.974  -0.855   9.923 -0.3012 -0.0322  0.8417
  345MOL0     C46479   2.005  -0.941   9.802  0.0540 -0.3372 -0.3061
  345MOL0     C46480   2.061  -0.854   9.689  0.0932 -0.9883  0.3563
  345MOL0     C46481   2.057  -0.916   9.547 -0.0713 -0.1921 -0.0330
  345MOL0     C46482   2.104  -0.829   9.430  0.4653 -0.1483  0.5910
  345MOL0     C46483   2.025  -0.691   9.416  0.1620  0.2046 -0.4664
  345MOL0    Cl46484   1.871  -0.712   9.331  0.2330  0.1611 -0.0560
  345MOL0     C46485   1.573  -0.785  10.285 -0.1490 -0.6500  0.7800
  345MOL0     C46486   1.475  -0.738  10.380 -0.4159  0.2919 -0.7838
  345MOL0     O46487   1.514  -0.456  10.643  0.3391 -0.0738 -0.1230
  345MOL0     C46488   1.273  -0.370  10.781 -0.1709  0.5545 -0.0148
  345MOL0     C46489   1.167  -0.297  10.827  0.0744 -0.3594  0.5595
  345MOL0     N46490   0.591   0.234  10.833 -0.4764  0.0549 -0.1792
  345MOL0     N46491   0.604   0.325  10.741 -0.4372  0.0865  0.0114
  345MOL0     C46492   1.317   0.702  10.066  0.4702  0.3604  0.2726
  345MOL0     C46493   1.402   0.665   9.961 -1.0700 -0.5544  0.3227
  345MOL0     C46494   1.548   0.580   9.529  0.2850 -0.3603  0.0827
  345MOL0     C46495   1.638   0.486   9.576  0.4616 -0.0937 -0.3726
  345MOL0     C46496   1.745   0.445   9.497 -0.7590 -0.0821 -0.3530
  345MOL0     C46497   1.763   0.496   9.367 -0.0142  0.4888 -0.3161
  345MOL0     O46498   1.880   0.471   9.298  0.1234 -0.2776  1.3298
  345MOL0     C46499   1.907   0.561   9.184  0.9353 -0.1693  0.7711
  345MOL0     C46500   2.045   0.536   9.119  0.4978  1.0228  0.1471
  345MOL0     C46501   2.160   0.578   9.210  0.2278 -0.5967 -0.0720
  345MOL0     C46502   2.302   0.582   9.149 -0.6529  0.1832 -0.0934
  345MOL0     C46503   2.337   0.442   9.104 -0.6875  0.4579  0.6499
  345MOL0     C46504   2.385   0.346   9.053  0.2146 -0.0052 -1.0593
  345MOL0     C46505   1.660   0.586   9.319 -0.1491 -0.2227 -0.7706
  345MOL0     C46506   1.550   0.617   9.400  0.0300 -0.0377  0.9624
  345MOL0     C46507   1.451   0.717   9.336  0.2459 -0.4882 -0.2304
  345MOL0     H46508   1.188   0.526   9.733 -0.1473  0.5061 -0.2946
  345MOL0     H46509   1.033   0.591   9.906 -0.2006  0.7341 -2.2556
  345MOL0     H46510   0.980   0.851  10.027 -4.0691  1.9041  0.7057
  345MOL0     H46511   0.908   0.692  10.045  2.2434 -1.1862 -2.0121
  345MOL0     H46512   0.946   0.897  10.253 -1.3296  0.9479 -0.9844
  345MOL0     H46513   0.937   0.736  10.302 -0.9604  0.9303  1.2112
  345MOL0     H46514   0.740   0.878  10.109 -1.0310 -0.0201 -0.2594
  345MOL0     H46515   0.723   0.903  10.288  2.6163  2.0600 -0.8922
  345MOL0     H46516   0.551   0.769  10.209 -0.4955 -0.2301 -0.2989
  345MOL0     H46517   0.673   0.646  10.153 -0.0040  1.4507  0.4875
  345MOL0     H46518   0.735   0.604  10.394 -0.9773 -1.9622  0.0880
  345MOL0     H46519   0.619   0.731  10.441 -2.7279 -1.8345 -0.8381
  345MOL0     H46520   0.451   0.606  10.325  1.4512  3.2562  1.1768
  345MOL0     H46521   0.573   0.483  10.278 -0.4877  0.7711 -2.1485
  345MOL0     H46522   0.424   0.453  10.516  0.8188 -0.8024  1.3589
  345MOL0     H46523   0.569   0.531  10.574  2.1825 -1.7033  0.2169
  345MOL0     H46524   0.548   0.276  10.399 -2.1359  2.0046 -0.7925
  345MOL0     H46525   0.700   0.338  10.477 -0.1964 -0.6185  4.6212
  345MOL0     H46526   0.502   0.079  10.550  1.0413  2.1393 -1.9267
  345MOL0     H46527   0.502  -0.007  10.934  4.0019 -4.3452  0.8970
  345MOL0     H46528   0.406  -0.043  10.789  1.0608 -2.9275 -1.0364
  345MOL0     H46529   0.562  -0.215  10.831 -2.0793  0.7202  1.9594
  345MOL0     H46530   0.575  -0.132  10.670  2.7390  1.6876 -0.2998
  345MOL0     H46531   0.732  -0.102  10.929 -0.7100 -1.6876  0.3863
  345MOL0     H46532   0.781  -0.002  10.793 -0.2364  1.7790  4.9441
  345MOL0     H46533   0.815  -0.210  10.652 -1.4080  0.4986  0.3851
  345MOL0     H46534   0.785  -0.309  10.790  1.7588 -0.1592 -0.3536
  345MOL0     H46535   0.960  -0.315  10.578 -0.8685 -1.5749  1.0072
  345MOL0     H46536   1.160  -0.447  10.482  1.6259 -2.2175  0.5146
  345MOL0     H46537   1.546  -0.417  10.364 -0.5991  0.3075  0.8755
  345MOL0     H46538   1.699  -0.501  10.166  1.2656  0.8007  1.9211
  345MOL0     H46539   1.920  -0.789  10.165  2.1897  2.4525 -5.6417
  345MOL0     H46540   1.798  -0.902  10.214  2.0627 -2.5455 -1.4252
  345MOL0     H46541   1.911  -1.015  10.051  0.4512  0.8321  1.7429
  345MOL0     H46542   1.779  -0.945   9.950 -1.3102  2.6390  0.4979
  345MOL0     H46543   1.937  -0.755   9.897  1.9239 -0.0748 -3.2706
  345MOL0     H46544   2.069  -0.838   9.976 -1.0926 -1.7930  2.9692
  345MOL0     H46545   1.911  -0.991   9.776 -1.2412  2.7476 -2.0211
  345MOL0     H46546   2.085  -1.006   9.839  0.1414  1.6018  3.3682
  345MOL0     H46547   2.165  -0.824   9.703  0.6578 -1.8681 -1.5755
  345MOL0     H46548   1.991  -0.770   9.688  1.7647  0.4713 -0.5083
  345MOL0     H46549   2.112  -1.011   9.545  0.0965 -0.2095  2.4698
  345MOL0     H46550   1.952  -0.940   9.528 -0.1885  0.0402  0.2978
  345MOL0     H46551   2.101  -0.883   9.336  3.0990  1.3752 -0.5098
  345MOL0     H46552   2.211  -0.808   9.442  0.9824 -1.1143 -1.8744
  345MOL0     H46553   2.000  -0.655   9.516 -1.4059 -1.4327 -0.2235
  345MOL0     H46554   2.101  -0.627   9.370  0.8573 -1.2015 -1.3410
  345MOL0     H46555   1.587  -0.891  10.268  2.0518 -0.3960  0.7717
  345MOL0     H46556   1.419  -0.810  10.439  2.1316 -2.2663 -1.2758
  345MOL0     H46557   1.358  -0.377  10.848  1.1850  3.1547 -1.3105
  345MOL0     H46558   1.179  -0.230  10.911 -1.7671  1.6190 -0.6435
  345MOL0     H46559   1.355   0.736  10.162  2.2637  0.2961 -0.3739
  345MOL0     H46560   1.507   0.684   9.979 -0.6478 -2.1212 -0.3359
  345MOL0     H46561   1.640   0.439   9.674  1.2240  0.9414  0.1139
  345MOL0     H46562   1.816   0.371   9.532  1.0861  2.2209  1.1325
  345MOL0     H46563   1.896   0.667   9.209 -2.6196 -0.7095  2.0392
  345MOL0     H46564   1.838   0.540   9.102  2.5257  1.1048 -0.9722
  345MOL0     H46565   2.055   0.596   9.028  4.2107  0.0165 -0.2853
  345MOL0     H46566   2.057   0.430   9.093  0.2417  0.7099  1.2439
  345MOL0     H46567   2.157   0.526   9.306 -0.6936 -2.4204 -1.0233
  345MOL0     H46568   2.137   0.679   9.247 -1.0853 -1.1767  0.7683
  345MOL0     H46569   2.289   0.645   9.060 -2.8006  0.0504  0.0881
  345MOL0     H46570   2.379   0.615   9.220 -1.8651 -1.0509  1.8637
  345MOL0     H46571   2.435   0.270   8.997 -2.8868 -0.9403 -2.8154
  345MOL0     H46572   1.658   0.623   9.217 -0.5155 -2.9972 -1.8677
  345MOL0     H46573   1.472   0.817   9.377 -1.3218  0.0709 -0.7471
  345MOL0     H46574   1.464   0.729   9.229 -0.7340 -0.9293 -0.4091
  345MOL0     H46575   1.350   0.688   9.365  0.7757 -0.7577  1.4983
  346MOL0     O46576   5.928   0.917   1.012 -0.1459  0.6114 -0.6261
  346MOL0     C46577   6.030   0.915   1.079 -0.7902 -0.1089 -0.6973
  346MOL0     O46578   6.038   0.890   1.215 -0.2328  0.0029 -0.6956
  346MOL0     C46579   5.935   0.852   1.287 -0.0378  0.1381  0.1515
  346MOL0     C46580   5.867   0.949   1.355 -0.2225  0.9272 -0.8841
  346MOL0     C46581   5.755   0.917   1.435 -0.0220  0.1371  0.1296
  346MOL0     C46582   5.717   0.787   1.450  0.5120  0.3073  0.0401
  346MOL0     O46583   5.604   0.747   1.521 -0.3831  0.3317 -0.1017
  346MOL0     C46584   5.527   0.847   1.583  0.0886 -0.3703 -0.7455
  346MOL0     C46585   5.436   0.797   1.704  0.5469  1.2404 -0.7570
  346MOL0     C46586   5.332   0.706   1.660  0.1943  0.3823 -0.9657
  346MOL0     C46587   5.381   0.563   1.626  0.7704  0.1171  0.2939
  346MOL0     C46588   5.255   0.467   1.632 -0.2598 -0.3327  0.3198
  346MOL0     C46589   5.294   0.330   1.585  0.6079  0.2003 -0.7286
  346MOL0     C46590   5.184   0.223   1.605 -0.4149 -0.3840 -0.1794
  346MOL0     C46591   5.136   0.210   1.756 -0.7155 -0.1957  1.1079
  346MOL0     N46592   5.048   0.100   1.756  0.1358  0.5587  0.5475
  346MOL0     C46593   5.085  -0.035   1.763 -0.1917  0.0204  0.9682
  346MOL0     C46594   4.974  -0.106   1.760  0.7458 -0.6775  0.2712
  346MOL0     C46595   4.942  -0.250   1.769  0.3508 -0.4183 -0.3019
  346MOL0     C46596   4.913  -0.292   1.916  0.5960 -0.1786 -0.3327
  346MOL0     C46597   5.048  -0.309   1.980 -0.3017  0.3668 -0.3535
  346MOL0     C46598   5.038  -0.312   2.133 -0.2425 -0.0827 -0.5013
  346MOL0     O46599   4.995  -0.187   2.178  0.3073 -0.7263  0.7881
  346MOL0     C46600   5.074  -0.072   2.184  0.3684 -0.5112 -0.6169
  346MOL0     C46601   5.211  -0.081   2.190  0.2507  0.1111 -0.6465
  346MOL0     C46602   5.290   0.035   2.180  0.7276 -0.6571  0.5497
  346MOL0     C46603   5.234   0.165   2.165 -0.0746  0.5565 -0.0805
  346MOL0     C46604   5.312   0.292   2.151 -0.4198  0.7002 -0.1065
  346MOL0     O46605   5.241   0.402   2.139  0.5632 -0.6415  0.6547
  346MOL0     C46606   5.297   0.534   2.115 -0.3407 -0.1982 -1.3907
  346MOL0     C46607   5.419   0.546   2.050 -0.0994 -0.2197 -0.4540
  346MOL0     C46608   5.480   0.667   2.038  0.6704  0.4296 -0.2336
  346MOL0     C46609   5.423   0.774   2.110 -1.1031 -0.3607 -0.5409
  346MOL0     O46610   5.480   0.895   2.112 -0.2999  0.2760  0.8676
  346MOL0     C46611   5.622   0.916   2.094  0.0802  0.7882 -0.4208
  346MOL0     C46612   5.657   0.999   1.966  0.4261 -0.2515  0.1187
  346MOL0     C46613   5.809   1.014   1.965  0.5309  0.0564  0.2688
  346MOL0     C46614   5.840   1.080   1.827  0.3178  0.0202  0.1183
  346MOL0     C46615   5.967   1.166   1.825 -0.6964 -0.0848 -0.2683
  346MOL0     C46616   6.028   1.175   1.687 -0.1116  0.4851  0.6148
  346MOL0     C46617   6.074   1.040   1.632  0.1709  0.9709  0.1691
  346MOL0     C46618   6.165   1.053   1.513 -0.0212  0.8869  0.0383
  346MOL0    Cl46619   6.333   1.092   1.563  0.0862  0.0529 -0.0104
  346MOL0     C46620   5.303   0.757   2.184  0.6754 -0.2265  0.2726
  346MOL0     C46621   5.234   0.637   2.183 -0.6636 -0.8629  0.0661
  346MOL0     O46622   5.423   0.283   2.190  0.5809  0.3979 -0.2922
  346MOL0     C46623   5.090   0.170   2.166 -1.0935 -0.8762  0.6518
  346MOL0     C46624   5.008   0.052   2.168  0.0556 -0.3134 -1.0892
  346MOL0     N46625   4.868  -0.021   1.742 -0.1477 -0.1305  0.2931
  346MOL0     N46626   4.910   0.106   1.732  0.1586 -0.0121 -0.0229
  346MOL0     C46627   5.779   0.691   1.386 -0.5221 -0.6718  0.0633
  346MOL0     C46628   5.898   0.719   1.314  0.3591  1.1084 -0.9358
  346MOL0     C46629   6.157   0.938   1.000  0.8319 -0.6392 -0.0711
  346MOL0     C46630   6.140   0.925   0.859 -0.4573  0.2725  0.6721
  346MOL0     C46631   6.254   0.958   0.778  0.1282 -0.3813  1.3032
  346MOL0     C46632   6.378   1.000   0.830  0.4745  0.0140 -0.3434
  346MOL0     O46633   6.468   1.058   0.742 -0.0402 -0.3747 -0.0252
  346MOL0     C46634   6.583   1.140   0.782  0.3228 -0.3646  1.1998
  346MOL0     C46635   6.605   1.255   0.679  0.0675  0.0394 -0.2260
  346MOL0     C46636   6.473   1.345   0.671  0.2904 -0.1817 -0.3526
  346MOL0     C46637   6.359   1.279   0.577 -1.1108 -0.0132 -0.3523
  346MOL0     C46638   6.258   1.377   0.532  0.2833 -0.4764 -0.5163
  346MOL0     C46639   6.183   1.467   0.509 -0.0946 -0.2189 -0.4319
  346MOL0     C46640   6.389   0.997   0.965 -0.0420 -0.6152 -0.2696
  346MOL0     C46641   6.285   0.978   1.051  1.2673 -0.1544  0.3792
  346MOL0     C46642   6.306   1.011   1.201 -0.6707 -0.3867  0.9464
  346MOL0     H46643   5.910   1.049   1.351  1.2481  0.3339 -0.6196
  346MOL0     H46644   5.704   0.996   1.489  2.0308  2.4293 -1.0296
  346MOL0     H46645   5.601   0.918   1.620  1.1766 -0.5311 -2.4657
  346MOL0     H46646   5.458   0.901   1.517  0.4233 -1.3112 -1.9017
  346MOL0     H46647   5.391   0.877   1.763 -0.1920 -0.6997  1.4571
  346MOL0     H46648   5.496   0.746   1.779  1.2417  1.2225 -1.3083
  346MOL0     H46649   5.284   0.756   1.575 -2.4698  2.9652  1.8003
  346MOL0     H46650   5.258   0.697   1.740  0.6720 -2.0411 -0.7093
  346MOL0     H46651   5.418   0.573   1.523 -0.9280  0.8004 -0.2853
  346MOL0     H46652   5.461   0.528   1.691  1.7112  1.6643  0.0159
  346MOL0     H46653   5.216   0.470   1.734 -1.1305  1.1701 -0.0193
  346MOL0     H46654   5.180   0.503   1.560  0.2639 -0.2503 -0.1905
  346MOL0     H46655   5.308   0.342   1.477 -0.6645 -0.5221 -0.9982
  346MOL0     H46656   5.389   0.293   1.624 -0.8403 -0.8000  2.1464
  346MOL0     H46657   5.233   0.128   1.582 -0.4269 -1.1792  2.6839
  346MOL0     H46658   5.097   0.240   1.541 -1.9123 -3.6916  0.7896
  346MOL0     H46659   5.223   0.195   1.822 -0.0438 -0.3151  0.2087
  346MOL0     H46660   5.080   0.299   1.785  0.6232  1.2005 -0.3850
  346MOL0     H46661   5.185  -0.079   1.767  0.2210  0.9937  1.8627
  346MOL0     H46662   4.856  -0.284   1.709  0.1892  0.9812 -0.9076
  346MOL0     H46663   5.035  -0.295   1.732  3.2514  3.6096  1.4294
  346MOL0     H46664   4.847  -0.222   1.969  1.5796 -0.9822  2.1050
  346MOL0     H46665   4.867  -0.391   1.921  0.3515 -0.0240  0.9323
  346MOL0     H46666   5.105  -0.220   1.950 -0.9764 -0.0323 -3.1387
  346MOL0     H46667   5.104  -0.397   1.947 -2.1451 -0.7138 -0.7417
  346MOL0     H46668   5.124  -0.354   2.186 -1.2553 -0.3947  0.9545
  346MOL0     H46669   4.961  -0.385   2.161 -2.5398  2.8839  1.4142
  346MOL0     H46670   5.267  -0.172   2.210  3.4913  1.7503 -1.5689
  346MOL0     H46671   5.398   0.037   2.190  0.7048  1.4397  0.8083
  346MOL0     H46672   5.463   0.469   1.987 -0.1630  2.5828 -4.2596
  346MOL0     H46673   5.560   0.679   1.967 -2.4968 -2.2097 -4.7769
  346MOL0     H46674   5.664   0.968   2.181 -1.9905  0.3077  0.9205
  346MOL0     H46675   5.665   0.816   2.086 -1.7436  0.0586 -1.5182
  346MOL0     H46676   5.638   0.953   1.869 -0.4062  0.5184 -0.0902
  346MOL0     H46677   5.608   1.097   1.974  0.9597 -0.1296  3.3199
  346MOL0     H46678   5.837   1.075   2.051 -0.3092 -3.1308  3.0276
  346MOL0     H46679   5.860   0.920   1.987 -2.4727 -1.3726  1.6770
  346MOL0     H46680   5.759   1.149   1.803 -0.5837 -0.3827  1.8659
  346MOL0     H46681   5.846   1.016   1.739  0.6319  2.6689 -1.9434
  346MOL0     H46682   6.043   1.117   1.887 -0.7952 -1.2265 -1.0246
  346MOL0     H46683   5.946   1.264   1.869  1.9240 -0.5253  2.2959
  346MOL0     H46684   5.964   1.225   1.614 -0.2250 -0.8610 -0.2424
  346MOL0     H46685   6.113   1.238   1.713 -1.9596  1.4971  5.2416
  346MOL0     H46686   5.984   0.991   1.594  1.5473 -2.7328  1.2604
  346MOL0     H46687   6.138   0.981   1.697  1.7076 -0.3091 -2.3316
  346MOL0     H46688   6.163   0.971   1.440  0.6564  0.5866  0.3456
  346MOL0     H46689   6.125   1.143   1.465 -1.5289  0.8142  1.0972
  346MOL0     H46690   5.265   0.843   2.238  0.2194 -0.7731  0.8358
  346MOL0     H46691   5.131   0.619   2.214 -1.9034  1.7331 -2.1407
  346MOL0     H46692   5.040   0.266   2.162 -2.3483 -1.5263  0.0115
  346MOL0     H46693   4.901   0.040   2.169  0.1311 -1.0425 -0.5456
  346MOL0     H46694   5.756   0.586   1.400 -1.6495 -0.3039  1.1410
  346MOL0     H46695   5.954   0.639   1.267  0.8324  1.2820 -0.6806
  346MOL0     H46696   6.045   0.891   0.818  0.2606  0.5769 -1.3745
  346MOL0     H46697   6.251   0.967   0.670 -2.6745  1.9557  1.4619
  346MOL0     H46698   6.676   1.083   0.793 -0.1676 -1.7971 -1.3372
  346MOL0     H46699   6.570   1.181   0.883 -2.0808 -2.1054  1.6730
  346MOL0     H46700   6.632   1.222   0.578  1.5849  1.6570 -0.3942
  346MOL0     H46701   6.687   1.315   0.719 -0.5027 -0.3501  1.6420
  346MOL0     H46702   6.507   1.437   0.621  1.0598  1.1225  2.3754
  346MOL0     H46703   6.435   1.370   0.770  1.5744 -0.8566  0.3441
  346MOL0     H46704   6.404   1.225   0.493 -0.0949  1.4779 -0.8070
  346MOL0     H46705   6.305   1.208   0.641 -2.6087 -1.5446 -3.1299
  346MOL0     H46706   6.125   1.558   0.504  0.9440  0.4276 -1.0098
  346MOL0     H46707   6.486   1.030   1.002 -0.8251 -0.4189  1.7241
  346MOL0     H46708   6.413   1.035   1.209 -0.0138 -1.6081 -2.3091
  346MOL0     H46709   6.253   1.103   1.227 -0.0155 -0.0449  1.1132
  346MOL0     H46710   6.282   0.922   1.259 -0.2701 -1.6124 -0.6831
  347MOL0     O46711   7.710   2.401   7.872  0.1644  0.8663  0.7142
  347MOL0     C46712   7.771   2.418   7.976  0.3008  0.0243  0.4399
  347MOL0     O46713   7.718   2.440   8.098  0.2315  0.1099 -0.2483
  347MOL0     C46714   7.587   2.438   8.118 -0.1711  0.4342  0.8014
  347MOL0     C46715   7.510   2.554   8.125 -0.9984 -0.5357  0.3949
  347MOL0     C46716   7.376   2.556   8.172 -0.0574 -0.2144 -0.3315
  347MOL0     C46717   7.319   2.432   8.200 -0.5373 -0.7068 -0.0793
  347MOL0     O46718   7.189   2.417   8.219  0.4011 -0.6619 -0.3044
  347MOL0     C46719   7.154   2.417   8.355  0.4106  1.0107  0.4015
  347MOL0     C46720   7.006   2.439   8.365  0.3928  0.5156 -0.1262
  347MOL0     C46721   6.965   2.577   8.313 -0.0498  0.7064 -0.4294
  347MOL0     C46722   6.819   2.593   8.356 -0.1014  1.2457  0.3976
  347MOL0     C46723   6.742   2.717   8.316 -0.1016  0.7341  0.2102
  347MOL0     C46724   6.589   2.704   8.309  0.2088  0.9389 -0.9764
  347MOL0     C46725   6.515   2.653   8.437  0.2940 -0.5868  0.5714
  347MOL0     C46726   6.505   2.497   8.435  1.1120 -0.0956  0.3576
  347MOL0     N46727   6.403   2.452   8.533 -0.0607  1.4991 -0.7064
  347MOL0     C46728   6.266   2.441   8.523  0.5363  0.1763  0.9003
  347MOL0     C46729   6.229   2.357   8.620  0.1993  0.4725 -0.7581
  347MOL0     C46730   6.093   2.303   8.655  0.7933 -0.0829  0.3675
  347MOL0     C46731   6.039   2.199   8.564  0.3405 -0.1600 -0.1704
  347MOL0     C46732   5.883   2.178   8.569 -0.3004 -0.3440  0.4294
  347MOL0     C46733   5.834   2.093   8.448 -0.3581  0.5095  0.8293
  347MOL0     O46734   5.692   2.071   8.440  0.5900 -0.2494 -0.1310
  347MOL0     C46735   5.604   2.174   8.402 -1.4563  0.4876 -0.2573
  347MOL0     C46736   5.467   2.167   8.432 -0.6828  0.1389 -0.0147
  347MOL0     C46737   5.380   2.277   8.398 -0.1950  0.7889 -0.6490
  347MOL0     C46738   5.436   2.388   8.328 -0.0358 -1.0823 -0.4932
  347MOL0     C46739   5.354   2.495   8.276 -0.0897 -0.1143 -0.1324
  347MOL0     O46740   5.419   2.575   8.181  0.0441 -0.0881 -0.0676
  347MOL0     C46741   5.374   2.684   8.125 -0.4703 -0.0555  0.7583
  347MOL0     C46742   5.382   2.807   8.191 -0.2920  0.8817 -0.1625
  347MOL0     C46743   5.332   2.920   8.135 -0.2205 -0.8276 -0.0399
  347MOL0     C46744   5.276   2.917   8.007 -0.0786 -0.3514 -0.3425
  347MOL0     O46745   5.251   3.037   7.948  0.8670 -0.1245  0.0778
  347MOL0     C46746   5.350   3.141   7.971  0.0021  0.5829  1.0353
  347MOL0     C46747   5.370   3.211   7.839  0.8442 -0.2302 -0.6791
  347MOL0     C46748   5.493   3.310   7.855 -0.3683  0.0344  0.5672
  347MOL0     C46749   5.475   3.386   7.719 -0.5690 -0.8063  0.6722
  347MOL0     C46750   5.544   3.522   7.735 -0.1372  0.3048 -0.6541
  347MOL0     C46751   5.524   3.616   7.612 -0.6938  0.5984  0.4071
  347MOL0     C46752   5.607   3.577   7.491  0.3183  0.1493 -0.0418
  347MOL0     C46753   5.593   3.663   7.367  0.7775 -0.4678  0.2206
  347MOL0    Cl46754   5.428   3.640   7.312  0.0900 -0.1419  0.1101
  347MOL0     C46755   5.269   2.798   7.934 -0.5430  0.6589  0.3414
  347MOL0     C46756   5.315   2.686   7.997  0.2806 -0.0183  0.0872
  347MOL0     O46757   5.235   2.507   8.312 -0.1720 -0.4842 -0.5324
  347MOL0     C46758   5.573   2.398   8.307  0.4833  0.1679 -0.2307
  347MOL0     C46759   5.655   2.286   8.340 -0.2244  0.5412 -0.5781
  347MOL0     N46760   6.334   2.329   8.703  0.7486  0.8109  0.2694
  347MOL0     N46761   6.440   2.390   8.653  0.3748  0.7332  0.5633
  347MOL0     C46762   7.387   2.314   8.189 -0.2680 -0.7240  0.5946
  347MOL0     C46763   7.523   2.317   8.146  0.1070 -0.0770  0.4917
  347MOL0     C46764   7.916   2.457   7.954 -0.0737 -1.1603  0.3768
  347MOL0     C46765   7.980   2.533   8.056 -0.2147  0.4251 -0.0331
  347MOL0     C46766   8.108   2.592   8.049 -0.3333 -0.4300 -0.0834
  347MOL0     C46767   8.179   2.573   7.934  0.2313  0.0963  0.3766
  347MOL0     O46768   8.311   2.607   7.911 -0.0253  0.1175  0.7757
  347MOL0     C46769   8.369   2.706   8.002 -0.7050 -0.3436  0.3842
  347MOL0     C46770   8.497   2.759   7.927  0.3438  0.2154 -0.7059
  347MOL0     C46771   8.593   2.842   8.026  0.7717  0.0141  0.4834
  347MOL0     C46772   8.529   2.976   8.076 -0.4458 -0.0289 -0.2920
  347MOL0     C46773   8.454   3.052   7.979  0.7592  0.2281 -0.0334
  347MOL0     C46774   8.406   3.120   7.896 -0.1935  0.6842 -0.6074
  347MOL0     C46775   8.124   2.482   7.836 -0.7437  0.0452  0.3704
  347MOL0     C46776   7.997   2.430   7.836 -0.4693  0.0940 -0.1390
  347MOL0     C46777   7.947   2.341   7.719 -0.0597 -0.3151  1.1496
  347MOL0     H46778   7.556   2.648   8.097 -0.4392 -1.7171 -3.0491
  347MOL0     H46779   7.318   2.648   8.174  0.6809  0.2505  1.5404
  347MOL0     H46780   7.175   2.316   8.393 -1.1964 -0.6045 -2.6619
  347MOL0     H46781   7.208   2.497   8.408 -0.2296  4.0899 -3.1907
  347MOL0     H46782   6.977   2.421   8.469  0.4630  3.6733  0.5337
  347MOL0     H46783   6.962   2.362   8.301  0.0753  1.1286 -0.6460
  347MOL0     H46784   6.984   2.596   8.207 -4.4289  2.8506 -1.0587
  347MOL0     H46785   7.015   2.647   8.380 -0.9758  0.3470  0.6824
  347MOL0     H46786   6.762   2.504   8.327  0.4780  1.2939 -0.9799
  347MOL0     H46787   6.828   2.589   8.465  0.2071 -2.3050  0.3583
  347MOL0     H46788   6.766   2.791   8.392 -1.8536  1.0960  0.4502
  347MOL0     H46789   6.762   2.756   8.215  0.0485  1.4349  0.5059
  347MOL0     H46790   6.537   2.792   8.271 -0.6272  1.4597  1.2008
  347MOL0     H46791   6.572   2.628   8.233  0.3147 -1.9700  1.6897
  347MOL0     H46792   6.414   2.693   8.428 -0.2226 -2.2305 -2.4941
  347MOL0     H46793   6.549   2.692   8.533 -1.3270  0.0511  0.9204
  347MOL0     H46794   6.480   2.453   8.338 -1.5154  2.9248 -0.5075
  347MOL0     H46795   6.606   2.464   8.461  1.4805  1.0603  0.4590
  347MOL0     H46796   6.206   2.494   8.450  0.1300  0.0356  1.1278
  347MOL0     H46797   6.104   2.254   8.752  0.1220  0.3761  0.6844
  347MOL0     H46798   6.020   2.385   8.654 -3.7347 -3.6912  1.5263
  347MOL0     H46799   6.061   2.252   8.470  0.6399  2.4389  1.2642
  347MOL0     H46800   6.092   2.104   8.576 -1.6049 -1.1307  1.3595
  347MOL0     H46801   5.841   2.279   8.554  0.4934 -0.1429 -0.5673
  347MOL0     H46802   5.851   2.131   8.662  0.7029 -0.3019  0.7997
  347MOL0     H46803   5.870   1.991   8.457 -0.5511  0.5204  1.8261
  347MOL0     H46804   5.868   2.113   8.346 -1.9679 -0.7929 -0.0151
  347MOL0     H46805   5.426   2.092   8.499 -0.0532  1.9898  2.5996
  347MOL0     H46806   5.276   2.281   8.426  0.2092  0.1190  1.0884
  347MOL0     H46807   5.437   2.805   8.285 -0.1955  2.2954 -0.1687
  347MOL0     H46808   5.340   3.014   8.189 -0.5130  0.5323 -2.2403
  347MOL0     H46809   5.303   3.214   8.038 -1.0205  0.4134  0.5245
  347MOL0     H46810   5.445   3.102   8.006  1.9374  0.7097 -3.4187
  347MOL0     H46811   5.388   3.145   7.754  1.9842  1.6742 -1.9798
  347MOL0     H46812   5.273   3.256   7.818  0.5071 -0.3284  0.5564
  347MOL0     H46813   5.472   3.379   7.938 -0.5787  0.5690  0.0755
  347MOL0     H46814   5.590   3.263   7.871 -1.0206 -0.9660  1.7135
  347MOL0     H46815   5.370   3.397   7.690 -0.1783  2.4507  0.1378
  347MOL0     H46816   5.522   3.325   7.641  0.8078  1.6762 -0.5733
  347MOL0     H46817   5.649   3.499   7.757 -0.3394 -0.4312 -0.4094
  347MOL0     H46818   5.500   3.569   7.823 -0.3441 -0.5272 -0.2986
  347MOL0     H46819   5.415   3.617   7.600 -0.6384  0.1056 -0.1497
  347MOL0     H46820   5.561   3.712   7.650 -0.0744  0.1768  0.8994
  347MOL0     H46821   5.572   3.478   7.460 -0.2457 -0.1279  1.4053
  347MOL0     H46822   5.715   3.572   7.501  0.4108 -1.3371 -1.3727
  347MOL0     H46823   5.607   3.769   7.391  0.2671 -0.5650  1.0111
  347MOL0     H46824   5.666   3.628   7.294 -0.4963 -3.9367  0.4467
  347MOL0     H46825   5.221   2.804   7.837  0.7091 -1.3875 -0.4657
  347MOL0     H46826   5.304   2.590   7.948  1.5266  0.0349 -0.3207
  347MOL0     H46827   5.620   2.487   8.267  0.8260  0.1150  0.0483
  347MOL0     H46828   5.756   2.299   8.303 -0.2433 -0.3982 -0.9945
  347MOL0     H46829   7.328   2.223   8.202  0.9464 -1.4153  1.3896
  347MOL0     H46830   7.572   2.220   8.155 -2.4222 -1.3768  1.2500
  347MOL0     H46831   7.934   2.543   8.154 -1.5816  1.9753 -0.7967
  347MOL0     H46832   8.144   2.668   8.118 -1.2521 -0.0819  0.0234
  347MOL0     H46833   8.407   2.664   8.096 -0.8951  1.3014  1.2207
  347MOL0     H46834   8.305   2.790   8.028  0.7048  0.8679  0.0538
  347MOL0     H46835   8.459   2.823   7.848 -2.7097 -2.2721 -1.4518
  347MOL0     H46836   8.566   2.681   7.893  0.7461  0.9315 -1.5817
  347MOL0     H46837   8.688   2.860   7.976  0.6445  2.3382  0.9906
  347MOL0     H46838   8.626   2.792   8.118  2.0745  2.6033  1.5321
  347MOL0     H46839   8.468   2.953   8.164  0.7381  2.7501  1.4081
  347MOL0     H46840   8.605   3.039   8.123 -1.8026  1.4562  0.0146
  347MOL0     H46841   8.349   3.177   7.825  0.8048  3.1944  0.4828
  347MOL0     H46842   8.175   2.466   7.741 -1.6232 -1.1717  0.0756
  347MOL0     H46843   8.026   2.346   7.643 -0.3405  0.9358  0.9258
  347MOL0     H46844   7.931   2.238   7.752 -3.0320  0.3191  1.9892
  347MOL0     H46845   7.856   2.380   7.674 -0.8698 -2.0629  1.1824
  348MOL0     O46846   4.506  10.617   6.914 -0.3341  0.1098 -0.0562
  348MOL0     C46847   4.411  10.686   6.892 -0.3326 -0.2486 -0.5423
  348MOL0     O46848   4.410  10.821   6.916  0.4128 -0.2043 -0.6478
  348MOL0     C46849   4.504  10.898   6.985  0.2539  1.2258 -1.1527
  348MOL0     C46850   4.638  10.891   6.947  0.7320  0.8796 -0.7534
  348MOL0     C46851   4.726  10.981   7.000 -0.2263 -1.1063 -0.0628
  348MOL0     C46852   4.682  11.069   7.096 -0.6221 -0.3535  0.2876
  348MOL0     O46853   4.775  11.153   7.146 -0.9769 -0.1963 -0.1856
  348MOL0     C46854   4.743  11.294   7.146 -0.2617 -0.6511 -0.5786
  348MOL0     C46855   4.866  11.386   7.188  0.4934 -0.6488  0.5033
  348MOL0     C46856   4.920  11.349   7.322  0.1117  0.6405  0.1132
  348MOL0     C46857   4.825  11.399   7.437 -0.3680  0.2974  0.6394
  348MOL0     C46858   4.895  11.386   7.576  0.8402 -0.3997  0.3278
  348MOL0     C46859   4.795  11.404   7.695 -0.3445  0.3564 -0.2594
  348MOL0     C46860   4.767  11.557   7.723 -0.9588 -0.0326  0.5683
  348MOL0     C46861   4.683  11.569   7.855 -0.5056  0.1496 -1.4290
  348MOL0     N46862   4.560  11.501   7.837 -0.4689  0.7193  0.1307
  348MOL0     C46863   4.533  11.370   7.875 -0.2177 -0.7131 -0.6502
  348MOL0     C46864   4.429  11.331   7.804 -0.6583 -0.1224 -0.1340
  348MOL0     C46865   4.376  11.192   7.812 -0.2865  0.2587  0.3401
  348MOL0     C46866   4.291  11.155   7.930  0.0336  0.3864 -0.9305
  348MOL0     C46867   4.137  11.155   7.896 -0.2175  0.4558  1.0273
  348MOL0     C46868   4.098  11.045   7.801 -0.5277 -0.3887  0.0480
  348MOL0     O46869   4.122  10.910   7.859 -0.5487  0.3489  0.2004
  348MOL0     C46870   4.047  10.799   7.832  0.4210  0.5020  0.7431
  348MOL0     C46871   3.978  10.784   7.707 -0.1922 -0.5940  0.0838
  348MOL0     C46872   3.945  10.664   7.665  0.5416 -0.1257  0.2702
  348MOL0     C46873   3.958  10.543   7.747 -0.4729 -0.0279 -0.0402
  348MOL0     C46874   3.924  10.411   7.704  0.1693 -0.4785 -0.0602
  348MOL0     O46875   3.893  10.394   7.566 -0.3241 -0.9624  0.0903
  348MOL0     C46876   3.810  10.293   7.535  0.1889 -0.8036  0.2977
  348MOL0     C46877   3.692  10.270   7.610 -0.3491  0.6966  0.1280
  348MOL0     C46878   3.609  10.165   7.563  0.2573  0.0574  0.6944
  348MOL0     C46879   3.624  10.097   7.441 -0.0990 -0.8220  0.2340
  348MOL0     O46880   3.531   9.997   7.420 -0.2896  0.2413  0.3767
  348MOL0     C46881   3.532   9.916   7.306 -0.7544  0.0627  0.3141
  348MOL0     C46882   3.480  10.002   7.187 -0.3528  0.4221 -0.2606
  348MOL0     C46883   3.462   9.920   7.058  0.1864  0.7434 -0.2016
  348MOL0     C46884   3.426  10.006   6.926  0.8491 -0.1952 -0.2056
  348MOL0     C46885   3.413   9.918   6.804  1.4772  0.0849 -0.5665
  348MOL0     C46886   3.276   9.841   6.802  0.2918 -0.3018 -1.0195
  348MOL0     C46887   3.277   9.773   6.668  0.2384 -0.6349  1.0158
  348MOL0     C46888   3.158   9.689   6.646  0.7520  0.1604  0.1334
  348MOL0    Cl46889   3.016   9.803   6.622  0.0903  0.4465 -0.1889
  348MOL0     C46890   3.742  10.125   7.363 -0.6488  0.8617  0.1939
  348MOL0     C46891   3.828  10.219   7.410 -0.5035  0.1021  0.5788
  348MOL0     O46892   3.919  10.320   7.783  0.3168 -0.4069  0.0070
  348MOL0     C46893   4.028  10.563   7.867  0.2666 -0.2915 -0.2324
  348MOL0     C46894   4.069  10.688   7.908  0.8479 -0.4175 -0.2516
  348MOL0     N46895   4.388  11.442   7.732  0.6244  0.0495  0.7276
  348MOL0     N46896   4.468  11.535   7.754  0.7526 -0.0671  0.2839
  348MOL0     C46897   4.551  11.074   7.137 -1.0289  0.3549 -0.4939
  348MOL0     C46898   4.464  10.982   7.088 -0.6180 -0.2650  0.5842
  348MOL0     C46899   4.275  10.646   6.845 -0.2304  0.5798 -0.9959
  348MOL0     C46900   4.162  10.702   6.910 -0.1354  0.2559  0.2574
  348MOL0     C46901   4.031  10.671   6.871 -0.1412 -0.4364  0.9059
  348MOL0     C46902   4.007  10.569   6.775 -1.0491 -1.7199 -0.3274
  348MOL0     O46903   3.891  10.533   6.723  0.0315  0.3278  0.4681
  348MOL0     C46904   3.778  10.618   6.756 -0.2825 -0.1595 -0.5478
  348MOL0     C46905   3.662  10.596   6.664 -0.0342 -0.1625  0.0922
  348MOL0     C46906   3.590  10.454   6.682  0.3823 -0.1049  0.2501
  348MOL0     C46907   3.466  10.432   6.592  0.1659  0.0181  0.2018
  348MOL0     C46908   3.432  10.295   6.569  0.2827  0.3666  0.1929
  348MOL0     C46909   3.390  10.185   6.542  0.1758  0.3258 -0.4474
  348MOL0     C46910   4.114  10.511   6.713 -0.3287 -0.5177 -0.2078
  348MOL0     C46911   4.243  10.552   6.739  0.6496 -0.2747 -0.2603
  348MOL0     C46912   4.351  10.483   6.665  0.4564 -0.2348  0.4102
  348MOL0     H46913   4.654  10.832   6.857  0.0781  1.1806 -1.0685
  348MOL0     H46914   4.820  10.993   6.948  0.1001 -1.1131  0.5186
  348MOL0     H46915   4.699  11.322   7.050 -0.7931  2.5577  0.4595
  348MOL0     H46916   4.663  11.314   7.218 -0.4249 -1.3835 -0.5542
  348MOL0     H46917   4.847  11.493   7.174 -0.8402 -0.9150  0.1306
  348MOL0     H46918   4.933  11.366   7.104 -1.7358  1.9574 -2.1044
  348MOL0     H46919   5.021  11.389   7.338  0.2610  0.5052 -0.4658
  348MOL0     H46920   4.930  11.240   7.335  0.2363  0.7436  0.9835
  348MOL0     H46921   4.810  11.506   7.417 -0.8596 -0.1167 -1.4175
  348MOL0     H46922   4.726  11.353   7.436 -2.7895  4.7951 -2.2199
  348MOL0     H46923   4.943  11.288   7.583  1.2164 -0.2775 -0.3835
  348MOL0     H46924   4.980  11.456   7.575  1.4463 -1.0845 -1.8261
  348MOL0     H46925   4.703  11.352   7.665 -0.2984  0.3944 -0.4700
  348MOL0     H46926   4.839  11.359   7.785 -1.2186  1.6300  0.8380
  348MOL0     H46927   4.724  11.613   7.639 -0.0846  0.4786  0.4557
  348MOL0     H46928   4.853  11.621   7.743  0.7486 -1.9884 -0.1424
  348MOL0     H46929   4.739  11.520   7.935 -1.4505 -0.7087 -1.2742
  348MOL0     H46930   4.676  11.676   7.876  2.0883  0.4174 -1.6488
  348MOL0     H46931   4.597  11.306   7.935  0.3260 -0.6252 -1.1237
  348MOL0     H46932   4.317  11.197   7.720 -2.2061  2.1016  1.5826
  348MOL0     H46933   4.467  11.131   7.814  0.5786  1.3607 -1.6917
  348MOL0     H46934   4.323  11.055   7.961  0.1932 -0.4980 -3.6280
  348MOL0     H46935   4.298  11.211   8.023 -4.5296 -2.6435  1.5978
  348MOL0     H46936   4.114  11.250   7.846  0.2100  0.7549  1.3933
  348MOL0     H46937   4.068  11.155   7.981 -2.3706  0.8874 -0.6099
  348MOL0     H46938   4.155  11.046   7.708 -0.5753 -1.2564 -0.0054
  348MOL0     H46939   3.991  11.059   7.784  0.0367  1.8296 -2.3461
  348MOL0     H46940   3.970  10.867   7.638 -0.5528  0.1695  1.0075
  348MOL0     H46941   3.911  10.650   7.563 -0.4556  2.6113  0.1267
  348MOL0     H46942   3.658  10.317   7.701 -1.0601  1.2214 -0.4011
  348MOL0     H46943   3.523  10.134   7.621  2.2102 -1.4923  2.9630
  348MOL0     H46944   3.628   9.867   7.287 -0.5236  1.5077 -3.0498
  348MOL0     H46945   3.451   9.847   7.326  0.5063 -0.9267  2.3510
  348MOL0     H46946   3.391  10.060   7.214  1.3377  2.8861  0.3550
  348MOL0     H46947   3.556  10.079   7.170  1.0299  0.4312  4.4586
  348MOL0     H46948   3.559   9.875   7.033  0.7322  2.0564 -0.5605
  348MOL0     H46949   3.392   9.838   7.076 -0.6769  1.4258 -0.3634
  348MOL0     H46950   3.501  10.085   6.918  1.4442 -0.8078 -0.7748
  348MOL0     H46951   3.332  10.057   6.949  0.5105 -0.3088 -1.3189
  348MOL0     H46952   3.500   9.853   6.812  2.5096  1.1827 -2.2521
  348MOL0     H46953   3.412   9.986   6.718  1.1699  2.3934  1.1683
  348MOL0     H46954   3.264   9.775   6.889  0.1885 -0.8087 -1.4114
  348MOL0     H46955   3.195   9.914   6.803 -2.1017 -2.7338  1.9595
  348MOL0     H46956   3.368   9.716   6.649  0.5749  1.0124 -3.7244
  348MOL0     H46957   3.277   9.848   6.588 -0.7443 -2.1431 -0.4549
  348MOL0     H46958   3.172   9.635   6.552  1.7121  0.7396 -0.0702
  348MOL0     H46959   3.131   9.639   6.739  1.0108  4.0172  2.5204
  348MOL0     H46960   3.760  10.073   7.269  0.9509  0.8675  0.4716
  348MOL0     H46961   3.918  10.245   7.356 -1.5472  1.9666 -0.3573
  348MOL0     H46962   4.043  10.489   7.946  1.2450 -1.3213 -1.3403
  348MOL0     H46963   4.132  10.701   7.995  0.1225  1.2162  0.0745
  348MOL0     H46964   4.512  11.149   7.205 -2.5348  0.6362 -1.6059
  348MOL0     H46965   4.363  10.996   7.126  0.2877  1.4907  2.5714
  348MOL0     H46966   4.173  10.774   6.990 -0.6702  0.4757  0.1399
  348MOL0     H46967   3.941  10.724   6.903  0.1148  0.7358 -0.1941
  348MOL0     H46968   3.800  10.722   6.732 -0.4486 -0.2513 -1.0893
  348MOL0     H46969   3.756  10.606   6.863  1.1772  2.9864  0.2294
  348MOL0     H46970   3.691  10.605   6.559  1.7272  0.0271  0.5757
  348MOL0     H46971   3.585  10.672   6.679  0.7113  0.7486 -0.5536
  348MOL0     H46972   3.569  10.427   6.786 -0.5755  1.7717  0.5863
  348MOL0     H46973   3.672  10.389   6.650 -0.7416 -0.8943 -1.1141
  348MOL0     H46974   3.380  10.482   6.638 -1.2319 -0.5368 -1.6625
  348MOL0     H46975   3.489  10.464   6.490 -0.9225 -2.0069 -0.7558
  348MOL0     H46976   3.353  10.086   6.524  0.9274  0.2405 -1.6174
  348MOL0     H46977   4.097  10.425   6.649  2.9638 -1.9627  0.6365
  348MOL0     H46978   4.426  10.450   6.737  3.6708  2.6699 -1.3165
  348MOL0     H46979   4.313  10.403   6.601 -0.3217  1.2285 -1.0318
  348MOL0     H46980   4.399  10.551   6.594 -1.3642  0.5016 -0.1856
  349MOL0     O46981  11.353   5.494   9.334 -0.4128 -0.1175  0.5823
  349MOL0     C46982  11.308   5.435   9.434  0.8491  0.5242 -0.0561
  349MOL0     O46983  11.189   5.373   9.436 -0.2126 -0.7983  0.6518
  349MOL0     C46984  11.126   5.340   9.322 -0.4434 -0.5979  0.2329
  349MOL0     C46985  11.190   5.282   9.208 -1.0562  1.0511  0.0145
  349MOL0     C46986  11.128   5.291   9.087 -0.0282  0.7125  0.2750
  349MOL0     C46987  11.007   5.369   9.067  0.5615  0.2556 -0.1659
  349MOL0     O46988  10.946   5.406   8.950  0.7822  0.0762 -0.2605
  349MOL0     C46989  11.040   5.393   8.841 -0.0997  0.6768  0.0803
  349MOL0     C46990  10.980   5.462   8.714 -0.0518 -0.5740 -0.2337
  349MOL0     C46991  10.837   5.437   8.686  0.1130 -0.3508  0.0051
  349MOL0     C46992  10.811   5.429   8.532 -0.1149 -0.7326 -0.9193
  349MOL0     C46993  10.832   5.572   8.466 -0.7010  0.3913 -0.8480
  349MOL0     C46994  10.778   5.592   8.321 -0.6575  0.2397 -0.8257
  349MOL0     C46995  10.628   5.597   8.315 -0.3725  0.3977  0.2729
  349MOL0     C46996  10.571   5.676   8.196  0.3275 -0.7243  0.1727
  349MOL0     N46997  10.557   5.817   8.246 -0.0567  0.4482  0.0325
  349MOL0     C46998  10.458   5.861   8.335 -0.8421 -0.5423 -0.4458
  349MOL0     C46999  10.495   5.990   8.360 -0.9298 -0.1866 -0.6242
  349MOL0     C47000  10.400   6.094   8.402  0.7577  0.2876  1.0241
  349MOL0     C47001  10.322   6.152   8.283  0.2525  0.4556 -0.6148
  349MOL0     C47002  10.222   6.255   8.305  0.3358  0.8230 -0.0113
  349MOL0     C47003  10.082   6.215   8.342 -0.1910  0.2416 -0.5054
  349MOL0     O47004  10.075   6.087   8.402 -0.5083  0.0958  0.4072
  349MOL0     C47005   9.962   6.028   8.452 -0.9709  0.3183  0.9750
  349MOL0     C47006   9.838   6.081   8.436  0.0176  0.5969 -0.4401
  349MOL0     C47007   9.727   6.015   8.500  0.4590  1.4646 -0.9990
  349MOL0     C47008   9.743   5.896   8.580 -0.8787 -0.2284  0.2226
  349MOL0     C47009   9.636   5.814   8.646  0.5528 -0.6050  0.6961
  349MOL0     O47010   9.518   5.880   8.638 -0.5571 -0.7007  0.1124
  349MOL0     C47011   9.408   5.854   8.722 -0.9811  0.7471  0.1937
  349MOL0     C47012   9.274   5.877   8.687  0.0506  0.0534  0.3444
  349MOL0     C47013   9.164   5.847   8.764  0.2486 -0.2604 -0.5178
  349MOL0     C47014   9.182   5.799   8.891 -0.1666  0.9859  0.5207
  349MOL0     O47015   9.076   5.767   8.978  0.0537  0.0895  0.0637
  349MOL0     C47016   9.093   5.746   9.115 -0.0936  0.8128  0.0459
  349MOL0     C47017   8.953   5.708   9.165  0.1178 -0.0037  0.6383
  349MOL0     C47018   8.966   5.620   9.292  1.8513  0.2678  0.3888
  349MOL0     C47019   8.831   5.592   9.353 -0.2176  0.4094  0.0114
  349MOL0     C47020   8.756   5.474   9.274  0.1357  0.8095 -0.4381
  349MOL0     C47021   8.646   5.414   9.356  0.5416 -0.5469 -0.3941
  349MOL0     C47022   8.571   5.290   9.296 -0.2188 -0.9780  0.3142
  349MOL0     C47023   8.427   5.262   9.353 -0.0985 -0.8964 -0.2366
  349MOL0    Cl47024   8.331   5.138   9.258 -0.5313  0.5944  0.0499
  349MOL0     C47025   9.313   5.792   8.940 -0.1431  0.5646  0.0890
  349MOL0     C47026   9.423   5.812   8.853 -0.0345  0.1191  0.3129
  349MOL0     O47027   9.661   5.710   8.698 -0.1288 -0.4906  0.5624
  349MOL0     C47028   9.877   5.849   8.592 -0.0469 -0.3622  0.9995
  349MOL0     C47029   9.983   5.913   8.529 -0.0299 -0.2578  0.4309
  349MOL0     N47030  10.613   6.011   8.295 -0.9771 -0.8472  0.1381
  349MOL0     N47031  10.648   5.919   8.217 -0.5378 -0.1205  0.0454
  349MOL0     C47032  10.941   5.412   9.181 -0.7550 -0.4370  0.9401
  349MOL0     C47033  11.004   5.397   9.298  0.0364 -0.5291 -0.3480
  349MOL0     C47034  11.370   5.450   9.569 -1.1166  0.2359 -0.0468
  349MOL0     C47035  11.317   5.392   9.685 -0.6371  0.6613 -0.4642
  349MOL0     C47036  11.370   5.424   9.812 -0.1009  0.0701  1.1805
  349MOL0     C47037  11.481   5.490   9.829 -0.3972  0.7434 -0.1808
  349MOL0     O47038  11.545   5.506   9.954  0.2079  0.7194 -0.3417
  349MOL0     C47039  11.544   5.637  10.009  0.0595 -0.4381 -0.8737
  349MOL0     C47040  11.410   5.721   9.987  0.3779 -0.1097 -0.0167
  349MOL0     C47041  11.363   5.816  10.092  0.4914 -0.4559  0.7766
  349MOL0     C47042  11.213   5.846  10.073 -0.1474 -0.8619 -0.0225
  349MOL0     C47043  11.161   5.955  10.162 -0.0289  1.1494  0.4950
  349MOL0     C47044  11.120   6.034  10.245 -0.1392  0.4292 -1.1632
  349MOL0     C47045  11.532   5.554   9.724 -0.3409  0.8218  0.2417
  349MOL0     C47046  11.481   5.538   9.593  0.0162 -0.5725 -0.4124
  349MOL0     C47047  11.556   5.609   9.479  0.5801  0.6932 -0.7307
  349MOL0     H47048  11.286   5.233   9.217 -1.9465 -0.4366  2.0039
  349MOL0     H47049  11.177   5.240   9.004  0.2447 -1.5902  1.7638
  349MOL0     H47050  11.135   5.439   8.870  2.3338 -2.7392 -1.6751
  349MOL0     H47051  11.057   5.290   8.806  3.8262  1.4367 -0.7698
  349MOL0     H47052  11.046   5.442   8.628  0.3478 -2.2063  0.4057
  349MOL0     H47053  10.978   5.571   8.723 -1.1655 -0.2114 -3.4046
  349MOL0     H47054  10.787   5.522   8.732  0.0591 -0.7893  0.7849
  349MOL0     H47055  10.815   5.345   8.742  1.8944  0.4972  2.2859
  349MOL0     H47056  10.880   5.359   8.485  1.3179 -0.6623  0.9597
  349MOL0     H47057  10.710   5.396   8.507  0.6330 -3.1292 -0.9903
  349MOL0     H47058  10.805   5.662   8.523  3.9673  0.4955  1.6444
  349MOL0     H47059  10.941   5.574   8.464 -0.3769 -2.1392  3.2603
  349MOL0     H47060  10.813   5.693   8.295 -0.5283  1.0286  2.0495
  349MOL0     H47061  10.832   5.518   8.261  4.3653  0.1162  3.1587
  349MOL0     H47062  10.573   5.631   8.404 -2.5657 -1.3748 -0.3130
  349MOL0     H47063  10.594   5.494   8.303  5.1432 -1.5324 -1.8106
  349MOL0     H47064  10.632   5.673   8.105 -0.7119  1.6190 -0.6831
  349MOL0     H47065  10.466   5.656   8.171 -0.0461  0.0686  1.0845
  349MOL0     H47066  10.365   5.810   8.358  0.1815 -2.3843 -0.2062
  349MOL0     H47067  10.326   6.047   8.466  0.5274 -0.1605  0.4407
  349MOL0     H47068  10.445   6.176   8.459 -1.7887  3.6484 -1.3519
  349MOL0     H47069  10.397   6.198   8.219  1.2180 -0.5355 -0.2422
  349MOL0     H47070  10.271   6.074   8.225  0.3074  2.9688 -4.3495
  349MOL0     H47071  10.211   6.313   8.213  0.0582  1.0906  0.1863
  349MOL0     H47072  10.264   6.332   8.371  2.9066 -0.2910 -0.2363
  349MOL0     H47073  10.024   6.225   8.250  0.8518  0.8285 -1.1125
  349MOL0     H47074  10.040   6.287   8.413  1.8981  0.4782  0.5686
  349MOL0     H47075   9.820   6.166   8.370 -1.4069  1.2096  0.6843
  349MOL0     H47076   9.625   6.048   8.484 -0.5395 -1.9291 -2.7005
  349MOL0     H47077   9.265   5.889   8.580 -2.7089  3.6692  0.7941
  349MOL0     H47078   9.064   5.846   8.723  0.3593 -1.1518 -0.7989
  349MOL0     H47079   9.156   5.660   9.135  0.8280  1.5672  0.4689
  349MOL0     H47080   9.130   5.830   9.175 -0.7943  2.2728 -1.4645
  349MOL0     H47081   8.891   5.792   9.198 -1.2566 -0.9514  0.5790
  349MOL0     H47082   8.902   5.639   9.097  0.8407 -1.5024  1.5459
  349MOL0     H47083   9.008   5.525   9.258 -1.4241 -1.1933  0.1626
  349MOL0     H47084   9.022   5.675   9.369 -1.1957  0.3822  2.6789
  349MOL0     H47085   8.769   5.681   9.361 -0.1406  0.6428 -1.7019
  349MOL0     H47086   8.851   5.555   9.454 -0.5073  1.8145  0.6071
  349MOL0     H47087   8.820   5.395   9.233 -0.1620  1.8126 -3.0411
  349MOL0     H47088   8.710   5.520   9.186 -1.9704  0.3035  0.3558
  349MOL0     H47089   8.691   5.391   9.453 -1.5858 -0.4437  0.6754
  349MOL0     H47090   8.568   5.486   9.381 -0.4873 -1.0778 -1.9119
  349MOL0     H47091   8.636   5.206   9.321 -1.4953 -1.8572  0.7910
  349MOL0     H47092   8.555   5.297   9.188 -0.5446  0.5047  0.4377
  349MOL0     H47093   8.434   5.233   9.459  1.8976 -0.2416 -0.1465
  349MOL0     H47094   8.391   5.365   9.352  0.9891 -0.4908 -1.7921
  349MOL0     H47095   9.346   5.775   9.042  0.5586 -3.6464 -0.6835
  349MOL0     H47096   9.520   5.790   8.898 -0.2483 -4.4909 -0.8938
  349MOL0     H47097   9.894   5.756   8.647  3.6558 -1.0380 -0.9388
  349MOL0     H47098  10.083   5.883   8.561  0.0313 -2.3302 -1.4173
  349MOL0     H47099  10.847   5.464   9.165  0.0842  0.5423 -1.2052
  349MOL0     H47100  10.962   5.445   9.385  0.0125 -1.8015  0.3671
  349MOL0     H47101  11.229   5.329   9.693 -1.5809  1.9324 -0.5166
  349MOL0     H47102  11.321   5.399   9.905 -2.6640  3.1534  0.8062
  349MOL0     H47103  11.635   5.687   9.977  1.2939 -2.9733 -1.6357
  349MOL0     H47104  11.560   5.626  10.117 -2.1653 -2.0704 -0.6082
  349MOL0     H47105  11.329   5.659   9.948 -2.5381  2.0743  2.0406
  349MOL0     H47106  11.422   5.786   9.899 -0.6377 -0.3172 -0.3257
  349MOL0     H47107  11.414   5.912  10.080 -1.6142  0.8464  1.7075
  349MOL0     H47108  11.369   5.772  10.192  1.3938 -0.1751  0.8608
  349MOL0     H47109  11.177   5.878   9.975  2.2090  4.0808  0.4500
  349MOL0     H47110  11.163   5.751  10.097  2.4571 -2.2894  0.1145
  349MOL0     H47111  11.084   6.092  10.327  0.3031  0.0070 -0.6674
  349MOL0     H47112  11.619   5.617   9.739 -0.5551  0.8550  1.4529
  349MOL0     H47113  11.510   5.683   9.413  3.6059  0.6551 -3.1406
  349MOL0     H47114  11.639   5.660   9.528 -0.7073 -0.8427  3.4259
  349MOL0     H47115  11.599   5.541   9.405 -1.1743  2.0435 -3.1334
  350MOL0     O47116   7.265   3.342   0.845 -0.0562  0.0524 -0.2189
  350MOL0     C47117   7.227   3.396   0.741 -0.5314 -0.5895  0.3746
  350MOL0     O47118   7.246   3.529   0.708 -0.5811  0.0661  0.5602
  350MOL0     C47119   7.290   3.608   0.811 -0.5829 -0.7059  0.5706
  350MOL0     C47120   7.430   3.620   0.838  0.2445  0.3132 -0.1434
  350MOL0     C47121   7.465   3.688   0.950 -0.0132 -0.5631 -0.1938
  350MOL0     C47122   7.380   3.760   1.022 -0.1193 -0.2220  1.1569
  350MOL0     O47123   7.438   3.848   1.105  0.3637  0.1195 -0.2542
  350MOL0     C47124   7.378   3.982   1.095 -0.3790  0.9377 -0.7799
  350MOL0     C47125   7.494   4.079   1.130 -0.0208  0.1604 -0.8611
  350MOL0     C47126   7.586   4.110   1.009 -0.3466 -0.3753  0.0941
  350MOL0     C47127   7.514   4.160   0.890  0.2221  0.0800 -0.6162
  350MOL0     C47128   7.605   4.240   0.788  0.2876  1.0379 -0.1584
  350MOL0     C47129   7.515   4.320   0.699 -0.2723  0.9370  0.3227
  350MOL0     C47130   7.580   4.441   0.630  0.0469 -0.8364  0.1770
  350MOL0     C47131   7.716   4.422   0.555  0.5964  0.1181 -0.1404
  350MOL0     N47132   7.799   4.542   0.551 -0.0424 -0.3327 -0.5149
  350MOL0     C47133   7.754   4.669   0.527 -0.3180 -0.0168  0.2678
  350MOL0     C47134   7.870   4.748   0.507 -0.0594  0.1951  0.4002
  350MOL0     C47135   7.879   4.900   0.500 -0.4084  0.2944 -0.2668
  350MOL0     C47136   7.874   4.942   0.650  0.0724  0.0862 -0.0522
  350MOL0     C47137   7.843   5.082   0.690 -0.8916 -0.2002  0.4874
  350MOL0     C47138   7.957   5.179   0.665  0.1947 -0.7568 -0.1759
  350MOL0     O47139   7.903   5.307   0.693 -0.2053  0.2431 -0.1377
  350MOL0     C47140   7.972   5.419   0.653 -0.5685  0.5503  0.0117
  350MOL0     C47141   8.112   5.419   0.640  0.6112 -0.3049  0.3649
  350MOL0     C47142   8.175   5.541   0.607 -0.6495  0.7945 -1.0370
  350MOL0     C47143   8.107   5.663   0.605 -0.1297 -0.0188  0.2128
  350MOL0     C47144   8.171   5.785   0.550  0.0693  0.7683 -0.1000
  350MOL0     O47145   8.083   5.895   0.531 -0.0401  0.1621 -0.5625
  350MOL0     C47146   8.135   6.025   0.534 -0.4261 -0.5613 -0.4522
  350MOL0     C47147   8.042   6.121   0.502  0.0376 -0.2728  0.1525
  350MOL0     C47148   8.071   6.258   0.513  0.5284  0.6830 -1.4892
  350MOL0     C47149   8.198   6.290   0.558 -0.9313  0.6961 -0.0616
  350MOL0     O47150   8.232   6.419   0.591  0.0922  0.7862  0.2090
  350MOL0     C47151   8.143   6.492   0.677 -0.2233  0.2640 -0.1323
  350MOL0     C47152   8.204   6.619   0.744  0.9420 -0.6002 -0.4445
  350MOL0     C47153   8.210   6.740   0.656 -0.7814  0.5555  0.5183
  350MOL0     C47154   8.347   6.809   0.668 -0.2088  0.2990  0.4024
  350MOL0     C47155   8.351   6.944   0.588 -0.4116  0.3938 -0.6267
  350MOL0     C47156   8.266   7.044   0.663  0.1997 -0.1561  0.3058
  350MOL0     C47157   8.279   7.180   0.601  0.2481 -0.2131  0.8085
  350MOL0     C47158   8.135   7.237   0.582 -0.3966  0.7092  0.5124
  350MOL0    Cl47159   8.025   7.155   0.464  0.1269 -0.4110 -0.5367
  350MOL0     C47160   8.285   6.191   0.602  0.4092  0.2648  0.1137
  350MOL0     C47161   8.249   6.064   0.592 -0.8060 -0.5110  0.1137
  350MOL0     O47162   8.297   5.790   0.541  0.0194  0.2817  0.8731
  350MOL0     C47163   7.966   5.661   0.617  0.2015  0.1882  0.3773
  350MOL0     C47164   7.899   5.540   0.637 -0.3048  0.0525 -0.1583
  350MOL0     N47165   7.979   4.663   0.528 -0.2645  0.3105  0.4782
  350MOL0     N47166   7.934   4.540   0.540 -1.1553  0.2293  0.6507
  350MOL0     C47167   7.239   3.743   0.999  0.1500 -0.8447  0.6621
  350MOL0     C47168   7.195   3.672   0.886  0.0201  0.3804 -0.1362
  350MOL0     C47169   7.150   3.312   0.641  0.0900 -0.6661 -0.0458
  350MOL0     C47170   7.096   3.385   0.534  0.0752  0.7497  1.0475
  350MOL0     C47171   7.043   3.323   0.428  0.2490 -0.1046  0.0742
  350MOL0     C47172   7.029   3.192   0.416 -0.2687  1.3740  0.0382
  350MOL0     O47173   6.991   3.117   0.309 -0.5363 -0.0732  0.1132
  350MOL0     C47174   7.068   3.150   0.191  1.3860  0.5381 -1.3235
  350MOL0     C47175   7.049   3.041   0.085  0.3367  0.3675  0.8262
  350MOL0     C47176   6.911   3.051   0.002  0.1073 -0.9297 -1.0576
  350MOL0     C47177   6.876   2.918  -0.063  0.0509  0.7962  0.5613
  350MOL0     C47178   6.971   2.906  -0.175  0.5969  0.4556  0.5713
  350MOL0     C47179   7.062   2.901  -0.254 -0.5693 -0.8301 -0.5337
  350MOL0     C47180   7.087   3.116   0.522 -0.1087  0.4326  0.0109
  350MOL0     C47181   7.159   3.172   0.633  1.2436  0.3173 -0.3004
  350MOL0     C47182   7.214   3.083   0.742 -0.0371  0.3906 -0.0329
  350MOL0     H47183   7.487   3.567   0.762  0.6196 -1.7001  1.4492
  350MOL0     H47184   7.573   3.683   0.961 -0.0395 -2.7507 -0.4294
  350MOL0     H47185   7.333   4.005   0.998 -0.7951  2.6545 -0.2256
  350MOL0     H47186   7.309   4.004   1.177 -0.5090  1.8287 -1.1180
  350MOL0     H47187   7.550   4.034   1.213  1.0473  2.7594 -0.0813
  350MOL0     H47188   7.451   4.171   1.173 -2.4078 -0.1712 -2.3573
  350MOL0     H47189   7.637   4.020   0.973  2.5986  1.0215  0.4642
  350MOL0     H47190   7.660   4.181   1.047  1.1648 -0.7437 -1.9590
  350MOL0     H47191   7.467   4.077   0.835  0.3419  0.8216 -1.8908
  350MOL0     H47192   7.431   4.219   0.929  0.9323  0.7840 -0.1470
  350MOL0     H47193   7.664   4.302   0.857 -0.6722  0.8068  0.8821
  350MOL0     H47194   7.673   4.165   0.745  0.0359 -0.6692  2.2393
  350MOL0     H47195   7.481   4.248   0.625  1.3659  0.8113 -0.3614
  350MOL0     H47196   7.424   4.347   0.753 -0.3164  0.0937  0.6827
  350MOL0     H47197   7.599   4.522   0.702  0.4868 -1.2813  0.5663
  350MOL0     H47198   7.510   4.479   0.555 -2.4098 -1.2651  2.1280
  350MOL0     H47199   7.774   4.358   0.623 -0.3309 -0.8204 -0.2160
  350MOL0     H47200   7.708   4.364   0.463  0.4190 -1.3419  0.7505
  350MOL0     H47201   7.653   4.708   0.521  0.2119  1.2704 -0.8741
  350MOL0     H47202   7.961   4.950   0.447 -1.0947  1.6687 -0.0740
  350MOL0     H47203   7.792   4.950   0.456 -1.2788  0.0543  1.1277
  350MOL0     H47204   7.790   4.889   0.695  0.7423 -0.9310  0.0266
  350MOL0     H47205   7.958   4.895   0.701  0.1877 -2.3713 -2.2687
  350MOL0     H47206   7.804   5.089   0.792 -2.6435  2.8349 -0.2766
  350MOL0     H47207   7.752   5.115   0.639 -0.5240 -0.9674 -0.7109
  350MOL0     H47208   7.978   5.190   0.558  1.0141  2.2155  0.2145
  350MOL0     H47209   8.045   5.154   0.724 -0.5025  0.7609  1.6029
  350MOL0     H47210   8.164   5.323   0.646 -0.5347 -1.2554 -2.7353
  350MOL0     H47211   8.282   5.536   0.591  0.1108  1.3708  2.7707
  350MOL0     H47212   7.943   6.091   0.471 -1.9014  4.3314  1.1491
  350MOL0     H47213   7.988   6.327   0.506  1.2677  1.7154 -0.4330
  350MOL0     H47214   8.050   6.528   0.630  0.1478  0.4924 -0.6995
  350MOL0     H47215   8.133   6.424   0.762  0.3995 -0.5355 -0.6911
  350MOL0     H47216   8.136   6.649   0.825  3.3607 -2.9489  2.7179
  350MOL0     H47217   8.293   6.592   0.801  1.2028  1.5560  0.2308
  350MOL0     H47218   8.213   6.694   0.557 -1.4833 -0.7505  1.0907
  350MOL0     H47219   8.129   6.813   0.665  0.2206  1.7344  0.3358
  350MOL0     H47220   8.422   6.741   0.627  0.4242  1.1724  0.0781
  350MOL0     H47221   8.375   6.821   0.774 -0.2525  0.9996  0.3406
  350MOL0     H47222   8.315   6.925   0.486  2.4646  0.4424 -1.7351
  350MOL0     H47223   8.451   6.986   0.575  0.7055 -2.0289 -0.4408
  350MOL0     H47224   8.161   7.015   0.657  0.4612 -0.8686 -2.5412
  350MOL0     H47225   8.297   7.044   0.768 -1.8796  1.2032  0.9887
  350MOL0     H47226   8.336   7.187   0.508 -1.2574  2.7216 -0.0075
  350MOL0     H47227   8.321   7.256   0.667 -2.9866 -0.6195  3.6085
  350MOL0     H47228   8.091   7.231   0.682  0.9596 -0.4290  1.0763
  350MOL0     H47229   8.136   7.341   0.548 -2.4147  0.7029  0.2776
  350MOL0     H47230   8.377   6.223   0.650 -1.5698  3.3971  2.1731
  350MOL0     H47231   8.327   5.997   0.627  1.8935  0.9573 -2.6027
  350MOL0     H47232   7.899   5.746   0.608 -0.3855 -0.4147 -1.5438
  350MOL0     H47233   7.792   5.551   0.655  0.1437  1.0332  2.3598
  350MOL0     H47234   7.183   3.807   1.066  0.8662  0.9179 -0.3623
  350MOL0     H47235   7.088   3.665   0.866 -0.7833  2.5414  2.7313
  350MOL0     H47236   7.101   3.493   0.528 -2.5364  0.8624 -0.6521
  350MOL0     H47237   6.992   3.391   0.360  0.2413  0.6989  0.8563
  350MOL0     H47238   7.175   3.144   0.213  1.7048 -0.6826 -3.0139
  350MOL0     H47239   7.037   3.249   0.156 -1.8128 -1.1947 -3.9059
  350MOL0     H47240   7.065   2.946   0.136 -0.0543 -0.4219 -0.4786
  350MOL0     H47241   7.128   3.051   0.010  0.0613 -0.1451  0.4635
  350MOL0     H47242   6.922   3.126  -0.078 -2.1680 -0.6826 -1.2076
  350MOL0     H47243   6.829   3.068   0.071 -0.0088  4.1761 -2.0807
  350MOL0     H47244   6.890   2.836   0.008 -0.6250  0.7313  0.6260
  350MOL0     H47245   6.774   2.919  -0.102  0.5429  1.7677 -0.7726
  350MOL0     H47246   7.150   2.911  -0.313  0.0810 -2.9537 -0.0296
  350MOL0     H47247   7.076   3.009   0.506 -1.2928  0.6646 -0.9541
  350MOL0     H47248   7.161   3.088   0.838 -2.9949 -1.7440 -1.4096
  350MOL0     H47249   7.194   2.980   0.711 -0.3281  0.7458 -1.0626
  350MOL0     H47250   7.320   3.105   0.760 -0.5601  1.3550  2.3481
  351MOL0     O47251   3.990   8.502   3.263  1.1775 -0.3616  0.4409
  351MOL0     C47252   4.004   8.496   3.136 -0.0962 -1.3287  0.8614
  351MOL0     O47253   4.093   8.425   3.063 -1.3696  0.0037  0.8909
  351MOL0     C47254   4.210   8.389   3.126 -0.9498  0.3408 -0.1548
  351MOL0     C47255   4.260   8.258   3.110  0.8388  0.1660 -0.4518
  351MOL0     C47256   4.380   8.222   3.168 -0.3329  0.7571  0.3754
  351MOL0     C47257   4.458   8.313   3.241  1.0826 -0.4993  0.7471
  351MOL0     O47258   4.581   8.302   3.294 -0.0096 -0.2160 -0.3620
  351MOL0     C47259   4.638   8.169   3.323  0.5671  0.1965 -0.6176
  351MOL0     C47260   4.772   8.195   3.400  0.3141  0.1998  1.2137
  351MOL0     C47261   4.760   8.253   3.538 -0.5018  0.1414  0.1982
  351MOL0     C47262   4.890   8.285   3.582 -0.3329  0.3915 -0.1827
  351MOL0     C47263   4.897   8.366   3.720  0.8312  0.5138  0.8055
  351MOL0     C47264   5.026   8.325   3.794 -0.2292  0.7389  1.3610
  351MOL0     C47265   5.148   8.403   3.741 -0.6457 -0.0383 -0.2585
  351MOL0     C47266   5.278   8.363   3.816  0.2755 -0.3323  0.3648
  351MOL0     N47267   5.387   8.443   3.759  0.5217 -0.2837  1.0104
  351MOL0     C47268   5.429   8.572   3.778  0.0674  0.3311  1.3858
  351MOL0     C47269   5.535   8.592   3.694  0.0741  0.2434  0.3614
  351MOL0     C47270   5.614   8.717   3.712 -0.3119  0.1163 -0.2505
  351MOL0     C47271   5.550   8.843   3.643 -0.5577 -0.3399  0.3043
  351MOL0     C47272   5.509   8.820   3.497  1.3715  0.0663  0.7597
  351MOL0     C47273   5.635   8.795   3.414  0.3632 -1.1517 -0.3918
  351MOL0     O47274   5.707   8.920   3.398 -0.1653 -0.6335 -0.3419
  351MOL0     C47275   5.842   8.915   3.360 -0.4293  0.7278  0.5159
  351MOL0     C47276   5.919   9.025   3.382  1.0880  0.5483 -0.9409
  351MOL0     C47277   6.059   9.030   3.366  0.0052  0.1852 -0.0273
  351MOL0     C47278   6.116   8.909   3.326 -0.4790 -0.2529  0.0514
  351MOL0     C47279   6.260   8.882   3.311  0.2400 -0.0033 -1.1819
  351MOL0     O47280   6.298   8.783   3.228 -1.4720 -0.4844 -0.3486
  351MOL0     C47281   6.425   8.774   3.182 -0.0110 -0.6090 -0.2026
  351MOL0     C47282   6.537   8.776   3.263  0.9503 -0.0335 -0.9393
  351MOL0     C47283   6.671   8.770   3.221  0.2201 -0.6180  0.3615
  351MOL0     C47284   6.693   8.775   3.085 -0.5267  0.3181 -0.2931
  351MOL0     O47285   6.830   8.790   3.045  0.0515  0.1450 -0.0283
  351MOL0     C47286   6.862   8.780   2.905 -0.3106  0.3191  0.6485
  351MOL0     C47287   7.010   8.778   2.859  0.0208 -0.7111 -0.7719
  351MOL0     C47288   7.069   8.909   2.847  0.4343 -0.2426 -0.5555
  351MOL0     C47289   7.201   8.900   2.767  0.6100  0.0794  0.3096
  351MOL0     C47290   7.294   9.021   2.777 -0.2832  0.4229 -0.2026
  351MOL0     C47291   7.339   9.070   2.919  0.2328 -0.4899  0.4759
  351MOL0     C47292   7.381   8.966   3.028  0.2104 -0.5326  0.8025
  351MOL0     C47293   7.377   9.026   3.169  0.1273  0.5516  0.3625
  351MOL0    Cl47294   7.218   9.087   3.206 -0.4037 -0.3574  0.4715
  351MOL0     C47295   6.584   8.764   2.993  0.5492  0.3088  0.4948
  351MOL0     C47296   6.452   8.761   3.044  0.5711  0.4694  0.6385
  351MOL0     O47297   6.337   8.959   3.378 -0.4010 -0.4342 -0.6263
  351MOL0     C47298   6.037   8.795   3.299 -0.1179 -0.1123 -0.4549
  351MOL0     C47299   5.901   8.788   3.314  0.5058  0.3723  0.5879
  351MOL0     N47300   5.549   8.476   3.625 -0.2984  0.1317 -0.2044
  351MOL0     N47301   5.462   8.393   3.662 -0.4629  0.3592  0.2249
  351MOL0     C47302   4.404   8.440   3.257 -0.0248 -0.0261 -0.0810
  351MOL0     C47303   4.278   8.476   3.216 -0.0259  1.3153  0.3368
  351MOL0     C47304   3.891   8.556   3.061  0.2496 -0.3856  0.3598
  351MOL0     C47305   3.762   8.519   3.104 -0.6730  0.0287  0.5574
  351MOL0     C47306   3.653   8.562   3.037 -0.4197 -0.2026 -1.0397
  351MOL0     C47307   3.671   8.656   2.936 -0.0810 -0.8209 -0.1504
  351MOL0     O47308   3.582   8.732   2.866  0.6425 -0.3588  0.0195
  351MOL0     C47309   3.454   8.670   2.840  0.9446  0.7740 -0.1792
  351MOL0     C47310   3.395   8.681   2.699  0.0520 -0.6334 -0.0525
  351MOL0     C47311   3.408   8.831   2.642  0.5266  0.7114 -0.3796
  351MOL0     C47312   3.401   8.843   2.491  0.2770 -0.0288  0.7342
  351MOL0     C47313   3.275   8.782   2.436 -0.3470 -0.0935  0.2935
  351MOL0     C47314   3.185   8.708   2.395 -0.9158 -0.0977 -0.0930
  351MOL0     C47315   3.795   8.693   2.894 -0.0883 -0.8618 -0.2447
  351MOL0     C47316   3.912   8.642   2.953  0.2848 -0.4557 -0.1938
  351MOL0     C47317   4.049   8.690   2.909 -0.2076  0.4239  0.2510
  351MOL0     H47318   4.198   8.195   3.049 -1.0363  3.4920 -2.2947
  351MOL0     H47319   4.423   8.124   3.149 -1.7549  0.4037 -1.2038
  351MOL0     H47320   4.575   8.104   3.385 -0.4555  1.3817 -0.3751
  351MOL0     H47321   4.673   8.114   3.235 -1.7854 -0.3605 -1.2891
  351MOL0     H47322   4.844   8.245   3.335  1.6778 -2.9889  0.0955
  351MOL0     H47323   4.809   8.093   3.412  1.1519  0.2010 -0.8876
  351MOL0     H47324   4.707   8.184   3.605 -1.5867  0.6354 -0.1191
  351MOL0     H47325   4.702   8.345   3.531 -0.7858 -0.1441 -1.7977
  351MOL0     H47326   4.944   8.191   3.597 -2.5473 -1.0647 -0.7297
  351MOL0     H47327   4.939   8.346   3.507 -0.2234  0.5187 -0.0090
  351MOL0     H47328   4.914   8.466   3.678  0.1237  0.6992  0.9606
  351MOL0     H47329   4.804   8.366   3.777 -0.3053  2.3855 -0.9209
  351MOL0     H47330   5.014   8.336   3.902  2.8225 -0.0544  1.8642
  351MOL0     H47331   5.048   8.218   3.786  0.5306  0.9831 -0.2847
  351MOL0     H47332   5.128   8.506   3.771 -1.7081 -0.2321 -0.2423
  351MOL0     H47333   5.151   8.402   3.632  1.2969 -2.8850 -0.2830
  351MOL0     H47334   5.271   8.386   3.923  0.1851  0.1146  0.2652
  351MOL0     H47335   5.298   8.257   3.800 -0.1896 -0.1194 -2.1221
  351MOL0     H47336   5.394   8.649   3.847  1.1750  0.3872  1.9079
  351MOL0     H47337   5.628   8.744   3.817  3.1857  1.4674 -0.9479
  351MOL0     H47338   5.714   8.700   3.672 -1.1529  1.0153 -2.9451
  351MOL0     H47339   5.461   8.857   3.704 -1.8058  1.9044 -1.9079
  351MOL0     H47340   5.619   8.928   3.644 -1.4921  0.5684 -2.6650
  351MOL0     H47341   5.455   8.904   3.453  2.9530 -0.0081 -1.4631
  351MOL0     H47342   5.442   8.734   3.497 -0.7901  1.6570  1.3778
  351MOL0     H47343   5.598   8.760   3.317 -0.0583  1.0983 -1.1000
  351MOL0     H47344   5.699   8.714   3.450  0.8464 -1.4604 -1.8570
  351MOL0     H47345   5.869   9.113   3.422 -1.7086 -2.1801  2.2761
  351MOL0     H47346   6.108   9.122   3.394 -1.3962  1.5363 -1.7696
  351MOL0     H47347   6.517   8.783   3.369 -0.7049  0.6091 -1.2735
  351MOL0     H47348   6.749   8.791   3.293 -0.6573  4.3755  0.2371
  351MOL0     H47349   6.821   8.682   2.882  2.0263 -1.2803  2.6927
  351MOL0     H47350   6.817   8.859   2.845  0.9755 -0.5042 -1.4838
  351MOL0     H47351   7.066   8.727   2.939  0.0481  0.3842 -0.0691
  351MOL0     H47352   7.015   8.718   2.768 -2.2723 -2.4384  0.1169
  351MOL0     H47353   7.002   8.964   2.780 -0.3857  1.9915  1.9209
  351MOL0     H47354   7.069   8.963   2.942  0.3384 -0.0155 -0.6818
  351MOL0     H47355   7.182   8.882   2.661 -0.0408  1.0858  0.2349
  351MOL0     H47356   7.261   8.817   2.806  0.1771  0.0173  0.8587
  351MOL0     H47357   7.242   9.107   2.733 -1.0077 -0.0381 -0.2556
  351MOL0     H47358   7.389   9.003   2.725  1.0439  0.9165  1.9093
  351MOL0     H47359   7.416   9.147   2.912  1.4225 -1.7990 -2.0486
  351MOL0     H47360   7.248   9.125   2.944  0.2878 -0.2408  0.1326
  351MOL0     H47361   7.483   8.934   3.006 -0.0265 -1.3915  0.9577
  351MOL0     H47362   7.326   8.872   3.027 -0.1622 -0.3229 -0.1704
  351MOL0     H47363   7.401   8.942   3.236 -1.6847 -0.2669  0.0382
  351MOL0     H47364   7.451   9.105   3.187 -1.2478  2.2997 -1.3431
  351MOL0     H47365   6.601   8.749   2.887  1.6302  0.8953  0.5707
  351MOL0     H47366   6.370   8.749   2.973  1.0730 -0.1696  0.1589
  351MOL0     H47367   6.080   8.696   3.288 -0.2111 -0.5864  2.5090
  351MOL0     H47368   5.853   8.693   3.294 -2.9923  1.9804  0.4614
  351MOL0     H47369   4.451   8.510   3.325 -1.8730  0.5593  0.6426
  351MOL0     H47370   4.251   8.575   3.251  3.5072  2.7795 -0.6193
  351MOL0     H47371   3.746   8.456   3.191  0.1250 -1.1397 -0.1226
  351MOL0     H47372   3.552   8.544   3.072 -0.4620 -4.2250 -2.7095
  351MOL0     H47373   3.382   8.715   2.909  1.2767  1.2705 -0.1536
  351MOL0     H47374   3.449   8.563   2.861  0.7422  0.6036 -1.0619
  351MOL0     H47375   3.291   8.647   2.702 -1.2547  2.3980 -3.5488
  351MOL0     H47376   3.450   8.610   2.636 -0.7531 -0.1369 -1.3579
  351MOL0     H47377   3.507   8.863   2.674 -0.3591  1.3357  1.9152
  351MOL0     H47378   3.330   8.892   2.687 -0.0852 -0.0859 -0.3258
  351MOL0     H47379   3.419   8.943   2.450  0.0227 -0.2329  0.1199
  351MOL0     H47380   3.477   8.777   2.449  1.0702  1.1572  0.2520
  351MOL0     H47381   3.115   8.632   2.370 -0.4484 -0.3687 -0.6031
  351MOL0     H47382   3.801   8.760   2.809  2.0308 -2.2181 -1.2385
  351MOL0     H47383   4.043   8.794   2.875  1.5292 -0.3123 -2.6496
  351MOL0     H47384   4.127   8.678   2.984  0.9278 -0.6239 -1.0678
  351MOL0     H47385   4.072   8.638   2.816 -0.6756  1.5870 -0.5492
  352MOL0     O47386   3.834   0.793   1.477  0.5145 -0.4360  0.3532
  352MOL0     C47387   3.788   0.734   1.383 -0.3369 -0.3257 -0.0897
  352MOL0     O47388   3.860   0.633   1.311  0.4788  0.3602  0.7726
  352MOL0     C47389   3.946   0.550   1.375  0.6915  0.6768  0.3360
  352MOL0     C47390   3.948   0.411   1.339 -0.2246 -0.3458  0.1387
  352MOL0     C47391   4.037   0.325   1.395 -0.1029  0.7918  0.2103
  352MOL0     C47392   4.140   0.371   1.471  0.6152  0.2079 -0.8420
  352MOL0     O47393   4.239   0.290   1.524  0.0042 -0.3308 -0.3274
  352MOL0     C47394   4.372   0.302   1.453  0.0572 -0.4208  0.4010
  352MOL0     C47395   4.476   0.229   1.549  1.0570  0.4510 -0.5366
  352MOL0     C47396   4.504   0.319   1.663 -0.1756 -0.2391 -0.7525
  352MOL0     C47397   4.611   0.274   1.761 -0.4924 -0.9696  0.1848
  352MOL0     C47398   4.609   0.355   1.895  0.0744 -0.5103 -0.1643
  352MOL0     C47399   4.737   0.323   1.964  0.3585 -0.2508 -0.1290
  352MOL0     C47400   4.725   0.350   2.117  0.1977 -0.1716 -0.1634
  352MOL0     C47401   4.765   0.496   2.152 -0.4690  1.2955 -0.6343
  352MOL0     N47402   4.820   0.507   2.290 -0.4652 -0.1997 -0.9820
  352MOL0     C47403   4.746   0.506   2.408 -0.4157  0.0755 -0.6924
  352MOL0     C47404   4.838   0.481   2.510 -0.7067 -0.2654 -0.7239
  352MOL0     C47405   4.798   0.448   2.654  0.3139  0.0033  0.2368
  352MOL0     C47406   4.753   0.581   2.717  0.2006  0.8447  0.1037
  352MOL0     C47407   4.855   0.688   2.742 -0.6369 -0.4470  0.0642
  352MOL0     C47408   4.913   0.694   2.885 -0.7004 -0.6572 -0.9411
  352MOL0     O47409   4.980   0.817   2.901  0.4625 -0.8789  0.5869
  352MOL0     C47410   5.103   0.809   2.938  0.1007 -0.1854  0.6242
  352MOL0     C47411   5.128   0.852   3.068 -0.9631 -0.5814 -0.0147
  352MOL0     C47412   5.260   0.861   3.118  0.2144  1.0643  0.4672
  352MOL0     C47413   5.365   0.820   3.032  0.8190 -0.5271  0.1585
  352MOL0     C47414   5.515   0.809   3.076 -0.1404 -0.2845  0.7288
  352MOL0     O47415   5.605   0.740   2.996 -0.0830 -0.1396 -0.3192
  352MOL0     C47416   5.734   0.731   3.029  0.4286 -0.4262 -1.4549
  352MOL0     C47417   5.790   0.609   3.035 -0.7481 -0.2013  0.3552
  352MOL0     C47418   5.921   0.607   3.083  1.0365  0.4180  0.6724
  352MOL0     C47419   5.996   0.716   3.097  0.0392  0.6564 -0.4669
  352MOL0     O47420   6.132   0.701   3.115 -0.0191  0.8612 -0.1393
  352MOL0     C47421   6.183   0.588   3.198  0.5869  0.5364  0.5090
  352MOL0     C47422   6.304   0.616   3.276 -0.8500  0.2101 -1.3097
  352MOL0     C47423   6.423   0.671   3.198  0.9668  0.5367  0.5703
  352MOL0     C47424   6.533   0.670   3.305 -0.1759  0.6221  0.3417
  352MOL0     C47425   6.658   0.723   3.247 -0.6492  0.1766 -0.0268
  352MOL0     C47426   6.647   0.870   3.214  0.3712 -0.5804  0.3813
  352MOL0     C47427   6.783   0.945   3.197  0.2695 -0.2922 -0.6196
  352MOL0     C47428   6.830   1.005   3.332  0.5384 -0.2822 -0.6749
  352MOL0    Cl47429   6.743   1.161   3.373 -0.6395 -0.3130  0.5004
  352MOL0     C47430   5.944   0.838   3.068  0.6034  0.1744  0.6341
  352MOL0     C47431   5.808   0.853   3.035  0.2615 -0.3330  0.1579
  352MOL0     O47432   5.534   0.861   3.185 -0.1715  0.2963 -0.7393
  352MOL0     C47433   5.342   0.782   2.900  0.3297 -0.1987 -0.4600
  352MOL0     C47434   5.214   0.779   2.850 -0.7238  0.1398  0.2232
  352MOL0     N47435   4.957   0.456   2.448 -0.4409 -0.3291 -0.1708
  352MOL0     N47436   4.946   0.485   2.324  0.1377 -0.0927 -0.5207
  352MOL0     C47437   4.151   0.508   1.502  0.3545 -0.2739 -0.1189
  352MOL0     C47438   4.055   0.598   1.456 -0.2536 -0.4211  0.2179
  352MOL0     C47439   3.654   0.772   1.339 -0.2144 -0.3674  0.2039
  352MOL0     C47440   3.611   0.724   1.210  0.4121 -0.0717  0.8325
  352MOL0     C47441   3.487   0.748   1.151 -0.7554  0.6121 -0.7092
  352MOL0     C47442   3.397   0.822   1.221 -0.1604 -0.2092 -0.3728
  352MOL0     O47443   3.270   0.849   1.179  0.0819  0.2204  0.5847
  352MOL0     C47444   3.253   0.873   1.039  0.5124  0.0440  0.4554
  352MOL0     C47445   3.102   0.904   1.005  0.0975 -0.1352 -0.0117
  352MOL0     C47446   2.991   0.797   1.023 -1.2063  0.6607  0.3179
  352MOL0     C47447   2.861   0.860   1.069  0.7375  0.2652  0.1428
  352MOL0     C47448   2.826   0.969   0.980 -0.1819  0.9952  0.0574
  352MOL0     C47449   2.799   1.045   0.896  0.0641 -0.3738 -0.7534
  352MOL0     C47450   3.430   0.862   1.357  0.7413 -0.1316  0.6306
  352MOL0     C47451   3.554   0.844   1.408 -0.4020 -0.5193 -0.6054
  352MOL0     C47452   3.587   0.915   1.543 -0.3198 -0.4003  0.6210
  352MOL0     H47453   3.870   0.387   1.268 -0.7847 -1.6698  1.1605
  352MOL0     H47454   4.020   0.219   1.378 -1.2677  0.8040  1.1683
  352MOL0     H47455   4.381   0.255   1.355 -1.6025  0.7744 -0.3619
  352MOL0     H47456   4.403   0.406   1.436  0.6651 -0.2802  2.1494
  352MOL0     H47457   4.571   0.202   1.503  1.0741  0.2392 -0.3817
  352MOL0     H47458   4.432   0.134   1.583 -1.0453  1.2816 -0.7709
  352MOL0     H47459   4.420   0.340   1.729 -0.2835  0.6763 -1.1565
  352MOL0     H47460   4.551   0.412   1.628 -3.1308  0.6896 -2.5939
  352MOL0     H47461   4.604   0.166   1.778  0.2174 -0.9155  0.8781
  352MOL0     H47462   4.705   0.298   1.711 -1.0092  0.6083 -0.0911
  352MOL0     H47463   4.593   0.460   1.872 -1.4252 -0.8325 -0.6912
  352MOL0     H47464   4.535   0.319   1.968  0.3633  4.0704  2.7671
  352MOL0     H47465   4.757   0.216   1.949  0.9431  0.0784 -1.9985
  352MOL0     H47466   4.828   0.377   1.934  0.9747 -0.2156  1.6640
  352MOL0     H47467   4.799   0.284   2.164  0.2244 -0.9444 -1.2413
  352MOL0     H47468   4.630   0.321   2.161 -0.5461  0.4278 -1.3149
  352MOL0     H47469   4.856   0.530   2.101 -0.7232 -1.3015 -3.0022
  352MOL0     H47470   4.687   0.569   2.132 -0.8728  1.7914  2.2607
  352MOL0     H47471   4.639   0.522   2.418 -0.4730  1.1792 -2.6671
  352MOL0     H47472   4.724   0.367   2.653 -2.1766  2.1376  1.2065
  352MOL0     H47473   4.888   0.414   2.705  1.4862 -0.4769 -2.0425
  352MOL0     H47474   4.662   0.623   2.672 -0.5142 -1.4378 -0.7103
  352MOL0     H47475   4.710   0.545   2.811 -2.8428 -0.4590 -1.6560
  352MOL0     H47476   4.827   0.788   2.708  0.1499 -1.3272 -3.6320
  352MOL0     H47477   4.937   0.664   2.673  2.3661 -1.7112  3.7685
  352MOL0     H47478   4.986   0.614   2.903  1.6076  1.3531 -0.9598
  352MOL0     H47479   4.834   0.694   2.961  1.8293  2.4011  1.9319
  352MOL0     H47480   5.050   0.885   3.135  0.3833  2.9240  0.0143
  352MOL0     H47481   5.279   0.886   3.222  2.3296 -0.2884  0.4593
  352MOL0     H47482   5.735   0.519   3.012 -0.4948 -0.0174 -1.0417
  352MOL0     H47483   5.963   0.507   3.090 -2.4922 -1.1441  1.8785
  352MOL0     H47484   6.111   0.546   3.268 -1.6629  0.4862 -1.6709
  352MOL0     H47485   6.194   0.505   3.128 -1.9474 -0.0997  0.7865
  352MOL0     H47486   6.294   0.699   3.346  1.9443  0.5880 -1.2306
  352MOL0     H47487   6.331   0.524   3.329  1.2810  0.3146 -2.1069
  352MOL0     H47488   6.445   0.595   3.122  0.9128 -0.0596  1.1402
  352MOL0     H47489   6.411   0.770   3.154  2.3806  0.2733 -0.5030
  352MOL0     H47490   6.549   0.569   3.344 -0.4326  0.3093 -0.3493
  352MOL0     H47491   6.500   0.741   3.382 -1.5308  0.2347  0.1443
  352MOL0     H47492   6.689   0.676   3.154 -3.4087 -1.0819 -0.4117
  352MOL0     H47493   6.741   0.708   3.317 -0.4026 -0.0752 -0.3732
  352MOL0     H47494   6.589   0.884   3.123 -1.4471  0.5514  1.6465
  352MOL0     H47495   6.597   0.933   3.288  0.2698  0.4857 -0.5650
  352MOL0     H47496   6.779   1.024   3.122  0.9240  2.1761  1.7962
  352MOL0     H47497   6.853   0.866   3.167 -0.9678 -1.0137 -1.7700
  352MOL0     H47498   6.816   0.928   3.409  1.7829 -0.7569 -0.9014
  352MOL0     H47499   6.935   1.033   3.334 -0.2201  2.8961  0.6683
  352MOL0     H47500   6.005   0.925   3.090 -0.1415  0.7651  0.3923
  352MOL0     H47501   5.768   0.953   3.040  2.0421  0.5011 -1.1973
  352MOL0     H47502   5.431   0.769   2.840  1.1952 -2.5346  1.2105
  352MOL0     H47503   5.202   0.748   2.747  1.1883  1.0612 -0.3269
  352MOL0     H47504   4.245   0.548   1.538  0.6786 -1.2178  0.1023
  352MOL0     H47505   4.061   0.704   1.478 -0.3256  0.2444 -2.5016
  352MOL0     H47506   3.670   0.661   1.144  0.4488  1.6232 -0.8400
  352MOL0     H47507   3.476   0.724   1.046 -0.9682  1.5102 -0.9047
  352MOL0     H47508   3.273   0.782   0.981 -3.5178  0.5026 -2.0455
  352MOL0     H47509   3.312   0.957   1.001 -0.9172  1.8633  2.0451
  352MOL0     H47510   3.091   0.949   0.907 -1.6825  0.7855  0.5643
  352MOL0     H47511   3.071   0.982   1.075  0.7818  0.9671 -0.9055
  352MOL0     H47512   3.029   0.727   1.098 -0.6760  2.0444  1.3712
  352MOL0     H47513   2.973   0.739   0.931 -0.0854  0.6903  0.0696
  352MOL0     H47514   2.783   0.783   1.066 -2.3126  3.1192 -0.1654
  352MOL0     H47515   2.860   0.886   1.175 -1.1559 -0.2738  0.3077
  352MOL0     H47516   2.784   1.129   0.831 -0.2830 -0.0901 -0.3059
  352MOL0     H47517   3.342   0.911   1.398 -0.6832  0.0480 -2.3576
  352MOL0     H47518   3.644   0.855   1.614  3.4394  1.9047 -0.1956
  352MOL0     H47519   3.654   1.000   1.529 -0.1310 -0.4082  1.4059
  352MOL0     H47520   3.494   0.950   1.590  0.1445  3.9439 -1.2518
  353MOL0     O47521   4.625   7.769   2.202  0.1614  0.4574  0.1790
  353MOL0     C47522   4.574   7.718   2.306 -0.5479  0.7191  1.2230
  353MOL0     O47523   4.637   7.620   2.373 -0.6883  0.8459 -0.0233
  353MOL0     C47524   4.761   7.584   2.339 -0.4657  0.6931 -0.8068
  353MOL0     C47525   4.871   7.647   2.389 -0.4542 -0.5217  0.5238
  353MOL0     C47526   5.004   7.609   2.356  0.0807  0.3795  0.0278
  353MOL0     C47527   5.023   7.498   2.264  0.3780 -0.1340  0.4497
  353MOL0     O47528   5.139   7.468   2.196  0.1036 -0.5069  0.2920
  353MOL0     C47529   5.250   7.561   2.188  1.1208  0.5367 -1.1131
  353MOL0     C47530   5.362   7.492   2.115  0.7854  0.6087 -0.3742
  353MOL0     C47531   5.343   7.501   1.958 -0.8459 -0.0340  0.2747
  353MOL0     C47532   5.411   7.630   1.904  1.4245 -0.6887  0.5596
  353MOL0     C47533   5.435   7.630   1.754  0.1034  0.4626  0.2220
  353MOL0     C47534   5.307   7.633   1.672  0.5023 -0.0482  0.2489
  353MOL0     C47535   5.332   7.652   1.519  0.0310  0.7642  0.7490
  353MOL0     C47536   5.212   7.690   1.439  0.6988  0.1706 -0.0464
  353MOL0     N47537   5.238   7.670   1.298  0.5314 -0.8316  0.3327
  353MOL0     C47538   5.238   7.563   1.211  0.2513 -0.2414  0.2982
  353MOL0     C47539   5.305   7.589   1.097  0.5178 -0.8227  1.0274
  353MOL0     C47540   5.305   7.497   0.980  0.2600 -0.1153  0.3177
  353MOL0     C47541   5.429   7.510   0.886  0.2955  0.1096 -0.2569
  353MOL0     C47542   5.491   7.381   0.828 -0.4160 -0.0230  0.5155
  353MOL0     C47543   5.606   7.418   0.750 -0.5834  0.1592  0.1474
  353MOL0     O47544   5.649   7.291   0.689 -0.6024 -0.1347 -0.2928
  353MOL0     C47545   5.767   7.313   0.616  0.4639  0.9784 -0.4719
  353MOL0     C47546   5.819   7.440   0.586 -0.5069 -0.3603  0.4953
  353MOL0     C47547   5.943   7.452   0.528  0.1530 -0.1324 -0.7499
  353MOL0     C47548   6.023   7.345   0.492  0.0718  0.2931 -0.0345
  353MOL0     C47549   6.152   7.356   0.425  1.2644 -0.3751  0.7846
  353MOL0     O47550   6.198   7.256   0.356 -0.0838 -0.3649  0.2691
  353MOL0     C47551   6.325   7.272   0.303 -0.4370 -1.4444 -0.1499
  353MOL0     C47552   6.427   7.183   0.340  0.1920 -0.5362 -0.0007
  353MOL0     C47553   6.563   7.201   0.300  0.0127  0.5740  0.7687
  353MOL0     C47554   6.593   7.302   0.206 -0.1010  0.2475 -1.0527
  353MOL0     O47555   6.719   7.313   0.149 -0.2715 -0.1691 -0.3856
  353MOL0     C47556   6.833   7.280   0.223  0.3358 -0.1587 -1.2066
  353MOL0     C47557   6.945   7.375   0.183 -0.1574 -0.1168  0.3084
  353MOL0     C47558   7.075   7.326   0.254  0.0359  0.0260  0.2802
  353MOL0     C47559   7.199   7.409   0.217  0.0605 -0.6306 -1.0278
  353MOL0     C47560   7.321   7.343   0.275 -0.1780 -0.3666 -0.3389
  353MOL0     C47561   7.443   7.430   0.240  0.7024 -0.0149 -0.2893
  353MOL0     C47562   7.575   7.362   0.257 -0.8616  0.1933  0.6485
  353MOL0     C47563   7.684   7.464   0.296 -0.4174 -0.1343 -1.3454
  353MOL0    Cl47564   7.719   7.575   0.159  0.2816 -0.1931  0.2475
  353MOL0     C47565   6.486   7.384   0.161  0.7503 -0.2329  0.2482
  353MOL0     C47566   6.361   7.371   0.220 -0.2215 -0.3194 -0.6766
  353MOL0     O47567   6.204   7.464   0.435 -0.4406 -1.2685  0.3056
  353MOL0     C47568   5.958   7.218   0.513 -1.2892 -0.9156 -0.1269
  353MOL0     C47569   5.843   7.201   0.578 -0.0248 -0.1871 -1.1125
  353MOL0     N47570   5.352   7.722   1.119  0.4909 -0.1556  0.8870
  353MOL0     N47571   5.307   7.766   1.231  1.0224  0.3639  0.4386
  353MOL0     C47572   4.906   7.436   2.214  0.1874 -0.4408 -0.0195
  353MOL0     C47573   4.781   7.485   2.244 -0.5237  0.9979 -0.2675
  353MOL0     C47574   4.431   7.760   2.354 -0.6063 -0.1094 -0.5461
  353MOL0     C47575   4.380   7.685   2.467 -0.1898  0.5006 -0.3745
  353MOL0     C47576   4.255   7.718   2.521 -0.6281  0.7133  0.0750
  353MOL0     C47577   4.172   7.809   2.457  0.4241  0.5359 -0.2806
  353MOL0     O47578   4.045   7.819   2.511 -0.0874 -0.0534 -0.0640
  353MOL0     C47579   3.942   7.903   2.467 -0.2548 -0.2557 -0.3568
  353MOL0     C47580   3.820   7.863   2.540  1.1075 -0.1658 -0.0850
  353MOL0     C47581   3.760   7.724   2.509  0.4963  0.1828  0.8765
  353MOL0     C47582   3.603   7.724   2.497 -0.4417 -0.7507 -0.4045
  353MOL0     C47583   3.539   7.782   2.613 -1.1209  0.0349  0.1279
  353MOL0     C47584   3.497   7.818   2.716  0.1750 -0.0006  0.4784
  353MOL0     C47585   4.219   7.871   2.340  0.8126 -0.2254  0.5085
  353MOL0     C47586   4.344   7.853   2.286  0.2785 -0.1478  0.6354
  353MOL0     C47587   4.366   7.938   2.163  0.3486  1.0000  0.6800
  353MOL0     H47588   4.876   7.730   2.459  0.2725  0.8909 -1.1385
  353MOL0     H47589   5.087   7.673   2.382 -0.9148  1.3848  0.8301
  353MOL0     H47590   5.207   7.651   2.143 -2.1045  0.3029  1.1742
  353MOL0     H47591   5.296   7.585   2.284  2.9878 -1.0453 -1.5436
  353MOL0     H47592   5.371   7.395   2.165  0.5899  0.6940 -0.1705
  353MOL0     H47593   5.459   7.532   2.147  1.2158  0.6835 -1.7410
  353MOL0     H47594   5.237   7.502   1.931 -0.5921 -3.1092 -1.3134
  353MOL0     H47595   5.379   7.412   1.907 -0.4691  2.2614 -3.8396
  353MOL0     H47596   5.347   7.716   1.925 -2.8261 -3.0612 -1.2663
  353MOL0     H47597   5.504   7.654   1.957  1.4565  2.2524 -0.6965
  353MOL0     H47598   5.493   7.721   1.738  1.0925 -0.1718  0.1651
  353MOL0     H47599   5.487   7.536   1.735 -3.6385 -2.2790  2.1762
  353MOL0     H47600   5.253   7.539   1.685  1.6038 -0.9126 -1.1004
  353MOL0     H47601   5.247   7.718   1.706 -1.7051 -0.5678 -2.0801
  353MOL0     H47602   5.383   7.561   1.488  1.7370  1.7910  0.4238
  353MOL0     H47603   5.408   7.730   1.508  1.1597  0.0981  3.2156
  353MOL0     H47604   5.124   7.629   1.462  1.5188  0.1419  3.6215
  353MOL0     H47605   5.194   7.796   1.457 -2.1821 -0.4471  1.1676
  353MOL0     H47606   5.187   7.470   1.236  1.9344 -1.5458 -0.9316
  353MOL0     H47607   5.289   7.392   1.008  0.3000 -0.4379 -0.8149
  353MOL0     H47608   5.230   7.538   0.912  2.3917  0.2116 -2.0007
  353MOL0     H47609   5.391   7.567   0.801  0.3623 -0.3660 -0.6079
  353MOL0     H47610   5.500   7.575   0.938 -1.3928  0.4249  1.7844
  353MOL0     H47611   5.424   7.329   0.760  1.0997 -0.1662 -0.9170
  353MOL0     H47612   5.531   7.310   0.901  0.0184  1.1611  1.4595
  353MOL0     H47613   5.683   7.465   0.812 -0.5100 -0.2386  0.3614
  353MOL0     H47614   5.563   7.493   0.683 -2.6376 -0.7539  0.3624
  353MOL0     H47615   5.769   7.534   0.606  2.2187  0.5328  3.8193
  353MOL0     H47616   5.974   7.555   0.511  0.3830  0.0663  0.6984
  353MOL0     H47617   6.410   7.099   0.407  1.8535 -0.1572  0.9540
  353MOL0     H47618   6.634   7.132   0.344 -0.2927 -0.2467 -0.0015
  353MOL0     H47619   6.816   7.306   0.328 -0.3797 -0.5031 -1.2315
  353MOL0     H47620   6.848   7.173   0.209  1.7888  0.1081 -1.8588
  353MOL0     H47621   6.945   7.370   0.074 -2.8749  0.6788  0.2000
  353MOL0     H47622   6.930   7.480   0.209  2.3901  1.2126 -2.9271
  353MOL0     H47623   7.063   7.341   0.362 -2.1283 -2.5818  0.5148
  353MOL0     H47624   7.093   7.220   0.234  2.8158  0.7437 -1.6940
  353MOL0     H47625   7.171   7.509   0.252 -1.1522 -0.8770 -1.2511
  353MOL0     H47626   7.196   7.420   0.108 -2.6222  2.4224 -0.8217
  353MOL0     H47627   7.337   7.246   0.229 -0.0679  0.2573 -1.6516
  353MOL0     H47628   7.309   7.327   0.383 -1.4940 -0.8324 -0.5310
  353MOL0     H47629   7.426   7.466   0.138  1.0418 -1.0542 -0.7243
  353MOL0     H47630   7.435   7.527   0.289  0.3225  1.2666 -2.7074
  353MOL0     H47631   7.601   7.316   0.161 -2.0891 -0.9886  0.8584
  353MOL0     H47632   7.592   7.273   0.319 -0.5016  0.4389  0.9098
  353MOL0     H47633   7.660   7.516   0.389  1.1887 -1.2656 -0.2535
  353MOL0     H47634   7.769   7.398   0.315 -0.2758  0.4004 -0.0065
  353MOL0     H47635   6.497   7.451   0.076  0.9378  0.1868  0.5997
  353MOL0     H47636   6.283   7.442   0.197  2.0637  3.4333  2.0445
  353MOL0     H47637   6.021   7.131   0.493  2.8503  1.1215  2.6563
  353MOL0     H47638   5.806   7.100   0.595 -0.3601  0.5001  3.6103
  353MOL0     H47639   4.908   7.362   2.134 -0.8804  0.9421 -1.3804
  353MOL0     H47640   4.686   7.452   2.203  0.0721  1.5500 -2.2356
  353MOL0     H47641   4.442   7.614   2.519 -3.0440  1.0199  4.3923
  353MOL0     H47642   4.214   7.674   2.612 -1.0617  1.3563  0.2008
  353MOL0     H47643   3.931   7.891   2.359 -0.1622  3.7764 -0.9692
  353MOL0     H47644   3.970   8.002   2.503 -0.2558 -1.8044  4.6493
  353MOL0     H47645   3.740   7.938   2.530 -1.3771 -2.4766  1.1321
  353MOL0     H47646   3.853   7.866   2.645  1.1619 -0.9395 -0.0813
  353MOL0     H47647   3.789   7.653   2.587  3.2618  1.0730  0.7718
  353MOL0     H47648   3.808   7.677   2.423  1.5818  1.0450  0.9839
  353MOL0     H47649   3.562   7.776   2.410 -2.8028 -1.3539  0.2586
  353MOL0     H47650   3.569   7.622   2.477 -0.6578 -0.3282 -2.3087
  353MOL0     H47651   3.461   7.856   2.809  0.9741  4.1700 -0.7326
  353MOL0     H47652   4.140   7.928   2.293 -0.5501  0.4595  3.4153
  353MOL0     H47653   4.423   8.029   2.182 -2.3731  3.7345 -2.7582
  353MOL0     H47654   4.434   7.885   2.096 -1.2445  1.0648 -1.0814
  353MOL0     H47655   4.273   7.952   2.106 -0.0029  0.2516  1.0591
  354MOL0     O47656   8.516   8.456  10.350 -0.3494  0.4401  0.7618
  354MOL0     C47657   8.566   8.468  10.455  0.8943 -0.4402 -0.5065
  354MOL0     O47658   8.577   8.366  10.555 -0.0337 -1.0374 -0.7727
  354MOL0     C47659   8.518   8.248  10.520  0.1139  0.4764  0.3227
  354MOL0     C47660   8.599   8.154  10.457 -0.0124 -0.0308 -0.8983
  354MOL0     C47661   8.547   8.033  10.424  0.4000  0.7301 -0.5337
  354MOL0     C47662   8.412   8.003  10.451  0.3951  0.0819 -1.2255
  354MOL0     O47663   8.355   7.884  10.401 -0.2122  0.4457 -0.5881
  354MOL0     C47664   8.327   7.777  10.496 -0.0062 -0.5837  0.2144
  354MOL0     C47665   8.241   7.667  10.429  0.5508 -0.3420 -0.3327
  354MOL0     C47666   8.119   7.717  10.362  0.7700  0.5848  1.1081
  354MOL0     C47667   8.002   7.621  10.362  0.3673 -0.4574 -0.6074
  354MOL0     C47668   7.883   7.679  10.311  1.1289 -0.2591  0.5224
  354MOL0     C47669   7.771   7.574  10.313 -0.1178  0.7992  0.1349
  354MOL0     C47670   7.641   7.644  10.283 -0.3245  0.1254 -0.2584
  354MOL0     C47671   7.504   7.561  10.293 -1.0272 -0.4267  0.3391
  354MOL0     N47672   7.461   7.529  10.433  1.0763 -0.6148  0.0276
  354MOL0     C47673   7.462   7.617  10.539  1.2701  0.6248 -0.5062
  354MOL0     C47674   7.470   7.547  10.658 -0.1553  0.8428  0.3133
  354MOL0     C47675   7.454   7.620  10.790  0.3916  1.3011 -0.5010
  354MOL0     C47676   7.592   7.674  10.824  0.5748 -0.2755 -0.8004
  354MOL0     C47677   7.633   7.808  10.764  0.6329  0.6433 -0.7201
  354MOL0     C47678   7.551   7.930  10.815 -0.0731 -0.2169 -0.9151
  354MOL0     O47679   7.583   8.049  10.738 -0.3680 -0.8307  0.2416
  354MOL0     C47680   7.581   8.166  10.816 -0.2449 -0.1398 -0.9511
  354MOL0     C47681   7.470   8.252  10.813 -0.5705 -0.3804  0.0542
  354MOL0     C47682   7.475   8.376  10.868 -0.2958 -0.8358 -0.5657
  354MOL0     C47683   7.585   8.423  10.935 -1.4400 -0.3629 -0.3383
  354MOL0     C47684   7.588   8.561  10.998  1.0162 -0.1304  1.6160
  354MOL0     O47685   7.471   8.635  10.991 -0.2733 -0.0709  0.9698
  354MOL0     C47686   7.463   8.772  11.032  0.4025 -0.5664  0.5503
  354MOL0     C47687   7.392   8.871  10.958 -0.4034  0.3504 -0.5474
  354MOL0     C47688   7.397   9.002  11.000 -0.5132 -0.2692  0.7092
  354MOL0     C47689   7.452   9.049  11.126  0.2207 -0.4485  0.9734
  354MOL0     O47690   7.444   9.175  11.185 -0.4866  0.9697 -0.0980
  354MOL0     C47691   7.367   9.278  11.125 -0.8943  0.1713 -0.5094
  354MOL0     C47692   7.296   9.373  11.218 -0.8719 -0.3703 -1.2577
  354MOL0     C47693   7.182   9.440  11.139  0.1036  0.5947 -0.9839
  354MOL0     C47694   7.139   9.572  11.208  0.4615  0.3115  0.1148
  354MOL0     C47695   7.043   9.657  11.131 -0.5189  0.6937  0.1006
  354MOL0     C47696   7.017   9.786  11.208  0.6034 -0.4880 -0.6495
  354MOL0     C47697   6.907   9.883  11.150  0.1524 -0.4322 -0.7827
  354MOL0     C47698   6.771   9.811  11.132 -0.4242  0.9538  0.6660
  354MOL0    Cl47699   6.644   9.938  11.095  0.0053 -0.3246  0.4407
  354MOL0     C47700   7.517   8.949  11.198  0.5691  0.0770 -0.3480
  354MOL0     C47701   7.512   8.812  11.158 -0.8887 -0.0175  1.2371
  354MOL0     O47702   7.693   8.603  11.048  0.0588  0.0530 -0.0311
  354MOL0     C47703   7.695   8.338  10.948  0.7873 -0.3673 -1.3344
  354MOL0     C47704   7.693   8.203  10.890 -0.1786 -0.0333 -0.2232
  354MOL0     N47705   7.474   7.417  10.617  0.5913  0.6506 -0.2226
  354MOL0     N47706   7.474   7.403  10.491  1.0162 -0.2339  0.8495
  354MOL0     C47707   8.340   8.100  10.516 -0.0620 -0.6193 -0.0514
  354MOL0     C47708   8.388   8.228  10.556 -0.0380  0.6036  1.3576
  354MOL0     C47709   8.613   8.598  10.478 -0.4527  0.0109 -0.3747
  354MOL0     C47710   8.552   8.707  10.415 -0.4594 -0.6153 -0.6450
  354MOL0     C47711   8.584   8.838  10.452  0.1579  0.6314  0.0511
  354MOL0     C47712   8.689   8.865  10.535  0.0862  0.6806  0.2915
  354MOL0     O47713   8.734   8.986  10.578 -0.1822  0.4966 -0.4702
  354MOL0     C47714   8.658   9.110  10.559  0.2243  0.9357 -0.1724
  354MOL0     C47715   8.691   9.212  10.657 -0.3003 -0.7032 -0.7671
  354MOL0     C47716   8.665   9.166  10.797  0.7961 -0.0892 -0.0727
  354MOL0     C47717   8.646   9.295  10.894 -0.1517 -0.7618 -0.8974
  354MOL0     C47718   8.675   9.257  11.031 -0.7384  0.5612  0.3287
  354MOL0     C47719   8.664   9.212  11.147 -0.6344  0.6944  0.9881
  354MOL0     C47720   8.764   8.758  10.577  0.4279  0.8130  0.4069
  354MOL0     C47721   8.723   8.622  10.564 -0.4077  0.9015  0.9478
  354MOL0     C47722   8.795   8.515  10.630 -0.4596 -0.3645 -0.1909
  354MOL0     H47723   8.703   8.178  10.444 -0.1914  2.2453  1.1771
  354MOL0     H47724   8.613   7.962  10.373 -0.4992  1.5432 -2.9887
  354MOL0     H47725   8.426   7.744  10.529  2.2912  4.4988 -0.5529
  354MOL0     H47726   8.278   7.818  10.585  1.9443  0.0630  1.0481
  354MOL0     H47727   8.201   7.604  10.509 -0.9227  0.5382 -0.3457
  354MOL0     H47728   8.297   7.607  10.357 -0.9433 -1.5666 -0.5280
  354MOL0     H47729   8.138   7.743  10.257 -1.4537 -1.6525  0.0300
  354MOL0     H47730   8.079   7.803  10.416 -0.7272  0.7024 -0.1165
  354MOL0     H47731   8.024   7.530  10.304  0.7050 -1.3483  0.8628
  354MOL0     H47732   7.973   7.593  10.463 -1.1494  0.0628 -0.8776
  354MOL0     H47733   7.862   7.767  10.372  2.0718  1.0053 -0.8813
  354MOL0     H47734   7.900   7.705  10.206  2.1678 -0.1885  0.6942
  354MOL0     H47735   7.801   7.500  10.239  2.8796 -1.1541  3.0368
  354MOL0     H47736   7.763   7.528  10.412 -1.0268  1.3775  0.3504
  354MOL0     H47737   7.649   7.682  10.181 -1.9995 -1.1944 -0.9079
  354MOL0     H47738   7.635   7.726  10.356 -0.6174  0.1631 -0.3257
  354MOL0     H47739   7.431   7.636  10.260  0.9248  2.5783  2.3418
  354MOL0     H47740   7.498   7.476  10.225  2.6499 -2.2335  1.9902
  354MOL0     H47741   7.438   7.723  10.545 -0.6263  0.1713  1.5215
  354MOL0     H47742   7.374   7.695  10.788 -1.9607 -0.9551  1.2856
  354MOL0     H47743   7.434   7.551  10.873  0.2587  0.5971 -1.1079
  354MOL0     H47744   7.601   7.674  10.933 -0.1664  1.4216 -0.7110
  354MOL0     H47745   7.665   7.600  10.788  0.6415 -0.2392 -0.7403
  354MOL0     H47746   7.623   7.799  10.655  1.9701  0.0201 -0.8122
  354MOL0     H47747   7.737   7.825  10.792  0.6718  0.8230 -0.9672
  354MOL0     H47748   7.564   7.944  10.923  0.6363  0.1978 -1.0512
  354MOL0     H47749   7.444   7.913  10.799 -0.7402  0.4980  2.1502
  354MOL0     H47750   7.393   8.216  10.746 -0.9873  0.0893  0.2761
  354MOL0     H47751   7.396   8.447  10.847  0.0047 -0.9027 -2.0092
  354MOL0     H47752   7.347   8.824  10.871 -0.4222 -0.5421 -0.0723
  354MOL0     H47753   7.358   9.081  10.937 -0.3433  0.5010  1.5385
  354MOL0     H47754   7.439   9.333  11.065 -2.2769 -0.0546 -2.4703
  354MOL0     H47755   7.296   9.233  11.055 -0.3383 -1.4171 -0.1004
  354MOL0     H47756   7.254   9.322  11.305  1.5601  1.1071  0.9203
  354MOL0     H47757   7.361   9.450  11.261 -0.7536 -0.5441 -1.1233
  354MOL0     H47758   7.232   9.470  11.046  0.0698 -1.0149 -1.5418
  354MOL0     H47759   7.095   9.375  11.126  0.8680 -0.2098 -2.2906
  354MOL0     H47760   7.228   9.625  11.240 -0.4564  2.6569 -0.9875
  354MOL0     H47761   7.072   9.544  11.291 -0.3133 -0.1920 -0.6634
  354MOL0     H47762   6.948   9.604  11.135 -0.1976  0.2008  1.8455
  354MOL0     H47763   7.075   9.691  11.032 -0.8004  3.8059  0.9669
  354MOL0     H47764   6.985   9.764  11.310  0.8874  0.7478 -0.2827
  354MOL0     H47765   7.104   9.849  11.224 -1.3852  1.7873  2.1674
  354MOL0     H47766   6.931   9.925  11.052  0.1098 -0.1030 -0.6519
  354MOL0     H47767   6.899   9.963  11.223 -0.0734 -2.6277  1.7568
  354MOL0     H47768   6.762   9.733  11.056 -2.1989  0.6603  1.1326
  354MOL0     H47769   6.743   9.772  11.230 -4.5610 -0.7650 -0.9273
  354MOL0     H47770   7.560   8.982  11.292 -4.7583 -0.4573  2.6806
  354MOL0     H47771   7.558   8.750  11.233  2.2395  3.2479  2.2980
  354MOL0     H47772   7.782   8.377  11.000 -1.4614  2.1883  0.8454
  354MOL0     H47773   7.785   8.146  10.901  0.8006  0.6744 -3.4791
  354MOL0     H47774   8.241   8.066  10.546  0.3261 -1.2900  0.4974
  354MOL0     H47775   8.326   8.310  10.591 -1.1102  0.3031  0.2461
  354MOL0     H47776   8.465   8.702  10.350 -0.6433 -0.3853 -0.4181
  354MOL0     H47777   8.514   8.914  10.420 -0.7604 -1.0481 -2.1812
  354MOL0     H47778   8.553   9.083  10.543  0.9465 -1.4222 -1.4437
  354MOL0     H47779   8.678   9.154  10.460 -1.6733  0.9519 -0.5821
  354MOL0     H47780   8.635   9.301  10.629  1.1813  0.3250 -0.6049
  354MOL0     H47781   8.799   9.233  10.660 -0.0088 -2.1302 -0.0220
  354MOL0     H47782   8.760   9.119  10.824  0.0714 -0.3594  2.3281
  354MOL0     H47783   8.580   9.097  10.805 -0.6331  1.6562  0.4924
  354MOL0     H47784   8.715   9.372  10.856  1.2854 -0.8969  1.2747
  354MOL0     H47785   8.542   9.327  10.897  0.0860  0.3859 -2.8848
  354MOL0     H47786   8.654   9.166  11.243 -0.5049  4.0552  2.7910
  354MOL0     H47787   8.858   8.775  10.629  0.8701  0.9123 -0.4061
  354MOL0     H47788   8.733   8.466  10.706 -1.6956 -0.7334 -1.4089
  354MOL0     H47789   8.794   8.435  10.556  0.1733 -0.4620 -0.1030
  354MOL0     H47790   8.897   8.539  10.662 -0.3589 -1.3408  0.2385
  355MOL0     O47791   7.686   4.784   0.191 -0.8973  0.6954  0.8908
  355MOL0     C47792   7.612   4.882   0.190 -0.0910  0.2607  0.7488
  355MOL0     O47793   7.645   5.005   0.132  0.6854  0.4008 -0.0017
  355MOL0     C47794   7.762   5.072   0.160 -1.0420  0.1236  0.5604
  355MOL0     C47795   7.887   5.011   0.154  0.2985  0.0444 -0.1973
  355MOL0     C47796   8.000   5.083   0.170 -0.2712 -0.5930 -0.2973
  355MOL0     C47797   8.003   5.213   0.229 -0.3867 -0.3687  1.1739
  355MOL0     O47798   8.112   5.280   0.257  0.3046 -0.5834  0.1104
  355MOL0     C47799   8.104   5.424   0.228 -0.4878  0.3825 -0.2024
  355MOL0     C47800   8.252   5.450   0.197 -0.3024  0.0895 -0.2782
  355MOL0     C47801   8.282   5.587   0.149 -0.6521 -0.0969  0.3411
  355MOL0     C47802   8.420   5.600   0.102  0.0333 -0.3516  0.4724
  355MOL0     C47803   8.437   5.737   0.046 -0.5278 -0.1979 -0.7258
  355MOL0     C47804   8.591   5.755   0.021 -0.5447  0.6851  0.5244
  355MOL0     C47805   8.613   5.871  -0.079 -0.1384  1.3675 -0.9472
  355MOL0     C47806   8.553   5.857  -0.210 -0.4808  0.4863  0.1760
  355MOL0     N47807   8.586   5.964  -0.306 -0.2916 -0.3888  0.2600
  355MOL0     C47808   8.676   5.955  -0.415 -0.0875  0.3117  0.1045
  355MOL0     C47809   8.645   6.061  -0.487  0.5615 -0.4327  0.7897
  355MOL0     C47810   8.731   6.082  -0.611  0.1458  0.2821 -0.3727
  355MOL0     C47811   8.740   6.231  -0.648 -0.1904 -1.0357 -0.5850
  355MOL0     C47812   8.825   6.317  -0.558 -0.0186  0.9741  0.1012
  355MOL0     C47813   8.954   6.244  -0.510 -0.3569  0.2895 -0.4233
  355MOL0     O47814   9.025   6.333  -0.422  0.0963 -0.4832  0.7045
  355MOL0     C47815   9.066   6.456  -0.465  0.5663 -0.4326 -0.7134
  355MOL0     C47816   9.075   6.559  -0.365 -0.1719  0.2874  0.7366
  355MOL0     C47817   9.138   6.676  -0.391  0.8560 -0.8064 -0.2886
  355MOL0     C47818   9.171   6.715  -0.523  0.2865  0.6600 -1.0936
  355MOL0     C47819   9.217   6.855  -0.545 -0.2337  0.2201  0.9692
  355MOL0     O47820   9.253   6.927  -0.437 -0.1290 -0.9016 -0.5047
  355MOL0     C47821   9.284   7.061  -0.447 -0.3908 -0.1612  0.2707
  355MOL0     C47822   9.204   7.169  -0.470  0.1215  0.6159  0.2116
  355MOL0     C47823   9.252   7.299  -0.480 -0.4480 -1.1936  0.0345
  355MOL0     C47824   9.402   7.322  -0.476  0.7763 -0.1410  0.2114
  355MOL0     O47825   9.456   7.447  -0.483 -0.2703  0.5890  0.0250
  355MOL0     C47826   9.388   7.557  -0.538  0.0362 -0.3106 -0.1116
  355MOL0     C47827   9.480   7.636  -0.629  0.1837 -0.0781 -0.3477
  355MOL0     C47828   9.622   7.676  -0.575  0.6421 -0.0910 -0.0108
  355MOL0     C47829   9.613   7.767  -0.445 -0.0965  0.7632  0.2988
  355MOL0     C47830   9.752   7.801  -0.392  0.2311  0.0826  0.3179
  355MOL0     C47831   9.828   7.901  -0.476 -0.3667  0.0777  0.7625
  355MOL0     C47832   9.953   7.929  -0.383  1.1313 -0.9649 -0.0954
  355MOL0     C47833  10.050   8.014  -0.462  0.4899 -0.2683 -0.8870
  355MOL0    Cl47834  10.211   7.993  -0.390 -0.4522  0.2087  0.7397
  355MOL0     C47835   9.487   7.208  -0.462  0.4838  0.2243  1.5568
  355MOL0     C47836   9.421   7.085  -0.444  0.4760 -1.3163  0.2637
  355MOL0     O47837   9.221   6.901  -0.660 -0.1416  0.2143 -0.2627
  355MOL0     C47838   9.164   6.618  -0.623 -0.1930  1.0013 -0.2138
  355MOL0     C47839   9.117   6.491  -0.596 -0.2799  0.5187  0.7192
  355MOL0     N47840   8.551   6.135  -0.422 -0.6678 -0.9303 -0.0198
  355MOL0     N47841   8.517   6.082  -0.307 -0.2933  0.0934  0.0882
  355MOL0     C47842   7.878   5.273   0.246 -0.4279  0.1823 -0.8722
  355MOL0     C47843   7.761   5.205   0.208  0.3626  0.4245  0.9663
  355MOL0     C47844   7.471   4.875   0.241 -0.1284  0.2805  0.1306
  355MOL0     C47845   7.395   4.993   0.259  0.5079  0.0295  0.2807
  355MOL0     C47846   7.255   4.990   0.298 -0.5692  0.6440  0.0078
  355MOL0     C47847   7.200   4.868   0.330 -0.2080  0.2364  0.0085
  355MOL0     O47848   7.069   4.849   0.363 -0.7904  0.0926 -0.1241
  355MOL0     C47849   6.972   4.954   0.382  0.1375 -0.2542 -0.7385
  355MOL0     C47850   7.002   5.070   0.491 -0.2263  0.0446  0.9358
  355MOL0     C47851   6.898   5.073   0.602  0.1950 -0.2350 -0.5593
  355MOL0     C47852   6.939   5.169   0.717 -0.6099 -0.4516  0.6736
  355MOL0     C47853   6.998   5.096   0.832 -0.1856  0.3623 -0.6065
  355MOL0     C47854   7.037   5.022   0.921 -0.4650 -0.8113  0.3364
  355MOL0     C47855   7.275   4.749   0.329 -0.8846  0.0893  0.4155
  355MOL0     C47856   7.402   4.750   0.275 -0.0558  0.8661 -0.0073
  355MOL0     C47857   7.468   4.610   0.257 -0.6143  0.1932 -0.3945
  355MOL0     H47858   7.898   4.906   0.130 -0.3272 -0.9287  3.2549
  355MOL0     H47859   8.097   5.034   0.165  1.0626  1.9586 -0.6971
  355MOL0     H47860   8.045   5.459   0.143  1.6381  2.0057 -1.0902
  355MOL0     H47861   8.074   5.483   0.315 -1.8462  0.1268 -0.4719
  355MOL0     H47862   8.286   5.380   0.120 -2.3452 -1.3459  0.0293
  355MOL0     H47863   8.312   5.429   0.286  0.8126  1.8215 -0.5739
  355MOL0     H47864   8.264   5.665   0.224 -0.8328  1.5763 -1.3621
  355MOL0     H47865   8.223   5.602   0.058  1.2659 -2.7514 -1.5086
  355MOL0     H47866   8.492   5.578   0.182 -0.7108 -1.8790  0.7547
  355MOL0     H47867   8.438   5.527   0.023 -2.0642 -0.5716  0.1628
  355MOL0     H47868   8.386   5.743  -0.051 -0.1998  0.7546 -0.8499
  355MOL0     H47869   8.400   5.815   0.113  3.7106  4.1515 -2.8076
  355MOL0     H47870   8.631   5.778   0.120  3.8480  1.0158 -1.1418
  355MOL0     H47871   8.632   5.658  -0.006  0.7249 -0.1479  4.6854
  355MOL0     H47872   8.718   5.888  -0.103 -0.0840  1.7697 -0.4314
  355MOL0     H47873   8.578   5.964  -0.033 -1.7965 -0.2411  1.2443
  355MOL0     H47874   8.581   5.768  -0.267  1.5655  2.5604 -2.2898
  355MOL0     H47875   8.445   5.860  -0.191 -0.1342  2.0354  2.3017
  355MOL0     H47876   8.745   5.874  -0.435  0.5773  0.6003  1.1616
  355MOL0     H47877   8.831   6.039  -0.597  0.7588  0.7886 -2.7286
  355MOL0     H47878   8.693   6.028  -0.699  2.0522 -0.4833 -0.7740
  355MOL0     H47879   8.775   6.234  -0.752  2.2687  1.5197  0.2080
  355MOL0     H47880   8.640   6.273  -0.634  0.0089 -1.2022  1.5568
  355MOL0     H47881   8.774   6.334  -0.463  0.0547 -0.9017  0.5074
  355MOL0     H47882   8.853   6.414  -0.601 -0.2767  1.1212  0.2642
  355MOL0     H47883   9.018   6.210  -0.592 -1.3164 -0.7641 -0.7600
  355MOL0     H47884   8.938   6.151  -0.455 -0.8107  1.6853  1.9605
  355MOL0     H47885   9.044   6.545  -0.262 -0.7393 -1.9993  0.3210
  355MOL0     H47886   9.166   6.743  -0.311  2.3434  0.1064 -1.5099
  355MOL0     H47887   9.096   7.158  -0.475  0.4454 -4.6611 -0.8915
  355MOL0     H47888   9.179   7.376  -0.504  1.2131 -0.4205 -3.1904
  355MOL0     H47889   9.304   7.532  -0.603  0.3530  1.7842 -1.4329
  355MOL0     H47890   9.349   7.618  -0.456  1.0576  1.7558 -1.0978
  355MOL0     H47891   9.500   7.566  -0.710  0.1299  0.8163 -1.1607
  355MOL0     H47892   9.431   7.724  -0.673 -3.4729 -1.5889  0.2997
  355MOL0     H47893   9.676   7.585  -0.545  3.0478  1.2767  0.0748
  355MOL0     H47894   9.685   7.722  -0.652  0.6297  0.3009  0.2138
  355MOL0     H47895   9.557   7.725  -0.361  0.0590  0.3766  0.2130
  355MOL0     H47896   9.565   7.862  -0.471 -1.1199  0.2192  0.1196
  355MOL0     H47897   9.825   7.720  -0.383  1.9779  1.4481 -0.8493
  355MOL0     H47898   9.741   7.829  -0.287 -1.6752 -0.0759  0.2059
  355MOL0     H47899   9.846   7.862  -0.576  0.5958 -1.1116  1.3650
  355MOL0     H47900   9.770   7.991  -0.498 -0.0449  0.1583  0.2236
  355MOL0     H47901  10.000   7.838  -0.345  2.5968 -0.7615 -1.3354
  355MOL0     H47902   9.921   7.983  -0.293 -1.5376 -2.3994 -0.0691
  355MOL0     H47903  10.046   7.988  -0.568 -0.0337 -0.8638 -0.7272
  355MOL0     H47904  10.024   8.120  -0.459  0.3136 -0.3377  0.4570
  355MOL0     H47905   9.593   7.215  -0.440  1.1405 -1.1855 -0.7882
  355MOL0     H47906   9.478   6.995  -0.427 -0.0476 -1.7447 -0.2075
  355MOL0     H47907   9.193   6.633  -0.726  0.6398 -2.1469 -0.5521
  355MOL0     H47908   9.122   6.425  -0.681  1.4617 -0.0382  1.2112
  355MOL0     H47909   7.861   5.372   0.289 -0.7106  0.3910 -1.4561
  355MOL0     H47910   7.666   5.254   0.227  2.1415  3.6675  2.3078
  355MOL0     H47911   7.446   5.088   0.255  1.4557 -0.4351  0.9827
  355MOL0     H47912   7.199   5.082   0.286 -0.0988  0.5956 -4.1388
  355MOL0     H47913   6.880   4.906   0.416  0.7247  0.5966  2.3751
  355MOL0     H47914   6.959   4.992   0.280  2.1965 -1.2769 -1.4428
  355MOL0     H47915   7.004   5.170   0.445 -0.1235  0.1188  1.1015
  355MOL0     H47916   7.100   5.050   0.535  1.9635  1.9098 -2.5608
  355MOL0     H47917   6.859   4.972   0.619 -2.2222  0.7048 -0.2210
  355MOL0     H47918   6.810   5.127   0.566  0.0318  0.0372  0.2368
  355MOL0     H47919   7.004   5.251   0.687 -1.3701  0.5602  1.6944
  355MOL0     H47920   6.851   5.219   0.758 -1.3929 -0.2603 -1.1435
  355MOL0     H47921   7.055   4.940   0.988 -0.1104 -1.4107 -0.4841
  355MOL0     H47922   7.224   4.655   0.351  1.6372 -0.8150  3.0959
  355MOL0     H47923   7.417   4.514   0.269 -2.5272  1.0578 -1.3009
  355MOL0     H47924   7.492   4.599   0.151  0.9473 -0.5794  0.0022
  355MOL0     H47925   7.555   4.599   0.323 -0.2969  0.8279 -0.6942
  356MOL0     O47926   9.342   3.513   6.822 -0.2519 -0.4004 -0.4669
  356MOL0     C47927   9.394   3.559   6.719  0.5697  0.9194 -0.2707
  356MOL0     O47928   9.521   3.614   6.704 -0.0395 -0.3107 -0.6237
  356MOL0     C47929   9.604   3.620   6.810  1.2365 -0.7830  0.2404
  356MOL0     C47930   9.570   3.717   6.909 -0.8316  0.4395 -0.4389
  356MOL0     C47931   9.665   3.744   7.008 -0.2214  0.1430 -0.7526
  356MOL0     C47932   9.786   3.673   7.018  0.3298 -0.5668  0.7520
  356MOL0     O47933   9.870   3.711   7.118  0.1594  0.3321 -0.3325
  356MOL0     C47934  10.007   3.654   7.119 -0.4228 -0.9262 -0.4357
  356MOL0     C47935  10.093   3.729   7.228 -0.1220  0.7110  0.7423
  356MOL0     C47936  10.128   3.876   7.201  0.7488 -0.6133  0.0857
  356MOL0     C47937  10.262   3.902   7.119 -0.7141 -1.1214  0.6636
  356MOL0     C47938  10.394   3.885   7.200 -0.4057  0.8229 -0.1888
  356MOL0     C47939  10.406   3.972   7.315  0.9752 -0.6318  0.0879
  356MOL0     C47940  10.418   4.125   7.281  0.1629 -0.9262 -0.7847
  356MOL0     C47941  10.461   4.215   7.407  0.4779  0.0519  1.0372
  356MOL0     N47942  10.364   4.222   7.516  0.6159  0.1563 -0.2479
  356MOL0     C47943  10.372   4.162   7.638 -0.3352  0.4309  0.7300
  356MOL0     C47944  10.281   4.216   7.716  0.3362  0.5236 -0.7168
  356MOL0     C47945  10.258   4.170   7.855  0.0453 -0.7402 -0.8260
  356MOL0     C47946  10.340   4.247   7.951  0.2316  0.2301 -0.1371
  356MOL0     C47947  10.316   4.190   8.093  1.3764 -0.6467  0.2708
  356MOL0     C47948  10.409   4.248   8.196  0.6391 -0.1224 -0.4114
  356MOL0     O47949  10.538   4.189   8.167 -0.2966  0.0933 -0.4625
  356MOL0     C47950  10.645   4.207   8.253  0.0681  0.5504  0.2437
  356MOL0     C47951  10.739   4.108   8.280 -0.1141  0.2195 -0.0463
  356MOL0     C47952  10.857   4.130   8.361 -0.3385 -0.1524  0.4593
  356MOL0     C47953  10.876   4.262   8.423  0.2059 -0.2269 -0.4580
  356MOL0     C47954  11.008   4.299   8.496  0.2170 -0.5518 -0.2475
  356MOL0     O47955  11.049   4.429   8.526  1.0677 -0.3450  0.1145
  356MOL0     C47956  11.148   4.445   8.617 -0.4546 -0.0369  0.1564
  356MOL0     C47957  11.116   4.518   8.723 -0.1596 -0.1029  0.0415
  356MOL0     C47958  11.208   4.537   8.827 -0.4765  1.2149  0.4655
  356MOL0     C47959  11.332   4.471   8.825 -0.6377 -0.3226  0.2619
  356MOL0     O47960  11.437   4.472   8.913 -0.8928  0.3573 -0.3744
  356MOL0     C47961  11.409   4.482   9.051  0.1148 -0.3863 -0.3831
  356MOL0     C47962  11.527   4.510   9.135  0.4004  0.3462 -0.2562
  356MOL0     C47963  11.632   4.390   9.125  0.2219  0.5944  0.1323
  356MOL0     C47964  11.768   4.433   9.191  0.5961 -0.1650 -0.2828
  356MOL0     C47965  11.865   4.485   9.095 -1.0917 -0.3995  0.5367
  356MOL0     C47966  12.005   4.524   9.173  0.9403 -1.0993 -0.0388
  356MOL0     C47967  12.092   4.404   9.196  0.5972  0.0569  0.4462
  356MOL0     C47968  12.223   4.438   9.250 -0.1412 -0.2326 -0.0891
  356MOL0    Cl47969  12.315   4.533   9.122 -0.1849 -0.0395  0.0078
  356MOL0     C47970  11.368   4.404   8.717 -0.1592  0.7953  0.3693
  356MOL0     C47971  11.283   4.398   8.606 -0.6126  0.6383 -0.1820
  356MOL0     O47972  11.081   4.201   8.509 -0.5388 -0.5577  0.5292
  356MOL0     C47973  10.769   4.362   8.403  0.6829  0.1344 -0.3273
  356MOL0     C47974  10.659   4.328   8.320 -0.1358  0.0069  1.0342
  356MOL0     N47975  10.219   4.317   7.644  0.0080  0.7384  0.2757
  356MOL0     N47976  10.262   4.315   7.521  0.3780  0.1144 -0.5374
  356MOL0     C47977   9.815   3.582   6.914 -0.9632  0.2558  0.8579
  356MOL0     C47978   9.727   3.555   6.816 -0.2099  0.1949 -0.6215
  356MOL0     C47979   9.286   3.571   6.614  0.0302 -0.5498  0.2197
  356MOL0     C47980   9.226   3.450   6.580 -0.3040 -0.9371 -0.0631
  356MOL0     C47981   9.132   3.440   6.480  0.6585  0.0799  1.1759
  356MOL0     C47982   9.097   3.545   6.399 -0.6191  0.0540  0.4681
  356MOL0     O47983   9.023   3.518   6.289  0.0940 -0.3917 -0.7222
  356MOL0     C47984   9.020   3.610   6.182  0.5346 -1.3458  0.0329
  356MOL0     C47985   8.962   3.539   6.068 -0.1525  0.3475 -0.1665
  356MOL0     C47986   8.990   3.593   5.930  0.0649  0.2312  0.0369
  356MOL0     C47987   8.972   3.472   5.829 -0.1191  0.3859  0.0766
  356MOL0     C47988   8.974   3.514   5.689  0.2695 -0.4952 -0.0221
  356MOL0     C47989   8.987   3.531   5.568  0.2871  0.1909 -0.0515
  356MOL0     C47990   9.165   3.666   6.436  0.3808 -0.0095 -0.4322
  356MOL0     C47991   9.256   3.685   6.546  0.6299  0.5680  0.1170
  356MOL0     C47992   9.306   3.814   6.581 -0.0630 -1.0579 -0.1722
  356MOL0     H47993   9.484   3.781   6.895  1.2862  3.2541 -1.4983
  356MOL0     H47994   9.641   3.822   7.079 -1.7569 -1.8903  1.0859
  356MOL0     H47995  10.013   3.548   7.145  1.0839 -0.0612  3.4676
  356MOL0     H47996  10.049   3.678   7.021  1.3502  1.8345  0.8758
  356MOL0     H47997  10.184   3.671   7.248  0.4673  1.1338 -0.6052
  356MOL0     H47998  10.041   3.706   7.322 -0.3624 -4.4362 -0.3298
  356MOL0     H47999  10.147   3.926   7.297  1.1533 -2.6068  1.0879
  356MOL0     H48000  10.054   3.928   7.140  2.2502  0.4384 -0.9214
  356MOL0     H48001  10.278   3.843   7.028  1.3825 -0.1369  0.3168
  356MOL0     H48002  10.253   4.005   7.083  0.4608 -1.0467  0.5473
  356MOL0     H48003  10.400   3.781   7.232 -1.6748  0.5696 -0.7014
  356MOL0     H48004  10.481   3.898   7.136 -0.5017 -0.0290 -0.5169
  356MOL0     H48005  10.321   3.959   7.382  0.7288 -0.9638 -0.2830
  356MOL0     H48006  10.495   3.944   7.372  2.6100  2.4662 -0.7551
  356MOL0     H48007  10.324   4.170   7.249 -0.1455 -0.5289  0.6147
  356MOL0     H48008  10.491   4.142   7.201  3.1094  0.7618  2.0019
  356MOL0     H48009  10.557   4.184   7.448  0.0070 -1.1594  1.2507
  356MOL0     H48010  10.472   4.316   7.365 -0.7852  0.4330  1.5625
  356MOL0     H48011  10.429   4.075   7.670 -1.6377 -1.3065 -1.3713
  356MOL0     H48012  10.154   4.183   7.886  0.7069  1.1937  0.8699
  356MOL0     H48013  10.290   4.065   7.863  1.0127 -0.6286 -2.6712
  356MOL0     H48014  10.447   4.238   7.928  0.7980 -3.1244  2.8645
  356MOL0     H48015  10.317   4.354   7.956  2.4626  0.7356  0.9817
  356MOL0     H48016  10.330   4.081   8.093 -0.5703 -0.9706  1.9883
  356MOL0     H48017  10.212   4.212   8.120  0.5339  0.5782 -3.4424
  356MOL0     H48018  10.374   4.217   8.294  0.3357 -2.9304 -1.3162
  356MOL0     H48019  10.408   4.357   8.191  2.5532 -0.1110 -2.8640
  356MOL0     H48020  10.734   4.022   8.214  0.2415  1.0542 -1.2008
  356MOL0     H48021  10.929   4.048   8.366 -0.3657 -0.2607 -0.7146
  356MOL0     H48022  11.020   4.566   8.709 -0.7786 -1.4787 -0.6720
  356MOL0     H48023  11.180   4.613   8.899 -0.5193  0.9087  0.7753
  356MOL0     H48024  11.340   4.566   9.064  1.2980  0.5175  0.2399
  356MOL0     H48025  11.360   4.394   9.095 -0.2741  0.3108  0.6273
  356MOL0     H48026  11.575   4.608   9.123  1.7215  0.2708  3.0581
  356MOL0     H48027  11.492   4.508   9.239 -1.0221  1.8135 -0.6881
  356MOL0     H48028  11.574   4.316   9.180  1.8393  0.0875  1.2310
  356MOL0     H48029  11.655   4.350   9.026 -2.5127 -1.0449  0.0492
  356MOL0     H48030  11.824   4.359   9.248  1.8211  0.5428 -0.5254
  356MOL0     H48031  11.747   4.512   9.263 -0.3787 -2.8209  2.5336
  356MOL0     H48032  11.813   4.572   9.053 -0.5605  0.9954  2.5968
  356MOL0     H48033  11.890   4.422   9.010  0.2013  0.3364  0.3470
  356MOL0     H48034  12.061   4.590   9.107 -0.2642  0.4405  0.4323
  356MOL0     H48035  11.984   4.566   9.272 -5.6233  0.3249 -1.5862
  356MOL0     H48036  12.111   4.364   9.096 -0.8369  2.3954 -0.8617
  356MOL0     H48037  12.048   4.330   9.263 -0.5443  0.2394 -0.0832
  356MOL0     H48038  12.211   4.484   9.349  1.0251 -0.5075  0.1959
  356MOL0     H48039  12.272   4.342   9.267  0.4381 -0.1581 -1.2616
  356MOL0     H48040  11.469   4.364   8.719  0.5589  2.5457  1.1305
  356MOL0     H48041  11.320   4.342   8.520  2.0673 -1.5342  2.1662
  356MOL0     H48042  10.787   4.458   8.450 -0.5898  0.4572 -0.4566
  356MOL0     H48043  10.581   4.399   8.296 -1.2927 -1.3258  0.7047
  356MOL0     H48044   9.902   3.517   6.917  0.1198  1.3583 -2.3948
  356MOL0     H48045   9.752   3.482   6.739  2.8879  0.5392 -0.0768
  356MOL0     H48046   9.243   3.359   6.636  1.8322  0.2107  1.2911
  356MOL0     H48047   9.098   3.338   6.461  0.9975  0.4809 -2.1479
  356MOL0     H48048   9.126   3.634   6.165  0.2548  5.4672  3.9823
  356MOL0     H48049   8.968   3.703   6.209  1.5087 -0.2451 -1.7316
  356MOL0     H48050   8.854   3.523   6.081 -0.1894  0.0659 -0.7496
  356MOL0     H48051   9.015   3.444   6.070 -0.3870  0.1720 -1.3521
  356MOL0     H48052   9.095   3.625   5.935  1.3893 -2.6049 -4.0890
  356MOL0     H48053   8.929   3.678   5.898  0.2217  0.5690  0.6156
  356MOL0     H48054   9.059   3.407   5.834 -1.0364 -0.7911  2.9521
  356MOL0     H48055   8.888   3.407   5.854  0.5639 -0.5382 -0.0076
  356MOL0     H48056   8.993   3.546   5.462 -3.7956 -2.0888 -0.8290
  356MOL0     H48057   9.147   3.754   6.375 -3.4685  1.9515  3.0267
  356MOL0     H48058   9.414   3.796   6.572 -0.1869 -2.0027  0.1437
  356MOL0     H48059   9.268   3.893   6.516  3.0438  0.3006 -0.5330
  356MOL0     H48060   9.275   3.849   6.680 -0.5781  0.3770 -0.8183
  357MOL0     O48061   0.243  10.350  10.252  0.2457  0.2672 -0.0249
  357MOL0     C48062   0.188  10.364  10.144 -0.0211  0.8949 -0.1141
  357MOL0     O48063   0.209  10.293  10.027  0.6223  0.2079 -0.1480
  357MOL0     C48064   0.291  10.183  10.029 -0.0081  0.5072  0.1834
  357MOL0     C48065   0.372  10.171   9.912  1.1889  0.6065 -0.3127
  357MOL0     C48066   0.462  10.062   9.897 -0.2750  0.4827  0.5884
  357MOL0     C48067   0.477   9.975  10.009 -0.3763 -0.0663 -0.0916
  357MOL0     O48068   0.570   9.876  10.003 -0.5497  0.0746 -0.8516
  357MOL0     C48069   0.710   9.903   9.997 -0.3598  0.1278  0.6824
  357MOL0     C48070   0.783   9.769  10.005  0.1385 -0.2683 -0.2735
  357MOL0     C48071   0.937   9.776   9.995  0.0622 -0.3788 -0.8468
  357MOL0     C48072   0.993   9.846  10.116 -0.1503 -0.6059 -0.9121
  357MOL0     C48073   1.146   9.835  10.103 -1.0641  0.0221 -0.1976
  357MOL0     C48074   1.229   9.912  10.217 -0.1425  1.0779 -0.0403
  357MOL0     C48075   1.368   9.850  10.256 -0.4744 -0.2762  0.0574
  357MOL0     C48076   1.464   9.931  10.347 -0.2025  0.1444  0.2849
  357MOL0     N48077   1.582   9.842  10.379  0.1237  0.2777  0.0229
  357MOL0     C48078   1.579   9.722  10.449  0.9517 -0.6913 -0.4271
  357MOL0     C48079   1.707   9.677  10.472  0.4376  0.1911  0.5217
  357MOL0     C48080   1.748   9.570  10.561 -0.5581 -0.5518  0.4397
  357MOL0     C48081   1.775   9.643  10.699 -0.3231  0.0136  0.0751
  357MOL0     C48082   1.819   9.552  10.814 -0.7705  0.8437  0.3253
  357MOL0     C48083   1.712   9.446  10.848  0.2570 -0.2523 -0.8256
  357MOL0     O48084   1.582   9.504  10.857  0.1321 -0.3619 -0.7475
  357MOL0     C48085   1.544   9.580  10.966 -0.1445  0.8402  0.0075
  357MOL0     C48086   1.606   9.563  11.094  0.6724  0.3628  0.5050
  357MOL0     C48087   1.561   9.634  11.208 -0.6147  0.0173 -0.2575
  357MOL0     C48088   1.470   9.738  11.196  0.0307  0.1441 -0.0395
  357MOL0     C48089   1.435   9.826  11.311 -0.1339  0.5029  1.0706
  357MOL0     O48090   1.540   9.884  11.371 -0.2777 -0.2959 -0.5737
  357MOL0     C48091   1.531   9.955  11.489 -0.5836  0.1414  0.1161
  357MOL0     C48092   1.584  10.087  11.503 -0.0551  1.2409  0.4654
  357MOL0     C48093   1.579  10.160  11.618 -0.3108  0.0678  0.2617
  357MOL0     C48094   1.525  10.103  11.733  0.3431 -0.1622 -0.1005
  357MOL0     O48095   1.527  10.178  11.853 -0.1232 -0.0498 -0.0448
  357MOL0     C48096   1.541  10.109  11.973 -0.7608  0.9005 -0.5761
  357MOL0     C48097   1.599  10.219  12.067 -0.6845 -0.4991 -0.0172
  357MOL0     C48098   1.637  10.188  12.214 -0.6004  0.4268  0.0232
  357MOL0     C48099   1.645  10.308  12.311 -0.3075 -0.2886  0.2586
  357MOL0     C48100   1.737  10.300  12.439 -0.2105  0.2434  0.4622
  357MOL0     C48101   1.736  10.171  12.513 -0.4548 -1.1776 -0.2766
  357MOL0     C48102   1.785  10.163  12.658  0.1196 -1.1599 -0.4421
  357MOL0     C48103   1.940  10.177  12.659  0.1485 -0.5650  0.4250
  357MOL0    Cl48104   1.986  10.335  12.722  0.3966 -0.1275  0.2127
  357MOL0     C48105   1.484   9.966  11.731  0.6307 -0.4244  0.1610
  357MOL0     C48106   1.482   9.899  11.609 -0.2636 -0.4554 -0.1442
  357MOL0     O48107   1.316   9.839  11.347 -0.4568  0.4269  0.0829
  357MOL0     C48108   1.400   9.739  11.080  0.6712  1.0219 -0.0072
  357MOL0     C48109   1.436   9.663  10.970 -0.3338 -0.7352 -0.1717
  357MOL0     N48110   1.781   9.765  10.404 -0.3253 -0.2911 -0.2326
  357MOL0     N48111   1.713   9.871  10.372  0.8701 -0.2222 -0.4347
  357MOL0     C48112   0.399   9.986  10.122  0.2177  0.3045  0.2095
  357MOL0     C48113   0.303  10.089  10.131  0.4917  0.2801 -0.5337
  357MOL0     C48114   0.093  10.468  10.123 -0.1972  0.0168 -0.3386
  357MOL0     C48115   0.026  10.511  10.242 -0.4116 -0.4133  0.4775
  357MOL0     C48116  -0.041  10.632  10.251 -0.5184  0.0887 -0.3463
  357MOL0     C48117  -0.038  10.718  10.142 -0.0062  0.9778  0.9059
  357MOL0     O48118  -0.090  10.847  10.144 -0.4806  0.3857  0.7734
  357MOL0     C48119  -0.219  10.868  10.098  1.0358 -0.6218  0.1680
  357MOL0     C48120  -0.280  10.940  10.219 -0.6222  0.4374  0.1624
  357MOL0     C48121  -0.407  11.010  10.170  0.5512  0.4648  0.2593
  357MOL0     C48122  -0.449  11.131  10.256 -0.6004  0.2966 -0.3880
  357MOL0     C48123  -0.465  11.092  10.392  0.8301 -0.1400 -0.4495
  357MOL0     C48124  -0.482  11.075  10.513 -0.1256 -0.8028  0.7895
  357MOL0     C48125   0.022  10.672  10.024  0.3631 -0.5624  0.0085
  357MOL0     C48126   0.082  10.555  10.004  0.2503 -1.0609 -0.4100
  357MOL0     C48127   0.163  10.528   9.874 -0.7789  0.0532  0.3806
  357MOL0     H48128   0.351  10.230   9.823 -0.4263  0.1239 -0.2855
  357MOL0     H48129   0.510  10.042   9.801 -0.0427  1.2473  0.5321
  357MOL0     H48130   0.734   9.964   9.909  0.4521  1.2786  1.6595
  357MOL0     H48131   0.736   9.959  10.088 -3.5608 -1.1801  2.5772
  357MOL0     H48132   0.749   9.699   9.928  0.2335 -2.8366  1.8916
  357MOL0     H48133   0.748   9.711  10.090 -0.4424  0.1676 -0.2111
  357MOL0     H48134   0.966   9.832   9.905 -1.3094  0.2900 -0.8987
  357MOL0     H48135   0.977   9.674   9.989 -2.7617 -1.5738 -0.6085
  357MOL0     H48136   0.957   9.949  10.120 -0.8463 -0.8736  0.4057
  357MOL0     H48137   0.954   9.792  10.203  1.8489 -1.7245 -0.6395
  357MOL0     H48138   1.173   9.729  10.110 -1.0757 -0.0436 -1.0387
  357MOL0     H48139   1.174   9.875  10.005  0.4778  1.8090  0.9198
  357MOL0     H48140   1.245  10.014  10.181  0.9833  1.0953  0.4735
  357MOL0     H48141   1.169   9.917  10.307  0.1360  0.9741  0.1532
  357MOL0     H48142   1.420   9.818  10.166 -2.2131 -4.0374  0.2127
  357MOL0     H48143   1.340   9.760  10.311 -0.5948  0.2121  0.8164
  357MOL0     H48144   1.488  10.018  10.285 -0.3765  0.6799  0.9512
  357MOL0     H48145   1.417   9.964  10.441 -2.5131  1.1194 -1.1264
  357MOL0     H48146   1.491   9.679  10.495  2.5835 -0.4475  3.3672
  357MOL0     H48147   1.659   9.507  10.566 -1.3758  0.3314 -1.7363
  357MOL0     H48148   1.837   9.525  10.517 -1.2041 -1.1053 -0.3324
  357MOL0     H48149   1.855   9.717  10.687  1.3206 -1.3384  1.9913
  357MOL0     H48150   1.686   9.697  10.732  1.7040  1.6736  3.3401
  357MOL0     H48151   1.865   9.592  10.905  1.9885  1.2229 -1.1176
  357MOL0     H48152   1.900   9.492  10.771 -2.1124  0.7550 -2.2572
  357MOL0     H48153   1.738   9.377  10.929  0.3777  0.1027 -0.5613
  357MOL0     H48154   1.704   9.386  10.756  0.5926  2.3728 -2.6776
  357MOL0     H48155   1.670   9.478  11.114  1.7523  0.9320 -0.4234
  357MOL0     H48156   1.601   9.629  11.309  0.1334 -1.3133 -0.6027
  357MOL0     H48157   1.636  10.123  11.414 -1.5931 -3.3179 -2.6636
  357MOL0     H48158   1.621  10.260  11.624 -1.9007  0.9304 -1.7875
  357MOL0     H48159   1.447  10.066  12.007 -0.9113  2.0229  0.5186
  357MOL0     H48160   1.616  10.029  11.965 -1.8012 -0.1632  0.1084
  357MOL0     H48161   1.692  10.253  12.020 -0.5831 -0.7043  0.0363
  357MOL0     H48162   1.518  10.293  12.063  1.8749  2.4716 -1.1606
  357MOL0     H48163   1.567  10.110  12.245 -1.9614  1.3562 -0.6136
  357MOL0     H48164   1.743  10.159  12.220  0.9812  5.3484  0.0381
  357MOL0     H48165   1.545  10.318  12.352 -0.7957  2.4060 -1.3224
  357MOL0     H48166   1.663  10.403  12.259 -0.2203 -0.6934 -0.4639
  357MOL0     H48167   1.722  10.389  12.501  3.7708  1.4402 -0.0023
  357MOL0     H48168   1.843  10.298  12.412  0.1898 -0.7006  1.9790
  357MOL0     H48169   1.628  10.162  12.530 -0.4854  1.3307  1.2801
  357MOL0     H48170   1.772  10.088  12.452 -1.5393 -3.7079  2.2818
  357MOL0     H48171   1.769  10.063  12.701 -0.0926 -1.4009 -1.0772
  357MOL0     H48172   1.739  10.232  12.729 -0.3177 -1.6642 -0.2274
  357MOL0     H48173   1.983  10.108  12.733  0.2416 -0.0348  0.8750
  357MOL0     H48174   1.987  10.149  12.564 -0.2056  5.2161 -1.8746
  357MOL0     H48175   1.462   9.913  11.823 -0.2589  0.4299  0.4502
  357MOL0     H48176   1.454   9.794  11.603  3.2198 -1.5180 -0.6287
  357MOL0     H48177   1.316   9.807  11.077 -0.8185 -0.7486 -0.4608
  357MOL0     H48178   1.380   9.683  10.879 -0.0253  3.5410  0.3751
  357MOL0     H48179   0.421   9.919  10.205  4.2473  1.5340  0.3231
  357MOL0     H48180   0.249  10.110  10.222 -0.2069  4.2368 -1.6524
  357MOL0     H48181   0.040  10.455  10.334  1.3326 -1.8118 -0.5819
  357MOL0     H48182  -0.077  10.669  10.346  2.8754  0.0727  1.0801
  357MOL0     H48183  -0.269  10.777  10.063  2.1330  0.1356 -3.8660
  357MOL0     H48184  -0.210  10.930  10.009 -3.8181 -1.4000 -1.1389
  357MOL0     H48185  -0.206  11.014  10.252  0.4696  0.0714 -1.3887
  357MOL0     H48186  -0.306  10.870  10.299  1.2365  0.6218  0.9744
  357MOL0     H48187  -0.494  10.945  10.163  1.4455 -0.8548  0.8736
  357MOL0     H48188  -0.393  11.043  10.067  0.1126  2.2141  0.7160
  357MOL0     H48189  -0.367  11.202  10.239 -1.2149  0.2348 -4.6467
  357MOL0     H48190  -0.544  11.173  10.223 -1.4867 -1.1515  0.2655
  357MOL0     H48191  -0.506  11.059  10.616 -2.0659 -1.7190  0.2380
  357MOL0     H48192   0.023  10.747   9.946  3.1034 -2.8630 -2.3830
  357MOL0     H48193   0.109  10.581   9.795 -0.3937  0.8899  0.6657
  357MOL0     H48194   0.269  10.552   9.891 -0.4352 -0.8119 -0.4246
  357MOL0     H48195   0.130  10.430   9.839 -2.2164  0.1557  1.3660
  358MOL0     O48196   6.128   9.425  10.361  0.4140  0.8691 -0.9295
  358MOL0     C48197   6.008   9.420  10.312 -0.9399  0.6250  0.0257
  358MOL0     O48198   5.894   9.373  10.367 -0.2042 -0.6377 -0.5863
  358MOL0     C48199   5.897   9.318  10.497 -0.0869 -0.2358  1.2163
  358MOL0     C48200   5.819   9.369  10.586  1.0337 -0.0033 -0.1131
  358MOL0     C48201   5.832   9.321  10.719  0.9615  0.3954  0.7678
  358MOL0     C48202   5.917   9.217  10.765  0.2684 -0.6801 -0.6752
  358MOL0     O48203   5.923   9.187  10.899  0.9380 -0.1821  0.3042
  358MOL0     C48204   6.051   9.158  10.958 -0.1836  0.6215 -0.0811
  358MOL0     C48205   6.038   9.173  11.115 -0.5532 -0.3908  0.1472
  358MOL0     C48206   6.132   9.074  11.190 -0.4243  0.7800 -0.0274
  358MOL0     C48207   6.075   8.931  11.195  0.3689  0.2615  0.6072
  358MOL0     C48208   6.123   8.863  11.324 -0.4335 -0.1638  0.6753
  358MOL0     C48209   6.082   8.713  11.338  0.1639 -0.2843 -0.1475
  358MOL0     C48210   6.057   8.636  11.467  0.4573 -0.1705 -0.5214
  358MOL0     C48211   6.058   8.735  11.582 -0.0829  0.2952  0.1523
  358MOL0     N48212   6.015   8.663  11.703 -0.7365 -0.4170  1.2806
  358MOL0     C48213   6.110   8.619  11.792  0.1498  0.0777 -0.2264
  358MOL0     C48214   6.051   8.609  11.910  0.6537 -0.8230  0.3984
  358MOL0     C48215   6.091   8.569  12.039  0.6038  0.2784 -0.3148
  358MOL0     C48216   6.180   8.676  12.106  0.2725  0.4943 -0.0091
  358MOL0     C48217   6.232   8.635  12.247  0.5030 -0.1977 -0.1411
  358MOL0     C48218   6.347   8.717  12.311  0.2747  0.1492  0.1706
  358MOL0     O48219   6.412   8.631  12.405 -0.3705  0.6221 -1.0955
  358MOL0     C48220   6.506   8.685  12.487  0.2429  0.1855  0.7885
  358MOL0     C48221   6.553   8.815  12.472 -0.5174  0.7367 -0.3521
  358MOL0     C48222   6.647   8.865  12.573 -0.5032  0.5754  0.4513
  358MOL0     C48223   6.702   8.772  12.673  1.0011 -0.9303  0.0520
  358MOL0     C48224   6.799   8.824  12.774  0.0474  0.9151  0.5629
  358MOL0     O48225   6.881   8.727  12.833  0.4911 -0.0719 -0.3732
  358MOL0     C48226   6.967   8.752  12.940 -0.1558 -0.1873  0.5081
  358MOL0     C48227   7.013   8.640  13.016 -0.1353 -0.2039  0.3261
  358MOL0     C48228   7.080   8.651  13.134 -0.3788  0.0347  0.4251
  358MOL0     C48229   7.116   8.778  13.189  0.5170  0.0624 -0.3248
  358MOL0     O48230   7.194   8.795  13.296 -0.9947 -0.7725  0.1739
  358MOL0     C48231   7.217   8.691  13.386  0.6408  0.4702 -0.3457
  358MOL0     C48232   7.300   8.742  13.507 -0.5162  0.2048 -0.8190
  358MOL0     C48233   7.278   8.874  13.576  0.9113 -0.5235  0.0259
  358MOL0     C48234   7.132   8.889  13.635 -0.6720 -0.2402 -0.9261
  358MOL0     C48235   7.120   9.011  13.727  0.0810 -0.3551  0.2870
  358MOL0     C48236   6.979   9.012  13.785  0.7245  0.1151 -0.9017
  358MOL0     C48237   6.960   9.131  13.883  0.5667  0.3120  0.3593
  358MOL0     C48238   6.813   9.141  13.937 -0.0721  0.1833  0.4941
  358MOL0    Cl48239   6.790   9.004  14.049 -0.0698  0.2283  0.2018
  358MOL0     C48240   7.078   8.892  13.113 -0.0634 -0.3878  0.2091
  358MOL0     C48241   7.006   8.879  12.994 -0.1291  0.0764 -0.0115
  358MOL0     O48242   6.795   8.938  12.805  0.7198 -0.1174 -0.8342
  358MOL0     C48243   6.656   8.645  12.676  0.0638  0.6763 -0.0615
  358MOL0     C48244   6.560   8.601  12.585  0.5510  0.2851  0.1272
  358MOL0     N48245   5.918   8.665  11.897 -0.5378 -0.6820  0.0516
  358MOL0     N48246   5.897   8.689  11.767 -0.5547  0.2011  1.0880
  358MOL0     C48247   6.000   9.167  10.666  0.2961 -0.3620  0.2273
  358MOL0     C48248   5.992   9.217  10.527  0.0761  0.7588  0.1385
  358MOL0     C48249   5.985   9.477  10.174  0.2819 -1.3311  0.1313
  358MOL0     C48250   5.859   9.515  10.141  0.1843 -0.7207 -0.3262
  358MOL0     C48251   5.834   9.594  10.034  0.8388  0.1587  0.1708
  358MOL0     C48252   5.932   9.627   9.947  0.2225 -0.6139  0.0496
  358MOL0     O48253   5.888   9.712   9.851 -0.6908 -0.5074  0.1945
  358MOL0     C48254   5.967   9.732   9.733 -0.0787 -0.3362  0.3640
  358MOL0     C48255   5.867   9.785   9.631 -0.1398  0.9116  0.1337
  358MOL0     C48256   5.794   9.673   9.559  0.3668  0.0653 -0.2593
  358MOL0     C48257   5.708   9.579   9.638 -0.1137  0.9160 -0.1508
  358MOL0     C48258   5.585   9.645   9.686 -0.4018 -0.0231 -0.0299
  358MOL0     C48259   5.495   9.706   9.726 -0.7779  0.0550 -0.5307
  358MOL0     C48260   6.064   9.589   9.968  0.6281  0.2996 -0.2859
  358MOL0     C48261   6.095   9.521  10.085 -0.3289  0.3478 -0.2727
  358MOL0     C48262   6.243   9.484  10.108  0.4506  0.9150  0.6019
  358MOL0     H48263   5.749   9.443  10.549 -1.1739 -1.4521  0.9880
  358MOL0     H48264   5.764   9.373  10.786  1.5710  1.7584  0.3592
  358MOL0     H48265   6.070   9.053  10.935 -2.8739 -0.2317  1.1326
  358MOL0     H48266   6.134   9.216  10.918  1.2640 -0.9474  0.5465
  358MOL0     H48267   5.935   9.145  11.138 -0.5753 -3.0639 -2.6048
  358MOL0     H48268   6.059   9.278  11.141 -1.4098  0.5139 -2.4936
  358MOL0     H48269   6.155   9.107  11.291  0.2426 -0.8876  0.3952
  358MOL0     H48270   6.219   9.072  11.124 -0.7731  1.1680 -0.5138
  358MOL0     H48271   5.966   8.929  11.184  0.3354  0.9816  0.8127
  358MOL0     H48272   6.105   8.879  11.104 -1.5407  3.5499 -2.0901
  358MOL0     H48273   6.232   8.860  11.334  0.0664  2.2972 -2.2991
  358MOL0     H48274   6.091   8.926  11.408  0.3093  2.5934 -0.9523
  358MOL0     H48275   5.989   8.710  11.281  0.4751 -1.2612 -0.6289
  358MOL0     H48276   6.156   8.662  11.276  1.4916  0.0110  1.1446
  358MOL0     H48277   6.138   8.565  11.487 -0.0399  0.0149  2.6925
  358MOL0     H48278   5.967   8.575  11.477  1.4979 -1.5248  1.1320
  358MOL0     H48279   6.154   8.785  11.593  0.8466 -1.7539  2.2031
  358MOL0     H48280   5.987   8.814  11.555 -1.2729 -0.7286  0.1693
  358MOL0     H48281   6.213   8.592  11.770 -0.0655 -0.0101 -1.1984
  358MOL0     H48282   5.999   8.538  12.091 -0.3379 -0.1851 -2.1744
  358MOL0     H48283   6.149   8.477  12.033  0.7292  0.3165  0.1942
  358MOL0     H48284   6.266   8.702  12.044 -0.1867 -0.2678 -0.9838
  358MOL0     H48285   6.128   8.772  12.113  0.7761  0.7572  0.1993
  358MOL0     H48286   6.276   8.535  12.243 -0.3349 -0.6349  0.9729
  358MOL0     H48287   6.151   8.635  12.321 -1.1028 -4.1908 -1.6177
  358MOL0     H48288   6.297   8.802  12.358  0.2358 -0.4522  1.2564
  358MOL0     H48289   6.424   8.741  12.237  2.1247 -0.3614  1.8397
  358MOL0     H48290   6.504   8.892  12.414  2.1862  0.1662 -3.7680
  358MOL0     H48291   6.670   8.970  12.560 -0.8959  0.6681  0.4932
  358MOL0     H48292   6.991   8.536  12.991  1.6633 -0.8291  1.1756
  358MOL0     H48293   7.107   8.559  13.184  0.2279 -0.4891 -0.8263
  358MOL0     H48294   7.126   8.637  13.414  1.4677 -0.1611  1.2348
  358MOL0     H48295   7.290   8.625  13.338  1.4496  2.1202 -1.4916
  358MOL0     H48296   7.295   8.665  13.585  0.2744 -0.3750 -1.3180
  358MOL0     H48297   7.398   8.758  13.461 -0.3017 -0.1819 -0.5068
  358MOL0     H48298   7.354   8.887  13.654  2.4030  2.4399 -1.7493
  358MOL0     H48299   7.285   8.957  13.504 -0.2146 -0.1893  0.2828
  358MOL0     H48300   7.099   8.801  13.691 -0.9762 -0.2442 -1.1117
  358MOL0     H48301   7.063   8.904  13.552  0.1039  0.8657 -1.3931
  358MOL0     H48302   7.145   9.098  13.666  0.8425 -1.2030 -0.6564
  358MOL0     H48303   7.186   8.999  13.813 -0.8770 -2.3081  0.8064
  358MOL0     H48304   6.910   9.018  13.700 -0.6254  1.3198  0.2418
  358MOL0     H48305   6.969   8.911  13.826  0.1425  1.0816  1.4354
  358MOL0     H48306   6.981   9.232  13.847  0.9481  1.0161  2.3958
  358MOL0     H48307   7.033   9.113  13.962 -1.7003 -0.9487  2.2863
  358MOL0     H48308   6.806   9.237  13.989 -0.0666 -0.4538  1.7012
  358MOL0     H48309   6.741   9.139  13.854  0.0249  0.3915  0.4051
  358MOL0     H48310   7.096   8.995  13.144 -1.9732  0.0797 -0.0888
  358MOL0     H48311   6.967   8.972  12.954 -1.2656 -0.6979 -0.7712
  358MOL0     H48312   6.697   8.573  12.746  0.8786  0.7937 -0.4156
  358MOL0     H48313   6.520   8.500  12.586 -0.4994  0.6900 -0.1988
  358MOL0     H48314   6.062   9.085  10.698 -3.1730 -2.6055  1.8582
  358MOL0     H48315   6.060   9.153  10.471  2.0381  2.0387  0.9601
  358MOL0     H48316   5.775   9.503  10.210  0.4440  1.2088  0.3829
  358MOL0     H48317   5.743   9.652  10.035  1.6868  1.6321 -1.4824
  358MOL0     H48318   6.026   9.644   9.707  0.8944  0.1355  0.8851
  358MOL0     H48319   6.045   9.806   9.754  0.9342 -1.5098  0.9060
  358MOL0     H48320   5.931   9.837   9.559  1.9536 -2.3568 -0.5292
  358MOL0     H48321   5.802   9.856   9.683 -1.5155  0.1199 -0.4477
  358MOL0     H48322   5.873   9.618   9.506  1.3731  0.4107  0.8520
  358MOL0     H48323   5.738   9.731   9.484 -0.6441  0.7724  1.0072
  358MOL0     H48324   5.675   9.500   9.570 -0.9386  1.0693  0.0544
  358MOL0     H48325   5.753   9.509   9.708 -1.6551 -1.8395 -1.7600
  358MOL0     H48326   5.413   9.765   9.763 -0.3844 -0.0577  0.5628
  358MOL0     H48327   6.145   9.619   9.902  1.8331  3.2391  2.3114
  358MOL0     H48328   6.252   9.385  10.153  2.3753  0.5631 -0.4444
  358MOL0     H48329   6.304   9.480  10.017  2.2195  1.4230  1.7190
  358MOL0     H48330   6.280   9.555  10.183 -1.0246 -0.1186  2.3990
  359MOL0     O48331   8.866   9.844   3.649 -0.4428 -0.0844 -1.7857
  359MOL0     C48332   8.954   9.896   3.711 -0.2073 -0.2910  1.0402
  359MOL0     O48333   8.969   9.912   3.851 -0.1990  0.7339  0.0698
  359MOL0     C48334   8.874   9.844   3.929 -0.3314  0.2023 -0.1762
  359MOL0     C48335   8.867   9.710   3.925 -0.1448  1.0305  0.4559
  359MOL0     C48336   8.777   9.632   4.004 -0.0360 -0.0291 -0.1464
  359MOL0     C48337   8.693   9.695   4.105 -0.3212  0.2617  0.1634
  359MOL0     O48338   8.607   9.616   4.182  0.4078  0.7021  1.5283
  359MOL0     C48339   8.613   9.649   4.324 -0.2183 -0.3523  0.3230
  359MOL0     C48340   8.514   9.577   4.411 -0.5989  0.6063  0.2939
  359MOL0     C48341   8.553   9.590   4.557  0.1694 -1.0381 -1.4057
  359MOL0     C48342   8.568   9.746   4.615 -0.3792  0.1868  0.7289
  359MOL0     C48343   8.715   9.807   4.574  0.5880 -0.4099 -0.1917
  359MOL0     C48344   8.769   9.905   4.670 -0.5292  0.4644 -0.5264
  359MOL0     C48345   8.687  10.032   4.696  0.8562 -0.6509 -0.5408
  359MOL0     C48346   8.686  10.138   4.583 -0.0867  0.8765  0.0394
  359MOL0     N48347   8.823  10.146   4.530  0.5441 -1.1756 -0.1193
  359MOL0     C48348   8.915  10.237   4.569  0.2793  0.0980 -0.5046
  359MOL0     C48349   9.022  10.203   4.481  0.1766  0.3749 -0.8122
  359MOL0     C48350   9.161  10.267   4.498 -0.1343  0.6176 -0.1227
  359MOL0     C48351   9.262  10.166   4.464  0.6001  0.5278  0.7180
  359MOL0     C48352   9.404  10.230   4.452 -0.4098  0.8863 -0.3485
  359MOL0     C48353   9.448  10.279   4.310  0.3627  0.0789 -0.7777
  359MOL0     O48354   9.584  10.300   4.312 -1.1045  0.1118  0.1622
  359MOL0     C48355   9.654  10.362   4.211 -0.4448 -0.2582  0.4938
  359MOL0     C48356   9.799  10.350   4.206  0.3375  0.1998  0.1429
  359MOL0     C48357   9.878  10.403   4.098 -0.0948 -0.3074  0.1706
  359MOL0     C48358   9.811  10.465   3.993  0.9546 -0.3407 -0.4184
  359MOL0     C48359   9.888  10.535   3.887 -0.5609  0.0998 -0.1537
  359MOL0     O48360   9.825  10.590   3.772 -0.3041  0.2150  0.1165
  359MOL0     C48361   9.914  10.645   3.682 -0.2730  0.1721  0.5999
  359MOL0     C48362   9.964  10.572   3.581 -0.3918  0.9443 -0.1793
  359MOL0     C48363  10.049  10.627   3.487 -0.6579  0.0873  0.9125
  359MOL0     C48364  10.109  10.755   3.506  0.1972 -0.6337  0.2181
  359MOL0     O48365  10.191  10.797   3.410  0.2963  0.1026 -0.5757
  359MOL0     C48366  10.256  10.927   3.415  0.1163 -0.1354 -0.3931
  359MOL0     C48367  10.344  10.935   3.298 -0.0537  0.0436  0.1476
  359MOL0     C48368  10.452  11.042   3.314 -0.2368 -0.6924  0.1777
  359MOL0     C48369  10.541  11.060   3.184 -0.5611 -0.9971 -0.3624
  359MOL0     C48370  10.659  10.956   3.182  0.7471 -0.0381  0.1086
  359MOL0     C48371  10.735  10.960   3.044  0.7679 -0.1361  0.3501
  359MOL0     C48372  10.793  11.090   3.011  0.1233 -0.1400  0.5318
  359MOL0     C48373  10.886  11.091   2.894 -1.0872  0.5172 -0.0431
  359MOL0    Cl48374  11.038  11.003   2.924  0.0013  0.4076  0.1140
  359MOL0     C48375  10.072  10.831   3.623  0.7160 -0.8175  0.2733
  359MOL0     C48376   9.967  10.772   3.707 -0.9937  0.9409 -0.6397
  359MOL0     O48377  10.012  10.545   3.909  0.6522  0.7095 -0.2096
  359MOL0     C48378   9.663  10.483   4.001  1.0648  0.4645  0.1719
  359MOL0     C48379   9.592  10.427   4.107 -1.2686  0.3505 -1.0159
  359MOL0     N48380   8.983  10.106   4.383 -0.5866 -0.4150  0.5463
  359MOL0     N48381   8.866  10.083   4.412  0.7644  0.8490  0.2031
  359MOL0     C48382   8.698   9.834   4.109  0.3188  1.0946  0.7325
  359MOL0     C48383   8.782   9.901   4.024  0.0107 -0.8471 -0.7749
  359MOL0     C48384   9.054   9.965   3.617  0.5684 -0.4028 -0.3717
  359MOL0     C48385   9.084  10.099   3.638  0.0336  0.5256 -0.5380
  359MOL0     C48386   9.178  10.171   3.568  0.2602 -0.5978  0.1964
  359MOL0     C48387   9.235  10.117   3.447  0.2079  0.0301  0.7756
  359MOL0     O48388   9.308  10.194   3.352  0.3707 -0.6054  0.5746
  359MOL0     C48389   9.405  10.286   3.401 -0.3710 -0.0824 -0.2195
  359MOL0     C48390   9.357  10.425   3.419  0.4226 -0.6770 -0.1949
  359MOL0     C48391   9.448  10.498   3.526  0.0976 -0.2834 -0.9811
  359MOL0     C48392   9.587  10.525   3.472  0.0378  1.2490  0.6998
  359MOL0     C48393   9.590  10.628   3.371 -0.7383 -1.0571  1.4046
  359MOL0     C48394   9.602  10.733   3.298 -0.2261  1.8301  0.0603
  359MOL0     C48395   9.205   9.983   3.430  0.6698  0.1027 -0.5508
  359MOL0     C48396   9.119   9.910   3.512 -0.1821  0.0972 -0.4624
  359MOL0     C48397   9.097   9.768   3.475 -0.2472  0.5204 -0.4676
  359MOL0     H48398   8.927   9.655   3.853 -1.6832  0.2719 -0.3016
  359MOL0     H48399   8.772   9.524   4.000 -0.5142  0.0235 -1.3604
  359MOL0     H48400   8.715   9.630   4.357 -0.4758  0.7012  1.8517
  359MOL0     H48401   8.583   9.754   4.333 -2.8703 -1.1250  1.8677
  359MOL0     H48402   8.508   9.470   4.390  1.8109  0.4783  0.0116
  359MOL0     H48403   8.413   9.616   4.394 -0.3274  0.0970 -3.1076
  359MOL0     H48404   8.642   9.531   4.583  0.9355  0.0015 -1.5643
  359MOL0     H48405   8.473   9.557   4.624  2.7541  1.4358  3.5444
  359MOL0     H48406   8.500   9.822   4.575 -0.3908  0.3414  1.0354
  359MOL0     H48407   8.546   9.737   4.722  2.0086 -2.9327  1.0955
  359MOL0     H48408   8.787   9.725   4.567  0.0380 -1.0940  1.5317
  359MOL0     H48409   8.709   9.868   4.483  0.2767 -0.0538  0.0622
  359MOL0     H48410   8.766   9.854   4.767 -0.3933  2.9630  0.8953
  359MOL0     H48411   8.873   9.931   4.647 -0.4699  1.2280  0.5304
  359MOL0     H48412   8.725  10.079   4.787  1.6577 -2.8372  0.3234
  359MOL0     H48413   8.582  10.010   4.714  0.5443 -0.0986 -1.6084
  359MOL0     H48414   8.618  10.101   4.506  0.7296 -0.6157 -0.0106
  359MOL0     H48415   8.659  10.239   4.617 -0.0674 -0.0781  3.0831
  359MOL0     H48416   8.911  10.294   4.661 -1.2988  0.2674 -0.6618
  359MOL0     H48417   9.171  10.347   4.424 -1.7994 -0.4454 -1.5590
  359MOL0     H48418   9.175  10.297   4.603  0.9586  3.1220 -0.9085
  359MOL0     H48419   9.251  10.085   4.536 -2.1392  0.4080  0.2720
  359MOL0     H48420   9.230  10.118   4.371 -1.5498 -1.5410  2.4184
  359MOL0     H48421   9.477  10.157   4.486 -0.7721  1.3462  1.4944
  359MOL0     H48422   9.399  10.306   4.531  0.5966  1.9373 -1.2613
  359MOL0     H48423   9.392  10.370   4.285  1.0310  1.0081  0.9508
  359MOL0     H48424   9.437  10.200   4.235  3.6040 -2.1157  0.8212
  359MOL0     H48425   9.835  10.291   4.290 -5.0814 -1.9119  1.4466
  359MOL0     H48426   9.986  10.392   4.100 -0.3706 -4.0733  1.9317
  359MOL0     H48427   9.919  10.475   3.564  0.2419  0.8387 -1.2947
  359MOL0     H48428  10.084  10.570   3.401  3.2002  0.8671  1.7764
  359MOL0     H48429  10.185  11.010   3.415  0.4559  0.2673  2.5716
  359MOL0     H48430  10.306  10.937   3.512  0.6158 -1.4599 -0.4927
  359MOL0     H48431  10.379  10.835   3.269  4.0535  1.0319  1.1286
  359MOL0     H48432  10.270  10.976   3.228  0.6722  3.0795  1.0374
  359MOL0     H48433  10.401  11.137   3.333  3.1593  0.9672  2.0472
  359MOL0     H48434  10.510  11.024   3.405 -1.3376  0.2936  1.1035
  359MOL0     H48435  10.582  11.162   3.186  0.7216 -1.4707 -1.3320
  359MOL0     H48436  10.488  11.056   3.089  3.2128  0.1313 -2.7445
  359MOL0     H48437  10.607  10.861   3.200  1.7092 -0.5342  0.3534
  359MOL0     H48438  10.725  10.977   3.267  0.0457 -1.7048  1.1313
  359MOL0     H48439  10.811  10.884   3.059  2.2327  1.4417  1.3021
  359MOL0     H48440  10.662  10.932   2.968  0.7422  0.4476  0.1588
  359MOL0     H48441  10.859  11.121   3.092  2.7330  2.0772 -2.1941
  359MOL0     H48442  10.720  11.169   2.991 -0.0792 -0.8513 -1.9290
  359MOL0     H48443  10.836  11.051   2.805  2.2610 -2.6006 -0.7389
  359MOL0     H48444  10.910  11.197   2.883  2.1517  0.1730  2.3493
  359MOL0     H48445  10.121  10.928   3.630  1.9456 -1.3153 -0.9587
  359MOL0     H48446   9.918  10.810   3.796 -0.8898  2.0447 -1.0382
  359MOL0     H48447   9.614  10.534   3.918  1.1260 -2.6005 -1.8978
  359MOL0     H48448   9.484  10.438   4.109 -1.2074  1.2310  1.4717
  359MOL0     H48449   8.628   9.895   4.167 -2.1681  1.4273 -2.3744
  359MOL0     H48450   8.780  10.009   4.023  0.6810 -0.8138 -0.1972
  359MOL0     H48451   9.036  10.150   3.722 -0.2765 -1.8993  0.8352
  359MOL0     H48452   9.203  10.267   3.610 -2.3862 -0.9235  2.8178
  359MOL0     H48453   9.482  10.294   3.324  0.6607  0.7492  0.8796
  359MOL0     H48454   9.456  10.253   3.492  1.6541  0.9555 -0.9195
  359MOL0     H48455   9.256  10.433   3.461  0.4497  2.3449 -0.4770
  359MOL0     H48456   9.351  10.485   3.328 -3.0691  0.4855  0.6383
  359MOL0     H48457   9.460  10.438   3.616  2.3938  1.6798  0.1178
  359MOL0     H48458   9.396  10.588   3.559 -0.4806 -0.4052 -1.5230
  359MOL0     H48459   9.659  10.545   3.552  1.3792  0.4122 -0.2607
  359MOL0     H48460   9.629  10.433   3.430 -1.4509  1.8241 -2.3419
  359MOL0     H48461   9.619  10.813   3.229 -0.0624  1.3997 -0.4032
  359MOL0     H48462   9.232   9.941   3.334 -0.3139 -2.1041  0.0758
  359MOL0     H48463   9.016   9.744   3.404 -0.6922 -1.2497  0.5763
  359MOL0     H48464   9.188   9.724   3.435  0.8758  3.2013 -1.0789
  359MOL0     H48465   9.065   9.716   3.565  0.9498 -1.4844 -1.1457
  360MOL0     O48466   5.025   3.572   5.060  0.0891  0.2742  0.1274
  360MOL0     C48467   4.921   3.507   5.044 -0.2897  0.7764  0.0968
  360MOL0     O48468   4.904   3.390   4.976  0.6535  0.2817  0.4497
  360MOL0     C48469   5.002   3.342   4.898 -0.0446 -0.2989 -0.0326
  360MOL0     C48470   4.999   3.371   4.757 -0.3041 -0.0355  0.3660
  360MOL0     C48471   5.105   3.320   4.681 -0.2343  0.8250 -0.4346
  360MOL0     C48472   5.212   3.241   4.738 -0.0731 -0.7656  0.4391
  360MOL0     O48473   5.306   3.197   4.654 -0.3328 -0.0290  0.1244
  360MOL0     C48474   5.443   3.182   4.700 -0.2456 -1.0812 -0.6480
  360MOL0     C48475   5.490   3.034   4.707  0.1938 -0.1655 -0.1491
  360MOL0     C48476   5.639   2.994   4.733  0.6129  0.4947 -0.0771
  360MOL0     C48477   5.702   2.893   4.632 -0.5689 -0.2451  0.2325
  360MOL0     C48478   5.651   2.749   4.639 -0.4625  0.1316 -0.5757
  360MOL0     C48479   5.725   2.648   4.554 -0.0877  0.1370 -0.7606
  360MOL0     C48480   5.767   2.704   4.419  0.0611  0.2893 -0.3021
  360MOL0     C48481   5.817   2.589   4.334  0.1585  0.1666  0.0287
  360MOL0     N48482   5.897   2.479   4.396  0.3083 -0.0322 -0.2855
  360MOL0     C48483   6.031   2.467   4.382  1.2096  0.0264 -0.4662
  360MOL0     C48484   6.053   2.361   4.457 -0.6270 -0.2634 -0.6751
  360MOL0     C48485   6.196   2.307   4.454  0.2322 -0.6712  0.0563
  360MOL0     C48486   6.250   2.270   4.311  0.1794  0.1751 -0.2057
  360MOL0     C48487   6.180   2.148   4.244  0.3712  0.4376 -0.3255
  360MOL0     C48488   6.041   2.186   4.185  0.3974  0.4097 -0.3805
  360MOL0     O48489   6.041   2.286   4.089  0.5216 -0.3400 -0.0244
  360MOL0     C48490   5.925   2.295   4.014  0.9737 -0.1245 -0.6084
  360MOL0     C48491   5.930   2.375   3.903 -0.3873  0.7620 -0.1292
  360MOL0     C48492   5.827   2.385   3.806 -0.1281  0.2963  0.4435
  360MOL0     C48493   5.700   2.324   3.825  0.6694  0.2878  0.1034
  360MOL0     C48494   5.586   2.364   3.747  0.7633 -0.9213 -0.1015
  360MOL0     O48495   5.474   2.329   3.804  0.9578  0.0511  0.4199
  360MOL0     C48496   5.371   2.419   3.787  0.8292 -0.8630  0.4818
  360MOL0     C48497   5.287   2.430   3.670 -0.5019 -0.2973  0.0007
  360MOL0     C48498   5.185   2.524   3.660  0.5563 -0.1422  0.2470
  360MOL0     C48499   5.156   2.616   3.770 -0.1504  0.4733  0.6967
  360MOL0     O48500   5.049   2.706   3.764 -0.1225  0.2039 -0.3046
  360MOL0     C48501   5.026   2.759   3.636 -0.8381 -0.0385 -0.3070
  360MOL0     C48502   4.960   2.898   3.634 -0.2474 -0.1569 -0.1214
  360MOL0     C48503   4.810   2.895   3.646 -0.0817 -1.2355 -0.4748
  360MOL0     C48504   4.758   3.006   3.750  0.7232 -0.2189  0.2133
  360MOL0     C48505   4.607   3.034   3.739 -0.2471  0.1507  0.1104
  360MOL0     C48506   4.509   2.917   3.755  0.6667  0.3962 -0.3299
  360MOL0     C48507   4.363   2.957   3.762 -0.3168  0.1891 -0.2836
  360MOL0     C48508   4.319   3.015   3.626  0.3060 -1.1990 -1.1429
  360MOL0    Cl48509   4.136   3.014   3.625  0.4513  0.0032 -0.0994
  360MOL0     C48510   5.244   2.612   3.885  0.8091  1.1233  0.5258
  360MOL0     C48511   5.343   2.511   3.889 -0.4603 -0.6441 -0.0013
  360MOL0     O48512   5.601   2.428   3.640  0.8927 -0.3526  0.0502
  360MOL0     C48513   5.702   2.233   3.924  1.1455  0.0439  0.0643
  360MOL0     C48514   5.803   2.222   4.018 -0.0550  0.1340 -0.1491
  360MOL0     N48515   5.940   2.307   4.513  0.0051  0.0622 -0.3089
  360MOL0     N48516   5.845   2.373   4.459  0.8971 -0.2604 -0.4118
  360MOL0     C48517   5.218   3.224   4.871  0.4979  0.4788 -0.4206
  360MOL0     C48518   5.114   3.278   4.950  0.4262  0.0108 -0.1466
  360MOL0     C48519   4.796   3.549   5.117  0.3045  0.1670 -0.2151
  360MOL0     C48520   4.795   3.557   5.251  0.1956  1.1370  0.3311
  360MOL0     C48521   4.683   3.610   5.331 -0.5984  0.6555 -0.7222
  360MOL0     C48522   4.574   3.657   5.251  0.5753  0.0588 -0.4356
  360MOL0     O48523   4.476   3.742   5.303  0.0635 -0.6321  0.6688
  360MOL0     C48524   4.446   3.729   5.444  1.0305  0.1778  0.0089
  360MOL0     C48525   4.521   3.832   5.526  1.1976 -0.0742 -0.3679
  360MOL0     C48526   4.467   3.847   5.671  0.6939 -0.6735 -0.2955
  360MOL0     C48527   4.550   3.774   5.775  0.2318  0.1682  0.4018
  360MOL0     C48528   4.552   3.632   5.771 -0.2873  0.1799 -0.1128
  360MOL0     C48529   4.546   3.514   5.770 -0.2945  1.0052  0.8218
  360MOL0     C48530   4.577   3.645   5.115  0.4497 -0.5617  0.1048
  360MOL0     C48531   4.694   3.611   5.047 -0.0345 -0.1390  0.1769
  360MOL0     C48532   4.703   3.628   4.894  0.4585  0.0344  0.4902
  360MOL0     H48533   4.921   3.433   4.713  0.7006  0.9640 -0.0428
  360MOL0     H48534   5.109   3.328   4.573 -1.3755  1.1097 -0.4681
  360MOL0     H48535   5.506   3.245   4.635  0.9762  0.3850  1.7774
  360MOL0     H48536   5.465   3.239   4.792  3.2776  1.5138 -2.8194
  360MOL0     H48537   5.468   2.977   4.616 -0.2388  2.5111 -1.8523
  360MOL0     H48538   5.433   2.998   4.793  0.6810  0.5368  0.4745
  360MOL0     H48539   5.649   2.945   4.831  0.6392 -2.7444 -1.5766
  360MOL0     H48540   5.689   3.091   4.732 -1.1414  1.4508 -1.4118
  360MOL0     H48541   5.686   2.930   4.530  2.6193 -0.9958 -0.6584
  360MOL0     H48542   5.811   2.897   4.641 -0.7075  0.1928  2.2215
  360MOL0     H48543   5.662   2.718   4.743  0.5913  0.5569 -0.5485
  360MOL0     H48544   5.547   2.742   4.608 -0.1746 -0.6116 -1.4060
  360MOL0     H48545   5.815   2.628   4.614 -1.1991 -1.8721  0.3301
  360MOL0     H48546   5.658   2.562   4.547 -1.0713  0.8864 -0.7436
  360MOL0     H48547   5.853   2.768   4.441  1.0033 -1.6014  1.8924
  360MOL0     H48548   5.689   2.761   4.367 -1.0745  0.1685  1.2056
  360MOL0     H48549   5.734   2.540   4.281  0.2273  0.0727  0.0081
  360MOL0     H48550   5.877   2.634   4.254  0.1218 -0.2459 -0.2371
  360MOL0     H48551   6.094   2.529   4.319  0.2239  3.1726  1.4003
  360MOL0     H48552   6.270   2.371   4.503  1.1089 -0.7596 -1.1256
  360MOL0     H48553   6.201   2.213   4.509 -1.2516 -0.2804  0.9210
  360MOL0     H48554   6.234   2.356   4.246 -0.0489 -0.4885 -1.0520
  360MOL0     H48555   6.357   2.250   4.304 -0.1408 -1.3758 -1.2261
  360MOL0     H48556   6.179   2.061   4.311 -0.9445 -0.3429 -1.3063
  360MOL0     H48557   6.244   2.117   4.161 -1.3985 -2.1420 -0.8453
  360MOL0     H48558   5.977   2.198   4.273  2.8396  0.4179  1.4968
  360MOL0     H48559   6.006   2.087   4.154 -1.0529  1.2245 -1.4670
  360MOL0     H48560   6.021   2.429   3.879  0.3085 -0.3304 -0.0036
  360MOL0     H48561   5.830   2.451   3.719 -1.0167  1.6458  1.3900
  360MOL0     H48562   5.321   2.370   3.586  3.5741  0.8974  0.6121
  360MOL0     H48563   5.117   2.539   3.576 -1.3904 -0.1391  1.7540
  360MOL0     H48564   5.127   2.768   3.594  0.7252 -1.0413  2.8736
  360MOL0     H48565   4.964   2.685   3.586  0.4457 -0.6546 -1.0420
  360MOL0     H48566   5.015   2.957   3.707  2.2194 -1.6622 -0.6544
  360MOL0     H48567   4.975   2.933   3.532  0.0193 -1.8799 -0.7170
  360MOL0     H48568   4.766   2.926   3.551  0.2648 -2.8258 -1.1990
  360MOL0     H48569   4.774   2.799   3.685 -1.0000 -1.1406 -1.0674
  360MOL0     H48570   4.819   3.096   3.738  0.7492 -0.1060  1.1592
  360MOL0     H48571   4.785   2.970   3.850 -1.5833  0.3432  1.0908
  360MOL0     H48572   4.588   3.093   3.649 -0.9130  1.2248  0.9275
  360MOL0     H48573   4.579   3.107   3.816 -1.6460 -0.4669  0.2351
  360MOL0     H48574   4.515   2.839   3.679 -1.0268 -1.0671  0.9389
  360MOL0     H48575   4.535   2.862   3.846 -1.8848 -0.3606  0.0264
  360MOL0     H48576   4.345   3.031   3.840  0.1234 -0.7385  0.7208
  360MOL0     H48577   4.308   2.864   3.780  0.8416 -0.2833  0.9640
  360MOL0     H48578   4.360   3.115   3.613  2.1664 -1.6136  0.8895
  360MOL0     H48579   4.346   2.958   3.537 -0.2463 -0.4365 -1.8203
  360MOL0     H48580   5.211   2.682   3.961  0.1104  1.3054  0.0641
  360MOL0     H48581   5.406   2.495   3.976  1.0422  0.7918 -0.7733
  360MOL0     H48582   5.606   2.181   3.926  0.4356  1.3173 -0.3308
  360MOL0     H48583   5.788   2.165   4.109  3.9778 -2.0350 -0.6367
  360MOL0     H48584   5.295   3.175   4.930 -2.8088 -3.2013  1.2317
  360MOL0     H48585   5.127   3.261   5.057  2.4395 -1.5310 -0.5620
  360MOL0     H48586   4.893   3.529   5.287  1.1257  2.3563 -1.1194
  360MOL0     H48587   4.696   3.617   5.439  2.5613 -0.6862 -0.8907
  360MOL0     H48588   4.465   3.625   5.472  3.0867  0.4994 -0.0830
  360MOL0     H48589   4.336   3.733   5.443  0.9158 -0.8501 -3.3807
  360MOL0     H48590   4.521   3.929   5.474 -1.0584  0.6395  0.8002
  360MOL0     H48591   4.629   3.816   5.529  1.2566  0.3999  1.0438
  360MOL0     H48592   4.363   3.812   5.664  1.7814 -3.9456 -2.4303
  360MOL0     H48593   4.459   3.952   5.699  0.7132 -1.2538  2.1506
  360MOL0     H48594   4.655   3.801   5.769  0.7584 -1.6655  0.6907
  360MOL0     H48595   4.505   3.792   5.873 -0.0706 -0.9135  0.4745
  360MOL0     H48596   4.514   3.412   5.777 -2.3408  1.4935 -0.5006
  360MOL0     H48597   4.483   3.671   5.066 -0.7132  1.5547  3.1372
  360MOL0     H48598   4.779   3.700   4.862  2.0677 -1.7120  0.2696
  360MOL0     H48599   4.726   3.535   4.843 -0.5872  0.3553 -0.6294
  360MOL0     H48600   4.601   3.649   4.859  1.6147 -2.0242 -5.2162
  361MOL0     O48601   1.823   0.572   6.001 -0.2662  0.6629  0.6707
  361MOL0     C48602   1.781   0.473   5.938  0.4280  0.1997  0.9229
  361MOL0     O48603   1.860   0.392   5.858  1.2372 -0.7663  0.3418
  361MOL0     C48604   1.989   0.418   5.850 -1.1035 -0.7333 -1.5538
  361MOL0     C48605   2.075   0.305   5.871  0.4132 -0.4259 -0.0710
  361MOL0     C48606   2.207   0.327   5.867  0.0940 -0.1235 -0.0717
  361MOL0     C48607   2.265   0.452   5.840 -0.1383  0.6571  0.2765
  361MOL0     O48608   2.395   0.457   5.849 -0.0647 -0.3290  0.7037
  361MOL0     C48609   2.452   0.566   5.919  0.3683  1.2376 -0.6429
  361MOL0     C48610   2.599   0.527   5.947 -0.1881  0.4154  0.2054
  361MOL0     C48611   2.620   0.394   6.017 -0.2719 -0.4572 -1.0835
  361MOL0     C48612   2.770   0.374   6.046 -0.9678  0.6688 -0.2583
  361MOL0     C48613   2.799   0.268   6.163  0.5283  0.6749 -0.5213
  361MOL0     C48614   2.942   0.262   6.207 -0.8314  0.6204  0.1172
  361MOL0     C48615   2.964   0.154   6.310  0.6511  0.6700 -0.5030
  361MOL0     C48616   3.004   0.016   6.247 -0.3539 -0.2788  0.2502
  361MOL0     N48617   2.991  -0.078   6.356 -0.2340  0.6839  0.4734
  361MOL0     C48618   3.086  -0.094   6.452 -0.1531 -0.5583 -0.0028
  361MOL0     C48619   3.032  -0.196   6.527  0.5456 -0.5334  0.5504
  361MOL0     C48620   3.104  -0.258   6.639 -0.6993 -0.3935 -0.9231
  361MOL0     C48621   3.110  -0.172   6.770  0.1223 -0.1469 -0.3746
  361MOL0     C48622   2.990  -0.191   6.863  0.1368 -0.0371 -0.2596
  361MOL0     C48623   2.854  -0.145   6.808  0.8545 -0.2716 -0.5001
  361MOL0     O48624   2.854  -0.026   6.730  1.3176  0.4466  0.9155
  361MOL0     C48625   2.894   0.090   6.778  1.0184 -0.0420  0.2991
  361MOL0     C48626   2.955   0.172   6.685 -0.4673 -0.1413 -0.5113
  361MOL0     C48627   3.002   0.301   6.736  0.4819  0.0306  0.4783
  361MOL0     C48628   2.958   0.354   6.857 -0.0789 -1.0030  0.0963
  361MOL0     C48629   2.983   0.498   6.901 -0.5155  0.6051  0.4962
  361MOL0     O48630   2.940   0.541   7.022  0.1169 -1.1044  0.1851
  361MOL0     C48631   2.962   0.678   7.043  0.2802 -0.0611 -0.6186
  361MOL0     C48632   3.086   0.749   7.041  0.2623 -0.2536 -0.0865
  361MOL0     C48633   3.089   0.888   7.041 -0.3246  0.2381  0.6429
  361MOL0     C48634   2.966   0.959   7.053 -0.6942  0.1855 -0.2445
  361MOL0     O48635   2.960   1.095   7.030  0.1762  0.1195 -0.1482
  361MOL0     C48636   3.062   1.159   6.947  0.5631  0.5034 -0.4758
  361MOL0     C48637   3.075   1.113   6.799 -0.2438 -0.7116  0.8087
  361MOL0     C48638   3.136   1.231   6.724  0.0103 -0.2626 -0.3080
  361MOL0     C48639   3.196   1.188   6.585  0.4272 -0.1473 -0.6340
  361MOL0     C48640   3.310   1.275   6.536 -0.4466 -0.5579 -0.4920
  361MOL0     C48641   3.283   1.420   6.528 -0.2988 -0.1195  0.1519
  361MOL0     C48642   3.392   1.500   6.454  0.1168  0.1911  1.1401
  361MOL0     C48643   3.390   1.652   6.472 -0.5406  0.3025 -0.2210
  361MOL0    Cl48644   3.542   1.705   6.376  0.1381 -0.0186  0.3841
  361MOL0     C48645   2.849   0.889   7.081 -0.2130 -0.8242  0.0308
  361MOL0     C48646   2.841   0.744   7.069 -0.3572 -0.3548  0.3881
  361MOL0     O48647   3.022   0.573   6.815  0.4218 -0.1329 -0.6422
  361MOL0     C48648   2.879   0.272   6.943 -0.0996  0.2005  0.0679
  361MOL0     C48649   2.853   0.136   6.907  0.9885  0.0303  0.3870
  361MOL0     N48650   2.896  -0.214   6.498  0.7516  0.5350  0.5808
  361MOL0     N48651   2.875  -0.145   6.390  0.3315  0.2559 -0.2630
  361MOL0     C48652   2.179   0.558   5.815  0.3949  0.3250 -0.5141
  361MOL0     C48653   2.045   0.536   5.825  0.4058 -0.0130 -0.1980
  361MOL0     C48654   1.630   0.437   5.922 -0.7496 -0.1028 -0.7537
  361MOL0     C48655   1.592   0.341   5.830  0.3086  0.6635  0.2502
  361MOL0     C48656   1.457   0.318   5.817 -0.0959 -0.8607 -0.3772
  361MOL0     C48657   1.359   0.383   5.886  0.4381 -0.9384  0.0785
  361MOL0     O48658   1.231   0.337   5.876  0.0776 -0.2728 -0.1484
  361MOL0     C48659   1.122   0.423   5.928 -0.2400 -0.8650  0.9411
  361MOL0     C48660   0.981   0.377   5.881  0.0328  0.5850 -0.3415
  361MOL0     C48661   0.965   0.363   5.732  0.0884 -0.2658  0.4494
  361MOL0     C48662   0.860   0.261   5.690  0.2916  0.2280 -0.6712
  361MOL0     C48663   0.721   0.275   5.749 -0.9255  0.4454  0.1744
  361MOL0     C48664   0.612   0.305   5.790  0.6938  0.3946 -0.1766
  361MOL0     C48665   1.400   0.478   5.981  0.2267 -0.4543  0.2701
  361MOL0     C48666   1.534   0.499   6.001  0.2561 -0.7243  0.0217
  361MOL0     C48667   1.562   0.590   6.111 -0.3495 -0.0287  0.2841
  361MOL0     H48668   2.035   0.204   5.881 -0.6044  0.0030  0.4014
  361MOL0     H48669   2.270   0.241   5.887 -0.2969 -1.6043 -4.2066
  361MOL0     H48670   2.435   0.658   5.863 -3.0556  0.3619 -1.2445
  361MOL0     H48671   2.411   0.571   6.020 -1.2956 -0.6680 -1.1547
  361MOL0     H48672   2.658   0.607   5.991  1.5613 -0.4734 -0.4321
  361MOL0     H48673   2.643   0.519   5.848  0.2330 -1.5481  0.5024
  361MOL0     H48674   2.582   0.310   5.958 -2.7719  1.1024 -1.8168
  361MOL0     H48675   2.563   0.406   6.110  0.3836  0.0277 -0.7341
  361MOL0     H48676   2.812   0.340   5.951 -0.5031 -1.5265  0.6535
  361MOL0     H48677   2.827   0.464   6.067  0.6088 -0.6017  1.2229
  361MOL0     H48678   2.749   0.300   6.254  2.8060  0.8384  0.7294
  361MOL0     H48679   2.772   0.163   6.145  1.0347  0.6307 -1.0781
  361MOL0     H48680   2.997   0.228   6.119 -0.5416 -2.2343  1.2957
  361MOL0     H48681   2.981   0.354   6.251  0.5404 -1.6075  4.0139
  361MOL0     H48682   2.870   0.132   6.364  0.2478 -2.5624 -2.2291
  361MOL0     H48683   3.043   0.185   6.379  0.6947 -2.9616  1.3416
  361MOL0     H48684   2.943   0.002   6.157  0.7692 -0.6241 -0.4776
  361MOL0     H48685   3.109   0.014   6.216 -0.8815  0.6155 -1.6892
  361MOL0     H48686   3.181  -0.046   6.470 -1.0579  0.0558  3.8211
  361MOL0     H48687   3.044  -0.349   6.648 -2.3724  0.8191  0.9760
  361MOL0     H48688   3.211  -0.273   6.622  0.3848  2.6518  2.0500
  361MOL0     H48689   3.198  -0.213   6.820  2.2218  2.0607 -2.0267
  361MOL0     H48690   3.121  -0.067   6.744  4.2720 -0.7991 -2.1291
  361MOL0     H48691   3.010  -0.127   6.948 -2.3963  3.0608 -1.7799
  361MOL0     H48692   2.983  -0.299   6.879 -2.8581 -0.2102 -1.9412
  361MOL0     H48693   2.784  -0.135   6.891  0.5035  1.6109 -0.9747
  361MOL0     H48694   2.822  -0.226   6.742 -1.9805 -0.1031  0.5405
  361MOL0     H48695   2.984   0.133   6.588  1.0742  1.7581 -0.8960
  361MOL0     H48696   3.058   0.365   6.667  1.0073  0.7625  1.5592
  361MOL0     H48697   3.178   0.696   7.018  0.6857  0.8780 -1.1028
  361MOL0     H48698   3.189   0.927   7.025  1.9688 -5.0933 -0.4708
  361MOL0     H48699   3.029   1.263   6.942 -0.6081  0.1940  0.2993
  361MOL0     H48700   3.161   1.164   6.992  0.9906 -1.8909 -1.0267
  361MOL0     H48701   3.127   1.019   6.776 -1.2952 -0.3783 -4.3490
  361MOL0     H48702   2.979   1.111   6.746  0.6049  0.9485 -0.8924
  361MOL0     H48703   3.064   1.313   6.720  2.5733  2.0945 -1.0938
  361MOL0     H48704   3.212   1.285   6.781 -0.0665  0.6948 -1.0807
  361MOL0     H48705   3.121   1.173   6.506 -0.2828  2.7968 -0.6134
  361MOL0     H48706   3.248   1.092   6.596  2.7502  0.7819 -2.6267
  361MOL0     H48707   3.337   1.226   6.442  3.3293 -2.4281  1.3130
  361MOL0     H48708   3.406   1.277   6.589 -0.1546 -0.0648 -1.0217
  361MOL0     H48709   3.189   1.450   6.480  0.6872 -1.2312 -2.6687
  361MOL0     H48710   3.277   1.475   6.623  0.0749  1.2467 -0.5901
  361MOL0     H48711   3.384   1.470   6.349 -0.1043 -3.2731  2.0438
  361MOL0     H48712   3.494   1.466   6.475 -1.0703 -2.7070  2.8971
  361MOL0     H48713   3.308   1.702   6.420  1.9815  4.0335 -1.0237
  361MOL0     H48714   3.378   1.677   6.578  1.5537  2.3299 -0.3888
  361MOL0     H48715   2.757   0.941   7.106 -0.7442 -2.2973  1.2654
  361MOL0     H48716   2.749   0.687   7.078  0.2067 -1.1200  1.6133
  361MOL0     H48717   2.847   0.316   7.036 -2.1561  1.2114 -1.0502
  361MOL0     H48718   2.794   0.076   6.977 -0.0553  1.2761  0.6240
  361MOL0     H48719   2.221   0.658   5.815  1.8399 -0.1951  1.9478
  361MOL0     H48720   1.983   0.624   5.806  0.2612 -0.0794 -0.0458
  361MOL0     H48721   1.654   0.287   5.759 -1.4519 -1.1621  0.0137
  361MOL0     H48722   1.430   0.247   5.739 -1.7281 -0.6821 -0.0110
  361MOL0     H48723   1.128   0.525   5.890 -3.2695 -1.4680 -1.6027
  361MOL0     H48724   1.128   0.433   6.037  0.6130 -0.7144  0.8864
  361MOL0     H48725   0.914   0.453   5.921 -1.5741 -0.4556 -0.9767
  361MOL0     H48726   0.962   0.285   5.936 -0.5642  0.7113 -0.3327
  361MOL0     H48727   1.061   0.322   5.698  0.4352 -0.0487  1.1430
  361MOL0     H48728   0.937   0.458   5.685  2.2698  0.2951  0.1541
  361MOL0     H48729   0.843   0.269   5.582  0.1176  1.5049 -0.5656
  361MOL0     H48730   0.891   0.159   5.714 -0.3069  0.2860  0.4206
  361MOL0     H48731   0.519   0.324   5.840  1.5650 -1.3463  2.3331
  361MOL0     H48732   1.327   0.524   6.046  1.2815  0.9373  0.5143
  361MOL0     H48733   1.611   0.678   6.066  1.6186 -1.8437 -1.3953
  361MOL0     H48734   1.476   0.626   6.167 -0.0692  3.5336 -1.2920
  361MOL0     H48735   1.628   0.536   6.179  1.0908  1.6397  0.2918
  362MOL0     O48736  10.612   9.940  10.828  0.0421 -0.4109 -0.2548
  362MOL0     C48737  10.622   9.821  10.831  0.2981  0.3719 -0.6093
  362MOL0     O48738  10.580   9.732  10.735  1.0881 -0.3212  0.6976
  362MOL0     C48739  10.494   9.764  10.636 -0.2794 -0.7606  0.3013
  362MOL0     C48740  10.416   9.884  10.632  0.3721 -0.5562 -0.9691
  362MOL0     C48741  10.334   9.909  10.517 -0.0773  0.0254  0.4075
  362MOL0     C48742  10.324   9.822  10.409  0.4181  0.2890 -0.4207
  362MOL0     O48743  10.253   9.869  10.303 -1.2865 -0.3271  0.4399
  362MOL0     C48744  10.298   9.831  10.172 -0.6865  0.1252 -0.2780
  362MOL0     C48745  10.230   9.709  10.143  0.0358  0.2575  0.3904
  362MOL0     C48746  10.077   9.732  10.132  0.4006 -0.3839  1.0646
  362MOL0     C48747  10.008   9.599  10.118  0.5122  0.0959 -0.1802
  362MOL0     C48748   9.867   9.581  10.173 -0.0900 -0.7394 -0.5960
  362MOL0     C48749   9.787   9.693  10.109  0.1405  0.8312 -0.1119
  362MOL0     C48750   9.640   9.693  10.141  0.4409  0.5030  0.6820
  362MOL0     C48751   9.565   9.587  10.065 -0.7779 -0.0336  0.3132
  362MOL0     N48752   9.421   9.597  10.101 -0.5938 -0.2435  0.6238
  362MOL0     C48753   9.366   9.597  10.225  0.4659 -0.5510 -0.4556
  362MOL0     C48754   9.238   9.657  10.208 -0.2454 -0.0530 -0.2075
  362MOL0     C48755   9.139   9.697  10.313  0.8720  0.5316 -0.8673
  362MOL0     C48756   9.053   9.584  10.367 -0.5689  0.3355  1.2329
  362MOL0     C48757   8.971   9.528  10.253 -0.1524 -0.2865  0.0277
  362MOL0     C48758   8.877   9.428  10.303  0.3575 -0.2641  0.2237
  362MOL0     O48759   8.941   9.334  10.386  0.1525  0.0414 -0.4930
  362MOL0     C48760   8.961   9.200  10.354 -0.5522  0.5344  0.0291
  362MOL0     C48761   9.014   9.125  10.457  0.1075 -0.1409 -0.6911
  362MOL0     C48762   9.029   8.986  10.446  0.8028 -0.0154  0.4995
  362MOL0     C48763   8.992   8.918  10.329  0.6942  0.7782  0.1668
  362MOL0     C48764   9.021   8.769  10.319  0.4047  0.1420 -0.3767
  362MOL0     O48765   8.963   8.706  10.219 -0.3930 -0.7353 -0.1171
  362MOL0     C48766   8.976   8.575  10.188 -0.3487  0.4122  0.3190
  362MOL0     C48767   9.092   8.505  10.165 -0.8573  0.4607 -0.0876
  362MOL0     C48768   9.102   8.365  10.173 -0.4248 -0.0508 -0.3938
  362MOL0     C48769   8.987   8.291  10.200 -0.1455  0.4026 -0.1978
  362MOL0     O48770   8.983   8.150  10.209  1.0617  0.3871  0.3013
  362MOL0     C48771   9.101   8.069  10.229  0.2851  0.0866  0.1154
  362MOL0     C48772   9.080   7.921  10.236 -0.1711  0.3829 -0.3496
  362MOL0     C48773   9.026   7.869  10.371  0.9578  0.3893 -0.2818
  362MOL0     C48774   9.137   7.835  10.481 -0.9843  0.2756  0.4726
  362MOL0     C48775   9.095   7.824  10.625  0.2235  0.3229 -0.1667
  362MOL0     C48776   9.048   7.677  10.656 -0.6737 -0.1962  0.1713
  362MOL0     C48777   9.012   7.649  10.801 -0.5713 -0.4487  0.3064
  362MOL0     C48778   8.933   7.515  10.801 -0.6456  1.3333  0.5658
  362MOL0    Cl48779   8.923   7.428  10.967 -0.6179  0.2529  0.1719
  362MOL0     C48780   8.865   8.353  10.224  0.6942  0.2189 -0.6634
  362MOL0     C48781   8.862   8.489  10.223 -0.5353 -0.3465 -0.4308
  362MOL0     O48782   9.102   8.717  10.402  0.0768  0.1639 -0.2903
  362MOL0     C48783   8.934   8.989  10.215 -0.2785 -0.4348  0.0908
  362MOL0     C48784   8.925   9.130  10.232  0.4853  0.0271  0.4734
  362MOL0     N48785   9.219   9.674  10.075  0.3819 -0.5057  0.1025
  362MOL0     N48786   9.324   9.640  10.011 -0.2175  0.2285 -0.9532
  362MOL0     C48787  10.409   9.710  10.412  0.1991  0.2307 -0.3670
  362MOL0     C48788  10.487   9.678  10.524 -0.1071 -0.4745  0.2843
  362MOL0     C48789  10.720   9.766  10.927 -0.8073  0.0483  0.7049
  362MOL0     C48790  10.712   9.814  11.062 -0.4679  0.2914 -0.0315
  362MOL0     C48791  10.800   9.769  11.158 -0.6882 -0.4562 -0.2764
  362MOL0     C48792  10.890   9.667  11.122  0.4490  0.0695 -0.6140
  362MOL0     O48793  10.978   9.628  11.218  0.0657  0.5438  0.3877
  362MOL0     C48794  11.089   9.533  11.196  0.3516  0.0581 -0.4301
  362MOL0     C48795  11.192   9.601  11.117  0.0951  0.1042 -0.1547
  362MOL0     C48796  11.333   9.533  11.117  0.9184  0.4626 -0.3614
  362MOL0     C48797  11.329   9.389  11.082 -0.4100 -0.0650  0.1378
  362MOL0     C48798  11.274   9.379  10.942  0.0560  0.4170 -0.0060
  362MOL0     C48799  11.248   9.366  10.823 -0.6083 -0.8805  0.1753
  362MOL0     C48800  10.892   9.617  10.997  0.1263  1.3056  0.2624
  362MOL0     C48801  10.813   9.660  10.892 -0.0308  0.0273 -0.0710
  362MOL0     C48802  10.842   9.618  10.749 -0.2436 -0.6446 -0.9222
  362MOL0     H48803  10.398   9.960  10.708  0.8471 -1.3654 -0.0098
  362MOL0     H48804  10.270   9.994  10.496 -0.8509 -0.4175  0.9310
  362MOL0     H48805  10.277   9.918  10.109  1.5146  1.6732  0.9675
  362MOL0     H48806  10.407   9.817  10.167 -0.4970 -0.4180  3.0052
  362MOL0     H48807  10.258   9.633  10.216 -0.7510  1.8150  2.3977
  362MOL0     H48808  10.248   9.667  10.043 -1.1409 -0.3490  0.4168
  362MOL0     H48809  10.049   9.801  10.052 -0.0230  0.1145  1.6372
  362MOL0     H48810  10.040   9.789  10.217 -1.2993 -1.3317  1.0177
  362MOL0     H48811  10.003   9.568  10.013 -0.9817 -0.9399  0.1734
  362MOL0     H48812  10.069   9.523  10.168 -0.5698  0.6332  2.0990
  362MOL0     H48813   9.831   9.481  10.145  2.6922 -2.3134  0.9975
  362MOL0     H48814   9.862   9.596  10.281  2.0120 -1.3571 -0.3787
  362MOL0     H48815   9.818   9.794  10.137 -0.9782  0.8246  1.2683
  362MOL0     H48816   9.806   9.684  10.001 -1.1033 -1.9583 -0.1965
  362MOL0     H48817   9.592   9.786  10.108  0.2533  0.1177 -0.1563
  362MOL0     H48818   9.630   9.686  10.250  1.5304  1.2156  0.8412
  362MOL0     H48819   9.590   9.601   9.960  1.1015  0.0758  0.7546
  362MOL0     H48820   9.612   9.496  10.102  0.4258  0.9956  1.3942
  362MOL0     H48821   9.421   9.568  10.314  2.7864 -0.2751 -1.7001
  362MOL0     H48822   9.202   9.746  10.387  2.0705  1.0858 -2.2118
  362MOL0     H48823   9.062   9.764  10.273 -1.4487 -0.4940  1.5822
  362MOL0     H48824   9.122   9.507  10.403 -3.3964 -4.5495 -2.6001
  362MOL0     H48825   8.991   9.619  10.449 -0.2282 -2.9632  3.0686
  362MOL0     H48826   9.035   9.503  10.167  1.1403  0.9947  0.5778
  362MOL0     H48827   8.898   9.601  10.219  1.0686  1.7499  1.5782
  362MOL0     H48828   8.823   9.383  10.219  1.3163  1.9146 -1.6564
  362MOL0     H48829   8.795   9.475  10.360 -0.3622 -2.4124  1.0723
  362MOL0     H48830   9.051   9.163  10.551  1.1580 -0.6403 -0.8922
  362MOL0     H48831   9.079   8.932  10.526 -0.7998  2.5381  3.4465
  362MOL0     H48832   9.186   8.557  10.155  0.1146 -1.2586 -0.1326
  362MOL0     H48833   9.198   8.315  10.163 -0.9234 -1.9738  2.8686
  362MOL0     H48834   9.150   8.093  10.134 -1.8832  0.7937 -0.8896
  362MOL0     H48835   9.164   8.109  10.309  0.9468  1.1410 -0.8867
  362MOL0     H48836   9.008   7.895  10.157 -1.3109 -1.1956  1.1221
  362MOL0     H48837   9.171   7.865  10.214  0.2206 -0.3917  2.7892
  362MOL0     H48838   8.948   7.935  10.409  2.6076  1.6116  1.1384
  362MOL0     H48839   8.974   7.777  10.340  2.2491  0.5049 -3.1899
  362MOL0     H48840   9.207   7.919  10.492 -0.4015  0.1931 -1.9822
  362MOL0     H48841   9.184   7.740  10.455  0.5760  0.3692  2.7175
  362MOL0     H48842   9.004   7.881  10.647 -0.4575 -1.7123  3.0656
  362MOL0     H48843   9.174   7.852  10.696 -0.9917 -0.2523  1.4864
  362MOL0     H48844   8.959   7.646  10.601 -0.0324  0.1903 -1.1231
  362MOL0     H48845   9.121   7.601  10.626 -2.4271 -0.4364 -4.2883
  362MOL0     H48846   8.945   7.730  10.830  1.4081  0.7520  1.7808
  362MOL0     H48847   9.102   7.651  10.863 -2.1833  1.4665  2.8025
  362MOL0     H48848   8.826   7.534  10.794 -1.1979 -0.7784  2.1837
  362MOL0     H48849   8.969   7.441  10.729 -0.8765 -0.4746  2.2077
  362MOL0     H48850   8.779   8.293  10.253 -0.4107  2.4865  1.1591
  362MOL0     H48851   8.771   8.539  10.256  0.2227  0.1563  0.9677
  362MOL0     H48852   8.906   8.938  10.123 -3.5151 -1.9503  1.7410
  362MOL0     H48853   8.887   9.184  10.146 -3.5262 -0.0250  1.9601
  362MOL0     H48854  10.419   9.646  10.324 -0.7932  1.0474 -1.1004
  362MOL0     H48855  10.544   9.586  10.528 -2.5318 -2.2506 -1.9318
  362MOL0     H48856  10.642   9.891  11.094  1.3481  1.5844  1.0075
  362MOL0     H48857  10.792   9.813  11.257 -3.7693 -1.3943 -0.0174
  362MOL0     H48858  11.048   9.445  11.146 -0.0523  0.0377 -0.0758
  362MOL0     H48859  11.131   9.509  11.294 -0.1092 -0.6059 -0.3862
  362MOL0     H48860  11.217   9.702  11.151  2.7880 -0.7817  0.7555
  362MOL0     H48861  11.158   9.613  11.013  0.3958 -0.2749 -0.2996
  362MOL0     H48862  11.368   9.545  11.219 -1.1910  1.6309  0.2744
  362MOL0     H48863  11.390   9.583  11.038 -1.0873  1.3540 -1.3164
  362MOL0     H48864  11.431   9.347  11.082 -1.4074 -2.9663 -3.0074
  362MOL0     H48865  11.273   9.331  11.156  2.1198 -0.5121  1.8608
  362MOL0     H48866  11.244   9.352  10.717 -1.8198  0.2971  0.0459
  362MOL0     H48867  10.947   9.525  10.978 -4.5264 -1.8256  0.2256
  362MOL0     H48868  10.944   9.578  10.745  0.4976  1.2203 -2.7264
  362MOL0     H48869  10.763   9.545  10.727  0.9976 -2.2225 -0.3055
  362MOL0     H48870  10.829   9.700  10.678 -0.8240 -0.0696 -0.1535
  363MOL0     O48871   0.767   3.666   1.558  0.4834  0.9981  0.1262
  363MOL0     C48872   0.672   3.715   1.496  0.0575  0.6161 -1.1727
  363MOL0     O48873   0.594   3.648   1.405 -0.3522  0.7601  0.3857
  363MOL0     C48874   0.616   3.515   1.392 -0.6208  0.1491  0.0091
  363MOL0     C48875   0.687   3.468   1.279  0.6966  0.7370  0.8332
  363MOL0     C48876   0.677   3.330   1.247  0.0089 -0.0485  0.1767
  363MOL0     C48877   0.612   3.239   1.335  0.0270  0.6363 -1.1116
  363MOL0     O48878   0.622   3.112   1.293 -0.2703  0.0841  0.4316
  363MOL0     C48879   0.543   3.017   1.369 -0.3881 -0.7719 -0.0256
  363MOL0     C48880   0.576   2.877   1.302 -0.5853  0.3376  0.6998
  363MOL0     C48881   0.521   2.854   1.157 -1.3484  0.6894  1.0265
  363MOL0     C48882   0.602   2.750   1.077  0.8405 -0.6933 -0.0969
  363MOL0     C48883   0.557   2.748   0.926 -0.0152  0.3379 -0.5260
  363MOL0     C48884   0.424   2.693   0.902  0.4524 -0.7194 -0.8935
  363MOL0     C48885   0.372   2.703   0.759  0.1583 -0.6847  0.8117
  363MOL0     C48886   0.226   2.649   0.764 -0.9614  0.5260  0.0057
  363MOL0     N48887   0.169   2.651   0.628  0.3431 -1.6178 -0.3416
  363MOL0     C48888   0.179   2.746   0.526  0.3357  0.5527 -1.5125
  363MOL0     C48889   0.094   2.704   0.434 -0.8956 -0.3039  1.3424
  363MOL0     C48890   0.079   2.780   0.308 -0.0999  0.2810 -0.4583
  363MOL0     C48891  -0.025   2.710   0.222 -0.1187  0.3279  0.0762
  363MOL0     C48892  -0.019   2.781   0.091 -1.1451 -0.6117  0.0426
  363MOL0     C48893  -0.117   2.716  -0.009  0.0897  0.1751 -0.5460
  363MOL0     O48894  -0.106   2.766  -0.148  0.4901 -0.5590 -0.4468
  363MOL0     C48895  -0.021   2.683  -0.226 -0.1356 -0.4134  0.4211
  363MOL0     C48896   0.072   2.591  -0.176 -0.7101 -0.1168 -0.2641
  363MOL0     C48897   0.163   2.533  -0.266  0.0841 -0.8833  0.1125
  363MOL0     C48898   0.158   2.552  -0.403 -0.2846 -0.8094  1.2706
  363MOL0     C48899   0.249   2.497  -0.506 -0.7002  0.5178  0.8405
  363MOL0     O48900   0.226   2.541  -0.638 -0.6144  0.9311 -0.4100
  363MOL0     C48901   0.321   2.496  -0.725  0.4917  0.4705  0.1155
  363MOL0     C48902   0.462   2.488  -0.710 -0.4148  0.2312  0.0196
  363MOL0     C48903   0.542   2.438  -0.811 -0.6833  0.8160  0.1617
  363MOL0     C48904   0.486   2.404  -0.933 -0.1223 -0.2853  0.5601
  363MOL0     O48905   0.565   2.351  -1.030 -0.0956 -0.0096 -0.2802
  363MOL0     C48906   0.709   2.370  -1.024 -0.8657 -0.2664 -0.3607
  363MOL0     C48907   0.769   2.320  -1.153 -0.0847 -0.3225  0.2962
  363MOL0     C48908   0.925   2.282  -1.144  0.2457  0.8323 -0.1100
  363MOL0     C48909   0.975   2.166  -1.242 -0.0547 -0.5246  0.7555
  363MOL0     C48910   0.950   2.029  -1.187 -0.3821  0.0606 -0.0405
  363MOL0     C48911   0.952   1.914  -1.295  0.0156  0.3982  0.0194
  363MOL0     C48912   0.915   1.786  -1.217  0.3893  0.2935  0.2592
  363MOL0     C48913   0.765   1.777  -1.184 -0.2817 -0.5304  0.6070
  363MOL0    Cl48914   0.666   1.793  -1.337  0.0318  0.0021  0.0261
  363MOL0     C48915   0.342   2.411  -0.957 -0.0746  0.6418  0.5670
  363MOL0     C48916   0.265   2.469  -0.856 -0.1605  0.3641  0.6498
  363MOL0     O48917   0.342   2.425  -0.464  0.6463 -0.0304 -0.6864
  363MOL0     C48918   0.047   2.623  -0.457  0.8303 -0.6761 -0.9041
  363MOL0     C48919  -0.036   2.695  -0.361 -0.1206 -0.5641 -0.7041
  363MOL0     N48920   0.026   2.590   0.476  0.3599 -0.2377  0.7620
  363MOL0     N48921   0.077   2.562   0.595 -0.0844 -0.4003 -0.6672
  363MOL0     C48922   0.547   3.289   1.453 -0.2581 -0.0430 -0.3578
  363MOL0     C48923   0.551   3.427   1.477  0.0171  0.1937  0.2928
  363MOL0     C48924   0.622   3.863   1.525  0.5817 -0.0254  0.0240
  363MOL0     C48925   0.505   3.907   1.464  0.4092 -0.2206  0.4019
  363MOL0     C48926   0.448   4.024   1.496  0.0121  0.2878 -0.8598
  363MOL0     C48927   0.522   4.120   1.580 -0.4189 -1.5635  0.1248
  363MOL0     O48928   0.461   4.236   1.622 -0.5791 -0.8680  0.1558
  363MOL0     C48929   0.343   4.230   1.701  0.1355  0.1912 -0.1674
  363MOL0     C48930   0.339   4.136   1.825 -0.3859 -0.0147 -0.1538
  363MOL0     C48931   0.453   4.161   1.922 -0.5910 -0.4164  0.0673
  363MOL0     C48932   0.431   4.123   2.073 -0.2307  0.6668  0.0319
  363MOL0     C48933   0.385   3.986   2.103 -0.1273  0.3856  0.1617
  363MOL0     C48934   0.361   3.867   2.122  0.2678  0.2494  1.0383
  363MOL0     C48935   0.648   4.083   1.630  0.3502  0.3470  0.6173
  363MOL0     C48936   0.697   3.954   1.600 -0.2035 -0.5391  0.4014
  363MOL0     C48937   0.837   3.931   1.649  0.4533 -0.4023 -0.0455
  363MOL0     H48938   0.735   3.530   1.204  0.8302 -0.0479  0.2591
  363MOL0     H48939   0.721   3.297   1.154 -1.8346 -1.3447 -0.2885
  363MOL0     H48940   0.585   2.997   1.468  0.7967 -2.2054 -0.7628
  363MOL0     H48941   0.435   3.031   1.377 -0.0205  1.3957  2.1763
  363MOL0     H48942   0.535   2.802   1.370 -1.4804  1.7200  1.7241
  363MOL0     H48943   0.685   2.862   1.298  0.3417  5.3625  1.2019
  363MOL0     H48944   0.524   2.951   1.106  2.0505 -0.0040 -0.3860
  363MOL0     H48945   0.416   2.824   1.152 -1.6722  1.9357 -1.4517
  363MOL0     H48946   0.702   2.794   1.079  0.2178  2.1948 -6.5290
  363MOL0     H48947   0.595   2.647   1.113  3.5433 -0.9881 -0.2537
  363MOL0     H48948   0.563   2.851   0.889 -0.9847  0.9767  0.9900
  363MOL0     H48949   0.624   2.684   0.868 -0.9026  1.2973 -2.7339
  363MOL0     H48950   0.424   2.589   0.936  1.5910 -0.8485 -1.2368
  363MOL0     H48951   0.344   2.738   0.963 -0.3498 -2.1759 -0.8212
  363MOL0     H48952   0.427   2.655   0.677 -1.8061  2.0643 -2.3749
  363MOL0     H48953   0.369   2.804   0.717 -0.6291 -1.3810 -0.9267
  363MOL0     H48954   0.241   2.545   0.795  2.1563  0.1479 -2.2422
  363MOL0     H48955   0.165   2.719   0.822  0.1342  1.2131  0.3428
  363MOL0     H48956   0.235   2.840   0.530 -2.9748  2.7144 -2.2756
  363MOL0     H48957   0.057   2.883   0.337  0.8431  0.2000  0.6278
  363MOL0     H48958   0.171   2.782   0.248 -0.3609  0.9829 -0.8581
  363MOL0     H48959   0.011   2.607   0.215 -0.3026  0.3169 -0.8364
  363MOL0     H48960  -0.124   2.715   0.270 -1.0514 -0.2995 -1.6869
  363MOL0     H48961   0.082   2.769   0.051 -1.4357  0.0552 -0.9263
  363MOL0     H48962  -0.039   2.889   0.096 -1.2966 -0.6691  1.0270
  363MOL0     H48963  -0.213   2.763   0.014  0.6230  1.1146 -0.1690
  363MOL0     H48964  -0.113   2.607  -0.006  3.6115  0.1852 -0.9806
  363MOL0     H48965   0.083   2.560  -0.073  2.3650  3.4241  0.6877
  363MOL0     H48966   0.238   2.463  -0.229  1.6687  0.8381  0.3350
  363MOL0     H48967   0.516   2.514  -0.619 -0.9207  1.9225 -0.1387
  363MOL0     H48968   0.642   2.410  -0.782 -0.8660 -0.8928 -0.7562
  363MOL0     H48969   0.736   2.476  -1.016  1.5433 -0.9274  1.5325
  363MOL0     H48970   0.756   2.327  -0.935 -0.5982  0.2570 -0.2483
  363MOL0     H48971   0.716   2.231  -1.190  1.1016 -0.7515 -0.4203
  363MOL0     H48972   0.749   2.395  -1.230  2.4480  0.0951 -0.0482
  363MOL0     H48973   0.985   2.373  -1.151 -0.9869  2.1108  3.7988
  363MOL0     H48974   0.941   2.251  -1.041 -1.0556  0.7222  0.0786
  363MOL0     H48975   1.083   2.179  -1.256 -0.3005  0.3870 -0.4094
  363MOL0     H48976   0.925   2.183  -1.337  1.3395 -1.6693 -0.2347
  363MOL0     H48977   0.855   2.026  -1.133 -0.7142 -1.9289 -0.6318
  363MOL0     H48978   1.024   2.007  -1.109 -2.1154  0.0013  1.6517
  363MOL0     H48979   0.901   1.933  -1.390  2.0632  1.7018 -0.8853
  363MOL0     H48980   1.054   1.903  -1.332  0.5367  1.1264  1.1940
  363MOL0     H48981   0.972   1.775  -1.124  0.4147 -1.3385  0.0701
  363MOL0     H48982   0.926   1.696  -1.278  0.8192  1.8074 -2.0154
  363MOL0     H48983   0.751   1.679  -1.138  0.2470 -1.2397 -0.6720
  363MOL0     H48984   0.729   1.855  -1.117  0.6264  1.0099 -0.6413
  363MOL0     H48985   0.303   2.380  -1.054  1.3236 -3.5854  1.1389
  363MOL0     H48986   0.158   2.480  -0.872 -0.3122 -0.1972  1.2186
  363MOL0     H48987   0.029   2.631  -0.564  1.5740 -0.1013 -0.9926
  363MOL0     H48988  -0.117   2.743  -0.414 -0.7933 -2.3860 -1.4009
  363MOL0     H48989   0.486   3.228   1.520 -0.8542  2.5495  1.6127
  363MOL0     H48990   0.510   3.456   1.573  1.3362 -0.6600  1.1360
  363MOL0     H48991   0.442   3.850   1.396 -1.0162  1.4286  0.2655
  363MOL0     H48992   0.349   4.057   1.467 -0.2423  2.7372  2.2613
  363MOL0     H48993   0.268   4.189   1.632  1.6060  1.2336 -2.4918
  363MOL0     H48994   0.320   4.336   1.718  1.5137  0.3848  0.6495
  363MOL0     H48995   0.342   4.031   1.797  0.5971  0.4967 -2.0968
  363MOL0     H48996   0.243   4.148   1.877 -0.2256 -0.9331  0.3800
  363MOL0     H48997   0.478   4.268   1.933  3.2992 -1.3289  2.0682
  363MOL0     H48998   0.542   4.109   1.886 -1.3667 -3.6830  2.4612
  363MOL0     H48999   0.518   4.157   2.130  1.3291  0.8587 -2.3051
  363MOL0     H49000   0.339   4.177   2.097  0.5501  0.7249  3.3253
  363MOL0     H49001   0.342   3.765   2.152 -0.9337 -0.4612 -1.8394
  363MOL0     H49002   0.702   4.159   1.686  1.8277  0.1595 -0.4987
  363MOL0     H49003   0.881   4.022   1.692  0.5720 -0.8498  0.7925
  363MOL0     H49004   0.842   3.859   1.731 -1.5324  0.6151  1.0531
  363MOL0     H49005   0.892   3.890   1.564 -1.5905 -1.7018 -0.8191
  364MOL0     O49006   2.076   7.289  10.385  0.4049  0.4145  0.0044
  364MOL0     C49007   2.049   7.274  10.502  0.3653  0.2276 -0.1294
  364MOL0     O49008   1.939   7.321  10.566 -0.7429  0.5157  0.6762
  364MOL0     C49009   1.850   7.391  10.489  0.2533 -0.4614  0.6046
  364MOL0     C49010   1.738   7.333  10.435  0.0410 -0.1527 -0.8961
  364MOL0     C49011   1.631   7.406  10.381 -0.5470  0.9132  0.4747
  364MOL0     C49012   1.644   7.543  10.379  0.5566  0.3033  0.3248
  364MOL0     O49013   1.547   7.625  10.319 -0.2637 -0.6952  0.0357
  364MOL0     C49014   1.435   7.645  10.398 -0.4579 -0.3516  0.0535
  364MOL0     C49015   1.345   7.759  10.368  0.1615  0.3600  0.7593
  364MOL0     C49016   1.249   7.799  10.484 -0.2180  0.1494 -0.5381
  364MOL0     C49017   1.164   7.920  10.445 -0.2744  0.3161 -1.3990
  364MOL0     C49018   1.028   7.873  10.402  0.8750  0.0879  0.3455
  364MOL0     C49019   0.945   7.985  10.348  0.2622 -0.2368  0.7638
  364MOL0     C49020   0.810   7.929  10.284  0.1951  0.0566  0.5186
  364MOL0     C49021   0.739   8.028  10.190  0.2292 -0.4869  0.1812
  364MOL0     N49022   0.654   8.120  10.279  0.3404 -0.0308  0.3661
  364MOL0     C49023   0.524   8.098  10.335 -0.6818 -0.0435  0.1158
  364MOL0     C49024   0.501   8.214  10.406 -0.2360  0.1328  0.1345
  364MOL0     C49025   0.375   8.246  10.486  0.5392 -0.1327  0.4564
  364MOL0     C49026   0.414   8.307  10.623 -1.1344 -0.2702  0.3329
  364MOL0     C49027   0.288   8.347  10.703  0.2137 -0.3287 -0.0749
  364MOL0     C49028   0.200   8.224  10.733  0.5806  0.1024 -0.3157
  364MOL0     O49029   0.094   8.260  10.825 -0.1199 -0.2322 -0.5582
  364MOL0     C49030  -0.026   8.194  10.802 -0.1085 -0.1471 -0.5054
  364MOL0     C49031  -0.143   8.264  10.820  1.3176  0.1887 -0.6357
  364MOL0     C49032  -0.268   8.208  10.794 -0.7588  0.1268 -0.5789
  364MOL0     C49033  -0.275   8.078  10.743  0.2206  0.3838  0.1653
  364MOL0     C49034  -0.410   8.021  10.692 -0.0325 -0.1297 -0.3116
  364MOL0     O49035  -0.394   7.908  10.625  0.0616  0.2265  0.1485
  364MOL0     C49036  -0.496   7.831  10.571 -0.5282  0.8182 -0.1262
  364MOL0     C49037  -0.479   7.690  10.539  0.1705 -0.6080 -0.6414
  364MOL0     C49038  -0.591   7.620  10.482  0.5348  0.9085 -0.4068
  364MOL0     C49039  -0.707   7.675  10.455 -0.0539  0.0924 -0.2434
  364MOL0     O49040  -0.807   7.588  10.422  0.4150  0.4959  0.3385
  364MOL0     C49041  -0.946   7.622  10.417 -0.2390 -0.6399  0.0337
  364MOL0     C49042  -1.038   7.493  10.412  0.1261 -0.6677  1.0959
  364MOL0     C49043  -1.184   7.533  10.432 -0.0570 -0.4334 -0.2001
  364MOL0     C49044  -1.272   7.581  10.321 -0.0796 -0.8791 -0.6963
  364MOL0     C49045  -1.415   7.593  10.371  0.5061  0.2273  0.1784
  364MOL0     C49046  -1.510   7.616  10.257  0.1836 -0.4231  0.1126
  364MOL0     C49047  -1.655   7.616  10.301  0.5659  1.3886 -1.4057
  364MOL0     C49048  -1.751   7.630  10.188 -0.0354  0.1729 -0.4685
  364MOL0    Cl49049  -1.890   7.520  10.221 -0.4875 -0.2488 -0.7283
  364MOL0     C49050  -0.727   7.807  10.490  1.0253  0.2669 -0.1161
  364MOL0     C49051  -0.632   7.879  10.548  0.1920  0.3852 -0.8760
  364MOL0     O49052  -0.520   8.065  10.730  0.6191  0.3021 -0.2492
  364MOL0     C49053  -0.152   8.005  10.727 -0.1252 -0.9014  0.6348
  364MOL0     C49054  -0.027   8.062  10.756  0.1672 -0.5013  0.9004
  364MOL0     N49055   0.617   8.296  10.397  0.6355  0.2143  0.2973
  364MOL0     N49056   0.705   8.235  10.325 -0.4201 -0.0171  0.3831
  364MOL0     C49057   1.772   7.604  10.412 -0.6327 -0.2134 -0.3757
  364MOL0     C49058   1.866   7.525  10.477 -0.1825  0.2701 -0.0871
  364MOL0     C49059   2.140   7.197  10.592  0.2580  0.2422 -0.3966
  364MOL0     C49060   2.092   7.163  10.723  0.2561  0.8103 -0.0842
  364MOL0     C49061   2.182   7.100  10.817  0.0627  0.1211  0.1750
  364MOL0     C49062   2.311   7.068  10.787 -0.0435 -0.6197 -0.7524
  364MOL0     O49063   2.390   7.001  10.877  0.3189  0.2588  0.0071
  364MOL0     C49064   2.378   7.017  11.018 -0.7152 -0.0671 -0.2488
  364MOL0     C49065   2.439   7.146  11.070  0.5624  0.2969 -0.1623
  364MOL0     C49066   2.562   7.202  11.001  0.2651 -1.2159  0.1963
  364MOL0     C49067   2.689   7.121  11.027  0.5575 -0.0590 -0.6418
  364MOL0     C49068   2.799   7.189  10.961 -0.2308  0.1498  0.4894
  364MOL0     C49069   2.887   7.236  10.891 -0.2674  0.0369  0.5903
  364MOL0     C49070   2.357   7.108  10.669 -0.6254  0.4779 -0.1785
  364MOL0     C49071   2.282   7.167  10.567  0.2374  0.0545 -0.0999
  364MOL0     C49072   2.346   7.209  10.427  0.0018 -0.1931 -0.4125
  364MOL0     H49073   1.721   7.226  10.442 -2.8762  0.2792  0.2072
  364MOL0     H49074   1.542   7.355  10.347 -0.1381 -0.4617  1.3997
  364MOL0     H49075   1.379   7.552  10.382  1.2543 -1.5364  0.6270
  364MOL0     H49076   1.470   7.664  10.499  3.5658  4.4360 -1.8411
  364MOL0     H49077   1.283   7.724  10.285 -0.0086  0.2892  0.9150
  364MOL0     H49078   1.396   7.849  10.331  3.2951 -1.8545 -0.8016
  364MOL0     H49079   1.307   7.818  10.574 -1.1739 -1.6766  0.5329
  364MOL0     H49080   1.181   7.716  10.505  0.7805 -0.5142  0.1489
  364MOL0     H49081   1.136   7.989  10.526 -1.6945  1.4541 -2.7846
  364MOL0     H49082   1.206   7.983  10.366 -1.1553  1.9727 -0.6192
  364MOL0     H49083   1.043   7.797  10.324  1.8875 -1.1794  1.7250
  364MOL0     H49084   0.978   7.828  10.488 -2.1687  0.9269 -0.8392
  364MOL0     H49085   0.908   8.054  10.424 -3.4890 -1.2529  0.0325
  364MOL0     H49086   1.006   8.041  10.276  1.4329 -0.7869  1.2975
  364MOL0     H49087   0.743   7.887  10.359 -0.3217 -0.7662 -0.3795
  364MOL0     H49088   0.818   7.844  10.215  0.1374  2.1763 -2.2432
  364MOL0     H49089   0.819   8.081  10.138  0.9263 -0.5964  1.1144
  364MOL0     H49090   0.671   7.978  10.121  0.2013 -1.4090  0.8536
  364MOL0     H49091   0.466   8.007  10.328  1.3802 -1.2821 -2.7839
  364MOL0     H49092   0.301   8.299  10.426  2.2616 -0.0457 -1.7258
  364MOL0     H49093   0.336   8.145  10.505  1.9877 -0.3998  2.3837
  364MOL0     H49094   0.483   8.237  10.672  1.3676  2.3645  0.8742
  364MOL0     H49095   0.462   8.404  10.605  0.2569 -1.3209 -2.1610
  364MOL0     H49096   0.231   8.405  10.630  1.5561 -0.6593 -1.4284
  364MOL0     H49097   0.305   8.403  10.796 -0.0288 -0.5556  0.1079
  364MOL0     H49098   0.259   8.146  10.781 -0.1995 -0.9992 -1.0883
  364MOL0     H49099   0.166   8.196  10.633  0.7014  0.2126 -0.3887
  364MOL0     H49100  -0.139   8.361  10.868 -1.5643 -1.1015  2.6306
  364MOL0     H49101  -0.358   8.263  10.821 -1.2730 -1.4510  1.1628
  364MOL0     H49102  -0.382   7.649  10.563 -1.3371 -2.5370  3.0166
  364MOL0     H49103  -0.577   7.516  10.454 -1.2098  0.9101 -1.4837
  364MOL0     H49104  -0.971   7.675  10.510 -2.6348  0.6860 -1.2654
  364MOL0     H49105  -0.949   7.692  10.332  0.8450  1.8593  1.9100
  364MOL0     H49106  -1.016   7.432  10.325 -0.4333 -0.5322  0.8545
  364MOL0     H49107  -1.016   7.431  10.500  1.2932 -0.3516  1.0355
  364MOL0     H49108  -1.236   7.448  10.478  0.2576  0.8914  2.7917
  364MOL0     H49109  -1.185   7.612  10.507 -2.7359  1.6694 -2.2907
  364MOL0     H49110  -1.263   7.501  10.247  1.0162 -0.9541 -0.4973
  364MOL0     H49111  -1.231   7.673  10.279 -2.8798  1.5894  1.5741
  364MOL0     H49112  -1.421   7.669  10.449 -1.7857 -0.0638  0.3542
  364MOL0     H49113  -1.447   7.499  10.418 -2.5153  1.2387  0.3561
  364MOL0     H49114  -1.501   7.712  10.205 -2.6541 -1.0482 -1.7501
  364MOL0     H49115  -1.495   7.549  10.172 -2.9912 -0.5657 -0.4737
  364MOL0     H49116  -1.669   7.699  10.371  0.4916 -0.2640  0.6614
  364MOL0     H49117  -1.662   7.527  10.365  1.1521  1.8384 -0.6942
  364MOL0     H49118  -1.777   7.736  10.180 -1.0572 -0.0600 -0.3996
  364MOL0     H49119  -1.708   7.603  10.091 -2.1925  2.1110 -2.0673
  364MOL0     H49120  -0.828   7.845  10.480  0.3577 -1.2253  0.6508
  364MOL0     H49121  -0.660   7.983  10.559 -1.5312 -0.2849  2.0122
  364MOL0     H49122  -0.144   7.909  10.678  2.7902 -1.1559  1.4381
  364MOL0     H49123   0.064   8.003  10.754 -1.1138 -2.5689 -0.3140
  364MOL0     H49124   1.785   7.712  10.408  0.4181 -0.3467 -1.2221
  364MOL0     H49125   1.948   7.579  10.522 -0.5616 -0.1401  1.1445
  364MOL0     H49126   1.995   7.196  10.759  0.1364  0.6179 -0.2287
  364MOL0     H49127   2.148   7.076  10.918 -0.3135 -1.2543 -0.2506
  364MOL0     H49128   2.444   6.943  11.065  0.7692  0.5654 -1.2415
  364MOL0     H49129   2.280   6.993  11.061 -0.2119 -1.9548 -0.0527
  364MOL0     H49130   2.463   7.125  11.175 -0.1103 -1.4507 -0.3285
  364MOL0     H49131   2.362   7.223  11.069  0.1727  0.2355  4.1598
  364MOL0     H49132   2.587   7.305  11.027  2.3609 -1.1970 -1.5312
  364MOL0     H49133   2.537   7.204  10.894 -0.2648  1.2030  0.3165
  364MOL0     H49134   2.704   7.133  11.134 -1.4069  0.2080 -0.3578
  364MOL0     H49135   2.671   7.016  11.000  1.5811 -0.5909  0.6487
  364MOL0     H49136   2.970   7.289  10.850  0.7836  1.3829  4.0600
  364MOL0     H49137   2.460   7.079  10.651 -1.3727 -1.1374 -2.4157
  364MOL0     H49138   2.335   7.314  10.400  4.8158 -0.0034 -2.8013
  364MOL0     H49139   2.455   7.203  10.441  0.1528 -0.5645 -1.6734
  364MOL0     H49140   2.312   7.145  10.345 -2.0846  0.6007 -0.2205
  365MOL0     O49141  10.610   8.014   6.538  0.2539 -0.2610  0.2697
  365MOL0     C49142  10.657   8.003   6.423 -0.5673 -0.8672 -0.7235
  365MOL0     O49143  10.772   8.060   6.378 -0.0626 -0.0812 -0.1034
  365MOL0     C49144  10.852   8.132   6.458  0.1064 -0.9246 -0.1600
  365MOL0     C49145  10.989   8.109   6.451 -0.1345 -0.2096  0.3384
  365MOL0     C49146  11.061   8.183   6.543 -0.1389 -0.2670  0.4009
  365MOL0     C49147  11.022   8.298   6.614  1.0999  1.0747 -0.5510
  365MOL0     O49148  11.110   8.368   6.702  0.8394 -0.0020 -0.6511
  365MOL0     C49149  11.081   8.499   6.752 -0.4117  0.3451 -0.0830
  365MOL0     C49150  11.004   8.472   6.876  0.1866 -0.5388 -0.2872
  365MOL0     C49151  11.101   8.498   7.001 -0.0034  0.4178  0.2229
  365MOL0     C49152  11.025   8.446   7.129 -0.0645  0.8341 -0.4394
  365MOL0     C49153  11.049   8.521   7.253  1.0589 -0.2419 -0.6029
  365MOL0     C49154  11.195   8.493   7.321  1.0910 -0.3260  0.9519
  365MOL0     C49155  11.224   8.344   7.341  0.0405  0.9477 -0.0683
  365MOL0     C49156  11.373   8.318   7.385 -0.1915 -0.4279  0.2573
  365MOL0     N49157  11.468   8.319   7.267  0.3863 -0.5225 -0.3590
  365MOL0     C49158  11.533   8.431   7.214  0.5021  0.4960  0.5645
  365MOL0     C49159  11.582   8.396   7.090  0.6252 -0.6423  0.0348
  365MOL0     C49160  11.658   8.491   7.013 -0.5024  0.7307  0.4013
  365MOL0     C49161  11.599   8.500   6.870 -0.2689  0.9022  0.1945
  365MOL0     C49162  11.471   8.572   6.861 -0.2476 -0.1972  0.2757
  365MOL0     C49163  11.455   8.726   6.902  0.0763 -0.6818  0.1966
  365MOL0     O49164  11.324   8.781   6.863 -0.0225 -0.1671  0.0171
  365MOL0     C49165  11.336   8.919   6.836  0.2721 -0.4179 -0.1529
  365MOL0     C49166  11.286   8.967   6.714 -0.0160 -0.3915  0.2184
  365MOL0     C49167  11.284   9.107   6.688 -0.6850 -0.4310 -0.0195
  365MOL0     C49168  11.340   9.201   6.784  0.7942  0.2265 -0.4769
  365MOL0     C49169  11.346   9.343   6.753  0.3487 -0.3397 -0.9948
  365MOL0     O49170  11.277   9.386   6.644  0.4453 -0.0966 -0.2944
  365MOL0     C49171  11.250   9.519   6.623  0.0229 -0.4094  0.0866
  365MOL0     C49172  11.331   9.618   6.561  0.4241 -0.2811  0.2797
  365MOL0     C49173  11.289   9.747   6.547 -0.0387 -0.3423 -0.1608
  365MOL0     C49174  11.163   9.783   6.597  0.1209  0.0894  0.2921
  365MOL0     O49175  11.129   9.912   6.579  0.2874  0.4410 -0.1961
  365MOL0     C49176  11.039   9.985   6.666  0.4085 -0.0000  0.4495
  365MOL0     C49177  10.923  10.049   6.587 -0.5916 -0.2984  0.7261
  365MOL0     C49178  10.952  10.125   6.455 -0.0151  0.5068  0.2588
  365MOL0     C49179  10.826  10.186   6.397  0.0223 -0.3734 -0.0168
  365MOL0     C49180  10.837  10.249   6.261  0.2894  0.4630  0.0430
  365MOL0     C49181  10.900  10.386   6.276 -0.2026 -0.7443 -0.5572
  365MOL0     C49182  10.905  10.459   6.143 -0.0888 -0.1601 -0.1623
  365MOL0     C49183  10.964  10.603   6.154  0.4184  0.1995 -0.4832
  365MOL0    Cl49184  10.882  10.728   6.252  0.6682  0.3334  0.4395
  365MOL0     C49185  11.085   9.688   6.661  0.4833  0.3384  0.1538
  365MOL0     C49186  11.129   9.556   6.668  0.5216 -0.6127  1.0896
  365MOL0     O49187  11.387   9.415   6.846 -0.2783  0.5685  0.2069
  365MOL0     C49188  11.390   9.150   6.902  0.4702  0.0313 -0.7525
  365MOL0     C49189  11.390   9.012   6.922 -0.5810 -0.7947 -0.1869
  365MOL0     N49190  11.546   8.265   7.060  0.5662  0.4805  0.4775
  365MOL0     N49191  11.482   8.224   7.169 -0.0822 -0.3483  0.3684
  365MOL0     C49192  10.884   8.330   6.609 -0.3106 -0.2989  0.7327
  365MOL0     C49193  10.805   8.243   6.528  0.5308 -0.4292 -0.1037
  365MOL0     C49194  10.598   7.902   6.335  0.5225  0.3678 -0.0564
  365MOL0     C49195  10.684   7.819   6.258 -0.6469 -0.4923 -0.0467
  365MOL0     C49196  10.640   7.729   6.162 -0.4400  0.6563  0.2571
  365MOL0     C49197  10.502   7.726   6.134  0.3607  0.2398  0.0645
  365MOL0     O49198  10.452   7.626   6.044 -0.0889  0.0647 -0.3052
  365MOL0     C49199  10.310   7.613   6.037 -0.5862 -0.0670 -0.2285
  365MOL0     C49200  10.275   7.498   5.953 -0.5617  0.0476 -0.1967
  365MOL0     C49201  10.357   7.505   5.818  0.0945  0.2867  0.3570
  365MOL0     C49202  10.297   7.403   5.716  0.3477 -0.7424  0.0407
  365MOL0     C49203  10.155   7.418   5.677  1.1120  0.1685 -0.1341
  365MOL0     C49204  10.042   7.436   5.631 -0.6860 -0.0356 -1.0802
  365MOL0     C49205  10.413   7.802   6.213 -0.0523  0.1862  0.1797
  365MOL0     C49206  10.457   7.892   6.316 -0.1395  0.0328  0.1483
  365MOL0     C49207  10.350   7.955   6.399  0.1853  0.0438 -1.2535
  365MOL0     H49208  11.036   8.033   6.389 -1.7705 -0.2683 -0.8991
  365MOL0     H49209  11.162   8.145   6.533  0.1803  0.0903  2.0355
  365MOL0     H49210  11.179   8.540   6.776 -0.7164  0.3551  1.1913
  365MOL0     H49211  11.027   8.565   6.683 -0.4345  0.9275  0.4864
  365MOL0     H49212  10.965   8.370   6.875 -0.0622 -0.4539 -1.4936
  365MOL0     H49213  10.920   8.541   6.880  0.3310 -0.3701 -0.1629
  365MOL0     H49214  11.130   8.603   7.013 -0.4535  0.3507  2.2648
  365MOL0     H49215  11.192   8.440   6.986 -1.4995 -2.1785  0.5189
  365MOL0     H49216  10.917   8.454   7.111 -0.6644 -1.3293  1.6859
  365MOL0     H49217  11.040   8.341   7.154  1.7868  0.8097 -1.4447
  365MOL0     H49218  11.028   8.626   7.227 -1.6567 -1.3924 -3.8254
  365MOL0     H49219  10.965   8.500   7.320 -1.0357 -0.8339 -3.2346
  365MOL0     H49220  11.270   8.530   7.250 -1.0832  0.6380 -0.9572
  365MOL0     H49221  11.197   8.544   7.418 -2.7185  0.1878  0.8811
  365MOL0     H49222  11.218   8.286   7.249 -0.2696  1.8036 -0.6013
  365MOL0     H49223  11.151   8.292   7.404  0.6539 -0.0041 -0.1212
  365MOL0     H49224  11.409   8.394   7.455 -0.8139  0.7680 -0.6980
  365MOL0     H49225  11.376   8.220   7.435 -0.4081 -0.8360 -0.5111
  365MOL0     H49226  11.545   8.531   7.254  1.4496  0.3756  0.5929
  365MOL0     H49227  11.650   8.593   7.051 -1.8829  1.3450 -1.3663
  365MOL0     H49228  11.760   8.455   6.998 -0.1923  1.7066  0.0843
  365MOL0     H49229  11.665   8.541   6.793 -1.1350  1.7112 -0.1527
  365MOL0     H49230  11.570   8.401   6.835 -0.8389  0.6221  1.4081
  365MOL0     H49231  11.389   8.527   6.918  1.1540 -3.5521 -0.1486
  365MOL0     H49232  11.446   8.563   6.755 -0.1536 -0.7386  0.2970
  365MOL0     H49233  11.544   8.779   6.865 -0.1251  0.5379  1.4178
  365MOL0     H49234  11.448   8.727   7.011  0.0867  0.3117  0.1950
  365MOL0     H49235  11.232   8.901   6.647 -0.3912  1.2939 -1.2203
  365MOL0     H49236  11.237   9.150   6.600  0.2448 -0.5497 -0.5809
  365MOL0     H49237  11.425   9.571   6.534 -0.3214  0.1732 -3.7311
  365MOL0     H49238  11.356   9.822   6.506 -0.0952  0.9853  1.9865
  365MOL0     H49239  10.997   9.925   6.746 -0.8502  1.6912  1.1283
  365MOL0     H49240  11.098  10.066   6.710 -0.2900 -0.6432  2.7048
  365MOL0     H49241  10.842   9.980   6.562 -3.6427  3.0813  0.4676
  365MOL0     H49242  10.868  10.117   6.653 -3.2285 -1.8993  0.2872
  365MOL0     H49243  11.030  10.200   6.473  0.2959  0.2157  0.1451
  365MOL0     H49244  11.001  10.050   6.393  0.9052  1.7530 -0.5621
  365MOL0     H49245  10.773  10.250   6.470  1.2011 -0.3395  0.8389
  365MOL0     H49246  10.755  10.104   6.383  0.1790 -0.2747 -1.5163
  365MOL0     H49247  10.741  10.266   6.213  0.6157 -1.5722 -1.4903
  365MOL0     H49248  10.895  10.183   6.196  1.3161  1.8923 -0.5259
  365MOL0     H49249  10.830  10.436   6.343 -0.0838  0.0228 -0.9945
  365MOL0     H49250  10.997  10.385   6.326 -0.0202  1.9764 -0.6869
  365MOL0     H49251  10.807  10.470   6.096 -0.9441 -1.6028  1.1821
  365MOL0     H49252  10.974  10.412   6.073 -0.1554  0.7097 -0.8243
  365MOL0     H49253  11.064  10.583   6.195 -0.0075 -3.9393 -1.0221
  365MOL0     H49254  10.956  10.652   6.057 -1.3081  1.5488  0.2790
  365MOL0     H49255  10.983   9.700   6.695 -0.1174 -0.2166 -1.3787
  365MOL0     H49256  11.053   9.490   6.709  0.0262 -2.1160 -2.0161
  365MOL0     H49257  11.433   9.205   6.985  2.1769 -3.7238  1.0922
  365MOL0     H49258  11.434   8.981   7.016  1.7503  0.3027 -0.8235
  365MOL0     H49259  10.847   8.426   6.644  1.6545 -0.0245  2.1758
  365MOL0     H49260  10.699   8.258   6.511  0.4289 -1.3906 -0.3809
  365MOL0     H49261  10.791   7.819   6.277 -0.0822  2.3047 -2.5231
  365MOL0     H49262  10.710   7.660   6.115 -2.3342  0.0964 -1.8934
  365MOL0     H49263  10.275   7.703   5.984 -0.6294  0.0223 -0.0482
  365MOL0     H49264  10.250   7.600   6.127 -0.3689  0.1191 -0.0564
  365MOL0     H49265  10.168   7.511   5.931 -0.3344  0.6672 -1.0210
  365MOL0     H49266  10.302   7.409   6.010  1.1742  1.2728  0.9699
  365MOL0     H49267  10.462   7.483   5.837  0.3116 -1.6295 -2.4226
  365MOL0     H49268  10.343   7.604   5.775  2.1196 -0.5189 -2.4564
  365MOL0     H49269  10.344   7.423   5.619 -0.5909  0.3374 -0.2201
  365MOL0     H49270  10.310   7.300   5.750  0.1274  0.4180  4.1043
  365MOL0     H49271   9.940   7.432   5.602 -0.3925 -0.9024 -2.0734
  365MOL0     H49272  10.305   7.793   6.203 -0.2216  0.1125  1.8249
  365MOL0     H49273  10.369   8.063   6.408 -0.3137  0.1269 -1.1837
  365MOL0     H49274  10.249   7.941   6.359 -0.0728 -0.9344 -0.3024
  365MOL0     H49275  10.353   7.908   6.497 -0.7978 -1.5351 -1.9409
  366MOL0     O49276   5.718   1.424   8.509  1.0840 -0.3916 -0.5569
  366MOL0     C49277   5.758   1.526   8.555  0.0094  0.1571  0.1526
  366MOL0     O49278   5.871   1.587   8.506 -0.2590 -0.8695  0.2785
  366MOL0     C49279   5.972   1.539   8.425 -0.1474  0.0155  0.1188
  366MOL0     C49280   5.997   1.397   8.397  0.0112  0.2984 -0.4145
  366MOL0     C49281   6.116   1.360   8.317  0.4401 -0.1772 -0.3621
  366MOL0     C49282   6.207   1.458   8.279 -0.1763 -0.8387  0.3580
  366MOL0     O49283   6.325   1.434   8.227  0.4792  0.4857 -0.4848
  366MOL0     C49284   6.324   1.342   8.119  0.3651  0.8767  0.4650
  366MOL0     C49285   6.242   1.383   7.988  0.5544  0.2765 -0.1943
  366MOL0     C49286   6.208   1.265   7.907 -0.7925 -0.3159 -0.3473
  366MOL0     C49287   6.115   1.294   7.791 -0.5396  0.4724  0.2255
  366MOL0     C49288   6.099   1.188   7.680 -0.6432 -0.6353 -0.7606
  366MOL0     C49289   6.040   1.057   7.740  0.0572 -0.6703 -0.0322
  366MOL0     C49290   5.967   0.988   7.624 -0.1949  0.6673  0.6154
  366MOL0     C49291   5.892   0.857   7.684 -0.5081  0.4801 -2.0105
  366MOL0     N49292   5.967   0.732   7.674 -0.9202 -0.7630 -0.1619
  366MOL0     C49293   5.913   0.613   7.651 -0.8070  0.5146 -0.1059
  366MOL0     C49294   6.020   0.538   7.669 -0.4628  0.5938  0.6248
  366MOL0     C49295   6.019   0.377   7.663 -0.0173  0.7033 -0.3752
  366MOL0     C49296   6.160   0.313   7.649  0.3201 -0.0956 -0.3904
  366MOL0     C49297   6.147   0.159   7.660  0.6393 -0.1667 -0.3909
  366MOL0     C49298   6.279   0.094   7.707  0.5485 -0.1968  0.5980
  366MOL0     O49299   6.363   0.112   7.588  0.8399  0.2316 -0.2720
  366MOL0     C49300   6.494   0.105   7.605 -0.3457  0.4437  0.6152
  366MOL0     C49301   6.569   0.092   7.726 -1.1484  0.3587  0.0829
  366MOL0     C49302   6.713   0.121   7.719  0.0036  0.9697 -0.3503
  366MOL0     C49303   6.778   0.156   7.599 -0.6134  0.2195  0.7153
  366MOL0     C49304   6.931   0.162   7.597  0.1460 -0.1576  1.0762
  366MOL0     O49305   6.995   0.216   7.476 -0.3133  0.3093  0.6170
  366MOL0     C49306   7.131   0.214   7.462 -0.0034 -0.1266 -0.1998
  366MOL0     C49307   7.203   0.100   7.464 -0.2167 -0.3194  0.8615
  366MOL0     C49308   7.342   0.097   7.456  0.8039  0.0693  0.8608
  366MOL0     C49309   7.414   0.218   7.432  0.7653 -1.2087  0.4894
  366MOL0     O49310   7.546   0.210   7.436  0.0418  0.0529 -0.2848
  366MOL0     C49311   7.622   0.327   7.413 -0.1559  0.2324  0.1512
  366MOL0     C49312   7.767   0.276   7.424 -0.0647 -0.4025  0.1345
  366MOL0     C49313   7.865   0.317   7.323  1.3571  0.3654  0.0626
  366MOL0     C49314   7.882   0.471   7.318 -0.1292 -1.2961  0.8453
  366MOL0     C49315   8.025   0.510   7.346 -0.2906 -0.0321  0.0729
  366MOL0     C49316   8.038   0.661   7.354 -0.2080  0.3665 -0.7902
  366MOL0     C49317   8.089   0.728   7.229  0.7111  0.3829  0.2007
  366MOL0     C49318   8.184   0.840   7.256 -0.3462 -0.6931 -0.4164
  366MOL0    Cl49319   8.215   0.929   7.105  0.0007  0.0143  0.2382
  366MOL0     C49320   7.334   0.341   7.417  0.6524  0.4877 -0.5340
  366MOL0     C49321   7.192   0.337   7.440  0.1730 -0.2490 -0.3846
  366MOL0     O49322   6.986   0.137   7.701  0.3517 -0.6461  0.6352
  366MOL0     C49323   6.697   0.148   7.480  0.1305  0.8234 -0.9778
  366MOL0     C49324   6.564   0.116   7.486 -0.1257 -0.2316 -0.3383
  366MOL0     N49325   6.135   0.604   7.711 -0.4754 -0.4904 -0.6927
  366MOL0     N49326   6.104   0.724   7.707 -0.5770  0.4113 -0.1571
  366MOL0     C49327   6.183   1.589   8.312  0.6984 -0.0955  0.1784
  366MOL0     C49328   6.073   1.633   8.385 -0.3700  0.7926  0.9918
  366MOL0     C49329   5.670   1.609   8.631  0.8482  0.1009 -0.3293
  366MOL0     C49330   5.691   1.746   8.640  0.0435 -0.7425 -0.3663
  366MOL0     C49331   5.594   1.832   8.693 -0.5786 -0.3813 -0.0700
  366MOL0     C49332   5.475   1.772   8.752  0.1488 -0.6929  1.1652
  366MOL0     O49333   5.384   1.860   8.803  0.1116  0.0115 -0.0733
  366MOL0     C49334   5.442   1.933   8.911  1.0820  0.0595  0.0576
  366MOL0     C49335   5.334   2.032   8.941 -0.1252  0.0869  0.1749
  366MOL0     C49336   5.301   2.122   8.826 -1.2341 -0.1661  1.3705
  366MOL0     C49337   5.346   2.263   8.843 -0.9709 -0.8767 -0.9694
  366MOL0     C49338   5.492   2.282   8.828  0.3742 -0.7195 -0.5213
  366MOL0     C49339   5.612   2.293   8.824 -0.6536  0.3868  0.6855
  366MOL0     C49340   5.459   1.629   8.761 -0.4398 -0.2339  0.7385
  366MOL0     C49341   5.556   1.551   8.696  0.2924  0.3747  1.3478
  366MOL0     C49342   5.529   1.402   8.696  0.3585 -0.9608 -0.8013
  366MOL0     H49343   5.927   1.327   8.442  2.6868 -1.2167  1.7214
  366MOL0     H49344   6.135   1.253   8.312  1.2834 -0.2825  2.7421
  366MOL0     H49345   6.424   1.320   8.082 -0.2031  0.6021 -0.9564
  366MOL0     H49346   6.278   1.249   8.152  0.2982  0.9824  0.6732
  366MOL0     H49347   6.288   1.465   7.932 -1.1632  0.4909 -1.3849
  366MOL0     H49348   6.142   1.409   8.024  1.2750  0.4779  1.8356
  366MOL0     H49349   6.160   1.187   7.967  1.6549 -0.5454  1.4910
  366MOL0     H49350   6.299   1.223   7.863  0.3687  0.0739  1.5496
  366MOL0     H49351   6.014   1.312   7.828 -0.7419  0.1852 -0.1768
  366MOL0     H49352   6.150   1.386   7.742 -1.5099  1.9509  2.1637
  366MOL0     H49353   6.033   1.220   7.600  1.7289  0.0740 -2.5439
  366MOL0     H49354   6.201   1.167   7.646 -0.2115 -2.6437  1.4623
  366MOL0     H49355   6.115   0.990   7.783 -0.6780 -2.0962 -0.8768
  366MOL0     H49356   5.962   1.081   7.813 -0.1708 -1.2642 -0.0756
  366MOL0     H49357   6.045   0.969   7.549 -0.8755  0.8354 -0.1547
  366MOL0     H49358   5.893   1.054   7.577  2.0025  1.1365 -2.4919
  366MOL0     H49359   5.869   0.873   7.790 -0.4732  2.0114 -2.2132
  366MOL0     H49360   5.792   0.854   7.640 -1.1448  0.7335 -0.6148
  366MOL0     H49361   5.813   0.582   7.622 -0.9102 -1.0928  1.7593
  366MOL0     H49362   5.973   0.342   7.756 -3.3213  0.0274 -2.1171
  366MOL0     H49363   5.963   0.339   7.578  0.6440 -2.2155  0.4037
  366MOL0     H49364   6.207   0.340   7.554 -1.1695  3.2993 -0.3066
  366MOL0     H49365   6.224   0.355   7.728 -0.5851  0.4590  0.0597
  366MOL0     H49366   6.118   0.120   7.563 -1.4019  4.1714 -1.7845
  366MOL0     H49367   6.065   0.133   7.728  0.1047 -0.0424 -0.9829
  366MOL0     H49368   6.275  -0.008   7.745 -4.3902  0.1004  1.6441
  366MOL0     H49369   6.316   0.148   7.795  0.1059  0.6154  0.2996
  366MOL0     H49370   6.500   0.079   7.808 -1.1700  0.6193  0.1065
  366MOL0     H49371   6.770   0.108   7.810  0.3685  2.8052 -0.2731
  366MOL0     H49372   7.150   0.005   7.474  0.0636 -0.8375 -1.9161
  366MOL0     H49373   7.388  -0.001   7.459 -3.1106 -2.0177  0.2384
  366MOL0     H49374   7.603   0.375   7.316 -1.8481  0.0290  0.3479
  366MOL0     H49375   7.616   0.396   7.498  0.6907  0.9038 -0.3203
  366MOL0     H49376   7.813   0.294   7.522 -0.8450 -1.7412  0.7871
  366MOL0     H49377   7.763   0.166   7.422  3.7192 -0.6726  0.3106
  366MOL0     H49378   7.956   0.264   7.351  1.4944  2.1761  3.7675
  366MOL0     H49379   7.844   0.285   7.221 -0.5654 -1.9447  1.0730
  366MOL0     H49380   7.813   0.526   7.382 -0.1829 -3.4270  2.7726
  366MOL0     H49381   7.850   0.507   7.220  1.8824 -0.4144  0.4797
  366MOL0     H49382   8.093   0.472   7.269 -3.1773 -0.6098 -2.3563
  366MOL0     H49383   8.056   0.473   7.444  0.3327 -0.4680 -0.2786
  366MOL0     H49384   7.942   0.700   7.388  0.1789 -0.0648  0.9218
  366MOL0     H49385   8.103   0.692   7.436 -3.6971  5.3153  0.5781
  366MOL0     H49386   8.000   0.758   7.173  1.4248  1.2514 -0.4855
  366MOL0     H49387   8.138   0.656   7.163 -0.6741  0.2450 -0.7169
  366MOL0     H49388   8.137   0.913   7.323  1.0799  2.1836 -2.3137
  366MOL0     H49389   8.275   0.811   7.309 -0.9035 -1.8362 -0.0588
  366MOL0     H49390   7.395   0.429   7.403  3.1023 -1.1770 -0.8734
  366MOL0     H49391   7.129   0.425   7.435  0.5212 -0.0162 -0.7926
  366MOL0     H49392   6.736   0.157   7.379  2.5078  4.2652  0.0833
  366MOL0     H49393   6.508   0.106   7.394 -1.9925 -0.1680  0.7518
  366MOL0     H49394   6.251   1.665   8.274 -1.3910  1.0444 -1.5257
  366MOL0     H49395   6.058   1.734   8.423 -0.1671  1.4363 -0.5587
  366MOL0     H49396   5.774   1.803   8.599  1.5762 -4.7497 -3.5310
  366MOL0     H49397   5.609   1.939   8.689 -1.9342 -0.1985 -1.0531
  366MOL0     H49398   5.533   1.991   8.896  0.0085  2.0907  0.9190
  366MOL0     H49399   5.465   1.868   8.996  0.6625  0.0853  0.1981
  366MOL0     H49400   5.372   2.093   9.023  2.5398  0.7798 -1.4736
  366MOL0     H49401   5.250   1.972   8.978  0.3190  0.2579  1.5184
  366MOL0     H49402   5.196   2.130   8.796 -0.4402  3.4534 -1.1813
  366MOL0     H49403   5.354   2.079   8.740 -3.1860 -0.7316  0.3788
  366MOL0     H49404   5.314   2.328   8.760 -0.3657 -1.8010 -1.9469
  366MOL0     H49405   5.322   2.309   8.939  2.4109 -0.0103 -0.4060
  366MOL0     H49406   5.715   2.313   8.805 -1.0118 -0.3849 -2.5450
  366MOL0     H49407   5.374   1.590   8.815  1.6241 -1.4068  3.3603
  366MOL0     H49408   5.596   1.327   8.740 -3.4944 -3.4670  1.4064
  366MOL0     H49409   5.433   1.392   8.748  0.0146 -1.6927 -1.5619
  366MOL0     H49410   5.514   1.369   8.593  1.4895  0.1373 -1.3545
  367MOL0     O49411   0.798   7.767   3.834 -0.1935  0.1018  0.3153
  367MOL0     C49412   0.903   7.834   3.815  0.4411  0.4352 -0.0624
  367MOL0     O49413   1.026   7.788   3.760  0.5276  0.2909  0.8434
  367MOL0     C49414   1.020   7.668   3.699 -0.8369  0.4870  1.1784
  367MOL0     C49415   1.011   7.665   3.556  0.1268  0.5581  0.1597
  367MOL0     C49416   1.016   7.543   3.487  0.0777 -0.6147  0.2468
  367MOL0     C49417   0.994   7.425   3.553  0.6331  0.6298  0.2403
  367MOL0     O49418   0.988   7.296   3.493  0.0107  0.4454  0.3314
  367MOL0     C49419   0.965   7.294   3.351 -0.7173  0.2749  0.3971
  367MOL0     C49420   0.913   7.157   3.308  0.5524 -0.2668  0.0133
  367MOL0     C49421   0.842   7.168   3.173  0.4592  0.5789  0.4460
  367MOL0     C49422   0.825   7.023   3.109  0.2782 -0.8887  0.1492
  367MOL0     C49423   0.705   7.036   3.020  0.6127  0.5987  0.7929
  367MOL0     C49424   0.682   6.889   2.962 -0.7905 -0.0812  0.3040
  367MOL0     C49425   0.615   6.905   2.826 -0.7357 -0.9760 -0.0466
  367MOL0     C49426   0.582   6.771   2.749 -0.3361 -0.4734  0.5082
  367MOL0     N49427   0.702   6.689   2.735  0.1495 -0.7967  0.1873
  367MOL0     C49428   0.728   6.578   2.812  0.0366  0.5684  0.1278
  367MOL0     C49429   0.834   6.528   2.756  0.7442 -0.0478  0.2209
  367MOL0     C49430   0.911   6.404   2.793  0.0004  0.1306 -0.4038
  367MOL0     C49431   0.997   6.419   2.912 -0.3964 -0.4517  0.6210
  367MOL0     C49432   1.139   6.454   2.879 -0.1698  0.1876  1.5188
  367MOL0     C49433   1.156   6.606   2.846 -0.6312  0.6318 -0.1344
  367MOL0     O49434   1.148   6.683   2.964  0.4674 -0.0754  0.0407
  367MOL0     C49435   1.147   6.824   2.949 -0.1445 -0.0074  0.1782
  367MOL0     C49436   1.096   6.894   2.834  0.0455  0.3101  0.1790
  367MOL0     C49437   1.099   7.035   2.829 -0.2574  0.2891  0.3700
  367MOL0     C49438   1.162   7.110   2.932  0.7769 -0.2382  0.5332
  367MOL0     C49439   1.183   7.259   2.931  0.4961 -0.1082  0.8884
  367MOL0     O49440   1.136   7.319   2.816  0.3568  0.2475 -0.7197
  367MOL0     C49441   1.143   7.452   2.799 -0.2983  1.0261 -0.2383
  367MOL0     C49442   1.031   7.512   2.748 -0.1475  0.0987  0.3142
  367MOL0     C49443   1.028   7.648   2.726 -0.5742 -0.3298 -0.4417
  367MOL0     C49444   1.139   7.728   2.762 -0.4925 -0.1849  0.2211
  367MOL0     O49445   1.127   7.863   2.749 -0.4961  0.0813 -0.1381
  367MOL0     C49446   1.249   7.942   2.768 -0.0167  0.2494  0.4618
  367MOL0     C49447   1.206   8.087   2.772 -0.0569 -0.2378 -0.2687
  367MOL0     C49448   1.095   8.118   2.875  0.4103 -0.6009  0.5664
  367MOL0     C49449   1.045   8.268   2.851 -0.5010  1.1950  0.2177
  367MOL0     C49450   0.958   8.310   2.960  0.1622 -0.3118 -0.2960
  367MOL0     C49451   0.918   8.454   2.966  1.0873 -0.6171  0.1928
  367MOL0     C49452   0.836   8.485   3.092 -0.8858  0.5989 -0.5153
  367MOL0     C49453   0.779   8.624   3.065  0.0895 -0.6155  0.6252
  367MOL0    Cl49454   0.645   8.640   3.186 -0.1546 -0.4554  0.3279
  367MOL0     C49455   1.251   7.666   2.806 -0.8181  0.0153  0.6570
  367MOL0     C49456   1.259   7.522   2.821  0.4754  0.2394  1.1441
  367MOL0     O49457   1.261   7.307   3.010 -0.0737 -0.4926 -0.1360
  367MOL0     C49458   1.211   7.042   3.049 -0.0228  0.1262  1.1042
  367MOL0     C49459   1.212   6.899   3.047 -0.1232  0.5519  0.0360
  367MOL0     N49460   0.875   6.606   2.649  0.3619  0.3991  0.5479
  367MOL0     N49461   0.788   6.700   2.629  0.0941  0.5444  0.4234
  367MOL0     C49462   0.988   7.427   3.692  0.7530 -0.2561  1.0663
  367MOL0     C49463   1.007   7.546   3.764  0.3000  0.2252 -0.8391
  367MOL0     C49464   0.911   7.961   3.875  0.3329 -0.1597  0.7263
  367MOL0     C49465   0.875   7.974   4.010 -0.2998 -0.5488  0.2851
  367MOL0     C49466   0.865   8.101   4.064  0.6679 -0.4898  0.4504
  367MOL0     C49467   0.895   8.219   3.989 -0.5632 -0.4072  0.5097
  367MOL0     O49468   0.880   8.338   4.056 -0.2219  0.3208 -0.0214
  367MOL0     C49469   0.910   8.451   3.976  0.7263 -0.6250 -0.4927
  367MOL0     C49470   0.882   8.591   4.049  0.0508 -0.4047  1.1038
  367MOL0     C49471   0.970   8.609   4.166 -0.0887  0.5923 -0.2298
  367MOL0     C49472   0.975   8.757   4.210  0.1433  0.0926  0.0416
  367MOL0     C49473   1.086   8.836   4.157 -1.0067 -0.4290 -0.1564
  367MOL0     C49474   1.177   8.894   4.097  0.0984 -0.0835  0.5043
  367MOL0     C49475   0.927   8.201   3.856  0.1329 -0.4581  0.8634
  367MOL0     C49476   0.943   8.078   3.796  0.1938 -0.6985  0.0533
  367MOL0     C49477   0.998   8.074   3.655  0.2604 -0.6813  0.9498
  367MOL0     H49478   0.992   7.760   3.509  0.8270 -0.6995 -2.9314
  367MOL0     H49479   1.015   7.541   3.379 -2.6389 -0.6906  0.2130
  367MOL0     H49480   0.887   7.369   3.336  1.2522  2.1764 -1.0397
  367MOL0     H49481   1.047   7.336   3.291 -2.0749  1.0818 -0.9500
  367MOL0     H49482   0.847   7.112   3.382  1.2298  1.2694  1.6418
  367MOL0     H49483   1.000   7.091   3.301  2.4381  1.9947  0.5652
  367MOL0     H49484   0.900   7.230   3.103 -0.6539 -0.2238 -1.2624
  367MOL0     H49485   0.749   7.216   3.203  1.2920  0.9447  2.6280
  367MOL0     H49486   0.915   7.000   3.051 -0.9538 -0.3199 -2.1364
  367MOL0     H49487   0.801   6.944   3.180  1.1771 -0.3712  1.0475
  367MOL0     H49488   0.609   7.066   3.064  0.7122  0.4986  1.0799
  367MOL0     H49489   0.731   7.115   2.949  0.0919  1.4904  1.5605
  367MOL0     H49490   0.777   6.838   2.944 -0.0211  1.1209  0.8179
  367MOL0     H49491   0.623   6.836   3.037  1.8593  1.9719  4.1812
  367MOL0     H49492   0.688   6.966   2.772 -0.0975  1.6956  3.5279
  367MOL0     H49493   0.526   6.964   2.848 -0.5618 -1.6150  2.7308
  367MOL0     H49494   0.504   6.711   2.797 -1.8216  0.5506 -0.5636
  367MOL0     H49495   0.548   6.800   2.650  0.8005 -0.5023  0.0925
  367MOL0     H49496   0.670   6.534   2.893 -2.4065  1.9406 -0.7668
  367MOL0     H49497   0.838   6.327   2.820 -0.1140  1.3611  3.3392
  367MOL0     H49498   0.974   6.380   2.707  1.4903  2.3802 -0.0363
  367MOL0     H49499   0.955   6.487   2.987 -0.0274  1.5952 -0.9499
  367MOL0     H49500   1.000   6.321   2.961 -2.7104 -0.3588  1.0321
  367MOL0     H49501   1.172   6.388   2.798  1.0235 -2.4694  3.9823
  367MOL0     H49502   1.198   6.418   2.964 -0.5829 -0.5144  1.5127
  367MOL0     H49503   1.087   6.637   2.767  0.0895 -1.6410 -1.7473
  367MOL0     H49504   1.261   6.607   2.814 -0.3398  0.5142  0.7826
  367MOL0     H49505   1.044   6.844   2.753  1.8162  0.4244 -1.0857
  367MOL0     H49506   1.061   7.088   2.742  2.2586  0.3330 -0.8063
  367MOL0     H49507   0.948   7.448   2.721  0.0217 -0.4981  1.1639
  367MOL0     H49508   0.941   7.697   2.682 -0.2820 -0.3935 -1.0985
  367MOL0     H49509   1.305   7.913   2.857  2.9377 -0.0267 -1.3222
  367MOL0     H49510   1.313   7.936   2.679  0.1852  1.4434  0.5068
  367MOL0     H49511   1.300   8.138   2.796 -0.5130  0.8292 -0.7137
  367MOL0     H49512   1.182   8.112   2.668  3.6601 -3.1943 -2.0998
  367MOL0     H49513   1.004   8.058   2.862  0.0370  0.1546 -0.4743
  367MOL0     H49514   1.141   8.095   2.971  0.1810 -0.3983  0.7249
  367MOL0     H49515   1.013   8.266   2.746  0.3064 -2.8400 -0.1079
  367MOL0     H49516   1.122   8.346   2.850 -0.9310  1.6313  0.5813
  367MOL0     H49517   0.999   8.274   3.055 -1.1939 -1.3450 -0.0635
  367MOL0     H49518   0.861   8.259   2.959 -0.2080  0.3711 -0.9601
  367MOL0     H49519   1.002   8.523   2.957  2.0263 -1.8036 -0.4417
  367MOL0     H49520   0.857   8.471   2.877  1.3419  1.1298  0.3090
  367MOL0     H49521   0.901   8.492   3.180 -1.3382  0.6739 -0.1864
  367MOL0     H49522   0.753   8.414   3.099 -0.5431 -0.3286 -4.1548
  367MOL0     H49523   0.857   8.701   3.070  1.7440 -2.1626 -0.1269
  367MOL0     H49524   0.727   8.637   2.970 -2.0208 -3.0205  1.3436
  367MOL0     H49525   1.341   7.722   2.828 -0.2774  1.2167 -3.7366
  367MOL0     H49526   1.350   7.477   2.860  1.2631 -0.4889 -1.3394
  367MOL0     H49527   1.250   7.096   3.135  0.6169  1.1732  0.1761
  367MOL0     H49528   1.255   6.851   3.135  1.2247 -0.4028 -1.0910
  367MOL0     H49529   0.961   7.340   3.751 -2.6798 -1.2574 -1.5810
  367MOL0     H49530   0.998   7.544   3.872 -2.1114 -3.9791 -0.9138
  367MOL0     H49531   0.852   7.894   4.079  0.1518 -0.8987  0.0368
  367MOL0     H49532   0.842   8.101   4.170  3.1896  5.0077  1.3570
  367MOL0     H49533   0.856   8.458   3.881 -0.8590  2.4748  0.4697
  367MOL0     H49534   1.017   8.453   3.955  0.9251  3.6021 -0.0243
  367MOL0     H49535   0.779   8.594   4.085 -0.4376  0.9541 -0.3298
  367MOL0     H49536   0.907   8.676   3.985  1.3957 -2.0312 -0.6550
  367MOL0     H49537   1.072   8.575   4.150  1.1417  2.9376  1.8942
  367MOL0     H49538   0.931   8.541   4.242 -0.1488  1.2572  0.3503
  367MOL0     H49539   0.879   8.807   4.194 -0.6128 -0.0377  3.3874
  367MOL0     H49540   0.987   8.761   4.319 -0.3708  0.5408  0.0845
  367MOL0     H49541   1.255   8.948   4.047  0.4348 -1.4781 -0.5514
  367MOL0     H49542   0.954   8.286   3.794  1.8151 -0.9437  0.8798
  367MOL0     H49543   1.004   8.175   3.615  2.3669 -0.6547  1.2008
  367MOL0     H49544   1.098   8.030   3.651  0.9278  0.7868  1.0451
  367MOL0     H49545   0.930   8.015   3.592  0.6772  0.3773 -0.5578
  368MOL0     O49546  10.852   1.602   3.876  0.6446  0.5967 -0.0087
  368MOL0     C49547  10.830   1.544   3.986  0.6764  0.0534  0.5402
  368MOL0     O49548  10.836   1.403   4.008 -0.0831 -0.5265 -0.5885
  368MOL0     C49549  10.854   1.322   3.904  0.2459  0.4602 -0.5747
  368MOL0     C49550  10.968   1.241   3.896 -0.8641  0.0940  0.6897
  368MOL0     C49551  10.999   1.155   3.783 -0.4488 -0.1599 -0.4892
  368MOL0     C49552  10.902   1.142   3.676 -1.5286  0.1008  1.1038
  368MOL0     O49553  10.926   1.068   3.557 -0.0184 -0.3291  0.1019
  368MOL0     C49554  11.060   1.043   3.539  0.0862  0.1886 -0.1552
  368MOL0     C49555  11.062   0.995   3.397  0.9398 -1.2638 -0.2356
  368MOL0     C49556  11.206   0.949   3.351  0.2607 -0.4564  0.1991
  368MOL0     C49557  11.288   1.062   3.280  0.0498 -1.3451 -0.3297
  368MOL0     C49558  11.422   1.012   3.230 -0.2786 -0.9119  0.8393
  368MOL0     C49559  11.495   1.123   3.140  0.0306 -0.5768 -0.3989
  368MOL0     C49560  11.634   1.077   3.093 -0.2719  0.9985 -0.4748
  368MOL0     C49561  11.716   1.194   3.029 -0.7741 -0.0245  0.2835
  368MOL0     N49562  11.852   1.151   3.001 -0.1563 -0.3184  0.3825
  368MOL0     C49563  11.963   1.166   3.086  0.6332 -0.2578  0.3974
  368MOL0     C49564  12.069   1.132   3.012  0.3910  0.2344 -0.0681
  368MOL0     C49565  12.214   1.128   3.058 -0.0443  0.8411 -0.5391
  368MOL0     C49566  12.224   1.028   3.167  0.7579  0.4154 -0.4000
  368MOL0     C49567  12.368   0.987   3.178  0.7505  0.7593 -0.8388
  368MOL0     C49568  12.387   0.883   3.295 -0.3057 -0.3341 -0.5671
  368MOL0     O49569  12.337   0.938   3.421 -0.6145  0.0070 -0.5228
  368MOL0     C49570  12.435   0.970   3.512 -0.4614 -0.5097 -0.1497
  368MOL0     C49571  12.545   1.057   3.487 -0.2592 -1.0137 -0.0760
  368MOL0     C49572  12.652   1.059   3.572 -0.9575 -0.8477 -0.1116
  368MOL0     C49573  12.646   1.011   3.705  0.1347 -0.2805  0.2188
  368MOL0     C49574  12.758   1.024   3.798  0.3858 -0.0483  0.1564
  368MOL0     O49575  12.747   0.948   3.909 -0.6965 -0.5903  0.4977
  368MOL0     C49576  12.844   0.950   4.001 -0.1778  0.1125  0.1758
  368MOL0     C49577  12.808   0.980   4.131 -0.1817  0.5817 -0.2883
  368MOL0     C49578  12.912   0.983   4.227 -0.0983  0.1468  0.7551
  368MOL0     C49579  13.042   0.948   4.196 -0.5798  0.0839 -0.3283
  368MOL0     O49580  13.122   0.948   4.304  0.6440  0.8429 -0.5123
  368MOL0     C49581  13.261   0.927   4.293 -0.7759 -0.5255 -0.7899
  368MOL0     C49582  13.332   1.058   4.261  0.2468  0.3945 -0.2642
  368MOL0     C49583  13.484   1.053   4.260  0.7902  0.4962 -0.0519
  368MOL0     C49584  13.549   1.166   4.342 -1.2345 -0.5873  0.4678
  368MOL0     C49585  13.700   1.186   4.320 -0.4848  0.2569 -0.1044
  368MOL0     C49586  13.754   1.302   4.399 -0.1357  0.6599  0.1714
  368MOL0     C49587  13.904   1.298   4.369 -0.3259 -0.9934 -0.0612
  368MOL0     C49588  13.977   1.369   4.482 -0.7441  0.0702  0.7321
  368MOL0    Cl49589  14.143   1.340   4.458 -0.0307  0.2571  0.3144
  368MOL0     C49590  13.079   0.921   4.071 -0.1378  0.2003 -0.0807
  368MOL0     C49591  12.976   0.921   3.975  0.0578 -0.3771  0.3757
  368MOL0     O49592  12.847   1.102   3.772 -0.3805 -0.0924  0.1565
  368MOL0     C49593  12.523   0.940   3.735  0.4301 -0.1917 -0.0514
  368MOL0     C49594  12.424   0.926   3.639  0.1065  0.6191  0.9666
  368MOL0     N49595  12.030   1.097   2.888  0.5278  0.1493  0.5481
  368MOL0     N49596  11.899   1.105   2.880 -0.7159  0.2709 -0.4385
  368MOL0     C49597  10.777   1.213   3.694 -0.2500 -0.9135  0.5312
  368MOL0     C49598  10.760   1.310   3.797  0.2214 -0.1881  0.8371
  368MOL0     C49599  10.774   1.632   4.105 -0.4873  0.0955  0.2208
  368MOL0     C49600  10.777   1.570   4.237  0.4278 -0.6304  0.4628
  368MOL0     C49601  10.729   1.642   4.349 -0.6736  1.1135  0.2468
  368MOL0     C49602  10.672   1.767   4.324  0.1656  0.4471  0.8248
  368MOL0     O49603  10.621   1.834   4.433 -0.0386 -0.0463 -0.2724
  368MOL0     C49604  10.489   1.904   4.409  0.5435  0.0432  0.1569
  368MOL0     C49605  10.411   1.882   4.536 -0.3681  0.2609 -0.2100
  368MOL0     C49606  10.385   1.733   4.559 -0.6336 -0.2722 -0.5700
  368MOL0     C49607  10.460   1.672   4.671  0.1887  0.2564  0.3159
  368MOL0     C49608  10.440   1.530   4.652  0.2016 -0.1696  1.1615
  368MOL0     C49609  10.442   1.402   4.657 -0.7232  0.1009 -0.3145
  368MOL0     C49610  10.674   1.825   4.203  0.3421 -0.0018  0.0794
  368MOL0     C49611  10.727   1.772   4.086  1.2953  0.6691 -0.3874
  368MOL0     C49612  10.704   1.839   3.958  0.8827 -0.3549  0.3362
  368MOL0     H49613  11.048   1.252   3.968  0.8293  2.2528 -1.3626
  368MOL0     H49614  11.097   1.109   3.777 -0.3160 -0.0754  0.7712
  368MOL0     H49615  11.115   1.136   3.556  1.0684 -0.9231  3.7991
  368MOL0     H49616  11.104   0.970   3.608 -0.9098 -1.9099 -1.6614
  368MOL0     H49617  11.027   1.066   3.321  5.1863  0.6521 -0.7096
  368MOL0     H49618  10.995   0.908   3.394 -1.2389  0.3343 -0.8759
  368MOL0     H49619  11.196   0.867   3.279  0.8763 -0.2604 -0.1241
  368MOL0     H49620  11.255   0.906   3.439 -1.4377 -0.6116  1.1108
  368MOL0     H49621  11.231   1.095   3.192 -0.0829 -2.3477 -0.6310
  368MOL0     H49622  11.310   1.132   3.361  2.3253 -2.8844  0.4784
  368MOL0     H49623  11.484   0.977   3.313  3.6273  2.0541 -0.4767
  368MOL0     H49624  11.405   0.924   3.167 -0.2421 -0.5669  0.3360
  368MOL0     H49625  11.436   1.141   3.049 -0.4789 -0.7736 -0.1090
  368MOL0     H49626  11.515   1.214   3.196 -0.0405 -0.7321 -0.1208
  368MOL0     H49627  11.626   0.994   3.023  2.6366 -0.7131  1.0264
  368MOL0     H49628  11.685   1.034   3.180 -2.7906 -4.3551 -1.2182
  368MOL0     H49629  11.668   1.230   2.938  0.4814  2.3083  0.4441
  368MOL0     H49630  11.713   1.277   3.100 -0.3541  0.4486 -0.2371
  368MOL0     H49631  11.968   1.194   3.191 -1.2135 -2.4800  1.1654
  368MOL0     H49632  12.283   1.106   2.976 -1.1803  0.4173 -1.4226
  368MOL0     H49633  12.247   1.226   3.093 -0.7124  0.9453 -0.1928
  368MOL0     H49634  12.196   1.070   3.264 -0.1467  0.0829 -0.5128
  368MOL0     H49635  12.168   0.936   3.148 -0.0557  0.3727  1.8431
  368MOL0     H49636  12.431   1.075   3.198 -0.8840  1.5820  0.9829
  368MOL0     H49637  12.405   0.942   3.085  1.0367 -0.7464 -0.0275
  368MOL0     H49638  12.488   0.845   3.309 -0.8869 -1.0544  2.2525
  368MOL0     H49639  12.326   0.797   3.265 -0.4617 -1.4058  2.4655
  368MOL0     H49640  12.552   1.094   3.385  0.3965  1.6376  0.8629
  368MOL0     H49641  12.741   1.104   3.530 -0.9920  0.9510  1.6172
  368MOL0     H49642  12.707   1.015   4.146 -0.7257  0.4285 -3.1184
  368MOL0     H49643  12.893   0.983   4.334 -0.3638 -5.9452  1.0459
  368MOL0     H49644  13.294   0.896   4.392 -3.8847  0.0719  0.5707
  368MOL0     H49645  13.288   0.853   4.217 -1.2920  0.2627 -1.7676
  368MOL0     H49646  13.300   1.104   4.167 -1.0097 -0.1776 -0.1403
  368MOL0     H49647  13.298   1.133   4.334 -0.0470  2.0265 -1.9884
  368MOL0     H49648  13.511   0.961   4.312 -0.6210  0.3789  0.5248
  368MOL0     H49649  13.526   1.046   4.159  2.0180  1.8663  0.3419
  368MOL0     H49650  13.524   1.158   4.449  0.2850  2.6760  1.1954
  368MOL0     H49651  13.502   1.264   4.330 -3.9318 -1.1724  4.1917
  368MOL0     H49652  13.720   1.185   4.212  1.0308  3.1637  0.0466
  368MOL0     H49653  13.750   1.101   4.368 -0.1371  0.0277 -0.8495
  368MOL0     H49654  13.717   1.398   4.362  0.7828  0.2724 -1.9316
  368MOL0     H49655  13.728   1.285   4.504 -0.6747 -1.0822 -0.1972
  368MOL0     H49656  13.914   1.337   4.267 -0.9381 -0.6199  0.0138
  368MOL0     H49657  13.940   1.195   4.367  2.2601 -0.3521 -5.2839
  368MOL0     H49658  13.970   1.478   4.491  4.0514  0.8583 -1.8086
  368MOL0     H49659  13.945   1.329   4.579 -1.1073 -0.2047  0.5011
  368MOL0     H49660  13.179   0.897   4.038 -0.9949 -0.5482 -2.3086
  368MOL0     H49661  13.017   0.914   3.875  2.1173  2.4794  0.8877
  368MOL0     H49662  12.506   0.901   3.835  3.3394  3.2781  2.0856
  368MOL0     H49663  12.341   0.867   3.676  1.5024 -2.4467 -0.4715
  368MOL0     H49664  10.689   1.197   3.633 -0.4989  2.2538 -0.1342
  368MOL0     H49665  10.671   1.372   3.800  0.6704  0.7363 -2.2052
  368MOL0     H49666  10.812   1.468   4.245  3.3074 -0.1392 -3.0540
  368MOL0     H49667  10.721   1.594   4.446  2.4555  3.0192  1.5591
  368MOL0     H49668  10.435   1.881   4.317  2.1481  0.5577 -0.9666
  368MOL0     H49669  10.514   2.011   4.411 -0.0406  0.2800  3.9415
  368MOL0     H49670  10.319   1.942   4.535 -1.9497 -2.0041 -1.8617
  368MOL0     H49671  10.461   1.923   4.624 -0.9322  1.6259 -0.5082
  368MOL0     H49672  10.409   1.675   4.469  3.0007 -1.7901  1.1441
  368MOL0     H49673  10.282   1.721   4.594  0.5096 -1.4835  2.6849
  368MOL0     H49674  10.564   1.705   4.675 -0.0463  1.9125 -3.3815
  368MOL0     H49675  10.419   1.703   4.768  2.3330  1.2442  0.9565
  368MOL0     H49676  10.440   1.296   4.671  0.4067  0.1268  0.1700
  368MOL0     H49677  10.637   1.928   4.204 -1.1805 -0.5228  0.8728
  368MOL0     H49678  10.606   1.807   3.921  0.1051 -3.1662  4.1965
  368MOL0     H49679  10.720   1.946   3.967  0.3163 -0.1203 -1.2163
  368MOL0     H49680  10.784   1.809   3.890  3.1543  2.1291  1.7560
  369MOL0     O49681  10.077   8.745   9.839  0.3424  0.0774 -0.1467
  369MOL0     C49682  10.069   8.780   9.719 -0.2198 -0.1149 -0.7056
  369MOL0     O49683  10.132   8.705   9.618 -0.3529 -0.1904  0.6920
  369MOL0     C49684  10.206   8.592   9.644 -1.0278 -0.6484  1.2987
  369MOL0     C49685  10.156   8.491   9.716 -0.4588 -0.5410  0.1880
  369MOL0     C49686  10.232   8.373   9.737 -0.8470  0.5955 -0.1811
  369MOL0     C49687  10.359   8.358   9.677  0.1344  0.2664 -0.6046
  369MOL0     O49688  10.429   8.243   9.715  0.3145  0.3874  0.1145
  369MOL0     C49689  10.542   8.215   9.634 -1.1569 -0.2270  0.1587
  369MOL0     C49690  10.596   8.080   9.673  0.8075  1.4712  0.7660
  369MOL0     C49691  10.496   7.959   9.626  0.2406  0.0212 -0.4396
  369MOL0     C49692  10.549   7.816   9.645  0.1250  0.2588  1.0415
  369MOL0     C49693  10.431   7.727   9.600 -0.1183  0.4236  0.0190
  369MOL0     C49694  10.486   7.585   9.585 -0.2201 -0.0669  0.2542
  369MOL0     C49695  10.374   7.502   9.541 -0.6371  0.6611  0.8279
  369MOL0     C49696  10.419   7.347   9.548  0.3030 -0.5727 -0.1857
  369MOL0     N49697  10.562   7.313   9.529 -0.5652 -0.7097  0.5936
  369MOL0     C49698  10.610   7.240   9.425 -0.2036  0.0995  0.3301
  369MOL0     C49699  10.738   7.207   9.455  0.3693 -0.0856  0.0986
  369MOL0     C49700  10.821   7.116   9.369 -0.4042  0.1715  0.0957
  369MOL0     C49701  10.750   6.984   9.325  0.4472 -0.0514 -0.5435
  369MOL0     C49702  10.782   6.865   9.411  0.3182 -0.2639 -0.0042
  369MOL0     C49703  10.700   6.744   9.377 -0.1024 -0.0026  0.6107
  369MOL0     O49704  10.732   6.706   9.244 -0.0510  0.3328 -0.2961
  369MOL0     C49705  10.690   6.584   9.198 -0.9591 -0.0852  1.0042
  369MOL0     C49706  10.645   6.474   9.278  0.7442 -0.5869 -0.4260
  369MOL0     C49707  10.571   6.375   9.221 -1.2699  0.4272  0.4443
  369MOL0     C49708  10.560   6.366   9.083  0.1910 -0.2578  0.3393
  369MOL0     C49709  10.465   6.267   9.029 -0.5236 -0.3913 -0.4144
  369MOL0     O49710  10.392   6.189   9.115 -0.5065 -0.0443  0.4252
  369MOL0     C49711  10.302   6.102   9.059 -0.0789  0.0649 -0.5861
  369MOL0     C49712  10.287   5.980   9.114  0.8056  0.8560  0.2913
  369MOL0     C49713  10.184   5.890   9.080  0.5594 -0.2006  0.7750
  369MOL0     C49714  10.089   5.927   8.984 -0.6283  0.3014  0.4712
  369MOL0     O49715   9.989   5.839   8.938 -0.3785 -0.1403 -0.3799
  369MOL0     C49716   9.957   5.725   9.022 -0.0157  1.2894  0.0687
  369MOL0     C49717   9.818   5.668   8.996 -0.0020 -0.0038  0.9572
  369MOL0     C49718   9.761   5.572   9.104 -0.0934  0.9319  0.0348
  369MOL0     C49719   9.641   5.502   9.051 -0.4601 -0.2024  0.0990
  369MOL0     C49720   9.602   5.391   9.155 -0.7610  0.3707 -0.5299
  369MOL0     C49721   9.522   5.282   9.093 -0.1825 -0.5430  0.0832
  369MOL0     C49722   9.512   5.171   9.187  0.4066  0.1795 -1.0652
  369MOL0     C49723   9.408   5.075   9.131  0.5211  0.0443  0.9077
  369MOL0    Cl49724   9.461   5.003   8.971  0.0333 -0.4284 -0.1776
  369MOL0     C49725  10.092   6.053   8.919  0.4216  0.5860 -0.4985
  369MOL0     C49726  10.199   6.136   8.964 -1.4726  0.3238 -0.6267
  369MOL0     O49727  10.450   6.274   8.910 -0.7201 -0.0572 -0.3467
  369MOL0     C49728  10.624   6.461   9.001 -0.0687  0.6407 -0.3566
  369MOL0     C49729  10.692   6.571   9.056 -0.7132  1.3097  0.9907
  369MOL0     N49730  10.766   7.278   9.576  0.6269  0.6288 -0.1911
  369MOL0     N49731  10.664   7.336   9.623 -0.2763 -0.3963 -0.4434
  369MOL0     C49732  10.400   8.462   9.596 -0.4932  0.0101  0.1990
  369MOL0     C49733  10.326   8.579   9.578 -0.0831  0.7157  0.3426
  369MOL0     C49734   9.976   8.887   9.677 -0.8954  0.6978 -0.0331
  369MOL0     C49735   9.974   8.920   9.541 -1.2235 -0.0764  0.0392
  369MOL0     C49736   9.887   9.012   9.495 -0.3622 -1.0370  0.1542
  369MOL0     C49737   9.797   9.075   9.579 -0.1657 -0.5735 -1.1285
  369MOL0     O49738   9.699   9.174   9.545 -1.1130  0.1921 -0.2069
  369MOL0     C49739   9.661   9.179   9.406 -0.5198 -0.4205  0.3070
  369MOL0     C49740   9.520   9.243   9.399 -0.2675  0.8609  0.3004
  369MOL0     C49741   9.467   9.268   9.254 -0.6660  0.5563 -0.5099
  369MOL0     C49742   9.340   9.356   9.254 -1.0964 -0.9799  0.7368
  369MOL0     C49743   9.230   9.287   9.313  0.0374 -0.4640  0.3550
  369MOL0     C49744   9.141   9.228   9.364  0.0892 -0.8655 -0.2751
  369MOL0     C49745   9.789   9.042   9.720  0.0381 -0.2905 -0.9498
  369MOL0     C49746   9.879   8.937   9.769 -0.5643 -0.4719  0.1480
  369MOL0     C49747   9.865   8.900   9.917 -0.2515  0.9409 -0.4222
  369MOL0     H49748  10.058   8.508   9.760 -0.6655  1.1355 -0.8112
  369MOL0     H49749  10.187   8.302   9.806 -1.5833  0.1012 -1.1464
  369MOL0     H49750  10.517   8.232   9.529 -0.0444  1.1032  0.0715
  369MOL0     H49751  10.622   8.289   9.644  0.1016 -1.4452 -0.4517
  369MOL0     H49752  10.619   8.087   9.780  3.6942 -0.1589  0.3754
  369MOL0     H49753  10.695   8.059   9.630  0.7838 -2.1572  2.1705
  369MOL0     H49754  10.477   7.970   9.519 -0.6659  1.2177 -0.1896
  369MOL0     H49755  10.400   7.970   9.677  1.2110 -2.3306  2.1017
  369MOL0     H49756  10.630   7.812   9.571  1.1019  0.8871  2.0486
  369MOL0     H49757  10.592   7.790   9.743  0.4266 -0.5249  0.7182
  369MOL0     H49758  10.350   7.726   9.674  0.4035 -0.9003  0.5839
  369MOL0     H49759  10.395   7.753   9.500 -3.5546 -1.1299  0.6912
  369MOL0     H49760  10.557   7.577   9.503 -0.2749 -0.0854  0.2084
  369MOL0     H49761  10.534   7.543   9.674  0.0005 -3.0720 -1.1679
  369MOL0     H49762  10.351   7.516   9.435  2.5647 -1.4894 -0.2977
  369MOL0     H49763  10.277   7.506   9.593 -2.0306 -0.1211 -1.5627
  369MOL0     H49764  10.397   7.317   9.651 -0.9643 -3.3018 -1.1682
  369MOL0     H49765  10.346   7.290   9.490  0.9567 -1.3133 -0.2942
  369MOL0     H49766  10.569   7.200   9.332  0.3812  2.3852 -0.9781
  369MOL0     H49767  10.843   7.179   9.283  0.8788 -0.9489 -0.4524
  369MOL0     H49768  10.920   7.102   9.414 -0.2105  0.3325 -0.2744
  369MOL0     H49769  10.642   7.003   9.326  0.4398 -0.1053 -0.2194
  369MOL0     H49770  10.780   6.972   9.221 -1.5232  1.1776 -1.3039
  369MOL0     H49771  10.758   6.903   9.511 -1.9082  0.8420 -0.8804
  369MOL0     H49772  10.888   6.841   9.424  0.1675 -1.9568 -1.5591
  369MOL0     H49773  10.592   6.760   9.388  0.2737  1.7759  2.3347
  369MOL0     H49774  10.732   6.675   9.455  0.9500 -0.4605 -0.2007
  369MOL0     H49775  10.652   6.484   9.386 -1.6135 -1.5087 -0.1350
  369MOL0     H49776  10.528   6.298   9.285 -1.3125 -0.9560 -1.1971
  369MOL0     H49777  10.352   5.946   9.194  0.5277  2.5690  1.2974
  369MOL0     H49778  10.173   5.796   9.134 -0.7814 -0.4875  0.0662
  369MOL0     H49779  10.020   5.638   9.003 -1.9883  0.2479 -2.4498
  369MOL0     H49780   9.959   5.754   9.127  2.6735 -0.3283  0.5523
  369MOL0     H49781   9.750   5.753   8.989  0.4587  0.4654  1.9986
  369MOL0     H49782   9.809   5.613   8.902 -0.5887  1.4820  0.1157
  369MOL0     H49783   9.845   5.504   9.122  0.1407 -0.1451 -4.1299
  369MOL0     H49784   9.727   5.624   9.194 -1.0338  1.5292 -0.6500
  369MOL0     H49785   9.671   5.457   8.956 -1.3123 -0.1511 -0.2064
  369MOL0     H49786   9.551   5.561   9.035 -0.5502  0.0489  1.3965
  369MOL0     H49787   9.544   5.434   9.237  1.2600 -1.2472  1.8773
  369MOL0     H49788   9.693   5.354   9.203  0.5745  1.0167 -2.4487
  369MOL0     H49789   9.429   5.318   9.048 -0.4125 -2.2331 -0.8726
  369MOL0     H49790   9.559   5.240   9.000 -0.3203  0.5443 -0.4835
  369MOL0     H49791   9.474   5.204   9.284  0.8132  1.5785 -1.3695
  369MOL0     H49792   9.606   5.117   9.203 -1.4035 -2.4796  2.0052
  369MOL0     H49793   9.392   5.000   9.209 -2.0401  1.2017  1.6234
  369MOL0     H49794   9.314   5.130   9.118 -1.4185 -2.8169  1.8059
  369MOL0     H49795  10.020   6.079   8.841 -0.1798 -1.2717 -0.6358
  369MOL0     H49796  10.213   6.234   8.919  1.1236  1.2464  1.8479
  369MOL0     H49797  10.612   6.450   8.894 -2.2883 -1.1022  0.0070
  369MOL0     H49798  10.742   6.649   9.000 -0.7448  2.0208  1.9241
  369MOL0     H49799  10.494   8.455   9.542 -0.4539 -1.1034  0.4051
  369MOL0     H49800  10.359   8.654   9.507  0.6393 -2.0272 -2.4583
  369MOL0     H49801  10.041   8.870   9.473  1.8219  1.8710  1.4118
  369MOL0     H49802   9.891   9.026   9.388 -0.5451 -5.0804 -0.5504
  369MOL0     H49803   9.657   9.080   9.359 -2.6617 -0.1693 -0.1319
  369MOL0     H49804   9.738   9.231   9.349 -0.9640 -2.9507 -2.8717
  369MOL0     H49805   9.526   9.340   9.449 -1.6765  1.3835 -0.4656
  369MOL0     H49806   9.440   9.177   9.434 -5.4154  3.4265 -4.7657
  369MOL0     H49807   9.461   9.165   9.218  5.3917 -0.3516  0.0576
  369MOL0     H49808   9.542   9.320   9.193  1.3077 -1.4073  0.0971
  369MOL0     H49809   9.367   9.448   9.307  1.8583 -1.0188 -0.4998
  369MOL0     H49810   9.306   9.375   9.151 -2.1132  1.6410  1.4634
  369MOL0     H49811   9.059   9.180   9.414 -3.1643  3.5961 -0.6852
  369MOL0     H49812   9.717   9.095   9.781  1.4550  0.2831  0.2635
  369MOL0     H49813   9.846   8.793   9.928 -1.0863  0.8573 -2.3347
  369MOL0     H49814   9.960   8.918   9.969 -0.6685  0.1422  0.6280
  369MOL0     H49815   9.788   8.966   9.959 -2.0133 -1.4119  0.2059
  370MOL0     O49816   8.883   5.390   3.424 -0.0677  1.1335  0.2898
  370MOL0     C49817   8.906   5.500   3.473  0.0423  0.3317  0.4383
  370MOL0     O49818   9.034   5.543   3.502  0.1621  0.7787 -0.2861
  370MOL0     C49819   9.108   5.452   3.562  0.1419 -0.4620  0.0456
  370MOL0     C49820   9.075   5.407   3.695 -0.8851 -0.5739  0.2906
  370MOL0     C49821   9.163   5.314   3.749  0.8465 -0.4710 -0.2145
  370MOL0     C49822   9.282   5.274   3.683  0.8814 -0.0693 -0.3691
  370MOL0     O49823   9.359   5.171   3.727 -0.3235  0.2855 -0.1573
  370MOL0     C49824   9.408   5.176   3.862 -0.9846 -0.5397 -1.2995
  370MOL0     C49825   9.518   5.289   3.887  0.3288  0.1450  0.0921
  370MOL0     C49826   9.555   5.297   4.034 -0.8705 -0.3882 -1.3477
  370MOL0     C49827   9.668   5.391   4.073  0.1196  0.3436  0.3296
  370MOL0     C49828   9.714   5.356   4.218  0.9477  0.4950 -0.1396
  370MOL0     C49829   9.798   5.469   4.278  0.3650 -0.8335 -0.0104
  370MOL0     C49830   9.743   5.615   4.257  0.0004 -0.0907 -0.0241
  370MOL0     C49831   9.798   5.713   4.368 -0.1177 -0.3843 -0.1518
  370MOL0     N49832   9.688   5.773   4.434 -0.2716 -0.2330  0.3730
  370MOL0     C49833   9.630   5.722   4.544  0.7519 -0.0278 -0.6595
  370MOL0     C49834   9.557   5.830   4.583  0.3738 -0.1056 -0.5917
  370MOL0     C49835   9.487   5.856   4.713  0.0357  0.5209  0.0863
  370MOL0     C49836   9.576   5.902   4.814 -0.7649 -1.2238  0.0060
  370MOL0     C49837   9.596   6.054   4.834 -0.2186 -0.8465  0.8192
  370MOL0     C49838   9.618   6.142   4.700  0.1086  0.4992  0.3324
  370MOL0     O49839   9.674   6.267   4.742  0.2544  0.1299  0.2090
  370MOL0     C49840   9.587   6.363   4.786 -0.6936 -0.2782  0.1948
  370MOL0     C49841   9.643   6.486   4.812 -0.0894 -0.5218 -0.3012
  370MOL0     C49842   9.565   6.592   4.848  0.2462  0.0032  0.5422
  370MOL0     C49843   9.424   6.586   4.853 -0.0621 -0.1258 -0.0836
  370MOL0     C49844   9.354   6.713   4.893 -0.2192  0.5789  0.3719
  370MOL0     O49845   9.219   6.694   4.916  0.0940 -0.2492 -0.8116
  370MOL0     C49846   9.161   6.799   4.986 -0.2439  1.0692  0.2409
  370MOL0     C49847   9.099   6.896   4.905  0.3707  0.3018  0.6669
  370MOL0     C49848   9.043   7.003   4.967 -0.9647 -0.2104  0.0209
  370MOL0     C49849   9.037   7.026   5.100  0.2395 -0.9121  0.3078
  370MOL0     O49850   8.973   7.131   5.160 -0.2429 -0.5307  0.7561
  370MOL0     C49851   8.829   7.141   5.117  0.5593 -0.4613 -0.0201
  370MOL0     C49852   8.755   7.247   5.197 -1.5283  0.3760 -0.0802
  370MOL0     C49853   8.613   7.286   5.158 -1.1941  0.6596 -0.4342
  370MOL0     C49854   8.577   7.411   5.232 -0.1371  0.7182 -0.8045
  370MOL0     C49855   8.430   7.435   5.218 -0.2005  0.6655 -0.0249
  370MOL0     C49856   8.392   7.493   5.075 -0.0994 -0.2720 -0.9324
  370MOL0     C49857   8.270   7.579   5.082  0.1161 -1.5949 -0.3353
  370MOL0     C49858   8.311   7.733   5.099  0.6063  0.5510  0.3232
  370MOL0    Cl49859   8.438   7.768   5.226  0.1337 -0.0426 -0.0221
  370MOL0     C49860   9.078   6.923   5.179  0.2159  0.0428 -0.2809
  370MOL0     C49861   9.150   6.810   5.126  0.5282 -0.0559 -0.5122
  370MOL0     O49862   9.413   6.817   4.906  0.7725 -0.4357  0.3212
  370MOL0     C49863   9.372   6.463   4.827  0.2908  0.7953 -0.6177
  370MOL0     C49864   9.450   6.351   4.794 -0.8276  0.6655  0.8489
  370MOL0     N49865   9.551   5.921   4.475  0.8467  0.2135 -0.5220
  370MOL0     N49866   9.634   5.891   4.387 -0.5651 -0.3423  0.2815
  370MOL0     C49867   9.308   5.316   3.558  0.1980  0.2797  0.6943
  370MOL0     C49868   9.227   5.410   3.494  0.5628 -0.0413 -0.1468
  370MOL0     C49869   8.801   5.595   3.486  0.4829 -0.4106  0.4489
  370MOL0     C49870   8.836   5.730   3.477  0.1548 -1.0059  0.5432
  370MOL0     C49871   8.735   5.831   3.510 -0.5082  0.0005  0.5387
  370MOL0     C49872   8.606   5.791   3.544 -0.2939 -0.6115  0.3442
  370MOL0     O49873   8.508   5.879   3.578  0.3436 -0.5262  0.7405
  370MOL0     C49874   8.524   6.023   3.542 -0.5767  0.1614  0.2978
  370MOL0     C49875   8.393   6.088   3.502  0.3693 -0.1314 -0.3946
  370MOL0     C49876   8.306   6.138   3.613 -0.2132 -1.2118 -0.4033
  370MOL0     C49877   8.313   6.044   3.745 -0.6250 -0.2347  0.0166
  370MOL0     C49878   8.208   6.086   3.837 -0.6220 -1.0420 -0.1207
  370MOL0     C49879   8.133   6.124   3.927 -1.0419  0.0915 -0.3379
  370MOL0     C49880   8.574   5.658   3.549 -0.0136 -0.3610  0.0829
  370MOL0     C49881   8.667   5.557   3.527 -0.4411  0.0691  0.0545
  370MOL0     C49882   8.617   5.421   3.561  0.6008  0.8865  0.7482
  370MOL0     H49883   8.984   5.431   3.747 -0.5471 -0.3802  0.7996
  370MOL0     H49884   9.137   5.272   3.846 -2.2889  2.3208  0.3437
  370MOL0     H49885   9.324   5.182   3.932 -1.1599 -4.1287 -0.9993
  370MOL0     H49886   9.463   5.085   3.887  1.5051  1.3658  0.7800
  370MOL0     H49887   9.480   5.388   3.859 -6.9317 -1.8456  1.0686
  370MOL0     H49888   9.600   5.274   3.815 -0.1194 -1.2493 -0.1474
  370MOL0     H49889   9.590   5.198   4.068  1.0865  0.2515 -1.3814
  370MOL0     H49890   9.465   5.322   4.091  0.0519  2.1168 -0.8976
  370MOL0     H49891   9.756   5.385   4.009  0.6228 -0.8073  1.0980
  370MOL0     H49892   9.622   5.491   4.070 -0.0175  0.2583 -1.9208
  370MOL0     H49893   9.638   5.348   4.297  1.5501  1.1213  0.5265
  370MOL0     H49894   9.765   5.259   4.210  0.8023  0.4051  0.0087
  370MOL0     H49895   9.805   5.454   4.386 -0.4750 -2.2730 -0.1371
  370MOL0     H49896   9.903   5.454   4.251  1.0522 -1.1063  2.5729
  370MOL0     H49897   9.633   5.612   4.258 -0.0370  1.0197  0.0948
  370MOL0     H49898   9.757   5.646   4.153  1.7197  0.6970  0.4119
  370MOL0     H49899   9.869   5.676   4.443 -0.6543  1.2926  1.2466
  370MOL0     H49900   9.858   5.791   4.321  1.2902 -0.8894  0.7315
  370MOL0     H49901   9.651   5.636   4.606  0.2384 -0.0879 -0.5630
  370MOL0     H49902   9.410   5.932   4.697 -0.8048 -0.5563 -1.0830
  370MOL0     H49903   9.445   5.763   4.750  1.5596 -1.2518 -2.3532
  370MOL0     H49904   9.549   5.857   4.910 -1.2974 -2.6940 -0.7935
  370MOL0     H49905   9.672   5.856   4.787  0.4098  0.8344  0.4516
  370MOL0     H49906   9.684   6.064   4.897  1.2508  0.1136 -1.2532
  370MOL0     H49907   9.504   6.089   4.883  0.6191 -1.1786  2.7054
  370MOL0     H49908   9.529   6.131   4.637  1.6386 -1.2734 -1.6989
  370MOL0     H49909   9.692   6.077   4.651 -1.3691  0.4237 -1.9722
  370MOL0     H49910   9.749   6.502   4.798 -0.4010  1.3898 -0.7528
  370MOL0     H49911   9.614   6.688   4.860 -1.7616  1.5214 -2.0304
  370MOL0     H49912   9.101   6.871   4.799  2.1830 -1.7251  1.1226
  370MOL0     H49913   9.004   7.083   4.904 -3.3779 -1.9706 -0.8592
  370MOL0     H49914   8.826   7.173   5.013 -0.4011 -2.1374 -0.5308
  370MOL0     H49915   8.780   7.044   5.117 -0.1607 -0.1899 -3.4060
  370MOL0     H49916   8.759   7.226   5.304 -1.2105 -1.4567 -0.4157
  370MOL0     H49917   8.816   7.337   5.184 -2.9424  1.4366  0.3173
  370MOL0     H49918   8.611   7.303   5.050  2.6698  0.1097 -0.7253
  370MOL0     H49919   8.543   7.206   5.185 -0.8601  0.2197 -0.8682
  370MOL0     H49920   8.624   7.506   5.205  2.8543 -0.1396  0.9372
  370MOL0     H49921   8.596   7.404   5.339 -2.3772  0.4161 -0.3714
  370MOL0     H49922   8.387   7.506   5.290 -0.9287  0.8100 -0.5877
  370MOL0     H49923   8.388   7.335   5.228  1.8944 -0.2505  0.0971
  370MOL0     H49924   8.477   7.546   5.031 -0.7777 -0.8155 -2.9808
  370MOL0     H49925   8.387   7.413   5.001  2.0877 -0.8190 -0.5618
  370MOL0     H49926   8.192   7.547   5.151 -1.4518 -0.0897 -1.3191
  370MOL0     H49927   8.221   7.561   4.986  2.3823 -0.7332 -1.7583
  370MOL0     H49928   8.353   7.761   5.002 -0.4626  0.6397 -0.1234
  370MOL0     H49929   8.225   7.795   5.126 -0.7642 -0.8443 -0.6761
  370MOL0     H49930   9.053   6.921   5.285  0.5979 -3.7731 -0.1234
  370MOL0     H49931   9.174   6.735   5.201 -4.4080 -0.4907  1.0396
  370MOL0     H49932   9.269   6.436   4.849  1.6243 -2.1300  3.2473
  370MOL0     H49933   9.396   6.259   4.777 -1.6950  1.2937  0.0257
  370MOL0     H49934   9.392   5.279   3.500  1.8850  2.3639  1.6972
  370MOL0     H49935   9.253   5.447   3.395 -1.3851 -1.6625 -1.3403
  370MOL0     H49936   8.934   5.763   3.445 -0.9744 -0.0368 -2.2290
  370MOL0     H49937   8.769   5.934   3.505  1.4947 -0.6299  0.4396
  370MOL0     H49938   8.585   6.035   3.452  0.1729 -0.0228  0.7723
  370MOL0     H49939   8.578   6.084   3.616 -2.5101  2.7837 -0.2987
  370MOL0     H49940   8.332   6.007   3.460  1.0011 -1.0268  0.3785
  370MOL0     H49941   8.400   6.156   3.416  1.5220 -2.8801 -2.6482
  370MOL0     H49942   8.202   6.140   3.578 -0.8707 -0.8022  1.4717
  370MOL0     H49943   8.350   6.238   3.622 -2.4192 -0.1815 -0.5844
  370MOL0     H49944   8.294   5.942   3.712  0.8606 -1.3695  2.3892
  370MOL0     H49945   8.411   6.056   3.793 -1.2875  1.0183  1.1413
  370MOL0     H49946   8.079   6.157   4.013  0.2777  1.4485  0.0127
  370MOL0     H49947   8.472   5.642   3.581 -1.5337  1.6873 -3.1962
  370MOL0     H49948   8.570   5.423   3.660 -3.5170 -1.0716 -0.9400
  370MOL0     H49949   8.539   5.406   3.486 -0.0663  2.4344  1.0810
  370MOL0     H49950   8.691   5.341   3.549  0.8700  1.1969  0.2906
  371MOL0     O49951  10.516   7.169   7.121  0.1742  0.1954  0.2796
  371MOL0     C49952  10.455   7.108   7.202 -0.9460 -0.2134 -0.6915
  371MOL0     O49953  10.509   7.007   7.277 -0.4529 -0.0351  0.3178
  371MOL0     C49954  10.644   6.988   7.287 -0.4521  0.3193 -0.7611
  371MOL0     C49955  10.729   7.059   7.370  0.5165  0.5279 -0.0277
  371MOL0     C49956  10.866   7.022   7.372  1.0058 -0.4371  0.5382
  371MOL0     C49957  10.917   6.922   7.292  0.2598 -0.4432  0.7693
  371MOL0     O49958  11.047   6.888   7.311 -0.5217  0.1805 -0.4302
  371MOL0     C49959  11.096   6.768   7.252 -0.3053 -0.1791  0.0275
  371MOL0     C49960  11.221   6.716   7.313  0.2672 -1.0837 -0.5738
  371MOL0     C49961  11.327   6.821   7.349  0.7325 -0.1661  0.0569
  371MOL0     C49962  11.400   6.874   7.224 -0.7451  0.1918  0.4984
  371MOL0     C49963  11.539   6.922   7.275 -0.2883  0.2046  0.1632
  371MOL0     C49964  11.645   6.807   7.315  0.9952 -0.3675  0.2127
  371MOL0     C49965  11.797   6.837   7.281  0.2267 -0.4312 -0.8211
  371MOL0     C49966  11.830   6.808   7.127 -0.1031  0.7204  0.0297
  371MOL0     N49967  11.832   6.656   7.100  0.2228  0.2136  0.5517
  371MOL0     C49968  11.907   6.565   7.168  1.1239  1.0724  0.1837
  371MOL0     C49969  11.845   6.445   7.132 -0.1529 -0.3366 -0.5456
  371MOL0     C49970  11.890   6.295   7.153  0.3164 -0.4000 -0.1999
  371MOL0     C49971  11.909   6.265   7.301 -0.9768  0.3581 -1.1796
  371MOL0     C49972  12.047   6.187   7.308 -0.1797  0.2800  0.1697
  371MOL0     C49973  12.075   6.120   7.443  0.7527 -0.0870  0.2366
  371MOL0     O49974  12.184   6.035   7.410  0.1830  0.2175 -0.2276
  371MOL0     C49975  12.260   5.988   7.514 -0.1154  0.0194  0.1909
  371MOL0     C49976  12.323   6.072   7.601  0.0108 -0.0938 -0.3493
  371MOL0     C49977  12.399   6.022   7.708 -0.7133  0.4660 -0.6370
  371MOL0     C49978  12.406   5.885   7.733  0.0135  0.7826  0.0519
  371MOL0     C49979  12.497   5.841   7.823 -0.6044  0.6776 -1.1051
  371MOL0     O49980  12.615   5.912   7.820  0.2468  0.9837 -1.2458
  371MOL0     C49981  12.716   5.865   7.890  0.5101 -0.0542 -0.8281
  371MOL0     C49982  12.827   5.838   7.823  0.1827  1.4615 -1.0467
  371MOL0     C49983  12.939   5.782   7.882 -0.1852 -0.3567 -0.2810
  371MOL0     C49984  12.939   5.753   8.015  0.9543  0.5407 -0.5984
  371MOL0     O49985  13.032   5.695   8.095 -1.0826  0.7277  0.4736
  371MOL0     C49986  13.169   5.683   8.038 -0.1158 -0.3048 -0.6441
  371MOL0     C49987  13.259   5.651   8.151  0.4440 -0.5474 -0.8635
  371MOL0     C49988  13.400   5.657   8.102 -0.0410  0.4311 -0.8528
  371MOL0     C49989  13.469   5.790   8.097  0.3934  0.0061  0.1629
  371MOL0     C49990  13.597   5.789   8.007 -0.7114 -0.0534  0.1245
  371MOL0     C49991  13.718   5.698   8.042  0.5867  0.2321  0.0491
  371MOL0     C49992  13.810   5.759   8.143 -0.1148 -0.2456 -0.7659
  371MOL0     C49993  13.755   5.760   8.286  0.4180  0.5169 -0.5012
  371MOL0    Cl49994  13.890   5.752   8.410  0.1775 -0.0081 -0.5533
  371MOL0     C49995  12.823   5.792   8.088 -0.0298  0.5494 -0.1483
  371MOL0     C49996  12.717   5.851   8.028 -0.1650  0.0515  0.7827
  371MOL0     O49997  12.474   5.738   7.891 -0.1754  0.5478 -0.1121
  371MOL0     C49998  12.336   5.796   7.644  0.6642  0.4196  0.1574
  371MOL0     C49999  12.264   5.846   7.534 -0.2288 -0.6488 -1.4028
  371MOL0     N50000  11.742   6.475   7.047  0.2887 -0.5413  0.4146
  371MOL0     N50001  11.724   6.596   7.034 -0.5871  0.1493 -0.0159
  371MOL0     C50002  10.836   6.857   7.201  0.8973 -0.4393  0.1474
  371MOL0     C50003  10.698   6.892   7.191 -0.1264 -0.5590  0.3807
  371MOL0     C50004  10.316   7.120   7.216  0.3413 -0.6024 -0.5479
  371MOL0     C50005  10.234   7.078   7.109  0.7112 -1.2128 -0.5708
  371MOL0     C50006  10.096   7.079   7.114  0.2028 -0.9778 -1.0098
  371MOL0     C50007  10.047   7.121   7.235  0.3672 -0.9207 -0.0715
  371MOL0     O50008   9.905   7.117   7.233  0.3195  1.0280  0.5771
  371MOL0     C50009   9.825   7.132   7.356 -0.4778 -0.2493  0.6610
  371MOL0     C50010   9.682   7.151   7.323  0.9082  0.3261 -0.2017
  371MOL0     C50011   9.587   7.132   7.452 -0.5507  0.3523  0.4067
  371MOL0     C50012   9.453   7.204   7.407  0.1919 -0.1021  0.2726
  371MOL0     C50013   9.399   7.143   7.281  0.2243 -0.2344  0.0140
  371MOL0     C50014   9.344   7.072   7.195  0.1649 -0.5597  0.7968
  371MOL0     C50015  10.119   7.168   7.345 -0.4884 -0.8392  0.1085
  371MOL0     C50016  10.260   7.162   7.338 -0.4292  0.6163  0.3851
  371MOL0     C50017  10.348   7.188   7.456 -0.3098  0.9179 -0.0172
  371MOL0     H50018  10.688   7.140   7.429 -1.5459 -0.0030 -0.6437
  371MOL0     H50019  10.937   7.067   7.441  1.2717  0.0154 -0.0269
  371MOL0     H50020  11.026   6.684   7.249  0.3261 -0.7077 -0.0247
  371MOL0     H50021  11.120   6.789   7.147 -4.8241  3.4692 -0.6355
  371MOL0     H50022  11.262   6.635   7.253 -1.6491 -0.0955 -3.4563
  371MOL0     H50023  11.183   6.664   7.402 -0.9197 -2.2008 -1.7067
  371MOL0     H50024  11.393   6.771   7.420 -2.7305 -1.2873  2.8085
  371MOL0     H50025  11.285   6.903   7.409 -1.0895 -1.6538  0.9489
  371MOL0     H50026  11.414   6.800   7.144  0.5801  1.1199 -0.1663
  371MOL0     H50027  11.357   6.967   7.187  2.2425  0.8323 -1.7338
  371MOL0     H50028  11.593   6.971   7.193 -4.2546 -0.1767 -2.9785
  371MOL0     H50029  11.523   6.991   7.358  0.6987  0.2954  0.2930
  371MOL0     H50030  11.632   6.785   7.421  0.9011  1.5142  0.6107
  371MOL0     H50031  11.619   6.723   7.250 -0.5303  1.2108 -1.3266
  371MOL0     H50032  11.857   6.764   7.336 -1.0507  0.8986  2.6743
  371MOL0     H50033  11.814   6.941   7.313 -3.0517  0.3456 -1.2561
  371MOL0     H50034  11.754   6.854   7.063 -0.7705 -0.8430 -0.3505
  371MOL0     H50035  11.920   6.862   7.096  0.0306  1.0364  0.9657
  371MOL0     H50036  11.993   6.591   7.229  0.3423 -0.6322  2.1560
  371MOL0     H50037  11.819   6.223   7.112  0.7696  0.2702 -2.2432
  371MOL0     H50038  11.982   6.270   7.099 -0.6983 -0.8732 -1.7684
  371MOL0     H50039  11.930   6.358   7.356  0.9409  0.7630 -2.4829
  371MOL0     H50040  11.822   6.213   7.342  0.6470 -0.2713  1.7341
  371MOL0     H50041  12.128   6.254   7.280 -2.8154  3.5319 -0.3666
  371MOL0     H50042  12.050   6.109   7.231 -1.0960  3.4487 -3.3483
  371MOL0     H50043  11.986   6.063   7.471  1.1846 -1.1258 -0.4675
  371MOL0     H50044  12.097   6.198   7.517 -2.9757  3.6239 -2.1260
  371MOL0     H50045  12.329   6.180   7.590 -0.0207 -0.2866 -2.5645
  371MOL0     H50046  12.449   6.093   7.774 -1.4710 -1.0671  1.7114
  371MOL0     H50047  12.824   5.870   7.720 -0.2321  1.6191 -0.9916
  371MOL0     H50048  13.025   5.768   7.818 -0.7557 -2.3788 -0.6988
  371MOL0     H50049  13.159   5.600   7.967 -4.4024 -0.4604 -0.1584
  371MOL0     H50050  13.193   5.775   7.984 -3.9162  1.8847  0.9365
  371MOL0     H50051  13.253   5.726   8.230 -3.1236 -1.9310  0.3709
  371MOL0     H50052  13.234   5.553   8.194 -3.9362  0.2730 -1.1213
  371MOL0     H50053  13.470   5.593   8.155  1.5063  1.1542 -1.9632
  371MOL0     H50054  13.403   5.621   7.999 -2.3862  4.3038 -2.5109
  371MOL0     H50055  13.496   5.825   8.197 -3.2031  0.9197  0.9746
  371MOL0     H50056  13.397   5.856   8.048  2.5096  0.9619 -1.8408
  371MOL0     H50057  13.629   5.893   8.020  0.8562 -0.5034 -0.0160
  371MOL0     H50058  13.565   5.761   7.906  2.0200  2.4516 -1.6058
  371MOL0     H50059  13.684   5.601   8.081 -1.0496  0.5257 -0.5827
  371MOL0     H50060  13.772   5.681   7.949 -0.4208 -2.5145 -0.1234
  371MOL0     H50061  13.835   5.861   8.113 -2.1849  1.2677  2.1667
  371MOL0     H50062  13.906   5.707   8.157  0.4466  1.2002  1.1945
  371MOL0     H50063  13.686   5.843   8.306  0.4952  0.5205 -0.2380
  371MOL0     H50064  13.711   5.663   8.311  2.9827 -0.3767  0.9934
  371MOL0     H50065  12.819   5.780   8.196 -2.6892  0.7618 -0.1620
  371MOL0     H50066  12.639   5.891   8.092 -1.5559 -3.1180  1.2778
  371MOL0     H50067  12.334   5.688   7.654  0.8903  0.2902 -1.0436
  371MOL0     H50068  12.212   5.772   7.474  0.8072 -2.0611 -0.5995
  371MOL0     H50069  10.879   6.782   7.135  1.4461  1.2391 -1.5113
  371MOL0     H50070  10.635   6.845   7.116 -0.4890 -2.1953  1.6395
  371MOL0     H50071  10.273   7.039   7.015  0.0185  0.0947 -1.4317
  371MOL0     H50072  10.040   7.060   7.024 -1.7139  2.4962 -0.7273
  371MOL0     H50073   9.848   7.217   7.421 -2.8669 -0.0167  1.3011
  371MOL0     H50074   9.828   7.042   7.419 -1.2358 -0.2081  0.7685
  371MOL0     H50075   9.660   7.072   7.250  0.8113 -0.8558  1.0743
  371MOL0     H50076   9.667   7.247   7.271 -0.7991 -1.0806 -2.4974
  371MOL0     H50077   9.627   7.176   7.544 -1.9473 -1.7566  2.1035
  371MOL0     H50078   9.584   7.023   7.460  1.7421  0.2656  0.7553
  371MOL0     H50079   9.380   7.194   7.488  0.2325  1.3839  0.5168
  371MOL0     H50080   9.468   7.312   7.393 -5.0850  0.7969 -0.3777
  371MOL0     H50081   9.292   7.008   7.127  0.2435  1.2908 -1.1294
  371MOL0     H50082  10.073   7.177   7.443 -2.1021  2.8414 -0.7999
  371MOL0     H50083  10.455   7.185   7.436  0.2411 -5.3836  1.9075
  371MOL0     H50084  10.321   7.286   7.498  1.2328  1.1006  0.5807
  371MOL0     H50085  10.328   7.124   7.542  0.5980  2.0130  1.0517
  372MOL0     O50086   9.191   5.315   9.199  0.2335  0.0023 -0.4414
  372MOL0     C50087   9.075   5.272   9.149 -0.9049 -0.6430 -0.3574
  372MOL0     O50088   9.040   5.283   9.016  0.0330 -0.6497  0.1905
  372MOL0     C50089   9.143   5.305   8.921  0.5100 -1.5855  0.4418
  372MOL0     C50090   9.214   5.422   8.907  0.2017 -0.3670 -0.5411
  372MOL0     C50091   9.312   5.433   8.810  0.7478  0.6092 -0.1392
  372MOL0     C50092   9.333   5.340   8.713 -0.7543 -1.2939 -0.8629
  372MOL0     O50093   9.410   5.355   8.601 -0.8827  0.4090 -0.4572
  372MOL0     C50094   9.498   5.467   8.592 -1.4412 -0.6516  0.1600
  372MOL0     C50095   9.574   5.456   8.461 -0.1058  0.1423 -0.5608
  372MOL0     C50096   9.703   5.550   8.448 -0.1754  0.0208  0.3641
  372MOL0     C50097   9.774   5.538   8.305  0.4781  0.1295 -0.2922
  372MOL0     C50098   9.837   5.672   8.257 -0.4867  0.1121 -0.7180
  372MOL0     C50099   9.926   5.668   8.131 -0.4473 -0.8946 -0.0230
  372MOL0     C50100  10.030   5.784   8.120  0.4717  0.3600  0.2239
  372MOL0     C50101   9.971   5.924   8.094  0.2548  1.0211 -0.1499
  372MOL0     N50102   9.881   5.928   7.975 -0.6110 -0.5154  0.9071
  372MOL0     C50103   9.898   5.874   7.851  0.0561  0.4629  0.1619
  372MOL0     C50104   9.801   5.922   7.767 -0.5405  0.1894 -0.3538
  372MOL0     C50105   9.797   5.906   7.622  0.5907  0.2882  0.2113
  372MOL0     C50106   9.677   5.832   7.572  0.7851  0.0116  0.0268
  372MOL0     C50107   9.700   5.783   7.421  0.5694  0.4586 -0.6402
  372MOL0     C50108   9.572   5.714   7.371 -0.1239  0.8669  0.4301
  372MOL0     O50109   9.589   5.672   7.233 -0.7325 -0.9840  0.7797
  372MOL0     C50110   9.488   5.605   7.170 -0.0613  1.0860 -0.9205
  372MOL0     C50111   9.367   5.559   7.225 -0.2939 -0.3546  0.7270
  372MOL0     C50112   9.271   5.499   7.147  0.0996 -0.0293 -0.3041
  372MOL0     C50113   9.293   5.464   7.017  0.4235 -0.2274  0.8925
  372MOL0     C50114   9.194   5.402   6.934 -0.2552  0.2091 -0.8157
  372MOL0     O50115   9.240   5.357   6.809 -0.1111  0.1041 -0.3236
  372MOL0     C50116   9.183   5.272   6.711  0.2760  0.0463 -0.1778
  372MOL0     C50117   9.092   5.165   6.724  0.3842  0.0530  0.3953
  372MOL0     C50118   9.040   5.099   6.606 -0.5445  0.9833  0.6320
  372MOL0     C50119   9.096   5.127   6.479  0.2612  0.8979 -0.2049
  372MOL0     O50120   9.058   5.040   6.379 -0.2214  0.8537  0.2644
  372MOL0     C50121   9.090   5.077   6.245 -0.7828 -0.6920 -0.1812
  372MOL0     C50122   9.017   4.973   6.152 -0.0581 -0.8386 -0.9791
  372MOL0     C50123   9.105   4.847   6.146 -0.1482 -0.8741 -0.4025
  372MOL0     C50124   9.029   4.737   6.077  0.1668  0.4393  0.0176
  372MOL0     C50125   9.106   4.605   6.081  0.1844 -0.3129 -0.2859
  372MOL0     C50126   9.043   4.520   5.965 -0.3344  0.2902 -0.6683
  372MOL0     C50127   9.115   4.385   5.962 -0.1563 -0.1326 -0.7890
  372MOL0     C50128   9.029   4.292   5.869  0.1896  0.1424 -0.3124
  372MOL0    Cl50129   9.105   4.317   5.711 -0.2046  0.0105 -0.3692
  372MOL0     C50130   9.192   5.229   6.471  0.4759 -0.5700  0.6016
  372MOL0     C50131   9.228   5.304   6.583  0.6983  0.6184  0.2151
  372MOL0     O50132   9.070   5.404   6.957 -0.8102 -0.1120 -0.1933
  372MOL0     C50133   9.422   5.504   6.964  0.7594 -0.1897  0.4251
  372MOL0     C50134   9.513   5.572   7.041  0.1701 -0.2098  0.1133
  372MOL0     N50135   9.720   6.000   7.843  0.2172  0.0506  0.9575
  372MOL0     N50136   9.771   6.009   7.961  0.4295  0.1302 -0.6041
  372MOL0     C50137   9.271   5.220   8.729  0.2438  1.1456 -0.2907
  372MOL0     C50138   9.172   5.205   8.831 -0.8427  0.2507  0.2883
  372MOL0     C50139   8.982   5.189   9.234 -0.2569  0.4437  0.1039
  372MOL0     C50140   8.899   5.099   9.166 -0.2247  0.3716  0.6997
  372MOL0     C50141   8.827   5.008   9.241  0.3236  0.5545  0.2792
  372MOL0     C50142   8.832   5.004   9.379  1.5805 -0.2271  0.8017
  372MOL0     O50143   8.766   4.916   9.461 -0.3027  0.1364  0.4024
  372MOL0     C50144   8.646   4.852   9.421  0.4062 -0.2165 -0.4979
  372MOL0     C50145   8.566   4.789   9.541 -0.4943 -0.0093 -0.0091
  372MOL0     C50146   8.656   4.712   9.622 -0.6387  0.2966 -0.5731
  372MOL0     C50147   8.760   4.612   9.551  0.1413 -0.2585  1.4385
  372MOL0     C50148   8.682   4.528   9.457  0.3256 -0.3401  0.1392
  372MOL0     C50149   8.602   4.469   9.380 -0.6069  0.2720 -0.1033
  372MOL0     C50150   8.919   5.092   9.448  0.1253 -1.0814  0.1778
  372MOL0     C50151   8.992   5.185   9.378  0.4130 -0.2121  0.3064
  372MOL0     C50152   9.044   5.299   9.456  0.0591 -0.1583 -0.4623
  372MOL0     H50153   9.208   5.508   8.974  0.7732 -0.9423  0.2673
  372MOL0     H50154   9.376   5.521   8.810  2.8264 -0.8185 -1.2891
  372MOL0     H50155   9.456   5.568   8.593  1.2231  0.9026 -4.8387
  372MOL0     H50156   9.566   5.453   8.676 -1.5487  0.5102  0.4565
  372MOL0     H50157   9.503   5.474   8.380  0.0964 -0.6475 -0.9228
  372MOL0     H50158   9.616   5.355   8.457 -0.2883 -0.1152  2.1623
  372MOL0     H50159   9.774   5.513   8.523 -1.1741 -1.0548  0.8019
  372MOL0     H50160   9.675   5.656   8.457 -1.2575 -0.1290 -1.0363
  372MOL0     H50161   9.848   5.457   8.310  0.4773  0.1473  0.0721
  372MOL0     H50162   9.696   5.501   8.238  1.3043 -3.6029  0.5762
  372MOL0     H50163   9.773   5.760   8.250  0.2129  0.5232 -2.9819
  372MOL0     H50164   9.903   5.691   8.342 -0.6015  0.3518 -0.6832
  372MOL0     H50165   9.986   5.577   8.144 -0.6237 -0.8009  1.6810
  372MOL0     H50166   9.874   5.672   8.035  0.1615  0.3196 -0.3294
  372MOL0     H50167  10.096   5.761   8.035 -0.6645  0.8902 -0.8323
  372MOL0     H50168  10.095   5.790   8.207 -0.4958  2.9574  0.8339
  372MOL0     H50169   9.905   5.948   8.178  1.2557  0.3126  0.8832
  372MOL0     H50170  10.047   6.002   8.098  0.0146  1.1992  1.7526
  372MOL0     H50171   9.985   5.814   7.825 -1.3480 -2.3074  1.4838
  372MOL0     H50172   9.815   5.998   7.566  3.5350 -1.8376 -2.7611
  372MOL0     H50173   9.888   5.854   7.591  2.7379  3.5245  0.6672
  372MOL0     H50174   9.661   5.734   7.619 -1.0279 -0.5873 -1.7168
  372MOL0     H50175   9.593   5.902   7.569  2.0005  1.4927 -2.5652
  372MOL0     H50176   9.785   5.718   7.401 -0.0947  0.3853 -3.7541
  372MOL0     H50177   9.715   5.876   7.366  0.9011  1.3160  0.8567
  372MOL0     H50178   9.480   5.770   7.390 -1.3562 -0.3091 -1.7067
  372MOL0     H50179   9.570   5.618   7.423  0.9406  0.3732 -0.3725
  372MOL0     H50180   9.336   5.569   7.328 -1.2863 -0.8871  0.4938
  372MOL0     H50181   9.169   5.481   7.178  0.3956 -2.4679 -0.5155
  372MOL0     H50182   9.041   5.141   6.817 -1.6404 -3.9366 -1.4485
  372MOL0     H50183   8.968   5.018   6.602 -0.9985  1.3939 -2.4223
  372MOL0     H50184   9.064   5.180   6.221  1.3412  0.4518  1.9769
  372MOL0     H50185   9.197   5.055   6.240 -0.3927  1.1805 -0.8300
  372MOL0     H50186   8.920   4.959   6.201  0.1649 -1.2028 -0.6289
  372MOL0     H50187   8.989   5.007   6.053 -3.7077  1.2552  0.5974
  372MOL0     H50188   9.193   4.868   6.085 -1.3381  3.3342 -1.0487
  372MOL0     H50189   9.140   4.819   6.246  0.5409  1.9202  0.2482
  372MOL0     H50190   9.013   4.767   5.973  1.8098  1.9337  0.1350
  372MOL0     H50191   8.934   4.710   6.124 -0.9509 -3.7213 -3.9308
  372MOL0     H50192   9.111   4.557   6.179  1.1069 -0.3454 -0.3384
  372MOL0     H50193   9.211   4.607   6.049 -0.1154 -0.8551 -1.3354
  372MOL0     H50194   8.938   4.501   5.989 -0.1921  0.3931  0.0560
  372MOL0     H50195   9.064   4.566   5.868 -0.7481  0.7258 -0.5611
  372MOL0     H50196   9.111   4.342   6.063  0.7090 -0.7604 -1.0038
  372MOL0     H50197   9.215   4.402   5.921 -0.5505  2.1829 -0.9175
  372MOL0     H50198   9.044   4.187   5.897 -0.4814  0.0720 -0.1975
  372MOL0     H50199   8.925   4.322   5.856  0.1463  2.0898  3.2679
  372MOL0     H50200   9.229   5.257   6.373  1.7302 -0.1623  1.1694
  372MOL0     H50201   9.286   5.395   6.571  0.3733  0.7467 -0.4012
  372MOL0     H50202   9.436   5.490   6.857 -0.6496 -2.2848  0.4561
  372MOL0     H50203   9.610   5.610   7.011 -1.7019  4.2469 -1.1512
  372MOL0     H50204   9.295   5.154   8.646 -0.1798  3.2937 -2.2207
  372MOL0     H50205   9.115   5.118   8.863 -0.4578  0.3660  1.3299
  372MOL0     H50206   8.884   5.085   9.060  1.1454 -1.2876  0.6829
  372MOL0     H50207   8.760   4.939   9.191 -1.5088  1.3817  1.4574
  372MOL0     H50208   8.661   4.782   9.338  0.2459  0.9928 -1.5884
  372MOL0     H50209   8.568   4.923   9.391  1.5134  0.1303 -2.8447
  372MOL0     H50210   8.487   4.718   9.513 -1.5390 -0.4241  3.5186
  372MOL0     H50211   8.511   4.868   9.591  0.8227  0.9204  0.0313
  372MOL0     H50212   8.603   4.643   9.688  0.7567  2.5048  3.1433
  372MOL0     H50213   8.705   4.779   9.693 -0.5854 -1.0312  0.6898
  372MOL0     H50214   8.833   4.666   9.490 -0.7721  1.1103  1.5132
  372MOL0     H50215   8.816   4.551   9.623  1.2568 -0.8382  0.1165
  372MOL0     H50216   8.536   4.413   9.317  1.2626 -0.9382 -1.1024
  372MOL0     H50217   8.909   5.073   9.554  0.5059 -1.9301  0.0740
  372MOL0     H50218   8.989   5.319   9.549 -1.1133  0.3667 -1.2448
  372MOL0     H50219   9.149   5.282   9.482 -0.0900 -0.9936 -0.3693
  372MOL0     H50220   9.036   5.396   9.407 -2.8201 -0.5318 -0.8916
  373MOL0     O50221   3.986   2.921   6.834  0.2033 -0.4608 -0.4785
  373MOL0     C50222   3.989   3.031   6.887 -0.8850 -0.3066 -0.9166
  373MOL0     O50223   4.101   3.098   6.923  0.4715 -0.4630 -0.4029
  373MOL0     C50224   4.224   3.064   6.892 -0.6153 -0.4416 -0.1589
  373MOL0     C50225   4.252   3.051   6.757 -0.5602  0.6497  0.0588
  373MOL0     C50226   4.383   3.015   6.715 -0.7255  0.0522 -0.3247
  373MOL0     C50227   4.485   2.985   6.817  0.2250 -0.0248 -0.1688
  373MOL0     O50228   4.597   2.926   6.764 -0.3334 -1.0604  0.0956
  373MOL0     C50229   4.722   2.920   6.838  0.4006 -0.1794 -1.2617
  373MOL0     C50230   4.831   2.868   6.746  0.4584  0.0320  0.0234
  373MOL0     C50231   4.858   2.959   6.633  0.1175 -0.7596 -0.5836
  373MOL0     C50232   4.967   2.890   6.553 -0.2949  0.5251 -0.0564
  373MOL0     C50233   5.114   2.923   6.612  0.2362 -0.2362 -0.1939
  373MOL0     C50234   5.151   3.075   6.614  0.3642 -0.2283 -0.5373
  373MOL0     C50235   5.309   3.090   6.612  0.8286 -0.1059  0.5516
  373MOL0     C50236   5.345   3.242   6.610 -0.2201  0.9955 -0.1708
  373MOL0     N50237   5.384   3.311   6.743 -0.4524  0.5225 -0.5225
  373MOL0     C50238   5.488   3.274   6.821 -1.0312 -0.0065 -0.9351
  373MOL0     C50239   5.483   3.342   6.938 -0.6083 -0.0620  1.1132
  373MOL0     C50240   5.579   3.326   7.059 -0.5404 -0.7356  0.1050
  373MOL0     C50241   5.735   3.360   7.039  0.8847  0.3317  0.1286
  373MOL0     C50242   5.796   3.372   7.184 -0.8034  0.1527  0.0448
  373MOL0     C50243   5.816   3.233   7.237  0.5070  0.2592  0.3000
  373MOL0     O50244   5.940   3.226   7.319  0.1199 -0.4601  0.3583
  373MOL0     C50245   6.056   3.197   7.260  0.1453 -0.3683  0.6919
  373MOL0     C50246   6.076   3.162   7.125 -0.7107 -0.5051 -0.1345
  373MOL0     C50247   6.207   3.149   7.069 -0.6273 -0.3263 -0.3660
  373MOL0     C50248   6.320   3.144   7.152 -0.0314 -0.3158  0.8907
  373MOL0     C50249   6.458   3.139   7.093  0.7053  0.4425 -0.1862
  373MOL0     O50250   6.470   3.138   6.957 -0.1483  0.2533 -0.1917
  373MOL0     C50251   6.591   3.168   6.911 -0.8455  0.3785 -0.7804
  373MOL0     C50252   6.704   3.081   6.934 -0.1071  0.4198  0.1976
  373MOL0     C50253   6.829   3.115   6.901  0.1400 -0.2113 -0.1836
  373MOL0     C50254   6.855   3.239   6.833  0.9337  0.4760 -0.3850
  373MOL0     O50255   6.988   3.277   6.810  0.4485 -0.6327 -0.4080
  373MOL0     C50256   7.034   3.407   6.764 -0.2223  0.2576  0.9498
  373MOL0     C50257   7.149   3.397   6.659 -0.3713 -0.8784  0.2193
  373MOL0     C50258   7.285   3.350   6.709  0.0091 -1.2106 -0.1832
  373MOL0     C50259   7.388   3.366   6.594  1.2151  1.2681 -0.4690
  373MOL0     C50260   7.533   3.349   6.647  0.2840 -0.3173  0.1433
  373MOL0     C50261   7.627   3.388   6.532  0.2130  0.8983  0.2669
  373MOL0     C50262   7.638   3.546   6.524 -0.4690 -0.2565 -0.3110
  373MOL0     C50263   7.720   3.620   6.632  0.8353 -0.1182 -0.6391
  373MOL0    Cl50264   7.883   3.553   6.622 -0.2874 -0.7420  0.8080
  373MOL0     C50265   6.741   3.308   6.793  0.2163  0.3219  0.3260
  373MOL0     C50266   6.613   3.283   6.837  0.8666  0.2854  0.2146
  373MOL0     O50267   6.550   3.113   7.173  0.5487  0.5365  0.5098
  373MOL0     C50268   6.297   3.167   7.290 -0.5901 -0.2755  1.0492
  373MOL0     C50269   6.168   3.193   7.341  0.0699 -1.1689 -0.3589
  373MOL0     N50270   5.381   3.440   6.923 -0.0984  0.2771  0.5830
  373MOL0     N50271   5.314   3.408   6.809  0.7708  0.3900 -0.1907
  373MOL0     C50272   4.453   2.996   6.950 -0.7614 -0.7444 -0.0669
  373MOL0     C50273   4.328   3.045   6.989 -0.5816 -0.1923 -0.6695
  373MOL0     C50274   3.855   3.072   6.925  0.6221 -0.3036 -0.3957
  373MOL0     C50275   3.738   3.034   6.848 -0.8095  0.5109  0.7805
  373MOL0     C50276   3.616   3.089   6.881  0.1519  0.3295 -0.4987
  373MOL0     C50277   3.602   3.157   7.001 -0.0603  0.7304 -0.1609
  373MOL0     O50278   3.484   3.201   7.035 -0.3072 -0.0588  0.1142
  373MOL0     C50279   3.409   3.120   7.127  0.0126  0.1133 -0.0716
  373MOL0     C50280   3.305   3.206   7.192  0.3067 -0.4253 -0.4007
  373MOL0     C50281   3.205   3.139   7.296 -0.1960  0.4446 -0.1235
  373MOL0     C50282   3.089   3.230   7.325  0.4790 -0.3045 -0.5480
  373MOL0     C50283   3.008   3.279   7.210 -1.0968 -0.1165  0.0377
  373MOL0     C50284   2.947   3.315   7.110  1.3638  0.0382 -0.8708
  373MOL0     C50285   3.716   3.199   7.065 -0.5332 -0.0193 -0.3644
  373MOL0     C50286   3.843   3.166   7.031 -0.0821 -0.7864  1.1874
  373MOL0     C50287   3.954   3.228   7.113  0.0127 -0.0453 -0.1067
  373MOL0     H50288   4.174   3.061   6.683 -0.7064 -0.5968  0.0280
  373MOL0     H50289   4.415   3.000   6.612  2.1259 -0.1548  0.5179
  373MOL0     H50290   4.757   3.018   6.870 -1.7511  0.7433 -1.5838
  373MOL0     H50291   4.700   2.850   6.920 -3.2017  2.8270  0.6424
  373MOL0     H50292   4.807   2.766   6.715 -0.0031  0.7404 -2.1296
  373MOL0     H50293   4.918   2.861   6.812 -0.1775 -0.4011  0.8346
  373MOL0     H50294   4.876   3.061   6.668  0.8553 -0.9613 -0.3485
  373MOL0     H50295   4.764   2.968   6.578 -0.0402 -0.3764 -0.2550
  373MOL0     H50296   4.941   2.784   6.546 -2.6132  1.1030 -1.0154
  373MOL0     H50297   4.955   2.923   6.449 -0.0254 -2.1815 -1.0200
  373MOL0     H50298   5.116   2.893   6.717 -0.8594 -0.8013 -0.3233
  373MOL0     H50299   5.190   2.873   6.552  0.9790  2.5408 -1.7232
  373MOL0     H50300   5.110   3.124   6.525 -2.8107  1.1340  1.5062
  373MOL0     H50301   5.111   3.131   6.699  2.8310  1.1523 -0.1667
  373MOL0     H50302   5.351   3.054   6.517 -0.2975  1.8256 -0.7674
  373MOL0     H50303   5.362   3.027   6.683  0.6917 -0.2129  0.5600
  373MOL0     H50304   5.430   3.253   6.542  0.4654 -1.3160  0.2171
  373MOL0     H50305   5.255   3.292   6.571 -0.3321  0.8390 -0.1138
  373MOL0     H50306   5.559   3.196   6.794  0.1815  1.3353 -1.7242
  373MOL0     H50307   5.534   3.395   7.131 -0.6187  1.4791 -1.9325
  373MOL0     H50308   5.561   3.222   7.090 -0.2749 -1.7444 -2.7953
  373MOL0     H50309   5.785   3.286   6.976 -1.4216 -1.3081  0.1099
  373MOL0     H50310   5.752   3.460   6.997  4.1495  0.9997  2.5925
  373MOL0     H50311   5.739   3.434   7.253  1.4183  1.3564  0.9193
  373MOL0     H50312   5.895   3.416   7.170 -0.1588 -0.8210  1.2638
  373MOL0     H50313   5.809   3.159   7.156  0.2602 -0.6509  1.1382
  373MOL0     H50314   5.741   3.204   7.311  1.5574 -2.6562  0.3676
  373MOL0     H50315   5.987   3.157   7.063 -0.9595  0.4541  0.1284
  373MOL0     H50316   6.229   3.134   6.964 -1.5714  1.5742 -0.8883
  373MOL0     H50317   6.696   2.984   6.982  0.8862  0.3137  0.1705
  373MOL0     H50318   6.914   3.054   6.930  0.1033  0.1166  0.6485
  373MOL0     H50319   6.955   3.457   6.708 -1.2222 -3.1493 -0.9223
  373MOL0     H50320   7.060   3.475   6.846 -3.4393  1.7022  0.9100
  373MOL0     H50321   7.115   3.321   6.589 -1.3355 -0.6030  0.3680
  373MOL0     H50322   7.155   3.487   6.597  2.1762 -0.3940  1.0415
  373MOL0     H50323   7.314   3.419   6.789  0.6002  0.4407 -1.7409
  373MOL0     H50324   7.287   3.251   6.755 -0.0592 -1.7175 -1.2398
  373MOL0     H50325   7.380   3.461   6.540 -0.6268  0.1804 -2.2717
  373MOL0     H50326   7.367   3.286   6.523  2.2710  2.0832 -1.7633
  373MOL0     H50327   7.556   3.243   6.660  1.1736 -0.2488 -0.8277
  373MOL0     H50328   7.556   3.402   6.740  0.0298 -0.6074  0.3789
  373MOL0     H50329   7.728   3.348   6.547  1.5100  2.4894 -3.0676
  373MOL0     H50330   7.593   3.337   6.441 -1.4902 -1.2468  1.9874
  373MOL0     H50331   7.544   3.599   6.508  1.4711  3.0881 -1.6501
  373MOL0     H50332   7.685   3.568   6.427  0.7409 -0.1517  0.2882
  373MOL0     H50333   7.716   3.728   6.616 -2.5754  0.0206  0.3127
  373MOL0     H50334   7.686   3.595   6.733  5.7345 -0.1735  1.2542
  373MOL0     H50335   6.746   3.392   6.724 -2.6141  0.6299  0.3819
  373MOL0     H50336   6.535   3.354   6.811  2.1156  0.5247 -3.4925
  373MOL0     H50337   6.384   3.160   7.355  0.2045 -1.4667 -0.0905
  373MOL0     H50338   6.144   3.217   7.444  1.3386  1.7449 -0.6455
  373MOL0     H50339   4.526   2.995   7.030 -0.6157  2.2634 -0.0225
  373MOL0     H50340   4.304   3.069   7.092 -1.4375 -0.3250 -0.8285
  373MOL0     H50341   3.758   2.972   6.762  0.4850  3.3729 -1.1127
  373MOL0     H50342   3.528   3.066   6.821 -0.4217  1.4067 -0.0978
  373MOL0     H50343   3.479   3.079   7.200  0.4186 -2.2466 -1.6859
  373MOL0     H50344   3.355   3.042   7.072 -0.5492  1.3880 -1.3879
  373MOL0     H50345   3.244   3.252   7.114  1.3362 -0.1326 -1.0445
  373MOL0     H50346   3.360   3.283   7.247  1.3416  0.9619 -3.2227
  373MOL0     H50347   3.257   3.116   7.389 -1.6847 -0.9191  0.4054
  373MOL0     H50348   3.173   3.043   7.255 -1.8383  1.3073 -0.9395
  373MOL0     H50349   3.021   3.178   7.393  2.9511 -0.2067  2.1985
  373MOL0     H50350   3.131   3.318   7.374 -1.5934  1.1449 -1.2577
  373MOL0     H50351   2.888   3.367   7.039 -0.7924 -0.5339  0.4032
  373MOL0     H50352   3.691   3.280   7.133  0.1845 -0.9695  1.0788
  373MOL0     H50353   4.016   3.150   7.157 -1.4804 -0.1471  2.0079
  373MOL0     H50354   4.012   3.298   7.051  1.7790 -1.5515 -0.2267
  373MOL0     H50355   3.914   3.280   7.201 -3.5404 -0.8734 -1.0732
  374MOL0     O50356   4.083   1.451   6.985 -0.4154 -0.0187 -0.3925
  374MOL0     C50357   4.142   1.432   7.089  0.8583  0.0001 -0.2058
  374MOL0     O50358   4.266   1.474   7.124  0.2001 -0.6792  0.0885
  374MOL0     C50359   4.327   1.564   7.035 -0.2315  0.6839 -0.2936
  374MOL0     C50360   4.431   1.516   6.955 -0.6154 -0.1352 -0.1715
  374MOL0     C50361   4.479   1.591   6.841  0.3550  0.0177  0.0561
  374MOL0     C50362   4.430   1.715   6.815  0.2758 -0.2470 -0.1042
  374MOL0     O50363   4.486   1.789   6.719  0.6314  0.1539 -0.2228
  374MOL0     C50364   4.411   1.784   6.596 -0.4407 -0.5925  0.1856
  374MOL0     C50365   4.323   1.915   6.571  0.0771 -0.4426  0.0632
  374MOL0     C50366   4.259   1.929   6.429  0.3982  0.7261 -0.5507
  374MOL0     C50367   4.357   1.991   6.348 -0.9016 -1.2767  0.9060
  374MOL0     C50368   4.306   2.000   6.206 -0.0703  0.2640 -0.1779
  374MOL0     C50369   4.350   2.119   6.120 -0.2000  0.3141 -0.4530
  374MOL0     C50370   4.499   2.139   6.122 -0.0512  0.0989 -0.2361
  374MOL0     C50371   4.556   2.284   6.103 -0.1587  0.0272 -0.5078
  374MOL0     N50372   4.556   2.302   5.960 -0.7220  0.2396 -0.1416
  374MOL0     C50373   4.447   2.327   5.867 -0.5557  1.0149 -0.5974
  374MOL0     C50374   4.492   2.356   5.750  0.3489 -0.7120  0.1624
  374MOL0     C50375   4.420   2.379   5.621  0.1759  0.2732 -0.2914
  374MOL0     C50376   4.272   2.329   5.617 -0.3036 -0.0782  0.3215
  374MOL0     C50377   4.209   2.314   5.474  0.4099  0.2895 -0.4780
  374MOL0     C50378   4.090   2.209   5.483  0.7089  0.2394  1.1437
  374MOL0     O50379   3.956   2.269   5.485  0.0444  0.1327  0.9905
  374MOL0     C50380   3.840   2.201   5.481  0.1993  0.2228 -0.4595
  374MOL0     C50381   3.722   2.263   5.510  0.0558 -0.7567 -0.1112
  374MOL0     C50382   3.599   2.202   5.506  0.1295 -0.5867 -0.6161
  374MOL0     C50383   3.593   2.058   5.493 -0.3269 -0.8074  0.0889
  374MOL0     C50384   3.469   1.999   5.533  0.0424  1.1204  0.3362
  374MOL0     O50385   3.374   2.079   5.583 -0.2307  0.2770 -1.1231
  374MOL0     C50386   3.262   2.028   5.653 -0.2792 -0.8650 -0.4047
  374MOL0     C50387   3.273   1.911   5.734  0.2299  0.7082 -0.0062
  374MOL0     C50388   3.163   1.859   5.805 -0.1279  0.0659  0.4256
  374MOL0     C50389   3.037   1.929   5.791 -0.2821 -0.0703  0.1021
  374MOL0     O50390   2.924   1.882   5.851  0.4570 -0.0635  0.7717
  374MOL0     C50391   2.813   1.963   5.890  0.2421 -0.7919 -0.4376
  374MOL0     C50392   2.670   1.921   5.843 -0.2929 -0.3044 -0.3660
  374MOL0     C50393   2.631   1.781   5.871  0.1057 -0.4765 -0.7399
  374MOL0     C50394   2.478   1.764   5.869  0.1383 -0.4214  0.5159
  374MOL0     C50395   2.439   1.635   5.927  0.0235 -0.4426 -0.6310
  374MOL0     C50396   2.444   1.636   6.080 -1.2653 -0.0912 -1.4239
  374MOL0     C50397   2.405   1.502   6.139 -0.3855 -0.8009 -0.4987
  374MOL0     C50398   2.500   1.389   6.107 -0.4106 -0.2215 -0.1680
  374MOL0    Cl50399   2.667   1.427   6.156 -0.4912 -0.4963  0.3611
  374MOL0     C50400   3.032   2.041   5.707 -0.2566  0.8595  0.1825
  374MOL0     C50401   3.144   2.086   5.633  1.3344  0.3308 -0.2482
  374MOL0     O50402   3.455   1.878   5.521 -0.2653 -0.3807 -0.0264
  374MOL0     C50403   3.705   1.988   5.477 -0.6845 -0.2128  0.9480
  374MOL0     C50404   3.824   2.065   5.457 -0.7725 -0.1592  0.3422
  374MOL0     N50405   4.629   2.346   5.760  0.0194 -0.3155 -0.0001
  374MOL0     N50406   4.663   2.336   5.883 -0.0850 -0.3352 -0.0297
  374MOL0     C50407   4.323   1.768   6.897  0.0600 -0.5378  0.3640
  374MOL0     C50408   4.265   1.690   6.999  0.6063  0.1261  0.2662
  374MOL0     C50409   4.070   1.357   7.197 -0.6827  1.4143  0.1573
  374MOL0     C50410   4.100   1.403   7.329  1.0652  0.0143 -0.0762
  374MOL0     C50411   4.039   1.334   7.438 -0.5814 -0.3920 -0.1654
  374MOL0     C50412   3.953   1.230   7.422  0.5292 -0.6483  0.3391
  374MOL0     O50413   3.899   1.160   7.525 -0.2754  0.6763 -0.5843
  374MOL0     C50414   3.892   1.210   7.659 -0.1083  0.0231 -1.1699
  374MOL0     C50415   3.871   1.103   7.762  0.3675  0.9525  0.1543
  374MOL0     C50416   3.754   0.994   7.761 -0.8858 -0.5891 -0.6583
  374MOL0     C50417   3.609   1.042   7.765  0.6231 -0.5620  0.4943
  374MOL0     C50418   3.564   1.110   7.881 -0.5123  0.2421 -1.2037
  374MOL0     C50419   3.535   1.164   7.987 -0.0640 -0.1737 -0.0686
  374MOL0     C50420   3.922   1.194   7.290 -0.2955  0.0460 -0.4657
  374MOL0     C50421   3.982   1.252   7.182  0.1247  0.1664 -0.5339
  374MOL0     C50422   3.923   1.206   7.052  1.0293 -0.8150 -0.5695
  374MOL0     H50423   4.489   1.428   6.981  0.7349  1.4789  3.0238
  374MOL0     H50424   4.573   1.566   6.793 -0.6115 -1.7572 -1.0368
  374MOL0     H50425   4.490   1.777   6.520 -0.6015 -2.0456  0.1188
  374MOL0     H50426   4.344   1.699   6.580 -2.9926  1.4559 -0.6770
  374MOL0     H50427   4.388   1.999   6.597 -1.7842  0.7489  1.0788
  374MOL0     H50428   4.241   1.925   6.643  0.4901  0.9247  0.3597
  374MOL0     H50429   4.164   1.985   6.427 -1.2720 -1.9583 -0.5566
  374MOL0     H50430   4.227   1.834   6.386 -0.0275  1.4664 -1.9323
  374MOL0     H50431   4.373   2.095   6.377 -0.4597 -1.0737 -0.0547
  374MOL0     H50432   4.456   1.945   6.354 -0.7760 -1.0886  0.2616
  374MOL0     H50433   4.352   1.912   6.161  3.5977  2.3915 -0.9429
  374MOL0     H50434   4.196   1.997   6.202 -0.2020 -0.2660  2.2758
  374MOL0     H50435   4.309   2.122   6.019 -0.3909  0.2756 -0.3780
  374MOL0     H50436   4.310   2.209   6.169 -1.5112 -0.7238  0.4765
  374MOL0     H50437   4.542   2.084   6.038 -2.4190  1.8198 -2.7616
  374MOL0     H50438   4.542   2.112   6.219 -0.8424  0.8750  0.3448
  374MOL0     H50439   4.502   2.362   6.158  0.9973 -1.7499  3.5798
  374MOL0     H50440   4.660   2.297   6.134 -0.3424  0.6094 -0.1065
  374MOL0     H50441   4.343   2.337   5.897 -0.1844  1.7928  0.4938
  374MOL0     H50442   4.423   2.483   5.588  1.8437  0.5713  0.6923
  374MOL0     H50443   4.488   2.345   5.542  2.9697  0.8246  1.7193
  374MOL0     H50444   4.270   2.232   5.667  3.9892 -1.5396 -1.8676
  374MOL0     H50445   4.213   2.404   5.671  1.5087  2.9991 -1.6314
  374MOL0     H50446   4.273   2.283   5.391  0.2234 -0.0309 -0.5034
  374MOL0     H50447   4.170   2.412   5.448  1.4586  0.2567 -2.3135
  374MOL0     H50448   4.104   2.134   5.562 -1.1068 -2.8527 -1.1990
  374MOL0     H50449   4.097   2.154   5.389 -0.9208 -1.8314  2.1379
  374MOL0     H50450   3.737   2.369   5.524  2.4035 -0.9443 -0.6596
  374MOL0     H50451   3.514   2.266   5.529 -0.0774 -0.6848 -1.1012
  374MOL0     H50452   3.363   1.850   5.745 -1.2009 -1.3311  1.1648
  374MOL0     H50453   3.172   1.766   5.861  0.1505  0.7341  1.5081
  374MOL0     H50454   2.802   1.956   5.999 -1.4500 -0.9664 -0.5920
  374MOL0     H50455   2.826   2.071   5.877  5.1852 -1.0099  0.5548
  374MOL0     H50456   2.605   1.993   5.894 -0.8552 -0.8332 -0.3343
  374MOL0     H50457   2.674   1.937   5.735 -1.7827  0.7986 -0.2832
  374MOL0     H50458   2.677   1.718   5.793 -3.0174 -0.4182 -2.7983
  374MOL0     H50459   2.669   1.750   5.968  0.1948  1.8217  0.0189
  374MOL0     H50460   2.436   1.769   5.768  0.9308 -1.8237  0.0813
  374MOL0     H50461   2.442   1.850   5.925 -0.8428  1.0128 -2.1349
  374MOL0     H50462   2.498   1.552   5.886  0.6687 -0.9235  1.1846
  374MOL0     H50463   2.335   1.617   5.898 -0.8781 -1.5497  2.8841
  374MOL0     H50464   2.547   1.661   6.107 -1.6179 -0.4471  0.3816
  374MOL0     H50465   2.373   1.711   6.115 -0.8680 -0.0174 -0.7509
  374MOL0     H50466   2.310   1.469   6.097 -0.2096  0.8884 -2.3648
  374MOL0     H50467   2.393   1.502   6.248 -0.2177 -2.5578 -0.4580
  374MOL0     H50468   2.460   1.302   6.160  0.4506 -1.4824 -1.5126
  374MOL0     H50469   2.511   1.369   6.001 -0.0420 -2.0667  0.1921
  374MOL0     H50470   2.934   2.079   5.682  0.0234  0.4785 -1.6581
  374MOL0     H50471   3.123   2.171   5.568 -1.4378 -0.2375 -0.2066
  374MOL0     H50472   3.714   1.880   5.483  1.1719 -0.2408 -0.8936
  374MOL0     H50473   3.908   1.998   5.446 -1.8625 -1.5238  0.1884
  374MOL0     H50474   4.299   1.874   6.895  3.6443  0.4248  1.0050
  374MOL0     H50475   4.177   1.724   7.053  0.0155 -1.4763  0.3614
  374MOL0     H50476   4.169   1.484   7.353  2.4393 -1.7996  2.6900
  374MOL0     H50477   4.091   1.346   7.532  2.6495  2.3650 -2.0389
  374MOL0     H50478   3.815   1.288   7.668  0.0584 -0.0594  2.3851
  374MOL0     H50479   3.986   1.261   7.680 -0.2895  0.3202 -1.0605
  374MOL0     H50480   3.864   1.153   7.860 -1.9236 -2.3068  1.8157
  374MOL0     H50481   3.961   1.040   7.765 -1.3431 -1.8885 -2.5679
  374MOL0     H50482   3.775   0.929   7.846  2.4291 -1.5871 -2.0712
  374MOL0     H50483   3.760   0.939   7.667 -2.6699 -1.6788 -0.1859
  374MOL0     H50484   3.592   1.102   7.675  0.1216  0.3591  1.1972
  374MOL0     H50485   3.546   0.954   7.748  0.1511  0.3574 -3.6177
  374MOL0     H50486   3.511   1.231   8.067  0.0789  1.4619 -1.3576
  374MOL0     H50487   3.850   1.113   7.279  0.4248 -0.5673 -0.8023
  374MOL0     H50488   4.005   1.142   7.016 -0.9610 -5.8636  2.7150
  374MOL0     H50489   3.828   1.158   7.075 -0.3476  1.7797 -0.5380
  374MOL0     H50490   3.899   1.285   6.980  0.3115 -0.8758 -0.4050
  375MOL0     O50491   2.826   3.734   1.310  0.0709 -0.4360  0.2254
  375MOL0     C50492   2.885   3.771   1.211  0.4067  0.4869  0.0615
  375MOL0     O50493   2.962   3.882   1.207  0.4388  0.1424  0.5181
  375MOL0     C50494   2.952   3.960   1.316  0.2768 -0.3691  0.7755
  375MOL0     C50495   2.871   4.077   1.318 -0.0347  0.1072  0.1706
  375MOL0     C50496   2.857   4.149   1.440  0.7368 -0.2077  0.1630
  375MOL0     C50497   2.916   4.111   1.564 -0.3747  0.7408  0.7178
  375MOL0     O50498   2.895   4.167   1.684  0.1506  0.0264  0.6372
  375MOL0     C50499   2.946   4.301   1.708 -0.6423 -0.1566  0.5612
  375MOL0     C50500   3.099   4.309   1.737 -0.1221  0.2775  0.9645
  375MOL0     C50501   3.146   4.454   1.738  0.8022 -0.1544  0.3389
  375MOL0     C50502   3.166   4.519   1.597 -0.6207  0.0002 -0.1695
  375MOL0     C50503   3.195   4.669   1.612  0.6413  0.0239  0.6446
  375MOL0     C50504   3.330   4.707   1.687  0.5117 -0.6578 -0.5463
  375MOL0     C50505   3.455   4.683   1.605 -0.6828 -0.1024  0.1157
  375MOL0     C50506   3.578   4.613   1.670  0.0570  0.3080  0.1389
  375MOL0     N50507   3.567   4.466   1.685  0.7650 -0.2306  0.4469
  375MOL0     C50508   3.605   4.366   1.589 -0.0431 -0.2667  0.4871
  375MOL0     C50509   3.540   4.255   1.631  0.3418 -0.6676 -0.2205
  375MOL0     C50510   3.556   4.115   1.572 -0.0101  0.4900  0.0666
  375MOL0     C50511   3.422   4.039   1.542  0.2966 -0.0901  0.6716
  375MOL0     C50512   3.364   4.050   1.393 -0.2352 -0.2730  0.4787
  375MOL0     C50513   3.272   4.168   1.365 -0.2516 -0.2678  0.8260
  375MOL0     O50514   3.340   4.256   1.273 -0.2480 -0.0122 -0.5701
  375MOL0     C50515   3.299   4.383   1.254 -0.0729  0.3288 -0.5138
  375MOL0     C50516   3.162   4.408   1.267 -0.0051  0.0408 -0.1873
  375MOL0     C50517   3.124   4.539   1.254 -0.6434  0.3947 -0.7865
  375MOL0     C50518   3.211   4.646   1.233 -0.7673 -0.2179  0.0663
  375MOL0     C50519   3.158   4.786   1.229 -0.6842  0.2770  0.4461
  375MOL0     O50520   3.239   4.887   1.181  1.0980  0.0203 -0.6016
  375MOL0     C50521   3.174   5.008   1.183 -0.6662  0.3899  0.2767
  375MOL0     C50522   3.191   5.108   1.282 -0.6081  0.3480 -0.9921
  375MOL0     C50523   3.148   5.236   1.262  0.5010  0.2460 -1.1033
  375MOL0     C50524   3.082   5.262   1.146  0.3562  0.4770 -0.0488
  375MOL0     O50525   3.029   5.380   1.124  0.2219 -0.7346 -0.1655
  375MOL0     C50526   2.908   5.407   1.199 -0.4889  0.7178  0.3745
  375MOL0     C50527   2.854   5.548   1.181  0.5843  0.1390 -1.4060
  375MOL0     C50528   2.697   5.566   1.189 -0.1067 -0.0884  0.1753
  375MOL0     C50529   2.637   5.504   1.070 -0.1617 -0.1988  0.6015
  375MOL0     C50530   2.486   5.501   1.079 -0.9881 -1.0248  0.2423
  375MOL0     C50531   2.425   5.386   0.990 -0.8666  0.2130 -0.2016
  375MOL0     C50532   2.484   5.247   1.008  0.5540  0.4455 -0.4722
  375MOL0     C50533   2.390   5.134   0.970 -0.6321  0.4726 -0.0920
  375MOL0    Cl50534   2.497   4.996   0.893 -0.0951 -0.3313 -0.2612
  375MOL0     C50535   3.059   5.166   1.047  0.2647 -0.4364  0.5408
  375MOL0     C50536   3.100   5.038   1.067 -0.5273  0.3473 -0.3232
  375MOL0     O50537   3.058   4.802   1.295  0.8198  0.3089  0.0588
  375MOL0     C50538   3.350   4.622   1.219 -0.6963  0.4315 -0.3721
  375MOL0     C50539   3.391   4.486   1.226 -0.7482  0.3282 -0.8130
  375MOL0     N50540   3.472   4.287   1.750  0.0693  0.1305 -0.1965
  375MOL0     N50541   3.478   4.417   1.768  0.5592  1.1073  0.1330
  375MOL0     C50542   3.004   3.998   1.550 -0.1096  0.3437  0.1832
  375MOL0     C50543   3.021   3.928   1.434 -0.2099 -0.6177 -0.3664
  375MOL0     C50544   2.892   3.684   1.091  0.1368  1.0654  0.2252
  375MOL0     C50545   2.785   3.607   1.056  0.1594  0.8532 -0.6994
  375MOL0     C50546   2.770   3.538   0.936  0.8450 -0.4514  0.0834
  375MOL0     C50547   2.874   3.538   0.844  1.2655 -0.2891 -0.6087
  375MOL0     O50548   2.844   3.469   0.730  0.0715 -0.1966 -0.8121
  375MOL0     C50549   2.831   3.553   0.610 -0.4482 -0.6319 -1.7666
  375MOL0     C50550   2.825   3.485   0.472  0.0615 -0.5339 -0.5629
  375MOL0     C50551   2.693   3.400   0.456 -0.7657  0.6533 -0.3802
  375MOL0     C50552   2.686   3.266   0.525  1.1057  0.2229 -0.1047
  375MOL0     C50553   2.780   3.179   0.453 -0.0546  0.5351  0.2346
  375MOL0     C50554   2.843   3.108   0.372 -0.2430  0.1928  0.1097
  375MOL0     C50555   2.997   3.596   0.883 -0.1892  0.1530 -0.4451
  375MOL0     C50556   3.004   3.673   0.997  0.2834  0.0076 -0.5569
  375MOL0     C50557   3.136   3.736   1.023  0.3714  0.0952  0.2068
  375MOL0     H50558   2.808   4.116   1.239 -0.2751  0.3968  0.5050
  375MOL0     H50559   2.783   4.227   1.459 -0.5815 -2.1619  4.1526
  375MOL0     H50560   2.919   4.364   1.623  1.3020  0.9200  0.6568
  375MOL0     H50561   2.889   4.341   1.792  1.4140  1.5208  1.2722
  375MOL0     H50562   3.163   4.255   1.666  1.9040  3.6718 -0.0127
  375MOL0     H50563   3.123   4.272   1.838  0.8761  2.4511  1.5730
  375MOL0     H50564   3.241   4.449   1.791  0.1542 -0.9814  1.4597
  375MOL0     H50565   3.083   4.511   1.806 -1.6380 -0.8030 -1.2292
  375MOL0     H50566   3.243   4.470   1.536 -2.5686 -0.8951 -2.0715
  375MOL0     H50567   3.086   4.515   1.523 -0.4414  2.4728 -0.5844
  375MOL0     H50568   3.190   4.712   1.512  2.8308 -1.5350 -0.2108
  375MOL0     H50569   3.106   4.697   1.670  1.1282 -0.0881  1.4621
  375MOL0     H50570   3.332   4.815   1.704 -2.7582  0.0764 -3.6799
  375MOL0     H50571   3.322   4.660   1.786 -0.9940  1.1928  0.2826
  375MOL0     H50572   3.487   4.777   1.559  0.5821  0.1498  1.4364
  375MOL0     H50573   3.426   4.610   1.529  1.1610 -0.7767  0.0098
  375MOL0     H50574   3.665   4.618   1.603  1.5565 -1.2307  1.8584
  375MOL0     H50575   3.610   4.656   1.766  0.4089 -0.9843  0.6228
  375MOL0     H50576   3.680   4.365   1.510  2.3956  1.6297  2.5937
  375MOL0     H50577   3.630   4.108   1.492  2.7937  0.6804  2.4712
  375MOL0     H50578   3.611   4.068   1.654  1.1305  1.7673  0.0619
  375MOL0     H50579   3.437   3.931   1.553  0.3376 -0.3576 -1.5344
  375MOL0     H50580   3.343   4.068   1.613 -0.9986 -1.5969 -0.0829
  375MOL0     H50581   3.295   3.970   1.367 -0.1871 -0.2765  0.3581
  375MOL0     H50582   3.449   4.067   1.325 -1.6580 -2.3071 -1.9503
  375MOL0     H50583   3.242   4.218   1.458 -1.6678 -0.4519  0.4927
  375MOL0     H50584   3.179   4.139   1.315 -2.3106  2.0726  3.0179
  375MOL0     H50585   3.086   4.332   1.277 -0.5645  0.4162 -1.4885
  375MOL0     H50586   3.020   4.568   1.263 -0.7371  1.4038 -4.1180
  375MOL0     H50587   3.253   5.090   1.369 -0.7176 -1.0047 -1.1714
  375MOL0     H50588   3.170   5.304   1.344 -0.0041 -2.3023  1.2981
  375MOL0     H50589   2.836   5.328   1.178  1.1846 -0.7740  0.0420
  375MOL0     H50590   2.922   5.383   1.305  1.5609  2.0440  0.4624
  375MOL0     H50591   2.898   5.603   1.265  0.3166  1.9107 -2.3652
  375MOL0     H50592   2.895   5.603   1.096 -1.5570  0.8269 -2.0561
  375MOL0     H50593   2.666   5.517   1.282 -0.1867 -3.4534 -1.4788
  375MOL0     H50594   2.672   5.672   1.195  0.1843  0.0076 -0.2555
  375MOL0     H50595   2.675   5.401   1.064 -2.0416 -0.9178  0.2137
  375MOL0     H50596   2.660   5.555   0.976 -2.0390  1.4717  0.9802
  375MOL0     H50597   2.456   5.595   1.032 -1.1291 -1.8413 -1.3657
  375MOL0     H50598   2.449   5.503   1.182 -0.3776 -1.0492  0.4630
  375MOL0     H50599   2.317   5.386   1.003 -0.8635 -0.5138 -0.1447
  375MOL0     H50600   2.466   5.419   0.894  1.9593 -2.2087  0.0311
  375MOL0     H50601   2.510   5.223   1.111 -0.7595 -1.5657 -0.5587
  375MOL0     H50602   2.580   5.242   0.956  1.3798  0.5614  0.9815
  375MOL0     H50603   2.326   5.097   1.051 -1.3587 -0.2660 -0.9932
  375MOL0     H50604   2.323   5.171   0.892 -2.8611  0.4338  1.6785
  375MOL0     H50605   2.990   5.183   0.965  0.4420 -2.1537  0.0119
  375MOL0     H50606   3.089   4.960   0.993  3.4675  1.8254 -2.8030
  375MOL0     H50607   3.421   4.703   1.208 -0.0131 -0.2188 -0.8860
  375MOL0     H50608   3.496   4.460   1.230 -0.7162  0.5121 -0.3891
  375MOL0     H50609   3.074   3.969   1.628 -1.7540  0.9796  1.9950
  375MOL0     H50610   3.084   3.840   1.441 -1.3544 -1.3508  1.7958
  375MOL0     H50611   2.707   3.622   1.130  0.6953  1.1278 -0.1837
  375MOL0     H50612   2.677   3.487   0.913 -0.3755  1.5040  0.3920
  375MOL0     H50613   2.919   3.618   0.602 -0.7189  0.0938  0.4367
  375MOL0     H50614   2.739   3.612   0.614 -0.2353 -0.3610  0.8767
  375MOL0     H50615   2.920   3.432   0.462  2.1874  2.1363  2.9588
  375MOL0     H50616   2.826   3.561   0.393  1.5393  1.4643  1.2462
  375MOL0     H50617   2.686   3.373   0.350  0.9747 -0.0072 -0.3604
  375MOL0     H50618   2.612   3.466   0.487 -0.3418  0.4676  1.2526
  375MOL0     H50619   2.710   3.262   0.632  0.0569 -4.1377  0.1503
  375MOL0     H50620   2.582   3.233   0.513  1.2930  0.2347 -1.9640
  375MOL0     H50621   2.895   3.047   0.301 -2.4314  0.0096 -1.4306
  375MOL0     H50622   3.082   3.583   0.817 -0.7951 -1.7740 -0.8878
  375MOL0     H50623   3.153   3.748   1.131  3.4243 -1.9568  0.0821
  375MOL0     H50624   3.217   3.681   0.975  2.5000  2.0873  1.3592
  375MOL0     H50625   3.140   3.833   0.974  1.0136 -0.5282 -1.0098
  376MOL0     O50626   9.049   2.390   3.369  0.4207 -0.8468  0.4407
  376MOL0     C50627   8.964   2.473   3.343  0.7857 -0.1114  0.2693
  376MOL0     O50628   8.964   2.604   3.377  0.5635 -0.4196  0.6237
  376MOL0     C50629   9.071   2.650   3.454  0.0737 -0.1551  1.0530
  376MOL0     C50630   9.199   2.651   3.398  0.0016 -0.5028 -0.4959
  376MOL0     C50631   9.308   2.700   3.469 -0.1206 -0.4364  0.3487
  376MOL0     C50632   9.289   2.740   3.602  0.9423 -0.1183  0.5228
  376MOL0     O50633   9.376   2.817   3.671 -0.2824  0.2526  0.1695
  376MOL0     C50634   9.514   2.809   3.627 -0.7308  0.2877  0.5770
  376MOL0     C50635   9.618   2.876   3.724 -0.6556  0.0080 -0.5820
  376MOL0     C50636   9.646   2.801   3.857  1.0877 -0.5829  0.5519
  376MOL0     C50637   9.572   2.845   3.986  0.3181 -0.3045  1.0612
  376MOL0     C50638   9.554   2.743   4.104  0.2921 -0.7421  0.4811
  376MOL0     C50639   9.665   2.709   4.197 -0.2459 -0.9476  0.5638
  376MOL0     C50640   9.701   2.828   4.286 -0.1696 -0.8414 -1.1518
  376MOL0     C50641   9.817   2.771   4.380 -0.2825 -0.1439 -1.0029
  376MOL0     N50642   9.825   2.852   4.499 -0.1238  0.2127 -0.2437
  376MOL0     C50643   9.856   2.799   4.622  0.1926  0.0886  0.3170
  376MOL0     C50644   9.844   2.908   4.706  0.5950 -0.2374 -0.5747
  376MOL0     C50645   9.864   2.895   4.864  0.2653  0.5649  0.9080
  376MOL0     C50646   9.730   2.920   4.937  0.3181  0.3782 -0.2887
  376MOL0     C50647   9.755   2.958   5.087 -0.2004  0.1561  0.6184
  376MOL0     C50648   9.855   2.864   5.152 -0.1835 -0.1682 -0.4889
  376MOL0     O50649   9.804   2.738   5.166 -0.2882  0.3590 -0.0750
  376MOL0     C50650   9.888   2.650   5.234  0.1759  0.1121 -0.5472
  376MOL0     C50651   9.854   2.512   5.209 -0.9414 -0.6670 -0.8778
  376MOL0     C50652   9.921   2.419   5.288  0.3949  0.2874  0.2118
  376MOL0     C50653  10.025   2.446   5.385 -0.1281  0.3345  0.2166
  376MOL0     C50654  10.112   2.341   5.439  0.4770 -0.0025 -0.1330
  376MOL0     O50655  10.211   2.365   5.532  0.2967  0.0323 -0.0357
  376MOL0     C50656  10.294   2.271   5.579 -0.6161  0.6548  0.0385
  376MOL0     C50657  10.285   2.134   5.562  0.5364  0.0139 -0.2082
  376MOL0     C50658  10.360   2.043   5.631  0.3481 -0.1749 -0.3145
  376MOL0     C50659  10.459   2.084   5.725 -0.5519  0.0815 -0.4125
  376MOL0     O50660  10.527   1.988   5.799 -0.1393 -0.2064  0.6644
  376MOL0     C50661  10.602   2.021   5.919  0.7798  0.4610  0.6195
  376MOL0     C50662  10.738   2.073   5.890 -0.9160  0.3848  0.0859
  376MOL0     C50663  10.829   1.958   5.831  0.1607 -0.5213 -0.1698
  376MOL0     C50664  10.817   1.939   5.679  0.6328 -0.6533 -0.7577
  376MOL0     C50665  10.949   1.925   5.602  0.0638 -0.2853 -0.2628
  376MOL0     C50666  10.912   1.913   5.446  0.0745 -0.1626  0.5100
  376MOL0     C50667  11.038   1.910   5.357  0.1564  0.0578  0.3132
  376MOL0     C50668  10.997   1.863   5.220  0.0261  0.5078 -0.5789
  376MOL0    Cl50669  10.893   1.997   5.144  0.0519 -0.0361 -0.2237
  376MOL0     C50670  10.465   2.223   5.739  0.3893 -0.3816  0.7831
  376MOL0     C50671  10.393   2.315   5.665 -0.0622  0.1255  0.4361
  376MOL0     O50672  10.080   2.231   5.401 -0.0372  0.6996  0.1111
  376MOL0     C50673  10.052   2.582   5.404 -0.0466 -0.3194 -0.4413
  376MOL0     C50674   9.980   2.684   5.336 -0.5189 -1.1065 -0.3278
  376MOL0     N50675   9.815   3.014   4.625 -0.5297 -0.5058  1.1549
  376MOL0     N50676   9.808   2.983   4.502  0.5354 -0.1923 -0.4255
  376MOL0     C50677   9.162   2.729   3.660  0.2382 -0.5007  0.0093
  376MOL0     C50678   9.051   2.689   3.583  0.6215 -0.7505 -0.1104
  376MOL0     C50679   8.831   2.433   3.284  0.6153  0.2877 -0.2364
  376MOL0     C50680   8.717   2.477   3.359  0.1938  0.6571 -1.2030
  376MOL0     C50681   8.589   2.432   3.329  0.1126 -0.0782 -0.1359
  376MOL0     C50682   8.572   2.322   3.233  0.7688 -0.4067 -0.4341
  376MOL0     O50683   8.453   2.264   3.197  0.3979 -0.4101 -0.3355
  376MOL0     C50684   8.333   2.294   3.263 -0.4024 -0.3229  0.3068
  376MOL0     C50685   8.238   2.186   3.208  0.0095 -0.8938  0.1547
  376MOL0     C50686   8.088   2.201   3.267 -0.2716 -0.5787 -0.6887
  376MOL0     C50687   7.978   2.114   3.201  0.6856 -0.0129 -0.3822
  376MOL0     C50688   7.856   2.110   3.290 -0.4041 -0.5340  0.4275
  376MOL0     C50689   7.762   2.108   3.369 -0.4246  0.0338  0.3825
  376MOL0     C50690   8.678   2.285   3.148  0.1670  0.3588 -0.0396
  376MOL0     C50691   8.809   2.341   3.174  0.0782  0.0159  0.1827
  376MOL0     C50692   8.928   2.297   3.098 -0.0005  0.9214 -0.3312
  376MOL0     H50693   9.206   2.608   3.298 -0.4655  0.8995 -1.1625
  376MOL0     H50694   9.405   2.710   3.422 -0.7115 -1.9771 -1.3503
  376MOL0     H50695   9.539   2.704   3.615 -3.0944 -0.1154 -1.6877
  376MOL0     H50696   9.533   2.854   3.529 -2.1080  1.4667  0.8196
  376MOL0     H50697   9.604   2.979   3.759  0.9804 -0.6317  2.2517
  376MOL0     H50698   9.711   2.879   3.667  0.4364 -1.7976  1.0026
  376MOL0     H50699   9.756   2.802   3.859  1.0887 -0.5979  0.5282
  376MOL0     H50700   9.604   2.706   3.824 -3.1621  1.5030 -0.7922
  376MOL0     H50701   9.626   2.934   4.020 -0.8179  2.1213 -2.8436
  376MOL0     H50702   9.479   2.880   3.940  2.0790  1.7358 -1.2788
  376MOL0     H50703   9.470   2.782   4.163  1.7374  2.8272  0.4799
  376MOL0     H50704   9.528   2.648   4.056  3.8426 -1.3207 -0.5695
  376MOL0     H50705   9.630   2.627   4.261 -0.8780 -3.1774 -2.4353
  376MOL0     H50706   9.753   2.682   4.139 -1.9640  1.2818 -3.5153
  376MOL0     H50707   9.611   2.845   4.346  0.6761 -1.2107  0.2600
  376MOL0     H50708   9.730   2.918   4.231  0.8444 -0.7529 -0.4897
  376MOL0     H50709   9.784   2.670   4.407  0.5161 -0.1760 -0.1105
  376MOL0     H50710   9.916   2.784   4.336  0.0828  0.8586  0.0529
  376MOL0     H50711   9.880   2.698   4.655 -1.1206 -0.1180  0.7221
  376MOL0     H50712   9.907   2.801   4.899 -0.6467 -0.0151  0.5044
  376MOL0     H50713   9.933   2.979   4.879  0.1909  1.1891 -1.7762
  376MOL0     H50714   9.679   3.005   4.890 -1.5623  0.6043  1.9934
  376MOL0     H50715   9.668   2.829   4.939  0.4686  0.2775 -0.2017
  376MOL0     H50716   9.653   2.970   5.124 -1.6740 -0.0718 -2.9545
  376MOL0     H50717   9.805   3.054   5.101  2.1531 -1.1003  1.3865
  376MOL0     H50718   9.869   2.901   5.254 -2.2999  3.1687 -1.2544
  376MOL0     H50719   9.948   2.865   5.096 -0.5665  0.3798 -1.1241
  376MOL0     H50720   9.774   2.484   5.141 -1.9138 -1.4183  0.5196
  376MOL0     H50721   9.888   2.319   5.263  1.0613  0.5839 -2.1929
  376MOL0     H50722  10.212   2.085   5.498 -0.4405  3.3486 -1.8886
  376MOL0     H50723  10.347   1.937   5.613 -3.0950  0.1320 -0.1971
  376MOL0     H50724  10.550   2.094   5.982  2.1160 -0.2064  2.6103
  376MOL0     H50725  10.616   1.933   5.983  2.9836  1.6012  1.8177
  376MOL0     H50726  10.739   2.163   5.828  0.3799  0.1467 -0.2576
  376MOL0     H50727  10.794   2.103   5.979 -0.0086 -0.9147 -0.0219
  376MOL0     H50728  10.929   1.988   5.864  0.3335 -0.4596 -0.7381
  376MOL0     H50729  10.799   1.864   5.878 -0.9929  0.5521  1.3546
  376MOL0     H50730  10.760   2.026   5.644 -3.6502 -1.8927  2.4087
  376MOL0     H50731  10.755   1.850   5.662 -1.8389  0.2187  2.6659
  376MOL0     H50732  10.993   1.838   5.652 -1.9130 -0.5121  1.2112
  376MOL0     H50733  11.014   2.012   5.609  0.3601 -0.4967 -0.4012
  376MOL0     H50734  10.854   1.822   5.426 -0.3070  0.1066  0.3880
  376MOL0     H50735  10.848   1.995   5.412 -4.1106 -2.8532  1.1300
  376MOL0     H50736  11.113   1.840   5.396 -1.1334 -1.2015  0.6561
  376MOL0     H50737  11.071   2.013   5.340  1.7200 -0.7620 -2.1590
  376MOL0     H50738  11.087   1.871   5.158  0.4340  0.5525  0.0147
  376MOL0     H50739  10.962   1.760   5.211 -2.4987  1.1840  0.5516
  376MOL0     H50740  10.541   2.267   5.804  0.0492 -1.5843  2.0271
  376MOL0     H50741  10.413   2.420   5.683 -2.0733  0.6047  0.2022
  376MOL0     H50742  10.140   2.610   5.461  0.3707 -1.7905 -0.3120
  376MOL0     H50743  10.014   2.780   5.372 -3.7014 -0.3902  1.1018
  376MOL0     H50744   9.144   2.764   3.761  0.3528 -2.2389  0.6555
  376MOL0     H50745   8.950   2.684   3.624  0.9691 -1.6578  0.6676
  376MOL0     H50746   8.717   2.544   3.444 -0.0786  0.6248 -1.1761
  376MOL0     H50747   8.499   2.465   3.380  0.8632 -0.0144  1.2229
  376MOL0     H50748   8.307   2.399   3.249  2.1426  0.3870  0.4365
  376MOL0     H50749   8.358   2.269   3.367 -3.1746  0.8895  1.3786
  376MOL0     H50750   8.265   2.083   3.233  0.7288 -0.3978  1.5461
  376MOL0     H50751   8.226   2.196   3.100 -0.2296 -0.9416  0.1752
  376MOL0     H50752   8.054   2.304   3.257 -3.0029 -1.4986 -2.2978
  376MOL0     H50753   8.092   2.177   3.373  2.1820  0.6596 -0.4458
  376MOL0     H50754   7.964   2.158   3.102 -0.3856  2.3281  0.7316
  376MOL0     H50755   8.020   2.014   3.186  1.5128  0.3758 -0.7564
  376MOL0     H50756   7.684   2.112   3.441 -2.5103 -3.2329 -1.4513
  376MOL0     H50757   8.667   2.209   3.072  2.1339 -1.3712  1.2888
  376MOL0     H50758   9.016   2.361   3.107  1.2697 -0.7740 -0.3733
  376MOL0     H50759   8.952   2.195   3.129 -0.6962  0.5986 -0.8199
  376MOL0     H50760   8.912   2.300   2.989  0.0616  2.4289 -0.3227
  377MOL0     O50761   6.231   6.562   7.704  0.1162 -0.2066  0.6833
  377MOL0     C50762   6.229   6.578   7.577 -0.0038 -0.6019  0.5316
  377MOL0     O50763   6.176   6.683   7.510 -0.2866 -0.8508  0.1999
  377MOL0     C50764   6.075   6.756   7.580  0.2398  0.4225  0.6709
  377MOL0     C50765   6.064   6.801   7.712 -0.2692 -0.2067 -0.3632
  377MOL0     C50766   5.947   6.866   7.759 -0.7449  0.1729 -0.5504
  377MOL0     C50767   5.857   6.924   7.673  0.7542  0.5219 -0.5186
  377MOL0     O50768   5.755   7.018   7.710 -0.2487  0.3918 -0.2141
  377MOL0     C50769   5.700   7.005   7.844  0.5814  0.5253  0.4623
  377MOL0     C50770   5.760   7.086   7.959  0.5783  0.0962  0.4787
  377MOL0     C50771   5.750   7.234   7.915  0.4635  0.9575  0.6009
  377MOL0     C50772   5.795   7.330   8.023  0.3350  1.2319 -0.1304
  377MOL0     C50773   5.949   7.349   8.036 -0.4970 -0.1972  0.1312
  377MOL0     C50774   5.989   7.474   8.116  0.3546  0.0649  0.1539
  377MOL0     C50775   6.140   7.507   8.125  0.6854  0.1188  0.8963
  377MOL0     C50776   6.217   7.421   8.224  1.0020 -0.5243 -0.7570
  377MOL0     N50777   6.219   7.473   8.367 -0.3876 -0.1455  1.1303
  377MOL0     C50778   6.252   7.602   8.401  0.5239  0.2910  0.1510
  377MOL0     C50779   6.233   7.609   8.533  0.0195  0.5863  0.1740
  377MOL0     C50780   6.260   7.724   8.624  0.8114 -0.6849  0.5297
  377MOL0     C50781   6.141   7.817   8.656 -0.1554  0.0356 -0.9166
  377MOL0     C50782   6.028   7.733   8.709  0.8615 -0.4198 -0.6960
  377MOL0     C50783   6.070   7.653   8.841 -0.6219 -0.2218 -0.3609
  377MOL0     O50784   5.961   7.576   8.882 -0.5105  0.7578 -0.3935
  377MOL0     C50785   5.891   7.623   8.988 -0.9150 -0.4336 -0.0015
  377MOL0     C50786   5.754   7.652   8.964 -1.0433 -0.3928 -0.0680
  377MOL0     C50787   5.672   7.689   9.066  0.5678  0.0314  0.5480
  377MOL0     C50788   5.718   7.711   9.196 -0.0830 -0.5316 -0.2554
  377MOL0     C50789   5.615   7.736   9.299  0.2485  0.0093 -0.9089
  377MOL0     O50790   5.486   7.736   9.256 -0.0103  1.1795  0.0170
  377MOL0     C50791   5.394   7.755   9.348 -0.1075  0.0015 -0.3381
  377MOL0     C50792   5.300   7.849   9.298 -0.0947  0.5865 -0.9538
  377MOL0     C50793   5.186   7.875   9.371 -0.0943  0.1625 -0.9669
  377MOL0     C50794   5.163   7.807   9.497 -0.3595 -0.3100 -1.0063
  377MOL0     O50795   5.059   7.827   9.586 -0.2546 -0.1005 -0.2824
  377MOL0     C50796   4.950   7.909   9.546 -0.1206  0.2486 -1.1369
  377MOL0     C50797   4.854   7.934   9.658  0.5127 -0.8163 -0.5198
  377MOL0     C50798   4.754   8.036   9.613  0.4460 -0.6039 -0.7044
  377MOL0     C50799   4.622   7.976   9.564 -0.5431 -0.2386  0.3418
  377MOL0     C50800   4.509   8.073   9.539  0.3344 -1.4647 -0.4061
  377MOL0     C50801   4.552   8.187   9.448  0.3134 -0.2382  0.1683
  377MOL0     C50802   4.574   8.135   9.302  0.2218 -0.5842 -0.0834
  377MOL0     C50803   4.437   8.086   9.243 -1.0413 -1.4491  0.0059
  377MOL0    Cl50804   4.446   8.121   9.072 -0.0909  0.6312 -0.0372
  377MOL0     C50805   5.257   7.715   9.536 -0.4532  0.2332  0.1205
  377MOL0     C50806   5.375   7.689   9.471  0.2675  0.8474  0.6800
  377MOL0     O50807   5.655   7.756   9.413 -0.1047 -0.3437  0.0039
  377MOL0     C50808   5.858   7.691   9.227 -0.2839 -0.6087  0.5089
  377MOL0     C50809   5.942   7.651   9.114 -0.2244 -0.4852 -0.0004
  377MOL0     N50810   6.214   7.484   8.578 -0.1085 -0.2758  0.1033
  377MOL0     N50811   6.197   7.402   8.479 -0.0612  0.2981 -0.6218
  377MOL0     C50812   5.864   6.885   7.540 -0.0921  1.2624 -0.2922
  377MOL0     C50813   5.968   6.800   7.492  0.0013  0.6605  0.3383
  377MOL0     C50814   6.326   6.499   7.488  0.9950  0.3027 -0.3096
  377MOL0     C50815   6.382   6.559   7.374 -0.1645 -0.8429  0.3751
  377MOL0     C50816   6.478   6.493   7.305  1.0257  0.1292  0.0946
  377MOL0     C50817   6.527   6.364   7.330  0.6495  0.5438  0.0677
  377MOL0     O50818   6.625   6.298   7.263 -0.2656 -0.4443  0.3814
  377MOL0     C50819   6.683   6.367   7.152 -0.2494  0.3679  0.2392
  377MOL0     C50820   6.583   6.372   7.030 -0.1898  0.0738  0.2248
  377MOL0     C50821   6.616   6.476   6.927  0.9227  0.4390  0.7300
  377MOL0     C50822   6.538   6.461   6.796 -0.1587  0.1403 -0.1406
  377MOL0     C50823   6.497   6.594   6.735 -1.0802 -0.0472 -0.4519
  377MOL0     C50824   6.480   6.708   6.697 -1.0547 -0.2640 -0.1361
  377MOL0     C50825   6.468   6.305   7.440 -0.0253  0.6510 -0.5461
  377MOL0     C50826   6.373   6.367   7.526  0.3343  0.0622  0.8861
  377MOL0     C50827   6.302   6.287   7.637  0.0774 -0.0363  0.4368
  377MOL0     H50828   6.135   6.772   7.789 -1.1854 -2.1821 -0.1985
  377MOL0     H50829   5.948   6.877   7.867  2.2184 -1.7529 -0.2788
  377MOL0     H50830   5.600   7.046   7.829 -0.1606 -1.8469 -1.7493
  377MOL0     H50831   5.689   6.897   7.856  0.1667  0.3808 -0.9965
  377MOL0     H50832   5.859   7.047   7.983  0.4965  1.3475  3.0871
  377MOL0     H50833   5.698   7.064   8.046 -0.2504  0.8736  0.0978
  377MOL0     H50834   5.648   7.253   7.882  0.3939 -1.2388 -0.6183
  377MOL0     H50835   5.820   7.236   7.830  0.6878  1.5303  0.7903
  377MOL0     H50836   5.758   7.432   8.004  1.7552  1.9625  0.8508
  377MOL0     H50837   5.759   7.292   8.119 -0.6491 -1.9016 -1.6000
  377MOL0     H50838   5.997   7.273   8.097  2.7125  1.4241 -0.1744
  377MOL0     H50839   5.996   7.348   7.937 -0.0622 -0.6501  0.3395
  377MOL0     H50840   5.952   7.568   8.074  0.7137 -0.3413 -1.0889
  377MOL0     H50841   5.945   7.478   8.216 -2.1294 -0.3199 -0.8651
  377MOL0     H50842   6.143   7.609   8.162 -0.7160 -0.0115  1.4272
  377MOL0     H50843   6.182   7.512   8.024  0.5470  2.5338  0.9063
  377MOL0     H50844   6.158   7.329   8.227 -2.4860  1.5431  0.8823
  377MOL0     H50845   6.320   7.406   8.192  0.5203 -3.1163 -1.3268
  377MOL0     H50846   6.272   7.691   8.341  1.5459  0.2278  0.3661
  377MOL0     H50847   6.310   7.689   8.715  2.2439 -0.1473 -0.0263
  377MOL0     H50848   6.331   7.793   8.577 -0.1197  0.3913  0.6563
  377MOL0     H50849   6.169   7.892   8.730  1.3682 -2.9989  1.8716
  377MOL0     H50850   6.100   7.868   8.568  0.2903  0.0426 -1.1226
  377MOL0     H50851   5.984   7.660   8.640  0.0118 -2.0038  1.3993
  377MOL0     H50852   5.935   7.786   8.729  0.4703 -1.6001  0.8274
  377MOL0     H50853   6.105   7.725   8.916 -2.2677  1.6903 -1.3147
  377MOL0     H50854   6.153   7.589   8.810  1.3841  2.0900 -0.0587
  377MOL0     H50855   5.726   7.621   8.864  1.6426 -2.6957 -0.2370
  377MOL0     H50856   5.570   7.709   9.033  1.0800 -2.9431 -3.5730
  377MOL0     H50857   5.319   7.896   9.202 -1.4362 -0.1221 -1.5994
  377MOL0     H50858   5.115   7.950   9.339  0.5189  0.1906 -2.3513
  377MOL0     H50859   4.981   8.010   9.518 -1.4535  0.4327 -2.0802
  377MOL0     H50860   4.902   7.865   9.458 -2.7281  1.5146 -0.4444
  377MOL0     H50861   4.806   7.842   9.693  0.8616 -0.6156  0.5078
  377MOL0     H50862   4.904   7.989   9.738 -1.0602 -0.2146  0.0822
  377MOL0     H50863   4.735   8.101   9.699 -2.0080 -2.9697  0.7193
  377MOL0     H50864   4.789   8.086   9.522 -1.8694  0.7268 -0.9600
  377MOL0     H50865   4.586   7.909   9.642  1.2456  2.0667  3.3733
  377MOL0     H50866   4.646   7.916   9.475 -0.4942 -0.4138  0.4732
  377MOL0     H50867   4.484   8.126   9.631  1.0341 -1.4405 -0.2260
  377MOL0     H50868   4.418   8.026   9.502 -2.1981  3.0091 -0.5214
  377MOL0     H50869   4.476   8.266   9.450  0.7786  0.2838 -1.3276
  377MOL0     H50870   4.640   8.234   9.492  0.5648 -1.5041  1.0730
  377MOL0     H50871   4.647   8.054   9.304  1.8596  0.8459  0.3343
  377MOL0     H50872   4.619   8.207   9.233  0.5766 -2.7997 -2.2719
  377MOL0     H50873   4.409   7.980   9.240 -2.7652 -1.0810  1.4421
  377MOL0     H50874   4.345   8.134   9.277 -1.9534 -3.6260  0.7842
  377MOL0     H50875   5.255   7.677   9.638  1.0206  3.4289  1.4945
  377MOL0     H50876   5.443   7.614   9.508 -1.0343 -1.1451 -0.7330
  377MOL0     H50877   5.903   7.729   9.318 -3.0185 -3.8003  3.4952
  377MOL0     H50878   6.050   7.645   9.125 -0.3166  0.4646  1.8936
  377MOL0     H50879   5.798   6.922   7.463  2.3763  0.9638 -2.7047
  377MOL0     H50880   5.976   6.775   7.387  2.4623 -2.7811  1.2016
  377MOL0     H50881   6.367   6.656   7.328 -0.0844 -1.5391 -1.1831
  377MOL0     H50882   6.519   6.545   7.219  1.4338 -2.3582 -1.3081
  377MOL0     H50883   6.771   6.311   7.119  0.6293  0.3149  2.4865
  377MOL0     H50884   6.708   6.468   7.184  0.5133  1.1114 -2.4286
  377MOL0     H50885   6.480   6.392   7.062  0.2502  2.1837  0.4835
  377MOL0     H50886   6.600   6.278   6.978  1.2570  0.8646 -0.8043
  377MOL0     H50887   6.723   6.485   6.909  0.6413  0.8087 -0.8314
  377MOL0     H50888   6.595   6.575   6.969  1.0416  0.1199  1.5770
  377MOL0     H50889   6.590   6.397   6.725  0.0605 -2.3417  2.1019
  377MOL0     H50890   6.441   6.416   6.821  0.6540 -1.7480 -0.2375
  377MOL0     H50891   6.452   6.808   6.671 -1.5299 -0.0262  1.2321
  377MOL0     H50892   6.496   6.204   7.468  1.4848  0.6643 -1.8632
  377MOL0     H50893   6.314   6.179   7.625  2.3570  0.1455  0.6898
  377MOL0     H50894   6.343   6.307   7.737  0.5767 -2.4455  0.7661
  377MOL0     H50895   6.195   6.312   7.642  0.2978  2.0673 -2.6724
  378MOL0     O50896   0.913   2.990   6.428 -0.4804  0.1307 -0.0577
  378MOL0     C50897   0.877   3.000   6.315  0.0615  0.1850  0.1453
  378MOL0     O50898   0.955   3.034   6.203 -0.3761  0.7842  0.3182
  378MOL0     C50899   1.090   3.068   6.201  0.3973  0.4725  0.1232
  378MOL0     C50900   1.146   3.073   6.070  0.2632  0.3927  0.4854
  378MOL0     C50901   1.274   3.120   6.049  0.2915  0.2154 -1.2218
  378MOL0     C50902   1.356   3.140   6.164 -0.4152  0.1712 -0.3262
  378MOL0     O50903   1.493   3.179   6.151 -0.3463  0.4691  0.5799
  378MOL0     C50904   1.563   3.166   6.018  0.1202  0.5006  0.4286
  378MOL0     C50905   1.712   3.196   6.049  0.1313 -1.2050  0.3093
  378MOL0     C50906   1.799   3.161   5.933 -0.3763 -0.0275  1.1021
  378MOL0     C50907   1.776   3.250   5.809  0.5117 -1.5337  0.5132
  378MOL0     C50908   1.763   3.411   5.836 -0.1346  0.6530  0.4628
  378MOL0     C50909   1.800   3.502   5.711 -0.0832 -0.9171  0.6812
  378MOL0     C50910   1.728   3.472   5.584  0.1920 -0.3687 -0.7708
  378MOL0     C50911   1.584   3.533   5.572 -0.3250  0.0362  0.3128
  378MOL0     N50912   1.484   3.526   5.682  0.2483 -0.1541 -0.5674
  378MOL0     C50913   1.381   3.429   5.689  0.0825  0.1214  0.3037
  378MOL0     C50914   1.277   3.483   5.769 -0.8923 -0.2768  0.1722
  378MOL0     C50915   1.159   3.412   5.826  1.5061 -0.2018  0.1099
  378MOL0     C50916   1.031   3.470   5.795 -0.2553 -0.2177 -0.4870
  378MOL0     C50917   0.931   3.430   5.903 -0.2151  0.1526  1.0263
  378MOL0     C50918   0.789   3.442   5.868  0.9062 -0.1416 -0.3763
  378MOL0     O50919   0.712   3.373   5.964  0.4035 -0.1887 -0.5142
  378MOL0     C50920   0.579   3.345   5.937  0.2566  0.1115 -0.0561
  378MOL0     C50921   0.506   3.271   6.032  0.0351  0.2307 -0.0531
  378MOL0     C50922   0.375   3.221   6.003  0.2379 -0.7016 -0.5330
  378MOL0     C50923   0.306   3.257   5.879  0.9680  0.0333  0.1972
  378MOL0     C50924   0.160   3.232   5.860  0.8514  0.0143  0.8066
  378MOL0     O50925   0.102   3.151   5.948 -0.0061 -0.1380 -1.2137
  378MOL0     C50926  -0.029   3.115   5.953  0.2517  0.3497 -1.1810
  378MOL0     C50927  -0.130   3.182   5.897 -0.6628 -0.0187 -0.1355
  378MOL0     C50928  -0.269   3.139   5.903  0.0852 -0.1391 -0.0042
  378MOL0     C50929  -0.299   3.017   5.967 -0.4519  0.0295 -0.2766
  378MOL0     O50930  -0.426   2.973   5.973  0.7726  0.5588 -0.3752
  378MOL0     C50931  -0.487   2.919   5.850 -0.3424 -0.6298 -0.6991
  378MOL0     C50932  -0.620   2.860   5.881 -0.2804 -0.7798 -0.8973
  378MOL0     C50933  -0.725   2.959   5.940  0.4943  0.4383 -0.5017
  378MOL0     C50934  -0.866   2.888   5.953 -0.9226 -0.7171  0.4772
  378MOL0     C50935  -0.969   2.993   5.993  0.2029 -0.7059 -0.1044
  378MOL0     C50936  -1.019   3.084   5.883  0.6283 -0.3054 -0.3621
  378MOL0     C50937  -1.121   3.187   5.943 -0.7540  0.0602 -0.5810
  378MOL0     C50938  -1.171   3.272   5.819 -0.0292  0.2181 -0.6006
  378MOL0    Cl50939  -1.050   3.388   5.778 -0.1835  0.4464 -0.0968
  378MOL0     C50940  -0.193   2.951   6.036 -0.1980 -0.1523  0.6372
  378MOL0     C50941  -0.057   3.000   6.024 -0.1868 -0.0841  0.0041
  378MOL0     O50942   0.107   3.290   5.764 -0.6868 -0.3051 -0.7505
  378MOL0     C50943   0.383   3.334   5.790 -0.4465  0.6426 -0.4083
  378MOL0     C50944   0.512   3.375   5.818  0.1884  0.2319  0.6464
  378MOL0     N50945   1.323   3.614   5.797 -0.0645 -0.8017 -0.4208
  378MOL0     N50946   1.444   3.634   5.756 -0.2067 -0.4178 -0.8199
  378MOL0     C50947   1.310   3.112   6.292 -0.5928  0.0116  0.9795
  378MOL0     C50948   1.176   3.087   6.305 -0.8236 -0.0642  1.1565
  378MOL0     C50949   0.738   2.964   6.271  0.3466 -1.2550  0.4633
  378MOL0     C50950   0.708   2.982   6.140  0.0063 -0.3851  1.0274
  378MOL0     C50951   0.574   2.955   6.094  0.8342  0.1627  0.0761
  378MOL0     C50952   0.475   2.913   6.177 -0.2828 -0.4803 -0.9192
  378MOL0     O50953   0.355   2.879   6.124  0.2618  0.4998  0.5789
  378MOL0     C50954   0.360   2.751   6.049 -0.9719 -0.0207  0.0518
  378MOL0     C50955   0.293   2.773   5.904 -0.6532 -1.0273 -0.7838
  378MOL0     C50956   0.309   2.658   5.805  0.8201 -0.6743  0.3412
  378MOL0     C50957   0.285   2.681   5.654 -0.0019  0.2488  0.7719
  378MOL0     C50958   0.220   2.565   5.588 -0.1083  0.7599 -0.1743
  378MOL0     C50959   0.172   2.474   5.529  1.1975 -0.4086  0.4408
  378MOL0     C50960   0.502   2.912   6.314 -0.1448  0.5049  0.2233
  378MOL0     C50961   0.631   2.929   6.366  0.1525  0.2611 -0.0639
  378MOL0     C50962   0.655   2.901   6.517  0.0489  0.6398 -0.7353
  378MOL0     H50963   1.088   3.041   5.984  0.8335  0.1506  0.1874
  378MOL0     H50964   1.320   3.117   5.951  3.8586 -1.1639  0.3255
  378MOL0     H50965   1.550   3.065   5.980 -1.0672  0.9434 -0.4096
  378MOL0     H50966   1.517   3.235   5.947 -0.7438 -2.2133 -1.8255
  378MOL0     H50967   1.744   3.136   6.134 -2.1435 -0.7374  1.5532
  378MOL0     H50968   1.734   3.299   6.078 -0.5215 -0.7752 -0.6541
  378MOL0     H50969   1.801   3.054   5.910 -2.2177  0.0706  0.3209
  378MOL0     H50970   1.899   3.185   5.969 -0.2054  2.1749 -0.5893
  378MOL0     H50971   1.844   3.227   5.726 -0.5596 -1.4761 -0.3994
  378MOL0     H50972   1.681   3.223   5.762 -0.3123 -1.5603  2.1146
  378MOL0     H50973   1.659   3.422   5.868 -0.8427  2.6205 -2.1487
  378MOL0     H50974   1.830   3.441   5.917 -1.2107 -5.1865  4.0596
  378MOL0     H50975   1.791   3.603   5.752 -0.4758 -1.9360  3.2737
  378MOL0     H50976   1.906   3.488   5.687 -0.2209  0.7839 -1.2637
  378MOL0     H50977   1.714   3.363   5.580 -1.5485 -0.2062 -0.0071
  378MOL0     H50978   1.787   3.504   5.498  1.7264 -0.1031  0.3527
  378MOL0     H50979   1.586   3.641   5.553 -0.6695 -0.2137 -1.2254
  378MOL0     H50980   1.531   3.489   5.487 -0.5951 -1.2237  1.1071
  378MOL0     H50981   1.362   3.330   5.649 -3.4286  0.4084  0.9257
  378MOL0     H50982   1.157   3.309   5.789  1.0277 -1.6947  3.9299
  378MOL0     H50983   1.170   3.409   5.934  0.6058  0.0552  0.2162
  378MOL0     H50984   1.045   3.576   5.816  2.5440 -0.6809  0.4091
  378MOL0     H50985   0.988   3.451   5.697  1.6131 -0.4923 -1.3045
  378MOL0     H50986   0.955   3.484   5.995  2.0373  1.1354 -0.0682
  378MOL0     H50987   0.941   3.322   5.917 -2.9724 -0.4947 -1.0102
  378MOL0     H50988   0.774   3.402   5.767 -1.2039 -0.8156  0.1720
  378MOL0     H50989   0.766   3.549   5.865  1.5713  0.0023 -0.6327
  378MOL0     H50990   0.544   3.238   6.128 -1.2553  0.1274  0.4484
  378MOL0     H50991   0.314   3.181   6.084 -0.7530  1.7750  0.0323
  378MOL0     H50992  -0.122   3.272   5.839  1.3911  1.2699  1.9407
  378MOL0     H50993  -0.344   3.201   5.854 -0.8616 -0.6530  0.7578
  378MOL0     H50994  -0.502   2.993   5.771  1.0719 -0.9389 -1.2909
  378MOL0     H50995  -0.411   2.847   5.819  1.0793 -0.1412  1.4400
  378MOL0     H50996  -0.642   2.809   5.786 -2.3177  3.0271 -2.6979
  378MOL0     H50997  -0.598   2.792   5.963  0.8723 -0.5955 -1.0386
  378MOL0     H50998  -0.691   2.999   6.036 -0.2050 -0.2422  0.0445
  378MOL0     H50999  -0.736   3.046   5.875  0.0793  0.6173 -0.1979
  378MOL0     H51000  -0.873   2.807   6.026  0.8100 -2.3863 -1.1309
  378MOL0     H51001  -0.877   2.840   5.856  0.3145 -1.8152  0.8482
  378MOL0     H51002  -0.930   3.050   6.078 -2.8406 -3.0284  3.1490
  378MOL0     H51003  -1.057   2.943   6.036  0.8646 -2.5591 -0.8319
  378MOL0     H51004  -0.935   3.135   5.833  0.5126  1.7850  1.4034
  378MOL0     H51005  -1.067   3.012   5.818 -1.9600 -0.1406  1.2371
  378MOL0     H51006  -1.084   3.249   6.026  0.0086 -1.0279 -0.0945
  378MOL0     H51007  -1.210   3.137   5.982  0.0302  0.5167  1.9607
  378MOL0     H51008  -1.182   3.203   5.735 -2.5501 -2.6002  1.8260
  378MOL0     H51009  -1.265   3.323   5.844 -0.8920 -0.7720 -1.7140
  378MOL0     H51010  -0.204   2.871   6.109 -0.4057 -1.3222 -0.6475
  378MOL0     H51011   0.018   2.932   6.065 -1.4159 -0.4499  1.7784
  378MOL0     H51012   0.345   3.363   5.692 -3.2064  1.7311  0.8726
  378MOL0     H51013   0.570   3.430   5.745 -0.4079  0.2913  0.2165
  378MOL0     H51014   1.378   3.120   6.376 -0.0777  1.5954  0.4539
  378MOL0     H51015   1.146   3.066   6.407  0.7831 -0.8868  1.4964
  378MOL0     H51016   0.779   3.006   6.061 -1.3284 -0.7467 -0.3428
  378MOL0     H51017   0.548   2.944   5.989  2.4932 -0.8429 -0.2713
  378MOL0     H51018   0.321   2.674   6.116 -3.1085  1.8961  1.1318
  378MOL0     H51019   0.461   2.718   6.021 -0.0294  1.1809  1.7890
  378MOL0     H51020   0.323   2.872   5.870  2.2346 -1.2626  0.7467
  378MOL0     H51021   0.185   2.782   5.923 -0.5209 -1.2412  0.1462
  378MOL0     H51022   0.234   2.586   5.838 -0.5320  0.4021 -0.2370
  378MOL0     H51023   0.407   2.610   5.806  1.5283  0.6788  2.7448
  378MOL0     H51024   0.225   2.772   5.640  2.2361  1.8582  0.9230
  378MOL0     H51025   0.383   2.699   5.608  0.6960  1.8282  2.7174
  378MOL0     H51026   0.116   2.403   5.472  0.3990  2.0922 -2.1362
  378MOL0     H51027   0.423   2.881   6.382 -0.0569 -0.3996 -0.0664
  378MOL0     H51028   0.707   2.991   6.553 -0.3644  0.2888  0.7878
  378MOL0     H51029   0.572   2.889   6.586  0.1993 -0.0497 -0.6663
  378MOL0     H51030   0.711   2.808   6.525 -4.2482 -2.0797  0.8359
  379MOL0     O51031  11.328   4.366   6.981  0.7840  0.5148  0.2104
  379MOL0     C51032  11.367   4.316   6.876  1.1722  0.1419 -0.7536
  379MOL0     O51033  11.377   4.386   6.759 -0.2998 -0.3212 -0.0118
  379MOL0     C51034  11.399   4.530   6.770  0.8543  0.0142 -0.0775
  379MOL0     C51035  11.511   4.587   6.729  0.1292  0.6346  0.4868
  379MOL0     C51036  11.522   4.732   6.731 -1.0293  0.1404  0.1146
  379MOL0     C51037  11.415   4.815   6.779  0.3627 -0.3223  0.0249
  379MOL0     O51038  11.433   4.948   6.768  0.0673  0.1708 -0.2650
  379MOL0     C51039  11.345   5.028   6.841  0.2619  0.6782 -0.2282
  379MOL0     C51040  11.217   5.066   6.766 -0.8048  0.1489  0.0678
  379MOL0     C51041  11.228   5.105   6.615  0.0794  0.7007 -0.2051
  379MOL0     C51042  11.266   5.245   6.604 -0.7297 -0.0638 -0.0403
  379MOL0     C51043  11.319   5.276   6.458 -0.0034  1.1385 -0.1993
  379MOL0     C51044  11.267   5.420   6.410 -1.0579 -0.2851  0.4474
  379MOL0     C51045  11.129   5.412   6.348 -0.2606 -0.3675 -0.3561
  379MOL0     C51046  11.122   5.345   6.210  0.3631  0.0793  0.1284
  379MOL0     N51047  11.029   5.228   6.211 -0.5563  0.3267 -0.2533
  379MOL0     C51048  11.070   5.101   6.246 -0.0223  0.5324 -0.1791
  379MOL0     C51049  10.949   5.041   6.261  0.4512 -0.4374  0.6595
  379MOL0     C51050  10.929   4.894   6.298 -0.4568 -0.3898  0.1793
  379MOL0     C51051  11.035   4.829   6.385 -0.0509  0.7333  0.2893
  379MOL0     C51052  11.149   4.776   6.307  0.2689 -0.9847 -0.0898
  379MOL0     C51053  11.206   4.655   6.372  0.5158 -0.9230 -0.2086
  379MOL0     O51054  11.318   4.593   6.305 -0.5163  0.0248 -0.4266
  379MOL0     C51055  11.336   4.458   6.317 -0.1298 -0.5510 -0.9835
  379MOL0     C51056  11.381   4.384   6.215  0.3360  0.3410 -0.7433
  379MOL0     C51057  11.400   4.254   6.232  0.2931 -0.2814 -0.6394
  379MOL0     C51058  11.384   4.176   6.351 -0.2624  0.3119  0.1986
  379MOL0     C51059  11.412   4.028   6.358  0.2648 -0.7853  0.0878
  379MOL0     O51060  11.454   3.972   6.476  0.5190  1.3952  0.1553
  379MOL0     C51061  11.467   3.834   6.479 -0.0023 -0.3483 -0.1227
  379MOL0     C51062  11.359   3.745   6.484 -0.0671 -0.0453 -0.5546
  379MOL0     C51063  11.385   3.605   6.480  0.0838  0.4982 -0.3107
  379MOL0     C51064  11.513   3.554   6.487 -0.2041 -0.2778 -0.2370
  379MOL0     O51065  11.525   3.413   6.496 -0.2911  0.2725 -0.0578
  379MOL0     C51066  11.642   3.358   6.436  0.4216  0.3269  0.2806
  379MOL0     C51067  11.638   3.207   6.405  0.1381  0.3180 -0.1737
  379MOL0     C51068  11.541   3.124   6.492 -0.2692  1.1508  0.0537
  379MOL0     C51069  11.523   2.983   6.427  0.1515  0.0728 -0.1534
  379MOL0     C51070  11.445   2.877   6.511 -0.0839 -0.4112  0.5930
  379MOL0     C51071  11.412   2.742   6.439 -0.3203 -0.3330 -0.0992
  379MOL0     C51072  11.539   2.676   6.370  0.2359 -0.3451  0.3923
  379MOL0     C51073  11.641   2.629   6.478 -1.0594 -0.0283 -0.7516
  379MOL0    Cl51074  11.778   2.556   6.402 -0.1938  0.1108  0.4836
  379MOL0     C51075  11.620   3.638   6.483 -0.5026  0.1453 -1.7038
  379MOL0     C51076  11.599   3.776   6.487  0.9898 -0.4306  0.5052
  379MOL0     O51077  11.400   3.966   6.252 -0.0462 -0.5905 -0.8150
  379MOL0     C51078  11.349   4.252   6.465  0.8402 -0.1803  0.6003
  379MOL0     C51079  11.311   4.391   6.445 -0.1614 -0.9134 -0.3721
  379MOL0     N51080  10.844   5.130   6.227  0.4258  0.9027  1.0086
  379MOL0     N51081  10.893   5.237   6.197 -0.1201 -0.1791  0.0403
  379MOL0     C51082  11.309   4.743   6.838  0.5873 -1.0151 -0.0361
  379MOL0     C51083  11.301   4.598   6.830  0.2508 -0.3257  0.8998
  379MOL0     C51084  11.419   4.178   6.876 -0.5645 -0.3366  0.3983
  379MOL0     C51085  11.541   4.158   6.798 -0.0715  0.2368  0.3995
  379MOL0     C51086  11.580   4.020   6.784  0.3768 -0.4923  0.5824
  379MOL0     C51087  11.525   3.908   6.858  0.0884 -0.1316  0.5635
  379MOL0     O51088  11.572   3.787   6.858  0.1007 -0.2265  1.0416
  379MOL0     C51089  11.713   3.766   6.841 -1.0471 -0.4714 -0.8957
  379MOL0     C51090  11.756   3.622   6.887  0.5905  0.3051  0.1743
  379MOL0     C51091  11.677   3.500   6.832 -0.0149 -1.5731 -0.0928
  379MOL0     C51092  11.707   3.369   6.902 -0.1260  0.0808 -0.8396
  379MOL0     C51093  11.827   3.309   6.840  0.1010 -0.1735 -0.9000
  379MOL0     C51094  11.927   3.272   6.795 -0.1815  0.7293  0.1221
  379MOL0     C51095  11.411   3.935   6.929  0.3609  0.1946 -0.2214
  379MOL0     C51096  11.363   4.067   6.943 -0.4550  0.0619  0.6686
  379MOL0     C51097  11.238   4.088   7.032  0.1647 -0.6649  0.1856
  379MOL0     H51098  11.593   4.528   6.688 -2.6497 -1.1860 -3.1415
  379MOL0     H51099  11.613   4.781   6.696  0.0687 -1.5896  0.4100
  379MOL0     H51100  11.329   4.981   6.939 -3.6306  0.9244 -0.5745
  379MOL0     H51101  11.394   5.123   6.862 -0.6107  1.0843  0.0443
  379MOL0     H51102  11.157   5.138   6.822  2.6583  1.3497  2.5915
  379MOL0     H51103  11.165   4.971   6.776  2.7341 -2.1729 -1.4096
  379MOL0     H51104  11.133   5.109   6.561  0.2158  3.3938 -0.4063
  379MOL0     H51105  11.299   5.035   6.572  1.1249  1.2122  0.6207
  379MOL0     H51106  11.178   5.301   6.636  0.4135 -0.0262  3.5113
  379MOL0     H51107  11.347   5.277   6.671  0.1571 -0.3260 -0.9591
  379MOL0     H51108  11.428   5.284   6.455  0.0508  0.2814 -0.7515
  379MOL0     H51109  11.307   5.190   6.391  3.6633  0.8680 -0.7162
  379MOL0     H51110  11.276   5.496   6.488 -1.2862  0.4483 -0.2252
  379MOL0     H51111  11.328   5.451   6.325 -1.3834 -0.5031  0.1294
  379MOL0     H51112  11.095   5.516   6.338  2.0445  1.0458  4.1254
  379MOL0     H51113  11.068   5.354   6.418  0.0241 -0.1444  0.0710
  379MOL0     H51114  11.085   5.419   6.139 -3.1730 -1.5908  0.0432
  379MOL0     H51115  11.224   5.322   6.176  0.4559  1.9721 -1.0179
  379MOL0     H51116  11.168   5.060   6.266  0.0770  0.6417 -0.4315
  379MOL0     H51117  10.832   4.888   6.348 -0.4533  1.2544  0.4546
  379MOL0     H51118  10.912   4.838   6.206 -2.6795  1.0640 -0.3684
  379MOL0     H51119  11.076   4.894   6.462 -0.8011 -1.6702  2.9215
  379MOL0     H51120  10.984   4.741   6.425  0.1208  0.8629  0.8034
  379MOL0     H51121  11.227   4.851   6.322  1.1209 -1.9351  0.3577
  379MOL0     H51122  11.124   4.770   6.201 -0.0215  0.5041 -0.1206
  379MOL0     H51123  11.123   4.585   6.357  0.9350 -0.8057 -3.9165
  379MOL0     H51124  11.229   4.669   6.478 -2.0983 -0.8734  0.4339
  379MOL0     H51125  11.395   4.432   6.119  0.3023 -1.7423 -1.8557
  379MOL0     H51126  11.433   4.202   6.143  2.7166 -1.3479  0.7799
  379MOL0     H51127  11.262   3.793   6.493  1.2337  2.6172  0.1919
  379MOL0     H51128  11.301   3.538   6.492 -2.0117  2.5995 -2.2503
  379MOL0     H51129  11.667   3.416   6.347 -2.8134 -0.5529 -1.3536
  379MOL0     H51130  11.727   3.380   6.501  0.7627  1.9931 -0.6593
  379MOL0     H51131  11.613   3.197   6.299  1.2256  1.2339 -0.5496
  379MOL0     H51132  11.735   3.161   6.427 -1.0314 -2.0611  0.3232
  379MOL0     H51133  11.573   3.112   6.596  2.7084  2.5883 -0.6064
  379MOL0     H51134  11.449   3.183   6.497 -0.6404  0.5462  0.5022
  379MOL0     H51135  11.620   2.944   6.397 -0.1111 -1.1252  0.4574
  379MOL0     H51136  11.458   3.006   6.343  0.7294  0.8083 -0.4046
  379MOL0     H51137  11.345   2.917   6.527  0.0959  1.3777 -2.1305
  379MOL0     H51138  11.497   2.858   6.606 -1.2168  1.3998  1.6322
  379MOL0     H51139  11.358   2.677   6.508 -0.5953  0.9009  0.8927
  379MOL0     H51140  11.342   2.767   6.359 -1.3658  2.1751  1.4833
  379MOL0     H51141  11.593   2.749   6.310  1.7736  1.4891  3.7573
  379MOL0     H51142  11.514   2.588   6.310  1.8952 -0.3228 -0.3940
  379MOL0     H51143  11.683   2.705   6.545  4.0963 -1.6557 -1.6599
  379MOL0     H51144  11.597   2.546   6.534  1.6597  0.1397  1.9052
  379MOL0     H51145  11.725   3.614   6.495 -0.8716 -1.0958 -0.7104
  379MOL0     H51146  11.682   3.846   6.479 -1.8118  2.8882 -3.5830
  379MOL0     H51147  11.330   4.215   6.565 -3.5303  1.6506  0.6956
  379MOL0     H51148  11.271   4.435   6.536 -0.4752 -3.8881  1.0799
  379MOL0     H51149  11.228   4.790   6.892 -0.1909 -2.3839  0.0469
  379MOL0     H51150  11.212   4.556   6.874  0.3221  0.3733  1.7342
  379MOL0     H51151  11.590   4.237   6.741  1.7615 -1.4012 -0.4224
  379MOL0     H51152  11.664   4.007   6.716  2.3257  1.8430  2.3671
  379MOL0     H51153  11.762   3.848   6.894 -1.9676 -0.4801  0.0033
  379MOL0     H51154  11.748   3.781   6.739 -0.7691  0.2813 -0.6983
  379MOL0     H51155  11.749   3.618   6.996  2.0570  3.1577  0.4680
  379MOL0     H51156  11.857   3.598   6.851 -0.5599 -5.1719 -0.2952
  379MOL0     H51157  11.694   3.482   6.726  2.8923 -1.6273  0.3023
  379MOL0     H51158  11.571   3.518   6.850  0.1457  0.1310 -0.7481
  379MOL0     H51159  11.720   3.404   7.005 -2.3701 -0.7520 -0.2196
  379MOL0     H51160  11.617   3.309   6.893 -0.3799  0.2208  0.5331
  379MOL0     H51161  12.014   3.234   6.746 -0.9620 -1.1113  0.0864
  379MOL0     H51162  11.371   3.849   6.980 -0.7425  0.3332 -0.8291
  379MOL0     H51163  11.207   3.996   7.083  1.9834 -1.1649  0.4280
  379MOL0     H51164  11.272   4.169   7.097 -0.5875  2.3737 -2.9133
  379MOL0     H51165  11.157   4.132   6.973  0.2574  1.6914  1.6922
  380MOL0     O51166   1.476   6.174  11.301  0.3047 -0.1737  0.2919
  380MOL0     C51167   1.412   6.200  11.199  1.6050  0.1949  0.9961
  380MOL0     O51168   1.385   6.113  11.095 -0.7223 -0.0534  0.6301
  380MOL0     C51169   1.438   5.983  11.091  0.3199  0.3701 -0.2421
  380MOL0     C51170   1.566   5.936  11.123 -0.0511  0.1441 -0.0693
  380MOL0     C51171   1.600   5.798  11.131  0.6842 -0.6010  0.6723
  380MOL0     C51172   1.506   5.701  11.098 -0.1977  0.5052 -0.0040
  380MOL0     O51173   1.534   5.569  11.092  0.5140  0.1555 -0.5692
  380MOL0     C51174   1.489   5.484  10.982 -0.0434 -0.2028  0.5000
  380MOL0     C51175   1.504   5.334  11.020  0.1821 -0.1382 -0.7606
  380MOL0     C51176   1.652   5.286  11.010  0.0451 -0.0529  0.7558
  380MOL0     C51177   1.671   5.131  11.031  0.4211 -0.4290  0.3839
  380MOL0     C51178   1.812   5.095  10.986 -0.0450  1.0713  0.0791
  380MOL0     C51179   1.929   5.171  11.058  0.1889  0.3919 -0.0818
  380MOL0     C51180   2.063   5.104  11.028  0.0277  0.6287 -0.2826
  380MOL0     C51181   2.183   5.196  11.066 -0.1597  0.9603 -1.2684
  380MOL0     N51182   2.316   5.140  11.056  0.7048 -0.2891 -0.5070
  380MOL0     C51183   2.392   5.145  10.939  0.1037  0.7011 -0.4472
  380MOL0     C51184   2.500   5.077  10.981  0.0500  0.5033 -0.4115
  380MOL0     C51185   2.612   5.050  10.900 -0.4547 -0.4620  0.1700
  380MOL0     C51186   2.716   4.952  10.963 -0.0634 -0.2950  0.7851
  380MOL0     C51187   2.832   4.935  10.855 -0.1469  0.8072 -0.4804
  380MOL0     C51188   2.951   5.030  10.869 -0.5376 -0.1401 -0.6199
  380MOL0     O51189   2.996   5.028  11.005  0.2553 -0.0041 -0.5663
  380MOL0     C51190   3.095   5.121  11.024 -0.2644  0.0763  0.2190
  380MOL0     C51191   3.144   5.097  11.152 -0.1747  0.4556  0.4556
  380MOL0     C51192   3.243   5.182  11.207 -0.9289  0.1202 -0.4052
  380MOL0     C51193   3.317   5.262  11.119 -0.8366  0.0886 -0.3035
  380MOL0     C51194   3.436   5.338  11.179 -0.4489  0.0158  0.5066
  380MOL0     O51195   3.499   5.290  11.286 -0.5196  0.1145  0.6828
  380MOL0     C51196   3.555   5.370  11.386 -0.4745 -0.9830 -0.3434
  380MOL0     C51197   3.672   5.329  11.462  0.8863  0.0664 -0.4454
  380MOL0     C51198   3.725   5.422  11.551 -0.6990  0.8446  0.3454
  380MOL0     C51199   3.677   5.547  11.566  0.1568 -0.1240 -0.1500
  380MOL0     O51200   3.732   5.636  11.661  0.3462  0.2896 -0.1573
  380MOL0     C51201   3.652   5.681  11.770 -0.8376  0.1696 -0.5200
  380MOL0     C51202   3.588   5.570  11.869 -0.0840  0.4025  0.0988
  380MOL0     C51203   3.509   5.627  11.991  0.4642 -0.0703  0.8185
  380MOL0     C51204   3.613   5.639  12.112  0.5188  0.1157 -0.7584
  380MOL0     C51205   3.547   5.704  12.233  0.3812 -0.6352 -0.2465
  380MOL0     C51206   3.417   5.622  12.275  0.5046 -0.1129  0.2157
  380MOL0     C51207   3.358   5.680  12.399 -0.5384 -1.1282 -0.5277
  380MOL0     C51208   3.270   5.591  12.475 -0.2172  0.8221 -0.3582
  380MOL0    Cl51209   3.234   5.676  12.629 -0.7323 -0.0950 -0.2103
  380MOL0     C51210   3.555   5.583  11.503 -0.7493  0.2854 -0.1779
  380MOL0     C51211   3.503   5.493  11.413  0.5983  0.6675  0.2775
  380MOL0     O51212   3.474   5.443  11.130  0.0629 -0.8891 -0.1232
  380MOL0     C51213   3.282   5.264  10.991 -0.0695 -0.0163 -0.3884
  380MOL0     C51214   3.168   5.197  10.935 -0.3747  0.0039 -0.2117
  380MOL0     N51215   2.481   5.020  11.102  0.4663  0.2681 -0.6951
  380MOL0     N51216   2.370   5.059  11.155  0.1044  0.1458  0.3308
  380MOL0     C51217   1.371   5.749  11.068 -0.0836 -0.0633 -0.1506
  380MOL0     C51218   1.342   5.887  11.064  0.2046 -0.5156 -0.0262
  380MOL0     C51219   1.337   6.326  11.179  0.7124 -0.1156 -0.5323
  380MOL0     C51220   1.208   6.330  11.112 -0.5921 -0.2106 -0.2528
  380MOL0     C51221   1.143   6.454  11.103  0.6897 -0.8586 -0.5703
  380MOL0     C51222   1.199   6.571  11.145  0.0407 -0.7958  0.0341
  380MOL0     O51223   1.118   6.676  11.147  0.5051  0.0693  0.1146
  380MOL0     C51224   1.182   6.798  11.166  1.0235 -0.2153 -0.1977
  380MOL0     C51225   1.106   6.902  11.078  0.0074 -0.1583 -0.0213
  380MOL0     C51226   1.160   7.048  11.084  0.6955 -0.6131  1.1446
  380MOL0     C51227   1.288   7.071  11.005 -0.1651 -0.0990 -0.0122
  380MOL0     C51228   1.263   7.112  10.861 -0.9558  0.4732 -0.8557
  380MOL0     C51229   1.230   7.129  10.748  1.0150 -0.3407 -0.2037
  380MOL0     C51230   1.321   6.568  11.214  0.8025 -0.2415 -0.3922
  380MOL0     C51231   1.390   6.446  11.226 -0.2047  0.0290 -0.0251
  380MOL0     C51232   1.527   6.449  11.300 -0.3021  0.0096  0.2172
  380MOL0     H51233   1.641   6.008  11.157 -0.3236 -0.3091  1.5724
  380MOL0     H51234   1.704   5.777  11.153  0.4434 -2.5667  0.1425
  380MOL0     H51235   1.384   5.500  10.955  0.8165  0.5983 -2.7861
  380MOL0     H51236   1.556   5.497  10.897  0.2151  2.8406  1.0478
  380MOL0     H51237   1.444   5.264  10.962  1.1761 -2.2839  0.6428
  380MOL0     H51238   1.480   5.324  11.126  0.5597  2.5754 -0.3593
  380MOL0     H51239   1.704   5.340  11.089 -0.4006  0.1733  0.8962
  380MOL0     H51240   1.692   5.321  10.914 -1.8133  0.3822  0.0885
  380MOL0     H51241   1.655   5.109  11.137 -2.5472  2.7312  0.7632
  380MOL0     H51242   1.602   5.073  10.969 -1.0823  1.5515  0.0998
  380MOL0     H51243   1.811   4.988  11.007 -3.3216  1.3135  1.6302
  380MOL0     H51244   1.831   5.104  10.879  0.9143 -0.3297  0.0989
  380MOL0     H51245   1.938   5.268  11.009  4.9121  0.0554 -0.3324
  380MOL0     H51246   1.898   5.196  11.160  2.1977  2.4612  0.1082
  380MOL0     H51247   2.069   5.078  10.922 -1.8327 -0.1195 -0.2534
  380MOL0     H51248   2.063   5.009  11.082 -2.7528  0.7873  0.1866
  380MOL0     H51249   2.185   5.286  11.005 -0.5441  2.7259  1.2003
  380MOL0     H51250   2.164   5.235  11.166 -2.8957 -3.4983  0.2777
  380MOL0     H51251   2.384   5.210  10.853 -1.3414  1.5830  0.3198
  380MOL0     H51252   2.582   5.020  10.799  0.3584  1.2317 -0.6077
  380MOL0     H51253   2.667   5.144  10.894 -3.2204  1.5249  2.7658
  380MOL0     H51254   2.753   4.998  11.055  2.1543  0.6142 -0.4852
  380MOL0     H51255   2.662   4.859  10.985 -1.7510 -0.3377 -2.8993
  380MOL0     H51256   2.795   4.941  10.752 -0.0680 -0.3366 -0.5962
  380MOL0     H51257   2.870   4.833  10.865 -1.6765  0.4790  3.9710
  380MOL0     H51258   2.922   5.131  10.839 -2.0833 -0.6582 -0.9465
  380MOL0     H51259   3.028   5.000  10.798 -0.8631 -1.7968 -0.3036
  380MOL0     H51260   3.088   5.038  11.223  0.5745 -1.0470 -0.1600
  380MOL0     H51261   3.283   5.166  11.307  3.1387 -1.3001 -2.0424
  380MOL0     H51262   3.720   5.231  11.455 -2.3019 -1.6036 -0.8965
  380MOL0     H51263   3.800   5.393  11.624  0.2061 -0.2441 -0.9706
  380MOL0     H51264   3.708   5.755  11.827  0.4148  2.8617 -4.7831
  380MOL0     H51265   3.573   5.747  11.733 -0.1042  1.6130  0.4117
  380MOL0     H51266   3.524   5.504  11.809  0.0470  1.7437 -1.5727
  380MOL0     H51267   3.671   5.507  11.903  1.2075  3.2356  2.5942
  380MOL0     H51268   3.460   5.720  11.964  1.2231  0.1270  0.0674
  380MOL0     H51269   3.438   5.545  12.008  0.2934 -0.4399 -1.3504
  380MOL0     H51270   3.700   5.701  12.088 -0.1171  1.4610  0.3172
  380MOL0     H51271   3.639   5.535  12.135  0.7064  0.1572 -0.7805
  380MOL0     H51272   3.519   5.808  12.216  0.3270 -0.6881 -0.4847
  380MOL0     H51273   3.630   5.704  12.305  3.1873  1.2614 -3.2116
  380MOL0     H51274   3.343   5.643  12.197 -0.5586  0.2001  1.2817
  380MOL0     H51275   3.423   5.513  12.284 -2.1003 -0.3211  0.1700
  380MOL0     H51276   3.298   5.770  12.384 -1.6823 -2.0506 -1.7506
  380MOL0     H51277   3.447   5.712  12.453 -0.0813  0.6814 -2.2192
  380MOL0     H51278   3.175   5.568  12.426 -1.5225 -2.7892  3.3803
  380MOL0     H51279   3.319   5.496  12.497 -1.5085  0.0946 -0.5657
  380MOL0     H51280   3.488   5.666  11.525 -1.8945 -0.2712 -1.3947
  380MOL0     H51281   3.411   5.519  11.362  1.2517 -0.7345 -1.7406
  380MOL0     H51282   3.355   5.318  10.932 -0.4752 -1.7805 -2.6718
  380MOL0     H51283   3.150   5.212  10.829 -2.3737 -0.9303 -0.0455
  380MOL0     H51284   1.284   5.692  11.037 -1.4700  0.4428  2.4252
  380MOL0     H51285   1.243   5.917  11.032  0.5997  3.0173  1.6190
  380MOL0     H51286   1.166   6.241  11.067 -1.4358 -1.9142  3.5052
  380MOL0     H51287   1.046   6.454  11.053 -0.0417 -0.8297  0.7938
  380MOL0     H51288   1.284   6.797  11.128  0.8377 -1.7234 -0.7424
  380MOL0     H51289   1.184   6.831  11.270 -1.8834  1.5869 -0.6004
  380MOL0     H51290   1.002   6.914  11.109 -0.0635  0.7786 -0.5666
  380MOL0     H51291   1.105   6.874  10.973  1.1240  1.0998 -0.3970
  380MOL0     H51292   1.175   7.063  11.192  0.5163 -3.1516  1.5858
  380MOL0     H51293   1.085   7.120  11.049  0.0871 -2.2107 -1.0240
  380MOL0     H51294   1.344   7.155  11.047 -0.0065  0.0124 -0.4350
  380MOL0     H51295   1.361   6.989  11.003  1.1373  1.0300 -1.2231
  380MOL0     H51296   1.200   7.132  10.646  0.0172  0.6944  0.1030
  380MOL0     H51297   1.367   6.650  11.268 -2.9556  0.7076  1.6996
  380MOL0     H51298   1.599   6.380  11.255 -2.5722 -2.3501 -0.0021
  380MOL0     H51299   1.572   6.549  11.295 -0.0641 -0.0900  0.3280
  380MOL0     H51300   1.514   6.426  11.406  4.4998  0.1121  1.0529
  381MOL0     O51301   5.442  11.378   1.567  0.2722 -0.0228  0.3184
  381MOL0     C51302   5.477  11.413   1.456 -0.1381 -0.2618 -0.5640
  381MOL0     O51303   5.424  11.365   1.342  0.3937 -0.1267  0.2079
  381MOL0     C51304   5.311  11.289   1.365 -1.0439  0.1804 -0.3925
  381MOL0     C51305   5.184  11.340   1.350 -0.2278 -0.5452 -0.9878
  381MOL0     C51306   5.075  11.263   1.384  0.1062  0.6514 -0.0352
  381MOL0     C51307   5.097  11.130   1.420  0.2351  0.2828 -0.7569
  381MOL0     O51308   4.989  11.057   1.463 -0.4820  0.2650  0.7145
  381MOL0     C51309   4.866  11.048   1.377 -0.6016  0.5295  0.3685
  381MOL0     C51310   4.902  10.989   1.235  0.0441 -0.5613 -0.4306
  381MOL0     C51311   4.944  10.839   1.246 -0.2682 -0.1292 -0.2590
  381MOL0     C51312   4.840  10.729   1.266 -0.5728  0.4413  0.7640
  381MOL0     C51313   4.897  10.590   1.259  0.4743 -0.3891  0.7079
  381MOL0     C51314   4.786  10.489   1.261 -0.2587 -1.0642 -0.3213
  381MOL0     C51315   4.682  10.511   1.377  0.6432  0.1298  0.2864
  381MOL0     C51316   4.596  10.387   1.383 -0.3758  1.4482  0.8930
  381MOL0     N51317   4.505  10.375   1.503  0.6412 -1.3877 -0.5201
  381MOL0     C51318   4.522  10.328   1.633  0.0706 -1.3675  0.4627
  381MOL0     C51319   4.411  10.371   1.697 -0.3291 -0.2265 -0.7515
  381MOL0     C51320   4.371  10.347   1.845 -0.0342  1.1241 -0.6392
  381MOL0     C51321   4.456  10.422   1.945  0.2913  0.2997  0.1856
  381MOL0     C51322   4.568  10.336   2.007  0.3551 -0.9903 -0.7316
  381MOL0     C51323   4.616  10.398   2.138 -0.7524 -0.7177  0.3200
  381MOL0     O51324   4.709  10.511   2.120 -0.0647 -0.1720  1.3402
  381MOL0     C51325   4.843  10.476   2.134  0.3829 -0.7694 -0.3631
  381MOL0     C51326   4.928  10.462   2.019  0.0095 -0.6429  0.9074
  381MOL0     C51327   5.068  10.452   2.027 -0.0026 -0.2517 -1.0569
  381MOL0     C51328   5.133  10.456   2.160  0.5247  0.0716  0.3676
  381MOL0     C51329   5.281  10.451   2.189 -1.3216 -0.3720  0.2335
  381MOL0     O51330   5.328  10.387   2.299  0.9006 -0.2047 -1.0841
  381MOL0     C51331   5.458  10.372   2.312 -0.1211  0.5283 -0.8785
  381MOL0     C51332   5.536  10.490   2.342 -0.8023 -0.2054  0.1621
  381MOL0     C51333   5.674  10.491   2.340 -0.9891 -0.2123 -0.6050
  381MOL0     C51334   5.741  10.365   2.340 -1.0932 -0.4290 -0.2192
  381MOL0     O51335   5.882  10.346   2.331  0.0905  0.5277  0.3259
  381MOL0     C51336   5.956  10.459   2.289 -0.5935 -0.5525 -0.1095
  381MOL0     C51337   6.086  10.405   2.243 -0.7980  0.2305 -0.3807
  381MOL0     C51338   6.174  10.387   2.368 -0.3421  0.0459  0.0952
  381MOL0     C51339   6.310  10.322   2.337  0.7406  0.7248  0.0248
  381MOL0     C51340   6.402  10.439   2.276  0.0313  0.7276  0.6831
  381MOL0     C51341   6.546  10.394   2.244 -0.1357  0.5012 -0.0829
  381MOL0     C51342   6.645  10.433   2.362 -0.6005  0.4288  1.1287
  381MOL0     C51343   6.629  10.349   2.501 -0.3070 -1.0272 -0.4841
  381MOL0    Cl51344   6.662  10.179   2.465 -0.1439 -0.6489 -0.1320
  381MOL0     C51345   5.658  10.251   2.322  0.0602  0.2074 -0.2110
  381MOL0     C51346   5.521  10.249   2.308 -0.5110  0.5751 -0.0125
  381MOL0     O51347   5.353  10.503   2.096  0.1149  0.3449  0.1563
  381MOL0     C51348   5.044  10.470   2.263 -0.2479  0.2777 -0.0093
  381MOL0     C51349   4.910  10.479   2.256 -0.2504  0.5179 -0.9027
  381MOL0     N51350   4.349  10.472   1.622  0.6477  0.0698  0.4733
  381MOL0     N51351   4.398  10.467   1.500 -0.1074  0.2541  0.2184
  381MOL0     C51352   5.225  11.086   1.436  0.6872  0.3350 -0.2749
  381MOL0     C51353   5.332  11.162   1.406  0.3229 -0.2106  0.1427
  381MOL0     C51354   5.588  11.502   1.442 -1.0201  0.6784 -1.4940
  381MOL0     C51355   5.706  11.484   1.529  0.5669  1.0040  0.3948
  381MOL0     C51356   5.820  11.566   1.524 -1.3134  0.1719  0.0357
  381MOL0     C51357   5.818  11.672   1.434 -0.2019  0.3185  0.3764
  381MOL0     O51358   5.907  11.772   1.433  0.2023  1.4023 -0.1563
  381MOL0     C51359   6.028  11.739   1.511  0.7486  0.1694 -0.1008
  381MOL0     C51360   6.150  11.823   1.466 -0.4030  0.1358  0.0096
  381MOL0     C51361   6.147  11.968   1.528 -0.1981 -0.0697 -0.0036
  381MOL0     C51362   6.283  12.045   1.513 -0.2152 -0.3528  0.6201
  381MOL0     C51363   6.300  12.079   1.376  0.3528  1.0064  0.1797
  381MOL0     C51364   6.310  12.083   1.257 -0.3078 -0.4249  0.8574
  381MOL0     C51365   5.704  11.702   1.356 -0.3652  1.2489  0.6327
  381MOL0     C51366   5.587  11.615   1.356 -0.2967 -0.4349  0.4236
  381MOL0     C51367   5.486  11.663   1.250 -0.5992  0.3807 -0.2563
  381MOL0     H51368   5.171  11.439   1.306  1.6482 -0.6083 -1.7906
  381MOL0     H51369   4.976  11.306   1.373 -0.3591 -0.3138  0.2714
  381MOL0     H51370   4.785  10.990   1.423  0.6379 -0.8918  0.8501
  381MOL0     H51371   4.828  11.149   1.365 -0.6594  0.2566 -2.0930
  381MOL0     H51372   4.981  11.050   1.191 -0.1691 -2.4277 -3.7520
  381MOL0     H51373   4.815  11.000   1.171 -0.0789 -3.9452 -1.0383
  381MOL0     H51374   5.011  10.831   1.333  0.9856 -2.5714 -1.3339
  381MOL0     H51375   5.002  10.820   1.155  2.1216  2.7473  0.5106
  381MOL0     H51376   4.790  10.753   1.360 -1.3870  0.1034  0.4197
  381MOL0     H51377   4.761  10.719   1.191  1.1187 -1.2583 -0.9062
  381MOL0     H51378   4.966  10.576   1.175  3.2883  0.0105  2.7695
  381MOL0     H51379   4.969  10.569   1.339 -2.2285 -3.5968  2.5506
  381MOL0     H51380   4.738  10.493   1.163  1.4859 -1.5554 -1.2390
  381MOL0     H51381   4.826  10.387   1.271  0.5848 -0.7594 -0.4667
  381MOL0     H51382   4.617  10.597   1.360  0.7069 -0.4261 -3.9447
  381MOL0     H51383   4.735  10.517   1.473  0.7344 -1.7754  0.3986
  381MOL0     H51384   4.536  10.384   1.291  0.3413 -1.8804  0.4129
  381MOL0     H51385   4.656  10.296   1.392 -0.9420  0.4534 -3.2912
  381MOL0     H51386   4.588  10.248   1.664  1.0402 -0.3793  1.0088
  381MOL0     H51387   4.267  10.370   1.868  0.9346  1.8273  3.8974
  381MOL0     H51388   4.383  10.241   1.867  4.9712  1.4991 -0.2069
  381MOL0     H51389   4.489  10.521   1.911  1.4860  1.0410  3.1595
  381MOL0     H51390   4.384  10.445   2.024  0.0017 -0.7813  0.2459
  381MOL0     H51391   4.651  10.332   1.935  0.7192 -5.7368 -0.4024
  381MOL0     H51392   4.538  10.234   2.034  0.2544 -2.4208 -5.3524
  381MOL0     H51393   4.643  10.320   2.209  2.9704 -0.9722 -1.1642
  381MOL0     H51394   4.525  10.442   2.179 -0.0604  1.2140 -0.1041
  381MOL0     H51395   4.864  10.460   1.931 -2.4900 -2.0231  2.6187
  381MOL0     H51396   5.136  10.438   1.944  0.4438  2.2336 -1.1994
  381MOL0     H51397   5.480  10.583   2.334  0.4010  0.4960 -0.3106
  381MOL0     H51398   5.734  10.580   2.349 -2.3022  0.5181  2.1522
  381MOL0     H51399   5.903  10.520   2.216  0.1395  0.8371  0.4851
  381MOL0     H51400   5.969  10.538   2.363 -0.6435  2.4691 -3.0975
  381MOL0     H51401   6.072  10.313   2.187  0.7382  0.5304 -1.3261
  381MOL0     H51402   6.136  10.478   2.179  0.2983  0.5851  0.8105
  381MOL0     H51403   6.195  10.483   2.416 -0.2988 -0.5766  1.3680
  381MOL0     H51404   6.121  10.330   2.445 -0.8742  1.2660  0.6761
  381MOL0     H51405   6.296  10.233   2.275 -0.5621  0.1173  1.1451
  381MOL0     H51406   6.353  10.281   2.428  1.9170 -0.3414 -0.9617
  381MOL0     H51407   6.409  10.532   2.332 -2.7210  1.5214 -0.1404
  381MOL0     H51408   6.362  10.473   2.180  1.6615  1.3771  0.2007
  381MOL0     H51409   6.545  10.286   2.229  0.2019  0.5902 -0.7954
  381MOL0     H51410   6.582  10.443   2.154  0.5408 -1.5345 -0.9762
  381MOL0     H51411   6.644  10.538   2.390 -0.6486  0.9437 -0.6615
  381MOL0     H51412   6.743  10.424   2.314  0.2709  2.4197  2.4301
  381MOL0     H51413   6.711  10.371   2.571 -0.0568  0.6152 -1.2625
  381MOL0     H51414   6.537  10.382   2.551  1.3187  1.2471  1.2282
  381MOL0     H51415   5.697  10.150   2.308 -0.0114 -0.3350  2.8164
  381MOL0     H51416   5.469  10.155   2.290 -0.2971  0.2380  1.0769
  381MOL0     H51417   5.095  10.480   2.359 -1.1936 -1.5801  0.7293
  381MOL0     H51418   4.850  10.492   2.345  3.0324 -0.4399  1.6531
  381MOL0     H51419   5.239  10.983   1.467  2.0805  0.4790 -0.3758
  381MOL0     H51420   5.431  11.119   1.400 -0.9364 -3.6187  1.3086
  381MOL0     H51421   5.707  11.392   1.586 -1.5026 -0.5180 -1.8179
  381MOL0     H51422   5.894  11.545   1.600  1.0539  2.8326 -1.3438
  381MOL0     H51423   6.062  11.635   1.507 -0.1668 -0.1216 -2.0857
  381MOL0     H51424   5.990  11.761   1.611 -1.1226 -3.9310  0.3225
  381MOL0     H51425   6.145  11.821   1.356 -0.9084  1.6576 -0.0246
  381MOL0     H51426   6.235  11.765   1.504 -2.2552 -0.6015  3.3155
  381MOL0     H51427   6.132  11.968   1.636 -1.7270 -1.2699 -0.1894
  381MOL0     H51428   6.078  12.036   1.478  0.5050  1.6198  1.2077
  381MOL0     H51429   6.282  12.135   1.575 -1.9721  1.2674 -1.5725
  381MOL0     H51430   6.358  11.985   1.564  0.1218 -0.6224 -0.1678
  381MOL0     H51431   6.328  12.091   1.152 -1.1355  0.2261  0.7493
  381MOL0     H51432   5.701  11.801   1.310 -0.0587  1.9469  2.0444
  381MOL0     H51433   5.384  11.676   1.287 -1.0112 -0.9403 -0.8561
  381MOL0     H51434   5.508  11.763   1.213  2.5802  0.0057  0.3293
  381MOL0     H51435   5.491  11.580   1.178  0.6246  0.2779 -0.0726
  382MOL0     O51436   4.433   3.534   1.563 -0.0478 -0.6004 -0.4985
  382MOL0     C51437   4.345   3.594   1.495 -0.7468  1.4007  0.2484
  382MOL0     O51438   4.353   3.726   1.447 -0.3997 -0.3637  0.0944
  382MOL0     C51439   4.437   3.819   1.508 -0.1514  0.4961 -0.1384
  382MOL0     C51440   4.441   3.834   1.644 -0.6511  0.6496  0.8935
  382MOL0     C51441   4.518   3.929   1.710  0.3184 -0.4459  0.2479
  382MOL0     C51442   4.611   4.002   1.631  0.1180 -0.4669 -0.2370
  382MOL0     O51443   4.705   4.081   1.699  0.0050 -0.7111  0.3636
  382MOL0     C51444   4.819   4.014   1.752  0.1946  0.0240 -0.5726
  382MOL0     C51445   4.837   4.089   1.882 -0.0686 -0.9731 -0.1567
  382MOL0     C51446   4.971   4.055   1.948  0.5765  0.5574  0.6369
  382MOL0     C51447   5.096   4.105   1.878  0.1982  0.2871 -0.9637
  382MOL0     C51448   5.216   4.063   1.969  0.4702  0.8275 -0.2792
  382MOL0     C51449   5.342   4.138   1.930 -0.6720  1.1144 -0.0448
  382MOL0     C51450   5.398   4.088   1.794  0.1608  0.7381  0.3341
  382MOL0     C51451   5.517   4.166   1.733 -0.0419 -0.1606 -0.0564
  382MOL0     N51452   5.633   4.167   1.822 -0.4711  0.3170 -0.5876
  382MOL0     C51453   5.681   4.273   1.899  0.2674 -0.6594 -0.5559
  382MOL0     C51454   5.782   4.228   1.977  0.6025  0.0764  0.3084
  382MOL0     C51455   5.878   4.297   2.074  0.4851 -0.0467  1.0497
  382MOL0     C51456   6.020   4.277   2.013 -1.6094 -0.0121 -0.2245
  382MOL0     C51457   6.130   4.359   2.080  0.9059  0.0956  0.3986
  382MOL0     C51458   6.267   4.326   2.021 -0.6080  0.6034 -0.1567
  382MOL0     O51459   6.376   4.338   2.115  0.4304 -0.1114  0.0813
  382MOL0     C51460   6.503   4.362   2.057  0.4769 -0.5136  0.2278
  382MOL0     C51461   6.537   4.338   1.926  0.1451 -0.2869 -0.0496
  382MOL0     C51462   6.675   4.357   1.894  1.5688 -0.3222  0.3655
  382MOL0     C51463   6.770   4.409   1.986  0.0856  0.3660  0.0537
  382MOL0     C51464   6.912   4.445   1.942  1.1310  0.5929 -0.8685
  382MOL0     O51465   6.927   4.422   1.813 -0.2993 -0.2539 -0.2170
  382MOL0     C51466   7.043   4.456   1.755 -0.1174 -0.0116  0.2407
  382MOL0     C51467   7.153   4.371   1.799 -0.7052 -0.2515  0.4702
  382MOL0     C51468   7.274   4.390   1.735  0.4130 -0.1018  0.2014
  382MOL0     C51469   7.300   4.482   1.638  0.5612  0.3779  0.5186
  382MOL0     O51470   7.426   4.491   1.587  0.2781  0.3541  0.1644
  382MOL0     C51471   7.481   4.623   1.570 -0.0808 -0.7132 -0.5083
  382MOL0     C51472   7.619   4.609   1.515  0.0930 -0.6746 -0.6348
  382MOL0     C51473   7.694   4.731   1.560 -0.0574 -0.3547 -0.0034
  382MOL0     C51474   7.848   4.714   1.550  0.3718 -0.0936 -0.1009
  382MOL0     C51475   7.929   4.829   1.616  0.7212  1.2534  0.0890
  382MOL0     C51476   8.067   4.862   1.545 -0.7592  0.7857 -0.7238
  382MOL0     C51477   8.129   4.989   1.601  0.1694  1.0717 -0.6521
  382MOL0     C51478   8.280   5.000   1.570 -0.1033 -0.6097  0.3350
  382MOL0    Cl51479   8.302   5.107   1.428  0.4164 -0.3666  0.3827
  382MOL0     C51480   7.194   4.554   1.587  0.0652 -0.2015  0.1847
  382MOL0     C51481   7.067   4.541   1.644  1.0618 -1.0196 -0.9147
  382MOL0     O51482   6.988   4.489   2.028  0.6176 -0.7915  0.8498
  382MOL0     C51483   6.729   4.425   2.122 -0.7045 -0.0566  0.4256
  382MOL0     C51484   6.591   4.395   2.153 -0.5221 -0.4783  0.2228
  382MOL0     N51485   5.801   4.093   1.941  0.1216  0.0568  0.2025
  382MOL0     N51486   5.710   4.059   1.863 -0.3684 -0.5115  0.6567
  382MOL0     C51487   4.612   3.995   1.492  0.3472 -0.5464 -0.2342
  382MOL0     C51488   4.522   3.903   1.434  0.7026  0.0100 -0.0169
  382MOL0     C51489   4.219   3.509   1.471 -0.1217 -0.5146  0.4010
  382MOL0     C51490   4.114   3.586   1.419 -1.3756 -0.1622 -0.5229
  382MOL0     C51491   3.991   3.529   1.408 -0.6174  0.6984 -0.5734
  382MOL0     C51492   3.965   3.402   1.454  0.1097 -0.4262 -0.6757
  382MOL0     O51493   3.834   3.362   1.441  0.0837 -0.2889 -0.1781
  382MOL0     C51494   3.784   3.250   1.519 -0.2564 -0.6138  0.6969
  382MOL0     C51495   3.646   3.277   1.578 -0.0153  0.8674 -0.2797
  382MOL0     C51496   3.576   3.144   1.633  0.2260 -0.2238  0.1495
  382MOL0     C51497   3.450   3.114   1.555  0.5779  0.1887 -0.1844
  382MOL0     C51498   3.338   3.210   1.582 -1.0619  0.1316 -0.6067
  382MOL0     C51499   3.249   3.284   1.609 -0.4053 -0.6992  0.0721
  382MOL0     C51500   4.067   3.321   1.495  0.0221 -0.8418 -0.2070
  382MOL0     C51501   4.196   3.377   1.508  0.4495  0.4564 -0.7737
  382MOL0     C51502   4.302   3.284   1.553 -0.4273 -0.0151 -0.0560
  382MOL0     H51503   4.381   3.770   1.707 -1.9195  2.4879  1.6628
  382MOL0     H51504   4.511   3.955   1.815 -0.0868  3.2499 -0.5565
  382MOL0     H51505   4.823   3.906   1.769 -2.0966  0.2545  2.1829
  382MOL0     H51506   4.906   4.039   1.690  1.1624 -1.4749  0.1192
  382MOL0     H51507   4.758   4.061   1.952 -4.2671  1.7494 -3.2958
  382MOL0     H51508   4.835   4.198   1.868  0.0687 -0.4432  3.1112
  382MOL0     H51509   4.973   3.946   1.952 -2.1722  0.3255 -1.2305
  382MOL0     H51510   4.968   4.098   2.048 -1.3822 -1.7381  1.6429
  382MOL0     H51511   5.094   4.078   1.772  0.4845  1.7271 -1.3617
  382MOL0     H51512   5.099   4.214   1.884  2.0255  0.2597 -0.9196
  382MOL0     H51513   5.197   4.085   2.074 -1.0853 -0.8843 -0.1648
  382MOL0     H51514   5.228   3.955   1.970  1.1010  0.7942  3.4817
  382MOL0     H51515   5.318   4.245   1.926  0.3104  1.5026  2.4316
  382MOL0     H51516   5.424   4.116   2.000  0.5833 -1.7585 -2.2022
  382MOL0     H51517   5.316   4.086   1.721  1.1200 -1.8478 -0.8159
  382MOL0     H51518   5.428   3.984   1.811 -0.8003  0.3001 -0.5565
  382MOL0     H51519   5.525   4.105   1.643 -0.3587 -1.2307  0.6227
  382MOL0     H51520   5.487   4.271   1.717  1.2623  0.4346  1.1735
  382MOL0     H51521   5.647   4.376   1.885 -1.4474 -0.5275  3.3820
  382MOL0     H51522   5.860   4.405   2.073 -0.0261 -0.0476  3.8210
  382MOL0     H51523   5.865   4.252   2.173 -2.5957 -2.6696 -0.3523
  382MOL0     H51524   6.033   4.168   2.018 -2.2255 -0.0672  0.2684
  382MOL0     H51525   6.018   4.308   1.908  0.3275  1.6966  0.1947
  382MOL0     H51526   6.117   4.330   2.185  1.3087  0.0560  0.4399
  382MOL0     H51527   6.117   4.467   2.070 -0.2547 -0.2435 -6.1387
  382MOL0     H51528   6.276   4.385   1.929 -3.5828  0.2259 -0.8056
  382MOL0     H51529   6.262   4.220   1.992 -6.0296  1.4766 -3.8974
  382MOL0     H51530   6.470   4.290   1.855 -0.2391 -2.9881  2.0082
  382MOL0     H51531   6.707   4.345   1.791  1.1274  2.2354 -0.1437
  382MOL0     H51532   7.135   4.295   1.874  2.4338 -1.4790  0.1113
  382MOL0     H51533   7.357   4.327   1.765  0.3940 -0.5495 -0.6672
  382MOL0     H51534   7.421   4.693   1.512 -0.1609  0.3478  0.7933
  382MOL0     H51535   7.488   4.658   1.674  0.0946 -0.8004 -0.4909
  382MOL0     H51536   7.666   4.516   1.550 -0.6445 -1.4128 -1.5550
  382MOL0     H51537   7.603   4.620   1.408 -1.7352  0.5284 -0.2762
  382MOL0     H51538   7.667   4.820   1.501  0.4235 -0.3195 -0.1685
  382MOL0     H51539   7.668   4.745   1.666  4.0090  0.0147  1.0899
  382MOL0     H51540   7.872   4.712   1.443  0.9144  0.6710 -0.0056
  382MOL0     H51541   7.882   4.620   1.594 -0.6922 -0.8448 -0.8102
  382MOL0     H51542   7.949   4.798   1.718  2.0507  0.2002 -0.4675
  382MOL0     H51543   7.867   4.920   1.616 -1.7932 -0.3282 -0.9414
  382MOL0     H51544   8.137   4.780   1.565 -1.3619  0.0461 -1.5752
  382MOL0     H51545   8.058   4.880   1.437 -0.3423 -0.2650 -0.9452
  382MOL0     H51546   8.115   4.977   1.709 -2.6120  0.0353 -1.0524
  382MOL0     H51547   8.069   5.072   1.563 -1.1378 -0.7801 -2.9313
  382MOL0     H51548   8.341   5.044   1.649  3.3271  2.4266 -3.5276
  382MOL0     H51549   8.319   4.905   1.533  6.3498  2.1564 -1.3770
  382MOL0     H51550   7.213   4.611   1.496 -1.5558  3.0377  1.7177
  382MOL0     H51551   6.990   4.605   1.602  0.6973 -1.2302 -0.5782
  382MOL0     H51552   6.801   4.452   2.199 -2.6820 -0.2146  2.4364
  382MOL0     H51553   6.566   4.416   2.257 -2.4404 -0.8916 -0.1169
  382MOL0     H51554   4.685   4.058   1.443  0.0475 -2.0593 -2.7664
  382MOL0     H51555   4.502   3.907   1.327  3.7494 -1.4138 -0.7639
  382MOL0     H51556   4.123   3.685   1.376 -1.4030 -0.1374 -0.4721
  382MOL0     H51557   3.905   3.582   1.366 -1.0579  0.3149 -0.1635
  382MOL0     H51558   3.847   3.233   1.607  3.4844  0.4254 -1.5366
  382MOL0     H51559   3.797   3.161   1.458  0.4760  1.7378 -2.8495
  382MOL0     H51560   3.592   3.310   1.489 -0.5793  2.5768  0.6731
  382MOL0     H51561   3.652   3.360   1.649 -1.2433  3.7823 -3.3379
  382MOL0     H51562   3.553   3.145   1.740  2.1266 -0.0819  0.5971
  382MOL0     H51563   3.646   3.062   1.617 -1.7575 -1.7745 -1.0612
  382MOL0     H51564   3.467   3.128   1.448  1.3659  0.5677 -0.0131
  382MOL0     H51565   3.420   3.011   1.574  0.0549  0.5811  1.3185
  382MOL0     H51566   3.172   3.356   1.631 -1.7004 -1.6460 -1.1636
  382MOL0     H51567   4.047   3.218   1.522 -2.1310 -0.8434 -1.5573
  382MOL0     H51568   4.368   3.327   1.628 -1.2930  2.9104 -0.8484
  382MOL0     H51569   4.251   3.200   1.602 -1.7600 -0.2247 -1.6963
  382MOL0     H51570   4.363   3.243   1.472 -3.7919  0.4301 -3.1043
  383MOL0     O51571   2.966   0.392   4.255  0.1361  0.8402  0.7197
  383MOL0     C51572   2.945   0.273   4.278  1.6442 -0.5791 -0.7715
  383MOL0     O51573   2.830   0.210   4.269  0.1424 -0.3881  0.4253
  383MOL0     C51574   2.725   0.258   4.186 -0.4761 -0.4719  0.3999
  383MOL0     C51575   2.609   0.317   4.243  0.0696 -0.8385 -0.7049
  383MOL0     C51576   2.495   0.336   4.169  0.2135 -0.0691  0.4989
  383MOL0     C51577   2.497   0.315   4.023 -1.2129 -0.0825 -0.0180
  383MOL0     O51578   2.392   0.349   3.939  0.0584  0.7117  0.0217
  383MOL0     C51579   2.256   0.329   3.978  0.2656 -0.4105 -0.7199
  383MOL0     C51580   2.228   0.186   4.032 -0.5103 -0.2648  0.0144
  383MOL0     C51581   2.081   0.162   4.087  0.5598  0.1345 -0.2117
  383MOL0     C51582   1.993   0.166   3.964  0.2934  0.0044 -0.1512
  383MOL0     C51583   1.854   0.120   3.998  0.0960 -0.3305  1.1593
  383MOL0     C51584   1.774   0.122   3.864 -0.3450  0.5913  0.3649
  383MOL0     C51585   1.621   0.088   3.892 -0.0072 -0.0162  0.8348
  383MOL0     C51586   1.542   0.069   3.760 -0.0897  0.5576 -0.2806
  383MOL0     N51587   1.402   0.082   3.793  0.0557 -1.0930 -0.3010
  383MOL0     C51588   1.335   0.072   3.920  0.3408 -0.8915  0.1089
  383MOL0     C51589   1.205   0.075   3.886 -0.9575  0.2291 -0.3990
  383MOL0     C51590   1.108   0.088   3.997 -0.1115  0.8403 -1.2926
  383MOL0     C51591   0.961   0.122   3.955 -0.4250 -1.0154 -0.6975
  383MOL0     C51592   0.879   0.111   4.088  0.6931  0.0885 -0.7076
  383MOL0     C51593   0.737   0.128   4.080  0.5393  0.3769  0.0087
  383MOL0     O51594   0.686   0.042   3.983 -0.2851 -0.4435 -0.1420
  383MOL0     C51595   0.641   0.085   3.863  1.0168  0.0226 -0.1949
  383MOL0     C51596   0.640   0.225   3.819 -0.3318  0.8031 -0.5303
  383MOL0     C51597   0.608   0.244   3.687 -0.5496 -1.0234  0.8706
  383MOL0     C51598   0.568   0.141   3.599  0.7544 -0.8979 -0.5473
  383MOL0     C51599   0.516   0.165   3.461  0.9717  1.1776 -1.8124
  383MOL0     O51600   0.502   0.056   3.376 -0.2216  0.4995  0.4771
  383MOL0     C51601   0.461   0.092   3.251 -0.4119 -0.0524  1.2794
  383MOL0     C51602   0.570   0.107   3.165 -1.5378 -0.2610  0.0593
  383MOL0     C51603   0.561   0.155   3.032  0.4061 -0.4101  0.3836
  383MOL0     C51604   0.428   0.162   2.984 -0.1842  0.3128 -0.2570
  383MOL0     O51605   0.420   0.201   2.850  0.8775  0.6000 -0.0355
  383MOL0     C51606   0.294   0.170   2.792  0.0545  1.0517  0.6281
  383MOL0     C51607   0.311   0.185   2.636 -0.0723 -1.3101 -0.0150
  383MOL0     C51608   0.193   0.118   2.560  0.2019  0.2875  1.1312
  383MOL0     C51609   0.210   0.135   2.406  0.5553 -1.2517 -0.2729
  383MOL0     C51610   0.094   0.065   2.332  0.8549  0.3650 -0.6778
  383MOL0     C51611   0.082  -0.087   2.365  0.1558  0.3788  0.2431
  383MOL0     C51612  -0.003  -0.167   2.260  0.7016  0.3663 -0.2082
  383MOL0     C51613  -0.028  -0.316   2.306 -0.3196 -1.0950  0.3669
  383MOL0    Cl51614   0.125  -0.390   2.372 -0.2227 -0.0117  0.0625
  383MOL0     C51615   0.311   0.142   3.072  0.3330  0.7290 -0.3102
  383MOL0     C51616   0.324   0.115   3.207 -0.3227 -0.3199  0.3344
  383MOL0     O51617   0.469   0.273   3.437  0.1901 -0.0181  0.1536
  383MOL0     C51618   0.571   0.011   3.642 -0.0138 -0.5017  0.3683
  383MOL0     C51619   0.604  -0.024   3.777 -0.3750  0.7423 -0.3181
  383MOL0     N51620   1.185   0.103   3.755 -0.2320  0.1658  0.1051
  383MOL0     N51621   1.302   0.107   3.699  1.2568 -0.2532 -0.5421
  383MOL0     C51622   2.613   0.273   3.964 -0.3017 -1.2590 -0.1542
  383MOL0     C51623   2.731   0.235   4.041  0.3804  0.4617 -1.0233
  383MOL0     C51624   3.053   0.189   4.331 -0.0713 -0.0614  0.1167
  383MOL0     C51625   3.040   0.046   4.344 -0.0171  0.3566 -0.1852
  383MOL0     C51626   3.139  -0.038   4.404  0.0181 -0.0243 -0.1418
  383MOL0     C51627   3.263   0.017   4.443  1.6327 -0.1029  0.4876
  383MOL0     O51628   3.349  -0.067   4.501 -0.1072  0.4996  0.5257
  383MOL0     C51629   3.440  -0.019   4.605  0.6685 -0.3693 -1.0648
  383MOL0     C51630   3.362  -0.022   4.736 -0.1406 -0.5969 -0.7182
  383MOL0     C51631   3.452   0.012   4.849 -0.1949 -0.4119  0.1454
  383MOL0     C51632   3.542  -0.099   4.900  0.4094  0.2278  0.2539
  383MOL0     C51633   3.685  -0.055   4.906 -0.2619 -0.3272 -0.6308
  383MOL0     C51634   3.804  -0.029   4.903 -0.3833  0.2424 -0.2063
  383MOL0     C51635   3.289   0.156   4.423 -0.4145  0.7141  0.1730
  383MOL0     C51636   3.183   0.242   4.378  0.2552  0.4716  0.2756
  383MOL0     C51637   3.205   0.389   4.414  0.2162  0.5146  0.5276
  383MOL0     H51638   2.603   0.350   4.347  0.9071 -1.3664 -0.4779
  383MOL0     H51639   2.405   0.367   4.221 -0.8516 -0.8667 -0.7921
  383MOL0     H51640   2.223   0.385   4.066  0.9729 -0.1147 -0.6356
  383MOL0     H51641   2.184   0.357   3.901 -0.2698 -1.9864 -0.8114
  383MOL0     H51642   2.271   0.169   4.132 -2.2725  0.1099  0.8733
  383MOL0     H51643   2.254   0.094   3.979  1.9144 -1.8997  3.6369
  383MOL0     H51644   2.055   0.242   4.157  2.4271  4.2807 -3.7776
  383MOL0     H51645   2.072   0.065   4.139 -4.4683  0.2055 -0.5506
  383MOL0     H51646   1.994   0.261   3.910 -2.0192  0.0506 -0.2353
  383MOL0     H51647   2.029   0.091   3.893  2.2787  1.8791 -1.2543
  383MOL0     H51648   1.854   0.018   4.037 -0.6867 -1.9027 -2.5420
  383MOL0     H51649   1.808   0.188   4.070  0.2747  0.2674  0.7162
  383MOL0     H51650   1.768   0.226   3.830  0.7513  0.3362 -0.6533
  383MOL0     H51651   1.821   0.070   3.780 -0.3238 -0.4701  1.0149
  383MOL0     H51652   1.576   0.170   3.948  0.1325  0.0064  0.9134
  383MOL0     H51653   1.602  -0.005   3.947 -2.0758 -2.2239 -3.1504
  383MOL0     H51654   1.581   0.149   3.695 -0.8160 -0.0437 -1.4990
  383MOL0     H51655   1.563  -0.029   3.716  2.7433  0.3872  1.2423
  383MOL0     H51656   1.389   0.076   4.014  0.3481 -0.0089  0.0769
  383MOL0     H51657   1.105  -0.009   4.048 -0.7633  1.2619 -0.5026
  383MOL0     H51658   1.142   0.166   4.065  3.0729 -1.1076 -0.4783
  383MOL0     H51659   0.952   0.226   3.925 -0.3330 -1.3859 -2.0755
  383MOL0     H51660   0.917   0.058   3.878 -0.5458 -0.6822 -0.9060
  383MOL0     H51661   0.911   0.186   4.160 -1.1420 -1.8376  2.3323
  383MOL0     H51662   0.882   0.014   4.139 -0.2527  0.7746  0.7010
  383MOL0     H51663   0.717   0.235   4.066  1.4984  0.8559  1.9039
  383MOL0     H51664   0.691   0.099   4.176  1.4050 -0.9607  0.0387
  383MOL0     H51665   0.686   0.310   3.868  0.0008  0.8762 -0.9681
  383MOL0     H51666   0.603   0.344   3.643  1.4227 -1.5219 -0.6264
  383MOL0     H51667   0.672   0.091   3.200 -0.5382  0.4263 -2.3132
  383MOL0     H51668   0.645   0.172   2.966  0.9590 -0.5388  1.0410
  383MOL0     H51669   0.260   0.069   2.816  0.1988  1.0883  0.9985
  383MOL0     H51670   0.221   0.248   2.812  0.9170  2.7453 -2.2540
  383MOL0     H51671   0.304   0.292   2.617 -0.1017 -1.3170 -0.0439
  383MOL0     H51672   0.405   0.147   2.594  0.6146 -0.6036  0.8470
  383MOL0     H51673   0.187   0.010   2.570  0.8719  0.1054 -0.1722
  383MOL0     H51674   0.103   0.163   2.602  0.0635  2.1755 -0.9950
  383MOL0     H51675   0.308   0.098   2.374  0.6819 -1.4019  0.2714
  383MOL0     H51676   0.217   0.243   2.393  0.3222 -0.9278  1.8767
  383MOL0     H51677   0.103   0.081   2.225 -0.3868  0.9326 -0.7132
  383MOL0     H51678   0.001   0.107   2.371  1.4418 -0.4420  1.7717
  383MOL0     H51679   0.183  -0.124   2.381  0.1956  0.8301  1.0941
  383MOL0     H51680   0.017  -0.079   2.453  0.4042  0.2903  0.4347
  383MOL0     H51681   0.060  -0.172   2.170  0.8273  1.8592 -0.2334
  383MOL0     H51682  -0.098  -0.120   2.238  0.9441  0.2358 -1.6320
  383MOL0     H51683  -0.114  -0.338   2.371 -0.9095 -0.4138 -0.1700
  383MOL0     H51684  -0.044  -0.381   2.219  0.4915 -0.9288  0.0812
  383MOL0     H51685   0.210   0.146   3.034 -0.1036 -1.1458  0.5267
  383MOL0     H51686   0.243   0.109   3.279 -0.4101  1.5542  0.4478
  383MOL0     H51687   0.569  -0.076   3.577  3.4413 -1.5565  1.4714
  383MOL0     H51688   0.620  -0.126   3.810  0.7628  0.9102 -0.3137
  383MOL0     H51689   2.617   0.249   3.858 -0.5632  1.1232 -0.7595
  383MOL0     H51690   2.813   0.182   3.995  0.8437  0.3747 -0.1250
  383MOL0     H51691   2.946   0.004   4.312 -1.7498  0.4169  4.1749
  383MOL0     H51692   3.134  -0.146   4.408 -1.3708 -0.0828 -1.9828
  383MOL0     H51693   3.498   0.072   4.588 -0.3957  0.4200 -0.6245
  383MOL0     H51694   3.515  -0.098   4.616  2.8070  1.5946 -0.9013
  383MOL0     H51695   3.312  -0.118   4.750 -2.2205  0.4588 -0.4655
  383MOL0     H51696   3.280   0.050   4.731  0.7835  0.9217  2.8210
  383MOL0     H51697   3.384   0.022   4.934 -0.2560 -1.8447  0.2886
  383MOL0     H51698   3.501   0.107   4.827  1.5299 -1.2287  0.3277
  383MOL0     H51699   3.503  -0.142   4.992 -1.1842 -1.2693 -1.0706
  383MOL0     H51700   3.526  -0.191   4.844  0.2714 -0.8608  1.9913
  383MOL0     H51701   3.911  -0.027   4.894  0.2107  2.4349  4.2734
  383MOL0     H51702   3.387   0.192   4.456  0.9171 -3.0649  0.8251
  383MOL0     H51703   3.258   0.446   4.337  1.3106 -1.6692 -0.4353
  383MOL0     H51704   3.105   0.429   4.434 -0.6493 -2.3476  2.5536
  383MOL0     H51705   3.257   0.396   4.510 -0.7960 -2.0359  1.3331
  384MOL0     O51706   2.192   6.755   5.022 -0.2423  0.1646 -0.0476
  384MOL0     C51707   2.237   6.788   4.912  0.3546  0.7805  0.3013
  384MOL0     O51708   2.375   6.758   4.867  0.5831  0.0685  0.2893
  384MOL0     C51709   2.464   6.691   4.936  0.1181 -0.8602  0.4077
  384MOL0     C51710   2.496   6.720   5.071 -0.0758 -0.2837  0.4222
  384MOL0     C51711   2.595   6.647   5.130  0.4035  1.3262 -0.4552
  384MOL0     C51712   2.655   6.535   5.066  0.2399 -0.0469  0.1601
  384MOL0     O51713   2.757   6.473   5.130 -1.0588  0.4293 -0.3510
  384MOL0     C51714   2.888   6.490   5.066  0.4105  0.1611  0.0810
  384MOL0     C51715   3.004   6.515   5.163  0.6529  0.1378  0.6969
  384MOL0     C51716   3.005   6.404   5.267 -1.3579  0.2144 -0.1241
  384MOL0     C51717   3.126   6.409   5.359  0.2113 -0.3890 -0.3831
  384MOL0     C51718   3.111   6.306   5.470 -0.1604 -0.3240 -0.0581
  384MOL0     C51719   3.246   6.322   5.541  0.2427 -0.3043  0.5586
  384MOL0     C51720   3.348   6.240   5.467 -0.3541  1.0057  0.0362
  384MOL0     C51721   3.484   6.311   5.464 -0.6979  0.0971  0.8264
  384MOL0     N51722   3.475   6.414   5.357 -0.9696 -0.0686  0.1883
  384MOL0     C51723   3.454   6.552   5.368  0.1170  0.4313  1.2183
  384MOL0     C51724   3.467   6.594   5.234  0.6069  0.4864  0.1231
  384MOL0     C51725   3.446   6.737   5.202  0.0942 -0.1201  0.0593
  384MOL0     C51726   3.301   6.781   5.215  0.2893  0.3191 -0.8027
  384MOL0     C51727   3.278   6.906   5.138 -0.2616 -0.0144 -0.5299
  384MOL0     C51728   3.143   6.958   5.169  1.3319  0.8483 -0.4938
  384MOL0     O51729   3.047   6.876   5.104 -0.5023  0.2428  0.0071
  384MOL0     C51730   2.917   6.919   5.074 -0.4056  0.2339 -0.9776
  384MOL0     C51731   2.880   6.944   4.946 -0.4726  0.6184 -0.2143
  384MOL0     C51732   2.744   6.981   4.931  0.6713  0.3339  0.6308
  384MOL0     C51733   2.654   7.006   5.035 -0.5574  0.1157  0.4779
  384MOL0     C51734   2.521   7.056   5.018 -0.6812  0.3906  0.9731
  384MOL0     O51735   2.451   7.095   5.126  0.3219  0.0523 -0.2826
  384MOL0     C51736   2.334   7.160   5.107 -1.1416 -0.3432 -0.3091
  384MOL0     C51737   2.338   7.298   5.121  0.0052  0.2876 -0.0567
  384MOL0     C51738   2.239   7.382   5.067  0.3733  0.5169 -0.0054
  384MOL0     C51739   2.124   7.322   5.015 -0.6395  0.6647 -0.4227
  384MOL0     O51740   2.028   7.402   4.947  0.2139 -0.5256  0.0677
  384MOL0     C51741   2.008   7.356   4.809  1.3473 -0.0216  0.1000
  384MOL0     C51742   2.129   7.361   4.720  0.3632  0.2452  0.0792
  384MOL0     C51743   2.163   7.485   4.632 -0.5984 -1.2712 -0.2153
  384MOL0     C51744   2.261   7.577   4.703  0.0055 -0.4161  0.4073
  384MOL0     C51745   2.307   7.705   4.633  0.3964 -0.4289  0.4363
  384MOL0     C51746   2.446   7.758   4.676 -0.1441  0.0658  0.4600
  384MOL0     C51747   2.505   7.873   4.600  0.5328 -0.9659 -0.0954
  384MOL0     C51748   2.623   7.916   4.676 -0.0316  0.3492  0.1434
  384MOL0    Cl51749   2.710   8.039   4.583 -0.2797  0.0179 -0.3717
  384MOL0     C51750   2.116   7.186   5.016 -0.0997 -0.3968  0.8724
  384MOL0     C51751   2.218   7.105   5.057 -0.5494  0.6859 -0.1134
  384MOL0     O51752   2.481   7.071   4.897  0.2564 -0.2962  0.0440
  384MOL0     C51753   2.705   6.985   5.168  0.3843  0.5830 -0.2242
  384MOL0     C51754   2.837   6.934   5.185 -0.1476  0.0436  0.3969
  384MOL0     N51755   3.500   6.491   5.147  0.4717  0.3367  0.5540
  384MOL0     N51756   3.495   6.390   5.222 -0.1057 -0.7031 -0.2148
  384MOL0     C51757   2.618   6.506   4.926 -0.3642  0.6312  0.0881
  384MOL0     C51758   2.528   6.590   4.863 -0.3129  0.6988  0.1847
  384MOL0     C51759   2.155   6.859   4.801  0.0197 -0.2753 -0.3252
  384MOL0     C51760   2.223   6.900   4.687  0.5522 -0.2101 -1.2435
  384MOL0     C51761   2.160   6.958   4.578 -0.1480  0.0710 -0.1366
  384MOL0     C51762   2.022   6.996   4.591 -0.7156  0.9035  1.0552
  384MOL0     O51763   1.958   7.054   4.486 -0.2437  0.0137  1.2414
  384MOL0     C51764   1.835   7.119   4.494  0.0993  0.3160  0.0062
  384MOL0     C51765   1.835   7.222   4.392  0.5684 -0.1493 -0.1956
  384MOL0     C51766   1.836   7.152   4.251 -0.4165 -0.9422 -0.4351
  384MOL0     C51767   1.708   7.076   4.211  0.2304 -0.1411 -0.4499
  384MOL0     C51768   1.720   7.034   4.074  0.0998  0.8311 -0.3485
  384MOL0     C51769   1.714   7.002   3.958  0.5941  0.1593 -0.6727
  384MOL0     C51770   1.957   6.965   4.713  0.1512 -0.4345  0.1043
  384MOL0     C51771   2.020   6.903   4.817  0.1164  0.5177 -0.4452
  384MOL0     C51772   1.933   6.869   4.932  1.2495  0.2724 -0.0628
  384MOL0     H51773   2.446   6.802   5.121 -1.4012  0.0041 -1.2766
  384MOL0     H51774   2.621   6.673   5.233 -2.3328  0.0926  0.6531
  384MOL0     H51775   2.904   6.399   5.008 -1.4576 -1.0196  1.3501
  384MOL0     H51776   2.900   6.577   5.001  0.0005  1.5613  1.7963
  384MOL0     H51777   2.983   6.605   5.222 -0.5815  0.3182  0.0063
  384MOL0     H51778   3.098   6.529   5.108 -0.2559  0.7315 -0.7602
  384MOL0     H51779   3.003   6.301   5.230  0.9227 -0.5808  1.7532
  384MOL0     H51780   2.915   6.417   5.328 -0.6749  1.3877  0.6733
  384MOL0     H51781   3.215   6.376   5.306  0.6424 -1.5413  0.9989
  384MOL0     H51782   3.125   6.503   5.415 -1.6642  1.4056 -3.1585
  384MOL0     H51783   3.040   6.334   5.549  0.1521  2.2380 -0.5828
  384MOL0     H51784   3.084   6.208   5.432  3.1053 -1.7308  0.8782
  384MOL0     H51785   3.269   6.428   5.556 -2.2691  0.5320 -0.9327
  384MOL0     H51786   3.225   6.270   5.634 -3.0759  0.0244  0.1072
  384MOL0     H51787   3.327   6.199   5.368  1.0562  0.5552 -0.0999
  384MOL0     H51788   3.352   6.157   5.538 -1.5939  0.5462 -0.4025
  384MOL0     H51789   3.500   6.354   5.563 -2.2729 -1.4396  1.8162
  384MOL0     H51790   3.571   6.251   5.437  2.6278  5.2142 -1.3699
  384MOL0     H51791   3.420   6.607   5.455 -4.1982  1.4457 -0.8307
  384MOL0     H51792   3.501   6.815   5.256 -2.1965  2.0349 -0.5263
  384MOL0     H51793   3.472   6.753   5.097 -1.3748 -0.5608 -0.3843
  384MOL0     H51794   3.230   6.706   5.178  0.4195 -1.2768  1.8948
  384MOL0     H51795   3.291   6.800   5.322  3.5856  1.2919 -0.5731
  384MOL0     H51796   3.282   6.874   5.033  1.7004 -2.1380  0.0920
  384MOL0     H51797   3.356   6.982   5.150  1.9950 -2.3269  0.5333
  384MOL0     H51798   3.137   7.060   5.129  1.9947  0.5406 -1.3876
  384MOL0     H51799   3.116   6.956   5.275  0.8651  0.2092 -0.6148
  384MOL0     H51800   2.948   6.906   4.870  1.9301 -0.5509  2.3581
  384MOL0     H51801   2.705   6.994   4.830  0.7126 -0.0138  0.5682
  384MOL0     H51802   2.431   7.335   5.163  0.0662 -0.2139  0.2647
  384MOL0     H51803   2.255   7.489   5.056  0.3861  0.9399  3.1952
  384MOL0     H51804   1.969   7.255   4.792 -2.0275  1.4060 -1.4981
  384MOL0     H51805   1.943   7.426   4.755  1.0621  0.7085  1.3452
  384MOL0     H51806   2.223   7.335   4.769 -0.1864 -0.0085  1.0273
  384MOL0     H51807   2.107   7.285   4.644  0.6801 -1.4165  1.5822
  384MOL0     H51808   2.216   7.445   4.545 -1.7287 -2.2102 -0.4825
  384MOL0     H51809   2.078   7.540   4.593  1.5260  0.3304 -2.9359
  384MOL0     H51810   2.353   7.519   4.717 -2.2182 -4.5024 -0.4646
  384MOL0     H51811   2.213   7.609   4.796 -0.4756  0.6364 -0.1938
  384MOL0     H51812   2.239   7.790   4.647  0.4139 -0.3736  0.2044
  384MOL0     H51813   2.304   7.690   4.524 -1.3553  3.8990 -0.3454
  384MOL0     H51814   2.442   7.786   4.782 -1.9915  0.4794  0.3221
  384MOL0     H51815   2.527   7.687   4.660 -1.4698 -1.5227  0.5337
  384MOL0     H51816   2.434   7.956   4.598  2.3937  0.9747  3.8648
  384MOL0     H51817   2.526   7.849   4.495  2.4940 -0.2753  0.1012
  384MOL0     H51818   2.590   7.955   4.773  1.4148  2.8391 -0.2624
  384MOL0     H51819   2.696   7.837   4.694 -3.3003 -2.3033  2.9830
  384MOL0     H51820   2.037   7.131   4.967  1.6885 -1.1356 -1.3445
  384MOL0     H51821   2.202   6.998   5.050 -2.2306  0.9836 -1.2289
  384MOL0     H51822   2.637   6.993   5.253  3.8740 -1.8881  3.1556
  384MOL0     H51823   2.887   6.891   5.272  0.5672 -2.8573 -1.2960
  384MOL0     H51824   2.681   6.432   4.879 -0.5972  0.6635 -0.2827
  384MOL0     H51825   2.513   6.574   4.756 -2.0207  2.1354  0.1677
  384MOL0     H51826   2.328   6.879   4.669  0.2241 -2.5562 -0.6825
  384MOL0     H51827   2.203   6.975   4.480 -0.1135 -2.1028 -0.5578
  384MOL0     H51828   1.837   7.165   4.593 -1.1019 -0.0005  0.1850
  384MOL0     H51829   1.747   7.056   4.480 -0.9070  1.7443 -0.3602
  384MOL0     H51830   1.929   7.278   4.401  0.9307 -0.8432  0.3969
  384MOL0     H51831   1.752   7.290   4.410  1.8744  1.4362  0.0472
  384MOL0     H51832   1.931   7.103   4.227  0.2644  0.3279 -0.3579
  384MOL0     H51833   1.843   7.238   4.184  0.5572  0.8031  1.7943
  384MOL0     H51834   1.691   6.988   4.274 -0.9703 -0.0695 -0.6381
  384MOL0     H51835   1.617   7.137   4.222 -0.0750 -0.8934  1.5943
  384MOL0     H51836   1.683   6.968   3.862  1.7008 -2.1592 -0.2719
  384MOL0     H51837   1.854   6.994   4.725  0.0157 -1.5336  1.9245
  384MOL0     H51838   1.954   6.773   4.980  0.5031  0.8630  1.5181
  384MOL0     H51839   1.940   6.950   5.005  1.7103  1.8927 -1.8179
  384MOL0     H51840   1.834   6.867   4.885  1.9697  2.9816 -2.0170
  385MOL0     O51841   3.421  11.172   5.894 -0.1225 -0.0490  0.2839
  385MOL0     C51842   3.396  11.185   6.012  0.3594  0.8039 -1.2159
  385MOL0     O51843   3.283  11.146   6.070 -0.1927 -0.0906 -0.6642
  385MOL0     C51844   3.181  11.096   5.989 -1.1111  0.3166 -0.0407
  385MOL0     C51845   3.057  11.158   5.980  0.4687 -0.4843  0.2787
  385MOL0     C51846   2.957  11.103   5.889 -0.2219  0.1496  0.6971
  385MOL0     C51847   2.984  10.982   5.817 -0.7434  0.1381 -0.4445
  385MOL0     O51848   2.898  10.932   5.727  0.2751 -0.8273 -0.0407
  385MOL0     C51849   2.904  11.007   5.603  0.4936 -0.3035  0.3318
  385MOL0     C51850   2.829  10.928   5.501  0.1867 -0.4115  0.1601
  385MOL0     C51851   2.825  11.013   5.372 -0.5330 -0.1048 -0.1848
  385MOL0     C51852   2.956  11.024   5.295 -0.5657 -0.3412 -0.2138
  385MOL0     C51853   2.932  11.074   5.148 -0.1562  0.0814 -0.4915
  385MOL0     C51854   2.891  11.225   5.165  0.2710  0.0496 -0.8839
  385MOL0     C51855   2.900  11.288   5.025 -0.3230  0.4883  0.4325
  385MOL0     C51856   3.044  11.308   4.967  0.0962 -0.7220 -0.7416
  385MOL0     N51857   3.116  11.406   5.055 -0.7196 -0.0663 -0.2704
  385MOL0     C51858   3.229  11.371   5.131  0.0398  0.2854  0.3321
  385MOL0     C51859   3.263  11.495   5.175 -0.7571  0.0589 -1.4439
  385MOL0     C51860   3.376  11.520   5.277 -0.1679  0.0094 -0.2744
  385MOL0     C51861   3.491  11.610   5.231 -0.3054  0.4555 -0.3211
  385MOL0     C51862   3.456  11.754   5.215  0.1094  0.7186  0.0573
  385MOL0     C51863   3.568  11.846   5.174 -0.6203  0.7781  0.4443
  385MOL0     O51864   3.650  11.869   5.286  0.0497 -0.0969  0.4685
  385MOL0     C51865   3.767  11.794   5.302  0.8499 -1.0379 -0.7815
  385MOL0     C51866   3.819  11.696   5.218  0.1629  0.8332  0.5873
  385MOL0     C51867   3.938  11.637   5.252 -0.5381  0.3327  0.7341
  385MOL0     C51868   4.016  11.685   5.357  0.2335  1.0835  0.2285
  385MOL0     C51869   4.141  11.606   5.391  0.1374 -0.2820  0.3167
  385MOL0     O51870   4.182  11.623   5.522  0.1688  0.4401 -0.1043
  385MOL0     C51871   4.265  11.538   5.589 -0.2762  1.0025  0.0945
  385MOL0     C51872   4.357  11.598   5.680 -0.7743  0.0651 -0.0426
  385MOL0     C51873   4.453  11.519   5.743  0.1620 -1.3286 -0.0723
  385MOL0     C51874   4.447  11.379   5.738 -0.1490 -0.5000 -0.3222
  385MOL0     O51875   4.531  11.310   5.824  0.3048 -0.1609 -0.7040
  385MOL0     C51876   4.558  11.169   5.806  0.4317  0.4362  0.1357
  385MOL0     C51877   4.698  11.138   5.860 -0.0050  0.3727  0.6155
  385MOL0     C51878   4.705  11.149   6.010 -1.0160 -0.0952 -0.4133
  385MOL0     C51879   4.814  11.066   6.083 -0.2892  0.0438 -0.1722
  385MOL0     C51880   4.824  11.071   6.242  0.5699 -0.1976 -0.4349
  385MOL0     C51881   4.706  11.004   6.316 -0.5032  0.3662  0.0125
  385MOL0     C51882   4.707  11.038   6.463  0.9159 -0.4663 -0.5108
  385MOL0     C51883   4.591  10.972   6.542  0.8187 -0.3281  0.1206
  385MOL0    Cl51884   4.623  10.816   6.607 -0.1915  0.1389  0.5107
  385MOL0     C51885   4.361  11.321   5.642  0.6927  0.1252  0.1801
  385MOL0     C51886   4.276  11.398   5.573 -0.0294 -1.3418  0.5073
  385MOL0     O51887   4.199  11.534   5.303 -1.2032 -0.0530 -0.0862
  385MOL0     C51888   3.975  11.791   5.434  0.7037 -0.2844 -0.0102
  385MOL0     C51889   3.852  11.841   5.406  0.6671  0.6670  0.1403
  385MOL0     N51890   3.189  11.599   5.118  0.6495  1.1384  0.8048
  385MOL0     N51891   3.111  11.537   5.037  0.2059 -0.4775  0.6199
  385MOL0     C51892   3.108  10.922   5.832 -0.6869 -0.4320 -0.8207
  385MOL0     C51893   3.202  10.980   5.923  0.6390 -0.5525  0.6402
  385MOL0     C51894   3.509  11.246   6.102  1.3850  0.7214 -0.1354
  385MOL0     C51895   3.481  11.257   6.238 -0.4396  0.4825 -0.8181
  385MOL0     C51896   3.584  11.283   6.330 -0.1375  0.8435  0.2000
  385MOL0     C51897   3.705  11.331   6.294  0.5665 -0.2572 -0.1467
  385MOL0     O51898   3.784  11.368   6.394  0.4297 -0.0263  1.2117
  385MOL0     C51899   3.901  11.433   6.353 -0.7739  0.8027 -0.0326
  385MOL0     C51900   3.991  11.462   6.471  0.5044  0.3739 -0.7701
  385MOL0     C51901   3.917  11.517   6.596  0.0443 -0.4100 -0.8250
  385MOL0     C51902   3.872  11.659   6.576 -0.4178  0.2798 -0.0297
  385MOL0     C51903   3.792  11.702   6.695  0.4439  0.7595 -0.3253
  385MOL0     C51904   3.731  11.724   6.805  0.0819  0.6322  0.1254
  385MOL0     C51905   3.733  11.338   6.153  0.1439 -0.5544  0.1389
  385MOL0     C51906   3.629  11.299   6.056 -0.0175  0.5847  0.1430
  385MOL0     C51907   3.655  11.318   5.911 -0.6941  0.5681  0.1961
  385MOL0     H51908   3.049  11.255   6.029 -1.3230 -0.1831 -0.5195
  385MOL0     H51909   2.858  11.148   5.878 -1.4006 -2.0605  1.6763
  385MOL0     H51910   2.852  11.102   5.616  0.4734 -0.3101  0.3025
  385MOL0     H51911   3.007  11.031   5.580  0.6566  0.7302  1.9762
  385MOL0     H51912   2.727  10.914   5.537 -0.8646  1.1929 -1.9918
  385MOL0     H51913   2.881  10.834   5.479  1.7325  0.4596 -0.0402
  385MOL0     H51914   2.789  11.115   5.392 -2.1588 -0.1337 -2.6191
  385MOL0     H51915   2.748  10.963   5.313 -0.0209  0.0994 -1.0402
  385MOL0     H51916   3.030  11.085   5.349  0.2891 -2.0529  0.6200
  385MOL0     H51917   3.009  10.929   5.304 -1.8632 -1.0323  0.5164
  385MOL0     H51918   3.020  11.061   5.084  0.4817 -0.1650  0.4105
  385MOL0     H51919   2.847  11.023   5.101  0.4178 -4.0435  2.3746
  385MOL0     H51920   2.789  11.234   5.203 -0.2990  0.1234 -2.3569
  385MOL0     H51921   2.974  11.270   5.220  1.4766 -1.5890 -1.2725
  385MOL0     H51922   2.852  11.386   5.025  0.7114  1.0146  1.3039
  385MOL0     H51923   2.848  11.223   4.954  4.1222 -2.0538 -0.9084
  385MOL0     H51924   3.107  11.219   4.959  0.9197 -0.4520  1.8140
  385MOL0     H51925   3.042  11.352   4.867  0.9717 -0.2056 -0.5458
  385MOL0     H51926   3.286  11.279   5.146  2.1503  0.9063 -2.9353
  385MOL0     H51927   3.335  11.559   5.371 -1.9560  1.2315 -1.5010
  385MOL0     H51928   3.407  11.422   5.316 -1.9121 -0.6600 -0.4762
  385MOL0     H51929   3.562  11.602   5.314  1.1720  0.0147 -1.5977
  385MOL0     H51930   3.537  11.574   5.139 -1.8169 -0.4428 -0.7633
  385MOL0     H51931   3.421  11.795   5.310 -2.4594 -1.7985  0.3466
  385MOL0     H51932   3.378  11.759   5.139 -2.0330  2.5329  2.2440
  385MOL0     H51933   3.520  11.940   5.145 -1.2605  0.7084  1.2694
  385MOL0     H51934   3.622  11.810   5.086 -0.3081  0.8305  0.6117
  385MOL0     H51935   3.758  11.654   5.138  2.1217 -1.5556  0.2204
  385MOL0     H51936   3.970  11.550   5.195 -5.0771 -0.1321 -1.5763
  385MOL0     H51937   4.354  11.706   5.692 -0.2630  0.1153 -0.3127
  385MOL0     H51938   4.535  11.565   5.798 -0.5543  0.1956 -0.2390
  385MOL0     H51939   4.483  11.106   5.854 -2.1974  0.8595 -3.0275
  385MOL0     H51940   4.549  11.142   5.700  1.1671 -3.3191  0.8946
  385MOL0     H51941   4.732  11.043   5.817 -1.6783  0.5352 -1.1916
  385MOL0     H51942   4.767  11.212   5.818 -0.0714 -1.2724 -2.7160
  385MOL0     H51943   4.728  11.253   6.034  2.4284 -1.0609  1.0162
  385MOL0     H51944   4.612  11.121   6.060 -1.7437 -0.3359 -1.8301
  385MOL0     H51945   4.908  11.109   6.048 -0.1761  0.1023  0.1942
  385MOL0     H51946   4.807  10.965   6.041  0.6178  0.5509 -1.5793
  385MOL0     H51947   4.826  11.176   6.272 -0.5091 -0.6784  1.5295
  385MOL0     H51948   4.917  11.028   6.282  1.8355  2.2901 -0.4855
  385MOL0     H51949   4.611  11.027   6.269 -0.0658  2.5679  0.1106
  385MOL0     H51950   4.718  10.896   6.301  2.1290  0.3695  1.4001
  385MOL0     H51951   4.700  11.145   6.485 -2.7991 -0.3681 -1.5707
  385MOL0     H51952   4.803  11.009   6.506  0.5518  2.1500  2.3698
  385MOL0     H51953   4.564  11.021   6.636 -0.0836 -0.6981  0.0665
  385MOL0     H51954   4.500  10.956   6.483  1.9007 -1.8527 -1.2047
  385MOL0     H51955   4.345  11.219   5.607  1.8417  0.2380 -0.7195
  385MOL0     H51956   4.208  11.358   5.498  0.9638  0.0415 -1.1876
  385MOL0     H51957   4.040  11.817   5.517 -0.0210 -2.0356  1.1486
  385MOL0     H51958   3.817  11.918   5.474  0.5011 -0.2591  1.1469
  385MOL0     H51959   3.142  10.836   5.776  2.5894  0.9949 -1.2376
  385MOL0     H51960   3.294  10.928   5.947  0.4322 -0.3754  1.8860
  385MOL0     H51961   3.386  11.236   6.287 -0.6866  0.9049 -1.1106
  385MOL0     H51962   3.560  11.276   6.435  0.2884 -1.4618  0.1968
  385MOL0     H51963   3.865  11.520   6.298 -2.7089 -0.2101 -0.4666
  385MOL0     H51964   3.960  11.361   6.296 -1.8215 -0.1415  0.0219
  385MOL0     H51965   4.066  11.539   6.451 -0.4036  2.3331  2.5738
  385MOL0     H51966   4.053  11.380   6.509  1.3462  1.7570  0.9820
  385MOL0     H51967   3.977  11.515   6.688 -2.5277 -1.5157  0.9294
  385MOL0     H51968   3.827  11.463   6.625 -0.4056  1.0514  0.6881
  385MOL0     H51969   3.959  11.725   6.562 -0.4171  0.1834 -0.4748
  385MOL0     H51970   3.814  11.661   6.484 -1.4015 -0.3494  0.5572
  385MOL0     H51971   3.680  11.732   6.899  1.5553 -3.2674  1.4616
  385MOL0     H51972   3.833  11.370   6.124  0.7596 -0.0698  2.5926
  385MOL0     H51973   3.680  11.220   5.870  2.4065  1.6478 -0.7716
  385MOL0     H51974   3.565  11.364   5.868 -1.0704 -0.1858  0.1739
  385MOL0     H51975   3.739  11.386   5.899 -0.3425  0.0877 -0.0950
  386MOL0     O51976   4.180  11.372   9.074  0.4756  0.7664  0.1280
  386MOL0     C51977   4.068  11.390   9.020 -0.4605 -1.0082  0.3343
  386MOL0     O51978   3.944  11.371   9.071 -0.4562  0.4875 -0.3148
  386MOL0     C51979   3.930  11.312   9.194  0.7355  0.5580 -0.3336
  386MOL0     C51980   4.011  11.336   9.307  0.3062 -0.0038 -0.3686
  386MOL0     C51981   3.994  11.278   9.430  1.3074  0.6970  0.9628
  386MOL0     C51982   3.873  11.202   9.445  0.0938 -0.1074 -0.1161
  386MOL0     O51983   3.822  11.157   9.566 -1.0244  0.2387 -0.6871
  386MOL0     C51984   3.917  11.120   9.665 -0.5845 -0.7263  0.6183
  386MOL0     C51985   3.838  11.025   9.763 -0.0606 -0.1004  0.3003
  386MOL0     C51986   3.754  11.108   9.864  0.0678 -0.5216 -0.2049
  386MOL0     C51987   3.835  11.147   9.995 -0.1248  0.3961  0.2857
  386MOL0     C51988   3.726  11.160  10.112  0.4600  0.2738 -0.8051
  386MOL0     C51989   3.773  11.250  10.230  0.7919  0.0427  0.3865
  386MOL0     C51990   3.874  11.188  10.318 -0.0203 -1.1964 -0.5764
  386MOL0     C51991   3.815  11.071  10.403 -0.3205  0.2505 -0.0144
  386MOL0     N51992   3.883  11.067  10.537 -0.0660  0.7537  0.3723
  386MOL0     C51993   3.826  11.063  10.654 -0.4358 -0.2657 -0.4376
  386MOL0     C51994   3.923  11.078  10.742 -0.2161  0.3392  0.1638
  386MOL0     C51995   3.910  11.096  10.887  0.1814  0.5083  0.3647
  386MOL0     C51996   3.921  11.247  10.913  0.6532 -0.4674 -1.0232
  386MOL0     C51997   4.058  11.321  10.897  0.8585  0.8053  0.8365
  386MOL0     C51998   4.153  11.300  11.020  0.1017 -0.4377  0.3349
  386MOL0     O51999   4.292  11.349  11.004 -0.4039  0.1958  0.2572
  386MOL0     C52000   4.390  11.254  10.992  0.5058 -0.2676 -0.2576
  386MOL0     C52001   4.517  11.292  11.038  0.6687 -0.4335 -0.4004
  386MOL0     C52002   4.631  11.213  11.020 -0.2007  0.5262 -0.8482
  386MOL0     C52003   4.612  11.093  10.946  0.0672  0.1553 -0.0878
  386MOL0     C52004   4.734  10.996  10.929 -0.2809 -1.0657 -0.2522
  386MOL0     O52005   4.708  10.879  10.858 -0.1042 -0.9955  0.3454
  386MOL0     C52006   4.791  10.772  10.871  0.1829 -0.8352 -0.2049
  386MOL0     C52007   4.754  10.666  10.953  0.0123 -0.6338 -0.4377
  386MOL0     C52008   4.841  10.563  10.981  0.0857 -0.7146  0.5909
  386MOL0     C52009   4.973  10.569  10.918 -0.3530  0.4280  0.4942
  386MOL0     O52010   5.075  10.480  10.935 -0.2160  0.6812 -0.0502
  386MOL0     C52011   5.063  10.357  10.875 -0.8633  0.0624  0.3259
  386MOL0     C52012   5.197  10.286  10.861 -0.5777 -0.4573  0.6871
  386MOL0     C52013   5.187  10.146  10.823  0.3456  0.2695 -1.1007
  386MOL0     C52014   5.315  10.078  10.829 -0.1719 -0.4216  0.3863
  386MOL0     C52015   5.304   9.935  10.781  0.2710 -0.0805  0.4026
  386MOL0     C52016   5.439   9.876  10.785 -1.7414 -0.0886 -0.4930
  386MOL0     C52017   5.431   9.722  10.776  0.3667  0.0096 -0.5808
  386MOL0     C52018   5.568   9.658  10.779 -0.3893 -0.4692  0.2572
  386MOL0    Cl52019   5.545   9.488  10.803  0.0700 -0.0089  0.4284
  386MOL0     C52020   5.005  10.679  10.838 -0.4372  1.0876  0.1572
  386MOL0     C52021   4.915  10.779  10.811  0.0519  0.0581  0.3314
  386MOL0     O52022   4.841  11.032  10.971 -0.3105 -0.1634  0.0728
  386MOL0     C52023   4.490  11.062  10.892  0.9277  0.1371 -0.5814
  386MOL0     C52024   4.375  11.146  10.904 -0.1600  0.2097 -0.7215
  386MOL0     N52025   4.042  11.084  10.676  0.1510  0.1494  0.5249
  386MOL0     N52026   4.018  11.071  10.548 -0.1655  0.4242  0.0958
  386MOL0     C52027   3.779  11.188   9.341  0.4629 -0.0852  0.6113
  386MOL0     C52028   3.805  11.249   9.214 -1.0693 -0.1911 -0.3650
  386MOL0     C52029   4.058  11.426   8.882 -0.5513 -0.0977  0.1419
  386MOL0     C52030   4.166  11.511   8.842  0.2357 -0.5214  0.5616
  386MOL0     C52031   4.156  11.571   8.708  0.8245 -0.4186 -1.0509
  386MOL0     C52032   4.036  11.559   8.636 -0.3390  1.0656 -0.2288
  386MOL0     O52033   4.018  11.613   8.513 -0.0202 -0.2116 -0.7518
  386MOL0     C52034   4.132  11.606   8.424 -0.1425 -0.6767  0.4725
  386MOL0     C52035   4.108  11.526   8.299  0.0870  0.4019  0.8470
  386MOL0     C52036   4.106  11.377   8.324 -0.5658  0.6153 -0.4123
  386MOL0     C52037   3.968  11.316   8.327  0.4720  0.0030  0.3898
  386MOL0     C52038   3.899  11.330   8.199  0.7859  0.3136 -0.2869
  386MOL0     C52039   3.840  11.343   8.097  0.4276 -0.6681  0.2921
  386MOL0     C52040   3.940  11.461   8.675  0.5703 -0.3900 -1.5000
  386MOL0     C52041   3.951  11.384   8.793 -0.2207 -0.0765 -0.1961
  386MOL0     C52042   3.847  11.284   8.835 -0.3776 -0.8547  0.1548
  386MOL0     H52043   4.094  11.400   9.280 -0.7928  1.4091 -0.5464
  386MOL0     H52044   4.053  11.298   9.519  0.0227  1.5032  1.6442
  386MOL0     H52045   4.003  11.080   9.609  0.5589  2.3377 -0.0777
  386MOL0     H52046   3.949  11.203   9.730 -0.1320 -0.9881  0.7369
  386MOL0     H52047   3.910  10.954   9.806  1.3124 -0.4020 -2.2755
  386MOL0     H52048   3.771  10.955   9.711 -0.4577  1.0777 -0.8071
  386MOL0     H52049   3.664  11.054   9.896 -1.2333  1.2200 -0.7814
  386MOL0     H52050   3.721  11.196   9.808 -0.3506 -0.9413 -0.6307
  386MOL0     H52051   3.912  11.071  10.012 -0.2865 -0.0039 -0.7252
  386MOL0     H52052   3.887  11.243   9.986  1.4254 -0.2284  2.0294
  386MOL0     H52053   3.638  11.205  10.065 -0.5582 -0.1338  0.6338
  386MOL0     H52054   3.704  11.063  10.156 -0.4906  0.2179 -1.3738
  386MOL0     H52055   3.804  11.350  10.197  1.5097 -0.1547  0.4480
  386MOL0     H52056   3.689  11.274  10.295  0.9846  1.0952  0.2714
  386MOL0     H52057   3.906  11.271  10.381  0.2395 -1.0630 -0.8812
  386MOL0     H52058   3.958  11.146  10.262 -0.5130  0.6139 -2.7860
  386MOL0     H52059   3.706  11.081  10.414 -0.1103  0.9573  1.9669
  386MOL0     H52060   3.826  10.971  10.360 -0.3786 -1.4246  3.5157
  386MOL0     H52061   3.719  11.057  10.672 -0.1589 -0.7446  1.2167
  386MOL0     H52062   3.811  11.064  10.919 -0.3773  1.1483 -0.6515
  386MOL0     H52063   3.989  11.031  10.926 -1.2784 -0.2984  2.0787
  386MOL0     H52064   3.858  11.301  10.842  1.3650  1.9850  0.1030
  386MOL0     H52065   3.877  11.252  11.013 -0.4415 -0.7848 -1.4760
  386MOL0     H52066   4.034  11.426  10.877 -2.2964  0.5813  2.8462
  386MOL0     H52067   4.103  11.274  10.809 -2.7837 -1.7712  0.1229
  386MOL0     H52068   4.155  11.193  11.042  1.0400 -0.5891 -0.3911
  386MOL0     H52069   4.114  11.362  11.101 -2.5101  0.6128 -1.5780
  386MOL0     H52070   4.524  11.382  11.100 -1.8944  0.1199 -0.8099
  386MOL0     H52071   4.722  11.231  11.076 -1.1373 -2.3270  1.8812
  386MOL0     H52072   4.656  10.661  10.998 -0.5836  0.7907 -1.4908
  386MOL0     H52073   4.793  10.483  11.036  0.3121 -0.2484  1.4823
  386MOL0     H52074   4.999  10.293  10.935 -0.7564 -0.0716  0.2982
  386MOL0     H52075   5.023  10.369  10.774 -0.2531  0.4045  0.1163
  386MOL0     H52076   5.262  10.338  10.791 -0.5853  1.1591  1.8396
  386MOL0     H52077   5.244  10.306  10.957 -3.1169  3.2391  1.3738
  386MOL0     H52078   5.119  10.102  10.897 -1.5270  2.4743 -1.3884
  386MOL0     H52079   5.132  10.145  10.728 -2.4311 -0.9011  0.4057
  386MOL0     H52080   5.361  10.074  10.929  0.7668 -1.1783 -0.0554
  386MOL0     H52081   5.386  10.121  10.757  2.0865 -1.4402  1.8657
  386MOL0     H52082   5.278   9.924  10.675  2.9302 -0.0795 -0.3349
  386MOL0     H52083   5.231   9.878  10.839 -1.9372  0.9813 -1.1829
  386MOL0     H52084   5.507   9.913  10.708  0.4437 -1.6508  0.5702
  386MOL0     H52085   5.488   9.903  10.879 -1.2892  1.2483 -1.1014
  386MOL0     H52086   5.371   9.683  10.693 -2.2856 -1.4164  1.8145
  386MOL0     H52087   5.370   9.692  10.863 -1.1545  0.2841 -1.5164
  386MOL0     H52088   5.629   9.669  10.689  1.9173 -0.3539  1.7295
  386MOL0     H52089   5.625   9.693  10.866 -2.3895 -1.6346  2.1382
  386MOL0     H52090   5.101  10.668  10.789 -0.5144  0.3697  0.1664
  386MOL0     H52091   4.944  10.859  10.743  1.8822  1.4003  2.5206
  386MOL0     H52092   4.476  10.970  10.837  0.5699 -0.6897  0.8329
  386MOL0     H52093   4.275  11.130  10.866 -0.9661 -1.1742  1.7736
  386MOL0     H52094   3.693  11.123   9.348 -0.3664  0.8767 -0.2688
  386MOL0     H52095   3.745  11.230   9.126 -2.8138 -1.7087  1.0575
  386MOL0     H52096   4.263  11.516   8.890 -0.4310 -0.6454  1.9620
  386MOL0     H52097   4.241  11.627   8.670  0.3050 -0.9312 -3.0750
  386MOL0     H52098   4.224  11.568   8.470  0.4583 -0.9917 -0.9561
  386MOL0     H52099   4.158  11.709   8.397 -0.7802 -0.7560 -0.4622
  386MOL0     H52100   4.183  11.554   8.224  2.1022  1.3119  3.0671
  386MOL0     H52101   4.016  11.568   8.258 -0.3674 -0.7498  0.6717
  386MOL0     H52102   4.144  11.350   8.423 -1.7437 -1.5302 -0.4948
  386MOL0     H52103   4.161  11.316   8.252 -1.9946  0.6573 -1.5929
  386MOL0     H52104   3.978  11.209   8.351  0.4512  0.0589  0.6562
  386MOL0     H52105   3.915  11.352   8.416  0.8453  3.4576 -0.6409
  386MOL0     H52106   3.776  11.358   8.012  0.8503  0.8683  0.2215
  386MOL0     H52107   3.853  11.455   8.611  1.1634 -0.4421 -2.3193
  386MOL0     H52108   3.763  11.328   8.890  1.5141  4.4743 -0.6594
  386MOL0     H52109   3.805  11.229   8.750  1.0100 -1.8820  0.1067
  386MOL0     H52110   3.876  11.207   8.907 -0.9716 -1.0236  0.2241
  387MOL0     O52111   2.609   1.121   8.152  1.0631  0.4983  0.5026
  387MOL0     C52112   2.526   1.110   8.063  0.1275  0.5342  0.4777
  387MOL0     O52113   2.382   1.120   8.077  0.3154  0.2051  0.3417
  387MOL0     C52114   2.338   1.186   8.192 -0.1374  0.7595 -0.5996
  387MOL0     C52115   2.274   1.310   8.183 -0.8101  0.4953 -0.2610
  387MOL0     C52116   2.225   1.370   8.295 -0.0520  1.5075 -0.7198
  387MOL0     C52117   2.250   1.311   8.424 -0.0209 -0.0537 -0.5078
  387MOL0     O52118   2.200   1.368   8.540  0.6494  0.2373 -0.6069
  387MOL0     C52119   2.307   1.422   8.620 -0.1527  0.4923 -0.8229
  387MOL0     C52120   2.328   1.567   8.600 -0.2816  0.6066  0.0102
  387MOL0     C52121   2.236   1.663   8.686 -0.5435  0.2918 -0.6129
  387MOL0     C52122   2.287   1.801   8.669  0.1183 -0.6097 -0.0824
  387MOL0     C52123   2.187   1.903   8.736 -0.0367  1.0517  0.5593
  387MOL0     C52124   2.237   2.046   8.749 -0.8704  0.7320 -0.0393
  387MOL0     C52125   2.326   2.078   8.864  0.1171 -0.1607  0.0989
  387MOL0     C52126   2.255   2.044   8.992 -0.5506 -1.0855 -0.0738
  387MOL0     N52127   2.315   2.128   9.103  0.3723 -0.4616  0.3319
  387MOL0     C52128   2.285   2.263   9.115  0.1451  0.2853 -0.4409
  387MOL0     C52129   2.339   2.289   9.235  0.8728 -0.6095  0.2163
  387MOL0     C52130   2.342   2.420   9.311  0.1499  0.0336 -0.0421
  387MOL0     C52131   2.204   2.477   9.311  0.4180 -0.5192  0.0694
  387MOL0     C52132   2.097   2.378   9.357  0.6063  0.4746  0.2513
  387MOL0     C52133   2.001   2.448   9.455  0.2079  0.3572 -0.8151
  387MOL0     O52134   2.063   2.453   9.581 -0.2186  0.4163  0.1182
  387MOL0     C52135   2.080   2.571   9.646  0.2280 -1.0814 -0.1036
  387MOL0     C52136   2.200   2.624   9.696 -0.4400 -0.5909 -0.5181
  387MOL0     C52137   2.221   2.756   9.737  0.6045  0.0930 -0.0323
  387MOL0     C52138   2.114   2.841   9.737  0.0823  0.2225  0.5622
  387MOL0     C52139   2.135   2.978   9.776 -1.5565  0.3060 -0.6375
  387MOL0     O52140   2.025   3.050   9.779  0.0752 -0.4004  0.1071
  387MOL0     C52141   2.042   3.181   9.811 -0.2264 -0.6635 -0.0831
  387MOL0     C52142   2.095   3.282   9.724  0.6213 -0.0313 -1.4530
  387MOL0     C52143   2.093   3.417   9.771 -0.4025 -0.6035 -0.2273
  387MOL0     C52144   2.054   3.442   9.903 -0.0950 -0.1350  0.8921
  387MOL0     O52145   2.068   3.566   9.957 -1.0619 -0.0823 -0.1252
  387MOL0     C52146   1.970   3.659   9.912 -1.1982  0.3899  0.3033
  387MOL0     C52147   1.833   3.632   9.986 -0.6234  0.0511 -0.3358
  387MOL0     C52148   1.842   3.723  10.110 -0.0602  0.7304 -0.1289
  387MOL0     C52149   1.721   3.671  10.191  0.6953 -0.3107 -0.0055
  387MOL0     C52150   1.698   3.760  10.316 -0.0616 -0.1074 -0.2102
  387MOL0     C52151   1.618   3.684  10.425  0.8068 -0.3842  0.4725
  387MOL0     C52152   1.600   3.755  10.563 -0.0359 -0.6178 -0.0431
  387MOL0     C52153   1.497   3.678  10.646  1.2003  0.5342 -0.7310
  387MOL0    Cl52154   1.465   3.787  10.798  0.3752 -0.2652  0.1173
  387MOL0     C52155   2.025   3.335   9.987  0.0718  0.7644  0.6434
  387MOL0     C52156   2.013   3.202   9.946  0.6583  0.2204  0.2691
  387MOL0     O52157   2.250   3.010   9.810  0.2874 -0.6984 -0.4584
  387MOL0     C52158   1.991   2.794   9.687  0.6012 -0.5895  0.2722
  387MOL0     C52159   1.967   2.656   9.652  0.2464 -0.1799  0.5004
  387MOL0     N52160   2.417   2.183   9.280  0.6385 -0.4787  0.0015
  387MOL0     N52161   2.404   2.090   9.197  0.4146  1.1289 -0.3628
  387MOL0     C52162   2.307   1.183   8.433  0.4811  0.1058 -0.9852
  387MOL0     C52163   2.360   1.131   8.322  1.1805  0.3598 -0.4617
  387MOL0     C52164   2.585   1.071   7.935  0.5844  0.7125  0.2339
  387MOL0     C52165   2.505   1.011   7.840  0.8378  0.7299 -0.2865
  387MOL0     C52166   2.539   0.997   7.701 -0.0065 -0.1285 -0.2646
  387MOL0     C52167   2.679   1.002   7.677  0.1346 -0.1149 -0.1019
  387MOL0     O52168   2.711   0.955   7.537  0.1206 -0.1356  0.0308
  387MOL0     C52169   2.828   0.871   7.534  0.5708 -0.1160 -0.1015
  387MOL0     C52170   2.812   0.761   7.432 -0.3235 -0.4789  0.2069
  387MOL0     C52171   2.719   0.655   7.480  0.4411  0.0603 -0.6648
  387MOL0     C52172   2.730   0.536   7.380 -0.2967  0.5343 -0.2735
  387MOL0     C52173   2.601   0.465   7.369 -0.5772  0.6893  0.0691
  387MOL0     C52174   2.494   0.401   7.378 -0.4519  0.2218  0.2420
  387MOL0     C52175   2.763   1.052   7.778 -0.7565 -0.5740  0.7920
  387MOL0     C52176   2.722   1.095   7.902  0.4677 -0.0302 -0.4028
  387MOL0     C52177   2.832   1.155   7.983 -0.7782  0.9287 -0.5238
  387MOL0     H52178   2.264   1.360   8.086 -1.8007 -0.5284 -0.7068
  387MOL0     H52179   2.198   1.476   8.297 -0.8720  1.3032 -0.3924
  387MOL0     H52180   2.282   1.403   8.725  0.8235 -1.4685 -0.9003
  387MOL0     H52181   2.399   1.365   8.603  0.4284  0.6931  1.3643
  387MOL0     H52182   2.297   1.592   8.498 -2.0504  5.5273  1.4630
  387MOL0     H52183   2.432   1.589   8.624 -0.6896  0.7867  1.7857
  387MOL0     H52184   2.245   1.647   8.794  0.7565 -1.6655 -0.9444
  387MOL0     H52185   2.132   1.642   8.661 -0.7734  0.1531  0.3813
  387MOL0     H52186   2.388   1.813   8.709  0.0673  0.8227 -0.3176
  387MOL0     H52187   2.284   1.836   8.565  3.0171 -0.4458 -0.1694
  387MOL0     H52188   2.099   1.912   8.672 -0.5804  1.6654  1.3641
  387MOL0     H52189   2.157   1.860   8.832  1.1492  2.5223  1.6301
  387MOL0     H52190   2.293   2.093   8.667  1.0548  2.6141  2.1852
  387MOL0     H52191   2.142   2.098   8.766 -0.8595  0.4051  1.0813
  387MOL0     H52192   2.361   2.182   8.858 -1.5296  0.3553 -1.0531
  387MOL0     H52193   2.419   2.023   8.848  0.4944  0.5782 -0.3488
  387MOL0     H52194   2.146   2.050   8.984 -0.5157  4.3681 -0.1813
  387MOL0     H52195   2.283   1.938   9.002 -2.0875 -1.6920 -1.6251
  387MOL0     H52196   2.229   2.331   9.052 -0.6026  0.8927  0.8254
  387MOL0     H52197   2.379   2.406   9.413 -0.6356  1.4232  0.4602
  387MOL0     H52198   2.419   2.478   9.260 -1.1072  0.9733 -0.9149
  387MOL0     H52199   2.212   2.568   9.371  3.7520  1.7970 -3.4216
  387MOL0     H52200   2.189   2.507   9.207  1.6074  2.5249  0.6609
  387MOL0     H52201   2.127   2.293   9.419  1.3368 -0.0190 -0.7480
  387MOL0     H52202   2.038   2.330   9.278  1.0084 -2.4093  1.5524
  387MOL0     H52203   1.909   2.394   9.480  1.9729 -1.7250  1.7699
  387MOL0     H52204   1.977   2.551   9.429 -1.2643  0.3830  0.5167
  387MOL0     H52205   2.284   2.555   9.699  0.2270  0.2186 -0.0223
  387MOL0     H52206   2.312   2.784   9.788  1.7767 -2.3530 -0.6568
  387MOL0     H52207   2.110   3.263   9.618 -0.2689  1.3592 -1.8471
  387MOL0     H52208   2.127   3.502   9.713  1.6228  0.3222  2.1559
  387MOL0     H52209   2.007   3.760   9.931  0.3559 -0.3118  1.1573
  387MOL0     H52210   1.962   3.644   9.804  0.4569 -0.6111  0.2886
  387MOL0     H52211   1.756   3.662   9.914 -1.5037  1.2726  1.0766
  387MOL0     H52212   1.818   3.529  10.020  1.0854  0.7556  2.8673
  387MOL0     H52213   1.934   3.710  10.168  0.9974  1.6897 -1.4849
  387MOL0     H52214   1.834   3.828  10.078 -2.3831  0.1261 -1.7327
  387MOL0     H52215   1.738   3.570  10.229  0.7429  0.1434  1.2215
  387MOL0     H52216   1.629   3.675  10.131  0.8287  0.1443 -0.1927
  387MOL0     H52217   1.636   3.842  10.278 -2.3561 -2.1260 -1.1489
  387MOL0     H52218   1.791   3.804  10.351  0.4984  0.7106 -2.5181
  387MOL0     H52219   1.522   3.653  10.383  0.3633  1.5230 -0.0124
  387MOL0     H52220   1.677   3.594  10.448 -2.8879 -3.2547 -0.3398
  387MOL0     H52221   1.574   3.860  10.541 -0.6551 -0.8099 -0.2712
  387MOL0     H52222   1.693   3.754  10.620 -0.4532 -0.1724  0.6723
  387MOL0     H52223   1.410   3.659  10.582  2.0942 -0.4305 -1.7011
  387MOL0     H52224   1.539   3.580  10.671  2.5232  1.4416  0.8289
  387MOL0     H52225   2.007   3.363  10.090 -0.7429 -1.0944  1.0439
  387MOL0     H52226   1.978   3.117  10.005 -0.1581  0.7803  0.5952
  387MOL0     H52227   1.907   2.861   9.678  2.0340  1.1674 -0.6846
  387MOL0     H52228   1.875   2.631   9.601 -0.1704 -0.8870  1.5704
  387MOL0     H52229   2.302   1.134   8.530 -1.8136  1.0810 -0.5532
  387MOL0     H52230   2.407   1.033   8.323  0.6860 -0.0200  3.4299
  387MOL0     H52231   2.404   0.991   7.872 -0.5314  2.2770 -3.2366
  387MOL0     H52232   2.472   0.959   7.624 -1.5999  2.0433 -0.0581
  387MOL0     H52233   2.854   0.825   7.630 -1.5567  0.1020  0.6307
  387MOL0     H52234   2.910   0.935   7.502  0.5236  0.6180  1.1790
  387MOL0     H52235   2.912   0.719   7.415  0.6291  2.2304 -1.7140
  387MOL0     H52236   2.770   0.811   7.344  0.2856  1.7059  1.0920
  387MOL0     H52237   2.616   0.692   7.475 -0.4294 -2.2437 -1.3758
  387MOL0     H52238   2.729   0.612   7.580 -2.3129 -1.1814 -0.8152
  387MOL0     H52239   2.759   0.571   7.281 -0.4844  1.4382 -0.0222
  387MOL0     H52240   2.802   0.464   7.421 -1.9593 -0.5949  0.8092
  387MOL0     H52241   2.410   0.335   7.389 -1.9466  2.0321  0.0793
  387MOL0     H52242   2.867   1.037   7.752 -0.2936  0.2244  2.0837
  387MOL0     H52243   2.927   1.163   7.928  1.1080  2.4904  2.6746
  387MOL0     H52244   2.805   1.261   7.992 -0.2696  1.1026 -0.9647
  387MOL0     H52245   2.857   1.117   8.083  0.5883  2.9227 -0.0390
  388MOL0     O52246   2.458   1.884  11.215  0.9425 -0.4362 -1.0931
  388MOL0     C52247   2.516   1.843  11.314 -1.1031 -0.3637 -1.0354
  388MOL0     O52248   2.595   1.919  11.394  0.8105 -0.4250  0.7976
  388MOL0     C52249   2.602   2.056  11.373 -0.0579  1.4297  0.3072
  388MOL0     C52250   2.539   2.152  11.453 -0.8054 -1.7160  0.7998
  388MOL0     C52251   2.570   2.288  11.432 -0.0454  0.7097 -0.9729
  388MOL0     C52252   2.661   2.340  11.337  0.6009 -0.1931  0.4617
  388MOL0     O52253   2.692   2.475  11.330 -0.7842 -0.4062  0.9557
  388MOL0     C52254   2.703   2.546  11.204 -0.0184  0.5163  0.4882
  388MOL0     C52255   2.842   2.534  11.142 -0.1685  0.4642 -0.0961
  388MOL0     C52256   2.958   2.545  11.233 -0.4435  0.4910  0.3816
  388MOL0     C52257   3.085   2.584  11.148  0.7498  0.0628 -0.2630
  388MOL0     C52258   3.197   2.663  11.227 -0.6425  0.8587  0.3497
  388MOL0     C52259   3.281   2.589  11.336  0.4456  0.3156  0.5554
  388MOL0     C52260   3.382   2.683  11.397 -0.9516  0.4436  0.5339
  388MOL0     C52261   3.507   2.605  11.457 -0.3088  1.0559  0.3780
  388MOL0     N52262   3.599   2.710  11.508 -0.1941  0.2499 -0.3817
  388MOL0     C52263   3.595   2.751  11.643 -0.0018 -0.1284 -0.2634
  388MOL0     C52264   3.714   2.820  11.654 -0.0469  0.1584 -0.1984
  388MOL0     C52265   3.759   2.894  11.775 -0.1730  0.1266  0.0320
  388MOL0     C52266   3.892   2.809  11.807  0.1194 -0.1243  0.5012
  388MOL0     C52267   3.945   2.840  11.947  0.0821  0.5222  0.7973
  388MOL0     C52268   4.024   2.971  11.971  0.2364 -0.8938 -0.0980
  388MOL0     O52269   4.133   2.976  11.885  0.4712 -0.2260 -0.5235
  388MOL0     C52270   4.257   2.975  11.956 -0.1402 -0.0848 -0.2364
  388MOL0     C52271   4.303   3.069  12.053 -0.4931  0.0347 -1.0292
  388MOL0     C52272   4.425   3.053  12.116  0.2231 -0.2688  0.2250
  388MOL0     C52273   4.513   2.953  12.075 -0.6609  0.0565 -0.4033
  388MOL0     C52274   4.640   2.946  12.131 -0.5217  0.4757  0.1875
  388MOL0     O52275   4.713   2.836  12.097  0.8830 -0.3107 -0.6103
  388MOL0     C52276   4.847   2.817  12.126 -0.2992  0.3370 -0.4052
  388MOL0     C52277   4.938   2.852  12.024  0.5445 -0.2933  0.0633
  388MOL0     C52278   5.079   2.823  12.025  0.8445 -0.5317 -0.4722
  388MOL0     C52279   5.133   2.791  12.150  0.0349 -0.2595 -0.3165
  388MOL0     O52280   5.272   2.792  12.186 -0.2553 -0.6142  0.6417
  388MOL0     C52281   5.363   2.818  12.076  0.5849  0.6089  0.1705
  388MOL0     C52282   5.506   2.813  12.125 -0.0397  0.6457  0.8957
  388MOL0     C52283   5.586   2.682  12.105 -0.4607  0.3734 -0.1755
  388MOL0     C52284   5.740   2.697  12.122 -0.1917 -0.0832 -0.5011
  388MOL0     C52285   5.815   2.686  11.991 -1.1371 -0.0425  0.4187
  388MOL0     C52286   5.799   2.812  11.906 -0.9947 -0.8430  0.1942
  388MOL0     C52287   5.874   2.937  11.961 -0.3542 -0.0241  0.6546
  388MOL0     C52288   5.826   3.062  11.890  0.0999 -0.9455 -0.1612
  388MOL0    Cl52289   5.656   3.083  11.917  0.3952  0.5803 -0.0722
  388MOL0     C52290   5.043   2.753  12.254  0.3986 -0.3993 -0.0972
  388MOL0     C52291   4.901   2.768  12.244  0.9815 -0.2730  0.3533
  388MOL0     O52292   4.685   3.034  12.197 -0.6012  0.0926  0.1372
  388MOL0     C52293   4.473   2.869  11.974  0.0436  0.1460  1.3177
  388MOL0     C52294   4.340   2.874  11.913 -0.0705  0.0503  0.0515
  388MOL0     N52295   3.783   2.813  11.529 -0.1111 -0.4200  0.5477
  388MOL0     N52296   3.709   2.752  11.439  0.5198 -0.9010 -1.0416
  388MOL0     C52297   2.712   2.237  11.255 -0.0522  0.3570 -0.5586
  388MOL0     C52298   2.686   2.097  11.273  0.8986  0.0965 -0.5795
  388MOL0     C52299   2.498   1.704  11.356  0.7407  0.0021 -0.2886
  388MOL0     C52300   2.544   1.670  11.483 -0.6394 -0.3553 -0.6747
  388MOL0     C52301   2.508   1.556  11.546 -0.5154  0.2107  0.0556
  388MOL0     C52302   2.426   1.465  11.484 -0.4886 -0.1347  0.0500
  388MOL0     O52303   2.380   1.357  11.559  1.1128  0.6758  0.1244
  388MOL0     C52304   2.295   1.260  11.495  0.2489 -0.2499 -0.3136
  388MOL0     C52305   2.221   1.176  11.596 -0.0642  0.4344 -0.6205
  388MOL0     C52306   2.308   1.091  11.690 -0.1566 -0.0134  0.1982
  388MOL0     C52307   2.219   1.042  11.814  0.4471 -0.4702  0.0993
  388MOL0     C52308   2.309   0.994  11.921  0.0233  0.5684 -0.6327
  388MOL0     C52309   2.391   0.937  11.995 -0.5753 -0.3873  0.5624
  388MOL0     C52310   2.395   1.492  11.350 -0.7112  0.6032 -0.2730
  388MOL0     C52311   2.428   1.604  11.278 -0.2188 -0.6393 -0.1021
  388MOL0     C52312   2.378   1.620  11.141  0.0922 -0.2844 -0.0550
  388MOL0     H52313   2.474   2.115  11.532  0.3712  0.0838  2.7155
  388MOL0     H52314   2.517   2.343  11.509 -1.1426 -0.2163 -1.0373
  388MOL0     H52315   2.617   2.515  11.144 -2.0778  1.5275  2.7604
  388MOL0     H52316   2.671   2.648  11.225 -3.1314 -0.1276 -0.5812
  388MOL0     H52317   2.849   2.601  11.055 -0.0324  0.9915  0.3156
  388MOL0     H52318   2.841   2.435  11.096 -3.7055 -0.2829  1.3020
  388MOL0     H52319   2.978   2.449  11.282 -0.6234  0.9574  1.3938
  388MOL0     H52320   2.942   2.627  11.303 -3.1951  0.1734  0.2171
  388MOL0     H52321   3.129   2.495  11.103  0.1738  1.0529 -2.9272
  388MOL0     H52322   3.054   2.656  11.072  2.7769  0.6240 -0.6003
  388MOL0     H52323   3.266   2.699  11.149 -0.4983 -0.2991 -0.0774
  388MOL0     H52324   3.153   2.753  11.273  0.6986  1.9736 -0.4572
  388MOL0     H52325   3.219   2.557  11.421  2.5075  1.8840  2.7956
  388MOL0     H52326   3.335   2.502  11.299 -2.5348 -1.2027 -0.5774
  388MOL0     H52327   3.336   2.745  11.476  0.3055 -1.0980  2.5679
  388MOL0     H52328   3.421   2.754  11.323  0.1588 -0.3837  0.3066
  388MOL0     H52329   3.479   2.539  11.540  2.8625  1.2554  1.7422
  388MOL0     H52330   3.557   2.536  11.389 -0.5040  0.0610  1.2225
  388MOL0     H52331   3.516   2.754  11.718  0.8813 -2.8057  0.8983
  388MOL0     H52332   3.776   2.999  11.749 -3.5480  0.8961  0.4718
  388MOL0     H52333   3.690   2.895  11.860 -2.2048 -1.6235 -1.4844
  388MOL0     H52334   3.889   2.699  11.804  0.6501 -0.2911  3.3108
  388MOL0     H52335   3.965   2.837  11.731  0.8986  0.7293  1.5402
  388MOL0     H52336   4.003   2.751  11.972  0.9824  0.9964  0.4182
  388MOL0     H52337   3.861   2.835  12.017  0.6562 -0.4217  1.4433
  388MOL0     H52338   4.065   2.972  12.072 -0.0833 -1.0150  0.0357
  388MOL0     H52339   3.966   3.062  11.953  0.7037 -0.3792  0.8997
  388MOL0     H52340   4.230   3.143  12.084 -0.3384 -0.9441  1.9751
  388MOL0     H52341   4.460   3.115  12.198  2.0320 -0.6552 -0.2092
  388MOL0     H52342   4.898   2.886  11.929  2.3040 -2.0150 -1.3616
  388MOL0     H52343   5.145   2.842  11.941 -0.1803  1.7148 -0.8346
  388MOL0     H52344   5.347   2.746  11.995 -1.8664 -1.5211  2.3473
  388MOL0     H52345   5.341   2.920  12.046 -1.4905  0.6331  1.5085
  388MOL0     H52346   5.560   2.897  12.081 -1.1875  0.3106 -1.3177
  388MOL0     H52347   5.508   2.827  12.234  0.6769 -0.9275  1.1047
  388MOL0     H52348   5.562   2.612  12.185  0.2742  0.0397 -0.2422
  388MOL0     H52349   5.559   2.641  12.007 -2.1400 -0.7820  0.7176
  388MOL0     H52350   5.782   2.611  12.173 -1.8110 -1.6137 -1.6257
  388MOL0     H52351   5.761   2.790  12.176  1.7641 -0.5067 -0.4664
  388MOL0     H52352   5.780   2.602  11.930  2.9947 -1.7115  0.0118
  388MOL0     H52353   5.924   2.679  12.005 -0.3473  1.6759 -3.4829
  388MOL0     H52354   5.836   2.786  11.807 -2.3002  0.0272 -0.5590
  388MOL0     H52355   5.697   2.844  11.881 -0.2209  0.9435 -0.8976
  388MOL0     H52356   5.981   2.930  11.939 -0.0215  0.5685  1.9993
  388MOL0     H52357   5.859   2.937  12.069  0.7173 -2.9363  0.8790
  388MOL0     H52358   5.880   3.150  11.925 -2.1387  0.0835  0.9184
  388MOL0     H52359   5.844   3.066  11.782  0.7046 -0.0825 -0.0442
  388MOL0     H52360   5.085   2.730  12.352  2.0300 -0.6707 -0.8338
  388MOL0     H52361   4.825   2.754  12.320 -0.6263  1.3992 -0.8489
  388MOL0     H52362   4.538   2.788  11.944 -0.4171 -0.6694  2.4628
  388MOL0     H52363   4.314   2.792  11.847  0.9331 -0.0992 -0.1632
  388MOL0     H52364   2.770   2.259  11.166 -0.2901 -1.4748 -1.2277
  388MOL0     H52365   2.720   2.040  11.187  1.2941  1.0687 -1.0819
  388MOL0     H52366   2.605   1.741  11.538  3.0392 -0.5633 -4.0236
  388MOL0     H52367   2.535   1.542  11.650 -0.0247  0.0994 -0.0860
  388MOL0     H52368   2.345   1.189  11.428 -1.0223 -0.9038 -0.6093
  388MOL0     H52369   2.221   1.319  11.440  1.7385  0.6530 -1.4213
  388MOL0     H52370   2.160   1.111  11.533 -0.3606  1.2028 -1.1513
  388MOL0     H52371   2.166   1.248  11.657 -0.5620 -1.5330  1.3421
  388MOL0     H52372   2.399   1.139  11.728  1.0249 -0.1006 -2.3003
  388MOL0     H52373   2.342   1.004  11.632 -2.6727 -1.7807  1.2212
  388MOL0     H52374   2.157   1.122  11.854  1.7242 -0.5337  2.3749
  388MOL0     H52375   2.152   0.957  11.795  0.3175  0.0782 -2.0594
  388MOL0     H52376   2.430   0.886  12.080 -1.5789 -0.7387  0.8236
  388MOL0     H52377   2.340   1.425  11.285  1.6883 -1.4885 -0.3188
  388MOL0     H52378   2.446   1.685  11.086 -1.3009  1.7095  0.4552
  388MOL0     H52379   2.366   1.531  11.078  2.3388 -0.5973 -0.1124
  388MOL0     H52380   2.281   1.672  11.143  0.3742  0.3396 -1.5853
  389MOL0     O52381   9.543   2.437  10.902 -0.1636 -0.5753  0.0479
  389MOL0     C52382   9.470   2.394  10.987  0.3106  0.1148  0.8303
  389MOL0     O52383   9.336   2.395  10.984  0.2175  0.0664 -0.3556
  389MOL0     C52384   9.259   2.435  10.889  0.3484 -0.6828  0.0031
  389MOL0     C52385   9.153   2.517  10.931  0.0210 -0.3274 -0.5253
  389MOL0     C52386   9.061   2.572  10.841  0.2296  0.0251  0.3316
  389MOL0     C52387   9.049   2.528  10.705  0.3102  0.9241 -0.3213
  389MOL0     O52388   8.952   2.559  10.619  0.6105  0.6053  0.1013
  389MOL0     C52389   8.822   2.548  10.680 -0.0498 -0.1101 -0.3638
  389MOL0     C52390   8.718   2.554  10.565 -0.3171 -0.1707 -0.2100
  389MOL0     C52391   8.579   2.589  10.624  0.5724  0.1613 -0.2887
  389MOL0     C52392   8.472   2.483  10.610 -0.4754  0.4111 -0.7556
  389MOL0     C52393   8.336   2.550  10.636  0.1124  0.1353  0.1863
  389MOL0     C52394   8.240   2.433  10.617  0.6087 -1.1185  0.4671
  389MOL0     C52395   8.098   2.460  10.656  0.8508  0.0075 -0.8292
  389MOL0     C52396   8.065   2.467  10.814  0.4190  0.1099  0.9041
  389MOL0     N52397   8.068   2.339  10.886 -0.1748 -1.5258 -0.1323
  389MOL0     C52398   8.140   2.310  11.001  0.3790  0.1325 -0.9331
  389MOL0     C52399   8.140   2.179  11.024  0.3134 -0.5184  0.2980
  389MOL0     C52400   8.196   2.111  11.151  0.0239  0.0027  0.0278
  389MOL0     C52401   8.317   2.203  11.194  0.7623  0.1283 -0.4508
  389MOL0     C52402   8.399   2.148  11.313  0.3979  0.0996  0.2764
  389MOL0     C52403   8.340   2.126  11.453  0.2034 -0.2275  0.4739
  389MOL0     O52404   8.350   2.234  11.543  0.1683  0.2239 -0.9809
  389MOL0     C52405   8.307   2.357  11.498  0.0804  0.4778  0.3867
  389MOL0     C52406   8.174   2.371  11.458  0.0294  1.0316  0.9899
  389MOL0     C52407   8.132   2.495  11.391 -0.1646 -0.2605  0.2294
  389MOL0     C52408   8.226   2.606  11.381  0.0572  0.0621  0.6339
  389MOL0     C52409   8.199   2.726  11.294  0.0415  0.1712 -0.8515
  389MOL0     O52410   8.071   2.764  11.293  0.0225  0.3865 -0.2958
  389MOL0     C52411   8.047   2.861  11.204 -0.0018  0.4117 -0.5196
  389MOL0     C52412   8.071   2.992  11.238  0.6789 -0.2166  0.3448
  389MOL0     C52413   8.054   3.089  11.144  0.1572 -0.7191  0.3935
  389MOL0     C52414   8.018   3.056  11.012  0.2660 -0.6013 -0.5788
  389MOL0     O52415   8.015   3.163  10.928  0.2186 -0.2645  0.2318
  389MOL0     C52416   8.062   3.142  10.790  0.3936  0.7964 -0.2604
  389MOL0     C52417   8.121   3.275  10.725  0.9156 -0.5708  0.2075
  389MOL0     C52418   8.254   3.317  10.800 -0.1867 -0.0626 -0.4461
  389MOL0     C52419   8.272   3.464  10.798 -0.2393 -0.4365 -0.0377
  389MOL0     C52420   8.411   3.497  10.852 -0.4480 -0.0720  0.0679
  389MOL0     C52421   8.419   3.636  10.915  0.9700 -0.0953 -1.0004
  389MOL0     C52422   8.557   3.672  10.971  0.2015 -1.0666 -0.4082
  389MOL0     C52423   8.569   3.823  10.987 -0.5147 -0.4189 -0.0396
  389MOL0    Cl52424   8.603   3.910  10.828  0.3309  0.6369  0.0105
  389MOL0     C52425   8.002   2.926  10.973  0.3494 -0.0694 -1.1909
  389MOL0     C52426   8.018   2.827  11.072 -0.3839 -0.1848 -0.5665
  389MOL0     O52427   8.296   2.791  11.249 -0.2824 -0.3601  0.2394
  389MOL0     C52428   8.356   2.586  11.430 -0.1745  0.1878 -0.4482
  389MOL0     C52429   8.397   2.464  11.489 -0.5610  0.3082  0.1668
  389MOL0     N52430   8.054   2.125  10.926 -0.2182 -0.5526  0.0960
  389MOL0     N52431   8.018   2.221  10.848 -0.1005  0.8402  0.3516
  389MOL0     C52432   9.152   2.433  10.677 -0.6025  0.6593  0.3789
  389MOL0     C52433   9.254   2.385  10.759  0.4059 -0.3630  0.1590
  389MOL0     C52434   9.545   2.321  11.099  0.2292 -0.2042  0.5602
  389MOL0     C52435   9.500   2.193  11.143 -0.3345  0.0473 -0.4699
  389MOL0     C52436   9.570   2.131  11.250  0.3715  0.5163  0.1741
  389MOL0     C52437   9.678   2.193  11.315 -0.0308  0.4992 -0.8395
  389MOL0     O52438   9.733   2.128  11.429  0.3358 -0.5945  0.0051
  389MOL0     C52439   9.762   2.221  11.540 -0.1988 -0.1261  0.2811
  389MOL0     C52440   9.917   2.238  11.543  0.6063  0.8173 -0.2389
  389MOL0     C52441   9.977   2.329  11.646 -0.5533 -0.2560  0.0445
  389MOL0     C52442   9.967   2.477  11.604  0.5613  0.3101  0.1316
  389MOL0     C52443  10.038   2.571  11.688  0.5945  0.1899 -0.3961
  389MOL0     C52444  10.067   2.632  11.792  0.5776 -0.3751 -0.8613
  389MOL0     C52445   9.716   2.324  11.274 -0.3058  0.4147 -0.0261
  389MOL0     C52446   9.648   2.391  11.165 -0.6241  0.3173 -0.0918
  389MOL0     C52447   9.702   2.530  11.126 -0.3059 -0.3912  0.2837
  389MOL0     H52448   9.143   2.559  11.031 -1.1106  1.5516 -1.3552
  389MOL0     H52449   8.996   2.651  10.878  0.9479  2.0453 -2.4129
  389MOL0     H52450   8.811   2.460  10.744  0.8536  1.6353  2.3244
  389MOL0     H52451   8.796   2.631  10.745 -2.5295 -1.5756  0.6694
  389MOL0     H52452   8.707   2.454  10.521 -2.0009  0.5536 -1.5856
  389MOL0     H52453   8.747   2.626  10.487 -0.1862  0.5547  0.4973
  389MOL0     H52454   8.544   2.682  10.578  2.1566 -0.1447 -2.2775
  389MOL0     H52455   8.578   2.608  10.732  3.9201 -2.2222  0.3398
  389MOL0     H52456   8.464   2.451  10.505  3.3489 -0.9050 -0.8158
  389MOL0     H52457   8.497   2.398  10.675  2.1967  2.0578  0.5487
  389MOL0     H52458   8.331   2.597  10.735 -0.5326  2.1990 -0.7822
  389MOL0     H52459   8.307   2.624  10.561 -1.4172 -1.6312 -1.0815
  389MOL0     H52460   8.231   2.413  10.510  0.5619  2.1007 -0.2258
  389MOL0     H52461   8.271   2.345  10.673 -0.4619 -0.7428  1.6973
  389MOL0     H52462   8.044   2.371  10.621 -2.6586  0.1543  3.3712
  389MOL0     H52463   8.055   2.551  10.612 -2.1098 -2.5657 -3.7744
  389MOL0     H52464   8.132   2.540  10.859 -0.6017  4.2837 -3.4977
  389MOL0     H52465   7.961   2.502  10.820 -0.4375 -1.6555 -1.9445
  389MOL0     H52466   8.179   2.386  11.068 -0.1865 -3.2109  3.7117
  389MOL0     H52467   8.136   2.107  11.242  1.4888 -2.2064  0.9461
  389MOL0     H52468   8.237   2.012  11.131 -3.8281 -1.5909 -0.9699
  389MOL0     H52469   8.383   2.224  11.109  0.4877  0.0789 -0.6772
  389MOL0     H52470   8.269   2.295  11.228 -0.6697 -1.5167  2.4160
  389MOL0     H52471   8.492   2.205  11.316  0.0421  1.2398 -3.8339
  389MOL0     H52472   8.431   2.054  11.267 -0.1874  0.3756 -0.7190
  389MOL0     H52473   8.396   2.047  11.504  1.0409 -1.9466 -2.8347
  389MOL0     H52474   8.233   2.104  11.446  0.6492 -2.3159 -0.3799
  389MOL0     H52475   8.118   2.278  11.469  1.1996 -0.1031 -1.8349
  389MOL0     H52476   8.029   2.508  11.358  0.0519 -2.1749 -1.3813
  389MOL0     H52477   8.094   3.035  11.335  2.1420 -0.1670 -0.0067
  389MOL0     H52478   8.086   3.190  11.167  1.6213  0.1266 -4.2379
  389MOL0     H52479   8.136   3.062  10.787 -1.0553 -0.5818 -0.8680
  389MOL0     H52480   7.977   3.107  10.730  0.2812 -2.7488  1.6253
  389MOL0     H52481   8.135   3.278  10.617 -0.7739 -0.6938 -0.0444
  389MOL0     H52482   8.041   3.347  10.743 -0.0510 -0.9105 -2.3248
  389MOL0     H52483   8.245   3.270  10.899  2.3451  2.8412  1.3410
  389MOL0     H52484   8.333   3.267  10.743 -0.4082 -2.0501  0.8743
  389MOL0     H52485   8.202   3.522  10.859 -1.3160 -0.3663 -1.2924
  389MOL0     H52486   8.261   3.501  10.696 -1.7795 -1.6414 -0.3508
  389MOL0     H52487   8.485   3.489  10.772  2.3564 -2.2246  2.6151
  389MOL0     H52488   8.444   3.429  10.932 -0.1429  0.6343  0.5588
  389MOL0     H52489   8.393   3.707  10.836 -0.0294  2.8715  1.7926
  389MOL0     H52490   8.344   3.650  10.993  2.1576 -1.5681  0.4752
  389MOL0     H52491   8.638   3.630  10.910  2.5041  1.3370  0.7980
  389MOL0     H52492   8.562   3.637  11.075 -2.7195 -1.0847 -0.1790
  389MOL0     H52493   8.495   3.877  11.046  3.0663 -0.5092  5.1666
  389MOL0     H52494   8.664   3.837  11.040  0.1844 -0.8141 -1.1455
  389MOL0     H52495   7.967   2.905  10.873  2.2159 -1.3259 -1.6253
  389MOL0     H52496   8.000   2.722  11.049 -1.4805 -0.2741  0.5870
  389MOL0     H52497   8.426   2.667  11.411 -0.9110  1.6453  2.4793
  389MOL0     H52498   8.499   2.435  11.514 -0.1293  0.1619 -1.6100
  389MOL0     H52499   9.162   2.386  10.580 -2.8815 -3.3661  1.8586
  389MOL0     H52500   9.328   2.311  10.729  1.8108  0.8753  0.4893
  389MOL0     H52501   9.421   2.149  11.083  0.4416 -1.3979 -0.4934
  389MOL0     H52502   9.533   2.030  11.268 -0.6295  0.3618 -2.4035
  389MOL0     H52503   9.729   2.177  11.635 -2.0858  1.5516  0.4651
  389MOL0     H52504   9.708   2.316  11.530  0.0174 -0.0018  0.3018
  389MOL0     H52505   9.960   2.240  11.443 -0.6040 -4.2801 -1.1552
  389MOL0     H52506   9.962   2.146  11.581  0.9148  1.1724  0.2669
  389MOL0     H52507  10.078   2.290  11.665 -1.5428 -1.8907  2.5189
  389MOL0     H52508   9.924   2.324  11.742  0.6449  0.9297  0.8034
  389MOL0     H52509  10.015   2.484  11.506  1.9808  0.3762  0.8141
  389MOL0     H52510   9.859   2.496  11.601  0.6096  1.8123  3.3594
  389MOL0     H52511  10.100   2.684  11.880  0.4472 -0.1587 -0.9399
  389MOL0     H52512   9.790   2.380  11.331  1.4559 -1.9837  0.1715
  389MOL0     H52513   9.717   2.543  11.018 -0.1937  1.7421  0.5048
  389MOL0     H52514   9.637   2.614  11.152 -0.7908 -0.6001 -0.2103
  389MOL0     H52515   9.804   2.545  11.163  0.1815 -1.0400 -0.7395
  390MOL0     O52516  10.568   2.280   1.423  0.5531  1.0264 -1.2566
  390MOL0     C52517  10.508   2.324   1.325 -0.6101 -0.0634  0.2795
  390MOL0     O52518  10.375   2.357   1.317 -0.1074 -0.9688 -0.2720
  390MOL0     C52519  10.303   2.354   1.438 -0.8765  0.8333  0.1024
  390MOL0     C52520  10.259   2.238   1.490 -1.4392  0.3398 -0.0828
  390MOL0     C52521  10.168   2.245   1.594  1.0622  0.6680  1.5181
  390MOL0     C52522  10.130   2.362   1.658 -0.9618 -0.9436 -0.7027
  390MOL0     O52523  10.044   2.368   1.768  0.1717  0.7231  0.3407
  390MOL0     C52524  10.085   2.455   1.875 -0.3251 -0.4752  0.3327
  390MOL0     C52525  10.001   2.417   2.003 -1.0228  0.0608 -0.3742
  390MOL0     C52526  10.008   2.530   2.113  0.7616 -0.0083 -0.3488
  390MOL0     C52527  10.154   2.586   2.127 -0.6539 -0.8042  0.3810
  390MOL0     C52528  10.169   2.642   2.268 -0.4984 -0.8022  0.1223
  390MOL0     C52529  10.262   2.761   2.284 -0.2165 -0.1606 -0.1077
  390MOL0     C52530  10.408   2.715   2.268 -0.5897 -0.5465 -0.5032
  390MOL0     C52531  10.508   2.822   2.273  0.7375 -0.7689 -0.3745
  390MOL0     N52532  10.651   2.783   2.278  0.1918  0.0257 -0.0490
  390MOL0     C52533  10.727   2.773   2.159  0.6966  0.0701  0.0814
  390MOL0     C52534  10.857   2.778   2.200  0.6912  0.0132 -0.5069
  390MOL0     C52535  10.977   2.773   2.112  0.5560  0.3655 -1.0938
  390MOL0     C52536  11.072   2.883   2.143 -0.1732 -0.2419  0.7490
  390MOL0     C52537  11.182   2.866   2.045 -1.0519 -0.8939  0.5019
  390MOL0     C52538  11.268   2.985   2.010  0.4500  0.2740 -0.2388
  390MOL0     O52539  11.405   2.949   2.040  0.2225 -0.4411  0.5366
  390MOL0     C52540  11.444   2.993   2.163 -0.0465 -0.9603 -0.3910
  390MOL0     C52541  11.503   3.119   2.177  0.8359  0.2145  0.2043
  390MOL0     C52542  11.532   3.179   2.301 -0.0311  1.0645  0.1051
  390MOL0     C52543  11.506   3.101   2.415 -0.3193 -0.5026 -0.8298
  390MOL0     C52544  11.544   3.150   2.548  0.1523 -0.0675 -0.4140
  390MOL0     O52545  11.570   3.289   2.545  0.4194  0.6427  0.4430
  390MOL0     C52546  11.611   3.348   2.667 -0.2565 -0.8218  0.2385
  390MOL0     C52547  11.735   3.416   2.671 -0.3164  0.3616  1.1874
  390MOL0     C52548  11.783   3.457   2.801  0.0716  0.2209  0.7646
  390MOL0     C52549  11.707   3.450   2.912 -0.0208  0.0120 -0.0752
  390MOL0     O52550  11.752   3.502   3.031  0.2676  0.8780 -0.7567
  390MOL0     C52551  11.887   3.544   3.054  0.9653 -0.6974 -0.5558
  390MOL0     C52552  11.913   3.533   3.206  0.5798 -0.0629  0.6278
  390MOL0     C52553  12.051   3.576   3.244  0.3816 -0.2998  0.5637
  390MOL0     C52554  12.079   3.719   3.202  0.0842  0.5848  0.4777
  390MOL0     C52555  12.231   3.744   3.190  0.2910 -0.4029 -0.7922
  390MOL0     C52556  12.266   3.890   3.142 -0.0783  0.6550  0.6614
  390MOL0     C52557  12.421   3.907   3.139 -0.0125 -0.2668 -0.2509
  390MOL0     C52558  12.489   3.854   3.015  0.2447 -0.5611  0.6675
  390MOL0    Cl52559  12.485   3.975   2.872 -0.2221 -0.5008 -0.2697
  390MOL0     C52560  11.575   3.397   2.902  0.1268  0.2952  0.0641
  390MOL0     C52561  11.528   3.341   2.783 -0.2835  1.1768 -0.7725
  390MOL0     O52562  11.537   3.077   2.650 -0.3815  0.6558 -0.6442
  390MOL0     C52563  11.447   2.979   2.398  0.1865  0.2562 -0.1932
  390MOL0     C52564  11.413   2.923   2.277 -0.1253 -0.2121  0.4790
  390MOL0     N52565  10.860   2.769   2.338 -0.4524  0.1806  0.0951
  390MOL0     N52566  10.732   2.759   2.383 -0.1262 -0.0876 -0.4036
  390MOL0     C52567  10.203   2.477   1.621 -0.3323  0.4644 -0.4320
  390MOL0     C52568  10.286   2.471   1.511 -0.5012 -0.6224  1.1914
  390MOL0     C52569  10.575   2.324   1.190 -0.2415  0.5253  0.2635
  390MOL0     C52570  10.500   2.312   1.072  0.8137 -0.1448 -0.2014
  390MOL0     C52571  10.559   2.306   0.944 -0.0324  0.1098  1.0041
  390MOL0     C52572  10.694   2.316   0.924 -0.6668  1.3921  0.2848
  390MOL0     O52573  10.749   2.330   0.799 -0.7413  0.5459 -0.5436
  390MOL0     C52574  10.697   2.274   0.683  0.5469 -0.3824  0.0113
  390MOL0     C52575  10.696   2.125   0.665  0.3320 -0.1749 -0.0970
  390MOL0     C52576  10.836   2.081   0.635  0.4607  0.0582 -0.0915
  390MOL0     C52577  10.841   1.934   0.634  0.2802 -0.2590  0.5660
  390MOL0     C52578  10.950   1.881   0.558  0.0330  0.6395 -0.2979
  390MOL0     C52579  11.044   1.835   0.503  0.1429 -1.1018 -0.1064
  390MOL0     C52580  10.770   2.319   1.039  0.0532  0.9901  0.5357
  390MOL0     C52581  10.719   2.333   1.171  0.2602 -0.8433 -0.3053
  390MOL0     C52582  10.819   2.370   1.282  0.0972 -0.2504 -0.2204
  390MOL0     H52583  10.268   2.137   1.452 -0.7707  0.9263 -1.5701
  390MOL0     H52584  10.136   2.153   1.642  4.2957 -0.5986  1.4841
  390MOL0     H52585  10.190   2.434   1.895  0.0319  0.3475 -0.6257
  390MOL0     H52586  10.077   2.559   1.842  3.0292 -0.0715  0.4942
  390MOL0     H52587  10.038   2.321   2.041  2.1577  1.4305  0.3163
  390MOL0     H52588   9.894   2.408   1.983 -1.0944  0.0326  0.0093
  390MOL0     H52589   9.979   2.483   2.208  2.9371 -1.1549 -0.1929
  390MOL0     H52590   9.951   2.614   2.073  2.8292  0.4936 -2.4097
  390MOL0     H52591  10.228   2.508   2.109 -1.3499 -1.6753  1.2110
  390MOL0     H52592  10.175   2.662   2.050  1.4365 -0.0323  1.6246
  390MOL0     H52593  10.072   2.675   2.307 -0.5390  0.3445 -0.9083
  390MOL0     H52594  10.203   2.558   2.330 -1.5753 -2.7859 -1.8478
  390MOL0     H52595  10.232   2.839   2.214 -3.0808  0.4098  1.5901
  390MOL0     H52596  10.253   2.798   2.387  1.7779 -3.1063  1.2940
  390MOL0     H52597  10.417   2.648   2.182 -1.2832 -0.8785 -0.3219
  390MOL0     H52598  10.423   2.651   2.356  3.2603  1.0713  0.2220
  390MOL0     H52599  10.494   2.893   2.190 -1.7938  1.9665  2.1361
  390MOL0     H52600  10.487   2.881   2.363  1.6353  0.1045 -0.7180
  390MOL0     H52601  10.696   2.771   2.055  1.4176  2.8868 -0.2682
  390MOL0     H52602  11.027   2.679   2.137 -1.9599 -0.7292  0.2051
  390MOL0     H52603  10.937   2.773   2.010 -2.1115  0.8072 -0.1267
  390MOL0     H52604  11.028   2.983   2.133  1.6732  0.3650 -2.0709
  390MOL0     H52605  11.107   2.872   2.246  2.1390  3.8347  0.5978
  390MOL0     H52606  11.141   2.832   1.949 -2.9766 -1.6299  1.5222
  390MOL0     H52607  11.249   2.790   2.086  0.4792 -0.3769 -0.9229
  390MOL0     H52608  11.224   3.057   2.080  0.6357 -0.4581  0.6569
  390MOL0     H52609  11.258   3.021   1.907  2.3958  1.9740  0.1137
  390MOL0     H52610  11.530   3.169   2.084  0.6537 -2.4837 -1.3876
  390MOL0     H52611  11.600   3.263   2.308 -3.7387  4.3695  0.5471
  390MOL0     H52612  11.790   3.442   2.582  2.3227 -1.4663  2.1570
  390MOL0     H52613  11.884   3.494   2.813  1.3906 -3.0513  1.0057
  390MOL0     H52614  11.968   3.490   3.004  1.5936 -3.2624  2.8431
  390MOL0     H52615  11.896   3.648   3.022  0.1784 -0.2607  0.5819
  390MOL0     H52616  11.837   3.582   3.267 -1.5215  3.6984 -4.3627
  390MOL0     H52617  11.920   3.426   3.227  4.6065  0.1028  1.0077
  390MOL0     H52618  12.081   3.578   3.349 -1.8377  0.4327  1.2356
  390MOL0     H52619  12.119   3.504   3.197  0.5766 -0.2308  0.7421
  390MOL0     H52620  12.031   3.782   3.277 -2.4128 -0.6299 -0.0063
  390MOL0     H52621  12.034   3.748   3.107  1.7176 -0.2165 -0.5939
  390MOL0     H52622  12.259   3.667   3.116  1.1985  2.6215 -3.8735
  390MOL0     H52623  12.271   3.718   3.288  0.6610 -2.1533 -1.3625
  390MOL0     H52624  12.217   3.911   3.046 -5.8570 -0.8621  2.8375
  390MOL0     H52625  12.213   3.955   3.211  0.1986 -0.0372  1.5462
  390MOL0     H52626  12.473   3.866   3.227 -1.0793  0.7153  0.8721
  390MOL0     H52627  12.429   4.015   3.155 -2.6875  0.2295 -1.6518
  390MOL0     H52628  12.592   3.836   3.047  0.3440  0.8549  1.2145
  390MOL0     H52629  12.436   3.762   2.988 -0.2537 -0.1273  0.1508
  390MOL0     H52630  11.524   3.395   2.998  3.4722 -2.7149  2.0363
  390MOL0     H52631  11.434   3.288   2.775  0.7246 -0.6887 -0.7001
  390MOL0     H52632  11.450   2.913   2.484 -1.9416 -0.2305 -0.4251
  390MOL0     H52633  11.377   2.821   2.274  0.0220 -0.3071  1.4268
  390MOL0     H52634  10.197   2.568   1.680  3.1122  1.9025 -2.0458
  390MOL0     H52635  10.314   2.563   1.462 -2.5298 -1.2373 -1.3767
  390MOL0     H52636  10.393   2.294   1.066  0.5239  1.1390  0.8226
  390MOL0     H52637  10.492   2.289   0.860 -0.9067  1.6666  1.3533
  390MOL0     H52638  10.764   2.317   0.608 -0.2151  1.3309  0.2623
  390MOL0     H52639  10.596   2.315   0.676  0.1005 -1.5426 -0.6511
  390MOL0     H52640  10.624   2.105   0.586 -0.4727  0.3635  0.4791
  390MOL0     H52641  10.658   2.077   0.756 -0.8303  2.8651  1.1895
  390MOL0     H52642  10.926   2.107   0.690  0.2857 -0.2816  0.3640
  390MOL0     H52643  10.858   2.119   0.535  1.5415  2.9578  1.1530
  390MOL0     H52644  10.829   1.897   0.737  0.1220  4.0362  2.2980
  390MOL0     H52645  10.754   1.886   0.587  0.8642 -1.5783  0.7743
  390MOL0     H52646  11.132   1.795   0.458 -1.2021 -1.3501 -2.7005
  390MOL0     H52647  10.878   2.327   1.032  0.2082 -1.6435 -1.6893
  390MOL0     H52648  10.772   2.438   1.353  1.1514 -0.3331  0.5835
  390MOL0     H52649  10.831   2.276   1.337  1.3128 -1.1288 -1.8634
  390MOL0     H52650  10.905   2.423   1.239 -0.5233 -2.5381 -4.9651
  391MOL0     O52651   7.633   8.046   3.973 -0.5059  0.4075  0.7230
  391MOL0     C52652   7.721   8.067   4.053  0.3034 -0.3407  0.6780
  391MOL0     O52653   7.820   7.980   4.076  0.4070  0.6109  0.1641
  391MOL0     C52654   7.821   7.870   3.996  0.1141 -0.0511  0.1295
  391MOL0     C52655   7.866   7.864   3.857  0.6868  0.1418 -0.1338
  391MOL0     C52656   7.882   7.741   3.787 -1.0756  0.1991 -0.1548
  391MOL0     C52657   7.861   7.626   3.861  0.4095 -0.0161  0.9669
  391MOL0     O52658   7.878   7.502   3.796  0.9219 -0.2630  0.0644
  391MOL0     C52659   7.769   7.475   3.700  1.4750 -0.5909  0.9596
  391MOL0     C52660   7.772   7.337   3.652 -0.5825 -0.0073  0.4990
  391MOL0     C52661   7.652   7.292   3.574  0.5106  0.6875  0.1465
  391MOL0     C52662   7.686   7.167   3.498  0.1527  0.3279  0.4635
  391MOL0     C52663   7.562   7.111   3.417  0.0925 -0.0924  0.7505
  391MOL0     C52664   7.602   6.975   3.368 -1.0805 -0.3560 -0.5903
  391MOL0     C52665   7.498   6.921   3.273  0.2383  0.1284  0.2296
  391MOL0     C52666   7.557   6.784   3.229  0.1162 -0.0019  0.1480
  391MOL0     N52667   7.466   6.708   3.139  1.1238  0.5082 -1.2221
  391MOL0     C52668   7.459   6.713   3.004 -0.0020 -0.0511 -1.1802
  391MOL0     C52669   7.359   6.635   2.967 -0.7254 -0.8703  0.4296
  391MOL0     C52670   7.300   6.603   2.831  0.5790  1.1943  0.4518
  391MOL0     C52671   7.291   6.452   2.806 -0.2561 -0.4221 -1.1941
  391MOL0     C52672   7.219   6.431   2.682 -0.1690  0.5823 -0.8100
  391MOL0     C52673   7.215   6.273   2.660 -0.0061 -0.4035 -0.7520
  391MOL0     O52674   7.140   6.203   2.764  0.1281  0.1641 -0.4658
  391MOL0     C52675   7.002   6.188   2.754  0.1246 -0.0799 -1.1438
  391MOL0     C52676   6.940   6.113   2.854 -0.4056  0.2331 -0.6213
  391MOL0     C52677   6.808   6.085   2.857  1.3716 -0.3155 -0.4264
  391MOL0     C52678   6.723   6.127   2.752 -0.2541  0.3002  0.0334
  391MOL0     C52679   6.567   6.093   2.748  0.4296 -0.6210 -0.3494
  391MOL0     O52680   6.511   6.035   2.864 -0.1912 -0.3059  0.3278
  391MOL0     C52681   6.381   6.029   2.884  0.4800  0.0052  0.7019
  391MOL0     C52682   6.304   5.912   2.859  0.2288 -0.5112 -0.0236
  391MOL0     C52683   6.173   5.911   2.900 -0.1143 -0.1471  0.7020
  391MOL0     C52684   6.115   6.021   2.968  0.3569 -0.7071 -0.2515
  391MOL0     O52685   5.983   6.004   3.017 -0.7432 -1.0010  0.9694
  391MOL0     C52686   5.889   6.113   3.002  0.3173  0.0762 -0.9441
  391MOL0     C52687   5.758   6.055   3.047 -0.1547 -0.7105 -0.7502
  391MOL0     C52688   5.644   6.144   3.001  0.8659  0.6208  0.1530
  391MOL0     C52689   5.508   6.075   3.031  0.3899 -1.2204 -0.7999
  391MOL0     C52690   5.376   6.161   3.011 -0.6962 -0.7976 -0.0088
  391MOL0     C52691   5.345   6.185   2.867 -0.1953 -0.6890  0.4077
  391MOL0     C52692   5.201   6.224   2.831  0.3548  0.0013 -0.1743
  391MOL0     C52693   5.184   6.304   2.703  0.6558 -0.6409 -0.2682
  391MOL0    Cl52694   5.008   6.354   2.683 -0.0002  0.2565 -0.0100
  391MOL0     C52695   6.188   6.134   2.991 -0.0604 -0.4095 -0.0389
  391MOL0     C52696   6.323   6.137   2.959  0.0326 -0.6654  0.5501
  391MOL0     O52697   6.505   6.129   2.651  0.6988  0.0515  0.6817
  391MOL0     C52698   6.785   6.196   2.650  0.3601 -0.8991 -0.1576
  391MOL0     C52699   6.918   6.238   2.655 -1.0047  0.0130  0.4981
  391MOL0     N52700   7.297   6.600   3.083  0.1829 -0.2946 -0.6836
  391MOL0     N52701   7.361   6.632   3.191 -0.1934  0.8227  0.3677
  391MOL0     C52702   7.830   7.623   3.996 -0.7328  1.4497  1.2261
  391MOL0     C52703   7.814   7.749   4.057 -0.0631 -0.2286 -0.9820
  391MOL0     C52704   7.719   8.193   4.129  0.1986 -1.0210 -0.4100
  391MOL0     C52705   7.592   8.261   4.137 -0.0289 -0.1411  0.2227
  391MOL0     C52706   7.584   8.382   4.201 -0.5387  0.5630  0.3600
  391MOL0     C52707   7.688   8.436   4.278  0.6387  0.6447 -0.3812
  391MOL0     O52708   7.659   8.551   4.347  0.0470  0.3663  0.4248
  391MOL0     C52709   7.748   8.660   4.319  0.9231  0.3262  0.1959
  391MOL0     C52710   7.679   8.781   4.255  0.6558 -0.0110 -0.7374
  391MOL0     C52711   7.592   8.889   4.340  0.4986  0.1466  0.5186
  391MOL0     C52712   7.504   8.824   4.455 -0.6770 -0.5163  0.0151
  391MOL0     C52713   7.481   8.932   4.552  0.7307 -0.3772  0.9415
  391MOL0     C52714   7.450   9.017   4.635 -0.4377  0.0107 -0.0031
  391MOL0     C52715   7.808   8.368   4.274  0.4353 -0.6655 -0.6236
  391MOL0     C52716   7.830   8.251   4.202 -0.0930  0.5299  0.2958
  391MOL0     C52717   7.970   8.195   4.200 -0.2968 -0.4859  0.4892
  391MOL0     H52718   7.888   7.956   3.803 -2.1988  0.2819 -1.2477
  391MOL0     H52719   7.894   7.751   3.679  0.1324 -1.2242 -0.1896
  391MOL0     H52720   7.674   7.498   3.748 -1.6671 -0.4122 -4.5361
  391MOL0     H52721   7.764   7.541   3.613  1.4841 -0.0439  1.3700
  391MOL0     H52722   7.778   7.271   3.739 -0.0870 -0.6844 -0.0395
  391MOL0     H52723   7.868   7.317   3.603 -0.1324 -3.1551  2.3515
  391MOL0     H52724   7.634   7.371   3.500 -2.0075  2.9818  2.9546
  391MOL0     H52725   7.569   7.270   3.641  0.0166  3.7938  0.6961
  391MOL0     H52726   7.770   7.190   3.431  0.7645 -0.8810  0.7821
  391MOL0     H52727   7.727   7.088   3.562  1.4704  1.7830  1.4858
  391MOL0     H52728   7.472   7.105   3.478 -0.8268 -0.7089 -0.6208
  391MOL0     H52729   7.536   7.166   3.326  1.8941 -0.9304 -0.3222
  391MOL0     H52730   7.699   6.985   3.319  0.5289 -2.7613  1.7748
  391MOL0     H52731   7.621   6.897   3.442 -2.1962 -0.3525 -0.2865
  391MOL0     H52732   7.478   6.981   3.184  2.0676 -0.9914 -1.0098
  391MOL0     H52733   7.407   6.902   3.332  0.1212 -0.6932 -0.2023
  391MOL0     H52734   7.661   6.797   3.198 -0.1966  1.4445 -0.3785
  391MOL0     H52735   7.561   6.713   3.312 -0.5583  1.9043  1.8840
  391MOL0     H52736   7.534   6.757   2.939  0.1253  0.9436 -0.3975
  391MOL0     H52737   7.211   6.664   2.813  1.3886  2.0180 -1.0004
  391MOL0     H52738   7.380   6.636   2.763  2.5349 -0.1337  1.9881
  391MOL0     H52739   7.396   6.419   2.804  0.3355  1.3346 -0.8270
  391MOL0     H52740   7.236   6.405   2.888 -0.9251  1.1893 -0.6938
  391MOL0     H52741   7.269   6.484   2.601 -0.4329  2.9425  0.5005
  391MOL0     H52742   7.117   6.467   2.695  0.5383  3.0849 -1.6657
  391MOL0     H52743   7.317   6.233   2.672 -0.5923 -1.3834  1.4269
  391MOL0     H52744   7.172   6.264   2.559  0.6599 -0.9697 -0.9968
  391MOL0     H52745   7.006   6.091   2.937  0.1016  1.4259 -0.6832
  391MOL0     H52746   6.751   6.035   2.934  1.2229 -0.2507 -0.4946
  391MOL0     H52747   6.359   5.829   2.816  1.7713 -0.6738  2.0922
  391MOL0     H52748   6.112   5.822   2.886 -0.8717  0.7110 -1.8798
  391MOL0     H52749   5.919   6.194   3.070  0.6339 -2.3866  2.1056
  391MOL0     H52750   5.888   6.142   2.897  0.7831 -0.5126 -1.1132
  391MOL0     H52751   5.739   5.954   3.010 -0.0227  0.2983 -3.9630
  391MOL0     H52752   5.753   6.050   3.156  0.8485  1.1426 -0.5740
  391MOL0     H52753   5.654   6.237   3.057  0.8620 -0.9799  3.0394
  391MOL0     H52754   5.670   6.164   2.896  1.7516  1.8631  0.5799
  391MOL0     H52755   5.517   6.031   3.131 -1.8052 -0.9458 -0.4291
  391MOL0     H52756   5.496   5.989   2.964 -3.3481 -1.6327  0.1963
  391MOL0     H52757   5.381   6.260   3.057  1.7246 -0.2638 -1.2688
  391MOL0     H52758   5.294   6.095   3.040  1.1755 -2.5223  1.6342
  391MOL0     H52759   5.417   6.263   2.838 -0.8650 -0.7132 -1.5058
  391MOL0     H52760   5.364   6.089   2.818 -1.4703 -1.2208  0.9042
  391MOL0     H52761   5.163   6.290   2.910  0.9264  0.2014 -0.0598
  391MOL0     H52762   5.143   6.132   2.821 -1.0534  0.9898 -1.4805
  391MOL0     H52763   5.246   6.394   2.710  1.0901 -1.0206  1.1480
  391MOL0     H52764   5.219   6.240   2.621  0.3213 -2.2541  0.7810
  391MOL0     H52765   6.140   6.213   3.048  1.6248  0.5352  0.1373
  391MOL0     H52766   6.374   6.232   2.974 -1.6656  0.4777 -0.4834
  391MOL0     H52767   6.729   6.244   2.570 -0.2417  0.9778  1.2850
  391MOL0     H52768   6.957   6.314   2.587 -0.5488 -1.4506 -0.9281
  391MOL0     H52769   7.820   7.532   4.054 -1.0467  1.7723  1.6902
  391MOL0     H52770   7.792   7.759   4.163  1.1316  1.1503 -0.8405
  391MOL0     H52771   7.500   8.215   4.101 -0.4831  1.2357 -0.4409
  391MOL0     H52772   7.494   8.443   4.194  0.6963  2.3385 -1.3730
  391MOL0     H52773   7.836   8.632   4.262  1.7079  0.3992  1.3432
  391MOL0     H52774   7.777   8.695   4.418 -0.0081  1.5485  0.0682
  391MOL0     H52775   7.608   8.742   4.181 -0.4618 -1.0966  0.8437
  391MOL0     H52776   7.759   8.837   4.206 -0.5798  2.7527  0.2095
  391MOL0     H52777   7.531   8.955   4.278  0.3520  0.2054  0.7224
  391MOL0     H52778   7.675   8.944   4.387  0.2645  0.3578  0.6853
  391MOL0     H52779   7.410   8.785   4.416 -1.2268 -1.4321  2.1212
  391MOL0     H52780   7.565   8.745   4.502  1.8056  0.7634 -0.8775
  391MOL0     H52781   7.436   9.102   4.698  3.2383 -0.2397  1.3803
  391MOL0     H52782   7.887   8.413   4.334 -0.8247  1.9090 -0.7515
  391MOL0     H52783   8.047   8.268   4.230 -0.9596  0.6355 -0.4614
  391MOL0     H52784   7.974   8.119   4.279  1.9358  2.4374  3.4945
  391MOL0     H52785   7.993   8.160   4.099  0.4811  0.7665  0.2118
  392MOL0     O52786   0.249   8.945  11.376  0.5476 -0.8217  0.9307
  392MOL0     C52787   0.223   8.847  11.444  1.8072 -0.5625 -0.0908
  392MOL0     O52788   0.310   8.782  11.522 -0.7728 -0.5344 -0.4078
  392MOL0     C52789   0.443   8.808  11.504 -0.4099 -0.4792  0.1261
  392MOL0     C52790   0.495   8.773  11.384 -0.2663  0.1874  0.0471
  392MOL0     C52791   0.634   8.782  11.360  0.2145  0.7970 -0.2974
  392MOL0     C52792   0.717   8.851  11.450 -0.4889 -0.1377  0.5049
  392MOL0     O52793   0.850   8.875  11.428  0.0145  0.3464  0.1393
  392MOL0     C52794   0.913   8.882  11.302  0.2141  0.3558  0.0145
  392MOL0     C52795   1.037   8.970  11.314  0.9075 -0.3571 -0.8690
  392MOL0     C52796   0.999   9.108  11.384 -0.6874  0.1933  0.9133
  392MOL0     C52797   1.118   9.189  11.397  0.7065 -0.0937  0.4715
  392MOL0     C52798   1.067   9.333  11.431  0.0905 -0.2464 -0.4656
  392MOL0     C52799   1.178   9.420  11.482  0.4246  0.2670  0.9239
  392MOL0     C52800   1.130   9.559  11.516 -0.3611 -0.6887 -0.9501
  392MOL0     C52801   1.232   9.618  11.598 -0.1968  0.2734  0.2853
  392MOL0     N52802   1.192   9.748  11.655 -0.5525 -0.1575 -0.2366
  392MOL0     C52803   1.133   9.856  11.591  0.5639 -0.5058 -0.0679
  392MOL0     C52804   1.092   9.939  11.697 -1.0161  0.0822  0.2081
  392MOL0     C52805   1.044  10.080  11.683  0.3385  0.1116 -0.8508
  392MOL0     C52806   0.942  10.087  11.566 -0.1913  1.1234  0.0570
  392MOL0     C52807   0.916  10.237  11.538 -0.3137  0.3969  0.1595
  392MOL0     C52808   0.784  10.295  11.590  1.1874  0.6410 -0.5822
  392MOL0     O52809   0.677  10.199  11.565  0.5456 -0.1661  0.2600
  392MOL0     C52810   0.549  10.214  11.615  0.4152 -0.2204  0.3567
  392MOL0     C52811   0.458  10.115  11.572 -0.8322  0.2727 -0.0068
  392MOL0     C52812   0.326  10.113  11.626  0.2054  0.4878 -0.0333
  392MOL0     C52813   0.283  10.205  11.716  0.6377  0.1620  0.1228
  392MOL0     C52814   0.148  10.206  11.783  0.3887 -0.2536 -0.5341
  392MOL0     O52815   0.044  10.151  11.701 -0.3573 -0.0552 -1.1670
  392MOL0     C52816  -0.085  10.142  11.739 -0.1073  0.2096 -0.1697
  392MOL0     C52817  -0.167  10.140  11.635 -0.2319 -1.1847  0.5418
  392MOL0     C52818  -0.305  10.151  11.644 -0.2148 -0.1860  0.1381
  392MOL0     C52819  -0.357  10.172  11.767 -0.5592  0.3514  0.3916
  392MOL0     O52820  -0.491  10.195  11.771 -0.9402 -0.0611 -0.2032
  392MOL0     C52821  -0.565  10.263  11.665 -0.5998  0.4005 -0.4352
  392MOL0     C52822  -0.583  10.412  11.706  0.7369  0.2730  0.0722
  392MOL0     C52823  -0.684  10.474  11.601 -0.2269 -0.0717 -0.3015
  392MOL0     C52824  -0.761  10.592  11.657  0.5358 -0.1666  0.6494
  392MOL0     C52825  -0.862  10.636  11.550  0.2254 -1.6393  0.1121
  392MOL0     C52826  -0.805  10.709  11.425 -0.8767  0.7702 -0.2365
  392MOL0     C52827  -0.824  10.621  11.302  0.4706 -0.7805 -0.9686
  392MOL0     C52828  -0.720  10.640  11.193  0.3977 -0.6279 -0.3644
  392MOL0    Cl52829  -0.743  10.517  11.071  0.3254 -0.1770  0.6267
  392MOL0     C52830  -0.272  10.182  11.880  0.4215  0.2625  0.5092
  392MOL0     C52831  -0.137  10.159  11.870  0.3082 -0.1605  0.0435
  392MOL0     O52832   0.124  10.277  11.884  0.0818  0.4010  0.5955
  392MOL0     C52833   0.372  10.312  11.743 -0.0913 -0.7206 -0.8442
  392MOL0     C52834   0.505  10.313  11.685 -0.5105  0.0483 -0.5148
  392MOL0     N52835   1.142   9.884  11.815  0.0603  0.4897 -0.2010
  392MOL0     N52836   1.200   9.773  11.786  0.3999  0.1233  0.9599
  392MOL0     C52837   0.663   8.893  11.575  0.6502 -0.0680  0.5565
  392MOL0     C52838   0.525   8.871  11.599 -0.0490  0.0049 -0.0832
  392MOL0     C52839   0.081   8.794  11.440  0.0844  0.1773 -0.2976
  392MOL0     C52840  -0.008   8.893  11.398  0.3145  0.4612  0.4068
  392MOL0     C52841  -0.144   8.868  11.397 -0.2301 -0.4490  0.9020
  392MOL0     C52842  -0.187   8.725  11.416 -0.5334 -0.0773 -0.0269
  392MOL0     O52843  -0.322   8.687  11.410 -0.6268  0.3951  0.2645
  392MOL0     C52844  -0.423   8.785  11.385  1.0607  0.4839  0.0310
  392MOL0     C52845  -0.566   8.715  11.383 -0.6459  0.1757  0.3110
  392MOL0     C52846  -0.666   8.791  11.295  0.0066  0.1030 -1.5271
  392MOL0     C52847  -0.774   8.849  11.383  0.4830 -0.5418  0.4284
  392MOL0     C52848  -0.873   8.742  11.421 -0.3018  0.0619  1.3877
  392MOL0     C52849  -0.953   8.654  11.425 -0.2383 -0.9339  0.6416
  392MOL0     C52850  -0.087   8.635  11.459  0.1395 -0.2567 -0.1433
  392MOL0     C52851   0.047   8.660  11.467  0.2240 -0.4573  0.7018
  392MOL0     C52852   0.146   8.549  11.488 -1.0799  1.1135 -0.1323
  392MOL0     H52853   0.425   8.734  11.311  0.2558  1.1275 -0.9929
  392MOL0     H52854   0.677   8.752  11.265  1.6455 -0.8360  0.7975
  392MOL0     H52855   0.957   8.790  11.263  0.5890  1.6008 -2.7695
  392MOL0     H52856   0.841   8.922  11.229  2.5902  1.5924 -1.7970
  392MOL0     H52857   1.075   8.983  11.212 -1.6294  2.1584 -1.6178
  392MOL0     H52858   1.118   8.932  11.378 -0.1266 -0.2536  0.5464
  392MOL0     H52859   0.966   9.085  11.485 -2.1904 -0.1983  0.3517
  392MOL0     H52860   0.927   9.168  11.327 -2.1396  0.9474  3.3863
  392MOL0     H52861   1.166   9.148  11.486 -0.3361 -1.1399  0.5652
  392MOL0     H52862   1.177   9.173  11.306 -1.1919 -2.4784 -0.4330
  392MOL0     H52863   1.026   9.381  11.342 -2.5384 -1.2706  0.1133
  392MOL0     H52864   0.985   9.325  11.503 -0.5856 -0.4610 -1.2523
  392MOL0     H52865   1.232   9.371  11.564  2.3578 -2.8800 -1.9799
  392MOL0     H52866   1.248   9.425  11.398  0.8624  1.5367  1.3298
  392MOL0     H52867   1.044   9.566  11.582  0.9519 -0.2249  0.7998
  392MOL0     H52868   1.113   9.623  11.429  1.8120  2.9234  1.0000
  392MOL0     H52869   1.247   9.545  11.679 -1.2590 -1.1328 -0.7283
  392MOL0     H52870   1.319   9.625  11.533 -1.5004  1.5937 -1.4193
  392MOL0     H52871   1.135   9.879  11.485  2.8547 -3.3940 -0.7812
  392MOL0     H52872   0.993  10.104  11.777 -0.4208 -0.2393 -1.1732
  392MOL0     H52873   1.125  10.150  11.658  1.0388 -0.7419 -0.9977
  392MOL0     H52874   0.993  10.039  11.481  0.7095  0.0415  1.1667
  392MOL0     H52875   0.853  10.028  11.589 -1.0938  1.2359 -2.8002
  392MOL0     H52876   0.913  10.247  11.429  0.8245  4.5694  0.3571
  392MOL0     H52877   1.001  10.299  11.569  1.5671 -1.7655 -0.4295
  392MOL0     H52878   0.753  10.396  11.563 -0.7265  0.2434 -0.0598
  392MOL0     H52879   0.793  10.292  11.699  1.3666 -0.6519 -0.6089
  392MOL0     H52880   0.494  10.037  11.506 -4.7510 -1.0232 -0.8940
  392MOL0     H52881   0.251  10.034  11.619 -2.1099  2.0342  3.9589
  392MOL0     H52882  -0.134  10.145  11.531 -3.2705 -2.2848 -0.5908
  392MOL0     H52883  -0.362  10.126  11.555  2.7898 -1.8059 -1.4973
  392MOL0     H52884  -0.507  10.273  11.573 -1.3664  1.4105 -0.8223
  392MOL0     H52885  -0.656  10.211  11.635 -1.3307  2.6375 -2.3743
  392MOL0     H52886  -0.636  10.408  11.801  1.9643  0.9271  0.8061
  392MOL0     H52887  -0.481  10.448  11.723  2.2546 -4.1696  1.7306
  392MOL0     H52888  -0.634  10.495  11.506 -0.4119 -0.0528 -0.3940
  392MOL0     H52889  -0.760  10.401  11.575  1.0459 -0.6609 -2.6849
  392MOL0     H52890  -0.682  10.664  11.680  0.6277 -0.4971  1.4228
  392MOL0     H52891  -0.811  10.572  11.753  0.9727 -0.4517  0.8169
  392MOL0     H52892  -0.935  10.700  11.601  0.3212 -0.7664 -0.8218
  392MOL0     H52893  -0.923  10.551  11.519 -1.0727 -0.5709 -0.3918
  392MOL0     H52894  -0.853  10.806  11.411  1.3864  1.8032 -1.3471
  392MOL0     H52895  -0.696  10.719  11.426 -0.2685 -3.2337 -2.3328
  392MOL0     H52896  -0.927  10.637  11.268  0.7333  0.3983 -1.2420
  392MOL0     H52897  -0.822  10.517  11.336 -1.5854  0.4568  3.8284
  392MOL0     H52898  -0.723  10.745  11.160  0.3499 -0.0156  1.4509
  392MOL0     H52899  -0.626  10.624  11.245  0.0773  1.3205  0.9199
  392MOL0     H52900  -0.321  10.190  11.977 -2.7439 -2.5285 -0.6457
  392MOL0     H52901  -0.070  10.139  11.953 -0.3370 -2.6090  0.0610
  392MOL0     H52902   0.336  10.383  11.815  1.3465 -0.2062 -0.5951
  392MOL0     H52903   0.580  10.385  11.716 -0.7124 -0.7631  2.0834
  392MOL0     H52904   0.723   8.942  11.652 -0.7363 -0.6734  2.0971
  392MOL0     H52905   0.479   8.902  11.692 -1.7162  1.1902 -1.2380
  392MOL0     H52906   0.020   8.994  11.370 -3.6047  1.1937 -1.6470
  392MOL0     H52907  -0.211   8.946  11.363 -0.3046 -0.2757  1.4345
  392MOL0     H52908  -0.401   8.830  11.288 -1.0520  0.6087 -0.4410
  392MOL0     H52909  -0.424   8.864  11.461 -0.2897  0.8191 -0.2944
  392MOL0     H52910  -0.603   8.702  11.485 -1.1372  1.2609  0.2876
  392MOL0     H52911  -0.546   8.610  11.358 -1.4594 -0.6683  2.8027
  392MOL0     H52912  -0.707   8.726  11.217  2.5909 -5.0615  0.9008
  392MOL0     H52913  -0.617   8.878  11.250  0.4606  0.9154  0.4249
  392MOL0     H52914  -0.733   8.889  11.476 -1.9130 -1.3202  1.9140
  392MOL0     H52915  -0.824   8.935  11.337 -0.0162 -1.5201 -0.9438
  392MOL0     H52916  -1.035   8.586  11.438 -2.1491  1.4963  2.2614
  392MOL0     H52917  -0.123   8.536  11.485 -0.9204 -0.7699 -3.1020
  392MOL0     H52918   0.108   8.453  11.454 -2.5624  1.5852  0.1250
  392MOL0     H52919   0.235   8.565  11.426 -2.2468 -0.8144 -2.4463
  392MOL0     H52920   0.167   8.544  11.595 -4.3728  0.8447  0.5997
  393MOL0     O52921   6.744   9.742   9.435 -0.6357  0.3240  0.0166
  393MOL0     C52922   6.806   9.758   9.332 -0.5809 -0.1917  0.9087
  393MOL0     O52923   6.941   9.729   9.306 -0.8180  0.3423  0.6167
  393MOL0     C52924   7.014   9.694   9.423  1.8711 -0.1351 -0.0227
  393MOL0     C52925   7.057   9.559   9.458 -0.1345 -0.8482 -0.8833
  393MOL0     C52926   7.125   9.535   9.574 -0.0003 -0.0736 -0.3365
  393MOL0     C52927   7.165   9.643   9.659  1.1537 -0.1334 -0.1113
  393MOL0     O52928   7.214   9.603   9.780 -0.0694 -0.5559 -0.1939
  393MOL0     C52929   7.236   9.703   9.881  0.4994  0.2124  0.0972
  393MOL0     C52930   7.106   9.689   9.974  0.3518  0.3046  0.1385
  393MOL0     C52931   7.092   9.565  10.055  0.2850 -0.6604  0.1759
  393MOL0     C52932   7.089   9.591  10.193  0.5950  0.2585 -0.6400
  393MOL0     C52933   7.223   9.642  10.266  0.0742 -0.2580 -0.5190
  393MOL0     C52934   7.326   9.531  10.273 -0.1256 -0.3824 -0.0694
  393MOL0     C52935   7.441   9.579  10.364 -0.3833  0.0160 -0.1374
  393MOL0     C52936   7.537   9.465  10.410  0.4354  1.0222  0.1623
  393MOL0     N52937   7.661   9.511  10.468  1.4764 -0.9716 -0.4039
  393MOL0     C52938   7.663   9.602  10.584  0.8218  0.2535  0.6390
  393MOL0     C52939   7.793   9.626  10.610  0.1700  0.2662  0.3400
  393MOL0     C52940   7.838   9.703  10.725  0.1075  0.2905 -0.1351
  393MOL0     C52941   7.755   9.829  10.761  0.6895  0.3531 -0.2754
  393MOL0     C52942   7.774   9.883  10.900 -0.5870  0.5164 -0.8676
  393MOL0     C52943   7.910   9.932  10.944  0.1624 -1.2401 -0.7501
  393MOL0     O52944   7.945  10.043  10.852  0.3204  0.2490 -0.1077
  393MOL0     C52945   7.848  10.144  10.839  0.9538 -0.0909 -0.6948
  393MOL0     C52946   7.764  10.162  10.729  0.0495 -1.0082  0.0466
  393MOL0     C52947   7.660  10.249  10.730  0.7048  0.7304  1.0609
  393MOL0     C52948   7.634  10.334  10.844 -0.1418 -0.1988  0.6098
  393MOL0     C52949   7.530  10.437  10.845  0.9573  0.3364  0.8813
  393MOL0     O52950   7.521  10.514  10.959  0.5454 -0.2236 -0.2063
  393MOL0     C52951   7.430  10.609  10.999  1.1991  0.7167 -0.6216
  393MOL0     C52952   7.402  10.621  11.142  0.2568 -0.5203 -0.6461
  393MOL0     C52953   7.321  10.726  11.194  0.4393  0.6935 -0.4435
  393MOL0     C52954   7.255  10.816  11.110  0.6379 -0.2075 -0.3787
  393MOL0     O52955   7.171  10.911  11.160 -0.8251 -0.1119  0.6612
  393MOL0     C52956   7.089  11.001  11.076 -0.3459 -0.8213 -0.1766
  393MOL0     C52957   7.032  11.095  11.178  0.1323 -0.1313  0.7884
  393MOL0     C52958   6.994  11.230  11.110 -0.9599 -0.3672  0.9597
  393MOL0     C52959   6.851  11.247  11.057 -0.1141  0.1132  0.1666
  393MOL0     C52960   6.790  11.386  11.035 -0.3984 -0.2786  0.3386
  393MOL0     C52961   6.642  11.369  10.994  0.5608 -0.1343  1.5687
  393MOL0     C52962   6.579  11.508  10.995 -0.4858 -0.4261  1.0702
  393MOL0     C52963   6.423  11.506  11.010  0.1172  0.8689 -0.5272
  393MOL0    Cl52964   6.357  11.448  10.852  0.0014  0.3779 -0.0660
  393MOL0     C52965   7.275  10.800  10.969  1.0129  1.0956 -0.3754
  393MOL0     C52966   7.364  10.704  10.917  0.1694 -0.6483 -0.5172
  393MOL0     O52967   7.443  10.432  10.756  0.4588 -0.2644  0.0444
  393MOL0     C52968   7.725  10.329  10.953 -0.9247  0.4331  0.6424
  393MOL0     C52969   7.823  10.229  10.951  1.7830 -0.4282  0.6550
  393MOL0     N52970   7.865   9.566  10.518 -0.8085 -0.0761  0.7366
  393MOL0     N52971   7.787   9.498  10.431  0.9438  0.5964  0.4222
  393MOL0     C52972   7.130   9.776   9.616  0.7870  0.2816  0.5856
  393MOL0     C52973   7.055   9.800   9.498 -0.3941 -0.0804 -0.6902
  393MOL0     C52974   6.731   9.812   9.215 -0.1090 -0.6121  0.3190
  393MOL0     C52975   6.586   9.814   9.226 -0.0966  0.3871 -0.3758
  393MOL0     C52976   6.506   9.884   9.140 -0.1955 -0.4533  0.1438
  393MOL0     C52977   6.565   9.941   9.025  0.4422  0.5437  0.2817
  393MOL0     O52978   6.472   9.978   8.928 -0.1410 -0.2802 -0.4190
  393MOL0     C52979   6.509  10.042   8.800 -0.1579  0.4008  0.9527
  393MOL0     C52980   6.382  10.106   8.731 -0.4125  0.3306 -0.0844
  393MOL0     C52981   6.265  10.006   8.734  0.4388 -0.4614 -0.4657
  393MOL0     C52982   6.143  10.063   8.655 -0.7557  0.4915  0.2396
  393MOL0     C52983   6.061  10.159   8.725  0.7463  0.0357  0.3425
  393MOL0     C52984   5.980  10.237   8.778  0.1079 -0.6455  0.4393
  393MOL0     C52985   6.702   9.936   9.009  0.7603  0.4457  0.3775
  393MOL0     C52986   6.783   9.876   9.103 -0.3558 -0.2038 -0.0710
  393MOL0     C52987   6.927   9.869   9.073 -0.3876  0.4540 -0.1014
  393MOL0     H52988   7.011   9.487   9.392  0.1974 -2.1031  0.2039
  393MOL0     H52989   7.136   9.430   9.597  0.6505 -0.0185 -0.3614
  393MOL0     H52990   7.327   9.691   9.941 -0.3058 -0.3185  1.2473
  393MOL0     H52991   7.248   9.805   9.842 -2.8464  1.2455  1.4117
  393MOL0     H52992   7.027   9.677   9.900  0.5271 -1.8996  0.2428
  393MOL0     H52993   7.082   9.780  10.029  2.9189  0.8860  0.4346
  393MOL0     H52994   7.182   9.508  10.028  0.6001 -0.3749  0.6154
  393MOL0     H52995   6.995   9.518  10.035 -0.2411  0.6588 -0.4252
  393MOL0     H52996   7.003   9.656  10.212 -0.7493 -1.2984 -1.1466
  393MOL0     H52997   7.077   9.498  10.249  0.4850  0.7229  0.1301
  393MOL0     H52998   7.262   9.723  10.205  3.0831 -2.0034 -1.1181
  393MOL0     H52999   7.203   9.692  10.361  1.8571 -0.2852 -0.1089
  393MOL0     H53000   7.282   9.436  10.306 -0.6774 -0.3065 -0.5605
  393MOL0     H53001   7.371   9.495  10.180 -1.5585 -2.6490  0.0516
  393MOL0     H53002   7.374   9.612  10.444 -1.0117  1.7240 -1.2908
  393MOL0     H53003   7.504   9.662  10.330 -0.1072  1.7339  4.0004
  393MOL0     H53004   7.499   9.390  10.479  3.4115 -0.6076  0.1659
  393MOL0     H53005   7.568   9.398  10.330  0.7503 -1.6099  2.3630
  393MOL0     H53006   7.574   9.641  10.633 -0.5391 -2.0058  0.1364
  393MOL0     H53007   7.850   9.634  10.809 -0.0934  0.3013 -0.0974
  393MOL0     H53008   7.938   9.743  10.709  0.1394  0.3188  0.1218
  393MOL0     H53009   7.782   9.911  10.694  1.1576 -0.6842 -1.3964
  393MOL0     H53010   7.648   9.804  10.759  0.4796  1.1789  0.3392
  393MOL0     H53011   7.759   9.809  10.979  0.9161  1.6729  0.5748
  393MOL0     H53012   7.687   9.947  10.917 -2.3560 -1.6226 -1.3832
  393MOL0     H53013   7.977   9.847  10.927  2.7966  0.7444 -0.9670
  393MOL0     H53014   7.910   9.963  11.049  1.2544 -0.6832 -0.9006
  393MOL0     H53015   7.782  10.099  10.642  2.9022 -3.1586  2.0217
  393MOL0     H53016   7.585  10.264  10.652 -0.3718 -1.1861  1.6545
  393MOL0     H53017   7.440  10.541  11.204  0.0076  1.3591  2.1133
  393MOL0     H53018   7.306  10.728  11.301 -0.5401  0.4071 -0.5642
  393MOL0     H53019   7.133  11.038  10.983 -0.9510  1.7835  0.4941
  393MOL0     H53020   7.004  10.940  11.043 -0.3679 -0.0079 -1.6920
  393MOL0     H53021   6.942  11.055  11.225  1.3880 -2.1276  1.6434
  393MOL0     H53022   7.111  11.101  11.254 -1.5080 -3.1282  2.9788
  393MOL0     H53023   7.011  11.311  11.181  2.3649  0.7747 -0.9195
  393MOL0     H53024   7.059  11.250  11.024 -1.5808 -0.3351  0.4909
  393MOL0     H53025   6.787  11.196  11.130  2.0108 -1.8012  0.7916
  393MOL0     H53026   6.837  11.197  10.960 -1.5864  0.3987  0.1976
  393MOL0     H53027   6.837  11.443  10.956 -2.1780 -0.0889 -0.6379
  393MOL0     H53028   6.802  11.447  11.125  0.5098  2.0192 -1.2480
  393MOL0     H53029   6.615  11.315  10.903  4.2724 -0.1853  0.3211
  393MOL0     H53030   6.605  11.307  11.076  1.1140 -0.7006  1.3883
  393MOL0     H53031   6.603  11.563  10.903 -2.1056  3.4836  2.7707
  393MOL0     H53032   6.623  11.566  11.077  0.2796  0.5069  0.0369
  393MOL0     H53033   6.403  11.433  11.089  0.3727 -0.0115 -1.2623
  393MOL0     H53034   6.386  11.607  11.032  0.9959  0.8361  1.3094
  393MOL0     H53035   7.229  10.865  10.895 -0.2844 -1.8675 -2.3830
  393MOL0     H53036   7.370  10.696  10.809 -2.3178  1.0368 -0.8578
  393MOL0     H53037   7.708  10.401  11.033 -1.3967  1.8776 -0.7095
  393MOL0     H53038   7.872  10.222  11.047 -1.4283 -2.0238  2.3288
  393MOL0     H53039   7.154   9.857   9.684 -0.1349  0.4061  0.7756
  393MOL0     H53040   7.029   9.900   9.466  0.2824  0.1152 -0.6627
  393MOL0     H53041   6.536   9.752   9.300 -0.0466  0.5431 -0.2105
  393MOL0     H53042   6.398   9.895   9.135 -0.1261  1.6043  1.7292
  393MOL0     H53043   6.551   9.966   8.734  2.2383  2.6150 -0.2675
  393MOL0     H53044   6.589  10.117   8.804 -0.5976  1.2377 -2.6888
  393MOL0     H53045   6.406  10.126   8.627 -1.6268 -2.7740 -1.0649
  393MOL0     H53046   6.356  10.201   8.780 -1.5912 -0.8455  1.7007
  393MOL0     H53047   6.237   9.996   8.840 -0.3988 -0.1085 -0.6475
  393MOL0     H53048   6.296   9.904   8.709  1.4480 -0.9906  2.5331
  393MOL0     H53049   6.181  10.107   8.563 -2.1787  4.0926  1.2022
  393MOL0     H53050   6.083   9.974   8.636  1.4412 -1.3986  1.6090
  393MOL0     H53051   5.917  10.310   8.824  2.8888  1.4660  1.1329
  393MOL0     H53052   6.753   9.990   8.929  2.7958 -1.2348  0.4630
  393MOL0     H53053   6.953   9.913   8.976 -0.3554 -1.2751 -0.9182
  393MOL0     H53054   6.981   9.915   9.156 -1.2340 -0.6516  1.0996
  393MOL0     H53055   6.952   9.763   9.060  0.4256  0.4031  1.6980
  394MOL0     O53056   9.100   0.855  11.272  0.6450  0.2143 -0.8104
  394MOL0     C53057   9.185   0.840  11.185 -0.2733 -0.4822  0.0867
  394MOL0     O53058   9.256   0.938  11.128  0.0338  0.1399  0.5235
  394MOL0     C53059   9.242   1.071  11.131 -0.1250 -0.5378 -0.3843
  394MOL0     C53060   9.128   1.127  11.075  0.8262 -0.1930  0.3012
  394MOL0     C53061   9.103   1.257  11.094  0.5140 -0.0200 -1.3045
  394MOL0     C53062   9.197   1.341  11.151 -0.4972  0.0110  1.5180
  394MOL0     O53063   9.185   1.475  11.167 -0.5656 -0.3833 -0.4965
  394MOL0     C53064   9.201   1.541  11.040 -0.1901  0.3529 -0.9129
  394MOL0     C53065   9.156   1.685  11.043 -0.1457 -0.4926 -1.3533
  394MOL0     C53066   9.210   1.764  10.921 -0.1976  0.4549  0.1321
  394MOL0     C53067   9.123   1.890  10.901 -0.5084 -0.4089  0.0480
  394MOL0     C53068   9.169   1.940  10.769 -0.1750 -0.1678  1.0593
  394MOL0     C53069   9.076   2.055  10.725  0.5993 -0.0925  0.2525
  394MOL0     C53070   9.127   2.107  10.581 -0.3763  1.0889  0.8605
  394MOL0     C53071   9.088   2.017  10.471 -0.1730 -0.1879  1.0690
  394MOL0     N53072   9.146   2.052  10.341  0.0784  0.5734 -0.4479
  394MOL0     C53073   9.265   2.015  10.293  0.0619  0.1343 -0.8055
  394MOL0     C53074   9.262   2.075  10.173 -0.5046  0.4019  0.0300
  394MOL0     C53075   9.384   2.069  10.074  0.7601 -0.5570 -0.1718
  394MOL0     C53076   9.523   2.129  10.120  0.3183 -0.8105 -0.6911
  394MOL0     C53077   9.630   2.105  10.011  0.2493  0.0278  0.8272
  394MOL0     C53078   9.763   2.156  10.057  0.7115  1.2742 -0.4585
  394MOL0     O53079   9.803   2.126  10.189  0.5944 -0.0491 -0.1662
  394MOL0     C53080   9.817   1.995  10.235  0.5442 -0.5266 -0.2258
  394MOL0     C53081   9.873   1.894  10.150 -0.5059  0.1382  0.1595
  394MOL0     C53082   9.901   1.766  10.203 -0.4363  0.5862 -0.2705
  394MOL0     C53083   9.886   1.740  10.344  0.2217 -0.4785 -0.1425
  394MOL0     C53084   9.912   1.607  10.408 -0.0293  0.4806  0.5433
  394MOL0     O53085   9.862   1.575  10.521 -0.3194 -0.2040  0.1859
  394MOL0     C53086   9.916   1.476  10.601 -0.3302  0.0401  0.5498
  394MOL0     C53087   9.836   1.380  10.660  0.1353  0.1558 -0.1462
  394MOL0     C53088   9.903   1.287  10.742 -0.0521 -0.3419 -0.1358
  394MOL0     C53089  10.046   1.283  10.760 -0.1047 -0.2809  0.3876
  394MOL0     O53090  10.113   1.198  10.845  0.3455  0.6688  0.3624
  394MOL0     C53091  10.039   1.153  10.956 -1.4673  0.0560  0.5178
  394MOL0     C53092  10.139   1.151  11.072  0.0362  1.3382 -0.0744
  394MOL0     C53093  10.241   1.270  11.083  0.0912 -0.0242  1.3470
  394MOL0     C53094  10.323   1.254  11.204 -0.1124 -0.2655  0.2002
  394MOL0     C53095  10.441   1.354  11.212 -0.9128 -0.5388  0.4873
  394MOL0     C53096  10.512   1.326  11.343  0.4379  0.0852  0.4197
  394MOL0     C53097  10.630   1.423  11.351 -0.0754 -0.6552  0.2069
  394MOL0     C53098  10.731   1.402  11.236 -0.0144 -0.1903 -0.3388
  394MOL0    Cl53099  10.797   1.233  11.221 -0.0523  0.5336  0.1058
  394MOL0     C53100  10.117   1.384  10.697  0.2513  0.0694 -0.5182
  394MOL0     C53101  10.056   1.477  10.615 -0.1302  0.2595 -0.3617
  394MOL0     O53102   9.989   1.534  10.344 -0.1988 -0.1172  0.6243
  394MOL0     C53103   9.837   1.848  10.424  0.3193 -0.1247  0.2926
  394MOL0     C53104   9.809   1.973  10.377  0.5702 -0.0305  0.0678
  394MOL0     N53105   9.149   2.151  10.157  0.8110  0.1341 -0.6271
  394MOL0     N53106   9.073   2.130  10.259  0.2817 -0.6273  0.1280
  394MOL0     C53107   9.309   1.282  11.212 -0.2201 -0.4438 -0.6560
  394MOL0     C53108   9.330   1.151  11.206  0.1041  0.4100 -0.0311
  394MOL0     C53109   9.206   0.711  11.117 -0.6051 -0.1238  0.9789
  394MOL0     C53110   9.090   0.639  11.074  0.8129 -0.2628  0.3954
  394MOL0     C53111   9.107   0.520  10.999 -0.0466  0.5052 -0.0062
  394MOL0     C53112   9.235   0.463  10.978 -0.3422  0.2958 -0.4962
  394MOL0     O53113   9.264   0.360  10.887  0.5711 -0.1605  0.3255
  394MOL0     C53114   9.181   0.242  10.918  0.5428  0.0193 -0.2588
  394MOL0     C53115   9.261   0.120  10.963  0.2484  0.0351 -0.7090
  394MOL0     C53116   9.329   0.137  11.105 -0.0552 -0.0283  0.1301
  394MOL0     C53117   9.389   0.003  11.163  0.2379 -0.2949 -0.4471
  394MOL0     C53118   9.394   0.003  11.310 -0.6837 -0.5335 -0.1255
  394MOL0     C53119   9.398   0.033  11.427  0.4776  1.0531  0.4303
  394MOL0     C53120   9.346   0.528  11.037  0.0689 -0.3036  0.6756
  394MOL0     C53121   9.340   0.649  11.111  1.0393  1.0387  0.2215
  394MOL0     C53122   9.459   0.710  11.189  0.1619  0.2779 -0.2400
  394MOL0     H53123   9.065   1.061  11.016 -1.6484  3.1141 -1.0743
  394MOL0     H53124   9.014   1.295  11.045  0.2606  1.1020 -0.0222
  394MOL0     H53125   9.309   1.549  11.025  0.3499 -0.6152  1.8524
  394MOL0     H53126   9.155   1.482  10.959 -1.9879 -2.0642  1.6587
  394MOL0     H53127   9.195   1.744  11.126 -1.5019 -0.7391 -0.5259
  394MOL0     H53128   9.047   1.687  11.051 -0.0716  3.0701  1.3985
  394MOL0     H53129   9.216   1.697  10.835  1.2497  0.1795  0.4274
  394MOL0     H53130   9.312   1.803  10.928 -1.0882  3.2000 -0.6949
  394MOL0     H53131   9.018   1.859  10.904 -1.1248  1.5694  0.2961
  394MOL0     H53132   9.146   1.961  10.981 -2.6060  1.2144 -0.7011
  394MOL0     H53133   9.276   1.963  10.770  0.0933 -1.2516  0.0168
  394MOL0     H53134   9.163   1.856  10.698  0.4033 -0.4994  1.3961
  394MOL0     H53135   8.978   2.010  10.708  1.2341 -0.7771 -1.9240
  394MOL0     H53136   9.079   2.137  10.798 -0.4737  0.3181 -0.1445
  394MOL0     H53137   9.236   2.105  10.580 -0.0996 -0.0477 -5.0492
  394MOL0     H53138   9.090   2.208  10.562  2.4985  2.0558  0.0146
  394MOL0     H53139   9.106   1.911  10.489  1.1783  0.0963  1.5353
  394MOL0     H53140   8.981   2.026  10.452  0.0064  0.0552  0.1460
  394MOL0     H53141   9.336   1.945  10.335 -0.7375 -1.6465 -2.2631
  394MOL0     H53142   9.408   1.965  10.052  1.2293 -0.8107  1.4338
  394MOL0     H53143   9.364   2.115   9.977  0.6208  1.7594  0.8832
  394MOL0     H53144   9.514   2.236  10.142 -0.0204 -0.7959 -0.8900
  394MOL0     H53145   9.545   2.079  10.215  2.5656  2.3626  0.6146
  394MOL0     H53146   9.605   2.151   9.915  1.2265 -2.3288 -0.6601
  394MOL0     H53147   9.650   1.998   9.994  2.2695  0.5820 -0.5197
  394MOL0     H53148   9.754   2.264  10.049  0.8570  1.5458  2.1218
  394MOL0     H53149   9.841   2.121   9.988  2.3805  1.3165  1.3136
  394MOL0     H53150   9.891   1.907  10.044 -0.2274  1.4177  0.3470
  394MOL0     H53151   9.943   1.688  10.141  1.0044  0.6989  0.5065
  394MOL0     H53152   9.728   1.382  10.645 -0.3744 -2.0518  2.5157
  394MOL0     H53153   9.835   1.211  10.780  0.8636 -0.9281  0.3757
  394MOL0     H53154   9.959   1.218  10.993  1.7110  3.0200  2.8387
  394MOL0     H53155  10.012   1.052  10.924 -1.0413  0.2549 -0.4915
  394MOL0     H53156  10.075   1.153  11.161  3.6162  3.6141  2.7659
  394MOL0     H53157  10.197   1.059  11.084  1.3299  2.2685  1.1069
  394MOL0     H53158  10.305   1.271  10.994 -1.4586 -1.5185  0.1496
  394MOL0     H53159  10.174   1.357  11.082 -0.0839 -0.0730 -1.5927
  394MOL0     H53160  10.357   1.150  11.201 -1.2387 -0.6513  0.2929
  394MOL0     H53161  10.264   1.259  11.296  2.8479  0.6244  2.2365
  394MOL0     H53162  10.412   1.460  11.207 -1.3647 -0.5764  1.8117
  394MOL0     H53163  10.507   1.339  11.127  0.0090  1.3150  0.8287
  394MOL0     H53164  10.444   1.352  11.424 -2.6876 -1.8801 -1.3707
  394MOL0     H53165  10.544   1.223  11.359  1.9407  0.4178 -0.2607
  394MOL0     H53166  10.689   1.419  11.443 -0.7985  0.7787  0.7531
  394MOL0     H53167  10.597   1.527  11.356  0.6236 -0.4280  0.2055
  394MOL0     H53168  10.697   1.430  11.136  1.0420  0.1078 -0.6362
  394MOL0     H53169  10.812   1.470  11.266 -1.7787  2.2968 -0.8596
  394MOL0     H53170  10.221   1.389  10.726 -0.2016  0.9025  1.1001
  394MOL0     H53171  10.122   1.540  10.556  2.5283 -1.9319  0.0438
  394MOL0     H53172   9.818   1.831  10.530  3.1978  0.9664  1.0975
  394MOL0     H53173   9.778   2.045  10.452 -1.3122 -0.0574 -0.6309
  394MOL0     H53174   9.384   1.353  11.246  0.2108 -1.1108 -0.1841
  394MOL0     H53175   9.415   1.104  11.255  0.5421 -0.0805 -1.2239
  394MOL0     H53176   8.987   0.673  11.079  0.7253 -0.6865  2.1181
  394MOL0     H53177   9.020   0.468  10.961  0.8642 -1.9376  1.0434
  394MOL0     H53178   9.131   0.205  10.828  0.9774 -1.9589  0.2445
  394MOL0     H53179   9.102   0.270  10.988  0.3381  4.0299 -1.8416
  394MOL0     H53180   9.335   0.089  10.889  2.5072  1.6170  0.7664
  394MOL0     H53181   9.195   0.035  10.980 -0.2642  0.4559 -0.5656
  394MOL0     H53182   9.273   0.179  11.189  1.9488  2.3548  0.4010
  394MOL0     H53183   9.414   0.206  11.105  2.6539 -3.0131  2.2217
  394MOL0     H53184   9.315  -0.074  11.138 -0.7315  2.0501 -6.6386
  394MOL0     H53185   9.482  -0.031  11.117  0.3597 -1.3806  0.5666
  394MOL0     H53186   9.397   0.070  11.527  0.4184  1.9248  0.1240
  394MOL0     H53187   9.438   0.478  11.008 -1.2806 -1.3383 -2.2264
  394MOL0     H53188   9.553   0.654  11.179 -0.2470 -1.0148  2.3784
  394MOL0     H53189   9.472   0.813  11.154 -2.1753  0.6231 -0.2728
  394MOL0     H53190   9.447   0.717  11.297  2.7735 -4.1761  0.5743
  395MOL0     O53191   0.347   0.310   8.376  0.1062 -0.0119 -0.0376
  395MOL0     C53192   0.447   0.274   8.305 -0.0676  0.2860 -0.5187
  395MOL0     O53193   0.453   0.310   8.167  0.0498 -0.0690  0.1595
  395MOL0     C53194   0.337   0.347   8.111  0.1522 -0.1303 -0.4417
  395MOL0     C53195   0.299   0.481   8.096  0.6508  0.9505 -0.6172
  395MOL0     C53196   0.187   0.511   8.021  0.3610 -0.2965  0.2087
  395MOL0     C53197   0.099   0.419   7.967 -0.3324 -0.3470  0.0337
  395MOL0     O53198  -0.001   0.469   7.878 -0.5711  0.2634  0.5507
  395MOL0     C53199  -0.104   0.372   7.829  0.1707 -0.1860 -0.5397
  395MOL0     C53200  -0.226   0.443   7.762 -0.0771  0.4381  0.0082
  395MOL0     C53201  -0.170   0.483   7.622  0.7452 -0.5802  0.6193
  395MOL0     C53202  -0.238   0.608   7.559  0.7098 -0.7806 -0.2841
  395MOL0     C53203  -0.186   0.644   7.418 -0.9584 -0.0452 -0.0322
  395MOL0     C53204  -0.042   0.709   7.440 -0.6101  0.7223  0.2423
  395MOL0     C53205   0.064   0.601   7.399 -1.0336  0.6654  0.2090
  395MOL0     C53206   0.207   0.640   7.421  0.3851 -0.0493 -0.3995
  395MOL0     N53207   0.230   0.669   7.564 -0.2874 -0.1897 -0.4362
  395MOL0     C53208   0.276   0.793   7.621  0.3886  0.5986 -0.0117
  395MOL0     C53209   0.324   0.760   7.744  0.1105 -0.5905  0.9709
  395MOL0     C53210   0.409   0.846   7.828  0.2781  1.2000  0.1350
  395MOL0     C53211   0.341   0.970   7.897 -0.3095  0.3221 -0.0617
  395MOL0     C53212   0.434   1.050   7.986  0.6946 -0.1268 -0.5688
  395MOL0     C53213   0.509   0.956   8.075 -0.0366 -0.0517 -0.5671
  395MOL0     O53214   0.571   1.028   8.186 -0.1709 -0.2828  0.9357
  395MOL0     C53215   0.504   1.060   8.297 -0.2388 -0.0258 -0.2291
  395MOL0     C53216   0.547   1.164   8.384  1.0370 -0.1612  0.3939
  395MOL0     C53217   0.481   1.204   8.499 -0.3498 -0.5661 -0.3130
  395MOL0     C53218   0.370   1.135   8.535 -0.2788  0.6974 -0.2503
  395MOL0     C53219   0.291   1.174   8.651  0.1257 -0.1189  0.4916
  395MOL0     O53220   0.220   1.073   8.711 -0.4638 -0.6698 -0.4399
  395MOL0     C53221   0.135   1.087   8.822  0.5044 -0.0129  0.7523
  395MOL0     C53222   0.151   1.181   8.917 -0.1936  0.2727 -1.0262
  395MOL0     C53223   0.041   1.193   9.008 -0.6614  0.5604 -0.3704
  395MOL0     C53224  -0.068   1.104   9.013  0.6076 -0.1611 -0.1569
  395MOL0     O53225  -0.165   1.100   9.113  0.7880  0.1772 -0.6379
  395MOL0     C53226  -0.118   1.126   9.248 -0.0062 -0.2912  0.4097
  395MOL0     C53227  -0.221   1.073   9.342  1.0346 -0.0648 -0.5263
  395MOL0     C53228  -0.209   1.137   9.490  0.3202  1.0341  0.6461
  395MOL0     C53229  -0.323   1.096   9.576 -0.8061 -0.2398 -0.6814
  395MOL0     C53230  -0.333   0.942   9.625 -0.3958 -1.1541  1.2197
  395MOL0     C53231  -0.230   0.922   9.736 -0.4229 -0.4623  0.5990
  395MOL0     C53232  -0.230   0.773   9.779  0.1925 -1.0859 -0.3540
  395MOL0     C53233  -0.139   0.747   9.895 -0.2532 -0.5600  0.2170
  395MOL0    Cl53234   0.033   0.796   9.833 -0.3659 -0.1289  0.4567
  395MOL0     C53235  -0.078   1.012   8.916 -0.4330  0.9955  0.6864
  395MOL0     C53236   0.034   0.992   8.829 -0.4483 -0.0932  1.1351
  395MOL0     O53237   0.291   1.292   8.681 -0.1058  0.2607  0.1391
  395MOL0     C53238   0.332   1.019   8.459 -1.0066 -0.3631  0.0591
  395MOL0     C53239   0.396   0.981   8.343 -0.2367 -0.3429  0.1338
  395MOL0     N53240   0.306   0.626   7.766 -0.3322 -0.4085 -0.8841
  395MOL0     N53241   0.264   0.571   7.653 -0.2845  0.5070  0.0979
  395MOL0     C53242   0.124   0.287   7.998  0.1762 -0.8255 -0.0568
  395MOL0     C53243   0.249   0.248   8.065  0.0925  0.0404  0.0036
  395MOL0     C53244   0.563   0.198   8.362 -0.0053  0.0759  0.1650
  395MOL0     C53245   0.651   0.147   8.269 -0.3644 -1.1928  0.4773
  395MOL0     C53246   0.762   0.075   8.300  0.7896  0.5435 -0.0360
  395MOL0     C53247   0.793   0.045   8.432 -0.5521 -0.4514  0.0291
  395MOL0     O53248   0.915  -0.013   8.469  0.2988 -0.1420  0.1399
  395MOL0     C53249   1.008  -0.047   8.362 -0.0153 -0.9871 -0.4486
  395MOL0     C53250   1.141  -0.097   8.419 -0.1596 -0.0661  0.7292
  395MOL0     C53251   1.132  -0.236   8.499  0.8871  0.0962 -0.0009
  395MOL0     C53252   1.004  -0.315   8.519 -0.0767 -0.2035  0.1831
  395MOL0     C53253   1.017  -0.439   8.585 -0.3800  1.0267 -0.2497
  395MOL0     C53254   1.017  -0.547   8.645 -0.1918 -0.1759  0.5615
  395MOL0     C53255   0.708   0.089   8.534 -0.0100  0.0044  0.0983
  395MOL0     C53256   0.594   0.163   8.502  0.5173  0.3800 -0.1348
  395MOL0     C53257   0.502   0.206   8.602 -0.6782 -1.0091 -0.7581
  395MOL0     H53258   0.361   0.561   8.136 -0.5816  1.3496  0.5575
  395MOL0     H53259   0.171   0.614   7.989 -2.1732 -0.5347  0.5249
  395MOL0     H53260  -0.064   0.302   7.756  0.7206  3.1025 -3.6663
  395MOL0     H53261  -0.152   0.316   7.910  0.5209 -3.1721 -2.2885
  395MOL0     H53262  -0.241   0.532   7.824  1.6813  0.7383  0.0297
  395MOL0     H53263  -0.311   0.377   7.741  1.8863 -2.1258 -0.4321
  395MOL0     H53264  -0.194   0.405   7.549 -2.0369  1.2223 -0.5236
  395MOL0     H53265  -0.062   0.501   7.628  0.4516  2.2276 -0.9997
  395MOL0     H53266  -0.347   0.597   7.554  0.2838  2.1995  0.7296
  395MOL0     H53267  -0.230   0.694   7.626  1.8896 -2.5252  1.9470
  395MOL0     H53268  -0.179   0.553   7.358  1.2040  1.9714 -3.1817
  395MOL0     H53269  -0.248   0.717   7.365  1.1971 -0.9637 -4.3383
  395MOL0     H53270  -0.031   0.797   7.376  1.8269  0.9684  0.9268
  395MOL0     H53271  -0.020   0.745   7.541 -1.5253  2.3319 -0.0935
  395MOL0     H53272   0.045   0.574   7.295 -3.3370  1.0725  0.4566
  395MOL0     H53273   0.046   0.501   7.439  0.3448 -0.1784 -1.2172
  395MOL0     H53274   0.269   0.557   7.386 -0.7999 -3.0074  3.6900
  395MOL0     H53275   0.214   0.726   7.355  2.0930 -0.2084 -0.4881
  395MOL0     H53276   0.284   0.892   7.578 -1.6054  0.5112 -0.6849
  395MOL0     H53277   0.450   0.766   7.890  1.8237  1.5536 -0.3757
  395MOL0     H53278   0.483   0.895   7.763 -0.3377 -0.9365 -2.3276
  395MOL0     H53279   0.297   1.042   7.828  0.8617  1.9496  0.8281
  395MOL0     H53280   0.247   0.944   7.947 -3.9712  2.0574 -5.1768
  395MOL0     H53281   0.385   1.133   8.038  1.7555  1.8523 -2.5282
  395MOL0     H53282   0.509   1.093   7.919 -0.1185  0.0475 -1.3748
  395MOL0     H53283   0.604   0.915   8.037  1.5240 -0.6043  3.4591
  395MOL0     H53284   0.452   0.870   8.110  0.8595 -0.4379 -0.0073
  395MOL0     H53285   0.636   1.219   8.354  1.1461 -0.6766 -0.2497
  395MOL0     H53286   0.514   1.289   8.556 -1.7076 -1.0454  1.2468
  395MOL0     H53287   0.238   1.246   8.920 -0.2396  0.7269 -4.9127
  395MOL0     H53288   0.039   1.268   9.087  1.4561  0.9493 -0.6455
  395MOL0     H53289  -0.030   1.061   9.259 -1.0253 -1.9831 -0.9282
  395MOL0     H53290  -0.094   1.232   9.262  1.5505 -1.0174  5.0673
  395MOL0     H53291  -0.323   1.084   9.304  0.3280 -0.4072  1.1794
  395MOL0     H53292  -0.202   0.965   9.347  1.0451 -0.1554 -2.0504
  395MOL0     H53293  -0.111   1.110   9.529  1.6432  2.5809 -1.3882
  395MOL0     H53294  -0.210   1.246   9.477 -0.2572  0.8857 -0.6792
  395MOL0     H53295  -0.418   1.119   9.526 -2.1146 -0.4916  1.5919
  395MOL0     H53296  -0.325   1.164   9.661 -0.6288  1.5319 -2.0257
  395MOL0     H53297  -0.320   0.869   9.545  0.1200 -1.6527  1.7459
  395MOL0     H53298  -0.433   0.927   9.665 -0.5091 -1.4254  0.8386
  395MOL0     H53299  -0.132   0.951   9.698 -0.7632 -1.5334 -1.2422
  395MOL0     H53300  -0.256   0.992   9.815 -2.4352 -0.3245 -0.1294
  395MOL0     H53301  -0.195   0.705   9.701  4.2843 -0.9895  1.1783
  395MOL0     H53302  -0.332   0.740   9.802  0.1595 -2.5632 -2.3933
  395MOL0     H53303  -0.178   0.805   9.979 -2.2910  0.2114 -1.1975
  395MOL0     H53304  -0.143   0.642   9.926 -2.5287 -0.9093 -1.0677
  395MOL0     H53305  -0.169   0.956   8.901 -0.4283  1.5700 -1.9022
  395MOL0     H53306   0.033   0.910   8.757 -1.2150 -0.8821  2.0163
  395MOL0     H53307   0.249   0.954   8.486  1.6013 -3.6284  1.0093
  395MOL0     H53308   0.367   0.891   8.290  0.3511 -2.7324  3.5225
  395MOL0     H53309   0.067   0.205   7.954  1.9720 -1.5588 -1.1750
  395MOL0     H53310   0.279   0.145   8.082  0.7747  0.3689  0.8613
  395MOL0     H53311   0.634   0.163   8.162 -1.6223  0.6728  0.9025
  395MOL0     H53312   0.819   0.036   8.216  2.2499  0.8968  0.7555
  395MOL0     H53313   1.025   0.047   8.309  3.9798  0.1156  2.3720
  395MOL0     H53314   0.955  -0.118   8.297 -1.3314  0.6843 -1.2709
  395MOL0     H53315   1.188  -0.025   8.487 -1.0684  0.4897  0.7870
  395MOL0     H53316   1.202  -0.110   8.329 -1.5510 -4.0091  0.1497
  395MOL0     H53317   1.157  -0.211   8.602 -1.2989  4.1671 -0.2528
  395MOL0     H53318   1.203  -0.304   8.451 -0.4440  0.7197 -3.1358
  395MOL0     H53319   0.935  -0.240   8.559 -1.5920  0.1964 -2.9168
  395MOL0     H53320   0.965  -0.339   8.420 -0.1040  2.9595 -0.6735
  395MOL0     H53321   1.026  -0.641   8.694 -0.2358 -1.2309 -1.3617
  395MOL0     H53322   0.729   0.061   8.637 -0.9401  0.0498  0.3070
  395MOL0     H53323   0.506   0.315   8.609  2.5527 -1.0728 -0.3644
  395MOL0     H53324   0.406   0.156   8.580 -0.0396 -1.9742 -1.4572
  395MOL0     H53325   0.541   0.181   8.701  1.0688  0.3207 -1.0758
  396MOL0     O53326   3.420   6.004   0.390  1.0301 -0.9592  0.2281
  396MOL0     C53327   3.396   6.117   0.333 -0.0389 -0.0948 -0.4690
  396MOL0     O53328   3.293   6.151   0.251  0.9864  0.4081  0.1006
  396MOL0     C53329   3.263   6.063   0.148  0.3466 -0.7131  0.0506
  396MOL0     C53330   3.130   6.076   0.099 -0.5221 -0.9041  0.2305
  396MOL0     C53331   3.086   5.985   0.009 -0.7114 -0.5662 -0.5799
  396MOL0     C53332   3.165   5.884  -0.047  0.8492  0.1973  1.1624
  396MOL0     O53333   3.113   5.811  -0.147 -0.3993 -0.0075 -0.0481
  396MOL0     C53334   3.099   5.676  -0.105 -0.6178 -0.2711  0.7079
  396MOL0     C53335   3.012   5.606  -0.209 -0.0759  0.0840 -0.1492
  396MOL0     C53336   3.000   5.453  -0.179  0.2441 -0.4469 -0.6026
  396MOL0     C53337   2.926   5.363  -0.274  1.1958  0.0756 -1.0535
  396MOL0     C53338   2.782   5.406  -0.303 -0.0135  0.1792  0.1704
  396MOL0     C53339   2.692   5.425  -0.183  0.7615 -0.2711  0.3172
  396MOL0     C53340   2.690   5.290  -0.106 -0.3072 -0.2228  1.0821
  396MOL0     C53341   2.579   5.291  -0.011  0.1012 -0.1186 -0.5118
  396MOL0     N53342   2.569   5.163   0.064 -1.2576 -0.2515 -0.3287
  396MOL0     C53343   2.534   5.050  -0.000 -0.0276 -0.3086 -0.3399
  396MOL0     C53344   2.558   4.956   0.092 -0.2163  0.4528  0.2408
  396MOL0     C53345   2.530   4.807   0.076 -0.4556 -0.0499 -0.5918
  396MOL0     C53346   2.656   4.734   0.014  0.3889 -0.6083 -0.6572
  396MOL0     C53347   2.712   4.801  -0.120 -0.0492 -0.0282 -0.7214
  396MOL0     C53348   2.817   4.711  -0.185 -0.4463 -0.4940 -0.5644
  396MOL0     O53349   2.762   4.609  -0.270  0.1484 -0.1315 -0.2650
  396MOL0     C53350   2.837   4.500  -0.299  0.5276 -0.5813 -0.2486
  396MOL0     C53351   2.971   4.486  -0.253 -0.0979 -0.6030  0.6658
  396MOL0     C53352   3.036   4.367  -0.283 -0.6719 -0.6092  0.2206
  396MOL0     C53353   2.986   4.280  -0.381 -0.8151 -0.5843  0.2948
  396MOL0     C53354   3.063   4.160  -0.432  0.2451 -1.6983 -0.2292
  396MOL0     O53355   2.999   4.085  -0.523 -0.0119 -0.2714 -0.0444
  396MOL0     C53356   3.056   3.974  -0.581  0.2971 -0.0519 -0.0803
  396MOL0     C53357   2.960   3.880  -0.617  0.0792  0.7669 -0.0651
  396MOL0     C53358   3.006   3.748  -0.658 -0.4979 -0.0854  0.4319
  396MOL0     C53359   3.146   3.738  -0.680  0.3353 -0.5720  1.5227
  396MOL0     O53360   3.188   3.618  -0.735 -0.2150  0.0442  0.3634
  396MOL0     C53361   3.284   3.621  -0.836  0.7614  1.0765  0.3636
  396MOL0     C53362   3.282   3.487  -0.908 -0.3754 -0.4163  0.6830
  396MOL0     C53363   3.398   3.496  -1.014  0.0352 -0.1504  0.1385
  396MOL0     C53364   3.395   3.366  -1.096  0.0506  0.6616 -0.0585
  396MOL0     C53365   3.470   3.381  -1.225 -0.5161 -0.6716 -0.1631
  396MOL0     C53366   3.461   3.260  -1.305  0.6854 -0.5743 -0.0886
  396MOL0     C53367   3.519   3.285  -1.439 -0.3708  0.4070  0.3228
  396MOL0     C53368   3.675   3.280  -1.426  0.8029  0.5684 -0.5524
  396MOL0    Cl53369   3.735   3.113  -1.366 -0.1929  0.4401 -0.0494
  396MOL0     C53370   3.239   3.833  -0.650  0.7099 -0.0677 -0.3260
  396MOL0     C53371   3.193   3.946  -0.599  0.7333 -0.0963 -0.6490
  396MOL0     O53372   3.177   4.149  -0.395  0.0158 -0.9915  0.0209
  396MOL0     C53373   2.856   4.299  -0.430  0.0258 -0.5919  0.5933
  396MOL0     C53374   2.779   4.409  -0.388 -0.0041  1.2129 -0.1577
  396MOL0     N53375   2.605   5.015   0.212  0.1707 -0.3505  0.0283
  396MOL0     N53376   2.609   5.142   0.190  0.2103  1.1156 -0.3879
  396MOL0     C53377   3.300   5.873   0.002 -0.2367  0.3783  0.1022
  396MOL0     C53378   3.345   5.966   0.096 -0.3782  1.1248 -0.7475
  396MOL0     C53379   3.472   6.235   0.395  0.2984 -0.3020 -0.0340
  396MOL0     C53380   3.446   6.357   0.337  0.0649 -0.5497  0.1421
  396MOL0     C53381   3.518   6.473   0.380  0.6119  0.1036  0.1910
  396MOL0     C53382   3.614   6.468   0.480 -0.0743 -0.2717  0.0015
  396MOL0     O53383   3.692   6.572   0.501 -0.2712 -0.3848 -0.0560
  396MOL0     C53384   3.642   6.701   0.530 -0.2963 -0.0671 -0.4214
  396MOL0     C53385   3.708   6.744   0.658 -0.1176 -0.3829 -0.3107
  396MOL0     C53386   3.692   6.632   0.772 -0.2654 -0.0342 -0.0686
  396MOL0     C53387   3.736   6.686   0.908  0.6302  0.6593  0.5905
  396MOL0     C53388   3.722   6.601   1.025  0.4373 -0.3768 -0.4617
  396MOL0     C53389   3.712   6.520   1.113  0.4738 -0.1384 -0.4906
  396MOL0     C53390   3.634   6.344   0.545 -1.5861 -0.3311  0.3049
  396MOL0     C53391   3.567   6.228   0.496  0.5330  0.7044 -0.9289
  396MOL0     C53392   3.614   6.101   0.576  0.6158 -0.4745  0.1888
  396MOL0     H53393   3.060   6.150   0.135 -0.0654  0.2348 -1.1288
  396MOL0     H53394   2.983   5.993  -0.027 -2.1547 -2.0441  2.8118
  396MOL0     H53395   3.196   5.627  -0.097 -0.8046 -0.6667  0.5618
  396MOL0     H53396   3.047   5.676  -0.009 -1.1706  2.4467  0.5185
  396MOL0     H53397   3.051   5.618  -0.311  2.5550 -1.4952  0.5607
  396MOL0     H53398   2.914   5.653  -0.203  0.2026  0.4903  1.7253
  396MOL0     H53399   2.960   5.453  -0.077  0.0426  0.6279 -0.6735
  396MOL0     H53400   3.100   5.408  -0.172  0.6766  0.5310 -0.4476
  396MOL0     H53401   2.980   5.364  -0.369  0.3856  1.1870 -1.5266
  396MOL0     H53402   2.922   5.258  -0.244 -1.3180  0.7882  1.5478
  396MOL0     H53403   2.785   5.497  -0.364  3.8248  1.8941  2.5296
  396MOL0     H53404   2.744   5.320  -0.359 -0.6104  1.2774 -1.1829
  396MOL0     H53405   2.714   5.514  -0.123  0.1020 -0.2566  0.5471
  396MOL0     H53406   2.592   5.433  -0.225  1.0871 -1.5380 -0.7682
  396MOL0     H53407   2.783   5.269  -0.053  0.0212 -2.1274 -0.1476
  396MOL0     H53408   2.681   5.207  -0.177  1.7513  1.6271 -1.5023
  396MOL0     H53409   2.600   5.376   0.055  1.0046  0.2495 -1.2467
  396MOL0     H53410   2.484   5.310  -0.060 -0.4521  2.1071  1.2922
  396MOL0     H53411   2.497   5.039  -0.101  1.7694 -0.0522 -1.0676
  396MOL0     H53412   2.507   4.756   0.170  0.3750  0.4034 -0.1232
  396MOL0     H53413   2.438   4.797   0.018 -1.7337  3.3120  0.5785
  396MOL0     H53414   2.734   4.737   0.090 -1.6443  1.4276  1.5265
  396MOL0     H53415   2.645   4.625   0.011  0.2073 -0.6982  1.4310
  396MOL0     H53416   2.758   4.897  -0.095 -2.8081  0.6830  2.3623
  396MOL0     H53417   2.640   4.813  -0.202 -0.5247  0.0094 -0.3079
  396MOL0     H53418   2.881   4.668  -0.107  0.7295 -1.7368 -2.1197
  396MOL0     H53419   2.878   4.775  -0.249  0.6902 -0.0938  0.8835
  396MOL0     H53420   3.021   4.564  -0.197  0.4139 -1.1746  1.0149
  396MOL0     H53421   3.131   4.356  -0.233 -1.0313 -1.1088  0.7998
  396MOL0     H53422   2.856   3.900  -0.595  0.0225 -0.0001  0.4169
  396MOL0     H53423   2.943   3.661  -0.677  1.7262 -1.5840 -0.4548
  396MOL0     H53424   3.268   3.700  -0.910 -2.2774 -0.6975 -1.0460
  396MOL0     H53425   3.386   3.622  -0.796  1.5039 -0.3298 -1.4134
  396MOL0     H53426   3.308   3.400  -0.847 -0.0641 -1.4238 -0.7985
  396MOL0     H53427   3.181   3.475  -0.949 -1.4377 -1.3660  3.4049
  396MOL0     H53428   3.378   3.578  -1.084 -0.7825  1.0111  1.6566
  396MOL0     H53429   3.493   3.514  -0.962 -0.0017  3.3322 -0.7267
  396MOL0     H53430   3.291   3.341  -1.118 -0.6470  3.5865 -0.5406
  396MOL0     H53431   3.432   3.281  -1.038 -0.5408 -0.0696 -0.7288
  396MOL0     H53432   3.575   3.405  -1.208 -0.3634 -0.9436 -0.7045
  396MOL0     H53433   3.430   3.467  -1.281 -1.7290 -1.7597 -1.0377
  396MOL0     H53434   3.509   3.177  -1.253  0.2848 -0.6763  0.1190
  396MOL0     H53435   3.354   3.244  -1.314  0.4743  0.7879 -0.2620
  396MOL0     H53436   3.487   3.384  -1.472 -3.0291 -0.5015 -0.0461
  396MOL0     H53437   3.490   3.211  -1.514 -0.7987  0.5281  0.3625
  396MOL0     H53438   3.729   3.302  -1.519  1.1489  1.1103 -0.2320
  396MOL0     H53439   3.709   3.353  -1.352  0.6252  0.6222 -0.5242
  396MOL0     H53440   3.343   3.803  -0.655  0.1848 -2.8419  2.2412
  396MOL0     H53441   3.271   4.020  -0.590  0.5751 -0.0157  0.1511
  396MOL0     H53442   2.811   4.232  -0.503  1.4280 -0.2854 -0.6106
  396MOL0     H53443   2.675   4.420  -0.418 -0.8880 -3.4004  0.5713
  396MOL0     H53444   3.360   5.798  -0.048 -0.8485  0.7361 -1.2207
  396MOL0     H53445   3.441   5.949   0.144 -2.0455  2.5363  3.6718
  396MOL0     H53446   3.370   6.379   0.264 -0.8624 -0.9225  0.9813
  396MOL0     H53447   3.509   6.571   0.335 -1.2339 -0.8753 -1.7219
  396MOL0     H53448   3.533   6.705   0.539 -0.2261  0.9074  0.1664
  396MOL0     H53449   3.660   6.772   0.449 -0.5682  0.3750 -0.1016
  396MOL0     H53450   3.660   6.833   0.700 -0.0796 -0.0987 -0.8540
  396MOL0     H53451   3.815   6.762   0.641 -0.3856 -0.6282 -2.5503
  396MOL0     H53452   3.759   6.550   0.747  0.6621  0.8103 -0.4476
  396MOL0     H53453   3.588   6.598   0.780 -0.3590  0.5516  2.0443
  396MOL0     H53454   3.845   6.697   0.905  0.8386 -0.9729 -2.6641
  396MOL0     H53455   3.681   6.778   0.928 -3.4660 -1.8535  2.0530
  396MOL0     H53456   3.689   6.453   1.194 -1.1286 -0.3968 -1.1177
  396MOL0     H53457   3.704   6.322   0.625 -2.4723  3.4562  2.3468
  396MOL0     H53458   3.539   6.036   0.621  0.2313 -0.2288 -0.0788
  396MOL0     H53459   3.651   6.035   0.497  2.6045  1.3168 -0.4561
  396MOL0     H53460   3.688   6.117   0.654  0.1229  0.0377  0.5591
  397MOL0     O53461   7.778   2.471   4.614  0.0245 -0.5819  0.1237
  397MOL0     C53462   7.727   2.494   4.723 -0.3050  0.6939 -1.0600
  397MOL0     O53463   7.690   2.396   4.815  1.1499  0.3763 -0.2973
  397MOL0     C53464   7.738   2.265   4.811  0.4738  0.0350 -0.2854
  397MOL0     C53465   7.875   2.246   4.828 -1.1923  0.3309 -0.5347
  397MOL0     C53466   7.920   2.110   4.860  0.7986 -0.3010  0.4299
  397MOL0     C53467   7.827   2.004   4.845 -0.3801  0.3419  0.1337
  397MOL0     O53468   7.893   1.884   4.849 -0.4098  0.7914  0.0283
  397MOL0     C53469   7.841   1.793   4.948 -0.7183 -0.1616 -1.0413
  397MOL0     C53470   7.753   1.682   4.877 -0.8515 -0.0745  0.3717
  397MOL0     C53471   7.822   1.601   4.766  0.1616  0.1489 -0.0888
  397MOL0     C53472   7.934   1.519   4.837 -0.1250 -0.3816  0.4851
  397MOL0     C53473   8.016   1.440   4.733  0.3860  0.0929 -0.0590
  397MOL0     C53474   7.931   1.328   4.669  0.2998 -0.8259 -0.0370
  397MOL0     C53475   8.021   1.224   4.625 -0.1289 -0.2515 -0.9274
  397MOL0     C53476   8.090   1.244   4.486  0.1896 -0.5301  0.3718
  397MOL0     N53477   7.997   1.251   4.372 -0.0627  0.1967  0.8719
  397MOL0     C53478   7.925   1.358   4.338  0.0683 -0.7426 -0.9312
  397MOL0     C53479   7.848   1.318   4.236  1.0328  0.1839  0.0167
  397MOL0     C53480   7.766   1.402   4.147  1.3377 -0.0537 -0.5874
  397MOL0     C53481   7.852   1.466   4.038  0.0572 -0.1801 -0.2512
  397MOL0     C53482   7.933   1.587   4.082  0.0943 -0.5486 -0.7044
  397MOL0     C53483   8.029   1.635   3.975  0.6476  0.5894 -0.2434
  397MOL0     O53484   7.947   1.659   3.864 -0.1098 -1.0890  0.9142
  397MOL0     C53485   7.982   1.648   3.730 -0.3624 -0.3488 -1.9105
  397MOL0     C53486   7.903   1.721   3.645 -0.6236 -0.7301  0.1450
  397MOL0     C53487   7.939   1.733   3.513  0.2231  0.7743 -0.2242
  397MOL0     C53488   8.066   1.683   3.467  0.0400 -0.4009 -0.2433
  397MOL0     C53489   8.115   1.707   3.328 -0.9706  0.3091 -0.9758
  397MOL0     O53490   8.224   1.644   3.302 -0.0667 -0.2770  0.3686
  397MOL0     C53491   8.298   1.697   3.198 -0.1498 -0.6941 -0.3901
  397MOL0     C53492   8.394   1.801   3.228 -0.7300  0.5456  0.5432
  397MOL0     C53493   8.486   1.849   3.131  0.0966 -0.1912 -0.5569
  397MOL0     C53494   8.472   1.795   3.003  0.7774  0.1886 -0.5225
  397MOL0     O53495   8.550   1.830   2.894 -0.1134 -0.1834 -0.6126
  397MOL0     C53496   8.619   1.947   2.903 -0.4759  0.1279  0.5756
  397MOL0     C53497   8.689   1.985   2.767 -0.3684  0.0745 -0.8726
  397MOL0     C53498   8.750   2.127   2.747 -0.3803 -0.3959  0.0116
  397MOL0     C53499   8.844   2.151   2.630  0.0815  0.3535  0.1191
  397MOL0     C53500   8.927   2.282   2.644 -0.4716 -0.8548 -0.0001
  397MOL0     C53501   9.029   2.305   2.532 -0.6945  0.4335  0.8361
  397MOL0     C53502   9.149   2.217   2.538 -0.2320  0.6527  0.0238
  397MOL0     C53503   9.256   2.266   2.431  0.6573  0.1601 -0.0309
  397MOL0    Cl53504   9.392   2.137   2.445 -0.1676  0.4507 -0.1989
  397MOL0     C53505   8.374   1.698   2.970  0.5690 -0.2640 -0.1782
  397MOL0     C53506   8.282   1.657   3.066 -0.9142  0.5774  0.1944
  397MOL0     O53507   8.054   1.770   3.245  0.3580 -0.3901 -0.5914
  397MOL0     C53508   8.141   1.602   3.562 -0.5605  0.5997 -0.1268
  397MOL0     C53509   8.098   1.578   3.694  0.2659  0.7464 -0.9230
  397MOL0     N53510   7.881   1.187   4.206 -0.6331 -0.1023  0.7484
  397MOL0     N53511   7.979   1.149   4.277  0.7134  0.3235 -0.1583
  397MOL0     C53512   7.692   2.028   4.812  0.4279 -0.5325 -0.2821
  397MOL0     C53513   7.648   2.156   4.807 -0.0383  0.0291 -0.6099
  397MOL0     C53514   7.689   2.632   4.747 -0.7400 -0.5604 -0.3912
  397MOL0     C53515   7.583   2.648   4.838 -0.5571 -0.7613  0.0123
  397MOL0     C53516   7.538   2.771   4.883 -0.0360  0.0130  0.0526
  397MOL0     C53517   7.608   2.889   4.855  0.0666  0.1735 -0.9757
  397MOL0     O53518   7.579   3.013   4.898 -0.5553  0.5077  0.6616
  397MOL0     C53519   7.449   3.036   4.966  0.4347 -0.2479 -0.3890
  397MOL0     C53520   7.461   3.031   5.118  0.3675  0.1993 -0.1935
  397MOL0     C53521   7.328   3.028   5.191  0.7945 -0.5296 -0.3935
  397MOL0     C53522   7.239   3.146   5.166 -0.0251 -1.7281 -0.8702
  397MOL0     C53523   7.295   3.272   5.235  0.1183 -0.1740 -1.3560
  397MOL0     C53524   7.356   3.357   5.294  0.3050 -0.1465 -0.2344
  397MOL0     C53525   7.717   2.881   4.774 -0.5557 -0.1423  0.6391
  397MOL0     C53526   7.753   2.758   4.719 -0.9834  1.1162 -0.2734
  397MOL0     C53527   7.881   2.767   4.636  0.1395  0.3764 -0.1126
  397MOL0     H53528   7.950   2.325   4.836 -0.1338 -0.6950  0.0431
  397MOL0     H53529   8.027   2.093   4.864  0.8520 -0.2672 -0.6177
  397MOL0     H53530   7.926   1.752   5.003  0.5343  0.8579 -2.1275
  397MOL0     H53531   7.787   1.846   5.026  3.0548 -2.0311  3.2967
  397MOL0     H53532   7.665   1.720   4.823  0.8045 -2.3437 -4.4789
  397MOL0     H53533   7.709   1.613   4.949  2.0378 -1.6741  0.7169
  397MOL0     H53534   7.873   1.669   4.699 -0.2646  1.0837  0.5189
  397MOL0     H53535   7.756   1.531   4.715 -1.6308  1.2091  0.6863
  397MOL0     H53536   8.006   1.582   4.889  0.5370  0.5868 -1.5115
  397MOL0     H53537   7.878   1.453   4.905 -4.9898  0.8486 -1.8542
  397MOL0     H53538   8.048   1.519   4.665 -0.1632  0.3924  0.0213
  397MOL0     H53539   8.108   1.403   4.778  0.0728 -0.7514 -0.0919
  397MOL0     H53540   7.861   1.282   4.739  0.8197 -2.2521 -0.4135
  397MOL0     H53541   7.870   1.371   4.589 -1.4630 -0.2974  1.5335
  397MOL0     H53542   7.953   1.139   4.609  0.9455 -0.9130 -2.2169
  397MOL0     H53543   8.098   1.205   4.700  1.8866  2.7394 -2.0624
  397MOL0     H53544   8.147   1.337   4.495 -0.3764 -0.2551  1.3128
  397MOL0     H53545   8.154   1.162   4.452 -1.2196 -2.0902  1.3115
  397MOL0     H53546   7.918   1.454   4.388  1.3135  0.8423 -3.5422
  397MOL0     H53547   7.688   1.342   4.098  2.4882 -1.6305 -0.5401
  397MOL0     H53548   7.713   1.475   4.209 -2.5276 -1.0187 -2.4456
  397MOL0     H53549   7.919   1.393   3.991 -0.6853 -0.5365 -0.7724
  397MOL0     H53550   7.784   1.498   3.959  0.0184 -2.1866 -1.0959
  397MOL0     H53551   7.995   1.580   4.172  2.9958  4.2405 -1.9920
  397MOL0     H53552   7.859   1.660   4.116  0.2921 -0.1128 -1.1857
  397MOL0     H53553   8.091   1.547   3.952 -1.4160 -0.7711 -0.8816
  397MOL0     H53554   8.088   1.717   4.015 -0.9427  1.8580 -0.4012
  397MOL0     H53555   7.816   1.774   3.684 -3.7105 -3.5339 -2.2707
  397MOL0     H53556   7.869   1.777   3.442  1.4454 -0.6244 -2.4008
  397MOL0     H53557   8.394   1.851   3.324  1.5388 -1.3558  1.6530
  397MOL0     H53558   8.561   1.920   3.164  0.8089 -0.8678 -0.6790
  397MOL0     H53559   8.553   2.027   2.938 -0.1923  1.4286 -1.6937
  397MOL0     H53560   8.689   1.925   2.984 -3.4680 -2.5790  2.6989
  397MOL0     H53561   8.754   1.906   2.728  0.1140  0.5197 -0.9812
  397MOL0     H53562   8.608   1.998   2.695  0.5326  0.3641 -1.8564
  397MOL0     H53563   8.668   2.198   2.733 -0.0469  0.1930  0.9306
  397MOL0     H53564   8.809   2.154   2.835  0.6707  1.1738 -1.1404
  397MOL0     H53565   8.788   2.147   2.536 -0.0339 -0.4343  0.2167
  397MOL0     H53566   8.909   2.063   2.630 -2.3819 -1.5614 -0.3432
  397MOL0     H53567   8.976   2.280   2.743 -0.3187 -1.8417 -0.0884
  397MOL0     H53568   8.849   2.359   2.651  0.3315 -0.1144  1.5475
  397MOL0     H53569   8.996   2.293   2.428  0.1228  3.0087  0.2184
  397MOL0     H53570   9.056   2.411   2.532  1.9235 -0.1221 -1.3256
  397MOL0     H53571   9.124   2.111   2.532  0.3800  0.4662  0.7064
  397MOL0     H53572   9.187   2.244   2.637 -0.1845  0.6592  0.0036
  397MOL0     H53573   9.207   2.272   2.334 -0.9482 -0.7763  0.6757
  397MOL0     H53574   9.305   2.357   2.465  0.4893  0.2608 -0.0610
  397MOL0     H53575   8.363   1.665   2.868  0.6488 -0.4723 -0.1199
  397MOL0     H53576   8.203   1.593   3.029  1.3008 -2.1370 -0.2172
  397MOL0     H53577   8.232   1.550   3.535 -1.9427 -1.5511 -0.8827
  397MOL0     H53578   8.158   1.528   3.769 -3.3520  1.6966  2.9982
  397MOL0     H53579   7.622   1.948   4.792 -1.7743  0.8452  1.3880
  397MOL0     H53580   7.545   2.179   4.781  0.0446  1.9292  0.5607
  397MOL0     H53581   7.523   2.568   4.881 -1.9453  0.3881  0.2905
  397MOL0     H53582   7.451   2.772   4.948 -0.0204 -2.9132  0.2904
  397MOL0     H53583   7.373   2.969   4.927 -0.6146  0.7762 -0.1633
  397MOL0     H53584   7.417   3.137   4.941 -2.5704 -0.8814  0.5291
  397MOL0     H53585   7.520   3.114   5.156 -0.0002 -0.0973  1.0807
  397MOL0     H53586   7.505   2.937   5.153 -1.8292 -0.0519  2.2574
  397MOL0     H53587   7.333   3.030   5.301  0.2671 -0.9145 -0.3602
  397MOL0     H53588   7.271   2.938   5.166 -2.3999  0.9682  0.9626
  397MOL0     H53589   7.230   3.158   5.058  0.5122  0.4809 -0.7134
  397MOL0     H53590   7.145   3.114   5.211  2.6926 -1.3035  6.4507
  397MOL0     H53591   7.407   3.438   5.341 -0.7253 -0.7626  2.0487
  397MOL0     H53592   7.787   2.962   4.755 -1.8179  1.0235  0.8475
  397MOL0     H53593   7.949   2.705   4.695 -0.1405 -0.6778 -0.8855
  397MOL0     H53594   7.877   2.726   4.535  1.1427 -0.6165  0.2311
  397MOL0     H53595   7.928   2.865   4.647  3.0425 -0.9059 -0.2714
  398MOL0     O53596   9.148   5.027   5.289  0.5321 -1.2370  0.1471
  398MOL0     C53597   9.255   4.985   5.244 -1.2851 -0.6123  0.0459
  398MOL0     O53598   9.385   5.030   5.269  0.7656 -0.9404 -0.2710
  398MOL0     C53599   9.400   5.139   5.356 -0.1277 -0.6628  0.1818
  398MOL0     C53600   9.476   5.125   5.473  0.8757  0.0534 -0.8515
  398MOL0     C53601   9.521   5.242   5.543 -0.2617  0.4658 -0.3060
  398MOL0     C53602   9.458   5.363   5.514 -0.6503 -0.9161 -0.2756
  398MOL0     O53603   9.472   5.473   5.593  0.4186  0.1722  0.1551
  398MOL0     C53604   9.598   5.483   5.672  0.0613  0.5682  0.1173
  398MOL0     C53605   9.658   5.624   5.639 -0.6333 -0.2187 -0.7801
  398MOL0     C53606   9.809   5.631   5.659 -0.1852  0.3072 -0.3021
  398MOL0     C53607   9.875   5.774   5.627  0.4262  0.8895 -0.5298
  398MOL0     C53608  10.024   5.775   5.684 -0.3290  0.0507 -0.3404
  398MOL0     C53609  10.097   5.913   5.684 -0.3076 -0.1183 -0.6914
  398MOL0     C53610  10.241   5.895   5.745  0.7850  0.3787 -0.0785
  398MOL0     C53611  10.317   6.028   5.747 -0.2448 -0.1635  0.4431
  398MOL0     N53612  10.436   6.025   5.838 -0.3519 -0.8042 -0.2977
  398MOL0     C53613  10.566   6.050   5.799  0.2023 -0.6970 -0.2966
  398MOL0     C53614  10.645   6.077   5.908 -0.0645  0.0773  0.3688
  398MOL0     C53615  10.790   6.122   5.920 -0.0456  0.2101 -0.4462
  398MOL0     C53616  10.874   6.084   5.796 -0.2128  0.0942  0.3791
  398MOL0     C53617  10.889   6.183   5.677 -0.4816 -0.1460 -0.8648
  398MOL0     C53618  10.941   6.320   5.717  0.1922 -0.5287 -1.1872
  398MOL0     O53619  11.083   6.333   5.732  0.7850 -0.1032 -0.5628
  398MOL0     C53620  11.143   6.457   5.755  0.2841 -0.1608  0.2512
  398MOL0     C53621  11.283   6.460   5.767 -0.8341 -0.5832 -0.3035
  398MOL0     C53622  11.344   6.590   5.797  0.3691  0.6070  0.0891
  398MOL0     C53623  11.271   6.705   5.805  0.5142 -0.3645  0.9399
  398MOL0     C53624  11.323   6.835   5.832  0.9630 -0.3779 -0.6326
  398MOL0     O53625  11.265   6.949   5.783  0.5765 -0.7287 -0.5690
  398MOL0     C53626  11.321   7.070   5.811  0.5390  0.7155 -0.0341
  398MOL0     C53627  11.284   7.135   5.939 -0.3016  1.1468 -0.3185
  398MOL0     C53628  11.325   7.268   5.975  0.0132 -0.2704 -0.3106
  398MOL0     C53629  11.403   7.337   5.878 -0.1116  0.1660 -0.3448
  398MOL0     O53630  11.454   7.463   5.895  0.4341 -0.0052 -0.3327
  398MOL0     C53631  11.408   7.526   6.016  0.2428 -0.7419 -0.1158
  398MOL0     C53632  11.461   7.673   6.013 -0.1258 -0.3746 -0.7746
  398MOL0     C53633  11.614   7.683   6.052 -0.9278 -0.2141  0.2787
  398MOL0     C53634  11.682   7.789   5.951 -0.4728 -0.0865 -0.0717
  398MOL0     C53635  11.642   7.938   5.986 -0.4950 -0.0750  0.1771
  398MOL0     C53636  11.644   8.018   5.860  0.0270 -0.1398  0.3183
  398MOL0     C53637  11.641   8.167   5.873 -0.2182 -0.3260 -0.0114
  398MOL0     C53638  11.767   8.224   5.930  0.1701  1.5338 -0.4556
  398MOL0    Cl53639  11.774   8.391   5.890 -0.7064 -0.5886 -0.2558
  398MOL0     C53640  11.436   7.277   5.752  0.3675  1.7171 -0.0617
  398MOL0     C53641  11.398   7.143   5.715  0.7696  0.1276 -0.9245
  398MOL0     O53642  11.416   6.832   5.908 -0.3883  0.2776 -0.1545
  398MOL0     C53643  11.138   6.698   5.772  0.2971  0.6852 -0.5025
  398MOL0     C53644  11.072   6.577   5.760 -0.5253  1.3198 -0.2833
  398MOL0     N53645  10.565   6.067   6.010 -0.2701 -0.5455 -0.3795
  398MOL0     N53646  10.451   6.014   5.974 -0.1992  0.1548 -0.6695
  398MOL0     C53647   9.372   5.380   5.403 -0.1704 -0.0057  0.1762
  398MOL0     C53648   9.353   5.270   5.314 -0.5940  0.3586 -0.2457
  398MOL0     C53649   9.245   4.885   5.131  0.0088 -0.3791 -0.0809
  398MOL0     C53650   9.327   4.905   5.023 -0.2962 -0.0122 -0.1708
  398MOL0     C53651   9.309   4.820   4.908  0.9248 -0.8622 -0.1756
  398MOL0     C53652   9.213   4.712   4.911 -0.4118  0.2776 -0.7004
  398MOL0     O53653   9.191   4.616   4.815 -0.2108  0.2882 -0.4629
  398MOL0     C53654   9.277   4.620   4.701  0.2307 -0.0089  0.2398
  398MOL0     C53655   9.247   4.500   4.616  0.1791  0.1233 -0.3176
  398MOL0     C53656   9.347   4.473   4.509 -0.0534  0.3564  0.4856
  398MOL0     C53657   9.343   4.568   4.395  0.1514  0.2159  0.1008
  398MOL0     C53658   9.465   4.555   4.319  0.0156  0.8042  0.6233
  398MOL0     C53659   9.565   4.522   4.251 -0.1030  0.3464 -0.0728
  398MOL0     C53660   9.137   4.696   5.025 -0.6503 -0.1840  0.0078
  398MOL0     C53661   9.153   4.781   5.133  0.3536 -0.8579 -0.8003
  398MOL0     C53662   9.060   4.760   5.244  0.3647  0.4535  0.0409
  398MOL0     H53663   9.522   5.033   5.505  0.1308  0.6523  2.2297
  398MOL0     H53664   9.588   5.232   5.628 -1.7322  1.6880  1.0614
  398MOL0     H53665   9.578   5.460   5.777 -0.2724  1.9460  0.3886
  398MOL0     H53666   9.675   5.421   5.626  1.9225  2.2495  0.8268
  398MOL0     H53667   9.596   5.692   5.698 -0.9515 -1.7768  0.7502
  398MOL0     H53668   9.642   5.660   5.537 -2.0206  0.8253 -0.2354
  398MOL0     H53669   9.866   5.567   5.590  0.4805  0.0359  0.4809
  398MOL0     H53670   9.835   5.605   5.762  2.1010 -0.4344 -0.9970
  398MOL0     H53671   9.868   5.796   5.520  0.6734 -0.8583 -0.9408
  398MOL0     H53672   9.816   5.852   5.676  0.2283  0.8011 -0.6283
  398MOL0     H53673  10.021   5.742   5.788  2.9444  0.6439  0.0483
  398MOL0     H53674  10.074   5.699   5.622 -1.2803 -1.8840  1.1581
  398MOL0     H53675  10.099   5.934   5.577  0.0833  0.8517 -0.5000
  398MOL0     H53676  10.042   5.988   5.742 -1.8818 -0.2920 -1.8749
  398MOL0     H53677  10.283   5.825   5.672 -3.5623 -0.2892 -2.2683
  398MOL0     H53678  10.225   5.851   5.844 -0.2454  3.3426  1.1611
  398MOL0     H53679  10.356   6.051   5.647  1.0245  0.2563  1.0083
  398MOL0     H53680  10.246   6.104   5.780 -1.0030  0.1236 -1.6666
  398MOL0     H53681  10.597   6.057   5.695  1.0048 -5.0611 -0.5489
  398MOL0     H53682  10.809   6.225   5.954  2.6063 -0.5551  0.5892
  398MOL0     H53683  10.834   6.082   6.012 -0.8565  0.3072  0.0005
  398MOL0     H53684  10.976   6.065   5.830  0.1094  0.0686 -0.5829
  398MOL0     H53685  10.825   5.991   5.765 -2.3255  1.4328 -0.4984
  398MOL0     H53686  10.792   6.191   5.627 -0.7127  0.1676 -0.3745
  398MOL0     H53687  10.964   6.144   5.608  2.1386  0.2851  1.5361
  398MOL0     H53688  10.898   6.363   5.808  0.0588  3.3417 -2.8922
  398MOL0     H53689  10.903   6.392   5.644  3.2501  4.8697  1.8819
  398MOL0     H53690  11.338   6.366   5.763 -1.1020 -0.8180  1.1340
  398MOL0     H53691  11.452   6.590   5.813  1.2901 -2.1142 -4.3152
  398MOL0     H53692  11.225   7.068   6.002 -0.2829 -1.2217 -2.6363
  398MOL0     H53693  11.307   7.310   6.073  2.0868 -0.4255  0.1861
  398MOL0     H53694  11.299   7.539   6.018  0.4727  4.3356 -2.7403
  398MOL0     H53695  11.442   7.480   6.109 -0.5264  0.7595  0.9536
  398MOL0     H53696  11.441   7.699   5.909  1.2473 -0.4341 -1.0641
  398MOL0     H53697  11.412   7.733   6.090  3.3383  2.1067 -0.2674
  398MOL0     H53698  11.643   7.712   6.153  1.2516  1.0798 -0.6592
  398MOL0     H53699  11.658   7.585   6.032  1.0595  0.5229  0.8120
  398MOL0     H53700  11.672   7.768   5.844  1.5780  0.0421 -0.3346
  398MOL0     H53701  11.788   7.785   5.975 -1.1832 -0.6334  3.5441
  398MOL0     H53702  11.718   7.985   6.050  1.3081  0.1841 -2.0389
  398MOL0     H53703  11.544   7.933   6.034 -0.3849 -0.7905  0.3421
  398MOL0     H53704  11.729   7.982   5.801 -0.8893 -1.7803 -0.0509
  398MOL0     H53705  11.552   7.985   5.811  0.0522 -1.3926  1.0801
  398MOL0     H53706  11.551   8.199   5.927 -0.2878  3.3296 -2.0229
  398MOL0     H53707  11.640   8.207   5.772 -0.3683 -0.0272  0.1077
  398MOL0     H53708  11.772   8.206   6.037  0.6322  1.1894 -0.5269
  398MOL0     H53709  11.845   8.168   5.877 -2.2995 -1.2882 -1.3678
  398MOL0     H53710  11.486   7.344   5.682 -0.3663  1.2114 -1.0958
  398MOL0     H53711  11.432   7.102   5.620 -3.3042 -0.5974 -2.3105
  398MOL0     H53712  11.077   6.787   5.759 -0.0112  0.5888  0.2508
  398MOL0     H53713  10.964   6.568   5.756 -0.4520  0.0279 -0.0245
  398MOL0     H53714   9.324   5.474   5.379  0.9509  0.2734 -1.1214
  398MOL0     H53715   9.296   5.274   5.221  1.8614 -1.0724 -1.9667
  398MOL0     H53716   9.397   4.989   5.025 -0.2663  0.1030 -2.6222
  398MOL0     H53717   9.382   4.828   4.828  3.8442 -1.7702  2.2004
  398MOL0     H53718   9.380   4.622   4.737  1.0188  0.5233 -1.8828
  398MOL0     H53719   9.260   4.706   4.636  0.1837 -1.6548 -2.0316
  398MOL0     H53720   9.149   4.527   4.577 -0.2949  1.8508  1.8850
  398MOL0     H53721   9.242   4.418   4.689  1.3558 -1.6617 -2.1118
  398MOL0     H53722   9.350   4.368   4.479 -0.8264  0.6883 -0.8414
  398MOL0     H53723   9.438   4.481   4.569  1.3091 -1.6019 -1.1962
  398MOL0     H53724   9.276   4.533   4.315 -1.1219 -0.5129  1.4466
  398MOL0     H53725   9.314   4.670   4.422 -0.1049  0.4677 -1.0324
  398MOL0     H53726   9.665   4.506   4.215  1.4406  0.0084  3.7888
  398MOL0     H53727   9.056   4.624   5.035 -0.5940 -0.0624  1.6477
  398MOL0     H53728   9.094   4.807   5.336 -0.8534  2.0200 -0.2707
  398MOL0     H53729   8.957   4.785   5.215  0.5247 -2.0979 -3.3406
  398MOL0     H53730   9.061   4.652   5.263  1.0013  0.7110  1.6311
  399MOL0     O53731   9.186   7.014   4.072 -0.2010  0.2173  0.4466
  399MOL0     C53732   9.245   7.106   4.114  0.3845 -0.2113  0.6110
  399MOL0     O53733   9.203   7.238   4.105 -0.2354  0.2091  0.5286
  399MOL0     C53734   9.070   7.269   4.077  0.3763 -0.0661 -0.3580
  399MOL0     C53735   8.970   7.247   4.177 -0.8013  1.1789  0.1544
  399MOL0     C53736   8.843   7.286   4.182  0.2747 -0.0585 -0.7053
  399MOL0     C53737   8.793   7.352   4.069 -0.3929  0.5006 -0.5068
  399MOL0     O53738   8.666   7.401   4.075  0.1071  0.7152 -0.5463
  399MOL0     C53739   8.586   7.385   3.949  1.1788  0.6493  0.6115
  399MOL0     C53740   8.436   7.427   3.966 -0.0951 -1.1421  0.4013
  399MOL0     C53741   8.358   7.429   3.838 -0.2653 -0.1488  0.5244
  399MOL0     C53742   8.303   7.291   3.801  0.2252 -0.1078  0.0058
  399MOL0     C53743   8.184   7.299   3.708 -0.9436 -0.7024  0.9692
  399MOL0     C53744   8.208   7.398   3.594  0.1792 -0.5164 -0.3834
  399MOL0     C53745   8.333   7.378   3.512 -0.5427 -0.8491 -0.1332
  399MOL0     C53746   8.354   7.459   3.378 -0.2636 -0.1987 -0.3853
  399MOL0     N53747   8.236   7.497   3.310  0.1308  0.6390  0.2262
  399MOL0     C53748   8.178   7.411   3.219 -0.2982 -0.3285 -0.8017
  399MOL0     C53749   8.096   7.486   3.141 -0.2456  0.2428 -0.6222
  399MOL0     C53750   8.027   7.443   3.022 -0.2061 -0.7460 -0.3481
  399MOL0     C53751   8.129   7.428   2.917  0.3799 -0.5022  0.3746
  399MOL0     C53752   8.068   7.382   2.790 -0.0484  0.2899 -0.7108
  399MOL0     C53753   7.982   7.251   2.800 -0.4894  0.0208 -0.0909
  399MOL0     O53754   7.948   7.201   2.666  0.5351  0.1755 -0.1498
  399MOL0     C53755   8.041   7.183   2.569 -0.1372 -0.0111 -0.2759
  399MOL0     C53756   7.995   7.189   2.438 -0.7637  0.2580 -0.3099
  399MOL0     C53757   8.080   7.205   2.330  0.6235  0.9932 -0.2389
  399MOL0     C53758   8.210   7.224   2.343 -0.1105 -0.6022  0.9716
  399MOL0     C53759   8.289   7.242   2.225  0.8369  0.2467 -0.1696
  399MOL0     O53760   8.215   7.276   2.124 -0.0565 -0.4018  0.0935
  399MOL0     C53761   8.270   7.307   2.004  0.0029  0.2941  0.6234
  399MOL0     C53762   8.348   7.212   1.937  0.5780  0.3338  0.1750
  399MOL0     C53763   8.391   7.242   1.802  0.8041 -0.1313 -0.4084
  399MOL0     C53764   8.366   7.360   1.733  0.0806 -0.5294 -0.1224
  399MOL0     O53765   8.400   7.398   1.604 -0.7935 -0.2073  0.3684
  399MOL0     C53766   8.416   7.295   1.506 -0.9148 -0.3111  0.4497
  399MOL0     C53767   8.449   7.357   1.360 -0.7330 -0.2758 -0.7233
  399MOL0     C53768   8.469   7.262   1.244 -0.1231 -1.2566  0.4207
  399MOL0     C53769   8.516   7.313   1.112  0.3145  0.0383  0.0474
  399MOL0     C53770   8.517   7.198   1.012 -0.0391  0.4836  0.1412
  399MOL0     C53771   8.611   7.073   1.028  0.1017 -0.3418 -0.4152
  399MOL0     C53772   8.754   7.091   0.979 -0.6569  0.0331 -0.4288
  399MOL0     C53773   8.771   7.065   0.825  0.8064 -0.1768 -0.1115
  399MOL0    Cl53774   8.728   6.889   0.796 -0.3254 -0.2007  0.2699
  399MOL0     C53775   8.300   7.454   1.801 -0.6517 -0.0233 -0.2922
  399MOL0     C53776   8.249   7.430   1.932  0.4934 -0.1037 -0.1338
  399MOL0     O53777   8.411   7.231   2.230 -0.3507  0.5419 -0.1857
  399MOL0     C53778   8.266   7.210   2.475  0.8467 -0.2369 -0.2520
  399MOL0     C53779   8.185   7.180   2.584  0.8978 -0.2105  0.6539
  399MOL0     N53780   8.102   7.613   3.188 -0.5275 -0.1518  0.1781
  399MOL0     N53781   8.181   7.618   3.299  0.4794 -0.3272  0.3745
  399MOL0     C53782   8.886   7.380   3.964 -0.3540  0.3371  0.1392
  399MOL0     C53783   9.019   7.331   3.962  0.4311 -0.3318  0.2082
  399MOL0     C53784   9.377   7.090   4.175 -1.2828  1.1496 -0.0281
  399MOL0     C53785   9.403   7.191   4.270  0.3375 -0.1298  0.2467
  399MOL0     C53786   9.530   7.205   4.333  0.0697 -0.4856 -0.4805
  399MOL0     C53787   9.634   7.121   4.295 -0.9470  0.0100 -0.0015
  399MOL0     O53788   9.755   7.129   4.358  0.0027  0.0137 -0.1117
  399MOL0     C53789   9.820   7.261   4.347 -0.4841  0.6451 -0.0302
  399MOL0     C53790   9.974   7.239   4.374  0.1478  0.5129 -0.8912
  399MOL0     C53791   9.997   7.231   4.529  0.0606 -0.5774 -0.0584
  399MOL0     C53792  10.150   7.205   4.564  0.0665  0.5854 -0.4304
  399MOL0     C53793  10.204   7.076   4.551  0.0287  0.7304  0.3557
  399MOL0     C53794  10.253   6.965   4.555  0.7133 -0.3867 -0.4005
  399MOL0     C53795   9.611   7.012   4.203  0.3761 -0.6800  0.2267
  399MOL0     C53796   9.480   6.993   4.151  0.0139 -0.1230  0.1207
  399MOL0     C53797   9.460   6.879   4.057  0.0353 -0.2684  1.2059
  399MOL0     H53798   8.998   7.210   4.276 -0.0187  0.1049 -0.4504
  399MOL0     H53799   8.776   7.260   4.263  1.3682  0.2433  0.3138
  399MOL0     H53800   8.622   7.448   3.867 -3.9042  1.2979 -1.5135
  399MOL0     H53801   8.587   7.280   3.918 -1.3424  0.6231  0.4433
  399MOL0     H53802   8.428   7.526   4.011 -1.3401 -1.3881  0.7607
  399MOL0     H53803   8.394   7.365   4.046 -0.5512  0.7658  1.7243
  399MOL0     H53804   8.421   7.478   3.762 -0.5004 -0.2665  0.2514
  399MOL0     H53805   8.265   7.485   3.852 -0.5534 -0.6866  0.7731
  399MOL0     H53806   8.391   7.240   3.763 -0.6964 -2.9198  1.3947
  399MOL0     H53807   8.268   7.241   3.892 -2.3000 -0.2595 -0.9611
  399MOL0     H53808   8.171   7.197   3.670  0.0390 -0.8748  1.0595
  399MOL0     H53809   8.095   7.332   3.762 -0.4619  2.1041  0.2035
  399MOL0     H53810   8.120   7.376   3.532 -0.5528 -0.3729  0.5736
  399MOL0     H53811   8.213   7.499   3.637  1.9368  0.1547 -2.0407
  399MOL0     H53812   8.331   7.270   3.495 -1.1610 -1.3661  2.6575
  399MOL0     H53813   8.424   7.390   3.571  0.2270 -0.0754 -1.4374
  399MOL0     H53814   8.414   7.549   3.397  0.0345 -0.4624 -0.0850
  399MOL0     H53815   8.416   7.398   3.313 -0.0968 -2.7346  1.9619
  399MOL0     H53816   8.199   7.307   3.199  4.9461 -0.6821  4.0284
  399MOL0     H53817   7.968   7.354   3.045 -2.9737  1.1987  0.5884
  399MOL0     H53818   7.952   7.518   2.991  1.9260  3.2393  3.0348
  399MOL0     H53819   8.169   7.523   2.881  3.4063 -3.0118 -3.7470
  399MOL0     H53820   8.207   7.361   2.953  1.9232 -1.0693 -3.5652
  399MOL0     H53821   8.158   7.371   2.729  0.5801 -1.1331  0.4157
  399MOL0     H53822   7.997   7.458   2.758  0.2078  1.5725  1.5383
  399MOL0     H53823   7.893   7.283   2.854 -0.8429  3.5649 -2.4683
  399MOL0     H53824   8.023   7.172   2.863 -1.3270  1.9272  3.0825
  399MOL0     H53825   7.889   7.194   2.418 -0.4090  1.1330 -2.1669
  399MOL0     H53826   8.032   7.200   2.232 -4.6286 -1.8476  2.0845
  399MOL0     H53827   8.379   7.117   1.979  1.6020 -0.1152 -1.4909
  399MOL0     H53828   8.453   7.159   1.771  0.4396 -0.9509  0.9673
  399MOL0     H53829   8.508   7.241   1.530  1.1461  3.0299  0.7739
  399MOL0     H53830   8.330   7.228   1.500  0.4511 -2.1048  0.1769
  399MOL0     H53831   8.366   7.425   1.339 -1.9611 -0.6453  2.3938
  399MOL0     H53832   8.543   7.414   1.356 -1.5543  1.1981 -5.2140
  399MOL0     H53833   8.544   7.197   1.291 -0.5767 -1.2581  1.1567
  399MOL0     H53834   8.375   7.206   1.234 -1.5238  0.9186  0.8085
  399MOL0     H53835   8.617   7.354   1.119  2.0077 -3.8264  0.9029
  399MOL0     H53836   8.449   7.393   1.079 -2.2766 -2.5858 -1.5516
  399MOL0     H53837   8.539   7.232   0.910 -1.2767 -4.3236 -2.0131
  399MOL0     H53838   8.416   7.156   1.006  0.1627  0.1096 -1.0282
  399MOL0     H53839   8.606   7.029   1.128  0.4392 -0.6940 -0.5530
  399MOL0     H53840   8.566   6.999   0.962 -1.4298  0.8939 -0.7988
  399MOL0     H53841   8.820   7.016   1.025  0.4820  1.0244 -0.3998
  399MOL0     H53842   8.790   7.191   1.003 -0.7225  0.8380 -3.3442
  399MOL0     H53843   8.706   7.127   0.764 -0.0002 -0.2892  0.6087
  399MOL0     H53844   8.874   7.078   0.791  0.6313 -2.5436 -1.8228
  399MOL0     H53845   8.290   7.553   1.759 -3.8325  0.5696  1.4911
  399MOL0     H53846   8.180   7.494   1.985  1.6902 -0.2436  1.6823
  399MOL0     H53847   8.372   7.221   2.493  0.9048 -2.0856  0.8248
  399MOL0     H53848   8.238   7.181   2.678 -1.7512 -1.5767  2.2697
  399MOL0     H53849   8.857   7.437   3.876 -1.6904 -0.3899  0.0750
  399MOL0     H53850   9.081   7.359   3.878 -0.6883  1.3111 -0.1248
  399MOL0     H53851   9.321   7.256   4.299 -2.9667 -3.9189  0.2347
  399MOL0     H53852   9.553   7.275   4.414 -2.6523 -3.5821  3.3760
  399MOL0     H53853   9.761   7.323   4.415 -3.0816 -1.7917  0.1524
  399MOL0     H53854   9.805   7.292   4.243 -1.0343  3.3992  0.7890
  399MOL0     H53855  10.039   7.319   4.339  0.4501  0.4840 -0.3954
  399MOL0     H53856  10.009   7.146   4.329  0.0406  0.5069 -0.9633
  399MOL0     H53857   9.939   7.148   4.571  0.9984 -1.1185  0.1844
  399MOL0     H53858   9.970   7.329   4.570  2.2132 -0.2665  0.7290
  399MOL0     H53859  10.206   7.276   4.503  2.0128 -0.3924  0.1569
  399MOL0     H53860  10.172   7.246   4.663  0.4921  0.7622 -0.5955
  399MOL0     H53861  10.287   6.866   4.580 -3.3609 -1.2857  2.6270
  399MOL0     H53862   9.696   6.944   4.195  0.1627 -0.7452 -2.7078
  399MOL0     H53863   9.527   6.796   4.083 -1.6138 -2.3787 -0.7816
  399MOL0     H53864   9.362   6.830   4.061 -0.3623  0.5887  2.7679
  399MOL0     H53865   9.477   6.904   3.952 -2.0342  0.6428  1.0510
  400MOL0     O53866  11.397   2.745   7.994 -0.8667  0.1802 -0.9201
  400MOL0     C53867  11.438   2.837   7.932  0.4997 -0.1926  0.6042
  400MOL0     O53868  11.426   2.969   7.967 -0.3631  0.4320 -0.4156
  400MOL0     C53869  11.399   2.988   8.102 -0.1417 -0.0815  0.2126
  400MOL0     C53870  11.269   2.997   8.138  0.9509  0.1811  0.0081
  400MOL0     C53871  11.225   3.007   8.272 -0.5051  0.2094  0.0817
  400MOL0     C53872  11.322   3.016   8.372  1.1001 -0.5368  0.6686
  400MOL0     O53873  11.278   3.048   8.497 -0.2230 -0.2344 -0.7193
  400MOL0     C53874  11.361   2.999   8.612  0.3033  0.3298  0.3061
  400MOL0     C53875  11.336   2.845   8.638 -0.0829  0.2217 -0.0097
  400MOL0     C53876  11.413   2.793   8.762  0.2403 -0.7640  0.2532
  400MOL0     C53877  11.359   2.652   8.794  1.2534 -1.5072 -0.2722
  400MOL0     C53878  11.440   2.587   8.905  0.4804  0.8531  0.7631
  400MOL0     C53879  11.554   2.504   8.828  0.3373  0.3714  1.0111
  400MOL0     C53880  11.645   2.433   8.922 -0.5108 -0.0695 -0.0338
  400MOL0     C53881  11.730   2.343   8.846  0.0701 -0.6302  1.1944
  400MOL0     N53882  11.803   2.400   8.728 -0.4495  0.1236 -0.8136
  400MOL0     C53883  11.931   2.452   8.734  1.3620 -0.9699 -0.2232
  400MOL0     C53884  11.976   2.450   8.613  0.2058 -0.5089  0.5750
  400MOL0     C53885  12.101   2.512   8.573 -0.6412  0.8127  0.3719
  400MOL0     C53886  12.215   2.424   8.552  0.5768  0.0805  0.6085
  400MOL0     C53887  12.348   2.487   8.511 -0.3422  0.2604 -0.7297
  400MOL0     C53888  12.320   2.621   8.433  0.1510 -0.3926 -0.5315
  400MOL0     O53889  12.434   2.687   8.381  0.5061  0.2375 -0.3975
  400MOL0     C53890  12.419   2.813   8.331  0.3587  0.0335  0.0316
  400MOL0     C53891  12.544   2.871   8.301  0.5039  0.5355  0.0090
  400MOL0     C53892  12.558   3.004   8.257 -0.2306 -0.1143  1.0852
  400MOL0     C53893  12.439   3.085   8.235 -0.5845 -0.6511 -0.1786
  400MOL0     C53894  12.458   3.216   8.154  0.2805  0.8797  0.5002
  400MOL0     O53895  12.585   3.239   8.095  0.9102  0.2810 -0.3145
  400MOL0     C53896  12.600   3.347   8.008 -0.1031 -0.7343  0.5300
  400MOL0     C53897  12.679   3.458   8.047  0.5186 -0.2095  0.2695
  400MOL0     C53898  12.705   3.561   7.962  0.3747  0.1479 -0.0252
  400MOL0     C53899  12.653   3.560   7.834  0.0489  0.4404  0.2030
  400MOL0     O53900  12.648   3.658   7.742  1.0036 -0.0938  0.2262
  400MOL0     C53901  12.731   3.777   7.756  0.3138  0.4373 -0.6334
  400MOL0     C53902  12.658   3.874   7.848  0.6903  0.3258 -0.1443
  400MOL0     C53903  12.597   3.988   7.769  0.0271  0.0325 -1.3203
  400MOL0     C53904  12.511   4.072   7.863 -0.8075 -0.7315 -0.2175
  400MOL0     C53905  12.456   4.197   7.802 -0.6371 -0.3801  0.0609
  400MOL0     C53906  12.355   4.270   7.884  0.0152  0.5694  0.2110
  400MOL0     C53907  12.225   4.180   7.902 -1.0358 -0.6152  0.0792
  400MOL0     C53908  12.124   4.273   7.960  0.3520  1.0014  0.3494
  400MOL0    Cl53909  12.170   4.296   8.133 -0.0309  0.1272 -0.3293
  400MOL0     C53910  12.582   3.449   7.788 -0.2660 -0.0480  0.1616
  400MOL0     C53911  12.557   3.341   7.874  0.0495 -0.5343 -0.0437
  400MOL0     O53912  12.362   3.292   8.146  0.4229 -0.1197  0.1252
  400MOL0     C53913  12.319   3.030   8.266  0.4846 -0.5151 -0.4830
  400MOL0     C53914  12.311   2.894   8.314  1.4528  0.6430 -0.7236
  400MOL0     N53915  11.887   2.399   8.527  0.1838  0.2995 -0.0571
  400MOL0     N53916  11.783   2.370   8.594  0.2918 -0.1140  0.8309
  400MOL0     C53917  11.454   3.017   8.336 -0.6038 -0.1404  0.7305
  400MOL0     C53918  11.495   2.992   8.202 -0.0976 -0.4847 -0.0592
  400MOL0     C53919  11.512   2.813   7.807  0.1691 -0.6712  0.0567
  400MOL0     C53920  11.494   2.913   7.709 -0.1053  0.1538  0.3103
  400MOL0     C53921  11.536   2.899   7.580  0.6245  0.7130  1.0316
  400MOL0     C53922  11.609   2.784   7.535  0.1509  0.1371 -0.1362
  400MOL0     O53923  11.653   2.773   7.409  0.2045 -0.9776 -0.0710
  400MOL0     C53924  11.773   2.830   7.368 -0.8648  0.5754 -0.5477
  400MOL0     C53925  11.851   2.715   7.294 -0.2330 -0.2678  0.1197
  400MOL0     C53926  11.770   2.645   7.183  0.2638 -1.0332  0.7833
  400MOL0     C53927  11.703   2.743   7.084  0.0080  0.6173  0.1107
  400MOL0     C53928  11.801   2.833   7.016 -0.5031 -0.6112 -0.8105
  400MOL0     C53929  11.878   2.917   6.968 -0.0550 -0.4364  0.0491
  400MOL0     C53930  11.636   2.684   7.634 -0.4456  0.1102 -0.0213
  400MOL0     C53931  11.596   2.700   7.767 -0.0016 -0.6504  0.6647
  400MOL0     C53932  11.644   2.584   7.855  0.0890  0.6425  0.3648
  400MOL0     H53933  11.194   2.988   8.060  2.4949  1.2103 -1.7056
  400MOL0     H53934  11.119   2.993   8.294  0.1957 -2.7057  2.2841
  400MOL0     H53935  11.469   3.019   8.604  0.5442 -0.3126  1.6367
  400MOL0     H53936  11.324   3.047   8.703  0.7316  0.6496  0.3156
  400MOL0     H53937  11.371   2.804   8.542  0.0775  0.6414 -0.1321
  400MOL0     H53938  11.229   2.829   8.653  0.5126 -2.6442  2.1456
  400MOL0     H53939  11.401   2.865   8.844 -0.3552 -0.0037 -0.4824
  400MOL0     H53940  11.520   2.794   8.740  0.8975  0.1539  3.0624
  400MOL0     H53941  11.255   2.667   8.824  2.3648  2.5879  2.3869
  400MOL0     H53942  11.359   2.596   8.700  1.7553 -2.4986  0.3133
  400MOL0     H53943  11.480   2.662   8.973  0.4719 -0.3790  2.1733
  400MOL0     H53944  11.387   2.516   8.970  1.8225 -0.8780  0.0333
  400MOL0     H53945  11.509   2.420   8.774 -0.1054 -1.3395  3.8212
  400MOL0     H53946  11.616   2.575   8.773 -1.5413  2.9876  2.0651
  400MOL0     H53947  11.595   2.363   8.989  0.4056 -2.2769 -1.5454
  400MOL0     H53948  11.703   2.502   8.985 -2.2709  0.5825  0.9582
  400MOL0     H53949  11.807   2.299   8.911  4.1772  2.2908 -1.2173
  400MOL0     H53950  11.664   2.265   8.807 -2.1553  3.0988 -3.4788
  400MOL0     H53951  11.976   2.491   8.825 -0.8076 -1.1872  1.0131
  400MOL0     H53952  12.088   2.577   8.486 -0.7655  0.3752  0.0595
  400MOL0     H53953  12.136   2.579   8.652  0.4425 -0.2240  0.7874
  400MOL0     H53954  12.233   2.366   8.643 -1.2872 -2.4111 -0.4556
  400MOL0     H53955  12.185   2.363   8.466 -2.6336  3.5625 -1.0046
  400MOL0     H53956  12.408   2.433   8.438  0.3182  0.5090 -0.3834
  400MOL0     H53957  12.412   2.502   8.598 -0.8987 -0.1672 -0.2302
  400MOL0     H53958  12.286   2.681   8.518  4.3527 -0.5784  1.5685
  400MOL0     H53959  12.246   2.610   8.354  1.1365 -0.8413 -1.4168
  400MOL0     H53960  12.636   2.822   8.333  0.4604  0.2607 -0.2829
  400MOL0     H53961  12.657   3.048   8.244  0.0486  0.6430  4.6117
  400MOL0     H53962  12.701   3.471   8.152 -3.0004 -2.7361  1.5184
  400MOL0     H53963  12.760   3.645   8.003  0.8511  1.8115 -3.6803
  400MOL0     H53964  12.825   3.744   7.801 -0.5741 -1.9794 -0.4039
  400MOL0     H53965  12.752   3.814   7.655 -0.5038  0.4115 -0.8183
  400MOL0     H53966  12.576   3.823   7.899  0.2532 -2.1144 -2.9900
  400MOL0     H53967  12.722   3.911   7.929 -0.9167  0.7871  0.9753
  400MOL0     H53968  12.678   4.055   7.740  0.5662  1.2481  2.4661
  400MOL0     H53969  12.540   3.948   7.685 -3.1133  2.0738 -0.3765
  400MOL0     H53970  12.570   4.100   7.950  0.9288 -3.3361 -0.4321
  400MOL0     H53971  12.442   3.995   7.900  2.3272 -3.1638  1.0929
  400MOL0     H53972  12.434   4.183   7.695  3.3946  0.8471 -1.1129
  400MOL0     H53973  12.543   4.262   7.791  0.7538 -1.7014  2.3548
  400MOL0     H53974  12.396   4.300   7.981 -2.2950  0.9491  1.1387
  400MOL0     H53975  12.328   4.364   7.835 -3.2594 -0.5567 -0.4429
  400MOL0     H53976  12.242   4.094   7.966 -3.4899 -1.6583 -0.5637
  400MOL0     H53977  12.180   4.145   7.809 -1.2136 -1.9482  0.6531
  400MOL0     H53978  12.129   4.370   7.909  0.2537  0.4010 -0.8406
  400MOL0     H53979  12.019   4.245   7.951  0.6460  0.0878 -0.3691
  400MOL0     H53980  12.543   3.444   7.687 -0.6387  0.6029  0.2634
  400MOL0     H53981  12.515   3.249   7.833 -0.3051  0.5314 -2.2084
  400MOL0     H53982  12.227   3.087   8.256  0.5849  0.0534  1.3582
  400MOL0     H53983  12.211   2.859   8.337  1.2406  1.9280  0.4919
  400MOL0     H53984  11.534   3.021   8.409 -0.5506 -0.5172  0.6926
  400MOL0     H53985  11.597   2.996   8.165  0.1516 -0.1394  0.6387
  400MOL0     H53986  11.424   2.995   7.723  2.3099  2.0970  1.8317
  400MOL0     H53987  11.520   2.981   7.510  0.4142 -1.9893 -2.3533
  400MOL0     H53988  11.831   2.882   7.445 -0.8485 -3.4242  2.4854
  400MOL0     H53989  11.749   2.902   7.290 -1.0712 -1.1783 -2.1742
  400MOL0     H53990  11.865   2.639   7.371 -1.3824 -0.6859 -0.0543
  400MOL0     H53991  11.952   2.740   7.263  0.1221  2.1174  2.8322
  400MOL0     H53992  11.697   2.577   7.228  1.0489 -1.2237  1.8237
  400MOL0     H53993  11.838   2.579   7.129 -1.8786 -4.0483  1.4914
  400MOL0     H53994  11.653   2.671   7.020 -0.3563  0.2182  0.8273
  400MOL0     H53995  11.616   2.792   7.129 -1.1165 -1.8344  0.7855
  400MOL0     H53996  11.951   2.993   6.948  0.0086 -0.4840  0.1025
  400MOL0     H53997  11.691   2.594   7.611  0.6181  0.7695 -0.1427
  400MOL0     H53998  11.590   2.495   7.822 -0.4049  2.1387 -3.3940
  400MOL0     H53999  11.752   2.569   7.851 -0.2113 -1.8270 -0.0575
  400MOL0     H54000  11.626   2.611   7.959  3.0029  1.3505  0.7795
  401MOL0     O54001  10.684  11.036   4.162 -0.4157  0.4430  0.4206
  401MOL0     C54002  10.634  11.098   4.069  0.3555 -0.5479 -0.9092
  401MOL0     O54003  10.577  11.041   3.960 -0.6075  0.4340 -0.4433
  401MOL0     C54004  10.553  10.910   3.955  0.8042  1.4741  0.6100
  401MOL0     C54005  10.652  10.815   3.969 -0.4500 -0.9192 -0.0473
  401MOL0     C54006  10.629  10.682   3.973  0.4005 -0.8771 -0.4933
  401MOL0     C54007  10.501  10.642   3.940  0.5736 -0.1602  0.0512
  401MOL0     O54008  10.488  10.506   3.920  0.1657 -0.5064  1.0884
  401MOL0     C54009  10.356  10.447   3.908  0.6438 -0.2480 -0.3072
  401MOL0     C54010  10.366  10.306   3.854  0.7746 -0.4131 -0.4483
  401MOL0     C54011  10.227  10.243   3.821  0.4153  0.1071 -0.6954
  401MOL0     C54012  10.239  10.094   3.784 -0.1284 -0.2531 -0.4072
  401MOL0     C54013  10.126  10.028   3.716  0.5539 -0.3203  0.2246
  401MOL0     C54014  10.117   9.878   3.744 -0.4407 -0.2658 -1.0612
  401MOL0     C54015  10.251   9.807   3.755 -0.1299  0.5860  0.0663
  401MOL0     C54016  10.211   9.666   3.798 -1.0493 -0.4547  0.0022
  401MOL0     N54017  10.325   9.573   3.782 -0.9810  0.0882 -0.5390
  401MOL0     C54018  10.358   9.483   3.877 -0.2357 -0.1967 -0.0680
  401MOL0     C54019  10.457   9.408   3.820 -0.5182 -0.3762  0.0919
  401MOL0     C54020  10.535   9.291   3.875  0.3882 -0.5340  0.3238
  401MOL0     C54021  10.466   9.163   3.835 -0.4421 -0.0381 -0.1229
  401MOL0     C54022  10.541   9.047   3.892 -0.7434 -0.4115  0.7244
  401MOL0     C54023  10.469   8.916   3.844 -0.5924 -1.1536  0.0115
  401MOL0     O54024  10.507   8.822   3.934 -0.2623  0.0165 -1.0059
  401MOL0     C54025  10.422   8.715   3.958 -0.3664 -0.2788 -0.3476
  401MOL0     C54026  10.381   8.696   4.093 -0.4677 -0.8982  0.4803
  401MOL0     C54027  10.297   8.595   4.120  0.1081 -0.5038  0.4634
  401MOL0     C54028  10.270   8.497   4.026 -0.1548 -0.3141 -0.1581
  401MOL0     C54029  10.189   8.378   4.078 -0.2040  0.0124  0.9230
  401MOL0     O54030  10.169   8.281   3.980  0.4302  0.1517  0.0912
  401MOL0     C54031  10.094   8.175   4.012 -0.9616  0.2786 -0.5817
  401MOL0     C54032  10.131   8.094   4.127  0.6352 -0.0446  0.5963
  401MOL0     C54033  10.067   7.968   4.137  0.1750  0.1151  0.5875
  401MOL0     C54034   9.977   7.922   4.047  0.6689  0.4897  0.8740
  401MOL0     O54035   9.919   7.797   4.080 -0.0639  0.3788  0.7005
  401MOL0     C54036   9.772   7.789   4.067 -0.7095 -0.0005 -0.0653
  401MOL0     C54037   9.721   7.678   4.158 -0.1467 -0.2724 -0.0060
  401MOL0     C54038   9.572   7.705   4.186 -0.6749  0.0506 -0.6600
  401MOL0     C54039   9.515   7.581   4.266 -0.6465  0.9448 -0.4405
  401MOL0     C54040   9.392   7.610   4.345 -0.0541  0.7164  0.7700
  401MOL0     C54041   9.422   7.690   4.474  0.1517 -0.3366 -0.7165
  401MOL0     C54042   9.317   7.680   4.587  0.4925  0.8910 -0.1951
  401MOL0     C54043   9.349   7.723   4.726  1.2004  0.0176 -0.1792
  401MOL0    Cl54044   9.415   7.889   4.721  0.0927 -0.1804 -0.1307
  401MOL0     C54045   9.939   7.999   3.940  0.4633 -0.9050 -0.0610
  401MOL0     C54046   9.997   8.124   3.924 -1.0997 -0.5065  0.1527
  401MOL0     O54047  10.141   8.383   4.191  0.3337  0.7189  0.0726
  401MOL0     C54048  10.305   8.515   3.894 -0.5975  0.6128 -0.3622
  401MOL0     C54049  10.390   8.621   3.861 -0.6495 -0.6379 -0.5321
  401MOL0     N54050  10.468   9.454   3.685 -0.2640 -0.5167 -0.8640
  401MOL0     N54051  10.387   9.544   3.665 -0.2521 -0.3467 -0.1793
  401MOL0     C54052  10.394  10.737   3.927  0.8033  0.0589 -0.4491
  401MOL0     C54053  10.416  10.875   3.937 -0.3808  0.4131  0.2183
  401MOL0     C54054  10.631  11.252   4.061  0.1303 -0.7200 -1.0967
  401MOL0     C54055  10.513  11.310   4.016 -0.0066 -0.4002  0.0031
  401MOL0     C54056  10.496  11.444   4.023 -0.0548  0.3675 -0.1605
  401MOL0     C54057  10.598  11.529   4.058  0.3290 -0.5655  0.5835
  401MOL0     O54058  10.587  11.662   4.057  0.3498 -0.3180 -0.3396
  401MOL0     C54059  10.645  11.731   4.173  0.2603 -0.2900 -0.4070
  401MOL0     C54060  10.672  11.879   4.145 -0.9345 -0.3508 -0.2401
  401MOL0     C54061  10.726  11.955   4.265 -0.4929 -0.0819 -0.6596
  401MOL0     C54062  10.619  12.010   4.350 -0.0078 -0.0695  0.4543
  401MOL0     C54063  10.671  12.089   4.461 -0.4528  0.1680 -0.6036
  401MOL0     C54064  10.728  12.156   4.549 -0.3170 -0.7563  0.1717
  401MOL0     C54065  10.716  11.467   4.086 -1.3199 -0.2658  0.0114
  401MOL0     C54066  10.733  11.330   4.092 -0.6099 -0.0794  0.6292
  401MOL0     C54067  10.864  11.270   4.130 -0.5371  0.3731  0.8369
  401MOL0     H54068  10.756  10.846   3.975 -0.3018 -0.6843 -2.8746
  401MOL0     H54069  10.711  10.614   3.994  1.8114  1.1411  0.9743
  401MOL0     H54070  10.295  10.462   3.997 -0.4481 -1.7143 -0.7670
  401MOL0     H54071  10.310  10.508   3.831 -0.4355 -0.0119  0.5014
  401MOL0     H54072  10.404  10.243   3.934  0.6178  2.6552  2.2496
  401MOL0     H54073  10.424  10.309   3.761 -0.7972  0.3819 -1.4517
  401MOL0     H54074  10.177  10.296   3.740 -3.2376 -2.3315 -0.2275
  401MOL0     H54075  10.170  10.252   3.914  1.5555  2.4506 -0.1360
  401MOL0     H54076  10.326  10.087   3.718 -0.7667  1.1687 -1.4647
  401MOL0     H54077  10.271  10.042   3.874  0.5908  0.2876 -0.3392
  401MOL0     H54078  10.030  10.062   3.755  2.0054  0.8928  3.0821
  401MOL0     H54079  10.145  10.048   3.610  7.0015  0.5222  1.1384
  401MOL0     H54080  10.053   9.868   3.833 -0.1141  0.4653 -0.7358
  401MOL0     H54081  10.044   9.837   3.673 -2.6507  2.4169 -0.5200
  401MOL0     H54082  10.322   9.847   3.828  4.5561 -5.2896 -0.5042
  401MOL0     H54083  10.304   9.801   3.660 -2.7894 -2.0854 -1.4092
  401MOL0     H54084  10.186   9.655   3.904  4.8685 -0.6177  1.6961
  401MOL0     H54085  10.135   9.631   3.727 -1.5771 -0.7978  0.7285
  401MOL0     H54086  10.315   9.464   3.974  0.6190 -1.9422  0.0004
  401MOL0     H54087  10.634   9.317   3.835 -0.0096  2.5904  1.0616
  401MOL0     H54088  10.558   9.298   3.981  1.5562  1.0198  0.0127
  401MOL0     H54089  10.368   9.161   3.884 -0.5867  0.7261 -0.3728
  401MOL0     H54090  10.465   9.161   3.726  1.5163  1.9871 -0.2450
  401MOL0     H54091  10.537   9.054   4.001 -2.8985 -1.6294  0.7737
  401MOL0     H54092  10.648   9.046   3.868 -0.0992 -1.3729  3.2564
  401MOL0     H54093  10.487   8.884   3.740  0.7172  2.9907 -1.2262
  401MOL0     H54094  10.361   8.930   3.856 -1.0739 -4.3468  0.4121
  401MOL0     H54095  10.409   8.774   4.163 -0.3551 -1.6168  1.2478
  401MOL0     H54096  10.278   8.570   4.224  0.9809  0.3877  0.8583
  401MOL0     H54097  10.198   8.126   4.206 -1.5514  2.7767  1.4965
  401MOL0     H54098  10.103   7.903   4.216  3.6216  1.7039  0.4905
  401MOL0     H54099   9.721   7.884   4.087  0.2734  0.8752 -1.5668
  401MOL0     H54100   9.733   7.758   3.969 -1.6464  3.1999 -0.8143
  401MOL0     H54101   9.752   7.586   4.109 -0.3048 -0.5033  0.3255
  401MOL0     H54102   9.769   7.681   4.256  0.5602 -2.1451 -0.2533
  401MOL0     H54103   9.556   7.791   4.252  2.3611 -2.3175  3.7080
  401MOL0     H54104   9.507   7.736   4.104 -0.6485  1.1821 -0.2684
  401MOL0     H54105   9.598   7.559   4.334 -2.0940 -0.0721  1.0764
  401MOL0     H54106   9.499   7.495   4.200  0.4139  1.9351 -2.0552
  401MOL0     H54107   9.352   7.511   4.369  0.8337 -0.0191 -0.6351
  401MOL0     H54108   9.324   7.665   4.279 -0.6141 -1.2444 -0.3590
  401MOL0     H54109   9.516   7.649   4.513 -0.1390  1.3824  2.0261
  401MOL0     H54110   9.431   7.793   4.440 -1.7237 -0.3864 -1.5101
  401MOL0     H54111   9.284   7.577   4.598 -1.8424  1.3741 -1.9307
  401MOL0     H54112   9.230   7.743   4.563  0.0905  0.3455 -0.1721
  401MOL0     H54113   9.258   7.709   4.784  0.0778 -0.0328 -1.8820
  401MOL0     H54114   9.435   7.666   4.764  0.0256 -1.2147  0.7362
  401MOL0     H54115   9.875   7.966   3.859 -2.3531  3.0733  0.2317
  401MOL0     H54116   9.968   8.180   3.836 -0.7842  0.3953  0.6134
  401MOL0     H54117  10.249   8.447   3.831 -3.8258 -0.3045  3.1471
  401MOL0     H54118  10.411   8.624   3.754 -2.1990 -1.1439 -0.8848
  401MOL0     H54119  10.295  10.714   3.889  0.6565 -1.4414  0.7333
  401MOL0     H54120  10.339  10.950   3.924  1.2930  1.7423 -3.5063
  401MOL0     H54121  10.439  11.240   3.981  1.3337 -1.2817 -1.1940
  401MOL0     H54122  10.402  11.491   3.995  1.6146  4.3915  0.4133
  401MOL0     H54123  10.739  11.691   4.214  0.5696 -0.6087 -1.4104
  401MOL0     H54124  10.574  11.730   4.256  0.1003 -0.0473 -0.5411
  401MOL0     H54125  10.572  11.916   4.120 -1.2216 -1.7461 -1.3279
  401MOL0     H54126  10.747  11.886   4.066  1.0914 -1.3999  1.5112
  401MOL0     H54127  10.794  12.030   4.222  0.7253  0.9102  2.6866
  401MOL0     H54128  10.769  11.873   4.322 -2.1619 -0.6153 -0.1001
  401MOL0     H54129  10.550  12.073   4.294 -0.5810 -1.1093 -0.0345
  401MOL0     H54130  10.568  11.928   4.402 -0.8700  2.9807  5.0493
  401MOL0     H54131  10.749  12.227   4.626 -1.7587  3.4181 -2.9309
  401MOL0     H54132  10.807  11.519   4.117 -2.1231  0.4139  1.3392
  401MOL0     H54133  10.943  11.341   4.158 -0.0859 -0.6606  2.3093
  401MOL0     H54134  10.852  11.195   4.208  1.7112 -3.8078 -2.4434
  401MOL0     H54135  10.910  11.220   4.045  2.9555 -0.4883  3.0007
  402MOL0     O54136   5.964   8.664   7.327  0.4878  0.2431  0.0302
  402MOL0     C54137   5.956   8.763   7.406  0.3044  0.3483  0.2511
  402MOL0     O54138   6.030   8.778   7.513 -0.0743 -0.0691 -0.2153
  402MOL0     C54139   6.114   8.679   7.549 -0.3278 -0.4633  0.3784
  402MOL0     C54140   6.248   8.707   7.539  0.1230  0.8006 -0.0464
  402MOL0     C54141   6.346   8.605   7.565  0.8936  0.2493  0.3474
  402MOL0     C54142   6.308   8.483   7.612 -0.2059  0.2767 -0.1371
  402MOL0     O54143   6.419   8.401   7.632  0.0092 -0.0519 -0.7567
  402MOL0     C54144   6.387   8.269   7.659  0.3380  0.4721  0.2351
  402MOL0     C54145   6.503   8.191   7.722  0.3070 -0.0775 -0.2501
  402MOL0     C54146   6.492   8.224   7.873  0.1121 -0.1880 -0.1788
  402MOL0     C54147   6.625   8.191   7.941 -0.8384  0.6018  0.1069
  402MOL0     C54148   6.621   8.213   8.096  0.4225 -0.0710 -0.2961
  402MOL0     C54149   6.686   8.343   8.150  1.0669  1.1517  0.4404
  402MOL0     C54150   6.647   8.347   8.299  0.6658  0.4499  0.3745
  402MOL0     C54151   6.700   8.467   8.382 -0.6838 -0.8672 -0.7455
  402MOL0     N54152   6.646   8.479   8.524  0.2891  0.0316  0.6723
  402MOL0     C54153   6.662   8.385   8.620  0.1664  0.0974 -0.2148
  402MOL0     C54154   6.605   8.445   8.725 -0.3576  0.5390  1.2361
  402MOL0     C54155   6.584   8.376   8.859 -0.0936  0.6976  0.7552
  402MOL0     C54156   6.716   8.350   8.929  0.2580  0.8599  0.3735
  402MOL0     C54157   6.697   8.290   9.076  0.6862  0.2469 -0.6421
  402MOL0     C54158   6.828   8.274   9.151 -1.2592 -0.3264  0.4410
  402MOL0     O54159   6.912   8.180   9.086  0.2524 -0.0575 -0.2841
  402MOL0     C54160   7.024   8.129   9.166  1.1618 -1.2791  0.9587
  402MOL0     C54161   7.078   8.204   9.276  0.8921  0.3620  0.3420
  402MOL0     C54162   7.175   8.150   9.356 -0.4537 -0.3260  0.5622
  402MOL0     C54163   7.219   8.021   9.334 -0.2170  0.8624 -0.5821
  402MOL0     C54164   7.313   7.962   9.436 -0.0226  0.2158  0.1292
  402MOL0     O54165   7.402   7.876   9.376  0.3207  0.3646  0.0963
  402MOL0     C54166   7.528   7.849   9.430 -0.1509  0.7486 -0.1685
  402MOL0     C54167   7.595   7.935   9.519  0.1076  0.6179  0.3485
  402MOL0     C54168   7.728   7.897   9.547  0.6150 -0.6104 -0.5321
  402MOL0     C54169   7.785   7.777   9.503 -0.2481 -1.1905  0.8621
  402MOL0     O54170   7.914   7.764   9.532 -0.1451 -0.2150  0.4539
  402MOL0     C54171   7.994   7.664   9.460 -0.0725  0.9195  1.1932
  402MOL0     C54172   8.018   7.535   9.535  0.0532  0.0490  1.0207
  402MOL0     C54173   8.103   7.428   9.468 -0.2014 -0.4412 -0.2638
  402MOL0     C54174   8.116   7.315   9.570  0.0553  0.8611 -0.7701
  402MOL0     C54175   8.186   7.188   9.534  0.0061 -0.1108 -0.3698
  402MOL0     C54176   8.110   7.115   9.422  0.2658  0.1766 -0.0988
  402MOL0     C54177   7.959   7.091   9.455 -0.6135 -0.7408 -0.3123
  402MOL0     C54178   7.888   6.976   9.390 -0.4353 -0.5531  0.3517
  402MOL0    Cl54179   7.722   6.972   9.459  0.3677  0.0747 -0.1580
  402MOL0     C54180   7.713   7.692   9.416  0.5854  0.2842 -1.3874
  402MOL0     C54181   7.588   7.729   9.384  0.8856 -0.9059  0.6770
  402MOL0     O54182   7.314   7.992   9.550 -0.5118 -0.0433  0.5093
  402MOL0     C54183   7.178   7.949   9.220  0.5761 -0.2039  0.8107
  402MOL0     C54184   7.084   8.004   9.131 -0.5473  0.2835  0.1237
  402MOL0     N54185   6.568   8.571   8.699  0.0565 -0.1616 -0.0319
  402MOL0     N54186   6.578   8.595   8.568 -0.2551 -0.0668 -1.1192
  402MOL0     C54187   6.169   8.449   7.608 -0.2168 -0.0294  0.4498
  402MOL0     C54188   6.077   8.549   7.572 -0.1614 -0.6836 -0.1691
  402MOL0     C54189   5.850   8.868   7.376 -0.1188  0.0099  0.3275
  402MOL0     C54190   5.773   8.851   7.263 -0.6975  0.1782 -0.0440
  402MOL0     C54191   5.685   8.954   7.229  0.9120 -0.1054  0.7155
  402MOL0     C54192   5.652   9.062   7.317  0.3569 -0.2470  0.1193
  402MOL0     O54193   5.542   9.141   7.293  0.6090 -0.4487 -0.6530
  402MOL0     C54194   5.454   9.119   7.180  0.9019  1.1297  0.8036
  402MOL0     C54195   5.319   9.164   7.212 -0.0974 -0.6421  0.1513
  402MOL0     C54196   5.232   9.069   7.294  0.4331  0.8736  0.5880
  402MOL0     C54197   5.144   8.972   7.202 -0.9551 -0.8059 -0.1077
  402MOL0     C54198   5.098   8.862   7.284  0.2328  0.4266  0.0572
  402MOL0     C54199   5.042   8.765   7.340 -0.6787 -0.4237  0.6063
  402MOL0     C54200   5.730   9.076   7.426 -0.2624  0.9612 -0.0876
  402MOL0     C54201   5.831   8.982   7.456 -0.0383 -0.1650  0.1289
  402MOL0     C54202   5.902   9.012   7.584  0.1250 -0.0873 -0.0933
  402MOL0     H54203   6.290   8.803   7.512 -1.4315  2.0568  1.7041
  402MOL0     H54204   6.452   8.620   7.546  1.3507 -3.5271 -0.9992
  402MOL0     H54205   6.304   8.260   7.728  1.4778 -3.0443  1.3540
  402MOL0     H54206   6.362   8.218   7.565  1.6148 -2.5391  1.4229
  402MOL0     H54207   6.604   8.216   7.688 -0.3345  1.9454 -0.8197
  402MOL0     H54208   6.476   8.086   7.705 -0.3104 -0.2656  1.6488
  402MOL0     H54209   6.408   8.162   7.908 -0.6132  0.8170 -0.1079
  402MOL0     H54210   6.463   8.327   7.897 -1.6031 -0.6553 -0.0595
  402MOL0     H54211   6.635   8.083   7.924 -2.5022  0.3264  0.7570
  402MOL0     H54212   6.713   8.232   7.890 -0.1870  0.8365  1.3876
  402MOL0     H54213   6.512   8.217   8.112  0.5186 -2.6252  1.4969
  402MOL0     H54214   6.659   8.123   8.144 -1.6103  0.3276  2.2821
  402MOL0     H54215   6.789   8.355   8.114 -0.4501  1.3290 -4.5009
  402MOL0     H54216   6.639   8.427   8.099  0.6470  2.1065  2.3164
  402MOL0     H54217   6.676   8.258   8.356 -0.5891  0.2218  0.6816
  402MOL0     H54218   6.538   8.349   8.309  0.8627  1.0319  2.8680
  402MOL0     H54219   6.809   8.455   8.382 -0.5232  0.4578 -0.9404
  402MOL0     H54220   6.685   8.558   8.323  0.4838 -0.4651 -0.4307
  402MOL0     H54221   6.712   8.289   8.610  0.1101 -0.2034  1.8652
  402MOL0     H54222   6.523   8.446   8.917 -4.6860 -1.2272 -1.2299
  402MOL0     H54223   6.525   8.284   8.853 -0.2600  0.8589 -0.5123
  402MOL0     H54224   6.778   8.279   8.873 -1.0628  0.5952 -0.8262
  402MOL0     H54225   6.776   8.441   8.937  1.5255  0.0616  0.2336
  402MOL0     H54226   6.647   8.193   9.072 -4.2628  2.3369  1.7901
  402MOL0     H54227   6.633   8.344   9.146  0.8088 -1.6604  1.0203
  402MOL0     H54228   6.804   8.228   9.247 -2.9161  0.6385  0.5379
  402MOL0     H54229   6.870   8.375   9.156  0.5845 -0.8683 -2.1813
  402MOL0     H54230   7.041   8.303   9.299  1.4147  0.7716 -0.5759
  402MOL0     H54231   7.212   8.199   9.446 -0.8195  2.3857 -0.6621
  402MOL0     H54232   7.555   8.026   9.563 -1.2903  1.0695 -1.7311
  402MOL0     H54233   7.792   7.966   9.600 -1.0193 -1.7854  3.3269
  402MOL0     H54234   7.956   7.637   9.361  0.7125 -0.3432  1.2230
  402MOL0     H54235   8.086   7.716   9.434 -1.9956  3.8304 -0.3783
  402MOL0     H54236   8.056   7.555   9.635  0.7265 -0.0402  0.7910
  402MOL0     H54237   7.919   7.497   9.560 -1.2061  1.9982 -0.7718
  402MOL0     H54238   8.067   7.385   9.374 -1.6821  0.7363 -0.2816
  402MOL0     H54239   8.197   7.473   9.436 -1.1738  1.8014 -0.1575
  402MOL0     H54240   8.023   7.297   9.624 -0.2061 -0.9356 -1.7396
  402MOL0     H54241   8.183   7.359   9.644  1.1259 -0.0092 -1.1822
  402MOL0     H54242   8.172   7.132   9.627 -3.8387  2.3794  0.7958
  402MOL0     H54243   8.293   7.190   9.512  0.4720 -0.4782  1.6557
  402MOL0     H54244   8.115   7.172   9.328  0.0672  2.3746  1.1546
  402MOL0     H54245   8.154   7.016   9.407  1.1907  0.2510  1.8279
  402MOL0     H54246   7.909   7.186   9.432  1.0796  0.3889  0.4137
  402MOL0     H54247   7.950   7.076   9.563 -1.4583 -3.6137 -0.6949
  402MOL0     H54248   7.877   7.002   9.284 -0.3579 -1.3122  0.1508
  402MOL0     H54249   7.928   6.877   9.412  2.3518  0.5989  0.8569
  402MOL0     H54250   7.744   7.593   9.384 -1.7199 -1.9008  2.3703
  402MOL0     H54251   7.533   7.661   9.320  2.9856 -1.4521 -0.6334
  402MOL0     H54252   7.216   7.849   9.199 -1.3506 -0.9365  0.6564
  402MOL0     H54253   7.058   7.942   9.045  0.0947  1.3039 -0.8362
  402MOL0     H54254   6.134   8.349   7.630 -1.9925  0.5653  0.5158
  402MOL0     H54255   5.972   8.530   7.550 -0.5509 -0.1932  1.1856
  402MOL0     H54256   5.788   8.762   7.203 -0.1347  1.6550 -2.2147
  402MOL0     H54257   5.635   8.941   7.133 -2.5315  3.3594  1.8043
  402MOL0     H54258   5.442   9.013   7.153 -1.0292  1.2566  0.9966
  402MOL0     H54259   5.488   9.179   7.096  2.2856  1.3832  1.5135
  402MOL0     H54260   5.262   9.190   7.122 -0.9665  1.1965  1.1699
  402MOL0     H54261   5.331   9.249   7.279 -0.1836 -1.3377  1.0603
  402MOL0     H54262   5.155   9.122   7.352 -0.8119  0.2563 -0.4455
  402MOL0     H54263   5.296   9.017   7.366  0.4797 -0.1052 -0.1341
  402MOL0     H54264   5.070   9.021   7.138 -0.8452 -0.0826  0.3009
  402MOL0     H54265   5.202   8.918   7.126  0.9040 -0.3323  0.9081
  402MOL0     H54266   4.993   8.678   7.379 -1.2785 -0.2946  0.1565
  402MOL0     H54267   5.692   9.141   7.504 -2.5037  1.5576 -1.5881
  402MOL0     H54268   6.007   8.999   7.555  0.1606 -0.9477  0.4128
  402MOL0     H54269   5.886   9.113   7.624  0.2463  0.4929 -1.4481
  402MOL0     H54270   5.879   8.943   7.665  0.0202  0.6342  0.5087
  403MOL0     O54271   3.315   0.160   6.267  0.3176  0.1808  0.8084
  403MOL0     C54272   3.380   0.266   6.263  0.6181 -0.2202 -0.7009
  403MOL0     O54273   3.432   0.325   6.379  0.0448  0.0161  0.0872
  403MOL0     C54274   3.419   0.261   6.500 -0.2782 -0.4460  0.5398
  403MOL0     C54275   3.477   0.136   6.517  0.0068  0.1494 -0.3595
  403MOL0     C54276   3.450   0.053   6.627 -0.0298 -0.1770 -0.2771
  403MOL0     C54277   3.371   0.109   6.735 -0.0371 -0.2931  0.2310
  403MOL0     O54278   3.357   0.036   6.846 -0.2026 -0.0950  0.3576
  403MOL0     C54279   3.488  -0.017   6.902  0.2646 -0.2591 -0.3822
  403MOL0     C54280   3.459  -0.002   7.060 -1.0839 -0.1004  0.9415
  403MOL0     C54281   3.588  -0.015   7.134 -0.8787  0.2225 -0.7312
  403MOL0     C54282   3.581   0.008   7.281  0.2908  0.5640  0.0536
  403MOL0     C54283   3.711   0.012   7.358 -0.0640 -0.2448 -0.4934
  403MOL0     C54284   3.683   0.040   7.508 -0.2983 -1.0202 -0.0334
  403MOL0     C54285   3.797  -0.018   7.587  0.6487  0.0963 -0.1799
  403MOL0     C54286   3.935   0.058   7.578 -0.9981  0.4097  0.0136
  403MOL0     N54287   3.955   0.159   7.681 -0.2201  0.0960  0.0194
  403MOL0     C54288   4.028   0.142   7.794 -0.7065 -0.4727 -0.0469
  403MOL0     C54289   4.026   0.265   7.857  0.1792  0.0381  0.2474
  403MOL0     C54290   4.099   0.312   7.982  0.0625  0.4634 -0.3165
  403MOL0     C54291   4.260   0.302   7.970  0.7916 -0.6913 -0.1474
  403MOL0     C54292   4.301   0.428   7.898 -0.6379 -0.6654  0.3811
  403MOL0     C54293   4.448   0.414   7.862  0.0736  0.0774  0.2019
  403MOL0     O54294   4.520   0.537   7.827 -0.3418 -0.1771  0.1279
  403MOL0     C54295   4.574   0.600   7.940 -0.1820  0.9239  0.9742
  403MOL0     C54296   4.545   0.737   7.968  1.0143  0.0890  0.9336
  403MOL0     C54297   4.601   0.795   8.082 -0.3911 -0.6948  0.5046
  403MOL0     C54298   4.666   0.727   8.176 -0.4278 -0.1233  0.5095
  403MOL0     C54299   4.714   0.801   8.295  0.0364 -0.2668  0.7471
  403MOL0     O54300   4.797   0.719   8.367 -0.3139  0.6432  0.5944
  403MOL0     C54301   4.847   0.756   8.494 -0.6521 -0.1134 -0.3341
  403MOL0     C54302   4.986   0.739   8.514 -0.2474  0.8761 -0.7068
  403MOL0     C54303   5.051   0.775   8.633 -0.5897  0.2565 -0.3856
  403MOL0     C54304   4.970   0.798   8.750 -0.1247 -1.2049 -0.0450
  403MOL0     O54305   5.032   0.823   8.871  0.9691 -0.0081 -0.0019
  403MOL0     C54306   5.008   0.957   8.923 -0.3879 -0.3613  0.2992
  403MOL0     C54307   5.064   1.069   8.841 -0.6664  0.1039 -0.2669
  403MOL0     C54308   5.223   1.065   8.812  0.3441  0.5262 -0.3303
  403MOL0     C54309   5.309   0.997   8.918 -0.7751 -0.1089 -0.1980
  403MOL0     C54310   5.458   0.998   8.867 -1.1598 -0.6526  0.0330
  403MOL0     C54311   5.497   0.908   8.754  0.1096 -0.4573 -0.3484
  403MOL0     C54312   5.456   0.765   8.786  0.2886  0.0170 -0.8254
  403MOL0     C54313   5.536   0.675   8.694 -0.3947 -0.5066  0.5451
  403MOL0    Cl54314   5.524   0.503   8.761 -0.2254  0.2360  0.0638
  403MOL0     C54315   4.831   0.801   8.731  0.3374 -0.1018 -0.0453
  403MOL0     C54316   4.771   0.792   8.603  0.7264  0.0167  0.3016
  403MOL0     O54317   4.690   0.921   8.324 -0.1258  0.1634 -0.0605
  403MOL0     C54318   4.682   0.586   8.158  0.2173  0.1642  1.4314
  403MOL0     C54319   4.644   0.526   8.040 -0.1379 -0.5431 -0.1355
  403MOL0     N54320   3.942   0.343   7.781 -0.2294 -0.2454 -0.6102
  403MOL0     N54321   3.904   0.286   7.679  0.6277 -0.1124  0.0030
  403MOL0     C54322   3.326   0.241   6.719 -0.3294  0.0060 -0.5445
  403MOL0     C54323   3.337   0.314   6.598  0.1364 -0.4332  0.3162
  403MOL0     C54324   3.388   0.345   6.139 -0.5886 -0.1991 -0.2332
  403MOL0     C54325   3.440   0.478   6.160 -0.1280  0.0419  0.3461
  403MOL0     C54326   3.457   0.557   6.049  0.4643  0.0267 -0.1383
  403MOL0     C54327   3.429   0.508   5.915  0.2476 -0.2072  0.4091
  403MOL0     O54328   3.451   0.587   5.804 -0.7472 -0.3686 -0.8175
  403MOL0     C54329   3.388   0.567   5.676  0.1758  0.7171  0.4885
  403MOL0     C54330   3.446   0.664   5.575  0.1307 -0.1016 -0.7129
  403MOL0     C54331   3.600   0.641   5.552  0.3987 -0.5530  0.2289
  403MOL0     C54332   3.637   0.743   5.445  0.8532  0.2641 -0.7572
  403MOL0     C54333   3.603   0.880   5.489  0.0563 -0.3462  0.1786
  403MOL0     C54334   3.567   0.998   5.514 -0.0932 -0.2122 -0.0279
  403MOL0     C54335   3.367   0.388   5.895  0.2818  0.6597  0.0074
  403MOL0     C54336   3.350   0.300   6.010 -0.1767 -0.4706  0.8263
  403MOL0     C54337   3.308   0.160   5.983 -0.4304  0.5364  0.6109
  403MOL0     H54338   3.555   0.106   6.448 -0.2007  2.4024 -1.6707
  403MOL0     H54339   3.482  -0.051   6.635 -2.8347 -1.0016  3.5535
  403MOL0     H54340   3.504  -0.121   6.869  2.3825 -0.0344 -0.2044
  403MOL0     H54341   3.583   0.030   6.874 -0.0604  0.2482 -0.6415
  403MOL0     H54342   3.389  -0.082   7.085 -2.3186 -0.3065 -2.6778
  403MOL0     H54343   3.408   0.091   7.089 -1.2516 -0.9325  3.6712
  403MOL0     H54344   3.652   0.052   7.076  0.5701 -1.6817 -1.4420
  403MOL0     H54345   3.630  -0.116   7.125  1.0804  0.7969  1.1502
  403MOL0     H54346   3.530   0.104   7.289 -3.4829 -0.9891 -2.7745
  403MOL0     H54347   3.517  -0.071   7.322  1.7031 -0.8073 -0.2875
  403MOL0     H54348   3.758  -0.087   7.353  0.8439  0.1206  0.4788
  403MOL0     H54349   3.776   0.093   7.323 -0.5055  1.6580  2.7351
  403MOL0     H54350   3.664   0.147   7.522 -0.1219 -0.8141 -1.2285
  403MOL0     H54351   3.590  -0.011   7.534 -0.7196 -0.6451 -0.7897
  403MOL0     H54352   3.798  -0.127   7.585  0.4546 -0.0733  3.3855
  403MOL0     H54353   3.767  -0.006   7.691  0.8731 -0.8307  0.0021
  403MOL0     H54354   4.022  -0.008   7.582 -0.2684  1.3337 -0.2883
  403MOL0     H54355   3.955   0.111   7.485 -2.3126  1.7748  0.4615
  403MOL0     H54356   4.094   0.058   7.817  2.6864  2.0908  0.4222
  403MOL0     H54357   4.079   0.415   8.011 -1.9808  0.4565 -1.5298
  403MOL0     H54358   4.072   0.239   8.059  2.4801 -0.6225 -0.3951
  403MOL0     H54359   4.312   0.291   8.065  0.6717  2.0309  0.3246
  403MOL0     H54360   4.287   0.219   7.905 -1.5927 -1.3738 -0.3878
  403MOL0     H54361   4.292   0.513   7.966  2.3834  1.5514 -1.7010
  403MOL0     H54362   4.248   0.457   7.807  3.7307  3.0373 -1.3661
  403MOL0     H54363   4.446   0.358   7.768  0.9426 -1.8790  1.2904
  403MOL0     H54364   4.502   0.359   7.940  0.4608 -0.8899 -0.7290
  403MOL0     H54365   4.478   0.801   7.911  0.7709  0.9879  2.1646
  403MOL0     H54366   4.589   0.903   8.094  2.1974 -0.0997 -1.4599
  403MOL0     H54367   5.053   0.713   8.432 -1.0090  2.0798 -1.7339
  403MOL0     H54368   5.157   0.755   8.646 -0.6423 -0.7413 -1.3953
  403MOL0     H54369   4.902   0.978   8.944 -1.7395 -0.5794 -4.8376
  403MOL0     H54370   5.055   0.960   9.021  1.1870  0.6286 -0.4519
  403MOL0     H54371   5.020   1.051   8.743  0.1621 -0.0608 -0.6235
  403MOL0     H54372   5.024   1.155   8.894 -0.8370 -0.7593  1.0384
  403MOL0     H54373   5.239   1.013   8.717 -2.4642  1.5401 -1.4511
  403MOL0     H54374   5.249   1.171   8.817  2.4200  0.1905  6.2532
  403MOL0     H54375   5.277   0.894   8.937  1.8647 -1.3767 -1.9695
  403MOL0     H54376   5.298   1.061   9.006  0.5921 -0.1419  0.0194
  403MOL0     H54377   5.519   0.976   8.955  1.7893 -1.5400 -2.0657
  403MOL0     H54378   5.485   1.099   8.836  2.1777 -2.1143 -2.4680
  403MOL0     H54379   5.463   0.939   8.655 -1.2621 -1.1971 -0.1379
  403MOL0     H54380   5.602   0.909   8.725  0.1540 -0.2468 -0.1744
  403MOL0     H54381   5.351   0.747   8.763  0.2152  0.5704 -0.9387
  403MOL0     H54382   5.484   0.738   8.889  1.5698  1.1289 -0.8471
  403MOL0     H54383   5.478   0.692   8.603 -1.1089  1.6890  1.3328
  403MOL0     H54384   5.643   0.698   8.693 -0.8875  2.2771  2.0088
  403MOL0     H54385   4.762   0.798   8.816 -1.4769 -1.6576 -1.4710
  403MOL0     H54386   4.663   0.796   8.600  0.7169 -0.4094 -1.6822
  403MOL0     H54387   4.737   0.527   8.231 -0.1547  0.7687  2.2113
  403MOL0     H54388   4.677   0.423   8.040  2.7916  0.2507  2.5675
  403MOL0     H54389   3.258   0.279   6.795 -1.6205 -2.0370 -0.6074
  403MOL0     H54390   3.288   0.411   6.594 -0.8374 -0.9219  0.0550
  403MOL0     H54391   3.468   0.520   6.256 -1.2046  0.9199  0.2980
  403MOL0     H54392   3.510   0.652   6.046  0.0834  0.2873  0.9472
  403MOL0     H54393   3.281   0.584   5.689 -0.0166  4.2014 -3.6968
  403MOL0     H54394   3.396   0.461   5.647  3.3847  1.5469 -2.2852
  403MOL0     H54395   3.433   0.763   5.620  1.3007 -1.3320  2.6433
  403MOL0     H54396   3.390   0.666   5.481 -2.7419 -0.3691  0.8873
  403MOL0     H54397   3.616   0.537   5.523 -1.9326 -0.8035 -0.3119
  403MOL0     H54398   3.657   0.669   5.642  0.1034  1.0665 -0.0489
  403MOL0     H54399   3.746   0.738   5.439  0.7220 -3.0048 -2.3672
  403MOL0     H54400   3.590   0.717   5.350 -5.1571  1.1232  1.4661
  403MOL0     H54401   3.539   1.090   5.560 -0.4325 -0.3303  0.0031
  403MOL0     H54402   3.330   0.350   5.800 -1.6914  2.1369  0.1103
  403MOL0     H54403   3.266   0.139   5.884 -0.4048 -0.0582  0.7246
  403MOL0     H54404   3.397   0.098   5.997 -0.9889 -1.3811 -3.0221
  403MOL0     H54405   3.233   0.124   6.054  1.5414 -4.3887  0.6149
  404MOL0     O54406   7.463   5.177   9.073 -0.2372  0.6587 -0.7714
  404MOL0     C54407   7.500   5.095   8.986 -0.1640  0.3193 -0.7477
  404MOL0     O54408   7.458   5.083   8.863  0.6615  0.4408  0.4525
  404MOL0     C54409   7.376   5.177   8.813  0.7926  0.0392 -0.1869
  404MOL0     C54410   7.416   5.248   8.696 -0.2931 -0.5790  0.1824
  404MOL0     C54411   7.339   5.336   8.625 -0.0843  0.0722  0.5571
  404MOL0     C54412   7.204   5.349   8.671 -0.9140  0.0418 -0.3483
  404MOL0     O54413   7.109   5.433   8.611 -0.3439 -0.1818 -0.1712
  404MOL0     C54414   7.154   5.499   8.484 -0.1623 -0.3888 -0.3947
  404MOL0     C54415   7.024   5.534   8.399  0.2010  0.0576  0.1626
  404MOL0     C54416   7.041   5.658   8.305  0.2628  0.1411 -0.1852
  404MOL0     C54417   7.048   5.790   8.390  0.7866  0.5822 -0.4350
  404MOL0     C54418   7.047   5.905   8.296  0.3120  1.0068  0.7491
  404MOL0     C54419   7.072   6.035   8.367  0.5006 -0.6412  0.2249
  404MOL0     C54420   7.081   6.159   8.274  0.3171  0.1553 -1.1705
  404MOL0     C54421   6.952   6.184   8.191 -0.0788 -0.3318  0.4939
  404MOL0     N54422   6.864   6.265   8.278  0.2464  0.2991 -0.2008
  404MOL0     C54423   6.853   6.405   8.256  0.1913  0.2615  0.1537
  404MOL0     C54424   6.740   6.431   8.327  0.0240 -1.1154  0.4648
  404MOL0     C54425   6.688   6.577   8.344  0.7126 -0.1151  0.0364
  404MOL0     C54426   6.563   6.582   8.430  0.6850  0.4875  0.0969
  404MOL0     C54427   6.530   6.731   8.433  0.0136  0.0654 -0.9767
  404MOL0     C54428   6.394   6.745   8.501 -0.2967 -0.4132 -0.6298
  404MOL0     O54429   6.346   6.883   8.480 -1.4166 -0.0029  0.7272
  404MOL0     C54430   6.242   6.923   8.563 -0.5522  0.2459 -0.5699
  404MOL0     C54431   6.165   6.835   8.638  0.3982  0.0344 -0.1719
  404MOL0     C54432   6.055   6.888   8.716 -0.1130 -0.1211 -0.5619
  404MOL0     C54433   6.030   7.026   8.736  0.3262  0.3021 -0.8746
  404MOL0     C54434   5.928   7.077   8.831  0.1306  1.6249 -0.2823
  404MOL0     O54435   5.904   7.215   8.830  0.3786  0.5614 -0.2992
  404MOL0     C54436   5.792   7.245   8.906  0.0738 -0.4251 -0.2449
  404MOL0     C54437   5.800   7.271   9.042 -0.4011 -0.1634 -0.2832
  404MOL0     C54438   5.691   7.288   9.126  0.8668  0.3558  0.1009
  404MOL0     C54439   5.567   7.285   9.059  0.8123 -0.2415  0.6043
  404MOL0     O54440   5.447   7.304   9.133  0.4499  0.1170 -0.0117
  404MOL0     C54441   5.444   7.373   9.260  0.2997  0.3844 -0.5217
  404MOL0     C54442   5.432   7.273   9.380 -0.3094  0.6333  0.4640
  404MOL0     C54443   5.315   7.174   9.373 -0.1002  0.2629 -0.1265
  404MOL0     C54444   5.294   7.116   9.512  0.9126  0.3977  0.2461
  404MOL0     C54445   5.190   6.997   9.512 -0.4005  0.4059 -0.4354
  404MOL0     C54446   5.038   7.031   9.479  0.8192  0.0836 -0.3434
  404MOL0     C54447   4.937   6.956   9.573  0.4785 -0.0611 -0.0901
  404MOL0     C54448   4.795   6.951   9.518  0.9495  0.1719  1.1499
  404MOL0    Cl54449   4.718   7.102   9.505 -0.3197 -0.3841 -0.2064
  404MOL0     C54450   5.554   7.269   8.920  0.8515 -0.4668  0.1461
  404MOL0     C54451   5.667   7.253   8.843  0.4121 -0.5466 -0.9536
  404MOL0     O54452   5.880   6.992   8.904  0.3858 -0.1116  0.1929
  404MOL0     C54453   6.109   7.117   8.661 -0.2245  0.0496  0.1830
  404MOL0     C54454   6.208   7.058   8.574 -0.7281 -0.0490  0.4338
  404MOL0     N54455   6.687   6.317   8.386 -0.3499 -0.9795 -0.5343
  404MOL0     N54456   6.755   6.220   8.345 -0.4159 -0.0892 -0.3634
  404MOL0     C54457   7.161   5.283   8.784  0.5358  0.6992  0.1651
  404MOL0     C54458   7.239   5.196   8.853 -0.3755  0.8172  1.4579
  404MOL0     C54459   7.587   4.984   9.026  0.4624 -0.1473  1.0717
  404MOL0     C54460   7.539   4.851   9.005 -0.0567 -0.5778 -0.1619
  404MOL0     C54461   7.616   4.752   9.061 -0.3964  0.8304  0.3502
  404MOL0     C54462   7.745   4.770   9.120  0.5086 -0.0375  0.7879
  404MOL0     O54463   7.821   4.655   9.159 -0.2338  0.1218 -0.1063
  404MOL0     C54464   7.946   4.662   9.229  0.5228 -0.1439  0.3739
  404MOL0     C54465   7.952   4.524   9.310  0.5423  0.3120 -0.3938
  404MOL0     C54466   8.093   4.506   9.358 -0.0304 -0.2864 -0.0343
  404MOL0     C54467   8.139   4.588   9.476  0.1084 -0.8583  0.0507
  404MOL0     C54468   8.250   4.516   9.541  0.0776  0.0883  1.2765
  404MOL0     C54469   8.337   4.450   9.594  0.6786 -0.1304 -0.2044
  404MOL0     C54470   7.789   4.898   9.135  0.7716  0.1164  0.1005
  404MOL0     C54471   7.712   5.006   9.094 -0.6780 -0.4342 -0.9151
  404MOL0     C54472   7.765   5.144   9.124  0.2583 -1.6030 -0.5729
  404MOL0     H54473   7.519   5.232   8.666  0.8964  3.1505  1.7302
  404MOL0     H54474   7.375   5.398   8.544 -0.5967  0.7560  0.8461
  404MOL0     H54475   7.216   5.588   8.496 -0.8906  0.2312 -1.1836
  404MOL0     H54476   7.205   5.416   8.434 -2.4908  0.2861 -4.2439
  404MOL0     H54477   6.938   5.531   8.466 -0.5620 -2.4636 -0.8306
  404MOL0     H54478   7.016   5.448   8.332 -1.1539 -1.4201  2.1186
  404MOL0     H54479   6.952   5.658   8.241 -0.7579 -3.5803  0.9682
  404MOL0     H54480   7.138   5.640   8.258  1.1371 -0.1287  1.6343
  404MOL0     H54481   6.958   5.790   8.452  0.0588 -3.5324 -1.1883
  404MOL0     H54482   7.134   5.798   8.457  2.0159 -0.7730 -1.7752
  404MOL0     H54483   7.129   5.883   8.227 -1.6770 -1.3703 -1.0424
  404MOL0     H54484   6.963   5.902   8.226  1.6179 -0.4048 -0.8658
  404MOL0     H54485   6.988   6.057   8.433  0.3355  2.4201 -0.8711
  404MOL0     H54486   7.164   6.029   8.426  2.5404 -0.2881 -2.6749
  404MOL0     H54487   7.166   6.159   8.206 -1.1518  0.8411 -3.0796
  404MOL0     H54488   7.099   6.254   8.324 -0.2211  1.3062 -3.0866
  404MOL0     H54489   6.971   6.240   8.099  1.2148 -0.1521  0.8548
  404MOL0     H54490   6.905   6.091   8.157  0.5988 -0.0499 -1.3468
  404MOL0     H54491   6.923   6.461   8.195  0.2435  0.1361  0.0969
  404MOL0     H54492   6.777   6.630   8.377  1.2684 -0.0511 -1.4695
  404MOL0     H54493   6.668   6.618   8.244  2.4400  2.5182  0.6909
  404MOL0     H54494   6.488   6.517   8.385  4.0973 -5.6679  2.0649
  404MOL0     H54495   6.574   6.537   8.529 -1.5783 -2.8598 -1.0003
  404MOL0     H54496   6.505   6.770   8.334 -1.0530 -0.2358 -0.8400
  404MOL0     H54497   6.615   6.784   8.477  1.0259 -2.5792  0.4657
  404MOL0     H54498   6.394   6.711   8.605 -1.1377 -2.1567 -1.1686
  404MOL0     H54499   6.326   6.673   8.456  1.0726 -1.2324 -1.4470
  404MOL0     H54500   6.185   6.729   8.648  0.3540  0.0463  0.0570
  404MOL0     H54501   5.991   6.816   8.765  0.1706  1.5250  2.4423
  404MOL0     H54502   5.895   7.256   9.091  1.6314 -1.5084 -4.1922
  404MOL0     H54503   5.703   7.297   9.233  1.9839  0.1981  0.0035
  404MOL0     H54504   5.528   7.441   9.278 -0.6394  1.1896  1.0294
  404MOL0     H54505   5.349   7.426   9.269 -0.7810 -1.1712 -2.0431
  404MOL0     H54506   5.523   7.212   9.375 -0.7727  0.0312 -1.2105
  404MOL0     H54507   5.429   7.321   9.479 -1.4522 -0.9909  1.2662
  404MOL0     H54508   5.221   7.210   9.329 -1.2397 -3.6258 -1.3145
  404MOL0     H54509   5.336   7.083   9.316  1.5344 -0.0431  0.9126
  404MOL0     H54510   5.260   7.191   9.584  1.8921  0.9964  0.1091
  404MOL0     H54511   5.389   7.067   9.538  0.7782 -1.3294 -2.1369
  404MOL0     H54512   5.188   6.958   9.614 -0.3722 -3.0967 -1.6246
  404MOL0     H54513   5.237   6.912   9.461  0.7128 -0.3144  1.6684
  404MOL0     H54514   5.026   7.139   9.493  1.0893  0.6856 -3.9153
  404MOL0     H54515   5.006   7.021   9.375  0.1602 -1.0715 -0.0568
  404MOL0     H54516   4.933   6.997   9.675 -0.2526  1.5266 -0.7236
  404MOL0     H54517   4.977   6.855   9.580  4.4931  1.4285  1.7908
  404MOL0     H54518   4.808   6.906   9.419 -0.4734  2.7519 -0.2992
  404MOL0     H54519   4.724   6.892   9.578 -0.5815  2.2905  1.5520
  404MOL0     H54520   5.458   7.264   8.870 -0.1153 -0.3405  1.8915
  404MOL0     H54521   5.661   7.256   8.735 -1.7453  2.0294 -0.8813
  404MOL0     H54522   6.095   7.224   8.673 -2.7722 -0.3614  1.3948
  404MOL0     H54523   6.260   7.123   8.504  0.0802  0.2955  1.3438
  404MOL0     H54524   7.058   5.290   8.817  1.2185 -0.1007  2.7005
  404MOL0     H54525   7.203   5.136   8.936  2.8983 -2.2744  0.8986
  404MOL0     H54526   7.447   4.841   8.948  1.0007  0.6519 -2.1980
  404MOL0     H54527   7.591   4.649   9.038  1.5481 -0.7333  4.4101
  404MOL0     H54528   7.940   4.744   9.301  0.1282  0.0582  0.1141
  404MOL0     H54529   8.032   4.668   9.162  0.2786  1.8324  0.1793
  404MOL0     H54530   7.918   4.439   9.250  0.1939 -0.8273  1.3622
  404MOL0     H54531   7.876   4.544   9.386 -0.6147  2.4129 -2.0017
  404MOL0     H54532   8.170   4.517   9.281 -0.0914 -0.6319 -0.1486
  404MOL0     H54533   8.093   4.402   9.392 -0.7763 -0.5118 -0.6857
  404MOL0     H54534   8.181   4.685   9.448 -0.4347 -1.1247 -1.8428
  404MOL0     H54535   8.058   4.602   9.549 -1.2557 -0.2637 -1.4928
  404MOL0     H54536   8.420   4.408   9.648 -0.7503  0.1956  2.4267
  404MOL0     H54537   7.870   4.931   9.199  0.3717  0.9173  0.2022
  404MOL0     H54538   7.873   5.159   9.113  0.0142 -1.0051 -2.5539
  404MOL0     H54539   7.715   5.214   9.057  0.5105  0.4898  1.3099
  404MOL0     H54540   7.742   5.164   9.229  1.2406 -0.2353 -0.5967
  405MOL0     O54541   0.539   5.987   3.669  0.2541 -0.3707  0.3627
  405MOL0     C54542   0.520   6.003   3.791 -0.1761  0.5307  0.6695
  405MOL0     O54543   0.453   5.908   3.871  0.2479  0.7679  0.1070
  405MOL0     C54544   0.371   5.825   3.805  0.2157  0.1161 -0.3760
  405MOL0     C54545   0.370   5.696   3.864 -0.1503 -0.0371  0.4333
  405MOL0     C54546   0.277   5.603   3.817  0.2760  0.9195 -0.3752
  405MOL0     C54547   0.199   5.631   3.705 -0.5137  0.0968 -0.6000
  405MOL0     O54548   0.117   5.548   3.626 -0.1193  0.1652  0.6656
  405MOL0     C54549   0.162   5.409   3.602  0.9881 -0.6180  0.6970
  405MOL0     C54550   0.083   5.340   3.493  0.5306  0.1776  0.5900
  405MOL0     C54551   0.122   5.377   3.350  0.9341  0.9742 -0.2372
  405MOL0     C54552   0.252   5.318   3.301 -0.3960  0.1384 -0.1508
  405MOL0     C54553   0.252   5.169   3.270  0.9420  0.0289  0.3282
  405MOL0     C54554   0.366   5.128   3.185  1.0078 -0.6787 -0.0562
  405MOL0     C54555   0.496   5.136   3.262  0.6887 -0.2695 -0.7951
  405MOL0     C54556   0.615   5.081   3.179 -0.1484 -0.2283 -0.9966
  405MOL0     N54557   0.730   5.054   3.260 -0.5429 -0.0144  0.0269
  405MOL0     C54558   0.826   5.148   3.303  0.2587 -0.2052  0.6113
  405MOL0     C54559   0.912   5.077   3.375 -0.2523 -0.2400 -0.5551
  405MOL0     C54560   1.033   5.136   3.431 -0.5918 -1.4319  0.6616
  405MOL0     C54561   1.088   5.060   3.550 -0.1898  0.4354 -1.2040
  405MOL0     C54562   1.027   5.115   3.681 -0.2622 -0.2798  0.5015
  405MOL0     C54563   1.122   5.098   3.802  0.0389  0.5457  0.2810
  405MOL0     O54564   1.268   5.109   3.778 -0.4141 -0.4608  0.5337
  405MOL0     C54565   1.350   5.071   3.888  0.0336  0.3272  0.0551
  405MOL0     C54566   1.300   5.034   4.017 -0.6900  0.1602 -0.1735
  405MOL0     C54567   1.384   5.022   4.126 -0.4353  0.0567  0.8864
  405MOL0     C54568   1.523   5.052   4.113  0.5771  1.1030 -0.7403
  405MOL0     C54569   1.610   5.061   4.238  0.1366  0.3385  0.2944
  405MOL0     O54570   1.745   5.101   4.225 -0.1115  0.4824  0.0248
  405MOL0     C54571   1.825   5.099   4.340  0.7594  0.0756 -1.3234
  405MOL0     C54572   1.952   5.033   4.328 -0.1735 -0.3892  0.1529
  405MOL0     C54573   2.041   5.019   4.432 -0.3888 -0.5565  0.4556
  405MOL0     C54574   2.014   5.080   4.548  0.1250  0.7356 -0.3656
  405MOL0     O54575   2.106   5.060   4.653  0.7932  0.4234  0.4857
  405MOL0     C54576   2.103   4.933   4.711  0.0591 -1.0507 -0.0525
  405MOL0     C54577   2.218   4.922   4.807 -0.1633  0.4847  0.8543
  405MOL0     C54578   2.184   4.996   4.931  0.4379 -0.1850 -0.8754
  405MOL0     C54579   2.312   5.034   5.002  0.6791  0.0188  0.1597
  405MOL0     C54580   2.266   5.129   5.123  0.2391 -0.3917  0.3387
  405MOL0     C54581   2.396   5.160   5.202  0.6770  0.4265  0.0182
  405MOL0     C54582   2.468   5.039   5.266  0.3522  0.1473 -0.2643
  405MOL0     C54583   2.437   5.009   5.418 -0.1348 -0.1868 -0.4593
  405MOL0    Cl54584   2.520   5.111   5.549  0.2580 -0.1057  0.3079
  405MOL0     C54585   1.896   5.149   4.570  0.0131  0.5980 -0.4428
  405MOL0     C54586   1.791   5.155   4.470  0.2395 -0.6722 -0.3644
  405MOL0     O54587   1.547   5.036   4.339 -0.1075  0.1422 -0.9180
  405MOL0     C54588   1.571   5.086   3.987 -0.0999  1.0353 -0.0226
  405MOL0     C54589   1.484   5.088   3.877  0.8321 -1.0544 -0.6086
  405MOL0     N54590   0.876   4.944   3.364 -0.1211 -0.1280  0.6695
  405MOL0     N54591   0.770   4.933   3.295  0.0131 -0.1726  0.9101
  405MOL0     C54592   0.202   5.759   3.654 -0.2828 -0.3547  0.4402
  405MOL0     C54593   0.288   5.855   3.699  0.9067  0.5665 -0.6275
  405MOL0     C54594   0.567   6.127   3.866  0.4570  0.1489 -0.6344
  405MOL0     C54595   0.500   6.159   3.989 -0.5647 -0.9409  0.9378
  405MOL0     C54596   0.520   6.292   4.043  0.2595  0.6143 -0.0634
  405MOL0     C54597   0.617   6.372   3.986 -0.3075 -0.1243  0.0970
  405MOL0     O54598   0.631   6.497   4.038 -0.0283  0.4656 -0.0459
  405MOL0     C54599   0.725   6.590   3.983 -0.6485 -0.9138  0.2251
  405MOL0     C54600   0.724   6.729   4.047 -0.2567  0.5709  0.1047
  405MOL0     C54601   0.696   6.727   4.202  0.2927  0.2152 -0.4510
  405MOL0     C54602   0.714   6.862   4.261  0.1265  0.4321 -0.2319
  405MOL0     C54603   0.856   6.907   4.268  0.3705 -0.0197  0.1845
  405MOL0     C54604   0.965   6.942   4.299  0.5644  1.1467  0.3375
  405MOL0     C54605   0.689   6.329   3.878  0.5755 -0.4674 -0.1082
  405MOL0     C54606   0.674   6.204   3.819 -0.3859 -0.4984 -1.3641
  405MOL0     C54607   0.773   6.166   3.716  0.0251 -0.7184  0.2126
  405MOL0     H54608   0.438   5.665   3.943  0.7228  1.0155  0.1122
  405MOL0     H54609   0.280   5.499   3.849 -1.2149  0.4984 -1.4626
  405MOL0     H54610   0.269   5.422   3.584  0.9363  0.0150  0.8220
  405MOL0     H54611   0.147   5.343   3.688  0.7205 -1.4271  0.0433
  405MOL0     H54612  -0.025   5.354   3.488  0.7229  1.3205 -1.0987
  405MOL0     H54613   0.107   5.234   3.506  1.4898 -0.1318 -2.7337
  405MOL0     H54614   0.136   5.486   3.353 -0.7175  1.2432 -1.4070
  405MOL0     H54615   0.047   5.344   3.279  0.4895 -0.9290  1.0360
  405MOL0     H54616   0.272   5.365   3.204 -0.8757 -1.7330 -1.1968
  405MOL0     H54617   0.326   5.342   3.378 -1.4506  1.6094  0.4565
  405MOL0     H54618   0.248   5.120   3.368 -0.9561 -2.5720 -0.9420
  405MOL0     H54619   0.159   5.142   3.222  0.5071  0.6742  0.7772
  405MOL0     H54620   0.346   5.029   3.143 -1.1028 -0.9037  1.3004
  405MOL0     H54621   0.377   5.201   3.104 -2.0049  0.5897  0.5333
  405MOL0     H54622   0.490   5.076   3.353  2.2898  1.5135  0.5842
  405MOL0     H54623   0.528   5.236   3.294  1.9722  0.0850 -2.9195
  405MOL0     H54624   0.578   4.986   3.139  0.1792 -1.1928  0.8691
  405MOL0     H54625   0.635   5.154   3.100 -1.3306  1.3322  0.1002
  405MOL0     H54626   0.840   5.253   3.277 -1.3497 -0.5163 -1.8264
  405MOL0     H54627   1.104   5.125   3.348 -2.1267 -1.1239 -0.7463
  405MOL0     H54628   1.021   5.243   3.449 -0.2097 -1.0635 -1.0618
  405MOL0     H54629   1.062   4.953   3.542  0.6819  0.0131  0.9101
  405MOL0     H54630   1.197   5.068   3.548 -0.1079 -0.0482  0.1677
  405MOL0     H54631   0.936   5.056   3.699 -2.2405  2.5961  0.5188
  405MOL0     H54632   1.003   5.220   3.664  0.7301 -0.2353 -0.7829
  405MOL0     H54633   1.102   5.001   3.848 -0.6345  0.3449 -0.4118
  405MOL0     H54634   1.109   5.177   3.875  5.7076  2.2241 -0.0420
  405MOL0     H54635   1.195   5.031   4.045 -0.5586  2.0961  0.6881
  405MOL0     H54636   1.333   5.001   4.219 -3.2485 -1.2649 -0.8266
  405MOL0     H54637   1.977   4.991   4.231  1.1781 -0.6077  0.5659
  405MOL0     H54638   2.138   4.972   4.419  0.1451  0.6299  0.0334
  405MOL0     H54639   2.008   4.926   4.766 -0.8395  0.5562 -1.2977
  405MOL0     H54640   2.103   4.858   4.631 -2.9377 -1.4479  0.1903
  405MOL0     H54641   2.246   4.821   4.835  1.3003 -0.3495 -3.0115
  405MOL0     H54642   2.304   4.962   4.753  0.0686 -1.5312 -0.3734
  405MOL0     H54643   2.131   5.088   4.906 -0.6376 -0.1441  1.3340
  405MOL0     H54644   2.108   4.952   4.996 -0.4465  0.5822 -1.3619
  405MOL0     H54645   2.380   5.092   4.939 -1.3424  0.9318 -1.3055
  405MOL0     H54646   2.352   4.934   5.019 -6.3692 -3.5957 -0.6345
  405MOL0     H54647   2.200   5.073   5.189  0.8312 -4.2476 -2.0240
  405MOL0     H54648   2.226   5.222   5.080  0.3792  0.1833  1.4166
  405MOL0     H54649   2.461   5.223   5.141 -1.5935  1.0558 -1.9464
  405MOL0     H54650   2.361   5.229   5.279  0.2486 -1.0853  1.2415
  405MOL0     H54651   2.572   5.064   5.245  0.7616 -1.2096  0.0693
  405MOL0     H54652   2.452   4.949   5.205 -0.9338  0.7693 -0.8996
  405MOL0     H54653   2.329   5.018   5.432 -0.1229 -1.1305  0.3384
  405MOL0     H54654   2.473   4.906   5.428  1.7441  0.6635  3.3532
  405MOL0     H54655   1.872   5.210   4.657  0.0244  2.5233 -1.7247
  405MOL0     H54656   1.700   5.207   4.494  1.8398  0.8506  3.0225
  405MOL0     H54657   1.676   5.114   3.983  0.6191 -1.3284  0.5112
  405MOL0     H54658   1.526   5.093   3.777  0.5240 -0.5166 -0.7113
  405MOL0     H54659   0.143   5.786   3.567  0.3578 -0.2754  0.0273
  405MOL0     H54660   0.277   5.955   3.658 -2.5797  0.1515 -0.9556
  405MOL0     H54661   0.419   6.097   4.026 -3.0850  1.9522  0.6716
  405MOL0     H54662   0.478   6.325   4.138 -3.3542 -1.8293 -0.5777
  405MOL0     H54663   0.714   6.611   3.876 -1.4378 -0.9083  0.3024
  405MOL0     H54664   0.822   6.541   3.995 -0.7978 -1.4254 -0.5570
  405MOL0     H54665   0.647   6.784   3.993 -1.7889 -3.2201 -1.9477
  405MOL0     H54666   0.820   6.776   4.024  0.0470 -0.0376  0.0930
  405MOL0     H54667   0.753   6.649   4.253  0.5594 -0.5513 -1.8661
  405MOL0     H54668   0.593   6.693   4.219  0.6608  0.5859  3.4361
  405MOL0     H54669   0.649   6.936   4.213 -2.0418 -1.0897  0.2218
  405MOL0     H54670   0.683   6.844   4.364 -0.2154  1.4569 -0.1435
  405MOL0     H54671   1.062   6.965   4.337  0.8203  2.2799 -0.9191
  405MOL0     H54672   0.766   6.392   3.836  0.0586  0.3881  0.2011
  405MOL0     H54673   0.837   6.253   3.698 -0.9050 -0.3401 -1.4936
  405MOL0     H54674   0.842   6.091   3.756  0.2367 -0.4461  0.3617
  405MOL0     H54675   0.717   6.145   3.625 -0.3610  1.5241 -0.1223
  406MOL0     O54676   7.786   6.148  10.873  0.2403  0.0001 -0.0048
  406MOL0     C54677   7.802   6.269  10.843  0.7129  0.3433  0.1415
  406MOL0     O54678   7.721   6.342  10.758  0.0633  0.9352  0.6313
  406MOL0     C54679   7.589   6.308  10.730  0.4474  0.2235  0.5469
  406MOL0     C54680   7.511   6.209  10.800  0.4505 -1.0136  0.2458
  406MOL0     C54681   7.377   6.192  10.779  1.0656 -0.7676  0.5015
  406MOL0     C54682   7.317   6.278  10.684  0.0338  0.5336 -0.0592
  406MOL0     O54683   7.183   6.281  10.659  1.3229  0.1795 -0.1231
  406MOL0     C54684   7.104   6.188  10.727 -0.2063  0.3996  0.9600
  406MOL0     C54685   6.958   6.231  10.706  0.9044 -0.1115 -1.1112
  406MOL0     C54686   6.864   6.122  10.757  0.6984  0.4575  0.4993
  406MOL0     C54687   6.724   6.171  10.761 -0.3434 -0.7976  0.3643
  406MOL0     C54688   6.630   6.053  10.815 -0.2187 -0.6835  0.1465
  406MOL0     C54689   6.661   5.998  10.951 -0.7582  0.3429  0.6537
  406MOL0     C54690   6.575   5.875  10.982 -0.4692  0.1981 -0.1534
  406MOL0     C54691   6.594   5.818  11.127 -0.3205 -0.0166 -0.2507
  406MOL0     N54692   6.523   5.689  11.142 -0.2553  0.3495  0.2849
  406MOL0     C54693   6.387   5.671  11.129 -0.6745  0.6871  0.7995
  406MOL0     C54694   6.378   5.531  11.128 -0.4332 -0.6297  0.1325
  406MOL0     C54695   6.247   5.461  11.106  0.6651  1.8652  0.4920
  406MOL0     C54696   6.207   5.473  10.958 -0.5853  0.0041  0.5259
  406MOL0     C54697   6.288   5.384  10.855 -0.4289  0.8722  0.6821
  406MOL0     C54698   6.232   5.405  10.719  0.1104 -0.4777 -0.7289
  406MOL0     O54699   6.267   5.538  10.672 -0.2784  0.0895  0.6320
  406MOL0     C54700   6.391   5.554  10.617  0.5254  1.3763  0.3903
  406MOL0     C54701   6.480   5.640  10.684 -0.0753 -0.0401 -1.0982
  406MOL0     C54702   6.617   5.655  10.641 -0.9683 -0.8979 -0.9970
  406MOL0     C54703   6.656   5.596  10.526 -0.8321 -0.3454  0.5875
  406MOL0     C54704   6.787   5.624  10.463 -1.1099  0.0448 -0.2484
  406MOL0     O54705   6.876   5.678  10.554  0.3884 -0.7470  0.0595
  406MOL0     C54706   6.995   5.743  10.521 -0.0803 -0.5511  0.6042
  406MOL0     C54707   7.012   5.808  10.398  0.4788 -0.9100 -0.2247
  406MOL0     C54708   7.127   5.881  10.384  1.0499 -0.3041 -0.2121
  406MOL0     C54709   7.226   5.902  10.484 -0.5855  0.0919 -0.1264
  406MOL0     O54710   7.338   5.981  10.476  0.1079  0.7236 -1.0185
  406MOL0     C54711   7.324   6.090  10.385  0.5993 -0.0647  0.2400
  406MOL0     C54712   7.454   6.157  10.389  0.4543  0.0588  0.4345
  406MOL0     C54713   7.558   6.091  10.298  0.0998  0.1698  0.6458
  406MOL0     C54714   7.699   6.143  10.341  0.6905 -0.3547 -0.0715
  406MOL0     C54715   7.815   6.090  10.261  0.0393 -0.8228  1.0314
  406MOL0     C54716   7.955   6.118  10.321 -0.4484 -0.2071  0.3010
  406MOL0     C54717   8.072   6.041  10.238  0.2396 -0.6498 -0.0197
  406MOL0     C54718   8.082   6.092  10.098  0.2892  0.6103  0.7466
  406MOL0    Cl54719   8.174   6.248  10.091  0.5715  0.2443 -0.0032
  406MOL0     C54720   7.212   5.822  10.599 -0.3026  0.1799  0.3186
  406MOL0     C54721   7.097   5.750  10.618  0.4966  0.5871  0.9559
  406MOL0     O54722   6.813   5.589  10.355  0.3941 -0.1648  0.3817
  406MOL0     C54723   6.557   5.514  10.452 -0.1990  0.3770  0.0237
  406MOL0     C54724   6.434   5.493  10.502  0.4761  0.2543 -1.0235
  406MOL0     N54725   6.502   5.477  11.151 -0.0498 -0.5088  0.0852
  406MOL0     N54726   6.589   5.574  11.144 -0.1620  0.6652 -0.4231
  406MOL0     C54727   7.391   6.375  10.618 -0.0692 -1.1870  1.0258
  406MOL0     C54728   7.529   6.386  10.630  0.4180 -0.2248  0.3984
  406MOL0     C54729   7.927   6.332  10.884 -0.4621  0.6633  0.1519
  406MOL0     C54730   7.962   6.450  10.821 -0.1546 -0.2257 -1.7906
  406MOL0     C54731   8.085   6.514  10.840  0.0274 -0.5222 -0.9273
  406MOL0     C54732   8.180   6.459  10.929 -0.2406 -1.3627  0.2982
  406MOL0     O54733   8.297   6.531  10.930 -0.0316  0.1329  0.5479
  406MOL0     C54734   8.409   6.465  10.985  0.4831  0.4967 -0.1750
  406MOL0     C54735   8.535   6.552  10.987  0.1116  0.3268  0.1504
  406MOL0     C54736   8.572   6.592  10.843 -0.1879 -0.0634 -0.8130
  406MOL0     C54737   8.668   6.696  10.831 -0.7978 -0.5050 -0.6829
  406MOL0     C54738   8.669   6.738  10.692 -0.2639  0.3954 -0.1859
  406MOL0     C54739   8.669   6.780  10.582 -0.2196  0.6756 -0.0389
  406MOL0     C54740   8.143   6.348  11.006  0.7003 -0.0481  0.0609
  406MOL0     C54741   8.023   6.280  10.977  0.8190  0.4477 -0.0205
  406MOL0     C54742   8.007   6.144  11.049  1.4305 -0.9429 -0.9657
  406MOL0     H54743   7.556   6.132  10.863 -2.1453 -3.0470 -0.1996
  406MOL0     H54744   7.328   6.113  10.834  1.2919 -1.9566 -0.9303
  406MOL0     H54745   7.110   6.091  10.677  1.1649  2.0414 -2.3674
  406MOL0     H54746   7.128   6.175  10.833 -1.3477 -2.4597  0.9409
  406MOL0     H54747   6.945   6.263  10.602 -0.3449  2.0145 -0.3640
  406MOL0     H54748   6.929   6.326  10.751 -1.3487  0.5023 -3.6224
  406MOL0     H54749   6.902   6.090  10.854  1.2436 -0.6341 -0.0557
  406MOL0     H54750   6.879   6.037  10.690  1.2707  1.5480 -0.8089
  406MOL0     H54751   6.712   6.258  10.827 -2.9980 -0.9914  0.2257
  406MOL0     H54752   6.685   6.210  10.667 -0.4203  0.5116  0.9134
  406MOL0     H54753   6.529   6.094  10.808  1.0029  2.2922 -2.8002
  406MOL0     H54754   6.638   5.970  10.744  0.6220 -0.1303 -0.4183
  406MOL0     H54755   6.765   5.968  10.968 -0.3191  0.2088 -1.8627
  406MOL0     H54756   6.636   6.083  11.015 -0.3697  2.2547 -1.5886
  406MOL0     H54757   6.604   5.804  10.905 -0.4328  1.9671 -1.8326
  406MOL0     H54758   6.472   5.908  10.965 -0.3983  1.7543  1.9310
  406MOL0     H54759   6.701   5.801  11.143 -0.3491 -1.3418 -1.2200
  406MOL0     H54760   6.547   5.889  11.196  1.5175  0.9536  0.0538
  406MOL0     H54761   6.312   5.749  11.119  0.2255  1.6802  1.4541
  406MOL0     H54762   6.255   5.357  11.141  0.6134  1.4977 -0.5497
  406MOL0     H54763   6.164   5.495  11.168 -0.1709 -1.2424  1.2904
  406MOL0     H54764   6.099   5.457  10.950 -0.3645 -1.9729  0.8491
  406MOL0     H54765   6.231   5.576  10.929 -1.5353 -0.0642 -0.5886
  406MOL0     H54766   6.274   5.281  10.888  0.7143  1.6222  3.8769
  406MOL0     H54767   6.396   5.399  10.845 -0.3921  0.1122 -0.1624
  406MOL0     H54768   6.123   5.398  10.716 -0.0005 -1.7696  2.6975
  406MOL0     H54769   6.269   5.326  10.653 -0.8642 -2.0102  0.4860
  406MOL0     H54770   6.441   5.684  10.775  0.6039  2.0577 -1.7682
  406MOL0     H54771   6.669   5.732  10.696 -1.9721  1.6164 -3.3284
  406MOL0     H54772   6.951   5.803  10.308  2.8034  0.1801 -1.9830
  406MOL0     H54773   7.141   5.916  10.282  2.1584 -0.1548 -0.0155
  406MOL0     H54774   7.309   6.058  10.281  1.2629  2.2645 -0.6246
  406MOL0     H54775   7.238   6.152  10.411  1.5274  1.1285  0.5608
  406MOL0     H54776   7.448   6.259  10.348 -1.1997 -0.4579 -0.7363
  406MOL0     H54777   7.469   6.163  10.497  0.9985  1.8314  0.2916
  406MOL0     H54778   7.555   5.981  10.297  0.1156  0.1407 -1.3797
  406MOL0     H54779   7.539   6.116  10.193  0.4319  1.5549  0.9031
  406MOL0     H54780   7.709   6.120  10.447  2.1961 -1.3708 -0.4074
  406MOL0     H54781   7.683   6.249  10.321 -0.4817  0.1666  3.0347
  406MOL0     H54782   7.807   6.137  10.163  0.0231  0.1284  1.4690
  406MOL0     H54783   7.805   5.984  10.237 -2.0509 -0.6560  0.9714
  406MOL0     H54784   7.965   6.226  10.306  3.4775 -0.1758  1.8983
  406MOL0     H54785   7.954   6.095  10.428  0.9992  0.0476  0.3974
  406MOL0     H54786   8.046   5.935  10.241 -1.7096 -0.2316 -0.2759
  406MOL0     H54787   8.167   6.040  10.292 -0.6496 -1.3602  1.6035
  406MOL0     H54788   8.145   6.026  10.038  0.5694  3.6277 -2.6108
  406MOL0     H54789   7.987   6.096  10.044 -0.4528  1.0481  2.0410
  406MOL0     H54790   7.287   5.814  10.677 -2.2657  4.8261  3.0984
  406MOL0     H54791   7.094   5.682  10.703  1.0196 -1.5519 -0.6418
  406MOL0     H54792   6.560   5.464  10.355 -0.7338 -0.7512  0.5758
  406MOL0     H54793   6.369   5.430  10.441  0.4338  2.8876 -3.9460
  406MOL0     H54794   7.330   6.442  10.559 -1.1801 -2.0395  1.1641
  406MOL0     H54795   7.588   6.466  10.588 -0.7549 -0.0288 -0.9889
  406MOL0     H54796   7.897   6.500  10.750 -0.9085 -0.4468 -1.2672
  406MOL0     H54797   8.110   6.600  10.779  0.6522  0.0904  0.1449
  406MOL0     H54798   8.423   6.365  10.944 -1.2755 -0.0860  0.5722
  406MOL0     H54799   8.396   6.441  11.090  3.5210 -2.1049 -0.2485
  406MOL0     H54800   8.603   6.479  11.032 -1.6092 -1.5937 -0.2069
  406MOL0     H54801   8.527   6.648  11.039 -3.4741 -0.0482  0.5582
  406MOL0     H54802   8.482   6.614  10.786  0.6368 -0.1486 -2.1751
  406MOL0     H54803   8.620   6.507  10.794 -0.4822 -1.6143  1.3902
  406MOL0     H54804   8.635   6.760  10.914 -0.3493 -0.5324 -0.4770
  406MOL0     H54805   8.767   6.665  10.865  0.5521  0.0100 -3.8007
  406MOL0     H54806   8.665   6.792  10.476 -0.1591 -3.0773 -0.5833
  406MOL0     H54807   8.213   6.311  11.081  0.2162  0.0293  0.5595
  406MOL0     H54808   8.016   6.061  10.978  0.6079 -0.8264 -1.2210
  406MOL0     H54809   8.087   6.132  11.122 -2.0704  0.9827  3.7179
  406MOL0     H54810   7.908   6.132  11.094  1.1298  0.0862 -1.3212
  407MOL0     O54811   4.326   0.839   4.099  0.2822  0.1509 -0.3780
  407MOL0     C54812   4.404   0.746   4.103 -0.9850  1.1879 -0.5882
  407MOL0     O54813   4.470   0.700   4.221  0.0586 -0.2926 -0.3573
  407MOL0     C54814   4.444   0.776   4.338  0.6510 -0.0763 -0.0671
  407MOL0     C54815   4.543   0.871   4.372  0.2288  0.3062  0.5578
  407MOL0     C54816   4.536   0.939   4.495 -0.2673  0.9099 -0.4616
  407MOL0     C54817   4.438   0.889   4.585 -1.2651  0.5816 -0.4204
  407MOL0     O54818   4.438   0.950   4.712  0.1872  0.4477  0.0401
  407MOL0     C54819   4.389   0.883   4.831  0.5873 -0.1864 -0.0515
  407MOL0     C54820   4.405   0.978   4.964 -0.3501 -0.1803 -0.2535
  407MOL0     C54821   4.550   1.041   4.951 -0.9410 -0.1227  0.6265
  407MOL0     C54822   4.581   1.129   5.072  0.5409  0.0671 -0.1977
  407MOL0     C54823   4.729   1.163   5.108 -0.1519 -0.5304 -0.7242
  407MOL0     C54824   4.758   1.289   5.189 -0.4844 -0.0297 -0.0993
  407MOL0     C54825   4.683   1.298   5.323  0.1440  0.7728  0.0459
  407MOL0     C54826   4.716   1.175   5.408  0.9404 -0.1948  0.3629
  407MOL0     N54827   4.679   1.192   5.549  0.4491 -0.6736 -0.9027
  407MOL0     C54828   4.727   1.292   5.635 -0.1507  0.2219  0.1567
  407MOL0     C54829   4.651   1.280   5.743  0.1481 -0.1590  1.1809
  407MOL0     C54830   4.657   1.341   5.877  0.2054  0.8100  0.9105
  407MOL0     C54831   4.734   1.271   5.992  0.0417 -0.3337 -0.1857
  407MOL0     C54832   4.714   1.327   6.134  0.3470 -0.3697 -0.4863
  407MOL0     C54833   4.818   1.270   6.227 -1.0609 -0.3000  0.5237
  407MOL0     O54834   4.934   1.357   6.226 -0.1422 -0.3725  0.8933
  407MOL0     C54835   5.063   1.313   6.195  0.1269  0.5583 -0.4755
  407MOL0     C54836   5.157   1.408   6.231  0.3472  0.9127 -0.2215
  407MOL0     C54837   5.289   1.387   6.207 -0.6308  1.9455 -0.6067
  407MOL0     C54838   5.337   1.261   6.153  0.4756 -0.4581 -0.1125
  407MOL0     C54839   5.478   1.241   6.128 -0.0238 -0.0626  0.1040
  407MOL0     O54840   5.556   1.347   6.119  0.0331 -0.5375  0.4382
  407MOL0     C54841   5.691   1.337   6.140 -0.4135  0.4071  0.3990
  407MOL0     C54842   5.780   1.357   6.031 -0.5443  0.1628 -0.6402
  407MOL0     C54843   5.920   1.367   6.054  0.3355  0.1240 -0.4984
  407MOL0     C54844   5.972   1.357   6.186  0.1118  0.1054 -0.1618
  407MOL0     O54845   6.106   1.367   6.218 -0.4314 -0.3457 -0.1719
  407MOL0     C54846   6.198   1.380   6.111  0.6389  0.4434 -0.2030
  407MOL0     C54847   6.328   1.398   6.177 -0.7694  0.5772  0.3692
  407MOL0     C54848   6.453   1.419   6.097  0.3887 -0.4024  0.7708
  407MOL0     C54849   6.586   1.371   6.154 -0.3010  0.1147 -0.6996
  407MOL0     C54850   6.686   1.390   6.036  0.4064  0.3605  0.2075
  407MOL0     C54851   6.826   1.358   6.090  0.6912  0.0069  0.1314
  407MOL0     C54852   6.936   1.342   5.979 -0.5358  0.4817  0.3787
  407MOL0     C54853   7.075   1.280   6.026  0.4138 -0.7406 -0.2184
  407MOL0    Cl54854   7.190   1.277   5.891 -0.3381  0.4476 -0.3432
  407MOL0     C54855   5.876   1.347   6.290 -0.2636 -0.0717  0.3184
  407MOL0     C54856   5.740   1.337   6.266  0.7508  0.0140 -0.6910
  407MOL0     O54857   5.516   1.123   6.113  0.1626 -0.1282  0.7548
  407MOL0     C54858   5.238   1.161   6.137  0.1099  0.7649  0.5797
  407MOL0     C54859   5.103   1.188   6.149  0.5034 -0.1166  0.2980
  407MOL0     N54860   4.561   1.182   5.724  0.3404  0.1841  0.2891
  407MOL0     N54861   4.569   1.136   5.604 -0.5929 -0.3160 -0.1663
  407MOL0     C54862   4.344   0.795   4.556 -0.6005 -0.7945 -0.3273
  407MOL0     C54863   4.335   0.739   4.424 -0.3167  0.3867  0.1266
  407MOL0     C54864   4.451   0.693   3.982 -0.1929  0.3960  0.4362
  407MOL0     C54865   4.582   0.650   3.979 -0.4243  1.0665 -0.2525
  407MOL0     C54866   4.633   0.603   3.858 -0.4475  0.0657  0.2147
  407MOL0     C54867   4.551   0.589   3.741  0.1338  0.2042  0.4427
  407MOL0     O54868   4.598   0.570   3.617  0.2030 -0.1355 -0.8252
  407MOL0     C54869   4.736   0.549   3.583 -0.2219  1.0073 -0.9029
  407MOL0     C54870   4.769   0.477   3.462  0.5504 -0.0168  0.3731
  407MOL0     C54871   4.761   0.566   3.338 -0.2894  1.2057  0.1422
  407MOL0     C54872   4.618   0.587   3.288  0.6360 -0.9609 -0.0600
  407MOL0     C54873   4.625   0.695   3.189  0.3659 -0.4331 -0.4065
  407MOL0     C54874   4.616   0.782   3.103 -1.5703 -0.2238  0.0581
  407MOL0     C54875   4.423   0.632   3.750  0.6520 -0.3067  1.1571
  407MOL0     C54876   4.363   0.689   3.864 -0.9913  0.4820  1.0734
  407MOL0     C54877   4.215   0.713   3.855 -0.2475  0.6585 -0.2490
  407MOL0     H54878   4.614   0.913   4.300 -0.1575 -0.0044 -0.0099
  407MOL0     H54879   4.607   1.020   4.512  0.6699  0.7231 -2.9624
  407MOL0     H54880   4.283   0.858   4.829  0.8805 -1.6513  0.9165
  407MOL0     H54881   4.438   0.788   4.857 -1.9673 -1.1235  1.7935
  407MOL0     H54882   4.401   0.929   5.062  3.3728  0.6622  0.4711
  407MOL0     H54883   4.323   1.050   4.966 -1.0916 -0.9908  2.2040
  407MOL0     H54884   4.567   1.098   4.860  2.6950 -1.0435  0.5356
  407MOL0     H54885   4.622   0.959   4.961  1.8468  2.0800 -0.1331
  407MOL0     H54886   4.528   1.223   5.054  0.6817  0.3205  0.6618
  407MOL0     H54887   4.546   1.077   5.161 -0.4282 -0.5740 -0.9330
  407MOL0     H54888   4.787   1.081   5.148 -0.7598  0.7274  3.1179
  407MOL0     H54889   4.776   1.199   5.016  1.7687  0.1671  0.4800
  407MOL0     H54890   4.860   1.294   5.227 -0.6535 -2.0874  0.8079
  407MOL0     H54891   4.742   1.378   5.128 -1.2106 -0.9873 -1.3669
  407MOL0     H54892   4.574   1.308   5.313  0.1758  0.1753 -1.0554
  407MOL0     H54893   4.714   1.390   5.373  0.8087  0.0072  1.0803
  407MOL0     H54894   4.658   1.091   5.368  3.2619 -1.7538  0.0958
  407MOL0     H54895   4.821   1.148   5.394  0.3778 -2.5973  0.3420
  407MOL0     H54896   4.803   1.367   5.617  0.3711 -0.2346  0.4470
  407MOL0     H54897   4.700   1.440   5.863  5.4053 -1.1876  0.4716
  407MOL0     H54898   4.552   1.349   5.906 -1.3011 -2.5440 -2.6348
  407MOL0     H54899   4.706   1.166   5.998 -2.6455  0.2564 -1.3419
  407MOL0     H54900   4.842   1.283   5.973  0.4465 -0.0567  1.9553
  407MOL0     H54901   4.619   1.298   6.180 -0.1451  2.4015  0.4100
  407MOL0     H54902   4.723   1.435   6.143  0.7990 -0.4151 -0.4164
  407MOL0     H54903   4.846   1.168   6.197 -2.8872 -0.9045  0.7584
  407MOL0     H54904   4.791   1.270   6.333 -1.8687 -0.5297  0.3250
  407MOL0     H54905   5.118   1.506   6.259 -1.3578  0.2424 -0.1667
  407MOL0     H54906   5.363   1.464   6.227  0.1253  2.3395 -4.2397
  407MOL0     H54907   5.734   1.379   5.936 -2.0671 -2.5705 -0.6220
  407MOL0     H54908   5.984   1.396   5.971 -0.0700 -2.6721 -1.8917
  407MOL0     H54909   6.204   1.286   6.055  2.6717  0.1165  0.4498
  407MOL0     H54910   6.173   1.465   6.047 -2.1090 -0.6837 -0.7392
  407MOL0     H54911   6.317   1.484   6.244  2.1653  0.5285  1.0420
  407MOL0     H54912   6.353   1.312   6.240 -0.8900 -0.8366 -1.4275
  407MOL0     H54913   6.448   1.379   5.995  4.5665  2.1190 -0.6834
  407MOL0     H54914   6.459   1.527   6.082  0.2251 -0.6123 -1.0962
  407MOL0     H54915   6.578   1.270   6.195 -0.6511  1.5903  3.2481
  407MOL0     H54916   6.606   1.434   6.241 -0.2242  1.2376 -1.5035
  407MOL0     H54917   6.671   1.493   6.000 -5.6350 -0.5668 -1.0759
  407MOL0     H54918   6.659   1.320   5.956 -1.5755  0.1234  1.0215
  407MOL0     H54919   6.856   1.431   6.165 -0.9277  1.7246 -0.7951
  407MOL0     H54920   6.820   1.256   6.130  0.4577 -0.0345 -0.0028
  407MOL0     H54921   6.956   1.439   5.932 -1.2941  1.6014  2.2441
  407MOL0     H54922   6.896   1.276   5.902  1.0444 -2.3766  1.8189
  407MOL0     H54923   7.117   1.328   6.115  0.5813 -0.0706 -0.6424
  407MOL0     H54924   7.058   1.177   6.058  0.6254  0.1637  3.2039
  407MOL0     H54925   5.898   1.356   6.396 -0.3504  4.1197  0.1184
  407MOL0     H54926   5.681   1.327   6.357  2.8284 -1.0119  0.6256
  407MOL0     H54927   5.261   1.061   6.104 -2.7286  0.0175  0.6148
  407MOL0     H54928   5.038   1.106   6.121 -1.4304  1.6690 -0.6989
  407MOL0     H54929   4.263   0.783   4.626  0.5966  2.6587  1.9468
  407MOL0     H54930   4.266   0.655   4.421 -1.6183  1.4482 -0.5987
  407MOL0     H54931   4.649   0.662   4.063  2.1341 -0.5559 -1.9409
  407MOL0     H54932   4.736   0.569   3.869 -0.4398 -0.9255 -2.3103
  407MOL0     H54933   4.784   0.495   3.665  2.3568  2.2050 -1.5301
  407MOL0     H54934   4.792   0.641   3.567 -0.6231  1.1032 -1.8734
  407MOL0     H54935   4.709   0.386   3.452 -1.6505  0.6686  4.7639
  407MOL0     H54936   4.873   0.448   3.477  0.5955  0.0603  0.2072
  407MOL0     H54937   4.818   0.527   3.253 -0.4634  0.0545  0.5387
  407MOL0     H54938   4.814   0.660   3.360  1.1737  0.1178  1.5290
  407MOL0     H54939   4.585   0.498   3.233  3.5894 -2.5280  0.5330
  407MOL0     H54940   4.554   0.620   3.370  1.4829  2.7366 -0.7001
  407MOL0     H54941   4.616   0.862   3.031  2.3096  0.5355  0.7029
  407MOL0     H54942   4.347   0.608   3.677  2.1599  0.8020 -0.8681
  407MOL0     H54943   4.206   0.817   3.823 -1.3447 -0.0600 -2.5048
  407MOL0     H54944   4.161   0.643   3.791  0.3502 -0.9641  0.9469
  407MOL0     H54945   4.170   0.705   3.955 -0.5663 -2.7682 -0.5488
  408MOL0     O54946   3.665   3.756  10.965  0.2949 -0.5543  0.3227
  408MOL0     C54947   3.741   3.847  10.956  0.5003 -0.3070 -0.2928
  408MOL0     O54948   3.805   3.887  10.842  0.4877 -0.7097  0.1963
  408MOL0     C54949   3.797   3.812  10.726  0.5206 -0.7431 -0.2159
  408MOL0     C54950   3.683   3.803  10.655  0.1827  0.4810 -0.6770
  408MOL0     C54951   3.672   3.735  10.530  0.0276 -0.4488  0.0821
  408MOL0     C54952   3.789   3.676  10.473  0.2974  0.3684  0.4211
  408MOL0     O54953   3.764   3.602  10.359  0.1076  0.3255  0.3869
  408MOL0     C54954   3.877   3.571  10.274 -0.2412  0.4517 -0.0480
  408MOL0     C54955   3.949   3.439  10.293  0.1581 -0.1895  0.6892
  408MOL0     C54956   3.999   3.382  10.162 -0.2589  0.0274 -0.0156
  408MOL0     C54957   4.094   3.269  10.194 -0.1202 -0.1371  0.1416
  408MOL0     C54958   4.123   3.166  10.087  0.4497 -1.2073 -0.2422
  408MOL0     C54959   4.223   3.069  10.152 -0.3999 -0.1159 -0.3615
  408MOL0     C54960   4.376   3.104  10.158 -1.0573  0.1400 -0.1350
  408MOL0     C54961   4.449   3.024  10.258 -0.1731 -0.7143 -0.3436
  408MOL0     N54962   4.602   3.030  10.254  0.5386  0.6520 -0.3495
  408MOL0     C54963   4.679   3.020  10.140  0.0177  0.2561  1.1349
  408MOL0     C54964   4.808   3.048  10.186 -0.3856 -0.8295 -0.1707
  408MOL0     C54965   4.937   3.040  10.103  1.0791 -0.9345 -0.2509
  408MOL0     C54966   5.056   3.014  10.190 -0.4186 -0.0022  0.6146
  408MOL0     C54967   5.046   2.869  10.247 -0.6617  0.5237  0.3415
  408MOL0     C54968   5.175   2.837  10.314  0.4193  0.2819 -0.7057
  408MOL0     O54969   5.170   2.696  10.340 -1.2552  0.0471  0.0087
  408MOL0     C54970   5.273   2.640  10.417 -0.2608  0.7783  0.7265
  408MOL0     C54971   5.336   2.536  10.354 -0.0100  0.0905 -0.5260
  408MOL0     C54972   5.461   2.484  10.410  0.7498 -0.0989  0.9483
  408MOL0     C54973   5.510   2.534  10.531 -0.5938  0.2722 -0.3734
  408MOL0     C54974   5.636   2.476  10.606  0.6306 -0.8577  0.9436
  408MOL0     O54975   5.641   2.504  10.739 -0.2164  0.3182 -0.6359
  408MOL0     C54976   5.766   2.463  10.792  0.0279 -0.5593  0.1248
  408MOL0     C54977   5.873   2.550  10.792 -0.1322  0.3721 -0.4562
  408MOL0     C54978   5.996   2.515  10.848  0.0026 -0.5133  0.7594
  408MOL0     C54979   6.014   2.391  10.900 -0.2517  0.6823  0.9508
  408MOL0     O54980   6.127   2.344  10.969 -0.4087 -0.1440  0.3397
  408MOL0     C54981   6.259   2.389  10.912 -0.1040  0.8902 -1.0209
  408MOL0     C54982   6.361   2.363  11.022  0.1825 -0.7108  0.4518
  408MOL0     C54983   6.384   2.485  11.113  0.0401  0.3345 -0.2752
  408MOL0     C54984   6.498   2.472  11.224  0.5632 -0.1126 -0.5048
  408MOL0     C54985   6.528   2.597  11.309  0.3706 -0.1723 -0.6440
  408MOL0     C54986   6.667   2.589  11.377  0.8385 -0.2895 -0.3545
  408MOL0     C54987   6.653   2.493  11.501  0.9625 -0.4964  0.2353
  408MOL0     C54988   6.771   2.429  11.549 -0.8109  1.0252 -0.1342
  408MOL0    Cl54989   6.897   2.549  11.592  0.1250  0.1518  0.0374
  408MOL0     C54990   5.913   2.303  10.898  0.5018  0.7563 -0.2820
  408MOL0     C54991   5.784   2.335  10.846 -0.0113 -0.2047 -0.1940
  408MOL0     O54992   5.700   2.388  10.549 -0.6166 -0.5015  0.6192
  408MOL0     C54993   5.440   2.639  10.595  1.0524  0.2409 -0.4794
  408MOL0     C54994   5.320   2.685  10.534  0.2611  0.6656 -1.0523
  408MOL0     N54995   4.797   3.094  10.314 -0.5771 -0.7356 -0.1691
  408MOL0     N54996   4.680   3.079  10.359  0.1849  0.2822  0.5049
  408MOL0     C54997   3.910   3.691  10.546 -0.3283 -0.3038 -0.1428
  408MOL0     C54998   3.915   3.759  10.665 -0.6087  0.0972 -0.3420
  408MOL0     C54999   3.750   3.939  11.075 -0.5198  0.1697 -0.3935
  408MOL0     C55000   3.879   3.999  11.104 -0.4952  0.7072 -0.0669
  408MOL0     C55001   3.898   4.076  11.218 -0.3951  0.6593 -0.4150
  408MOL0     C55002   3.792   4.123  11.298 -0.4862 -0.1631  0.1623
  408MOL0     O55003   3.820   4.206  11.405  0.4328  0.0438  0.4198
  408MOL0     C55004   3.852   4.135  11.518  0.1374  0.2278 -0.9093
  408MOL0     C55005   3.732   4.076  11.585  0.0573 -0.0264 -0.1384
  408MOL0     C55006   3.769   4.010  11.714 -0.0445  0.1835  0.1524
  408MOL0     C55007   3.817   3.865  11.691 -0.4487 -0.8069  0.5365
  408MOL0     C55008   3.857   3.791  11.812 -0.1337 -0.6659 -0.0479
  408MOL0     C55009   3.891   3.728  11.907  0.0128  0.3815 -0.3351
  408MOL0     C55010   3.664   4.074  11.264  0.0789 -0.5409  0.0666
  408MOL0     C55011   3.643   3.976  11.163 -0.0946 -0.4306 -0.0957
  408MOL0     C55012   3.502   3.928  11.146  0.2375 -0.5009  0.6439
  408MOL0     H55013   3.595   3.849  10.700  1.2308  2.3331 -0.4134
  408MOL0     H55014   3.577   3.715  10.482 -0.1106  3.3192 -1.5302
  408MOL0     H55015   3.846   3.580  10.170  1.7897 -0.1537 -0.7525
  408MOL0     H55016   3.947   3.654  10.279  1.3752 -0.8586 -0.1917
  408MOL0     H55017   3.872   3.365  10.319  0.9285 -2.1707 -2.1608
  408MOL0     H55018   4.020   3.446  10.376 -1.8821 -0.5078  2.5372
  408MOL0     H55019   4.052   3.456  10.101  0.0613 -2.6643 -3.2901
  408MOL0     H55020   3.921   3.340  10.098 -0.9972  2.3091 -0.6876
  408MOL0     H55021   4.181   3.322  10.235 -1.5625  0.8913  2.0599
  408MOL0     H55022   4.043   3.208  10.268 -3.0239 -1.1215 -2.4777
  408MOL0     H55023   4.028   3.118  10.061 -0.7095  0.4255  0.8170
  408MOL0     H55024   4.155   3.220   9.997  0.5988  0.3766  0.7148
  408MOL0     H55025   4.189   3.039  10.252  1.5396 -1.8275 -0.1570
  408MOL0     H55026   4.219   2.975  10.097  1.0739 -0.3293 -0.1610
  408MOL0     H55027   4.379   3.210  10.186 -0.5456 -0.0415  0.5300
  408MOL0     H55028   4.417   3.101  10.057 -1.6811  2.0676 -0.4834
  408MOL0     H55029   4.423   3.073  10.353 -0.1436 -3.7292  1.3401
  408MOL0     H55030   4.414   2.922  10.239 -1.6239 -0.1309 -0.9941
  408MOL0     H55031   4.644   2.980  10.045  2.8384  1.3832 -0.5016
  408MOL0     H55032   4.938   2.964  10.024  0.6093 -2.8305  1.5159
  408MOL0     H55033   4.949   3.139  10.057  1.7481 -0.6561  0.5010
  408MOL0     H55034   5.142   3.030  10.125 -0.6021 -0.3024  0.2937
  408MOL0     H55035   5.064   3.089  10.269  0.0222 -0.5392  1.0794
  408MOL0     H55036   5.029   2.804  10.160 -0.6298  1.9128 -0.7350
  408MOL0     H55037   4.955   2.862  10.308 -1.3874  1.6660 -0.5860
  408MOL0     H55038   5.178   2.888  10.411 -1.9740 -1.2927  0.2917
  408MOL0     H55039   5.260   2.858  10.248  0.6884 -2.9819 -1.5896
  408MOL0     H55040   5.309   2.511  10.252  0.6639  2.5493 -1.3725
  408MOL0     H55041   5.499   2.396  10.359 -2.2462 -1.5343  0.9727
  408MOL0     H55042   5.851   2.651  10.760  2.2217  1.4813  1.1478
  408MOL0     H55043   6.064   2.597  10.871 -0.4250  0.1320 -0.1673
  408MOL0     H55044   6.275   2.328  10.822  0.1076 -1.0098  0.2307
  408MOL0     H55045   6.260   2.495  10.889  1.6436  1.3365  0.8207
  408MOL0     H55046   6.336   2.275  11.081 -0.8166  0.6790  2.2169
  408MOL0     H55047   6.457   2.341  10.973  0.9236  1.4404  0.8044
  408MOL0     H55048   6.408   2.583  11.069  1.8342  0.6258  1.2114
  408MOL0     H55049   6.289   2.491  11.166 -0.1433  1.4895 -0.6930
  408MOL0     H55050   6.590   2.432  11.180 -0.1392 -0.3147 -1.8550
  408MOL0     H55051   6.460   2.389  11.284  0.8325  1.0426  1.3454
  408MOL0     H55052   6.448   2.620  11.380  0.0873 -1.0811 -0.6584
  408MOL0     H55053   6.527   2.688  11.248  0.9912  1.6051  1.8552
  408MOL0     H55054   6.744   2.545  11.314  1.1164 -0.7982  0.3289
  408MOL0     H55055   6.693   2.689  11.411 -0.9479  0.2215 -0.3640
  408MOL0     H55056   6.573   2.421  11.477 -1.3196  1.9360  0.0186
  408MOL0     H55057   6.624   2.556  11.586  0.7602  0.5241 -0.5620
  408MOL0     H55058   6.750   2.356  11.628  0.2925 -1.1049 -1.7020
  408MOL0     H55059   6.811   2.369  11.466  0.3210  0.4539  0.8103
  408MOL0     H55060   5.930   2.200  10.927  0.2562  0.3146 -1.6095
  408MOL0     H55061   5.714   2.257  10.819 -1.2496  0.8078 -0.0122
  408MOL0     H55062   5.472   2.671  10.693  2.5229 -0.6160 -0.6576
  408MOL0     H55063   5.284   2.771  10.588  1.5674  1.0660 -0.7881
  408MOL0     H55064   3.998   3.637  10.512 -1.3264 -1.5834 -0.8121
  408MOL0     H55065   4.013   3.769  10.712 -0.8731 -0.4693  0.3441
  408MOL0     H55066   3.967   3.974  11.046 -1.3979  0.5769 -1.4315
  408MOL0     H55067   3.994   4.119  11.246  0.2374 -1.8860  1.7629
  408MOL0     H55068   3.889   4.206  11.593  1.9321 -1.8037  0.2431
  408MOL0     H55069   3.932   4.065  11.491  0.0251 -0.9125  1.4739
  408MOL0     H55070   3.674   4.003  11.528  1.6058 -1.2912 -0.1561
  408MOL0     H55071   3.660   4.156  11.607 -1.1767 -0.0816 -3.5096
  408MOL0     H55072   3.680   3.992  11.776  0.6679 -0.1733  1.0888
  408MOL0     H55073   3.836   4.068  11.778 -3.4910  1.9437  2.5279
  408MOL0     H55074   3.732   3.813  11.646 -0.6320 -0.0901  0.0392
  408MOL0     H55075   3.907   3.857  11.630  2.1349 -0.6887  4.0585
  408MOL0     H55076   3.925   3.683  11.998 -2.3890 -1.4484 -0.2218
  408MOL0     H55077   3.584   4.114  11.326  0.8419  2.0443 -0.4903
  408MOL0     H55078   3.471   3.949  11.043 -2.5069  0.7293  1.6125
  408MOL0     H55079   3.499   3.821  11.169 -0.7990 -0.3146  1.4761
  408MOL0     H55080   3.433   3.979  11.214  2.1989  0.4142  2.0512
  409MOL0     O55081   3.495   4.806   2.290 -1.0868 -0.5551 -0.6121
  409MOL0     C55082   3.402   4.841   2.218 -0.5019  0.3376 -0.6683
  409MOL0     O55083   3.400   4.908   2.104  0.9475  0.2413  0.3874
  409MOL0     C55084   3.513   4.975   2.050 -0.3870 -0.2770 -0.2454
  409MOL0     C55085   3.642   4.987   2.115  1.1396 -0.2685 -1.4456
  409MOL0     C55086   3.753   5.043   2.057 -0.0102 -0.3983 -0.0991
  409MOL0     C55087   3.752   5.074   1.912  0.6413 -0.0550 -0.4669
  409MOL0     O55088   3.862   5.109   1.834  0.3472 -0.2405 -0.9172
  409MOL0     C55089   3.962   5.189   1.893  0.5435  0.5867  0.5437
  409MOL0     C55090   3.922   5.338   1.912 -0.1242  0.2376  0.1756
  409MOL0     C55091   3.886   5.406   1.782 -0.2625  0.0152 -0.5498
  409MOL0     C55092   3.846   5.545   1.803  0.1652 -0.4577 -0.5968
  409MOL0     C55093   3.698   5.576   1.782 -0.4460  1.1308  0.1205
  409MOL0     C55094   3.611   5.541   1.898 -0.0153 -0.7254  0.7847
  409MOL0     C55095   3.642   5.610   2.029 -0.7937  0.0408  0.1064
  409MOL0     C55096   3.593   5.761   2.027  0.0257  0.2703 -0.1542
  409MOL0     N55097   3.606   5.849   2.150  0.4482 -0.3111 -0.1876
  409MOL0     C55098   3.716   5.937   2.174  0.4770  0.5514  0.5182
  409MOL0     C55099   3.707   5.951   2.309  0.2056 -0.8223  0.4518
  409MOL0     C55100   3.804   6.044   2.376 -1.0781  0.7309  0.6201
  409MOL0     C55101   3.731   6.170   2.424 -0.2462  0.2944 -0.0715
  409MOL0     C55102   3.774   6.228   2.559  0.6430  0.6947  0.4303
  409MOL0     C55103   3.693   6.350   2.598  0.5354 -0.2510 -0.7731
  409MOL0     O55104   3.576   6.283   2.646 -0.3671 -0.5031 -0.5312
  409MOL0     C55105   3.487   6.369   2.700 -0.4241 -0.0611  0.2726
  409MOL0     C55106   3.461   6.502   2.650 -0.5762 -0.5401  0.0514
  409MOL0     C55107   3.364   6.574   2.719  0.2202 -0.6227 -1.2030
  409MOL0     C55108   3.300   6.524   2.839  0.5371  0.3085  0.6867
  409MOL0     C55109   3.202   6.606   2.909  0.8324  0.0402  0.9156
  409MOL0     O55110   3.118   6.537   2.991  0.4043 -0.0415 -0.4571
  409MOL0     C55111   3.027   6.612   3.058  0.1721 -1.2079 -0.1774
  409MOL0     C55112   2.896   6.569   3.047 -0.4045  0.7210 -0.2674
  409MOL0     C55113   2.789   6.634   3.121  0.3163  0.8047 -0.0017
  409MOL0     C55114   2.820   6.738   3.203 -0.7523 -0.0989  0.2742
  409MOL0     O55115   2.716   6.783   3.277 -0.0694  0.7189 -0.3036
  409MOL0     C55116   2.702   6.926   3.267 -0.9727  0.7149  1.0867
  409MOL0     C55117   2.620   6.972   3.388 -0.1608 -0.7610 -0.0482
  409MOL0     C55118   2.707   6.942   3.516  0.4970 -0.2228  0.4859
  409MOL0     C55119   2.645   6.986   3.648 -0.3650 -0.7570 -0.1264
  409MOL0     C55120   2.742   6.990   3.768 -0.1373  0.8804  0.7952
  409MOL0     C55121   2.709   7.077   3.892  0.4834 -1.2063 -0.0725
  409MOL0     C55122   2.833   7.090   3.977  0.0899  0.7778  0.5689
  409MOL0     C55123   2.814   7.140   4.120  0.5089  0.6471 -0.7134
  409MOL0    Cl55124   2.977   7.172   4.201 -0.1822 -0.4210 -0.2982
  409MOL0     C55125   2.951   6.783   3.218  0.3974 -1.1485 -0.0656
  409MOL0     C55126   3.054   6.717   3.146 -0.1425  0.0065  0.0213
  409MOL0     O55127   3.213   6.730   2.897  0.0312  1.0059  0.4628
  409MOL0     C55128   3.326   6.391   2.874  0.6657  0.2538  0.4236
  409MOL0     C55129   3.422   6.324   2.807  0.8182  0.7083 -0.4674
  409MOL0     N55130   3.604   5.872   2.366  0.2064  0.1080  0.0430
  409MOL0     N55131   3.545   5.810   2.266  0.8886 -0.2461 -0.5036
  409MOL0     C55132   3.622   5.066   1.850 -0.9553  0.0536  0.0550
  409MOL0     C55133   3.516   5.017   1.913 -0.1913  0.0425 -0.0821
  409MOL0     C55134   3.269   4.794   2.267  0.0346 -0.0719  0.7132
  409MOL0     C55135   3.249   4.812   2.404 -0.2516  0.2714 -0.2140
  409MOL0     C55136   3.121   4.768   2.457 -0.4758 -0.4177  0.2613
  409MOL0     C55137   3.013   4.721   2.381 -0.4307 -0.5524  0.0927
  409MOL0     O55138   2.885   4.683   2.428 -0.8584  0.1823 -0.2829
  409MOL0     C55139   2.876   4.601   2.545  0.3727 -0.0846  0.0515
  409MOL0     C55140   2.906   4.456   2.500 -1.0263 -0.0473  0.0234
  409MOL0     C55141   2.804   4.406   2.404  0.5473 -0.1359  0.1888
  409MOL0     C55142   2.812   4.255   2.407  0.8860 -0.2312 -0.3823
  409MOL0     C55143   2.769   4.205   2.284 -0.0315  0.5682  0.6773
  409MOL0     C55144   2.729   4.144   2.184 -0.5603  0.7595  0.2388
  409MOL0     C55145   3.035   4.714   2.245  0.2617  1.1634  0.1807
  409MOL0     C55146   3.161   4.744   2.191 -0.4263  0.2067 -0.9030
  409MOL0     C55147   3.172   4.712   2.047  0.8059  0.6090 -0.4478
  409MOL0     H55148   3.654   4.965   2.221  0.9349  3.8820 -0.3609
  409MOL0     H55149   3.839   5.056   2.123  0.2460  1.7498 -0.7736
  409MOL0     H55150   3.999   5.148   1.988  0.0670 -0.7483  0.1768
  409MOL0     H55151   4.043   5.204   1.822 -1.9470  1.0059 -2.4297
  409MOL0     H55152   3.994   5.396   1.971 -0.4960  0.1941  0.6871
  409MOL0     H55153   3.842   5.348   1.986  0.8851  1.6658  1.1391
  409MOL0     H55154   3.807   5.351   1.730  1.0299 -0.8685 -1.6384
  409MOL0     H55155   3.971   5.391   1.714 -0.3015 -3.4797  0.0231
  409MOL0     H55156   3.871   5.586   1.902  1.0830  1.3073 -1.5173
  409MOL0     H55157   3.894   5.597   1.721 -0.2522  2.8212  1.0707
  409MOL0     H55158   3.697   5.681   1.750 -2.2396  1.3655  0.8561
  409MOL0     H55159   3.674   5.510   1.698 -1.4886  2.0388 -0.3214
  409MOL0     H55160   3.507   5.553   1.866  1.0907 -1.3312 -3.6053
  409MOL0     H55161   3.633   5.435   1.916 -1.1052 -1.3474 -1.3099
  409MOL0     H55162   3.749   5.610   2.052 -0.8245  2.6901  0.5862
  409MOL0     H55163   3.591   5.563   2.113  0.6708 -1.1368  0.3732
  409MOL0     H55164   3.651   5.815   1.951 -0.1014 -0.2742 -0.6501
  409MOL0     H55165   3.488   5.768   2.000  0.0353  1.3963  0.0612
  409MOL0     H55166   3.778   5.979   2.096 -1.7882 -2.5620 -3.3154
  409MOL0     H55167   3.859   6.004   2.461  0.3503  0.8015 -0.2400
  409MOL0     H55168   3.885   6.077   2.311  2.3004 -1.3917  3.3924
  409MOL0     H55169   3.736   6.244   2.344  0.4032 -0.2891 -0.5788
  409MOL0     H55170   3.625   6.146   2.439 -0.3347  1.5703  1.7032
  409MOL0     H55171   3.874   6.271   2.545  1.0135 -0.3496 -0.2315
  409MOL0     H55172   3.769   6.157   2.642  0.4509  1.3124  0.9534
  409MOL0     H55173   3.670   6.399   2.503  0.7631 -1.5987 -1.5512
  409MOL0     H55174   3.754   6.414   2.662  1.5756 -2.8437  1.0389
  409MOL0     H55175   3.514   6.562   2.577 -1.2079  2.8555  2.1863
  409MOL0     H55176   3.339   6.672   2.681  2.6342  0.1472 -0.9437
  409MOL0     H55177   2.881   6.479   2.988  1.4975  0.4031 -0.3257
  409MOL0     H55178   2.689   6.594   3.126  0.5927  0.2031  1.1186
  409MOL0     H55179   2.793   6.987   3.269 -0.5888  0.2106 -0.0298
  409MOL0     H55180   2.655   6.946   3.170  2.4588  0.3336 -0.8294
  409MOL0     H55181   2.606   7.080   3.373  0.4231 -0.9795 -2.5550
  409MOL0     H55182   2.526   6.917   3.395  0.6185 -1.9487  2.1634
  409MOL0     H55183   2.725   6.834   3.517 -0.4291 -0.3787  1.5385
  409MOL0     H55184   2.806   6.986   3.501  0.6353 -1.0800 -1.4611
  409MOL0     H55185   2.553   6.929   3.667 -0.4924 -0.6582 -0.4369
  409MOL0     H55186   2.605   7.088   3.640 -1.4366 -1.2435 -1.4736
  409MOL0     H55187   2.836   7.026   3.726  0.2978 -1.5728 -0.5588
  409MOL0     H55188   2.760   6.888   3.804  1.0849  1.4990  2.0106
  409MOL0     H55189   2.687   7.177   3.854 -0.6189 -1.4320 -0.0689
  409MOL0     H55190   2.622   7.052   3.953 -0.4794  1.0507 -0.4206
  409MOL0     H55191   2.878   7.179   3.933 -0.3403  0.1102 -1.2876
  409MOL0     H55192   2.895   7.000   3.975  1.8586  1.9263  0.7732
  409MOL0     H55193   2.757   7.233   4.123 -2.2266 -0.9357 -0.2691
  409MOL0     H55194   2.769   7.063   4.184 -0.8233  0.0949 -2.2557
  409MOL0     H55195   2.974   6.862   3.289  2.1230 -1.1339 -0.5883
  409MOL0     H55196   3.155   6.746   3.175 -1.5644  1.2701  4.4247
  409MOL0     H55197   3.280   6.339   2.958  1.3888 -0.0000  0.6711
  409MOL0     H55198   3.452   6.224   2.836  3.8660  1.5848 -0.2558
  409MOL0     H55199   3.630   5.074   1.743  1.6447 -1.9914 -0.0146
  409MOL0     H55200   3.431   4.991   1.852  1.5101  1.2315 -3.1667
  409MOL0     H55201   3.331   4.859   2.457  0.5872 -1.0510 -0.3058
  409MOL0     H55202   3.106   4.796   2.561 -1.2326 -0.8070  0.2612
  409MOL0     H55203   2.772   4.601   2.579  1.0599 -1.8422  2.3958
  409MOL0     H55204   2.942   4.634   2.625 -0.5497  0.6930  0.5003
  409MOL0     H55205   2.905   4.394   2.590  0.9796  0.1053  0.2000
  409MOL0     H55206   2.998   4.456   2.440 -1.8976  0.2657 -1.3598
  409MOL0     H55207   2.841   4.440   2.307 -2.3342 -1.3743 -1.4687
  409MOL0     H55208   2.703   4.443   2.422  0.2670  1.1211 -3.2654
  409MOL0     H55209   2.913   4.213   2.407  1.2787  0.0334 -6.1967
  409MOL0     H55210   2.755   4.222   2.495  2.0095  0.9503  0.8402
  409MOL0     H55211   2.694   4.103   2.092  2.5411 -1.0904 -0.2591
  409MOL0     H55212   2.957   4.679   2.179  0.4367  1.8670 -0.4102
  409MOL0     H55213   3.231   4.620   2.056  0.6525  0.1631 -3.0509
  409MOL0     H55214   3.075   4.686   2.004  1.0854 -0.8830 -0.2313
  409MOL0     H55215   3.221   4.786   1.982  1.1403  0.2125 -0.6527
  410MOL0     O55216   0.432   4.113   6.181 -0.7829 -0.2717  0.2367
  410MOL0     C55217   0.509   4.174   6.102  0.3584  0.0696  0.3802
  410MOL0     O55218   0.640   4.202   6.122  1.2509 -0.7806 -0.3538
  410MOL0     C55219   0.705   4.152   6.230 -0.0546  0.5469  0.5108
  410MOL0     C55220   0.772   4.022   6.214  0.3144 -0.1892 -0.0693
  410MOL0     C55221   0.858   3.979   6.308  0.4689  0.6144  0.0783
  410MOL0     C55222   0.887   4.064   6.420  0.2244  0.4763 -0.5295
  410MOL0     O55223   0.982   4.032   6.521  0.1135  0.6379 -0.1061
  410MOL0     C55224   1.068   3.921   6.491 -0.4479  0.0199 -0.7558
  410MOL0     C55225   1.181   3.902   6.595  0.2376  0.8279 -0.1129
  410MOL0     C55226   1.285   3.799   6.537 -0.4451  0.3566  0.7492
  410MOL0     C55227   1.414   3.786   6.620 -0.1961  0.3799  0.6519
  410MOL0     C55228   1.514   3.703   6.547  0.4420 -0.5311 -0.0269
  410MOL0     C55229   1.488   3.560   6.578  0.4890 -0.6621  0.4813
  410MOL0     C55230   1.553   3.474   6.474  0.2844  0.9776 -0.2735
  410MOL0     C55231   1.695   3.451   6.499  0.5514  0.8019  0.1178
  410MOL0     N55232   1.757   3.336   6.433 -0.0428 -0.1302  0.5009
  410MOL0     C55233   1.729   3.209   6.456 -0.2922 -0.5305 -0.5373
  410MOL0     C55234   1.832   3.139   6.419 -0.2836  0.4535 -0.3731
  410MOL0     C55235   1.844   2.986   6.428 -0.5902  0.2816  0.3053
  410MOL0     C55236   1.716   2.907   6.447 -0.2222  0.0484  0.4942
  410MOL0     C55237   1.623   2.919   6.327 -0.7682 -0.0466 -0.1046
  410MOL0     C55238   1.511   2.817   6.327 -0.2511 -0.3790  0.3797
  410MOL0     O55239   1.427   2.852   6.435 -0.0162  0.2619  0.3513
  410MOL0     C55240   1.325   2.762   6.436  1.2456 -0.2238  0.5886
  410MOL0     C55241   1.238   2.741   6.328 -0.4617  0.3931 -0.9545
  410MOL0     C55242   1.137   2.639   6.326 -0.2522  1.0583 -0.8557
  410MOL0     C55243   1.119   2.567   6.446  0.3740  0.6425 -0.8803
  410MOL0     C55244   1.027   2.449   6.444 -0.5350  0.9007 -0.2791
  410MOL0     O55245   1.000   2.399   6.321 -0.0638 -0.6683  0.0607
  410MOL0     C55246   0.903   2.303   6.316 -0.1936  0.0155  0.0078
  410MOL0     C55247   0.764   2.341   6.304 -0.1349 -0.2473  0.0976
  410MOL0     C55248   0.663   2.241   6.303 -0.5311 -0.4509 -0.2836
  410MOL0     C55249   0.701   2.105   6.290 -0.0153 -0.9055 -0.4537
  410MOL0     O55250   0.615   2.001   6.289  0.0930  0.5716 -1.0611
  410MOL0     C55251   0.484   2.034   6.314 -0.2206  0.6434  0.8628
  410MOL0     C55252   0.408   1.902   6.316 -0.0940  0.6159 -0.0262
  410MOL0     C55253   0.261   1.928   6.297  0.3351 -0.7332  0.1136
  410MOL0     C55254   0.188   1.814   6.361 -0.0754  0.1855 -0.6089
  410MOL0     C55255   0.041   1.810   6.308 -0.2315 -0.5642 -0.1738
  410MOL0     C55256  -0.041   1.723   6.400 -0.0486 -0.0715  0.5019
  410MOL0     C55257  -0.136   1.642   6.320  0.1646  0.2579 -0.8923
  410MOL0     C55258  -0.251   1.718   6.249 -0.0170 -1.0041  0.2934
  410MOL0    Cl55259  -0.359   1.612   6.164  0.1955 -0.0245 -0.0056
  410MOL0     C55260   0.835   2.077   6.269 -0.2499  0.5345 -0.1729
  410MOL0     C55261   0.933   2.175   6.271 -0.8407 -0.4869  0.1681
  410MOL0     O55262   0.979   2.408   6.554  0.1973 -0.4093 -0.4963
  410MOL0     C55263   1.202   2.587   6.553 -0.3683  0.5955  0.0364
  410MOL0     C55264   1.302   2.684   6.554  0.1297 -1.0352 -0.1456
  410MOL0     N55265   1.919   3.229   6.351 -0.0304 -0.7091 -0.2544
  410MOL0     N55266   1.875   3.346   6.363 -0.3659 -0.3000 -0.0341
  410MOL0     C55267   0.801   4.171   6.449 -0.2494  0.4776  0.8470
  410MOL0     C55268   0.721   4.227   6.343  0.5166 -0.4753 -0.1230
  410MOL0     C55269   0.453   4.201   5.966 -0.0909  0.0641 -0.4751
  410MOL0     C55270   0.305   4.216   5.960 -0.5078  0.5614 -0.7267
  410MOL0     C55271   0.246   4.234   5.832  0.0322 -0.3482 -0.0936
  410MOL0     C55272   0.326   4.221   5.718  0.0885 -0.5625 -0.1529
  410MOL0     O55273   0.264   4.236   5.597  1.3172  0.5460 -1.0824
  410MOL0     C55274   0.326   4.192   5.479  0.2472  0.2171 -0.1266
  410MOL0     C55275   0.219   4.167   5.367  0.3458  0.3431  0.1282
  410MOL0     C55276   0.293   4.144   5.230 -0.0718  0.1126 -0.4457
  410MOL0     C55277   0.311   4.000   5.202 -0.3497  0.2939  0.1275
  410MOL0     C55278   0.413   3.918   5.285  0.0805  0.4245 -0.4437
  410MOL0     C55279   0.487   3.869   5.370  0.8937  0.2406  0.1651
  410MOL0     C55280   0.462   4.190   5.725 -0.1949  0.0542 -0.1978
  410MOL0     C55281   0.528   4.194   5.847 -0.0963 -0.3007 -0.3599
  410MOL0     C55282   0.678   4.174   5.846 -0.7935  0.0450 -0.6087
  410MOL0     H55283   0.752   3.962   6.125 -0.4468  1.7551 -1.2831
  410MOL0     H55284   0.914   3.887   6.297 -0.4517  0.1359 -0.8000
  410MOL0     H55285   1.006   3.831   6.482 -1.8360  1.1451 -5.1679
  410MOL0     H55286   1.117   3.941   6.395 -2.6295  2.0039 -1.5540
  410MOL0     H55287   1.140   3.854   6.685  1.5508 -1.8254 -0.8220
  410MOL0     H55288   1.213   4.002   6.624 -0.1367  1.0891 -0.5883
  410MOL0     H55289   1.314   3.826   6.435 -0.2042  1.4965  1.1073
  410MOL0     H55290   1.236   3.704   6.515  2.6918 -1.2723  0.2594
  410MOL0     H55291   1.448   3.889   6.635 -0.9534  0.5276  1.4734
  410MOL0     H55292   1.389   3.737   6.714  1.7989 -4.0790 -0.8623
  410MOL0     H55293   1.513   3.722   6.439  1.3511 -0.6403 -0.0556
  410MOL0     H55294   1.613   3.728   6.585 -0.9331  1.2423  2.6837
  410MOL0     H55295   1.532   3.542   6.677  2.8589  1.2044 -0.1361
  410MOL0     H55296   1.382   3.536   6.588  1.1240 -4.0137  0.1407
  410MOL0     H55297   1.531   3.523   6.379 -1.8565  1.1522  0.2545
  410MOL0     H55298   1.498   3.379   6.474  0.3688  0.9262  0.4204
  410MOL0     H55299   1.747   3.542   6.466  3.3313 -0.5314  0.4898
  410MOL0     H55300   1.703   3.436   6.608 -1.9692  2.0980  0.5521
  410MOL0     H55301   1.640   3.174   6.506 -2.5317  2.5042 -2.0971
  410MOL0     H55302   1.889   2.947   6.336  1.2019 -0.3735  1.4043
  410MOL0     H55303   1.907   2.961   6.514 -0.7216 -0.6944  0.1270
  410MOL0     H55304   1.741   2.801   6.458 -2.9869 -1.1308 -2.6147
  410MOL0     H55305   1.654   2.938   6.532 -1.9011  0.3638 -0.7889
  410MOL0     H55306   1.681   2.907   6.235 -1.0805  2.0489 -0.6183
  410MOL0     H55307   1.580   3.019   6.323 -0.9437 -0.1343 -0.4283
  410MOL0     H55308   1.559   2.719   6.315  3.0817  0.6877  3.1728
  410MOL0     H55309   1.455   2.841   6.236 -0.3454  0.3016  0.6174
  410MOL0     H55310   1.241   2.798   6.236  0.6491 -0.8648 -1.7365
  410MOL0     H55311   1.069   2.616   6.245  2.1835 -0.7932 -2.5118
  410MOL0     H55312   0.731   2.444   6.296  0.7045  0.0216 -0.0176
  410MOL0     H55313   0.560   2.276   6.292 -0.2183  0.0698 -1.8070
  410MOL0     H55314   0.469   2.095   6.404  1.3844  2.0340  0.2413
  410MOL0     H55315   0.460   2.101   6.231  1.0697  0.4574  0.3258
  410MOL0     H55316   0.445   1.835   6.238 -0.8481  0.9922 -0.7274
  410MOL0     H55317   0.431   1.855   6.412  0.9085 -0.5997 -0.8213
  410MOL0     H55318   0.245   2.029   6.337 -0.2359 -0.0842 -1.6594
  410MOL0     H55319   0.250   1.930   6.189  1.5940  1.4739 -0.0168
  410MOL0     H55320   0.181   1.840   6.467  0.6170  0.7954 -0.6992
  410MOL0     H55321   0.234   1.717   6.343 -2.6258 -1.2766  0.3930
  410MOL0     H55322   0.050   1.770   6.206 -1.6757 -2.1145  0.2602
  410MOL0     H55323  -0.004   1.910   6.304 -0.0584 -0.4309  1.0047
  410MOL0     H55324   0.027   1.651   6.448 -0.0255 -0.9244 -0.7656
  410MOL0     H55325  -0.096   1.770   6.483 -1.2842 -0.4486 -0.0850
  410MOL0     H55326  -0.172   1.556   6.377  0.9078  2.4102  3.1875
  410MOL0     H55327  -0.066   1.597   6.248  0.9794 -0.3814  0.2635
  410MOL0     H55328  -0.306   1.767   6.329 -0.8748 -1.5027  0.0300
  410MOL0     H55329  -0.219   1.790   6.173 -4.3713 -0.4120 -1.3109
  410MOL0     H55330   0.861   1.975   6.240 -0.7472  0.4962 -0.4893
  410MOL0     H55331   1.035   2.159   6.238 -1.4138 -4.4543 -0.1291
  410MOL0     H55332   1.176   2.533   6.643 -1.0317 -0.3031 -0.6603
  410MOL0     H55333   1.358   2.698   6.646 -1.5904 -0.1953  0.8126
  410MOL0     H55334   0.816   4.223   6.542  2.3105 -0.4991  1.0619
  410MOL0     H55335   0.660   4.317   6.349 -2.9636 -2.6649  0.3353
  410MOL0     H55336   0.243   4.215   6.049 -2.1772  0.9831 -1.8309
  410MOL0     H55337   0.144   4.269   5.824  0.9941  2.5981 -0.9611
  410MOL0     H55338   0.375   4.095   5.488  0.3892  0.0945 -1.8462
  410MOL0     H55339   0.396   4.274   5.460 -1.5664  1.6735 -0.8336
  410MOL0     H55340   0.140   4.243   5.364 -0.2606 -0.2186  0.9423
  410MOL0     H55341   0.172   4.074   5.402  1.5714 -1.3809 -2.5300
  410MOL0     H55342   0.387   4.199   5.222 -0.1096  0.1880 -0.3705
  410MOL0     H55343   0.228   4.192   5.156  0.2352  1.3004  0.0347
  410MOL0     H55344   0.215   3.949   5.220  1.0814 -2.1624  1.3542
  410MOL0     H55345   0.350   3.983   5.102 -0.5160 -4.1695  0.6307
  410MOL0     H55346   0.550   3.838   5.451 -2.3382  1.3069  3.3825
  410MOL0     H55347   0.510   4.176   5.629 -1.2792 -2.1050 -0.4674
  410MOL0     H55348   0.735   4.168   5.753  1.8906 -1.6651  0.9983
  410MOL0     H55349   0.741   4.253   5.889  3.9715 -2.7845 -1.6270
  410MOL0     H55350   0.699   4.084   5.905 -1.6896  1.7482  2.5683
  411MOL0     O55351   5.545   5.727   6.999  0.5626 -0.6942  0.2396
  411MOL0     C55352   5.581   5.734   6.882  0.0965 -0.6876  0.1073
  411MOL0     O55353   5.664   5.645   6.812  0.3701 -0.3398 -0.2629
  411MOL0     C55354   5.703   5.537   6.888 -0.7941  0.2341 -0.1941
  411MOL0     C55355   5.605   5.439   6.891  0.1405 -0.0561  0.4714
  411MOL0     C55356   5.635   5.320   6.959 -0.5968 -0.0350 -0.2904
  411MOL0     C55357   5.754   5.299   7.020 -0.0461 -0.2157 -0.8002
  411MOL0     O55358   5.779   5.178   7.089 -0.3200  0.2319  0.3393
  411MOL0     C55359   5.914   5.142   7.132 -0.1808 -0.0400 -0.4572
  411MOL0     C55360   5.899   5.029   7.234 -1.0694 -0.1932 -0.3418
  411MOL0     C55361   5.827   5.062   7.373 -0.1164 -0.6129  0.1810
  411MOL0     C55362   5.672   5.063   7.361 -0.7003  1.1555  0.5850
  411MOL0     C55363   5.611   5.109   7.487  0.2914  0.7486  0.5434
  411MOL0     C55364   5.631   5.018   7.606  0.4921 -0.8405 -0.5247
  411MOL0     C55365   5.575   5.066   7.740 -0.9280 -0.5616  1.1656
  411MOL0     C55366   5.571   4.936   7.822 -0.0120  0.5915  0.3507
  411MOL0     N55367   5.506   4.968   7.950 -0.2200 -0.8970 -1.1813
  411MOL0     C55368   5.532   5.075   8.044  0.0730 -0.4255 -0.5894
  411MOL0     C55369   5.444   5.059   8.139  0.7407  0.1987 -0.3040
  411MOL0     C55370   5.417   5.122   8.269  0.3621 -0.7649 -0.1537
  411MOL0     C55371   5.398   5.051   8.407  0.1157  0.4017  0.2442
  411MOL0     C55372   5.522   4.967   8.446  0.1304 -0.0290 -0.1486
  411MOL0     C55373   5.650   5.053   8.445 -0.2382  0.0338 -0.7172
  411MOL0     O55374   5.750   4.959   8.497  0.4137 -0.3945 -0.8203
  411MOL0     C55375   5.881   4.975   8.477  0.3318 -1.0824 -0.4671
  411MOL0     C55376   5.927   5.109   8.469 -0.4216 -0.6301 -0.3379
  411MOL0     C55377   6.062   5.146   8.453 -0.4292  0.0460 -0.0851
  411MOL0     C55378   6.159   5.045   8.447  0.8188  1.4036 -0.2982
  411MOL0     C55379   6.305   5.077   8.422 -0.1261  0.1466  0.0413
  411MOL0     O55380   6.396   4.971   8.435  0.1673  0.1580 -0.0829
  411MOL0     C55381   6.530   4.996   8.411  0.1922 -0.0022 -0.6273
  411MOL0     C55382   6.564   4.987   8.271  0.6532 -0.3282  0.1638
  411MOL0     C55383   6.691   5.008   8.230  0.6926  0.0623 -0.0728
  411MOL0     C55384   6.793   5.022   8.322 -0.1672  0.1310 -0.2328
  411MOL0     O55385   6.925   5.018   8.292 -0.6134 -0.0649  0.4727
  411MOL0     C55386   7.006   5.112   8.354  0.4462  0.6833 -0.5067
  411MOL0     C55387   7.133   5.150   8.274  0.7023 -0.2073  0.1250
  411MOL0     C55388   7.277   5.088   8.316  0.6617  0.6438 -0.0792
  411MOL0     C55389   7.290   4.945   8.338 -0.3601  1.2055  0.4363
  411MOL0     C55390   7.427   4.898   8.354 -0.0763  0.9915 -0.5714
  411MOL0     C55391   7.502   4.947   8.476 -0.0574 -0.5376  0.1886
  411MOL0     C55392   7.636   4.880   8.491  0.4870  0.7043 -0.3085
  411MOL0     C55393   7.681   4.893   8.639  0.5053  0.4166 -0.5068
  411MOL0    Cl55394   7.843   4.818   8.673 -0.0421 -0.0777 -0.8478
  411MOL0     C55395   6.764   5.013   8.460  0.1753  0.4778 -0.0010
  411MOL0     C55396   6.632   5.006   8.510 -0.6253  0.6085  0.0082
  411MOL0     O55397   6.334   5.192   8.391  0.3042 -0.7458  0.0866
  411MOL0     C55398   6.114   4.917   8.463  0.5641 -0.1706 -0.0482
  411MOL0     C55399   5.976   4.882   8.478  0.6823 -0.7424 -0.0079
  411MOL0     N55400   5.352   4.964   8.100 -0.2150  0.1274  0.0205
  411MOL0     N55401   5.400   4.898   8.000  0.0867  0.2196 -0.2870
  411MOL0     C55402   5.855   5.397   7.008  0.1009  0.7926 -0.2814
  411MOL0     C55403   5.829   5.516   6.944  0.0527  0.6047 -0.4044
  411MOL0     C55404   5.526   5.857   6.831  0.3216 -0.4328 -0.2715
  411MOL0     C55405   5.600   5.919   6.720  0.8061 -0.0418  1.0850
  411MOL0     C55406   5.555   6.033   6.653  0.0024  0.4422  0.8471
  411MOL0     C55407   5.437   6.103   6.695 -0.1812 -0.1094  0.3745
  411MOL0     O55408   5.404   6.232   6.670  0.4156 -1.0937  0.0681
  411MOL0     C55409   5.484   6.322   6.594  0.0352  0.0670  0.3285
  411MOL0     C55410   5.429   6.461   6.562  0.0503 -0.2631 -0.8857
  411MOL0     C55411   5.323   6.446   6.463 -0.3749  0.5579 -0.0816
  411MOL0     C55412   5.362   6.472   6.319 -0.2743 -0.6333 -0.3855
  411MOL0     C55413   5.366   6.621   6.296 -0.2584 -0.2252  0.1377
  411MOL0     C55414   5.388   6.741   6.284 -0.0482  0.1167 -0.2860
  411MOL0     C55415   5.362   6.036   6.803  0.7653 -0.0721  0.0778
  411MOL0     C55416   5.404   5.919   6.869  0.3219  0.3835  0.4961
  411MOL0     C55417   5.294   5.857   6.949  0.1794  0.1555 -0.4768
  411MOL0     H55418   5.506   5.451   6.848 -1.3922 -0.6186  3.6059
  411MOL0     H55419   5.570   5.234   6.954 -2.3345  1.0901  1.4755
  411MOL0     H55420   5.979   5.112   7.050 -1.4186 -3.2570 -0.3894
  411MOL0     H55421   5.968   5.224   7.181  0.2198 -0.0590 -0.8613
  411MOL0     H55422   6.000   5.000   7.265  0.3436  1.2214 -3.2370
  411MOL0     H55423   5.858   4.936   7.195 -1.1561 -0.5830  0.6537
  411MOL0     H55424   5.856   5.158   7.415  0.9056 -0.4384 -0.8976
  411MOL0     H55425   5.846   4.978   7.441 -1.5073 -0.5890  0.6412
  411MOL0     H55426   5.654   5.141   7.287  0.1944 -1.8079 -3.0615
  411MOL0     H55427   5.623   4.972   7.327 -3.5199  3.2474 -1.4379
  411MOL0     H55428   5.657   5.204   7.518  0.4720  1.6084 -2.1006
  411MOL0     H55429   5.502   5.116   7.481 -0.1563 -2.5922  2.5391
  411MOL0     H55430   5.576   4.925   7.586 -0.9447 -0.5574  1.7927
  411MOL0     H55431   5.740   5.002   7.609  0.6747  0.4527  2.7318
  411MOL0     H55432   5.474   5.107   7.731  0.0044  1.4214 -1.7583
  411MOL0     H55433   5.627   5.153   7.781 -1.7284  0.1402  0.7351
  411MOL0     H55434   5.502   4.865   7.776  1.0047 -1.9619  2.5452
  411MOL0     H55435   5.661   4.875   7.829 -0.8412 -0.8689 -0.9933
  411MOL0     H55436   5.614   5.146   8.039  1.4647 -2.0353 -3.1869
  411MOL0     H55437   5.483   5.205   8.295  0.7714 -1.1362  0.0122
  411MOL0     H55438   5.321   5.169   8.244 -0.1307 -3.1273 -3.2240
  411MOL0     H55439   5.360   5.114   8.489 -1.5273 -1.1571  0.7498
  411MOL0     H55440   5.319   4.976   8.397 -0.7759  0.9939  2.2717
  411MOL0     H55441   5.538   4.892   8.368 -1.2595 -0.8693  0.3349
  411MOL0     H55442   5.509   4.919   8.544 -0.6843 -1.4301 -0.9176
  411MOL0     H55443   5.637   5.137   8.514  0.9395  0.8741 -1.4715
  411MOL0     H55444   5.682   5.101   8.352  2.4664 -1.0545 -0.4376
  411MOL0     H55445   5.865   5.195   8.449 -2.1999 -2.0713 -1.3029
  411MOL0     H55446   6.080   5.250   8.431  2.1866  0.0119  1.4882
  411MOL0     H55447   6.488   4.980   8.194  1.7167  1.5010 -1.1333
  411MOL0     H55448   6.700   4.995   8.123  2.5748  3.6155 -0.5166
  411MOL0     H55449   6.948   5.203   8.372  1.9876  1.1330  3.0989
  411MOL0     H55450   7.034   5.082   8.455  1.5709  0.5645 -0.8405
  411MOL0     H55451   7.106   5.128   8.170 -2.0058  1.0839  0.4920
  411MOL0     H55452   7.151   5.257   8.283  0.6698 -0.2082  0.1937
  411MOL0     H55453   7.340   5.122   8.234  0.1613 -0.8703 -1.1223
  411MOL0     H55454   7.311   5.129   8.412 -0.2115 -1.7173  1.3050
  411MOL0     H55455   7.236   4.889   8.261 -2.0586  2.2686  0.8182
  411MOL0     H55456   7.234   4.916   8.427  0.3725  0.4151  0.6562
  411MOL0     H55457   7.488   4.914   8.265  0.2785 -2.1926 -1.0437
  411MOL0     H55458   7.420   4.789   8.370  0.0664  0.9600 -0.7321
  411MOL0     H55459   7.507   5.056   8.472  1.5791 -0.5429  1.3766
  411MOL0     H55460   7.437   4.917   8.559 -1.9369 -0.1557 -1.0876
  411MOL0     H55461   7.718   4.913   8.427  2.1260 -0.8428  0.9241
  411MOL0     H55462   7.626   4.773   8.471 -5.4409 -0.0425  3.9701
  411MOL0     H55463   7.679   4.997   8.672 -0.5644 -0.5755  2.8662
  411MOL0     H55464   7.607   4.843   8.702  2.6740 -0.8799  1.1489
  411MOL0     H55465   6.848   5.031   8.526  1.3044  1.0102 -1.5136
  411MOL0     H55466   6.611   5.000   8.616  3.7671 -0.5268  1.0408
  411MOL0     H55467   6.195   4.846   8.470  0.2245 -0.4188  4.9272
  411MOL0     H55468   5.944   4.783   8.510 -0.4122 -0.5293 -0.3840
  411MOL0     H55469   5.956   5.373   7.040 -0.7754 -2.6050  0.2741
  411MOL0     H55470   5.904   5.593   6.926  3.5730 -2.0866  1.3362
  411MOL0     H55471   5.691   5.872   6.684  0.0380  1.2301 -3.0287
  411MOL0     H55472   5.616   6.080   6.576 -0.8660 -0.9172 -0.7516
  411MOL0     H55473   5.504   6.285   6.493  0.8356 -1.6427  1.0832
  411MOL0     H55474   5.578   6.323   6.650  0.8152 -0.6995 -0.9097
  411MOL0     H55475   5.509   6.525   6.524  0.0453  1.6468  1.9692
  411MOL0     H55476   5.381   6.505   6.651  3.0479 -0.5135  1.0106
  411MOL0     H55477   5.236   6.509   6.485 -2.0036 -0.8580 -1.9836
  411MOL0     H55478   5.276   6.348   6.476  0.8165 -0.3372 -2.0109
  411MOL0     H55479   5.459   6.425   6.298  1.2876  1.7296  1.1555
  411MOL0     H55480   5.283   6.431   6.254 -0.9551  0.5474 -0.3264
  411MOL0     H55481   5.409   6.846   6.285 -0.8607  0.3678  3.3130
  411MOL0     H55482   5.268   6.079   6.835  1.7814  2.2195  0.2160
  411MOL0     H55483   5.314   5.853   7.057 -0.8289  0.8706 -0.2500
  411MOL0     H55484   5.194   5.902   6.947 -0.4923 -1.2913 -1.1660
  411MOL0     H55485   5.283   5.753   6.915  1.2845 -0.2159  0.2363
  412MOL0     O55486   1.470   6.859   6.898 -0.0245 -0.5965 -0.6898
  412MOL0     C55487   1.583   6.901   6.903  0.0176 -0.4807  0.2316
  412MOL0     O55488   1.697   6.833   6.878 -0.3363 -1.1080  0.2447
  412MOL0     C55489   1.692   6.696   6.851  0.4350  0.1399 -0.2939
  412MOL0     C55490   1.780   6.642   6.753 -0.3763  0.4151 -0.2257
  412MOL0     C55491   1.796   6.502   6.736 -0.5587  0.0053 -0.0037
  412MOL0     C55492   1.715   6.417   6.809 -0.3388  0.5637  0.1188
  412MOL0     O55493   1.734   6.285   6.808 -0.3160  0.9125  0.7012
  412MOL0     C55494   1.825   6.218   6.721 -0.8277  0.3637  0.5524
  412MOL0     C55495   1.804   6.069   6.728 -0.3047  0.3565  0.0629
  412MOL0     C55496   1.825   6.015   6.877  0.0030  0.1659  0.0624
  412MOL0     C55497   1.784   5.872   6.894 -0.2388 -0.9288  0.3219
  412MOL0     C55498   1.807   5.808   7.039 -0.3704  0.7468  0.9374
  412MOL0     C55499   1.953   5.790   7.075  0.4939  0.5398 -0.2381
  412MOL0     C55500   1.943   5.718   7.217 -0.5060 -0.4895  0.6114
  412MOL0     C55501   2.082   5.662   7.263 -0.6762 -0.0153  0.2534
  412MOL0     N55502   2.186   5.774   7.251  0.0733 -0.5666 -0.0312
  412MOL0     C55503   2.177   5.915   7.250  0.1795 -0.0444 -0.5799
  412MOL0     C55504   2.302   5.957   7.211  0.3326  0.3402  0.5043
  412MOL0     C55505   2.353   6.097   7.160  0.1767 -1.1272 -0.8303
  412MOL0     C55506   2.361   6.195   7.279 -0.2319  0.5198 -0.0712
  412MOL0     C55507   2.488   6.200   7.362  0.1780 -0.0439  0.2780
  412MOL0     C55508   2.486   6.081   7.464  0.5532 -0.7407 -0.8056
  412MOL0     O55509   2.610   6.108   7.524 -0.6137 -0.2105 -0.1718
  412MOL0     C55510   2.632   6.067   7.656 -0.1191  0.6196  0.4005
  412MOL0     C55511   2.571   5.949   7.700 -0.0160 -0.7666  0.4962
  412MOL0     C55512   2.609   5.888   7.819 -0.5490  0.7197  0.0035
  412MOL0     C55513   2.690   5.949   7.908  0.7082  0.6997 -1.5070
  412MOL0     C55514   2.727   5.878   8.032  0.1102  0.8143 -0.0564
  412MOL0     O55515   2.821   5.940   8.112 -0.6665  0.1585  0.2116
  412MOL0     C55516   2.867   5.868   8.218  1.1011  0.7831 -0.1418
  412MOL0     C55517   2.793   5.776   8.307 -0.0289 -0.1805  0.2237
  412MOL0     C55518   2.856   5.744   8.425 -0.3902  0.7743 -0.8987
  412MOL0     C55519   2.990   5.777   8.461  0.5698 -0.4538 -0.3375
  412MOL0     O55520   3.050   5.739   8.578  0.7336  0.0515  0.7525
  412MOL0     C55521   3.179   5.669   8.567  0.5986 -0.6025 -0.7092
  412MOL0     C55522   3.201   5.602   8.708  0.0980  0.5492 -1.2937
  412MOL0     C55523   3.158   5.676   8.837 -0.4618  1.1442 -0.9734
  412MOL0     C55524   3.197   5.585   8.959 -0.2475 -0.2518  0.7195
  412MOL0     C55525   3.146   5.630   9.096 -0.5844 -0.1002  0.2183
  412MOL0     C55526   3.169   5.781   9.118 -0.1021  0.6812 -0.3912
  412MOL0     C55527   3.129   5.809   9.266  0.0779 -0.0611 -0.1184
  412MOL0     C55528   3.190   5.927   9.328 -0.3184  0.3685  0.1527
  412MOL0    Cl55529   3.106   5.971   9.477  0.1749  0.0483  0.0056
  412MOL0     C55530   3.060   5.851   8.369  0.0966  1.1258 -0.4175
  412MOL0     C55531   3.000   5.890   8.252  0.0421 -0.2320 -0.9325
  412MOL0     O55532   2.700   5.756   8.041 -0.2628 -0.1153 -0.0330
  412MOL0     C55533   2.743   6.075   7.865  0.8621  1.1603  0.3508
  412MOL0     C55534   2.713   6.133   7.735  0.1824 -0.0275 -0.1064
  412MOL0     N55535   2.372   5.844   7.173  0.4569 -0.4971 -0.4624
  412MOL0     N55536   2.311   5.741   7.209  0.0118  0.4176 -0.6775
  412MOL0     C55537   1.630   6.466   6.901  0.1545  0.6927  0.6060
  412MOL0     C55538   1.616   6.605   6.927  0.5183 -0.1529 -0.3382
  412MOL0     C55539   1.600   7.047   6.933  0.0115 -0.1976 -0.4171
  412MOL0     C55540   1.729   7.097   6.969  0.4614  0.1488 -0.2052
  412MOL0     C55541   1.754   7.234   7.007  0.8545  0.2424 -0.1653
  412MOL0     C55542   1.648   7.327   6.998  1.5023  0.0444 -0.8659
  412MOL0     O55543   1.679   7.457   7.017  0.0896 -0.7483  0.3550
  412MOL0     C55544   1.584   7.559   6.981  0.4969  0.1402  0.3117
  412MOL0     C55545   1.656   7.693   6.981 -1.0246  0.2907 -0.1445
  412MOL0     C55546   1.675   7.739   7.126 -0.0227 -0.2068 -0.3001
  412MOL0     C55547   1.794   7.831   7.152 -0.1608  0.5087  0.7409
  412MOL0     C55548   1.733   7.969   7.148 -0.3548 -0.0345 -0.2787
  412MOL0     C55549   1.693   8.085   7.127 -0.3393 -0.3166 -0.3563
  412MOL0     C55550   1.521   7.274   6.973 -0.5883  0.0081 -0.1139
  412MOL0     C55551   1.501   7.141   6.925 -0.7703  0.1176  0.3524
  412MOL0     C55552   1.366   7.109   6.864 -1.1634  0.4001  0.0957
  412MOL0     H55553   1.823   6.712   6.681  0.0521 -0.9078 -1.3023
  412MOL0     H55554   1.874   6.466   6.669 -0.5629 -0.2368  0.1220
  412MOL0     H55555   1.804   6.258   6.621  1.0095  1.7645  0.6593
  412MOL0     H55556   1.931   6.229   6.748 -0.5792  0.0587 -0.2802
  412MOL0     H55557   1.870   6.022   6.654 -1.1989 -0.2684 -0.3541
  412MOL0     H55558   1.701   6.056   6.693 -1.1746  1.4134  2.0954
  412MOL0     H55559   1.757   6.070   6.941 -0.4528 -0.9424  0.5627
  412MOL0     H55560   1.930   6.032   6.904  0.0910  0.9675 -0.7534
  412MOL0     H55561   1.677   5.863   6.872 -0.7706  2.6544  0.9107
  412MOL0     H55562   1.833   5.806   6.821  0.4269  0.6322 -0.6816
  412MOL0     H55563   1.754   5.873   7.109 -0.3699  3.9586 -1.7634
  412MOL0     H55564   1.772   5.705   7.045 -0.0920  0.5959  0.1633
  412MOL0     H55565   2.010   5.716   7.019  0.2048 -0.9922  1.4150
  412MOL0     H55566   1.997   5.891   7.072  1.4794  0.0889 -1.8421
  412MOL0     H55567   1.862   5.645   7.216 -1.9057  0.9336 -2.4502
  412MOL0     H55568   1.919   5.802   7.284  1.9095  1.3779 -0.6907
  412MOL0     H55569   2.077   5.615   7.361 -0.6685 -0.2290  0.1533
  412MOL0     H55570   2.121   5.589   7.192  1.2583  2.5038 -1.4809
  412MOL0     H55571   2.092   5.979   7.272 -0.7175 -1.9078  1.7344
  412MOL0     H55572   2.447   6.100   7.104  0.3853  1.9865 -0.4693
  412MOL0     H55573   2.287   6.133   7.082 -0.6597  1.7105  1.0232
  412MOL0     H55574   2.368   6.294   7.231 -0.4337 -0.2572 -1.7628
  412MOL0     H55575   2.279   6.187   7.352  1.4859 -1.9931  1.7227
  412MOL0     H55576   2.489   6.288   7.427  0.0300 -0.1202  0.3861
  412MOL0     H55577   2.578   6.200   7.300 -1.1365  0.4141 -1.7471
  412MOL0     H55578   2.498   5.983   7.417 -1.0204 -2.1421  1.5202
  412MOL0     H55579   2.401   6.084   7.533  0.7164 -1.9189 -0.5301
  412MOL0     H55580   2.512   5.890   7.631 -2.3171  2.5959 -0.6881
  412MOL0     H55581   2.570   5.790   7.845 -1.2257  1.6176  2.6832
  412MOL0     H55582   2.694   5.742   8.282  0.1044 -1.9504  1.8554
  412MOL0     H55583   2.805   5.672   8.488 -0.1270  0.8005 -0.6550
  412MOL0     H55584   3.180   5.599   8.483 -0.2608 -2.7430  0.9640
  412MOL0     H55585   3.254   5.747   8.551  0.1823 -0.3245 -1.3373
  412MOL0     H55586   3.136   5.514   8.709 -2.1462  2.1194 -1.5511
  412MOL0     H55587   3.307   5.575   8.704 -0.2364 -0.7116 -2.8409
  412MOL0     H55588   3.190   5.780   8.851 -1.2585  1.0157  3.0091
  412MOL0     H55589   3.049   5.678   8.826 -0.5935  0.2633  0.0325
  412MOL0     H55590   3.306   5.585   8.958 -0.2082  0.3862  2.1837
  412MOL0     H55591   3.163   5.484   8.932  1.6980 -0.3980 -1.5664
  412MOL0     H55592   3.196   5.572   9.174 -0.3274 -1.3325 -0.8334
  412MOL0     H55593   3.041   5.600   9.102 -0.4992 -0.0808  2.6912
  412MOL0     H55594   3.274   5.801   9.098  0.7066 -0.0060  2.6856
  412MOL0     H55595   3.097   5.830   9.051 -2.1101 -3.5676 -1.7079
  412MOL0     H55596   3.155   5.722   9.327 -1.0869  0.2128  0.8086
  412MOL0     H55597   3.019   5.810   9.267 -0.0001 -0.2636  2.9753
  412MOL0     H55598   3.296   5.907   9.345 -0.4049 -0.4192 -0.2103
  412MOL0     H55599   3.188   6.014   9.262  2.7851 -0.8427 -1.7995
  412MOL0     H55600   3.165   5.873   8.385  0.8801 -3.0159  1.4478
  412MOL0     H55601   3.058   5.946   8.180  0.2254  0.1790 -0.4705
  412MOL0     H55602   2.817   6.124   7.928  1.0914  2.4321 -0.8597
  412MOL0     H55603   2.757   6.225   7.696 -2.3715  1.5140  0.3608
  412MOL0     H55604   1.565   6.399   6.956 -1.0680 -0.9545 -2.5823
  412MOL0     H55605   1.568   6.639   7.018 -2.9119  2.7145 -2.9304
  412MOL0     H55606   1.813   7.029   6.972 -0.9912 -1.6892  0.9170
  412MOL0     H55607   1.857   7.268   7.019  0.9245 -0.9705  5.0652
  412MOL0     H55608   1.507   7.566   7.058 -2.7578  0.4411 -2.7537
  412MOL0     H55609   1.539   7.542   6.883 -0.1648  0.7325  0.5104
  412MOL0     H55610   1.598   7.760   6.918 -1.0822  1.9340  1.5749
  412MOL0     H55611   1.752   7.677   6.930 -2.1189 -1.6981 -1.7202
  412MOL0     H55612   1.684   7.649   7.188 -2.0202 -1.9209 -2.3280
  412MOL0     H55613   1.579   7.777   7.162  0.9359 -0.9910  3.6391
  412MOL0     H55614   1.832   7.793   7.248 -1.0690  0.4109  1.0752
  412MOL0     H55615   1.865   7.816   7.070  1.3704 -4.5579  2.6290
  412MOL0     H55616   1.658   8.186   7.115 -2.0009 -0.7097  0.8254
  412MOL0     H55617   1.433   7.338   6.975 -0.8179 -0.3279  0.7385
  412MOL0     H55618   1.300   7.054   6.932  0.4728  0.1769  1.5858
  412MOL0     H55619   1.322   7.205   6.833  1.9724  1.3282 -1.9638
  412MOL0     H55620   1.381   7.057   6.769 -2.8025  1.0246 -0.5463
  413MOL0     O55621   3.253   0.466   0.942 -0.5579 -0.0191 -0.6374
  413MOL0     C55622   3.283   0.397   0.845  0.4316 -0.6314 -0.5908
  413MOL0     O55623   3.319   0.449   0.724  0.2562  0.3501 -0.2177
  413MOL0     C55624   3.319   0.587   0.722 -1.2866  0.0390  0.5855
  413MOL0     C55625   3.441   0.654   0.760  0.0819  0.1080 -0.1477
  413MOL0     C55626   3.461   0.793   0.739  0.0788  0.2442  0.0483
  413MOL0     C55627   3.355   0.865   0.675  0.4593  0.7177  0.1046
  413MOL0     O55628   3.378   0.992   0.636 -0.0528  0.0559 -0.3375
  413MOL0     C55629   3.461   1.083   0.708 -0.6184  1.1932 -0.3343
  413MOL0     C55630   3.430   1.224   0.674  0.0802  0.4160 -0.1484
  413MOL0     C55631   3.284   1.252   0.709 -0.3031  0.4650  0.1962
  413MOL0     C55632   3.244   1.384   0.636  0.2483 -0.1302 -0.3676
  413MOL0     C55633   3.092   1.416   0.655 -1.0114  0.1023  0.1170
  413MOL0     C55634   3.047   1.435   0.803  0.5255 -0.5151 -0.7083
  413MOL0     C55635   2.929   1.538   0.795  0.5358  0.7726 -0.3833
  413MOL0     C55636   2.841   1.555   0.915  0.4963 -1.4054  0.4750
  413MOL0     N55637   2.757   1.673   0.895 -0.5097 -0.0296  0.2036
  413MOL0     C55638   2.624   1.677   0.859  0.6286 -0.9301  0.4206
  413MOL0     C55639   2.608   1.812   0.841 -0.3639 -0.3506 -0.5392
  413MOL0     C55640   2.483   1.876   0.795 -0.1336 -0.3759 -0.0314
  413MOL0     C55641   2.475   2.033   0.816  0.1866  0.7403  0.9101
  413MOL0     C55642   2.343   2.080   0.749 -0.9080  0.2178 -1.0156
  413MOL0     C55643   2.334   2.238   0.773  0.0657  0.2211 -0.3680
  413MOL0     O55644   2.229   2.286   0.695 -0.7971  0.4828 -0.0782
  413MOL0     C55645   2.165   2.403   0.727 -0.2386 -0.0342  0.0435
  413MOL0     C55646   2.166   2.510   0.640  0.5142 -0.0844  0.1479
  413MOL0     C55647   2.095   2.623   0.665  0.1148 -0.1534 -0.2760
  413MOL0     C55648   2.023   2.635   0.786  0.9185 -0.4249 -0.0090
  413MOL0     C55649   1.964   2.760   0.819  0.5925  0.3779  0.3495
  413MOL0     O55650   1.966   2.844   0.724  0.9095 -0.5648  1.5456
  413MOL0     C55651   1.894   2.966   0.741  0.6220 -0.6713  0.8082
  413MOL0     C55652   1.767   2.992   0.808  0.4066  0.0719  0.5401
  413MOL0     C55653   1.721   3.117   0.813 -1.0342 -0.0602 -0.9772
  413MOL0     C55654   1.784   3.232   0.766 -1.8276  0.0459 -0.5295
  413MOL0     O55655   1.739   3.362   0.789  0.6367  0.1572  0.1788
  413MOL0     C55656   1.817   3.473   0.744 -0.4933  0.0628 -0.2747
  413MOL0     C55657   1.947   3.508   0.826  0.6208  0.3185  0.3229
  413MOL0     C55658   1.917   3.562   0.965  0.6429  0.1832  1.0433
  413MOL0     C55659   1.834   3.476   1.082  1.0230 -1.3201  0.7072
  413MOL0     C55660   1.817   3.566   1.212 -0.1264  0.2931  0.4001
  413MOL0     C55661   1.942   3.628   1.276 -0.3809  0.1500 -0.5834
  413MOL0     C55662   2.068   3.536   1.300  0.5473 -0.5918  0.8005
  413MOL0     C55663   2.066   3.461   1.431 -0.5815  0.2367 -1.0948
  413MOL0    Cl55664   2.074   3.587   1.562  0.3777 -0.1178 -0.0084
  413MOL0     C55665   1.906   3.206   0.699 -0.1755 -0.1543  0.1597
  413MOL0     C55666   1.953   3.075   0.671  0.0179  0.1916 -0.6882
  413MOL0     O55667   1.911   2.772   0.931  0.0173 -0.0490  0.7195
  413MOL0     C55668   2.020   2.528   0.878  0.3412  0.3932  0.4858
  413MOL0     C55669   2.094   2.410   0.851 -0.3234 -0.6706  0.1370
  413MOL0     N55670   2.724   1.880   0.870  0.2456 -0.4079  0.3686
  413MOL0     N55671   2.806   1.798   0.919 -0.0312  0.5284  0.1854
  413MOL0     C55672   3.231   0.800   0.658 -0.3832 -0.2299 -0.9543
  413MOL0     C55673   3.208   0.665   0.679 -0.3772  0.8591  0.4046
  413MOL0     C55674   3.294   0.253   0.861  0.6066 -0.1505  0.0574
  413MOL0     C55675   3.243   0.203   0.981  0.7394  0.0965  0.1837
  413MOL0     C55676   3.241   0.066   1.000 -0.2813 -0.5884 -0.2711
  413MOL0     C55677   3.301  -0.023   0.914 -1.4608  0.5756  0.1123
  413MOL0     O55678   3.289  -0.158   0.949 -0.3628  0.1379  0.1481
  413MOL0     C55679   3.369  -0.245   0.867 -0.3052  0.6005  0.0050
  413MOL0     C55680   3.386  -0.378   0.937  0.5415 -0.1225 -1.6649
  413MOL0     C55681   3.489  -0.379   1.050  0.7500 -0.2193 -0.6175
  413MOL0     C55682   3.533  -0.520   1.092 -0.2363 -0.1846  1.3122
  413MOL0     C55683   3.659  -0.527   1.171 -0.1267 -0.4499 -0.3954
  413MOL0     C55684   3.773  -0.530   1.224  0.3791 -0.9728  0.1788
  413MOL0     C55685   3.363   0.028   0.796 -0.8073 -0.7946  0.5167
  413MOL0     C55686   3.357   0.164   0.769 -0.5494 -0.0536 -0.4144
  413MOL0     C55687   3.444   0.202   0.659 -0.2862  0.8485 -0.5547
  413MOL0     H55688   3.521   0.592   0.801 -2.7146 -1.0143  4.4239
  413MOL0     H55689   3.562   0.829   0.756  0.1594 -1.0051  2.8326
  413MOL0     H55690   3.449   1.072   0.816  0.2006 -1.8576 -0.4666
  413MOL0     H55691   3.564   1.067   0.675 -1.1274 -1.6604 -0.8428
  413MOL0     H55692   3.457   1.233   0.568  2.9651  1.3675  0.5842
  413MOL0     H55693   3.498   1.290   0.728  0.1347 -0.1711  0.5076
  413MOL0     H55694   3.277   1.259   0.818  1.9394  3.7880  0.2967
  413MOL0     H55695   3.215   1.175   0.676  0.2802  0.7031 -1.7020
  413MOL0     H55696   3.292   1.474   0.676  0.4172  1.3111 -3.5073
  413MOL0     H55697   3.274   1.384   0.531  1.5025  3.2738 -0.1257
  413MOL0     H55698   3.086   1.514   0.607 -0.9268  0.9041  1.6972
  413MOL0     H55699   3.028   1.345   0.603 -0.5436  0.0368 -0.3832
  413MOL0     H55700   3.014   1.334   0.826 -0.0302 -0.4072 -1.0005
  413MOL0     H55701   3.123   1.465   0.875  1.8847 -1.1908 -1.8073
  413MOL0     H55702   2.862   1.524   0.709  0.5549  2.9202 -0.8102
  413MOL0     H55703   2.981   1.632   0.775  3.2136 -0.4377  0.4605
  413MOL0     H55704   2.776   1.470   0.940 -1.1915  0.5587  3.4200
  413MOL0     H55705   2.901   1.567   1.006  0.0314  2.9156  0.4190
  413MOL0     H55706   2.549   1.601   0.841  0.6814 -0.6880 -0.9159
  413MOL0     H55707   2.475   1.844   0.691 -2.1058 -1.0288  0.2893
  413MOL0     H55708   2.402   1.818   0.839  0.0661 -1.4806 -1.0588
  413MOL0     H55709   2.484   2.051   0.923  3.5937 -1.5522  1.1763
  413MOL0     H55710   2.559   2.070   0.757 -0.4887 -1.3230 -1.5370
  413MOL0     H55711   2.258   2.025   0.790  1.0136 -0.2257  2.7682
  413MOL0     H55712   2.359   2.064   0.642  1.5644 -0.1266 -0.6385
  413MOL0     H55713   2.426   2.292   0.751 -0.5355  1.1735 -0.5723
  413MOL0     H55714   2.302   2.249   0.877 -3.1119 -0.8640 -1.1042
  413MOL0     H55715   2.225   2.510   0.548 -1.5166  3.7547 -1.3962
  413MOL0     H55716   2.107   2.705   0.595 -0.0038  0.0768 -0.0280
  413MOL0     H55717   1.714   2.909   0.854 -0.6429  0.2219 -0.3782
  413MOL0     H55718   1.643   3.125   0.888 -0.1222 -1.0114  0.0977
  413MOL0     H55719   1.844   3.466   0.638 -0.7163 -1.6184 -0.2420
  413MOL0     H55720   1.764   3.568   0.754  2.7611  1.9915  0.3592
  413MOL0     H55721   2.004   3.416   0.843  1.9735  0.9153 -0.7438
  413MOL0     H55722   2.012   3.568   0.762  1.8517 -0.4725  0.7951
  413MOL0     H55723   2.018   3.570   1.008  0.6740  3.0278  0.6860
  413MOL0     H55724   1.879   3.664   0.958  1.8467  0.7162  1.8189
  413MOL0     H55725   1.878   3.381   1.111  3.5176 -0.6603 -0.6609
  413MOL0     H55726   1.738   3.442   1.042  1.0289 -1.2423  0.6256
  413MOL0     H55727   1.779   3.497   1.288 -0.0299 -1.1766 -0.8370
  413MOL0     H55728   1.743   3.644   1.193 -0.6052 -0.3450 -0.4447
  413MOL0     H55729   1.968   3.719   1.222 -1.2064 -0.2024 -1.6227
  413MOL0     H55730   1.917   3.664   1.376  2.7214  2.0888 -0.3675
  413MOL0     H55731   2.159   3.597   1.295 -1.3333  2.8174  3.7099
  413MOL0     H55732   2.081   3.454   1.229 -1.8051 -1.6775  1.5237
  413MOL0     H55733   1.982   3.393   1.445  0.3996 -0.6074  1.1675
  413MOL0     H55734   2.158   3.402   1.436  0.5547  1.9607 -0.5576
  413MOL0     H55735   1.960   3.290   0.656 -1.5843  1.1681  0.8683
  413MOL0     H55736   2.040   3.057   0.609  0.6355  0.9630 -0.0609
  413MOL0     H55737   1.969   2.528   0.974  2.3446 -2.9255  1.7437
  413MOL0     H55738   2.100   2.324   0.918 -0.3854  0.8022  2.1073
  413MOL0     H55739   3.141   0.844   0.615 -0.2175 -0.2764 -1.3528
  413MOL0     H55740   3.107   0.627   0.677 -0.3447  0.7871 -0.0242
  413MOL0     H55741   3.186   0.260   1.055 -3.6627 -2.0975 -1.1687
  413MOL0     H55742   3.198   0.034   1.094  0.5050  5.2376  2.5300
  413MOL0     H55743   3.469  -0.204   0.851 -0.7553  2.2661  1.1907
  413MOL0     H55744   3.333  -0.253   0.764 -0.8084 -0.0770  0.2292
  413MOL0     H55745   3.418  -0.458   0.870  4.9149  0.2243 -0.3120
  413MOL0     H55746   3.294  -0.413   0.986  2.1382 -0.1418  1.5309
  413MOL0     H55747   3.448  -0.323   1.134  1.0400 -0.1832 -0.4978
  413MOL0     H55748   3.578  -0.322   1.022 -0.5145  2.0649 -0.1760
  413MOL0     H55749   3.456  -0.569   1.152  1.2787 -0.9219  2.7362
  413MOL0     H55750   3.545  -0.571   0.996 -1.5972 -1.5406  1.8281
  413MOL0     H55751   3.872  -0.543   1.264  0.7316 -3.1353 -1.1951
  413MOL0     H55752   3.411  -0.034   0.721 -3.8397 -0.4730 -1.8518
  413MOL0     H55753   3.533   0.261   0.683 -0.7923  0.8877  1.3590
  413MOL0     H55754   3.468   0.114   0.599 -0.6164 -1.0295  1.9056
  413MOL0     H55755   3.374   0.257   0.596 -1.9030  1.1060  1.3800
  414MOL0     O55756   5.942   1.289   9.863 -0.0563  0.4670 -0.5760
  414MOL0     C55757   5.867   1.263   9.768 -0.0903 -0.7226 -0.0734
  414MOL0     O55758   5.759   1.175   9.769  0.1708  0.9498 -0.0210
  414MOL0     C55759   5.743   1.095   9.880  1.0146  0.4170  0.5093
  414MOL0     C55760   5.709   1.154   9.996  0.6448 -0.6301 -0.7110
  414MOL0     C55761   5.662   1.080  10.107 -1.3563  0.3676 -0.3346
  414MOL0     C55762   5.656   0.943  10.099  1.6683  0.0338 -0.6971
  414MOL0     O55763   5.582   0.884  10.204  0.0005 -0.4912  0.3645
  414MOL0     C55764   5.587   0.745  10.206  0.1728  0.2302 -0.8638
  414MOL0     C55765   5.725   0.685  10.238 -0.4298 -0.4080 -0.8507
  414MOL0     C55766   5.792   0.742  10.365 -0.4290 -0.1919 -0.0960
  414MOL0     C55767   5.942   0.747  10.348 -0.3584 -0.1733 -0.9333
  414MOL0     C55768   5.980   0.880  10.276 -0.6919 -0.5554  0.1231
  414MOL0     C55769   6.122   0.907  10.236 -0.2242  0.4092 -0.0442
  414MOL0     C55770   6.188   0.836  10.109  0.4281 -0.0821 -0.3961
  414MOL0     C55771   6.153   0.914   9.984  0.2129 -0.1882 -0.4564
  414MOL0     N55772   6.179   0.832   9.867 -0.2357  0.1386  0.7089
  414MOL0     C55773   6.292   0.764   9.825  0.0650 -0.3876  0.1209
  414MOL0     C55774   6.251   0.701   9.718  0.0199  0.1839  0.8556
  414MOL0     C55775   6.329   0.612   9.624 -0.1790  0.3240  0.8732
  414MOL0     C55776   6.472   0.666   9.627 -0.6334  0.4295 -0.8195
  414MOL0     C55777   6.583   0.582   9.551  0.6171  0.8235  0.4467
  414MOL0     C55778   6.720   0.646   9.548 -0.6090 -0.2947 -0.6463
  414MOL0     O55779   6.778   0.655   9.673 -0.5575  0.4629  0.3260
  414MOL0     C55780   6.910   0.698   9.675 -0.1505  0.6612 -0.1389
  414MOL0     C55781   6.995   0.748   9.570 -0.1074 -0.1179 -1.0395
  414MOL0     C55782   7.119   0.807   9.599  0.1979 -0.2367  0.7572
  414MOL0     C55783   7.150   0.819   9.735 -0.5603 -0.2853  0.6901
  414MOL0     C55784   7.277   0.883   9.773 -0.0935  0.6136  0.5215
  414MOL0     O55785   7.301   0.912   9.910  0.1333 -0.6520 -0.8599
  414MOL0     C55786   7.420   0.960   9.962 -0.2658  0.3294 -0.2582
  414MOL0     C55787   7.428   0.974  10.102 -0.4062 -0.2925 -0.4210
  414MOL0     C55788   7.543   1.003  10.170 -0.8067 -0.3053  0.0796
  414MOL0     C55789   7.667   1.017  10.105  1.4804  0.8013 -0.4227
  414MOL0     O55790   7.785   1.036  10.176  0.0198 -0.2141 -0.0139
  414MOL0     C55791   7.905   0.996  10.125  0.0594  1.3010  0.0314
  414MOL0     C55792   8.000   0.980  10.241  0.0230 -1.0897  0.6957
  414MOL0     C55793   8.136   0.941  10.187 -0.4579  0.1994 -0.6682
  414MOL0     C55794   8.127   0.796  10.142 -0.4802  0.2063  0.0832
  414MOL0     C55795   8.281   0.746  10.137  0.0223  0.3487  0.2521
  414MOL0     C55796   8.281   0.590  10.130  0.1982  1.5537 -0.4969
  414MOL0     C55797   8.408   0.536  10.065 -0.0175  0.8206  0.3876
  414MOL0     C55798   8.524   0.599  10.129 -0.7185  1.1186  0.1355
  414MOL0    Cl55799   8.687   0.529  10.094  0.0403  0.1214 -0.0796
  414MOL0     C55800   7.661   1.026   9.963 -0.1640 -0.5123  0.5943
  414MOL0     C55801   7.541   0.998   9.896  0.1421  0.0663 -0.4734
  414MOL0     O55802   7.357   0.919   9.683  0.6357 -0.2289  0.3281
  414MOL0     C55803   7.061   0.785   9.836  0.1868  0.3633  0.3762
  414MOL0     C55804   6.947   0.708   9.810 -0.2223 -0.3453 -0.0520
  414MOL0     N55805   6.121   0.735   9.689  0.4877 -0.8603 -0.4946
  414MOL0     N55806   6.073   0.803   9.785 -0.2473 -0.4930  0.0127
  414MOL0     C55807   5.696   0.879   9.977  0.2849 -0.9248  0.0323
  414MOL0     C55808   5.737   0.953   9.863  0.8232  0.0620 -0.9241
  414MOL0     C55809   5.890   1.333   9.644 -0.3560  0.5471 -0.3142
  414MOL0     C55810   5.779   1.338   9.559 -0.3009 -1.2206  0.6625
  414MOL0     C55811   5.788   1.411   9.435 -0.0583 -0.1605  0.9121
  414MOL0     C55812   5.907   1.442   9.380 -0.3098  0.8819 -0.2234
  414MOL0     O55813   5.930   1.500   9.261  0.1976 -0.2379  0.2759
  414MOL0     C55814   5.949   1.399   9.158 -0.6007  1.3367  0.1770
  414MOL0     C55815   5.818   1.364   9.086  0.3654  0.5699  0.1180
  414MOL0     C55816   5.790   1.453   8.972  0.1594  1.2080  0.1569
  414MOL0     C55817   5.717   1.586   9.002 -0.0407  0.0895 -0.1473
  414MOL0     C55818   5.580   1.573   9.067  0.2302  0.4783 -0.1223
  414MOL0     C55819   5.467   1.583   9.105  0.6003 -1.1352 -0.0883
  414MOL0     C55820   6.016   1.420   9.469 -0.4375 -0.7015  0.1204
  414MOL0     C55821   6.009   1.379   9.593  0.0489 -0.5607  0.7249
  414MOL0     C55822   6.138   1.380   9.678 -0.0337 -0.9360  0.1487
  414MOL0     H55823   5.723   1.260  10.018  1.5605 -1.5424  4.2306
  414MOL0     H55824   5.644   1.119  10.207  2.6747 -3.5910  2.3549
  414MOL0     H55825   5.517   0.705  10.280 -0.3817  1.0960 -0.9119
  414MOL0     H55826   5.542   0.692  10.121  0.4690 -1.6450  0.0935
  414MOL0     H55827   5.785   0.706  10.149 -0.8422  1.7714 -0.6791
  414MOL0     H55828   5.709   0.579  10.258  0.5053  0.0436  3.2390
  414MOL0     H55829   5.780   0.678  10.453  1.6833 -0.9241 -0.2921
  414MOL0     H55830   5.750   0.841  10.387  0.7989  0.1007  1.1184
  414MOL0     H55831   5.981   0.761  10.449 -0.0701 -2.2190 -0.7205
  414MOL0     H55832   5.978   0.652  10.307  1.8526 -0.8432  2.1792
  414MOL0     H55833   5.923   0.893  10.184  0.3518  1.7316 -0.2590
  414MOL0     H55834   5.947   0.968  10.332 -2.7187  0.1884 -2.0473
  414MOL0     H55835   6.140   1.014  10.218  0.5454  0.0045 -2.0011
  414MOL0     H55836   6.170   0.874  10.328 -1.4178 -1.0806  0.0733
  414MOL0     H55837   6.145   0.737  10.096 -0.2486 -0.0591  1.3842
  414MOL0     H55838   6.296   0.833  10.130  0.2579 -4.4230  0.8135
  414MOL0     H55839   6.054   0.961   9.988  0.1098 -0.3605 -0.8767
  414MOL0     H55840   6.226   0.995   9.987  0.6094 -0.5582  0.0380
  414MOL0     H55841   6.390   0.766   9.873 -0.4340 -2.5462  1.3366
  414MOL0     H55842   6.335   0.512   9.668 -0.8489  0.0702  0.4113
  414MOL0     H55843   6.290   0.617   9.522 -0.5983 -0.2165  1.0038
  414MOL0     H55844   6.484   0.765   9.582  0.9416  0.0426 -1.3147
  414MOL0     H55845   6.508   0.659   9.730  0.1601 -0.3625 -1.1365
  414MOL0     H55846   6.547   0.556   9.451  0.9904 -1.4444  0.8577
  414MOL0     H55847   6.597   0.489   9.607 -0.9516  0.7555  0.7947
  414MOL0     H55848   6.717   0.750   9.515  1.5917 -0.1808 -0.6708
  414MOL0     H55849   6.781   0.588   9.478  1.6840  0.2975  0.7229
  414MOL0     H55850   6.961   0.741   9.468 -4.2964 -3.0534  0.2695
  414MOL0     H55851   7.187   0.856   9.530  1.1756  1.6638  2.9191
  414MOL0     H55852   7.342   0.959  10.166 -0.7852  2.7203 -0.0587
  414MOL0     H55853   7.538   1.016  10.278  2.6482  0.5474  0.2411
  414MOL0     H55854   7.887   0.904  10.068  0.1684  1.0372  0.4142
  414MOL0     H55855   7.939   1.076  10.059 -1.9875  1.9186 -0.3469
  414MOL0     H55856   8.009   1.086  10.267  0.0880  0.2675 -4.0502
  414MOL0     H55857   7.974   0.905  10.316 -0.4652 -2.1860 -0.5359
  414MOL0     H55858   8.162   1.000  10.099  1.1547  0.9922  0.2984
  414MOL0     H55859   8.214   0.960  10.261 -0.7586  2.3367 -0.8353
  414MOL0     H55860   8.067   0.769  10.055 -1.2360 -1.2287  1.0197
  414MOL0     H55861   8.085   0.732  10.220  1.6142 -0.3862  0.7995
  414MOL0     H55862   8.345   0.790  10.214 -1.8426  2.7174  0.5730
  414MOL0     H55863   8.333   0.781  10.047  4.7726  0.3569  2.7130
  414MOL0     H55864   8.262   0.553  10.231 -3.6510  1.5907 -1.0783
  414MOL0     H55865   8.196   0.551  10.072  2.2170 -2.8632 -0.9520
  414MOL0     H55866   8.424   0.558   9.959  3.0534 -3.1556 -0.2074
  414MOL0     H55867   8.395   0.429  10.082 -1.7652  0.9425  0.0133
  414MOL0     H55868   8.529   0.705  10.103  0.9926  1.6544  2.3318
  414MOL0     H55869   8.518   0.585  10.238 -0.6548  1.8609  0.2370
  414MOL0     H55870   7.752   1.044   9.905 -1.0433 -0.0880 -0.7139
  414MOL0     H55871   7.535   1.001   9.787 -2.0356 -0.1037 -0.3978
  414MOL0     H55872   7.090   0.786   9.941  1.0272 -4.3699  0.4351
  414MOL0     H55873   6.876   0.672   9.884  0.7044 -0.2766  0.8963
  414MOL0     H55874   5.686   0.772   9.960 -0.9668 -0.5525 -1.7631
  414MOL0     H55875   5.753   0.913   9.764 -2.2215 -5.4696  0.3904
  414MOL0     H55876   5.687   1.314   9.612 -0.0568 -1.9111  0.7741
  414MOL0     H55877   5.700   1.422   9.373  1.4617 -0.9065 -1.4930
  414MOL0     H55878   5.989   1.308   9.203  0.5460 -0.3343 -3.7978
  414MOL0     H55879   6.017   1.428   9.078 -1.8022 -0.2422 -1.4924
  414MOL0     H55880   5.728   1.357   9.147 -2.1332  0.9807 -3.2077
  414MOL0     H55881   5.827   1.265   9.038 -0.8873 -0.3167  1.6255
  414MOL0     H55882   5.740   1.394   8.895 -1.6006  3.3575 -0.4855
  414MOL0     H55883   5.887   1.475   8.926 -0.3302  0.6798 -1.1513
  414MOL0     H55884   5.782   1.655   9.056  1.0763  1.5529 -3.1168
  414MOL0     H55885   5.702   1.639   8.907 -1.4444  1.6559  0.8801
  414MOL0     H55886   5.370   1.593   9.149 -0.2012 -1.6290 -1.6497
  414MOL0     H55887   6.111   1.455   9.430  0.0966 -2.4454 -0.1868
  414MOL0     H55888   6.227   1.409   9.622  0.3651 -1.2067  0.6264
  414MOL0     H55889   6.126   1.446   9.765 -0.5698 -4.1175  2.7223
  414MOL0     H55890   6.171   1.277   9.695 -0.5444 -1.5078 -2.0084
  415MOL0     O55891   1.081   6.399   9.926  0.0343  0.2251 -0.5073
  415MOL0     C55892   1.080   6.446  10.044 -0.0154 -0.3739 -0.7105
  415MOL0     O55893   1.194   6.488  10.106  0.7106 -0.6530  0.0413
  415MOL0     C55894   1.318   6.445  10.067 -0.2934 -0.4348  0.7972
  415MOL0     C55895   1.419   6.541  10.058  0.2209  0.5406 -0.3797
  415MOL0     C55896   1.556   6.507  10.027  0.7617 -0.7881 -0.6481
  415MOL0     C55897   1.581   6.377   9.986  1.3627 -0.1715 -0.6330
  415MOL0     O55898   1.700   6.323   9.956 -0.5186  0.0882  0.2852
  415MOL0     C55899   1.798   6.405   9.885  0.5299  1.1990  0.0185
  415MOL0     C55900   1.769   6.434   9.731  0.2547 -0.0534 -0.7652
  415MOL0     C55901   1.767   6.313   9.642  0.3743  0.3781  0.1252
  415MOL0     C55902   1.640   6.230   9.628 -0.4484 -0.4500  0.5445
  415MOL0     C55903   1.645   6.099   9.558 -0.5324 -0.3726  0.2928
  415MOL0     C55904   1.498   6.032   9.567 -0.2611  0.3197 -0.1637
  415MOL0     C55905   1.491   5.897   9.499 -0.0727  1.0810 -0.2090
  415MOL0     C55906   1.469   5.899   9.355  0.3726  1.1145  0.6295
  415MOL0     N55907   1.324   5.925   9.336 -0.7452  0.3854 -0.2681
  415MOL0     C55908   1.216   5.863   9.390 -0.2483  0.0196 -1.0053
  415MOL0     C55909   1.110   5.926   9.342  0.1225  0.9460 -0.0548
  415MOL0     C55910   0.965   5.909   9.376  0.2374  0.3586  0.2549
  415MOL0     C55911   0.907   5.797   9.287 -0.7306 -0.1004 -0.1223
  415MOL0     C55912   0.756   5.769   9.322 -0.1779  1.8190 -0.7615
  415MOL0     C55913   0.659   5.879   9.274  0.0615 -0.5372 -0.6927
  415MOL0     O55914   0.666   5.993   9.361  0.4800 -0.5345  1.0915
  415MOL0     C55915   0.602   5.989   9.477  0.6697 -0.3810 -0.2298
  415MOL0     C55916   0.517   5.883   9.536 -0.5002 -0.6263 -0.0105
  415MOL0     C55917   0.446   5.893   9.657 -1.1820  0.6724 -0.3122
  415MOL0     C55918   0.455   6.003   9.737  0.7261  1.4152  0.2276
  415MOL0     C55919   0.390   6.019   9.870 -1.0116  0.2191  0.1607
  415MOL0     O55920   0.340   6.139   9.896  0.4424 -0.5698  0.2340
  415MOL0     C55921   0.275   6.167  10.009 -0.2494  0.0663  0.3626
  415MOL0     C55922   0.344   6.228  10.116  0.3114 -0.1529  0.1394
  415MOL0     C55923   0.278   6.271  10.231  0.8367 -0.3318  0.5050
  415MOL0     C55924   0.138   6.233  10.239  0.6190 -0.7213 -0.2335
  415MOL0     O55925   0.058   6.274  10.341 -0.5013 -0.5025  0.1648
  415MOL0     C55926   0.090   6.234  10.467  0.3995 -0.1236 -0.4401
  415MOL0     C55927   0.038   6.321  10.575  0.7162  0.3771 -0.9370
  415MOL0     C55928  -0.117   6.340  10.550 -0.8988  0.5445  1.1327
  415MOL0     C55929  -0.168   6.405  10.678  0.4560 -0.7034  0.2535
  415MOL0     C55930  -0.322   6.430  10.679  0.5332  0.6334 -1.3280
  415MOL0     C55931  -0.364   6.491  10.821  0.7836 -0.0694  1.0426
  415MOL0     C55932  -0.372   6.381  10.923 -0.1746  0.4352  0.3106
  415MOL0     C55933  -0.409   6.437  11.056 -1.4460  0.0806  0.4153
  415MOL0    Cl55934  -0.390   6.307  11.178 -0.0213 -0.0921  0.2771
  415MOL0     C55935   0.072   6.169  10.137 -0.1856  0.9500 -0.0806
  415MOL0     C55936   0.140   6.147  10.015  0.3023 -0.5726  0.0715
  415MOL0     O55937   0.393   5.924   9.949  0.5426 -0.2873 -0.5111
  415MOL0     C55938   0.540   6.109   9.692 -0.9570 -0.0777  0.1631
  415MOL0     C55939   0.603   6.104   9.562 -0.2734  0.0904 -0.9293
  415MOL0     N55940   1.151   6.003   9.238  0.8468 -0.6945 -0.0955
  415MOL0     N55941   1.283   6.014   9.245 -0.5411 -0.1842 -0.4056
  415MOL0     C55942   1.476   6.288   9.993 -0.2591  0.3210  0.4400
  415MOL0     C55943   1.344   6.318  10.038  0.3876  0.5021  0.5142
  415MOL0     C55944   0.944   6.463  10.118 -0.3447  0.3924 -0.2067
  415MOL0     C55945   0.957   6.543  10.229  0.3869 -1.6053 -0.2302
  415MOL0     C55946   0.844   6.596  10.296 -0.8491  0.7906  0.0705
  415MOL0     C55947   0.714   6.553  10.252  0.9394  0.0221  0.1196
  415MOL0     O55948   0.617   6.604  10.319  1.0634  0.0093 -0.3459
  415MOL0     C55949   0.481   6.560  10.293 -0.4302  0.7688  0.4472
  415MOL0     C55950   0.376   6.676  10.308 -0.8113 -0.1529 -0.5960
  415MOL0     C55951   0.234   6.620  10.325 -0.1357 -0.1098  0.3078
  415MOL0     C55952   0.132   6.734  10.333  0.3524 -0.8145  0.1696
  415MOL0     C55953   0.009   6.699  10.413 -0.1430  0.4802  0.4075
  415MOL0     C55954  -0.091   6.666  10.474  1.0678  0.5249  0.5206
  415MOL0     C55955   0.713   6.447  10.161  0.4367 -1.4326  0.1240
  415MOL0     C55956   0.826   6.397  10.091  0.0028 -0.2770  0.0680
  415MOL0     C55957   0.809   6.280   9.995  0.0295 -0.1058 -0.4377
  415MOL0     H55958   1.410   6.645  10.086 -0.6073  0.2182  0.6415
  415MOL0     H55959   1.629   6.586  10.040  0.3130 -0.2931 -1.0841
  415MOL0     H55960   1.831   6.488   9.948  0.8359  0.4421  0.8686
  415MOL0     H55961   1.887   6.343   9.875  0.7790  1.2229  1.8182
  415MOL0     H55962   1.843   6.504   9.692  1.1231  0.2715  1.3296
  415MOL0     H55963   1.674   6.487   9.721  0.3293 -0.2520 -2.8497
  415MOL0     H55964   1.847   6.246   9.674 -1.0718 -0.8882  1.2341
  415MOL0     H55965   1.799   6.346   9.543 -0.1574 -0.3595 -0.3036
  415MOL0     H55966   1.604   6.218   9.730 -2.6733  1.6430  0.0842
  415MOL0     H55967   1.565   6.285   9.572  0.8178  0.2979 -0.4789
  415MOL0     H55968   1.675   6.107   9.454 -0.5296 -0.7729  0.2597
  415MOL0     H55969   1.720   6.040   9.612 -2.0235 -2.0384  0.6478
  415MOL0     H55970   1.467   6.035   9.672 -0.9819  2.5836 -0.3890
  415MOL0     H55971   1.426   6.097   9.517 -2.9351 -0.9299  1.8571
  415MOL0     H55972   1.419   5.837   9.556  3.1047 -1.4216  1.5321
  415MOL0     H55973   1.584   5.842   9.518 -0.9235 -1.7360 -3.1899
  415MOL0     H55974   1.538   5.972   9.311 -0.0115  0.0633 -1.8746
  415MOL0     H55975   1.487   5.802   9.308 -2.8800  1.2765 -1.2604
  415MOL0     H55976   1.206   5.802   9.478 -1.6159 -0.6797 -1.6161
  415MOL0     H55977   0.972   5.886   9.483  0.8291 -0.5050  0.0426
  415MOL0     H55978   0.906   6.001   9.366 -1.1488 -0.7136 -2.2786
  415MOL0     H55979   0.908   5.826   9.182 -0.3843 -1.7194 -0.6022
  415MOL0     H55980   0.965   5.706   9.305 -0.5522  0.5580  3.5348
  415MOL0     H55981   0.750   5.747   9.429  2.0233 -2.1292 -1.2577
  415MOL0     H55982   0.722   5.672   9.283 -0.9724  1.5286  0.5934
  415MOL0     H55983   0.561   5.835   9.253  0.0849 -0.4502 -0.9809
  415MOL0     H55984   0.688   5.914   9.175 -0.1990 -0.6687 -0.8158
  415MOL0     H55985   0.503   5.791   9.480 -2.0669 -2.1139  2.6533
  415MOL0     H55986   0.379   5.813   9.686  1.2464 -1.8396 -1.2163
  415MOL0     H55987   0.453   6.232  10.119  0.2952  3.3399 -0.2722
  415MOL0     H55988   0.329   6.312  10.318  0.8772  0.6410  0.0330
  415MOL0     H55989   0.059   6.131  10.488 -1.2636  0.6469  1.2386
  415MOL0     H55990   0.199   6.236  10.480  0.3575  0.2172 -0.1381
  415MOL0     H55991   0.060   6.274  10.672 -0.5997 -2.1765 -1.7672
  415MOL0     H55992   0.087   6.418  10.573  0.4972  0.4942 -0.7372
  415MOL0     H55993  -0.132   6.403  10.462  1.2733 -0.0651  0.2584
  415MOL0     H55994  -0.165   6.243  10.537  1.4661 -0.4156 -1.5322
  415MOL0     H55995  -0.128   6.506  10.686 -1.6934  0.4855 -2.4446
  415MOL0     H55996  -0.151   6.332  10.757 -0.3946 -1.9409 -0.6744
  415MOL0     H55997  -0.382   6.338  10.673  4.0049 -2.1618  2.0218
  415MOL0     H55998  -0.346   6.504  10.602  1.1759  1.5833 -0.6235
  415MOL0     H55999  -0.288   6.562  10.853  1.6841 -1.5093  2.2508
  415MOL0     H56000  -0.461   6.540  10.810  2.8398  3.9771 -1.2938
  415MOL0     H56001  -0.280   6.323  10.932 -1.2977 -1.7266 -1.2141
  415MOL0     H56002  -0.445   6.304  10.898 -2.7087  2.9671 -0.6962
  415MOL0     H56003  -0.338   6.512  11.091 -0.8166 -0.4260  0.2303
  415MOL0     H56004  -0.508   6.484  11.064 -0.6701  1.8845  0.0000
  415MOL0     H56005  -0.035   6.149  10.148  0.1549  0.6349  4.3514
  415MOL0     H56006   0.096   6.089   9.934 -1.2842  0.4998  0.1300
  415MOL0     H56007   0.545   6.202   9.748  2.4626  1.2012 -1.9410
  415MOL0     H56008   0.670   6.185   9.533 -0.5303  0.5934 -0.1460
  415MOL0     H56009   1.494   6.187   9.957 -0.5729  0.6579 -0.7090
  415MOL0     H56010   1.262   6.247  10.051 -1.8232  2.8208  0.1248
  415MOL0     H56011   1.045   6.595  10.266 -0.3795 -0.8864  0.6293
  415MOL0     H56012   0.844   6.663  10.381 -0.7848  1.1909 -0.2408
  415MOL0     H56013   0.452   6.475  10.354  1.7375  1.0201  1.8946
  415MOL0     H56014   0.472   6.529  10.188 -2.2937  2.0366  0.1698
  415MOL0     H56015   0.378   6.735  10.216  1.4814  0.8106  0.0101
  415MOL0     H56016   0.410   6.738  10.391  0.1513 -1.9375  0.4126
  415MOL0     H56017   0.239   6.556  10.414 -0.6619  1.1934  1.3077
  415MOL0     H56018   0.206   6.542  10.253  2.5438 -2.2254  1.3987
  415MOL0     H56019   0.170   6.827  10.377  1.6222 -1.5141  0.6053
  415MOL0     H56020   0.106   6.760  10.230 -0.8072  4.8178  1.5082
  415MOL0     H56021  -0.183   6.654  10.527  0.3101  2.0880 -0.3671
  415MOL0     H56022   0.617   6.405  10.132  0.0048 -0.2758 -0.1636
  415MOL0     H56023   0.896   6.218  10.019  0.2888  1.8654  5.3141
  415MOL0     H56024   0.723   6.224  10.033 -0.5398  1.5225  0.7908
  415MOL0     H56025   0.805   6.296   9.887  0.1608 -2.9214 -0.9491
  416MOL0     O56026   6.751   4.256  11.149 -0.1312  0.0770 -0.2248
  416MOL0     C56027   6.687   4.358  11.177 -0.1260 -0.3232 -0.9285
  416MOL0     O56028   6.703   4.485  11.121 -0.4183 -0.2235  0.1869
  416MOL0     C56029   6.817   4.515  11.061 -1.1272 -0.3888 -0.1796
  416MOL0     C56030   6.824   4.506  10.925  0.3063 -0.7980  0.0167
  416MOL0     C56031   6.934   4.554  10.848  0.0969 -0.1450  0.4157
  416MOL0     C56032   7.050   4.596  10.926  0.2176  0.8076  0.5448
  416MOL0     O56033   7.168   4.629  10.863  0.2365  0.0334 -0.8540
  416MOL0     C56034   7.160   4.730  10.758 -0.0059 -0.6151  0.6806
  416MOL0     C56035   7.275   4.723  10.658 -0.7043 -0.6821  0.1245
  416MOL0     C56036   7.402   4.789  10.689 -0.5233  0.2295 -0.0902
  416MOL0     C56037   7.470   4.718  10.812 -0.3885 -0.1877 -0.0597
  416MOL0     C56038   7.603   4.776  10.849  0.3243 -0.2160  0.2887
  416MOL0     C56039   7.699   4.760  10.731 -0.0079 -0.1401 -0.3478
  416MOL0     C56040   7.843   4.810  10.769 -0.2323  0.2731 -1.1922
  416MOL0     C56041   7.947   4.825  10.661 -0.9235  0.0670 -0.3723
  416MOL0     N56042   7.939   4.703  10.578  1.0945 -0.1756 -0.3727
  416MOL0     C56043   7.991   4.584  10.614 -0.5852  0.8934 -0.0871
  416MOL0     C56044   7.974   4.501  10.512 -0.4938  0.2107 -0.4277
  416MOL0     C56045   8.017   4.357  10.524 -0.1831  0.9523  0.3843
  416MOL0     C56046   8.049   4.301  10.387  0.4464  0.0182 -0.1721
  416MOL0     C56047   8.063   4.149  10.394  0.0342 -0.7247  0.5644
  416MOL0     C56048   8.129   4.083  10.268  0.2241 -0.3832 -0.4968
  416MOL0     O56049   8.042   4.099  10.163  0.2344  0.2612  0.2902
  416MOL0     C56050   7.948   3.999  10.160  0.1856  0.3415 -0.2840
  416MOL0     C56051   7.973   3.860  10.167 -0.3308 -0.2263 -0.7265
  416MOL0     C56052   7.868   3.766  10.171 -0.5132 -0.0909 -0.0181
  416MOL0     C56053   7.727   3.805  10.155 -0.0027  0.8447  0.4067
  416MOL0     C56054   7.623   3.694  10.167  0.2477 -0.6957  0.0543
  416MOL0     O56055   7.665   3.565  10.172 -0.2438 -0.8563 -0.1089
  416MOL0     C56056   7.576   3.461  10.168 -0.0637 -0.5009 -0.1393
  416MOL0     C56057   7.445   3.461  10.224  0.5492 -0.7223  0.0962
  416MOL0     C56058   7.360   3.350  10.213  0.0513  0.0258  0.4609
  416MOL0     C56059   7.411   3.230  10.152  0.1159 -0.9864  0.4076
  416MOL0     O56060   7.320   3.131  10.131 -0.4516  0.2919 -0.0260
  416MOL0     C56061   7.357   2.992  10.140 -0.4491 -0.4773  0.0881
  416MOL0     C56062   7.238   2.918  10.079 -0.2835  0.9337  0.6298
  416MOL0     C56063   7.255   2.769  10.089 -0.0803 -0.2577 -0.0662
  416MOL0     C56064   7.129   2.706  10.019  0.4648 -0.4377  0.0594
  416MOL0     C56065   7.125   2.566  10.071 -0.0641  0.2329  0.8930
  416MOL0     C56066   7.001   2.494  10.003 -0.4015  0.2433  0.4544
  416MOL0     C56067   7.006   2.495   9.848  0.2379  0.1283  0.2677
  416MOL0     C56068   6.864   2.492   9.805  0.3615  0.3173 -0.2298
  416MOL0    Cl56069   6.867   2.453   9.632 -0.0559 -0.3154 -0.2817
  416MOL0     C56070   7.537   3.234  10.092  0.3175  0.4399  0.1524
  416MOL0     C56071   7.620   3.347  10.102 -1.4166 -0.0454  0.0704
  416MOL0     O56072   7.505   3.737  10.174  0.2238  0.7926  0.5573
  416MOL0     C56073   7.708   3.936  10.135  0.3526  0.4936 -0.0074
  416MOL0     C56074   7.815   4.036  10.136 -0.3419  0.9717  0.5913
  416MOL0     N56075   7.915   4.570  10.408 -0.3504 -0.5772 -0.6078
  416MOL0     N56076   7.898   4.696  10.447 -0.5848  0.1116 -0.4361
  416MOL0     C56077   7.044   4.591  11.061 -0.2590  0.6821 -0.2184
  416MOL0     C56078   6.931   4.555  11.132 -0.4474 -0.7125  0.3100
  416MOL0     C56079   6.560   4.346  11.255  0.6840 -0.7041 -0.2279
  416MOL0     C56080   6.464   4.444  11.256 -0.2628 -0.3371  0.2388
  416MOL0     C56081   6.348   4.439  11.329  0.5753  0.1239  1.1555
  416MOL0     C56082   6.319   4.338  11.420  0.1145  0.2849  0.1794
  416MOL0     O56083   6.207   4.324  11.497 -0.3942 -0.6799 -0.3001
  416MOL0     C56084   6.094   4.412  11.469  0.3136  0.7466 -0.8500
  416MOL0     C56085   5.993   4.380  11.581 -0.3640 -0.0436 -0.2604
  416MOL0     C56086   5.857   4.459  11.576  0.0015 -0.2603  0.2100
  416MOL0     C56087   5.804   4.460  11.434 -1.2869  0.3255  0.2057
  416MOL0     C56088   5.668   4.495  11.438 -0.3325  0.5641  0.2641
  416MOL0     C56089   5.550   4.507  11.431 -0.0669 -0.3515  0.8302
  416MOL0     C56090   6.409   4.231  11.409 -0.6028 -0.7743 -0.5611
  416MOL0     C56091   6.528   4.236  11.340 -0.9388  0.4299  0.5486
  416MOL0     C56092   6.619   4.115  11.360  0.6641 -0.1088 -1.1450
  416MOL0     H56093   6.738   4.464  10.873  0.0845  0.7319 -0.9285
  416MOL0     H56094   6.929   4.556  10.740 -4.4009 -1.0405  0.4133
  416MOL0     H56095   7.078   4.703  10.692 -0.3428  2.4639 -0.3175
  416MOL0     H56096   7.151   4.828  10.804  1.1786  0.1187 -0.5666
  416MOL0     H56097   7.239   4.773  10.568  0.8963 -0.6655 -0.5408
  416MOL0     H56098   7.297   4.621  10.629  0.4063  0.0866 -1.9187
  416MOL0     H56099   7.392   4.898  10.694  2.5823  0.6505 -0.9164
  416MOL0     H56100   7.460   4.769  10.599 -1.9099  2.9709 -1.7375
  416MOL0     H56101   7.412   4.712  10.904 -1.3385  1.6978 -0.4851
  416MOL0     H56102   7.491   4.614  10.785  1.0547 -0.5449  2.2123
  416MOL0     H56103   7.583   4.883  10.862  1.0812  0.1428 -1.2483
  416MOL0     H56104   7.654   4.745  10.941  0.1871 -0.1781  0.3775
  416MOL0     H56105   7.711   4.653  10.710  0.4679 -0.2699  0.5413
  416MOL0     H56106   7.677   4.817  10.640 -2.8547 -2.1342 -1.0534
  416MOL0     H56107   7.873   4.749  10.855 -1.8251 -1.1020 -1.5611
  416MOL0     H56108   7.840   4.911  10.809 -1.6965 -1.8692  5.4253
  416MOL0     H56109   7.929   4.915  10.600  0.5041  0.1519 -0.7150
  416MOL0     H56110   8.049   4.841  10.699 -0.9570  4.5043 -1.5904
  416MOL0     H56111   8.037   4.565  10.710 -4.7355  2.6295  2.5380
  416MOL0     H56112   8.108   4.351  10.585 -0.2169  3.9546  0.8573
  416MOL0     H56113   7.939   4.298  10.573  1.0325 -0.3920  0.7751
  416MOL0     H56114   7.967   4.337  10.324  1.8051  1.7566 -1.0268
  416MOL0     H56115   8.133   4.344  10.332 -0.5526 -0.5869 -2.2745
  416MOL0     H56116   7.963   4.105  10.404  0.5064 -1.5842  1.7871
  416MOL0     H56117   8.116   4.133  10.488  1.6303 -0.9020 -0.3409
  416MOL0     H56118   8.177   3.985  10.281 -1.4639 -1.1829 -0.0768
  416MOL0     H56119   8.207   4.156  10.241 -0.1032  0.3156  0.3734
  416MOL0     H56120   8.072   3.820  10.187 -0.5114  0.5232  2.0359
  416MOL0     H56121   7.891   3.660  10.165  1.7502  0.3372  0.1989
  416MOL0     H56122   7.412   3.553  10.269  0.1614 -1.7753  2.0874
  416MOL0     H56123   7.266   3.346  10.268  0.2275 -1.4536  0.7158
  416MOL0     H56124   7.439   2.969  10.072 -0.9031 -3.8438  0.4881
  416MOL0     H56125   7.374   2.945  10.238  0.4890 -1.0501 -0.3407
  416MOL0     H56126   7.148   2.932  10.139  0.0011 -3.3226  2.3600
  416MOL0     H56127   7.233   2.965   9.980  3.5549  1.1171  0.3863
  416MOL0     H56128   7.345   2.726  10.045 -0.2110 -0.9209  0.2975
  416MOL0     H56129   7.255   2.732  10.192 -4.7458  1.8466  0.9457
  416MOL0     H56130   7.153   2.717   9.913  1.7590  3.3521  0.5899
  416MOL0     H56131   7.038   2.758  10.052  1.6270  0.3161  2.3080
  416MOL0     H56132   7.118   2.572  10.180 -1.5014 -0.6823  0.8718
  416MOL0     H56133   7.215   2.516  10.034  0.1439  0.5528  0.9680
  416MOL0     H56134   6.998   2.389  10.032 -0.1577 -0.7009 -2.6066
  416MOL0     H56135   6.907   2.542  10.034 -1.1642  0.1615 -1.5599
  416MOL0     H56136   7.051   2.397   9.827  0.0728  0.3797 -1.4056
  416MOL0     H56137   7.061   2.574   9.796 -0.0988 -0.5593 -1.1815
  416MOL0     H56138   6.804   2.410   9.845  1.5028 -1.1363 -1.3703
  416MOL0     H56139   6.810   2.585   9.824  2.3600  1.0597  2.3731
  416MOL0     H56140   7.565   3.146  10.034 -1.1681  1.0560 -1.5995
  416MOL0     H56141   7.723   3.336  10.068 -0.6151 -0.6066  2.5008
  416MOL0     H56142   7.606   3.969  10.123 -0.3958 -0.6916  2.4162
  416MOL0     H56143   7.798   4.139  10.107  2.1101  1.1788 -0.3394
  416MOL0     H56144   7.139   4.599  11.114 -0.1667 -0.3223 -0.2104
  416MOL0     H56145   6.926   4.558  11.241  0.1836 -1.8308  0.3808
  416MOL0     H56146   6.462   4.524  11.184  1.0734 -3.5435 -3.7783
  416MOL0     H56147   6.270   4.514  11.318 -1.8595 -1.9754  2.7419
  416MOL0     H56148   6.057   4.386  11.369 -1.0706 -2.3843  0.3285
  416MOL0     H56149   6.116   4.518  11.463 -0.4032  0.8606 -1.6093
  416MOL0     H56150   6.038   4.407  11.677 -1.6627 -2.3537  1.0778
  416MOL0     H56151   5.975   4.272  11.585  0.6382 -0.2367 -0.6016
  416MOL0     H56152   5.874   4.562  11.608 -2.3168 -0.5848  2.8379
  416MOL0     H56153   5.793   4.416  11.654  0.5022 -1.2280  0.1108
  416MOL0     H56154   5.865   4.526  11.371  1.0888 -1.0082  0.9993
  416MOL0     H56155   5.817   4.357  11.401 -1.5393 -0.5418  2.6612
  416MOL0     H56156   5.445   4.514  11.413 -0.0818  2.1879  1.5825
  416MOL0     H56157   6.396   4.143  11.472 -2.0189  0.1075  0.4354
  416MOL0     H56158   6.569   4.032  11.411 -3.0292  2.1263 -0.7902
  416MOL0     H56159   6.641   4.072  11.262 -1.9487  0.0049 -1.8592
  416MOL0     H56160   6.707   4.142  11.420  1.6006  0.2447 -2.6339
  417MOL0     O56161   4.721   9.497   4.150 -0.2957  0.6526  0.1170
  417MOL0     C56162   4.757   9.612   4.177 -0.8826 -0.5703  0.6095
  417MOL0     O56163   4.705   9.723   4.127  0.3690 -0.1208  0.1390
  417MOL0     C56164   4.585   9.720   4.054  0.0103 -0.9635  0.0283
  417MOL0     C56165   4.462   9.672   4.120 -0.4100  0.0134 -0.6186
  417MOL0     C56166   4.343   9.702   4.058 -0.1468 -0.1385  0.0057
  417MOL0     C56167   4.332   9.773   3.933 -0.8732 -0.2346 -0.2284
  417MOL0     O56168   4.213   9.822   3.882  0.2951 -0.2322 -0.0688
  417MOL0     C56169   4.086   9.773   3.924 -0.4155  1.0258  0.6197
  417MOL0     C56170   3.972   9.821   3.838 -0.2957  0.1798 -0.0110
  417MOL0     C56171   3.990   9.957   3.778  0.8363 -0.1614 -0.3671
  417MOL0     C56172   3.971  10.078   3.867  0.1703  0.2517 -0.3826
  417MOL0     C56173   4.094  10.118   3.952  0.2397 -0.1872  0.3057
  417MOL0     C56174   4.204  10.172   3.859 -0.1928  0.4468 -0.0778
  417MOL0     C56175   4.317  10.218   3.949 -0.4843 -0.7157  0.0630
  417MOL0     C56176   4.408  10.117   4.030 -0.0814  0.7822  0.1574
  417MOL0     N56177   4.523  10.193   4.084  0.5129  0.3613 -0.0543
  417MOL0     C56178   4.651  10.183   4.036  0.5724  0.4812 -0.5166
  417MOL0     C56179   4.705  10.300   4.068 -1.0933  0.5038 -0.5904
  417MOL0     C56180   4.846  10.342   4.043  0.0340 -0.1302  0.8252
  417MOL0     C56181   4.933  10.303   4.156  0.3637  0.4978 -0.7509
  417MOL0     C56182   4.911  10.404   4.276  0.4957 -1.0588 -0.4501
  417MOL0     C56183   5.044  10.444   4.336  0.1394 -0.6400  0.6776
  417MOL0     O56184   5.113  10.327   4.389 -0.4623  0.0921 -0.1575
  417MOL0     C56185   5.212  10.358   4.483  0.0105 -0.6345  0.6523
  417MOL0     C56186   5.266  10.250   4.547  0.3256  0.4300 -0.5554
  417MOL0     C56187   5.383  10.266   4.621 -0.1053 -0.3710 -0.5174
  417MOL0     C56188   5.446  10.389   4.633  0.9371 -0.2829  0.1243
  417MOL0     C56189   5.567  10.399   4.714 -0.4298 -0.4311  0.2684
  417MOL0     O56190   5.583  10.304   4.810 -0.6054 -0.3076  0.3015
  417MOL0     C56191   5.696  10.299   4.893 -0.4469  1.3791  0.4819
  417MOL0     C56192   5.800  10.198   4.871 -1.0586 -0.8234  0.4844
  417MOL0     C56193   5.908  10.185   4.959 -0.4529 -0.8151  0.4109
  417MOL0     C56194   5.920  10.273   5.064 -1.4040 -0.1093  0.1852
  417MOL0     O56195   6.045  10.277   5.126  0.5943  0.4492 -0.9532
  417MOL0     C56196   6.020  10.232   5.266 -0.3812 -0.7917  0.3446
  417MOL0     C56197   6.132  10.289   5.352  0.0358 -0.0879 -0.6076
  417MOL0     C56198   6.132  10.447   5.347  1.3657 -0.9409 -0.6236
  417MOL0     C56199   6.048  10.508   5.466  0.1718 -0.0539  0.0132
  417MOL0     C56200   6.041  10.656   5.458  1.2938 -0.2384  0.2031
  417MOL0     C56201   5.941  10.720   5.561  0.3325 -0.0312  0.4373
  417MOL0     C56202   5.896  10.867   5.525 -0.7510  0.8079  0.5219
  417MOL0     C56203   5.764  10.879   5.455  0.9678  0.2140 -0.3468
  417MOL0    Cl56204   5.639  10.873   5.582  0.2221 -0.5420  0.1365
  417MOL0     C56205   5.827  10.369   5.088 -0.2667  0.5333  0.6488
  417MOL0     C56206   5.715  10.387   5.005 -0.1784  0.6107  0.3875
  417MOL0     O56207   5.648  10.489   4.683  0.8784 -0.7253  0.1489
  417MOL0     C56208   5.384  10.499   4.564  0.2398  0.0701  0.7390
  417MOL0     C56209   5.271  10.479   4.491  0.0131 -0.9387 -0.3288
  417MOL0     N56210   4.614  10.377   4.137 -0.1094 -0.2004 -0.1183
  417MOL0     N56211   4.508  10.311   4.149  0.0728  0.0227 -0.0527
  417MOL0     C56212   4.448   9.810   3.871 -0.5631  0.2546 -0.5426
  417MOL0     C56213   4.573   9.786   3.934  0.1697  0.2347 -0.4963
  417MOL0     C56214   4.870   9.621   4.274 -0.5377  0.5602  0.1325
  417MOL0     C56215   4.949   9.506   4.283  0.1280  0.1596  0.2554
  417MOL0     C56216   5.056   9.500   4.383  0.9116  0.2261  1.0956
  417MOL0     C56217   5.077   9.604   4.470 -0.3007 -0.6078  0.1398
  417MOL0     O56218   5.186   9.610   4.555  0.3963  0.5256 -0.1804
  417MOL0     C56219   5.200   9.500   4.647 -0.1059  0.0432 -0.4349
  417MOL0     C56220   5.327   9.488   4.727  0.8716 -0.3564 -0.0266
  417MOL0     C56221   5.426   9.377   4.693 -0.1520  0.4542  0.0783
  417MOL0     C56222   5.537   9.366   4.806 -0.3586 -0.4715 -1.0447
  417MOL0     C56223   5.652   9.285   4.772 -0.2762  0.4517  0.4031
  417MOL0     C56224   5.755   9.222   4.751 -0.1085  0.1372 -0.0873
  417MOL0     C56225   5.012   9.722   4.445  0.8757 -0.5581  0.0192
  417MOL0     C56226   4.904   9.737   4.356  0.2184  0.1882  0.8698
  417MOL0     C56227   4.848   9.881   4.344 -0.9109  0.3036 -0.1155
  417MOL0     H56228   4.457   9.625   4.218 -1.4829  0.2423 -0.5530
  417MOL0     H56229   4.251   9.686   4.112 -0.1229  3.0931  1.2614
  417MOL0     H56230   4.094   9.665   3.906  0.0479  1.4123 -1.7873
  417MOL0     H56231   4.069   9.796   4.029 -0.3478 -1.2724  1.1983
  417MOL0     H56232   3.881   9.827   3.899 -2.3304  0.5015 -2.8829
  417MOL0     H56233   3.949   9.752   3.756 -2.5767 -0.5487  1.1530
  417MOL0     H56234   3.918   9.979   3.699  1.9017  2.4740 -0.7130
  417MOL0     H56235   4.087   9.955   3.727  0.2441 -1.5067 -1.4811
  417MOL0     H56236   3.929  10.169   3.823  2.2534  1.9346  0.9027
  417MOL0     H56237   3.901  10.032   3.938  0.8571 -2.5991 -1.4308
  417MOL0     H56238   4.059  10.197   4.019 -0.4815  0.9532 -1.3378
  417MOL0     H56239   4.121  10.027   4.006 -0.8522 -0.4351  0.4689
  417MOL0     H56240   4.245  10.095   3.794  0.6167  0.9435 -0.1685
  417MOL0     H56241   4.178  10.250   3.786  0.7352 -0.9353 -1.9461
  417MOL0     H56242   4.277  10.293   4.017 -1.6227  0.9571 -2.2937
  417MOL0     H56243   4.381  10.279   3.885 -0.2452  0.0108  0.9837
  417MOL0     H56244   4.349  10.075   4.113 -1.4244  2.6070  0.1946
  417MOL0     H56245   4.438  10.043   3.955  0.0854  0.2408  0.7472
  417MOL0     H56246   4.697  10.097   3.989  0.8289  0.5780 -0.4467
  417MOL0     H56247   4.887  10.284   3.961  1.8808  0.4195  1.3044
  417MOL0     H56248   4.847  10.448   4.016 -2.7179 -0.8926 -3.1329
  417MOL0     H56249   4.906  10.200   4.184  0.1914 -0.3109 -3.5923
  417MOL0     H56250   5.042  10.311   4.147  0.5730  2.5249  2.1719
  417MOL0     H56251   4.849  10.360   4.355  1.0320 -0.0920  0.5312
  417MOL0     H56252   4.862  10.492   4.233  1.4458  0.1993  0.9495
  417MOL0     H56253   5.019  10.510   4.419 -2.3082 -0.8139  0.1446
  417MOL0     H56254   5.102  10.487   4.254 -2.0670  0.2977 -0.4851
  417MOL0     H56255   5.218  10.153   4.542  2.1727 -0.5781  0.4367
  417MOL0     H56256   5.419  10.174   4.668  0.8382  0.7621  1.0915
  417MOL0     H56257   5.812  10.141   4.779  2.7939 -0.7503  0.7987
  417MOL0     H56258   5.990  10.120   4.929 -0.0495  0.6422 -1.8800
  417MOL0     H56259   5.930  10.275   5.311  0.4085  0.5941  0.6792
  417MOL0     H56260   6.022  10.123   5.263  1.3598 -0.7568 -0.8857
  417MOL0     H56261   6.124  10.256   5.456 -2.2674  2.6803  0.2141
  417MOL0     H56262   6.219  10.242   5.303  0.0623 -1.3446  0.5846
  417MOL0     H56263   6.229  10.496   5.358 -0.8735  4.3814 -1.2377
  417MOL0     H56264   6.100  10.471   5.245  0.7985 -2.8835 -0.9358
  417MOL0     H56265   6.075  10.474   5.566  0.5912  2.6040  0.8916
  417MOL0     H56266   5.950  10.462   5.452  0.1247  0.7635 -3.1999
  417MOL0     H56267   6.015  10.673   5.353 -1.2347 -2.6416  0.3201
  417MOL0     H56268   6.140  10.700   5.473  1.5336 -1.0680  1.2109
  417MOL0     H56269   5.858  10.653   5.583 -0.0480  0.2254 -0.1648
  417MOL0     H56270   5.984  10.721   5.661 -0.8502  0.1321  0.9556
  417MOL0     H56271   5.973  10.893   5.452 -0.8394 -0.2259  0.0352
  417MOL0     H56272   5.892  10.929   5.615  1.8746  0.8474  0.6703
  417MOL0     H56273   5.749  10.979   5.414 -1.3108  0.9975  2.1296
  417MOL0     H56274   5.742  10.800   5.383 -0.3093  0.6286 -0.4286
  417MOL0     H56275   5.839  10.446   5.163 -2.1764  0.4120  1.1270
  417MOL0     H56276   5.638  10.458   5.034  0.4773  1.1545  0.8204
  417MOL0     H56277   5.424  10.597   4.585 -2.5499  1.6237 -0.7079
  417MOL0     H56278   5.238  10.572   4.445  0.5665 -0.4584  0.2211
  417MOL0     H56279   4.451   9.870   3.781 -1.2065 -1.4903 -1.7988
  417MOL0     H56280   4.669   9.823   3.900  0.0595  0.1707 -0.8878
  417MOL0     H56281   4.929   9.421   4.218  0.5948  1.3002 -1.4531
  417MOL0     H56282   5.118   9.411   4.381 -1.3011 -1.4344 -2.1119
  417MOL0     H56283   5.178   9.402   4.602  4.3943 -1.2575 -0.2709
  417MOL0     H56284   5.118   9.518   4.717 -2.8216 -0.3644 -3.2803
  417MOL0     H56285   5.291   9.468   4.828 -0.5830  1.3211 -0.1626
  417MOL0     H56286   5.389   9.578   4.721 -0.3898  0.4675 -1.1492
  417MOL0     H56287   5.465   9.406   4.595  1.6874  2.1846  1.2441
  417MOL0     H56288   5.375   9.281   4.687  1.4360 -0.4827  0.8287
  417MOL0     H56289   5.576   9.467   4.819  0.5007 -0.1373 -5.0736
  417MOL0     H56290   5.503   9.321   4.899 -0.2004  0.3784 -0.5631
  417MOL0     H56291   5.850   9.175   4.735 -0.4831 -0.0922 -1.7923
  417MOL0     H56292   5.052   9.800   4.509 -2.1552  0.1031  1.2801
  417MOL0     H56293   4.742   9.872   4.369 -0.6987  2.1706  1.7680
  417MOL0     H56294   4.898   9.939   4.422  1.2003 -3.7861  1.9033
  417MOL0     H56295   4.858   9.927   4.246 -1.1826  1.3104  0.3140
  418MOL0     O56296   2.167   7.669   9.008  0.3040 -0.1982 -0.7031
  418MOL0     C56297   2.117   7.622   8.903 -0.0595 -0.3174  0.7690
  418MOL0     O56298   1.988   7.557   8.886  0.3361  0.0065 -0.4353
  418MOL0     C56299   1.921   7.531   9.004  0.2166 -0.2669  0.0987
  418MOL0     C56300   1.878   7.641   9.081  0.3251 -0.1596  0.5700
  418MOL0     C56301   1.791   7.626   9.183 -1.0377 -0.3552  0.3615
  418MOL0     C56302   1.762   7.498   9.226  0.2346  0.1894 -0.5246
  418MOL0     O56303   1.682   7.486   9.336  0.1055 -0.7217 -0.9044
  418MOL0     C56304   1.641   7.357   9.383 -0.4657 -0.1381  0.1590
  418MOL0     C56305   1.516   7.374   9.478 -0.3152  0.2488 -0.2570
  418MOL0     C56306   1.430   7.485   9.414 -0.2402 -0.2666  0.9320
  418MOL0     C56307   1.311   7.524   9.495  0.8341 -0.5531  0.2673
  418MOL0     C56308   1.233   7.634   9.420  0.3191  0.1183  0.3292
  418MOL0     C56309   1.123   7.679   9.508  0.1734 -0.3432 -0.6331
  418MOL0     C56310   1.046   7.791   9.426  0.3468  0.3789 -0.3159
  418MOL0     C56311   0.916   7.850   9.495 -0.2029 -0.5394 -0.4644
  418MOL0     N56312   0.944   7.902   9.630 -0.4681  1.0163 -0.1871
  418MOL0     C56313   1.030   8.003   9.637  0.1226  0.4358  0.0548
  418MOL0     C56314   1.056   8.021   9.767  0.3727  0.4162 -0.1316
  418MOL0     C56315   1.149   8.113   9.834 -0.4721  0.2331  0.3863
  418MOL0     C56316   1.270   8.042   9.907  0.2192  1.0544 -0.0883
  418MOL0     C56317   1.354   7.955   9.818  0.2094  0.3223 -0.1751
  418MOL0     C56318   1.476   7.907   9.888  0.0304 -0.5292 -0.3825
  418MOL0     O56319   1.602   7.991   9.892  0.1813  0.1047  0.3593
  418MOL0     C56320   1.726   7.943   9.943 -0.6617  0.1466  0.5318
  418MOL0     C56321   1.843   7.982   9.873  0.3531 -0.0732  0.1168
  418MOL0     C56322   1.967   7.933   9.914 -0.4516  0.4487 -0.7905
  418MOL0     C56323   1.981   7.850  10.026 -0.0853 -0.5763 -0.3754
  418MOL0     C56324   2.109   7.809  10.080  0.3850  0.0683 -0.3851
  418MOL0     O56325   2.112   7.758  10.212 -0.2558  0.0460 -0.2801
  418MOL0     C56326   2.232   7.752  10.285 -0.0046  1.0318 -0.2527
  418MOL0     C56327   2.260   7.629  10.346  0.6003 -0.3305  0.6521
  418MOL0     C56328   2.369   7.625  10.427  0.5465  0.1220 -0.2376
  418MOL0     C56329   2.457   7.732  10.436  0.6650 -0.2267  0.2150
  418MOL0     O56330   2.576   7.723  10.506  0.3520  0.7920  0.1706
  418MOL0     C56331   2.647   7.606  10.461 -0.0046 -0.9221  0.0110
  418MOL0     C56332   2.797   7.646  10.482  0.7509 -0.4375 -0.0169
  418MOL0     C56333   2.883   7.553  10.402  0.7668  0.2070  0.3535
  418MOL0     C56334   2.908   7.423  10.484  0.2453  0.1466  0.2404
  418MOL0     C56335   2.954   7.309  10.389  0.0503  0.1393 -0.5207
  418MOL0     C56336   3.088   7.339  10.319  0.7209 -0.2485  0.3180
  418MOL0     C56337   3.203   7.366  10.400  0.7046  0.5238  0.1376
  418MOL0     C56338   3.333   7.367  10.315  0.7047 -0.4854 -0.1934
  418MOL0    Cl56339   3.299   7.439  10.163  0.2265  0.1718 -0.0245
  418MOL0     C56340   2.433   7.849  10.359 -0.2408  0.1434  0.0301
  418MOL0     C56341   2.312   7.860  10.296 -0.7576  0.2934  0.6090
  418MOL0     O56342   2.208   7.834  10.009  0.3120 -0.1604 -0.1569
  418MOL0     C56343   1.862   7.807  10.102  0.0275 -0.5292 -0.4833
  418MOL0     C56344   1.741   7.854  10.054  0.0056 -0.8225 -1.2777
  418MOL0     N56345   0.973   7.927   9.839  0.2885 -0.0806  0.2479
  418MOL0     N56346   0.915   7.850   9.749  0.5662  0.2835  0.1352
  418MOL0     C56347   1.816   7.383   9.163 -0.5992  0.7764 -0.2663
  418MOL0     C56348   1.897   7.395   9.047 -1.3896 -1.0120  0.8468
  418MOL0     C56349   2.222   7.598   8.793  0.1205 -1.2423 -0.6876
  418MOL0     C56350   2.182   7.498   8.695  0.1155 -0.2167  0.5127
  418MOL0     C56351   2.263   7.454   8.590 -0.3007  0.5893  0.0957
  418MOL0     C56352   2.389   7.509   8.587 -0.2309 -0.3259  0.2908
  418MOL0     O56353   2.481   7.447   8.509  0.0111 -0.1701  0.1830
  418MOL0     C56354   2.578   7.525   8.446  0.4439  0.4541 -0.2066
  418MOL0     C56355   2.516   7.607   8.336  0.7021 -0.5368  0.5276
  418MOL0     C56356   2.419   7.533   8.242 -0.3033  0.2364  0.8022
  418MOL0     C56357   2.504   7.455   8.135 -0.4601 -0.2693 -0.7248
  418MOL0     C56358   2.576   7.537   8.042  0.4897 -0.9250 -0.4180
  418MOL0     C56359   2.631   7.631   7.998  0.0478 -0.5851 -0.1183
  418MOL0     C56360   2.427   7.620   8.675  0.5962 -0.5903  0.6068
  418MOL0     C56361   2.343   7.674   8.775  0.7068  0.5972  0.4595
  418MOL0     C56362   2.395   7.774   8.874 -0.0540 -0.0748  0.2437
  418MOL0     H56363   1.901   7.744   9.055  0.1521 -0.4927 -1.0495
  418MOL0     H56364   1.756   7.719   9.227 -0.3154  0.5101 -0.8405
  418MOL0     H56365   1.618   7.295   9.296  3.5309 -0.1743 -1.0957
  418MOL0     H56366   1.721   7.302   9.434 -1.8056 -1.4953  0.8867
  418MOL0     H56367   1.545   7.398   9.581 -4.8244 -1.0449  1.5972
  418MOL0     H56368   1.460   7.279   9.473 -0.2902  0.3138 -2.5581
  418MOL0     H56369   1.407   7.450   9.313  0.4849  1.8640 -0.0424
  418MOL0     H56370   1.483   7.580   9.402  0.6774 -0.3020  3.9165
  418MOL0     H56371   1.249   7.434   9.498  1.5093 -1.1791  5.2959
  418MOL0     H56372   1.340   7.552   9.597  3.1323 -2.3606  0.1951
  418MOL0     H56373   1.312   7.709   9.404  1.3916 -0.8989  0.7602
  418MOL0     H56374   1.190   7.610   9.322 -1.2726  0.0373  1.0338
  418MOL0     H56375   1.051   7.598   9.522  0.8570 -0.9974 -0.8749
  418MOL0     H56376   1.159   7.707   9.607  4.3742  1.2718 -2.3841
  418MOL0     H56377   1.012   7.753   9.329  3.0952  1.0487 -1.6338
  418MOL0     H56378   1.112   7.875   9.405 -0.7764  1.8369  1.6988
  418MOL0     H56379   0.858   7.923   9.438 -0.8238 -0.4591  0.2554
  418MOL0     H56380   0.849   7.766   9.510 -1.8476  0.8968  0.6645
  418MOL0     H56381   1.074   8.046   9.547 -0.2883  0.9666  0.1119
  418MOL0     H56382   1.182   8.183   9.756 -0.7848  0.8276  0.7799
  418MOL0     H56383   1.096   8.171   9.910 -0.4290 -0.8423  1.2513
  418MOL0     H56384   1.331   8.112   9.965  0.3927 -0.0469  1.1019
  418MOL0     H56385   1.225   7.980   9.985 -2.2764  0.2539 -1.9991
  418MOL0     H56386   1.377   8.010   9.727 -0.4130 -1.9064 -1.7563
  418MOL0     H56387   1.295   7.867   9.792  2.1567 -1.2629  0.5518
  418MOL0     H56388   1.500   7.814   9.835  0.9195  0.7308 -2.2798
  418MOL0     H56389   1.449   7.884   9.992  0.9327  1.6281  0.3982
  418MOL0     H56390   1.840   8.056   9.794  1.3743  1.4390  1.4282
  418MOL0     H56391   2.048   7.981   9.859 -1.9432  0.6914 -2.9010
  418MOL0     H56392   2.184   7.555  10.321  0.0019  0.4541  0.0465
  418MOL0     H56393   2.394   7.538  10.487  3.2655  1.6133  0.9904
  418MOL0     H56394   2.629   7.508  10.507 -0.3677 -0.0720  1.7703
  418MOL0     H56395   2.638   7.598  10.352  3.3500  0.6888 -0.5055
  418MOL0     H56396   2.816   7.751  10.460 -0.4659 -0.2065 -0.0317
  418MOL0     H56397   2.814   7.635  10.589  1.2696 -1.6801 -0.2138
  418MOL0     H56398   2.838   7.540  10.303  1.6766 -0.7750  0.0566
  418MOL0     H56399   2.976   7.604  10.378 -0.2323  3.1268  2.2069
  418MOL0     H56400   2.818   7.390  10.536  0.0630  1.3006  0.6924
  418MOL0     H56401   2.985   7.448  10.558  1.2550 -0.4682 -0.5760
  418MOL0     H56402   2.868   7.283  10.327 -1.8322  0.7228  1.7074
  418MOL0     H56403   2.973   7.219  10.448  3.5553 -0.9817 -3.0113
  418MOL0     H56404   3.097   7.251  10.255  0.3128  0.5053 -0.8046
  418MOL0     H56405   3.064   7.429  10.262 -0.5460 -1.4964 -1.2000
  418MOL0     H56406   3.218   7.296  10.483  0.9164  1.2598  0.7304
  418MOL0     H56407   3.195   7.468  10.439  1.5366  0.4071  0.6505
  418MOL0     H56408   3.403   7.437  10.362 -2.4058  0.4352  3.5609
  418MOL0     H56409   3.374   7.266  10.306 -0.7049 -1.0673 -0.3385
  418MOL0     H56410   2.495   7.938  10.368  1.6126 -0.9099 -1.4637
  418MOL0     H56411   2.291   7.947  10.234 -1.5120 -1.2719 -1.4479
  418MOL0     H56412   1.851   7.748  10.193 -0.6409 -1.4028 -1.1075
  418MOL0     H56413   1.645   7.840  10.102 -1.1566 -0.1886 -3.3035
  418MOL0     H56414   1.802   7.280   9.195 -0.2464 -0.1288 -2.7458
  418MOL0     H56415   1.935   7.317   8.983 -0.0454  0.6670 -0.5025
  418MOL0     H56416   2.086   7.452   8.715  1.2644 -1.2104  4.5121
  418MOL0     H56417   2.216   7.367   8.546  0.2653  1.5284 -2.4914
  418MOL0     H56418   2.650   7.448   8.415 -0.3382 -1.5642  2.5435
  418MOL0     H56419   2.627   7.601   8.506 -0.8622  0.7934  0.4739
  418MOL0     H56420   2.589   7.663   8.277  1.0980 -0.2954  1.2387
  418MOL0     H56421   2.456   7.686   8.384 -0.8350  1.0967 -3.6405
  418MOL0     H56422   2.353   7.604   8.190  0.7995 -1.0052 -2.5990
  418MOL0     H56423   2.358   7.457   8.290 -0.5687 -0.3029 -0.3550
  418MOL0     H56424   2.576   7.390   8.186  0.9497  3.3845  2.3650
  418MOL0     H56425   2.441   7.389   8.074 -1.3121 -1.7822  1.6371
  418MOL0     H56426   2.686   7.709   7.950 -0.1088 -0.5711 -0.2762
  418MOL0     H56427   2.515   7.680   8.656 -1.2139  1.7499 -0.8091
  418MOL0     H56428   2.473   7.838   8.831 -0.8989 -0.2045 -1.5790
  418MOL0     H56429   2.312   7.840   8.899  0.0465 -0.3058  1.2192
  418MOL0     H56430   2.446   7.732   8.961  1.5767 -1.4580 -1.2985
  419MOL0     O56431   0.283   2.117   0.597  0.1514 -0.0491  0.2613
  419MOL0     C56432   0.323   2.040   0.515  0.3550  0.6198 -0.9471
  419MOL0     O56433   0.276   1.913   0.520  0.2047  0.1837 -0.2517
  419MOL0     C56434   0.160   1.894   0.585  0.2022 -0.3341 -0.8401
  419MOL0     C56435   0.149   1.782   0.673  0.6306 -0.4004  1.2509
  419MOL0     C56436   0.028   1.760   0.750 -0.5792  0.0638 -0.2243
  419MOL0     C56437  -0.085   1.841   0.723 -0.6422 -0.2575 -1.1246
  419MOL0     O56438  -0.198   1.832   0.788  0.1039  0.3401 -1.0808
  419MOL0     C56439  -0.191   1.902   0.912 -0.2331 -0.4148 -0.5428
  419MOL0     C56440  -0.336   1.960   0.939 -0.3605  0.0797 -0.8953
  419MOL0     C56441  -0.450   1.860   0.984  0.9709  0.0259 -0.2769
  419MOL0     C56442  -0.567   1.938   1.032  0.0090 -0.2205  0.0050
  419MOL0     C56443  -0.698   1.868   1.043  0.0445 -1.0351  0.2410
  419MOL0     C56444  -0.800   1.952   1.110  1.2698  0.2688  0.4987
  419MOL0     C56445  -0.916   1.872   1.164  0.5761  0.1580  0.4236
  419MOL0     C56446  -1.000   1.966   1.251 -1.4681 -2.3335  0.8497
  419MOL0     N56447  -1.124   1.902   1.286 -0.2187  1.0450  0.0663
  419MOL0     C56448  -1.138   1.799   1.378  0.0185 -0.4441  0.6147
  419MOL0     C56449  -1.267   1.765   1.375 -0.1875  0.4678  0.1054
  419MOL0     C56450  -1.339   1.643   1.431  0.3048 -0.4621 -0.3036
  419MOL0     C56451  -1.263   1.522   1.451 -0.5374  0.3900  0.6355
  419MOL0     C56452  -1.248   1.442   1.316  0.4115 -0.5786 -0.8032
  419MOL0     C56453  -1.106   1.384   1.310  0.9462  0.3635  0.8466
  419MOL0     O56454  -1.026   1.469   1.237 -0.1682 -0.1828  0.3492
  419MOL0     C56455  -0.883   1.445   1.254 -0.3225  0.1548  0.2635
  419MOL0     C56456  -0.803   1.511   1.166 -0.7528  0.0744 -0.9032
  419MOL0     C56457  -0.657   1.494   1.177  0.6303  0.1165 -0.1461
  419MOL0     C56458  -0.609   1.394   1.266 -0.4088 -1.2717 -0.7745
  419MOL0     C56459  -0.464   1.368   1.254 -0.9309  0.4452 -0.2478
  419MOL0     O56460  -0.371   1.475   1.217  0.5151 -0.4292 -0.3799
  419MOL0     C56461  -0.237   1.446   1.200 -0.3265 -0.2311  0.4000
  419MOL0     C56462  -0.174   1.521   1.103  0.0444 -0.0091 -0.2186
  419MOL0     C56463  -0.037   1.503   1.090 -0.5142 -0.5752 -0.4337
  419MOL0     C56464   0.045   1.428   1.180 -0.5645 -0.0150  0.2364
  419MOL0     O56465   0.176   1.440   1.165 -0.6159  0.2742 -0.4688
  419MOL0     C56466   0.277   1.416   1.268 -0.1054  0.2346  0.0160
  419MOL0     C56467   0.386   1.342   1.201  0.2694 -0.1890  0.2689
  419MOL0     C56468   0.463   1.450   1.111  0.1738  0.1462  0.1232
  419MOL0     C56469   0.586   1.390   1.048 -0.5908  0.0797 -0.2772
  419MOL0     C56470   0.689   1.340   1.152  0.7789 -0.4920  0.5047
  419MOL0     C56471   0.823   1.302   1.093  0.5059  0.4825  0.4923
  419MOL0     C56472   0.898   1.209   1.187  0.4779 -0.3873 -0.8257
  419MOL0     C56473   1.040   1.180   1.148 -0.6747  0.2100  1.1872
  419MOL0    Cl56474   1.056   1.063   0.996  0.1475 -0.1674  0.1691
  419MOL0     C56475  -0.020   1.355   1.278 -0.0128  0.0272  0.5660
  419MOL0     C56476  -0.162   1.367   1.291  0.0495  0.6533  0.8528
  419MOL0     O56477  -0.430   1.248   1.268  0.2490  0.5481 -0.4626
  419MOL0     C56478  -0.693   1.326   1.346 -0.2191  0.6393  0.6680
  419MOL0     C56479  -0.828   1.356   1.336 -0.2230  0.4456  0.0505
  419MOL0     N56480  -1.338   1.852   1.292  0.0891  0.2100  0.3009
  419MOL0     N56481  -1.248   1.936   1.241  0.5281 -0.1184 -0.1538
  419MOL0     C56482  -0.073   1.932   0.617  0.7651 -1.1824 -0.3566
  419MOL0     C56483   0.046   1.967   0.550  1.0461 -0.7904  0.0077
  419MOL0     C56484   0.431   2.063   0.419  0.0031 -0.0419  0.5233
  419MOL0     C56485   0.460   1.950   0.334 -0.0745  0.7566  1.2761
  419MOL0     C56486   0.540   1.978   0.221  0.4040 -0.0052  0.4166
  419MOL0     C56487   0.599   2.099   0.196 -0.2778 -0.3482  0.0992
  419MOL0     O56488   0.659   2.116   0.075 -0.6452 -0.7039  0.6605
  419MOL0     C56489   0.573   2.157  -0.033 -0.6360 -0.0786  0.5291
  419MOL0     C56490   0.635   2.140  -0.175  0.7345 -1.1977 -0.7945
  419MOL0     C56491   0.529   2.182  -0.285  0.0213  0.1120 -0.0774
  419MOL0     C56492   0.572   2.157  -0.434  0.0885  0.0038 -0.0617
  419MOL0     C56493   0.613   2.019  -0.439  0.3207  0.2503  0.2155
  419MOL0     C56494   0.669   1.912  -0.450 -0.0183  0.4247  0.1823
  419MOL0     C56495   0.574   2.202   0.274  0.3114 -0.5367 -0.4152
  419MOL0     C56496   0.486   2.193   0.383  0.5390  0.7155  0.1941
  419MOL0     C56497   0.461   2.327   0.459 -0.0615  0.8881 -0.5125
  419MOL0     H56498   0.232   1.717   0.700  2.4160  1.9699  1.8185
  419MOL0     H56499   0.019   1.681   0.824  0.8048 -1.6557 -1.7972
  419MOL0     H56500  -0.164   1.834   0.994  0.0120 -0.1604 -0.4090
  419MOL0     H56501  -0.114   1.979   0.899  1.3531 -1.6541  1.0620
  419MOL0     H56502  -0.359   2.022   0.852  0.9536  1.2933 -0.4320
  419MOL0     H56503  -0.323   2.030   1.022 -4.5330  0.7334 -0.5566
  419MOL0     H56504  -0.404   1.787   1.051 -0.0908 -1.7208 -1.3657
  419MOL0     H56505  -0.486   1.795   0.903 -2.2207 -1.9724  2.5127
  419MOL0     H56506  -0.550   1.965   1.137  0.5605 -0.9987  0.1285
  419MOL0     H56507  -0.583   2.022   0.965 -1.6628 -0.0370  0.5794
  419MOL0     H56508  -0.731   1.827   0.947 -0.9507 -0.2223  0.2191
  419MOL0     H56509  -0.670   1.782   1.105  5.2199 -0.9620 -1.5316
  419MOL0     H56510  -0.755   2.013   1.189  0.5111  3.4656 -1.3387
  419MOL0     H56511  -0.847   2.017   1.036  0.0669 -0.2500  0.7787
  419MOL0     H56512  -0.884   1.787   1.225 -0.1017  0.1301  0.7502
  419MOL0     H56513  -0.968   1.831   1.077 -0.4422  0.4434  0.8862
  419MOL0     H56514  -0.937   1.987   1.338  0.6866 -0.3657 -1.0400
  419MOL0     H56515  -1.009   2.070   1.216  3.1609 -1.4146  1.6371
  419MOL0     H56516  -1.064   1.752   1.442  0.9617  1.4416  0.9862
  419MOL0     H56517  -1.378   1.685   1.524  2.2257  5.3714 -1.6783
  419MOL0     H56518  -1.420   1.618   1.361 -0.3944  0.4695  0.1499
  419MOL0     H56519  -1.161   1.544   1.485  0.2936  0.9939 -2.0323
  419MOL0     H56520  -1.321   1.460   1.521 -0.1340 -2.7240 -1.5647
  419MOL0     H56521  -1.275   1.504   1.231  2.4838  1.9395  0.2237
  419MOL0     H56522  -1.313   1.354   1.316 -1.9564  1.0456  0.6159
  419MOL0     H56523  -1.103   1.289   1.255  0.1449 -0.9870  3.0377
  419MOL0     H56524  -1.069   1.367   1.411  1.0094 -0.6798  0.6594
  419MOL0     H56525  -0.848   1.571   1.087  1.2652  1.7906 -0.8441
  419MOL0     H56526  -0.588   1.541   1.108  0.5944  0.0840 -0.2046
  419MOL0     H56527  -0.219   1.599   1.042  2.5020  0.8501 -1.0648
  419MOL0     H56528   0.019   1.575   1.031 -0.8611 -0.4495 -0.6099
  419MOL0     H56529   0.311   1.509   1.317  1.2154 -1.1326  1.8427
  419MOL0     H56530   0.240   1.338   1.334 -1.3954 -1.4940 -2.6076
  419MOL0     H56531   0.445   1.299   1.283  0.0662 -0.0766  0.4756
  419MOL0     H56532   0.349   1.260   1.138  3.0720 -2.2090  1.0445
  419MOL0     H56533   0.405   1.472   1.021  0.9172 -0.8818 -0.6298
  419MOL0     H56534   0.493   1.532   1.177 -1.5948  0.4400  0.6115
  419MOL0     H56535   0.630   1.467   0.983 -0.6400 -0.6321 -1.1671
  419MOL0     H56536   0.560   1.312   0.976 -0.9493  0.9747 -1.1487
  419MOL0     H56537   0.651   1.248   1.197 -2.7463 -0.0876 -1.2645
  419MOL0     H56538   0.708   1.419   1.225 -1.0229 -1.7300  2.4036
  419MOL0     H56539   0.812   1.252   0.996 -1.9557  0.5231  0.6752
  419MOL0     H56540   0.878   1.395   1.079 -0.0738  0.5585 -1.6654
  419MOL0     H56541   0.847   1.113   1.201  1.1693 -0.2937  4.4257
  419MOL0     H56542   0.905   1.250   1.289  0.0275 -2.4763  0.1040
  419MOL0     H56543   1.094   1.272   1.122 -0.9417 -0.1281 -0.6550
  419MOL0     H56544   1.085   1.122   1.229 -1.9192 -0.6922  1.2542
  419MOL0     H56545   0.034   1.299   1.353  1.7806  0.8065 -0.1031
  419MOL0     H56546  -0.193   1.302   1.372  0.8942 -2.5914 -1.2181
  419MOL0     H56547  -0.660   1.243   1.408  0.1186 -2.2257 -3.0123
  419MOL0     H56548  -0.892   1.293   1.397 -0.6859 -0.7935 -1.6434
  419MOL0     H56549  -0.165   1.987   0.600  0.6135 -0.4414  2.3884
  419MOL0     H56550   0.053   2.041   0.470 -0.0046 -1.0978 -0.3880
  419MOL0     H56551   0.417   1.852   0.351 -0.3861  0.3272 -1.4604
  419MOL0     H56552   0.557   1.894   0.155  2.8802 -0.1048  1.0952
  419MOL0     H56553   0.555   2.264  -0.021 -0.5337  0.1323 -0.9927
  419MOL0     H56554   0.477   2.105  -0.033 -0.1864 -0.9880 -1.3265
  419MOL0     H56555   0.664   2.037  -0.195  2.0960 -0.8839 -0.5401
  419MOL0     H56556   0.723   2.205  -0.178 -1.0893  1.5061  0.0409
  419MOL0     H56557   0.502   2.287  -0.270 -1.8973 -0.1249 -1.4273
  419MOL0     H56558   0.436   2.130  -0.258  0.6979 -0.2975  1.5417
  419MOL0     H56559   0.478   2.173  -0.488  0.1349  2.2394  0.4220
  419MOL0     H56560   0.649   2.220  -0.479  1.6518  0.0155  2.4463
  419MOL0     H56561   0.728   1.825  -0.469 -0.1893  0.4245 -0.3663
  419MOL0     H56562   0.624   2.294   0.244  0.6485 -0.7631 -0.5635
  419MOL0     H56563   0.505   2.406   0.398  3.7325 -0.6032  0.0285
  419MOL0     H56564   0.353   2.349   0.459 -0.1998  0.3409  1.1522
  419MOL0     H56565   0.496   2.326   0.562  0.3018  3.0755 -0.5692
  420MOL0     O56566  11.204  10.299   5.702 -0.4390  0.4786 -0.2185
  420MOL0     C56567  11.136  10.305   5.599 -0.0526  0.4313  0.1440
  420MOL0     O56568  11.172  10.253   5.488 -0.6637  0.6595 -0.1352
  420MOL0     C56569  11.270  10.159   5.478  0.1318  0.0472 -0.2013
  420MOL0     C56570  11.247  10.024   5.441 -0.1167  0.0426 -0.7836
  420MOL0     C56571  11.334   9.924   5.436 -0.8232 -0.5256 -0.6171
  420MOL0     C56572  11.466   9.952   5.465  0.0768  0.4807  0.4236
  420MOL0     O56573  11.561   9.853   5.454 -0.6706  0.0152 -0.1674
  420MOL0     C56574  11.699   9.877   5.433 -0.3406  1.3448 -0.0967
  420MOL0     C56575  11.755   9.775   5.329  0.0087  0.2679  0.8898
  420MOL0     C56576  11.747   9.630   5.367  0.1447  0.4900  1.1763
  420MOL0     C56577  11.801   9.541   5.256  0.3641  0.3688  0.6583
  420MOL0     C56578  11.832   9.393   5.301 -0.0233 -0.2206 -0.3768
  420MOL0     C56579  11.716   9.307   5.335 -0.2569 -0.8019 -0.3079
  420MOL0     C56580  11.750   9.157   5.355  0.8533 -0.4576  0.6069
  420MOL0     C56581  11.637   9.068   5.353  0.8085  0.3802  0.5384
  420MOL0     N56582  11.590   9.050   5.210  0.0875 -0.4566 -0.1112
  420MOL0     C56583  11.477   9.111   5.158  0.2376 -0.3139 -0.5699
  420MOL0     C56584  11.485   9.084   5.031  0.5060  0.1913 -0.7611
  420MOL0     C56585  11.379   9.117   4.930 -0.3766  0.3253 -0.0640
  420MOL0     C56586  11.252   9.040   4.936  1.0328 -0.0108 -0.3876
  420MOL0     C56587  11.124   9.101   4.849 -0.4081  0.4623  0.6344
  420MOL0     C56588  11.137   9.079   4.700 -0.2138  0.8275  0.3415
  420MOL0     O56589  11.132   8.938   4.669  0.1791 -0.6399  0.2283
  420MOL0     C56590  11.013   8.874   4.668  0.6130 -0.0256 -0.0512
  420MOL0     C56591  11.024   8.736   4.677  0.0595  0.2202  0.0244
  420MOL0     C56592  10.914   8.651   4.688 -0.5881 -0.2670  0.6720
  420MOL0     C56593  10.782   8.704   4.685  0.1614 -0.9250  0.4724
  420MOL0     C56594  10.656   8.624   4.687 -0.9096  0.3661 -0.1998
  420MOL0     O56595  10.669   8.491   4.709  0.0150 -0.5268 -0.2454
  420MOL0     C56596  10.570   8.406   4.659  0.7635 -0.0219  0.0167
  420MOL0     C56597  10.482   8.434   4.548 -0.1554  0.6018  0.0226
  420MOL0     C56598  10.391   8.333   4.493 -0.6707  0.5538 -1.1361
  420MOL0     C56599  10.388   8.205   4.560 -0.2143 -0.2408 -0.9573
  420MOL0     O56600  10.320   8.097   4.508  0.1591  0.0803  0.1553
  420MOL0     C56601  10.261   7.996   4.598  0.3166  0.2317  0.2628
  420MOL0     C56602  10.173   7.909   4.515  0.8310  0.0472  0.6323
  420MOL0     C56603  10.021   7.957   4.526  0.2513  0.2155  0.5121
  420MOL0     C56604   9.912   7.875   4.459  0.7483 -0.3279  0.0072
  420MOL0     C56605   9.798   7.821   4.554  0.0705  0.0939  0.1378
  420MOL0     C56606   9.846   7.706   4.652  0.5455  0.2911 -0.4437
  420MOL0     C56607   9.724   7.667   4.735 -0.0809 -0.9755 -0.1710
  420MOL0     C56608   9.769   7.586   4.859  0.6725  0.0137  0.2224
  420MOL0    Cl56609   9.874   7.445   4.815  0.2584 -0.4967 -0.4398
  420MOL0     C56610  10.473   8.189   4.674 -0.4459  0.2878 -0.1975
  420MOL0     C56611  10.566   8.278   4.717  0.1672 -0.1011 -0.1328
  420MOL0     O56612  10.550   8.688   4.689 -0.1605 -0.1866  0.3767
  420MOL0     C56613  10.768   8.846   4.692 -0.0076 -0.9374 -0.7177
  420MOL0     C56614  10.885   8.926   4.686 -0.3162 -0.4226 -0.1587
  420MOL0     N56615  11.589   8.987   5.006  0.0115  0.9538  0.4522
  420MOL0     N56616  11.655   8.969   5.120  0.2113 -0.3659 -0.2581
  420MOL0     C56617  11.497  10.086   5.487  0.2279 -0.5113 -0.8966
  420MOL0     C56618  11.406  10.186   5.499  0.0806  0.2313 -0.7235
  420MOL0     C56619  11.011  10.377   5.612 -0.5637  0.1167  0.0754
  420MOL0     C56620  10.913  10.344   5.525 -0.1191 -0.0254 -1.0519
  420MOL0     C56621  10.784  10.386   5.530  0.2896  0.4038 -0.0208
  420MOL0     C56622  10.747  10.477   5.630  0.6301 -0.0878  0.4941
  420MOL0     O56623  10.618  10.534   5.625  0.6656  0.2316  0.2239
  420MOL0     C56624  10.586  10.615   5.732  0.7611 -0.0535 -1.0367
  420MOL0     C56625  10.454  10.700   5.719 -0.0473  0.5413  0.0443
  420MOL0     C56626  10.331  10.616   5.701  0.7100  0.1252  0.2750
  420MOL0     C56627  10.313  10.551   5.566 -0.1650 -0.5140  0.4824
  420MOL0     C56628  10.306  10.408   5.584  0.6227 -0.1516  0.8130
  420MOL0     C56629  10.306  10.291   5.609  0.0795  0.6168 -0.1957
  420MOL0     C56630  10.852  10.513   5.727  1.1526  0.1674  0.2511
  420MOL0     C56631  10.983  10.467   5.711  0.2358 -0.1296  0.2680
  420MOL0     C56632  11.079  10.521   5.813 -0.7806 -0.0937  0.0888
  420MOL0     H56633  11.144   9.997   5.421 -1.3313  1.7416  2.3831
  420MOL0     H56634  11.306   9.820   5.423 -1.5073 -0.2334 -1.6101
  420MOL0     H56635  11.716   9.975   5.388  0.0227  1.7575  0.9069
  420MOL0     H56636  11.750   9.868   5.529 -2.6071 -0.4696  1.0356
  420MOL0     H56637  11.861   9.800   5.316  0.2746 -1.4383 -0.5094
  420MOL0     H56638  11.705   9.802   5.235 -0.1055  1.2617  1.2225
  420MOL0     H56639  11.645   9.607   5.400  0.0145 -1.6158 -0.5017
  420MOL0     H56640  11.810   9.621   5.457  0.3594  2.6778  1.3003
  420MOL0     H56641  11.722   9.543   5.181 -0.0401 -1.9285  0.9265
  420MOL0     H56642  11.893   9.578   5.211 -0.0936 -2.2711 -2.8647
  420MOL0     H56643  11.885   9.354   5.214 -0.0647 -0.0954 -0.4587
  420MOL0     H56644  11.902   9.394   5.386  0.1683 -0.8408 -0.5230
  420MOL0     H56645  11.661   9.351   5.419  0.6648  3.8034 -1.8148
  420MOL0     H56646  11.638   9.305   5.258 -0.2963 -0.8407 -0.2676
  420MOL0     H56647  11.802   9.140   5.450  3.9086  0.6998 -0.7348
  420MOL0     H56648  11.825   9.128   5.281 -0.3710 -0.5793 -0.6195
  420MOL0     H56649  11.662   8.964   5.377 -1.8620 -0.2174  1.0789
  420MOL0     H56650  11.548   9.098   5.410  0.1932 -0.1382 -0.1171
  420MOL0     H56651  11.398   9.165   5.209 -0.9997 -2.4368 -0.1183
  420MOL0     H56652  11.359   9.224   4.920  0.2862  0.4743  0.1752
  420MOL0     H56653  11.432   9.092   4.837 -1.3590 -0.8336 -0.3391
  420MOL0     H56654  11.271   8.940   4.897  2.5883  0.0872  0.0783
  420MOL0     H56655  11.230   9.031   5.043 -0.2407  1.2558 -0.5050
  420MOL0     H56656  11.120   9.208   4.874 -1.9361  0.7874 -0.8370
  420MOL0     H56657  11.027   9.061   4.879 -1.4832  1.5589 -1.1649
  420MOL0     H56658  11.229   9.134   4.679 -1.0578  2.5537  0.9769
  420MOL0     H56659  11.063   9.126   4.635  2.3029  2.0286 -1.8356
  420MOL0     H56660  11.120   8.687   4.671  0.0467  0.2709 -0.7777
  420MOL0     H56661  10.926   8.546   4.665  2.5174  0.3803 -1.3466
  420MOL0     H56662  10.494   8.526   4.491 -1.3049  0.6426 -0.1917
  420MOL0     H56663  10.325   8.341   4.407 -0.4370  1.0688 -1.2672
  420MOL0     H56664  10.326   7.926   4.652 -0.9095 -1.2525 -0.0954
  420MOL0     H56665  10.199   8.038   4.678 -1.4071 -1.9673  0.1774
  420MOL0     H56666  10.201   7.918   4.409  1.1815 -2.1201  0.5015
  420MOL0     H56667  10.181   7.807   4.553 -2.6373 -0.0878  1.3323
  420MOL0     H56668  10.002   7.957   4.634  0.0447  2.5850  0.5175
  420MOL0     H56669  10.021   8.057   4.481  3.4103  0.0155 -0.1553
  420MOL0     H56670   9.947   7.790   4.401 -1.0530 -1.8359  1.0016
  420MOL0     H56671   9.857   7.935   4.386 -0.9755 -1.1506  0.5604
  420MOL0     H56672   9.710   7.805   4.491  2.3614 -2.2581 -2.7565
  420MOL0     H56673   9.759   7.901   4.618 -0.9087  0.5132 -0.9590
  420MOL0     H56674   9.877   7.618   4.596 -0.1467  0.2719 -0.8127
  420MOL0     H56675   9.920   7.740   4.725 -0.3518  0.5383  0.3761
  420MOL0     H56676   9.638   7.621   4.686 -0.1079  0.1923 -1.2547
  420MOL0     H56677   9.685   7.761   4.775  1.5407 -0.5919  0.5685
  420MOL0     H56678   9.818   7.652   4.931 -0.1165 -1.6638  2.4080
  420MOL0     H56679   9.674   7.556   4.904 -0.2162  0.5578 -1.2172
  420MOL0     H56680  10.457   8.092   4.721  0.6703  0.4747  0.6178
  420MOL0     H56681  10.632   8.257   4.800 -2.1825  0.0382  1.8806
  420MOL0     H56682  10.668   8.881   4.713  0.6598  2.5683 -2.6626
  420MOL0     H56683  10.870   9.033   4.699 -0.5307 -0.6175  1.3285
  420MOL0     H56684  11.601  10.106   5.509  0.3359 -1.1360 -0.8169
  420MOL0     H56685  11.444  10.287   5.513 -0.3140  0.5974 -2.1528
  420MOL0     H56686  10.937  10.272   5.448 -1.9812  1.0379 -2.7285
  420MOL0     H56687  10.707  10.348   5.463  1.2157 -0.7866 -0.4599
  420MOL0     H56688  10.664  10.691   5.746  1.2553 -0.3407 -2.0793
  420MOL0     H56689  10.571  10.544   5.814 -3.4849 -0.1919 -1.7142
  420MOL0     H56690  10.464  10.766   5.633  0.4711 -2.9366 -2.8234
  420MOL0     H56691  10.446  10.752   5.815 -0.8757 -1.6775  1.2636
  420MOL0     H56692  10.248  10.688   5.704 -1.0154 -1.6061 -2.0168
  420MOL0     H56693  10.321  10.561   5.795 -2.9390  0.8130  0.4448
  420MOL0     H56694  10.212  10.570   5.528 -0.2605 -1.0518  0.4552
  420MOL0     H56695  10.383  10.589   5.490  1.0649 -1.0225  1.3333
  420MOL0     H56696  10.325  10.186   5.623 -4.4359 -0.3896  0.0302
  420MOL0     H56697  10.835  10.581   5.810  0.7603  0.0848  0.2387
  420MOL0     H56698  11.035  10.609   5.860 -0.8679 -0.9804  1.7401
  420MOL0     H56699  11.102  10.452   5.894  1.5687 -2.8848 -2.6846
  420MOL0     H56700  11.175  10.550   5.770 -0.5403  2.5215  2.1983
  421MOL0     O56701   7.337  11.045   7.319 -0.3646 -0.8410 -0.5342
  421MOL0     C56702   7.303  11.135   7.399 -0.3309  0.2214  0.2303
  421MOL0     O56703   7.384  11.188   7.491 -0.3892  0.3595  0.3023
  421MOL0     C56704   7.515  11.169   7.486 -0.3548  0.1770  0.4892
  421MOL0     C56705   7.599  11.214   7.387  0.9450  0.2302 -0.3986
  421MOL0     C56706   7.725  11.161   7.374  0.5319 -0.4148  0.5825
  421MOL0     C56707   7.768  11.058   7.449 -0.3387  0.3099  0.3231
  421MOL0     O56708   7.898  11.019   7.427 -0.0074  0.4643  0.1067
  421MOL0     C56709   7.988  10.960   7.516 -0.1265  0.7099  0.0308
  421MOL0     C56710   8.118  10.968   7.443 -0.3185  0.5105  0.3765
  421MOL0     C56711   8.123  10.870   7.327  0.3105  0.3083  0.5647
  421MOL0     C56712   8.273  10.835   7.294  0.5880 -0.8450  0.6904
  421MOL0     C56713   8.279  10.733   7.185 -0.8056  0.8210  0.0380
  421MOL0     C56714   8.426  10.676   7.176 -0.4120 -0.7302 -0.3167
  421MOL0     C56715   8.441  10.579   7.067 -0.2377  0.8994 -0.3616
  421MOL0     C56716   8.579  10.503   7.051  0.2157 -0.3319 -0.0827
  421MOL0     N56717   8.688  10.588   7.097 -0.0033  0.3597  0.3923
  421MOL0     C56718   8.751  10.683   7.022  0.4119  0.8193  0.3548
  421MOL0     C56719   8.871  10.712   7.089 -0.3321 -0.0336 -0.0975
  421MOL0     C56720   8.976  10.812   7.061 -0.0343 -0.2219  0.9083
  421MOL0     C56721   8.930  10.949   7.042  0.0114 -0.6448 -0.3873
  421MOL0     C56722   9.021  11.031   6.941  0.5078  0.6168 -0.2698
  421MOL0     C56723   8.962  11.175   6.929  0.1310  0.0634 -1.1090
  421MOL0     O56724   9.032  11.230   6.819 -0.9193  0.3773 -0.0615
  421MOL0     C56725   9.164  11.282   6.828 -0.1920  0.6117 -0.3980
  421MOL0     C56726   9.210  11.342   6.716  0.0855 -0.0519  0.9570
  421MOL0     C56727   9.349  11.391   6.711 -0.7003 -0.2549  1.5244
  421MOL0     C56728   9.427  11.372   6.830  1.2352  0.2985 -0.6244
  421MOL0     C56729   9.566  11.402   6.838  0.1954  0.1192  0.0612
  421MOL0     O56730   9.621  11.405   6.958 -0.1889  0.9038 -0.2782
  421MOL0     C56731   9.718  11.495   6.984  0.2928  0.4385 -1.2448
  421MOL0     C56732   9.820  11.457   7.066 -0.5081  0.0515 -0.3422
  421MOL0     C56733   9.919  11.544   7.115  0.1682 -0.2862 -0.0522
  421MOL0     C56734   9.912  11.681   7.060 -0.2178  0.2632 -0.7032
  421MOL0     O56735   9.995  11.772   7.116 -1.2439 -0.1021 -0.0478
  421MOL0     C56736  10.056  11.874   7.021  0.1285  0.2762  0.2146
  421MOL0     C56737  10.105  11.998   7.088  0.0432 -0.3418 -0.0676
  421MOL0     C56738  10.242  11.979   7.146 -0.3756  0.0040 -0.3544
  421MOL0     C56739  10.267  12.107   7.225  0.0583  0.6308 -1.1184
  421MOL0     C56740  10.403  12.100   7.301 -0.4825 -0.2111  0.5208
  421MOL0     C56741  10.448  12.237   7.356  0.2759  0.0685  0.1159
  421MOL0     C56742  10.361  12.283   7.466  0.3197 -0.3391  0.0123
  421MOL0     C56743  10.423  12.394   7.545 -0.5586 -0.4732 -1.2780
  421MOL0    Cl56744  10.498  12.318   7.687 -0.2538  0.4202  0.6162
  421MOL0     C56745   9.808  11.713   6.969 -0.1473 -1.0962 -1.3123
  421MOL0     C56746   9.709  11.624   6.934  0.9290 -0.0606  0.2424
  421MOL0     O56747   9.632  11.425   6.733  0.0703 -0.0106  0.1773
  421MOL0     C56748   9.365  11.328   6.949  0.5006 -0.0663 -0.3314
  421MOL0     C56749   9.239  11.283   6.948  0.1795 -0.9059  0.1377
  421MOL0     N56750   8.877  10.631   7.205 -0.0529 -0.0057 -0.5835
  421MOL0     N56751   8.775  10.557   7.203  0.0084  0.1879  0.1043
  421MOL0     C56752   7.698  11.016   7.560 -0.2765 -0.1368 -0.6719
  421MOL0     C56753   7.575  11.075   7.583  0.2248  0.1322  0.0378
  421MOL0     C56754   7.161  11.164   7.384  0.5020  0.5540 -0.6567
  421MOL0     C56755   7.104  11.181   7.252  0.0341  0.0215  0.0028
  421MOL0     C56756   6.970  11.222   7.245 -0.1551 -0.1996 -0.0973
  421MOL0     C56757   6.892  11.234   7.354  0.3527 -0.8562  0.6670
  421MOL0     O56758   6.769  11.287   7.331  0.0635 -0.2956 -0.6750
  421MOL0     C56759   6.657  11.198   7.294 -0.2391  0.3448 -0.3023
  421MOL0     C56760   6.599  11.112   7.404  0.2984  0.8932  0.7514
  421MOL0     C56761   6.489  11.024   7.344 -0.1619 -0.3938 -0.4874
  421MOL0     C56762   6.354  11.099   7.357 -0.7481  0.1810 -0.7496
  421MOL0     C56763   6.301  11.115   7.492 -0.4950  0.3297 -0.3176
  421MOL0     C56764   6.265  11.128   7.607 -0.8076  0.1571 -0.5183
  421MOL0     C56765   6.945  11.215   7.475 -0.9143  0.0779 -0.2832
  421MOL0     C56766   7.077  11.168   7.496  0.2541 -0.4641 -0.0498
  421MOL0     C56767   7.129  11.154   7.640  0.9753  0.0935  0.3476
  421MOL0     H56768   7.553  11.293   7.328  0.2082  0.5964  0.6252
  421MOL0     H56769   7.778  11.210   7.293  0.8897 -1.2403  0.3084
  421MOL0     H56770   7.985  11.011   7.613  1.9164 -0.6051  0.8769
  421MOL0     H56771   7.964  10.856   7.542  1.0305  0.8016  1.5999
  421MOL0     H56772   8.203  10.955   7.510 -0.3897  0.2445  0.4140
  421MOL0     H56773   8.123  11.067   7.395 -2.8435  0.1257 -0.8705
  421MOL0     H56774   8.072  10.922   7.245 -0.8750 -0.0942  1.0257
  421MOL0     H56775   8.068  10.776   7.339  1.2551 -0.7603 -2.4814
  421MOL0     H56776   8.320  10.927   7.258 -0.4686 -1.2980 -2.0620
  421MOL0     H56777   8.318  10.800   7.387 -0.4556 -0.4918  1.3623
  421MOL0     H56778   8.208  10.653   7.207  0.7691 -1.4874 -2.6679
  421MOL0     H56779   8.248  10.786   7.095 -1.8905 -0.0695 -0.1418
  421MOL0     H56780   8.501  10.756   7.175 -0.5024 -0.5117  2.7069
  421MOL0     H56781   8.452  10.620   7.266  2.2754  1.1994  0.2396
  421MOL0     H56782   8.428  10.620   6.966 -2.0297 -0.6624 -0.8082
  421MOL0     H56783   8.365  10.501   7.077 -0.6583  1.5850  2.9683
  421MOL0     H56784   8.577  10.414   7.115 -1.0514  0.3665  0.9213
  421MOL0     H56785   8.599  10.466   6.951  0.0646  2.5504 -1.2939
  421MOL0     H56786   8.720  10.713   6.922  0.1509 -1.5610 -0.3393
  421MOL0     H56787   9.048  10.796   7.142  0.8645 -3.4592 -0.3596
  421MOL0     H56788   9.024  10.788   6.966  2.5373  0.2687  1.9929
  421MOL0     H56789   8.826  10.947   7.008 -0.5502 -0.8022  1.2637
  421MOL0     H56790   8.936  10.991   7.143 -1.0869 -3.1047  0.7955
  421MOL0     H56791   9.027  10.983   6.843 -0.1591 -3.3613  1.4526
  421MOL0     H56792   9.122  11.029   6.983  1.3007  0.2223 -2.1163
  421MOL0     H56793   8.972  11.225   7.026 -1.2852  0.6889 -1.2634
  421MOL0     H56794   8.855  11.180   6.907  0.1016  0.6044 -0.8696
  421MOL0     H56795   9.148  11.356   6.628  0.9835 -2.0367 -0.0633
  421MOL0     H56796   9.398  11.430   6.622 -1.0835 -2.6089  0.2077
  421MOL0     H56797   9.810  11.351   7.089 -4.3145  0.0784 -1.1174
  421MOL0     H56798   9.997  11.522   7.187  0.4542  0.4824 -0.1117
  421MOL0     H56799  10.139  11.828   6.967 -2.0575  2.1416 -5.4471
  421MOL0     H56800   9.991  11.900   6.937  0.0839  1.7384  0.6720
  421MOL0     H56801  10.107  12.081   7.016  2.2271  0.2294  0.5933
  421MOL0     H56802  10.038  12.014   7.173  0.8924 -2.7090  1.1294
  421MOL0     H56803  10.246  11.881   7.196 -2.1700  0.3442  0.5616
  421MOL0     H56804  10.322  11.987   7.073  1.2037  0.3019  1.3250
  421MOL0     H56805  10.189  12.126   7.300 -2.3479 -0.8064 -3.0655
  421MOL0     H56806  10.250  12.195   7.162 -0.6801  0.6623 -0.8887
  421MOL0     H56807  10.484  12.066   7.237 -0.6283  1.9459 -0.9318
  421MOL0     H56808  10.392  12.032   7.386  2.4326 -1.8765 -0.3279
  421MOL0     H56809  10.548  12.226   7.402 -0.0782  2.5338  1.6783
  421MOL0     H56810  10.449  12.316   7.280  2.0314  3.4094  3.2594
  421MOL0     H56811  10.325  12.191   7.512 -0.6887 -1.5287 -2.8942
  421MOL0     H56812  10.269  12.328   7.428 -0.2037 -1.1780  0.2548
  421MOL0     H56813  10.487  12.450   7.476  2.3259 -0.3723  1.2872
  421MOL0     H56814  10.349  12.467   7.579 -0.8320 -0.2730 -2.2614
  421MOL0     H56815   9.813  11.819   6.946  2.2168 -1.0921 -0.9859
  421MOL0     H56816   9.626  11.666   6.878  1.8540  0.9891 -0.3840
  421MOL0     H56817   9.408  11.311   7.047 -0.5771 -1.7292 -0.1133
  421MOL0     H56818   9.197  11.239   7.038 -0.8212 -0.6825 -0.2123
  421MOL0     H56819   7.729  10.935   7.625 -0.2604  0.9889  0.7706
  421MOL0     H56820   7.503  11.050   7.660 -2.8808  1.4073 -2.1994
  421MOL0     H56821   7.167  11.167   7.165  2.9722  3.3942  1.3445
  421MOL0     H56822   6.932  11.253   7.148 -1.0754  0.1611  0.3706
  421MOL0     H56823   6.690  11.133   7.212  0.7414  1.3961 -0.7753
  421MOL0     H56824   6.577  11.252   7.244 -2.7146  0.9313  3.8555
  421MOL0     H56825   6.559  11.172   7.487 -1.3815 -0.4232  0.9416
  421MOL0     H56826   6.684  11.053   7.441  1.8080  1.7632 -1.1597
  421MOL0     H56827   6.487  10.928   7.396  3.1358 -0.5983 -0.5283
  421MOL0     H56828   6.512  10.999   7.240 -1.0762  0.1334 -0.8384
  421MOL0     H56829   6.369  11.193   7.302  2.7269 -1.7132 -3.4869
  421MOL0     H56830   6.286  11.037   7.299  0.7669 -1.9691 -0.3440
  421MOL0     H56831   6.235  11.136   7.709  2.7770  0.6070  0.6454
  421MOL0     H56832   6.876  11.230   7.558  2.6882 -0.8913  3.2494
  421MOL0     H56833   7.222  11.210   7.656  0.2441  1.0465  1.5280
  421MOL0     H56834   7.050  11.188   7.708  0.1076  0.2322 -0.6990
  421MOL0     H56835   7.153  11.054   7.675  1.6531  1.2145  3.4258
  422MOL0     O56836   9.100  11.025   8.397 -0.0486  0.2288 -0.0868
  422MOL0     C56837   9.121  10.900   8.423  0.3540  1.1697  0.2797
  422MOL0     O56838   9.050  10.830   8.507 -0.0151 -0.0697 -0.1185
  422MOL0     C56839   8.947  10.875   8.586  0.2967 -0.8941  0.8445
  422MOL0     C56840   8.852  10.784   8.621  0.3470  0.1445 -0.0978
  422MOL0     C56841   8.752  10.821   8.708 -0.5442  0.1940  0.2811
  422MOL0     C56842   8.739  10.950   8.752  0.4899  0.5182 -0.3167
  422MOL0     O56843   8.643  10.989   8.842 -0.2650 -0.6409 -0.3847
  422MOL0     C56844   8.610  10.889   8.940 -0.2733  0.3705 -0.2008
  422MOL0     C56845   8.569  10.943   9.074 -0.4320 -0.2896 -0.4126
  422MOL0     C56846   8.677  11.044   9.129  0.5824 -0.8711 -0.4241
  422MOL0     C56847   8.604  11.147   9.236  0.2833 -0.3104  1.2149
  422MOL0     C56848   8.707  11.251   9.298  0.3230 -0.0554 -0.5384
  422MOL0     C56849   8.827  11.192   9.365 -0.4126 -0.4897 -0.1593
  422MOL0     C56850   8.784  11.120   9.494 -0.3703  1.3277 -0.7016
  422MOL0     C56851   8.901  11.064   9.568  0.0147  0.3164  0.1672
  422MOL0     N56852   8.863  11.004   9.695 -0.4352 -0.0183 -0.4041
  422MOL0     C56853   8.801  11.067   9.801 -0.3506 -0.0227  0.4201
  422MOL0     C56854   8.801  10.956   9.896 -0.0290 -0.1220  0.2075
  422MOL0     C56855   8.734  10.961  10.025 -0.4627 -0.0141  0.2596
  422MOL0     C56856   8.831  10.985  10.146  0.1052  0.0925 -0.5896
  422MOL0     C56857   8.756  11.033  10.258  0.4147 -0.0488  0.5063
  422MOL0     C56858   8.857  11.073  10.358  1.3937  0.0322  0.4223
  422MOL0     O56859   8.794  11.135  10.475 -0.3748  0.4284  0.3671
  422MOL0     C56860   8.714  11.253  10.468  0.0590 -0.7328 -0.5020
  422MOL0     C56861   8.618  11.260  10.558  0.3873 -0.5755 -0.3700
  422MOL0     C56862   8.525  11.359  10.553 -0.1088 -0.0872 -0.2133
  422MOL0     C56863   8.540  11.471  10.464  0.8916 -0.4960  0.0778
  422MOL0     C56864   8.441  11.576  10.475 -0.6397  0.3307  0.6574
  422MOL0     O56865   8.328  11.543  10.545  0.5731  0.1411  0.2984
  422MOL0     C56866   8.232  11.638  10.546  0.9808  0.3218  0.0493
  422MOL0     C56867   8.234  11.741  10.644 -0.1088 -0.8519 -0.3110
  422MOL0     C56868   8.123  11.830  10.645  0.4122 -0.2985 -0.2953
  422MOL0     C56869   8.013  11.828  10.554  0.6242  0.5151  0.1004
  422MOL0     O56870   7.908  11.918  10.558 -0.1561 -0.5344 -0.2348
  422MOL0     C56871   7.908  12.041  10.644 -0.6397  0.6437  2.0658
  422MOL0     C56872   7.757  12.093  10.624  0.2271 -0.8491 -0.4149
  422MOL0     C56873   7.757  12.228  10.683  0.3676  0.5059  0.6208
  422MOL0     C56874   7.618  12.269  10.718  0.1993 -0.5904 -0.4355
  422MOL0     C56875   7.600  12.423  10.744  0.2140  0.0345 -0.3953
  422MOL0     C56876   7.599  12.487  10.602 -0.9077 -0.3138 -0.8982
  422MOL0     C56877   7.566  12.640  10.619 -0.0019  0.2103  0.1319
  422MOL0     C56878   7.556  12.721  10.489  0.2779  0.1192  0.0388
  422MOL0    Cl56879   7.395  12.699  10.417  0.1808 -0.1608  0.2324
  422MOL0     C56880   8.014  11.719  10.467 -0.0218  0.0708  0.2596
  422MOL0     C56881   8.122  11.629  10.460 -0.5996 -0.0944  0.1198
  422MOL0     O56882   8.459  11.680  10.410 -0.7979 -0.0434 -0.1622
  422MOL0     C56883   8.659  11.473  10.389 -0.4111  0.0368 -1.0749
  422MOL0     C56884   8.749  11.361  10.386 -0.8952  0.2309 -0.2226
  422MOL0     N56885   8.884  10.858   9.844  1.2758 -0.4958 -0.3667
  422MOL0     N56886   8.925  10.893   9.737 -0.1587 -0.0009  0.6211
  422MOL0     C56887   8.836  11.044   8.722 -0.3045 -0.1584  0.1450
  422MOL0     C56888   8.944  11.011   8.637  0.2758 -0.1835 -0.3250
  422MOL0     C56889   9.230  10.829   8.343 -0.3406 -0.4428  0.0714
  422MOL0     C56890   9.322  10.920   8.282 -0.3475  0.3609 -0.2188
  422MOL0     C56891   9.438  10.875   8.216 -0.3696 -0.4250  1.1276
  422MOL0     C56892   9.473  10.741   8.217  0.4327 -0.8163  0.1144
  422MOL0     O56893   9.592  10.688   8.170  0.4180 -0.4349  0.3347
  422MOL0     C56894   9.668  10.763   8.066  0.5666  0.0530  0.1049
  422MOL0     C56895   9.788  10.674   8.024 -0.7219  0.1810  0.8147
  422MOL0     C56896   9.766  10.528   8.028  0.5608 -0.0146  0.5958
  422MOL0     C56897   9.667  10.467   7.927  0.2229 -0.3702  0.2281
  422MOL0     C56898   9.718  10.487   7.785  0.0933  0.3000 -0.1067
  422MOL0     C56899   9.777  10.495   7.673 -0.3572 -0.3694  0.6091
  422MOL0     C56900   9.383  10.654   8.272  0.1536  0.3453 -0.1633
  422MOL0     C56901   9.253  10.687   8.323  0.1005  0.0923 -0.0374
  422MOL0     C56902   9.162  10.580   8.376  0.4948 -0.7221 -0.7001
  422MOL0     H56903   8.852  10.684   8.579 -1.1282 -0.1914  0.6184
  422MOL0     H56904   8.665  10.758   8.724 -1.5430  1.3333 -0.5592
  422MOL0     H56905   8.541  10.820   8.892  1.7321 -1.2162 -0.9276
  422MOL0     H56906   8.696  10.829   8.969  1.0250  1.2806 -1.9808
  422MOL0     H56907   8.556  10.854   9.137 -0.9546 -0.4294 -0.7052
  422MOL0     H56908   8.471  10.992   9.072 -1.2466 -1.7538  0.9147
  422MOL0     H56909   8.732  11.095   9.050  1.8450 -1.9042 -0.2428
  422MOL0     H56910   8.761  10.989   9.172  1.5556  0.4026 -0.6258
  422MOL0     H56911   8.529  11.208   9.184  1.3820 -0.0105 -0.0881
  422MOL0     H56912   8.563  11.096   9.323 -1.6794 -1.2504 -0.1824
  422MOL0     H56913   8.740  11.311   9.213  0.0054 -3.7199 -3.4900
  422MOL0     H56914   8.664  11.317   9.375  0.9314 -2.1690  1.7314
  422MOL0     H56915   8.887  11.122   9.306  2.4485  0.1855  1.7638
  422MOL0     H56916   8.884  11.281   9.393 -2.8934  1.0634  0.2529
  422MOL0     H56917   8.720  11.033   9.475  2.4789 -0.5275 -2.5188
  422MOL0     H56918   8.730  11.189   9.560  0.5101  0.9563  0.4540
  422MOL0     H56919   8.953  10.995   9.502  0.1199  0.0250  0.5494
  422MOL0     H56920   8.966  11.152   9.578  0.9414 -0.4182  0.8437
  422MOL0     H56921   8.758  11.166   9.811  0.4232  0.3203  0.3678
  422MOL0     H56922   8.663  11.045  10.019  0.1709  0.4578 -0.9776
  422MOL0     H56923   8.672  10.872  10.039 -0.3908  0.3304  3.3279
  422MOL0     H56924   8.874  10.887  10.168 -2.1663 -0.3253  2.5862
  422MOL0     H56925   8.914  11.051  10.117  0.8450 -1.0931 -1.2330
  422MOL0     H56926   8.686  10.960  10.301  1.2644  0.3194  2.5922
  422MOL0     H56927   8.693  11.119  10.236  0.2261 -0.6826 -1.7358
  422MOL0     H56928   8.930  11.144  10.318  1.0648 -0.0780 -0.4088
  422MOL0     H56929   8.928  10.998  10.395 -0.8258 -0.6036  3.7507
  422MOL0     H56930   8.597  11.183  10.632 -0.7171 -0.2166 -0.2838
  422MOL0     H56931   8.437  11.344  10.614 -0.3559  1.1376 -0.2426
  422MOL0     H56932   8.313  11.749  10.718  0.4308  1.3639 -1.0617
  422MOL0     H56933   8.123  11.907  10.721 -0.9974 -3.9113  3.7321
  422MOL0     H56934   7.931  12.033  10.751  2.1305  2.9471  1.7674
  422MOL0     H56935   7.975  12.115  10.600  0.6954 -0.3655  2.3415
  422MOL0     H56936   7.723  12.098  10.521 -3.6405  1.9709  0.7680
  422MOL0     H56937   7.692  12.020  10.672  0.5292 -2.3778 -2.2049
  422MOL0     H56938   7.808  12.230  10.780 -3.5210 -2.5208  2.9973
  422MOL0     H56939   7.799  12.296  10.608  1.4301  1.3099  1.8952
  422MOL0     H56940   7.584  12.225  10.812  2.0622 -2.1571 -0.4475
  422MOL0     H56941   7.553  12.240  10.635 -0.7730  1.5977 -0.5220
  422MOL0     H56942   7.675  12.461  10.814 -0.2339 -1.9400  1.2825
  422MOL0     H56943   7.502  12.439  10.790 -0.8510  0.1007 -2.5563
  422MOL0     H56944   7.696  12.474  10.552  0.0113 -0.0618  0.7333
  422MOL0     H56945   7.526  12.447  10.532  0.3048 -2.1876 -1.1580
  422MOL0     H56946   7.639  12.683  10.688 -0.4486 -0.2285  0.8998
  422MOL0     H56947   7.469  12.659  10.666  0.4142  1.8091  0.3805
  422MOL0     H56948   7.570  12.827  10.511  1.6255 -0.2823  1.2943
  422MOL0     H56949   7.638  12.691  10.423 -0.4645 -1.2887 -0.2752
  422MOL0     H56950   7.940  11.725  10.387  3.4508  2.1031 -3.1707
  422MOL0     H56951   8.137  11.555  10.381 -2.0423  0.8457 -1.0744
  422MOL0     H56952   8.685  11.556  10.324 -2.9074  0.5893 -1.4609
  422MOL0     H56953   8.822  11.355  10.306  2.5051  3.1290  2.3153
  422MOL0     H56954   8.841  11.145   8.761  2.2962 -0.4387  0.7096
  422MOL0     H56955   9.018  11.089   8.624 -1.1779  2.2553  3.8926
  422MOL0     H56956   9.306  11.027   8.280  0.4792  0.5328 -2.8846
  422MOL0     H56957   9.494  10.954   8.168  1.3213 -1.2947  1.6024
  422MOL0     H56958   9.693  10.865   8.098  1.7957  0.5856 -2.3453
  422MOL0     H56959   9.601  10.773   7.981 -1.7167  1.0001  1.8939
  422MOL0     H56960   9.860  10.682   8.106 -0.6968 -0.7156  0.8944
  422MOL0     H56961   9.844  10.712   7.939 -1.8096 -1.5619 -0.7693
  422MOL0     H56962   9.729  10.498   8.126 -1.3342 -0.8336 -0.3335
  422MOL0     H56963   9.863  10.478   8.022  1.0285  0.6022  2.4658
  422MOL0     H56964   9.645  10.360   7.942 -0.3465 -0.5843 -1.8663
  422MOL0     H56965   9.573  10.521   7.944  1.6312  1.8092  1.5889
  422MOL0     H56966   9.806  10.502   7.571 -2.4132 -0.8764 -0.0672
  422MOL0     H56967   9.420  10.552   8.268  0.0251  0.3160 -0.6517
  422MOL0     H56968   9.153  10.588   8.484  1.9163 -1.1354 -0.5361
  422MOL0     H56969   9.058  10.601   8.349  1.0912 -0.0249 -2.6729
  422MOL0     H56970   9.183  10.482   8.332 -0.0471 -0.6940 -1.0370
  423MOL0     O56971   9.434   3.409   1.811  0.9119  0.5435  0.1440
  423MOL0     C56972   9.550   3.395   1.847 -0.4303  0.6015 -0.2448
  423MOL0     O56973   9.600   3.365   1.972  0.4044  0.6642  0.0406
  423MOL0     C56974   9.510   3.323   2.067 -0.8063 -0.3066 -0.4712
  423MOL0     C56975   9.530   3.209   2.146 -0.1697  0.2447 -0.2044
  423MOL0     C56976   9.441   3.176   2.251 -0.5549  0.5690  0.7262
  423MOL0     C56977   9.338   3.260   2.287 -0.2569  1.4831  0.5444
  423MOL0     O56978   9.254   3.234   2.393 -0.0239  0.5694 -0.0477
  423MOL0     C56979   9.259   3.327   2.496 -0.4324  0.2242  0.9269
  423MOL0     C56980   9.140   3.320   2.592 -0.4049  0.7590 -0.4671
  423MOL0     C56981   9.173   3.343   2.743 -0.0240  0.2016 -0.0219
  423MOL0     C56982   9.051   3.307   2.840  0.7526 -0.0139  0.9692
  423MOL0     C56983   9.070   3.321   2.989 -0.1749  0.2445  0.2887
  423MOL0     C56984   9.116   3.461   3.043  0.1221 -0.4377 -0.9826
  423MOL0     C56985   9.140   3.458   3.193 -0.3173 -0.5307 -0.5699
  423MOL0     C56986   9.182   3.581   3.267  0.2357 -0.9543  0.7972
  423MOL0     N56987   9.319   3.604   3.231 -0.6853  0.1930  1.0239
  423MOL0     C56988   9.422   3.520   3.269 -1.0156 -0.5183  0.2471
  423MOL0     C56989   9.517   3.560   3.178 -0.1798  0.2506 -0.3193
  423MOL0     C56990   9.647   3.489   3.159 -0.2134  0.7519  0.5302
  423MOL0     C56991   9.747   3.501   3.275  0.2366 -0.3604 -0.0507
  423MOL0     C56992   9.880   3.430   3.237 -0.3944  0.3590 -0.0054
  423MOL0     C56993   9.995   3.472   3.330  0.4856  0.3483 -0.2321
  423MOL0     O56994   9.965   3.460   3.469 -0.1261 -0.6771 -0.4065
  423MOL0     C56995  10.078   3.495   3.548  0.6191 -0.0768  0.2914
  423MOL0     C56996  10.202   3.542   3.502 -0.6245  0.7796  0.3693
  423MOL0     C56997  10.318   3.549   3.588 -0.4275  0.7609 -0.4714
  423MOL0     C56998  10.307   3.523   3.732 -0.0289  0.2866  0.7206
  423MOL0     C56999  10.428   3.542   3.810 -0.2400  0.3848 -1.1514
  423MOL0     O57000  10.406   3.500   3.942 -0.8711 -0.7201 -0.5926
  423MOL0     C57001  10.510   3.479   4.030 -0.0245  0.2282 -0.0727
  423MOL0     C57002  10.489   3.491   4.172 -0.0293  0.8365  0.1017
  423MOL0     C57003  10.584   3.467   4.273  0.0389  0.0695  0.4967
  423MOL0     C57004  10.710   3.429   4.228  0.2543 -0.0416  0.2029
  423MOL0     O57005  10.822   3.415   4.310 -0.1454 -0.0991 -0.3782
  423MOL0     C57006  10.789   3.374   4.437 -0.1277  1.2419 -1.4610
  423MOL0     C57007  10.917   3.332   4.510 -1.2366  0.4264 -0.3290
  423MOL0     C57008  10.888   3.263   4.650 -0.6469 -1.4153  0.1687
  423MOL0     C57009  11.017   3.237   4.725 -0.3170 -0.4332  0.3317
  423MOL0     C57010  10.996   3.201   4.877  0.7465 -0.0940  0.2942
  423MOL0     C57011  11.113   3.184   4.970 -0.4625 -0.8451 -0.1638
  423MOL0     C57012  11.070   3.099   5.091  0.2806  0.6171  0.6155
  423MOL0     C57013  11.174   3.104   5.199  0.6918 -0.7348  0.0045
  423MOL0    Cl57014  11.317   3.009   5.156  0.2880  0.0444 -0.0513
  423MOL0     C57015  10.741   3.410   4.091 -0.0441 -0.3513 -0.8134
  423MOL0     C57016  10.633   3.436   3.994 -0.5208  1.0537 -0.8923
  423MOL0     O57017  10.534   3.591   3.766 -0.3787 -0.1915 -0.1264
  423MOL0     C57018  10.181   3.478   3.777 -0.8231 -1.0359 -0.2231
  423MOL0     C57019  10.075   3.467   3.689  0.3488 -0.1320  0.3255
  423MOL0     N57020   9.473   3.663   3.088 -0.0196 -0.1343  0.0457
  423MOL0     N57021   9.354   3.685   3.129 -0.0734  0.3806 -0.6618
  423MOL0     C57022   9.307   3.369   2.198  0.1067  0.2082  0.2896
  423MOL0     C57023   9.397   3.402   2.101 -0.4451 -0.8021 -0.2020
  423MOL0     C57024   9.667   3.400   1.748 -0.2567  0.5751 -0.5090
  423MOL0     C57025   9.630   3.413   1.608  0.0095  0.3271 -0.2682
  423MOL0     C57026   9.722   3.396   1.509 -0.6446 -0.1039  0.1900
  423MOL0     C57027   9.860   3.386   1.535 -0.2775  0.1721  0.9580
  423MOL0     O57028   9.945   3.377   1.433 -0.5170 -0.2775  0.6751
  423MOL0     C57029  10.061   3.298   1.433  0.6687  0.0216 -0.2946
  423MOL0     C57030  10.049   3.195   1.319 -0.1398  0.2041 -0.0472
  423MOL0     C57031  10.028   3.245   1.173 -0.6410  0.1265 -0.4871
  423MOL0     C57032  10.080   3.154   1.068 -0.2087  0.3646 -0.2799
  423MOL0     C57033  10.050   3.204   0.937  0.4609  0.0076  0.4029
  423MOL0     C57034  10.021   3.266   0.841 -0.7878 -0.4514 -0.0338
  423MOL0     C57035   9.899   3.369   1.671 -0.5496  0.0054  0.0247
  423MOL0     C57036   9.809   3.381   1.778  0.8721 -1.0488 -0.6877
  423MOL0     C57037   9.867   3.375   1.916 -0.3480  1.0386  0.5348
  423MOL0     H57038   9.612   3.143   2.120 -1.3887 -0.8356 -1.4909
  423MOL0     H57039   9.454   3.087   2.312  0.3438  0.3394  0.2108
  423MOL0     H57040   9.356   3.311   2.543 -0.3792 -0.8011  0.4935
  423MOL0     H57041   9.262   3.428   2.454 -2.4232  0.7344  1.9085
  423MOL0     H57042   9.110   3.214   2.591 -0.4385  0.7706 -0.6071
  423MOL0     H57043   9.054   3.385   2.573 -1.4350 -0.2133  0.6453
  423MOL0     H57044   9.197   3.447   2.764  2.8865 -0.6218  1.3205
  423MOL0     H57045   9.253   3.279   2.782 -0.2384  0.1630  0.3653
  423MOL0     H57046   8.967   3.369   2.808  0.4687 -1.0483 -0.4151
  423MOL0     H57047   9.030   3.201   2.824  0.0683  0.1126  1.0003
  423MOL0     H57048   8.981   3.298   3.047 -0.6577  3.4645  1.0152
  423MOL0     H57049   9.141   3.245   3.022 -1.3874  0.0239  2.6314
  423MOL0     H57050   9.211   3.489   2.997 -0.6803 -0.2370 -2.6219
  423MOL0     H57051   9.041   3.530   3.003 -0.6011 -2.1653 -2.8008
  423MOL0     H57052   9.208   3.375   3.216  2.1328  1.1440 -1.3726
  423MOL0     H57053   9.041   3.442   3.237 -0.2252  2.3375  0.8701
  423MOL0     H57054   9.131   3.674   3.242  4.5239  1.3550 -0.3727
  423MOL0     H57055   9.187   3.559   3.374 -0.0337  0.0564  1.0210
  423MOL0     H57056   9.413   3.443   3.344  2.7850 -0.3480  1.0683
  423MOL0     H57057   9.637   3.382   3.139  2.7362 -0.0908  2.8785
  423MOL0     H57058   9.699   3.519   3.068  1.9298  1.6024  1.9588
  423MOL0     H57059   9.774   3.605   3.296  0.5192 -0.7715  1.7156
  423MOL0     H57060   9.719   3.451   3.367  0.5129  1.3191  0.9868
  423MOL0     H57061   9.902   3.454   3.133 -1.1997 -0.1271 -0.2972
  423MOL0     H57062   9.869   3.321   3.233 -2.3892  0.4756  1.0588
  423MOL0     H57063  10.025   3.572   3.297  0.5038 -0.6315 -3.4651
  423MOL0     H57064  10.082   3.413   3.301 -0.9598 -0.9005 -2.3179
  423MOL0     H57065  10.225   3.563   3.398  2.6433  0.5900  0.9605
  423MOL0     H57066  10.416   3.582   3.553 -0.7280  1.4754 -0.6728
  423MOL0     H57067  10.387   3.521   4.197 -1.0365 -0.4996 -2.1163
  423MOL0     H57068  10.556   3.482   4.377 -1.3791 -0.4469  0.2139
  423MOL0     H57069  10.749   3.461   4.489 -1.4793  0.2153 -0.7039
  423MOL0     H57070  10.717   3.292   4.445  1.1180  0.3017  1.8203
  423MOL0     H57071  10.981   3.271   4.446  0.1786  0.1747  1.2764
  423MOL0     H57072  10.978   3.421   4.526 -3.5052  2.2150 -0.9999
  423MOL0     H57073  10.834   3.336   4.711 -0.1966 -2.0866  1.3954
  423MOL0     H57074  10.822   3.176   4.646 -0.6081 -1.4204 -0.6640
  423MOL0     H57075  11.077   3.328   4.723  0.8201 -1.1506 -2.1616
  423MOL0     H57076  11.076   3.165   4.668 -0.9888 -0.7961  0.0790
  423MOL0     H57077  10.951   3.101   4.873  0.4283  0.0229  0.8577
  423MOL0     H57078  10.934   3.272   4.931  1.2266  2.0865 -1.8654
  423MOL0     H57079  11.198   3.146   4.912  1.1433 -1.7310  2.5778
  423MOL0     H57080  11.160   3.279   4.998  1.2355 -0.9960 -2.2043
  423MOL0     H57081  11.067   2.998   5.049  1.9001  0.0259  1.8040
  423MOL0     H57082  10.969   3.127   5.123 -0.4039 -1.3587  0.3299
  423MOL0     H57083  11.210   3.203   5.226 -0.3551 -0.5388  0.7333
  423MOL0     H57084  11.123   3.050   5.280 -4.1723 -0.5154 -2.5566
  423MOL0     H57085  10.837   3.373   4.059  0.8013  1.5769 -0.6727
  423MOL0     H57086  10.664   3.435   3.890  2.3262 -0.3446 -0.1408
  423MOL0     H57087  10.165   3.449   3.880  0.5962 -0.5378  0.1492
  423MOL0     H57088   9.978   3.445   3.732  0.0166 -0.6370 -0.6625
  423MOL0     H57089   9.218   3.426   2.222 -0.0177  0.4272 -0.6618
  423MOL0     H57090   9.379   3.504   2.068  3.8160  0.5316  0.8798
  423MOL0     H57091   9.526   3.420   1.579 -0.6729 -1.7221  1.4280
  423MOL0     H57092   9.682   3.393   1.408 -0.8068 -3.9635  0.2007
  423MOL0     H57093  10.076   3.251   1.531  1.9559  0.9026 -0.0396
  423MOL0     H57094  10.148   3.363   1.421 -1.0600  2.0377 -2.9700
  423MOL0     H57095   9.962   3.131   1.334  1.0469 -1.4133  0.0887
  423MOL0     H57096  10.133   3.126   1.311 -1.9175 -2.1115  0.3365
  423MOL0     H57097  10.087   3.338   1.177 -0.1241 -0.2383  1.0192
  423MOL0     H57098   9.928   3.279   1.144  0.4808  3.2106 -1.1534
  423MOL0     H57099  10.188   3.139   1.080  0.2108  2.8969 -0.2323
  423MOL0     H57100  10.044   3.051   1.070  2.3139 -0.5857  0.0944
  423MOL0     H57101  10.003   3.318   0.749  0.3981 -0.1279 -0.0961
  423MOL0     H57102  10.008   3.372   1.680 -0.3673  0.8158 -1.8922
  423MOL0     H57103   9.977   3.371   1.911 -0.4013 -0.6008 -0.0852
  423MOL0     H57104   9.845   3.453   1.989  1.3486  1.0383  1.1011
  423MOL0     H57105   9.830   3.280   1.955 -0.0494  0.1502 -1.2164
  424MOL0     O57106  10.852  11.417   4.685  0.0098 -0.3648 -0.1751
  424MOL0     C57107  10.862  11.315   4.748  0.5958 -0.2176 -1.2011
  424MOL0     O57108  10.935  11.312   4.866 -0.4886  1.0910 -0.6496
  424MOL0     C57109  11.025  11.407   4.895 -0.1478  0.4833  0.2226
  424MOL0     C57110  11.158  11.380   4.867  0.2599  0.5054  0.8844
  424MOL0     C57111  11.255  11.475   4.873 -0.8043  0.2864 -0.0893
  424MOL0     C57112  11.233  11.597   4.929  1.2068 -0.6716  0.1789
  424MOL0     O57113  11.338  11.677   4.950 -0.4738 -0.6072  0.7581
  424MOL0     C57114  11.320  11.821   4.980 -0.8244  0.7947 -0.4476
  424MOL0     C57115  11.295  11.836   5.137  0.4372  0.0043 -0.3527
  424MOL0     C57116  11.294  11.984   5.179 -0.4001 -0.3447 -1.2252
  424MOL0     C57117  11.264  11.984   5.326 -0.2960  0.2844  0.0948
  424MOL0     C57118  11.284  12.125   5.386  0.0878 -0.0811 -0.0678
  424MOL0     C57119  11.430  12.150   5.425 -0.2041 -0.4509  0.4876
  424MOL0     C57120  11.453  12.286   5.484 -0.3382 -0.6933 -0.5052
  424MOL0     C57121  11.526  12.383   5.390 -0.4934  1.0127 -0.2207
  424MOL0     N57122  11.555  12.521   5.439 -0.1726  0.4035 -0.4759
  424MOL0     C57123  11.468  12.620   5.454 -0.4644 -0.6321  0.2782
  424MOL0     C57124  11.539  12.735   5.483  1.0702 -0.0908 -0.4330
  424MOL0     C57125  11.472  12.868   5.486 -0.9660 -0.7909 -0.2082
  424MOL0     C57126  11.493  12.936   5.352  0.3258 -0.3755  0.7679
  424MOL0     C57127  11.408  12.859   5.242 -0.5512  0.2914  0.1737
  424MOL0     C57128  11.409  12.952   5.118  0.4429  0.3548  0.1660
  424MOL0     O57129  11.293  13.034   5.118  0.0541  0.3270  0.3437
  424MOL0     C57130  11.310  13.155   5.044 -0.1838  1.2013  0.1429
  424MOL0     C57131  11.255  13.165   4.915 -0.3199  1.0244  0.2529
  424MOL0     C57132  11.283  13.274   4.841  0.2931 -0.0621  0.6485
  424MOL0     C57133  11.360  13.393   4.887 -0.1941  0.2408 -0.1579
  424MOL0     C57134  11.375  13.507   4.802  1.1594  0.1929  0.2763
  424MOL0     O57135  11.340  13.508   4.666  0.5595  0.1213 -0.7434
  424MOL0     C57136  11.366  13.635   4.611  0.2291 -0.0069  1.2404
  424MOL0     C57137  11.485  13.689   4.577  0.2666  0.8875  0.1788
  424MOL0     C57138  11.497  13.819   4.545  0.3796  0.5427  0.1072
  424MOL0     C57139  11.384  13.897   4.530  0.2889  0.1989 -0.5153
  424MOL0     O57140  11.387  14.026   4.483  0.1299 -0.7351 -0.8166
  424MOL0     C57141  11.518  14.077   4.449  0.0632 -0.8501  0.0587
  424MOL0     C57142  11.513  14.224   4.411  0.6786  0.2729 -0.1469
  424MOL0     C57143  11.472  14.304   4.530  0.5361  0.3120 -0.9759
  424MOL0     C57144  11.582  14.311   4.634  0.8926  0.3590 -0.5323
  424MOL0     C57145  11.551  14.417   4.745 -0.2763  0.0151  0.4625
  424MOL0     C57146  11.686  14.481   4.796  0.5401 -0.3738 -0.5221
  424MOL0     C57147  11.669  14.583   4.907  0.8823  0.5981  0.6002
  424MOL0     C57148  11.635  14.721   4.863  0.6342  0.9133 -0.0845
  424MOL0    Cl57149  11.455  14.731   4.833  0.6827 -0.3256  0.1995
  424MOL0     C57150  11.256  13.842   4.539  0.6285  0.8194  0.0829
  424MOL0     C57151  11.248  13.710   4.582 -0.0784  0.2696  0.3708
  424MOL0     O57152  11.394  13.602   4.872 -0.3867 -0.4058  0.6206
  424MOL0     C57153  11.403  13.383   5.025 -0.2718 -0.4858  0.8237
  424MOL0     C57154  11.376  13.268   5.095  0.5395  0.3792 -0.1688
  424MOL0     N57155  11.667  12.696   5.503 -0.4370  0.5641 -0.2698
  424MOL0     N57156  11.675  12.563   5.482 -0.8153 -0.1644  0.2701
  424MOL0     C57157  11.104  11.635   4.954  0.4308  0.8370 -0.0908
  424MOL0     C57158  10.989  11.541   4.937 -0.3504  1.0301 -0.1268
  424MOL0     C57159  10.794  11.199   4.703 -0.6568  0.0710 -0.2777
  424MOL0     C57160  10.858  11.073   4.725 -0.2184  0.4357  0.1621
  424MOL0     C57161  10.794  10.952   4.703  0.5896 -0.4939 -0.4196
  424MOL0     C57162  10.668  10.950   4.649 -0.2695  0.5457  0.7883
  424MOL0     O57163  10.611  10.824   4.646  0.5835 -0.0685  0.2150
  424MOL0     C57164  10.474  10.822   4.687  0.6870 -0.7025  0.1119
  424MOL0     C57165  10.390  10.743   4.599 -0.9270 -0.0502 -0.1818
  424MOL0     C57166  10.239  10.767   4.628  0.9657  0.1980 -0.1515
  424MOL0     C57167  10.162  10.667   4.724  0.3399 -0.0993 -0.6812
  424MOL0     C57168  10.028  10.723   4.751 -0.3989  0.0361  0.1050
  424MOL0     C57169   9.932  10.786   4.781  0.2392 -0.0783 -0.4351
  424MOL0     C57170  10.607  11.075   4.619 -0.2245 -0.3506 -1.0750
  424MOL0     C57171  10.664  11.197   4.647 -0.1267  0.3421  0.4414
  424MOL0     C57172  10.586  11.318   4.615 -0.4638  0.5253  0.1050
  424MOL0     H57173  11.176  11.280   4.830  0.3887  1.0242 -0.5263
  424MOL0     H57174  11.355  11.449   4.839 -1.0393 -0.0826 -0.5058
  424MOL0     H57175  11.419  11.865   4.961 -0.9256  2.6483  2.5780
  424MOL0     H57176  11.242  11.873   4.924 -0.4289  1.0215 -0.7963
  424MOL0     H57177  11.386  11.801   5.188  0.9420  0.7732 -0.7079
  424MOL0     H57178  11.202  11.789   5.169 -0.3309  1.2713 -0.6475
  424MOL0     H57179  11.222  12.037   5.115  2.0968  1.8278 -2.4523
  424MOL0     H57180  11.398  12.013   5.162  0.1942 -2.0645 -0.7643
  424MOL0     H57181  11.167  11.938   5.346 -0.5532 -0.9801 -3.3470
  424MOL0     H57182  11.337  11.919   5.376  0.7224  0.4900 -1.0676
  424MOL0     H57183  11.235  12.197   5.319 -2.2295 -2.5046 -1.1861
  424MOL0     H57184  11.234  12.138   5.482  0.1436  4.3052 -0.4269
  424MOL0     H57185  11.454  12.073   5.498 -0.9295 -2.2751 -1.0918
  424MOL0     H57186  11.490  12.132   5.335 -0.5461 -1.6392  0.4823
  424MOL0     H57187  11.521  12.278   5.569  0.3304 -1.8993 -1.1355
  424MOL0     H57188  11.365  12.339   5.523 -0.6345 -1.5740  0.0574
  424MOL0     H57189  11.624  12.339   5.375  0.5562  2.5401  1.7160
  424MOL0     H57190  11.471  12.395   5.296 -0.0800 -1.7181 -0.8845
  424MOL0     H57191  11.363  12.607   5.431 -0.9435  1.5551  0.9852
  424MOL0     H57192  11.363  12.859   5.500 -1.2899  1.7756 -0.6850
  424MOL0     H57193  11.518  12.924   5.567  1.4789  0.6832 -2.4724
  424MOL0     H57194  11.469  13.042   5.346 -2.7542 -1.0358 -0.7406
  424MOL0     H57195  11.600  12.928   5.331  0.0258 -0.4523 -0.8443
  424MOL0     H57196  11.306  12.842   5.278 -0.4807 -1.6793 -0.3974
  424MOL0     H57197  11.441  12.758   5.215  0.0147  0.7090 -0.7265
  424MOL0     H57198  11.414  12.888   5.029  3.4588  1.0956 -0.3017
  424MOL0     H57199  11.493  13.021   5.107 -0.8697  1.6914 -2.4203
  424MOL0     H57200  11.188  13.086   4.885 -2.1797  2.3815  0.6050
  424MOL0     H57201  11.238  13.276   4.742  0.4089  2.1258  0.6006
  424MOL0     H57202  11.572  13.637   4.616 -1.5552 -2.2056  0.4369
  424MOL0     H57203  11.592  13.853   4.507  1.1930 -2.8158 -1.2080
  424MOL0     H57204  11.587  14.074   4.535  0.9745  2.8042 -0.3535
  424MOL0     H57205  11.565  14.028   4.364  2.8230 -0.6688  1.3347
  424MOL0     H57206  11.612  14.253   4.374  1.8069 -0.6599  1.9505
  424MOL0     H57207  11.442  14.248   4.331  0.0006  2.1438  0.9595
  424MOL0     H57208  11.447  14.399   4.481  1.2994 -0.0566 -2.1326
  424MOL0     H57209  11.381  14.260   4.571  0.4531  0.1339 -1.3494
  424MOL0     H57210  11.683  14.330   4.598  0.8084  0.4960 -0.6948
  424MOL0     H57211  11.594  14.218   4.692  3.3626  0.2493 -1.1218
  424MOL0     H57212  11.489  14.384   4.829 -2.4791  0.7207 -0.8140
  424MOL0     H57213  11.491  14.495   4.699  0.3918  0.2912  0.0339
  424MOL0     H57214  11.744  14.397   4.835 -0.7714 -2.2406 -2.3663
  424MOL0     H57215  11.746  14.524   4.715  1.0533  0.5509  0.3276
  424MOL0     H57216  11.761  14.592   4.965  0.9368  1.4796  0.3941
  424MOL0     H57217  11.586  14.541   4.965 -0.8882  2.1226 -0.6911
  424MOL0     H57218  11.670  14.786   4.944  2.5833 -2.4240  1.9935
  424MOL0     H57219  11.677  14.740   4.764  2.7873 -1.9040  0.1489
  424MOL0     H57220  11.177  13.912   4.514  1.5275  1.0312 -2.4661
  424MOL0     H57221  11.145  13.680   4.600 -0.7170  1.4929 -1.0635
  424MOL0     H57222  11.454  13.465   5.075  0.3457 -1.7076  2.2546
  424MOL0     H57223  11.418  13.273   5.195  0.9111  0.9627 -0.3501
  424MOL0     H57224  11.086  11.737   4.987 -1.5689  0.4871  0.0487
  424MOL0     H57225  10.886  11.563   4.963 -1.0151 -2.3459  0.5315
  424MOL0     H57226  10.941  11.055   4.792 -1.2988 -2.5854  0.8171
  424MOL0     H57227  10.859  10.867   4.721  2.3587  0.5947 -1.3792
  424MOL0     H57228  10.431  10.921   4.699 -0.1954 -1.2419  1.6650
  424MOL0     H57229  10.465  10.782   4.788 -2.9017  3.0186  1.5365
  424MOL0     H57230  10.417  10.637   4.599  0.0855  0.1864  0.3326
  424MOL0     H57231  10.412  10.776   4.497 -1.2941  0.0697 -0.2236
  424MOL0     H57232  10.195  10.756   4.528  1.4585 -1.6776 -0.1929
  424MOL0     H57233  10.223  10.868   4.667  0.1102  0.2130 -0.5223
  424MOL0     H57234  10.153  10.565   4.688  1.4551 -0.6591  0.5327
  424MOL0     H57235  10.216  10.668   4.819  1.6960  0.1658 -1.4302
  424MOL0     H57236   9.832  10.821   4.795 -0.2872 -1.0872 -1.5145
  424MOL0     H57237  10.502  11.074   4.589 -0.3929 -1.4785 -0.5064
  424MOL0     H57238  10.591  11.372   4.710  5.4373 -0.1082  0.5019
  424MOL0     H57239  10.637  11.382   4.542  1.0828 -1.5336 -0.7195
  424MOL0     H57240  10.482  11.313   4.580 -0.8723  3.5546  0.6354
  425MOL0     O57241   5.567   9.084   8.223 -0.3642  0.3739  0.2703
  425MOL0     C57242   5.620   9.176   8.278  0.1487 -0.0821  0.0462
  425MOL0     O57243   5.759   9.206   8.279 -0.4060  0.0440 -0.0705
  425MOL0     C57244   5.853   9.149   8.192 -0.6981  0.3499  0.0926
  425MOL0     C57245   5.824   9.051   8.090 -0.7001  0.6368 -0.0012
  425MOL0     C57246   5.924   9.024   8.002 -0.0850  0.9268  0.7368
  425MOL0     C57247   6.050   9.082   8.002  0.1501  0.3778 -0.3890
  425MOL0     O57248   6.146   9.059   7.904  0.3435 -0.4517 -0.0568
  425MOL0     C57249   6.158   8.927   7.840 -0.1611 -0.3826  0.5568
  425MOL0     C57250   6.235   8.804   7.895  0.5129 -0.1632 -0.2034
  425MOL0     C57251   6.156   8.721   7.993  0.2076 -0.5121 -1.1294
  425MOL0     C57252   6.202   8.576   8.007  0.5932 -0.4808  0.9897
  425MOL0     C57253   6.165   8.491   8.121  0.5261 -0.0770  0.0986
  425MOL0     C57254   6.173   8.559   8.254  0.9163 -0.4423  0.1239
  425MOL0     C57255   6.146   8.465   8.367 -0.3629  0.0783 -0.4954
  425MOL0     C57256   6.268   8.457   8.467 -0.8435 -0.4752  0.4754
  425MOL0     N57257   6.232   8.371   8.590  0.0735 -0.4106  0.6837
  425MOL0     C57258   6.169   8.433   8.697 -0.0868  0.8215 -0.3091
  425MOL0     C57259   6.177   8.340   8.800  0.2711  0.0369  0.0809
  425MOL0     C57260   6.120   8.349   8.945  0.3628 -0.4532  0.4294
  425MOL0     C57261   6.205   8.440   9.030  0.5012  0.5340  0.6427
  425MOL0     C57262   6.172   8.591   9.000 -0.0244  0.3678 -0.2536
  425MOL0     C57263   6.256   8.679   9.088  0.3845  0.0723 -0.2519
  425MOL0     O57264   6.388   8.682   9.040  0.7359  0.1301 -0.2184
  425MOL0     C57265   6.507   8.695   9.107 -1.1137 -0.3651  0.4140
  425MOL0     C57266   6.622   8.676   9.035 -0.6631 -0.1562  0.1572
  425MOL0     C57267   6.743   8.671   9.099 -0.1320  0.6332  0.1563
  425MOL0     C57268   6.754   8.672   9.241  0.0855 -0.0252 -0.3134
  425MOL0     C57269   6.884   8.654   9.299  0.7440  0.8596 -0.4232
  425MOL0     O57270   6.985   8.660   9.205  0.6278 -0.4835  0.1795
  425MOL0     C57271   7.099   8.591   9.218  0.6354 -0.2513  0.5005
  425MOL0     C57272   7.147   8.526   9.098 -0.9353 -0.3600 -0.3194
  425MOL0     C57273   7.272   8.469   9.094  0.0645  0.1622  0.2906
  425MOL0     C57274   7.345   8.458   9.211 -0.2798 -0.2101  0.1577
  425MOL0     O57275   7.467   8.401   9.235 -0.2282 -0.5336  0.5947
  425MOL0     C57276   7.543   8.367   9.120 -0.2260 -0.3769 -0.1769
  425MOL0     C57277   7.629   8.480   9.062  0.3735 -0.0735  0.2233
  425MOL0     C57278   7.703   8.422   8.948  0.3615  0.0213 -0.1386
  425MOL0     C57279   7.800   8.530   8.890  0.3393  1.0716 -0.2498
  425MOL0     C57280   7.891   8.468   8.774  0.5001  0.6775 -0.5229
  425MOL0     C57281   8.023   8.428   8.843 -0.1154  1.0508  0.5616
  425MOL0     C57282   8.116   8.357   8.747  0.2404  0.1752 -0.3507
  425MOL0     C57283   8.238   8.294   8.821 -0.0036  0.0278 -0.1775
  425MOL0    Cl57284   8.339   8.240   8.677  0.2353 -0.5071 -0.5405
  425MOL0     C57285   7.287   8.506   9.331  0.1489  0.3601 -0.0472
  425MOL0     C57286   7.170   8.580   9.332  0.1221 -0.0085 -0.0611
  425MOL0     O57287   6.901   8.635   9.420  0.0406 -0.6646 -0.6446
  425MOL0     C57288   6.637   8.697   9.316 -0.6518  0.8378  0.8374
  425MOL0     C57289   6.513   8.700   9.245 -0.5810 -0.5353 -1.2088
  425MOL0     N57290   6.244   8.225   8.751  0.6664 -0.5914  0.0114
  425MOL0     N57291   6.272   8.244   8.629  0.6242  0.1141 -0.2692
  425MOL0     C57292   6.072   9.174   8.103 -0.3562 -0.0735  0.8315
  425MOL0     C57293   5.982   9.212   8.194  0.1348 -0.0354  0.2158
  425MOL0     C57294   5.550   9.246   8.395  0.0246 -0.1734  0.6311
  425MOL0     C57295   5.631   9.282   8.507  0.0677  0.2303  0.2882
  425MOL0     C57296   5.571   9.345   8.615 -0.7375  0.4162  0.0854
  425MOL0     C57297   5.431   9.382   8.612 -0.1219 -0.4045 -0.3020
  425MOL0     O57298   5.374   9.447   8.726  0.0352 -0.0351  0.3689
  425MOL0     C57299   5.233   9.433   8.750 -0.6547 -0.1103  0.0076
  425MOL0     C57300   5.209   9.484   8.903 -0.2177 -0.6844 -0.1311
  425MOL0     C57301   5.241   9.630   8.930 -0.0144 -0.4986  1.3943
  425MOL0     C57302   5.149   9.735   8.854  0.0790  1.4022 -0.1190
  425MOL0     C57303   5.009   9.709   8.869 -0.6640  0.6209  0.3190
  425MOL0     C57304   4.892   9.674   8.904 -0.7499  0.8065  0.4165
  425MOL0     C57305   5.360   9.364   8.495 -0.8460 -0.0048  0.5428
  425MOL0     C57306   5.416   9.284   8.397 -0.5484 -0.3236  0.4823
  425MOL0     C57307   5.322   9.264   8.276 -0.3476 -1.0566 -1.1245
  425MOL0     H57308   5.728   9.005   8.070  0.0069 -0.3157 -1.3336
  425MOL0     H57309   5.887   8.967   7.917 -1.2838  0.6717  1.4008
  425MOL0     H57310   6.055   8.899   7.816 -0.1109 -0.1609  0.0711
  425MOL0     H57311   6.209   8.948   7.745  1.7296  0.7002  1.7524
  425MOL0     H57312   6.325   8.846   7.943  0.6957 -0.7039 -0.0629
  425MOL0     H57313   6.276   8.744   7.813  0.8414 -1.4398  0.8644
  425MOL0     H57314   6.050   8.727   7.968 -0.2395  1.5582  0.9516
  425MOL0     H57315   6.167   8.776   8.087 -1.0290  2.4576 -2.5833
  425MOL0     H57316   6.182   8.521   7.914  1.4075 -0.9568  1.0946
  425MOL0     H57317   6.311   8.582   8.014  1.1030 -4.1146 -1.1081
  425MOL0     H57318   6.060   8.468   8.101  0.9678 -0.1631 -2.4386
  425MOL0     H57319   6.235   8.407   8.126  1.7491  0.7728 -1.6337
  425MOL0     H57320   6.270   8.606   8.270  0.0536  2.1657 -1.6788
  425MOL0     H57321   6.093   8.633   8.263  1.0432 -0.4181  1.1557
  425MOL0     H57322   6.127   8.361   8.338  3.0953 -2.6675  5.2203
  425MOL0     H57323   6.064   8.508   8.425 -0.2038 -1.3746  0.8790
  425MOL0     H57324   6.357   8.411   8.423 -0.7357  0.7165 -0.6214
  425MOL0     H57325   6.303   8.556   8.499 -1.9040 -0.1889  0.8007
  425MOL0     H57326   6.126   8.531   8.715  2.0631  1.4351  2.1416
  425MOL0     H57327   6.017   8.386   8.937  0.7144  1.7677  4.1184
  425MOL0     H57328   6.119   8.247   8.984  1.7564 -0.2456  1.0587
  425MOL0     H57329   6.169   8.412   9.130 -1.8395 -0.4589 -0.4042
  425MOL0     H57330   6.312   8.420   9.021  0.4805  0.6728  0.0775
  425MOL0     H57331   6.065   8.600   9.023  0.0566  1.2887 -0.2073
  425MOL0     H57332   6.205   8.614   8.899  1.0506  0.7883  0.1762
  425MOL0     H57333   6.243   8.662   9.195 -2.1876 -2.2686 -0.8346
  425MOL0     H57334   6.215   8.780   9.084 -3.0247 -1.1544  0.5608
  425MOL0     H57335   6.614   8.663   8.928 -2.5082 -0.1803  0.2753
  425MOL0     H57336   6.825   8.672   9.028 -3.8447  1.8633 -4.7150
  425MOL0     H57337   7.086   8.543   9.010  1.2571 -1.8099 -2.2488
  425MOL0     H57338   7.312   8.439   8.998 -1.5956 -0.8701 -0.1225
  425MOL0     H57339   7.616   8.294   9.155 -1.3085 -1.4201 -0.0560
  425MOL0     H57340   7.477   8.323   9.045 -0.6550  0.3495 -0.2345
  425MOL0     H57341   7.559   8.558   9.029 -1.4724 -1.4903  0.5937
  425MOL0     H57342   7.687   8.525   9.143 -3.4334  2.3169  1.9245
  425MOL0     H57343   7.767   8.336   8.971 -0.5204 -1.0845 -1.6424
  425MOL0     H57344   7.653   8.369   8.867  1.5588 -3.3390  1.1386
  425MOL0     H57345   7.856   8.584   8.967  0.2430  1.0690 -0.1764
  425MOL0     H57346   7.738   8.602   8.835 -2.0275 -1.4445 -1.1125
  425MOL0     H57347   7.907   8.545   8.698  1.9264  1.3320  0.3703
  425MOL0     H57348   7.848   8.382   8.723  3.0469  0.7183 -2.9656
  425MOL0     H57349   8.074   8.515   8.887  1.3199 -0.1048  1.2557
  425MOL0     H57350   8.012   8.359   8.927 -1.0065  2.2262  1.4645
  425MOL0     H57351   8.152   8.436   8.680  2.4991  0.4821  1.1259
  425MOL0     H57352   8.071   8.276   8.690 -0.0653 -1.2457  1.7896
  425MOL0     H57353   8.285   8.375   8.877 -4.3687  1.7563  1.4523
  425MOL0     H57354   8.216   8.216   8.894  2.1001 -2.1788 -1.7321
  425MOL0     H57355   7.348   8.488   9.419  0.4309  1.1322 -0.0753
  425MOL0     H57356   7.143   8.608   9.434 -0.7322 -2.1158  0.3448
  425MOL0     H57357   6.649   8.702   9.424  1.7459 -2.0781  0.8420
  425MOL0     H57358   6.430   8.728   9.310 -0.8381 -3.2824 -0.2191
  425MOL0     H57359   6.175   9.209   8.102  0.7896 -2.8009 -3.9452
  425MOL0     H57360   6.006   9.271   8.282  0.0430  1.0917 -0.4994
  425MOL0     H57361   5.737   9.258   8.507  0.1926  0.7656  0.1429
  425MOL0     H57362   5.637   9.369   8.698 -1.3586  0.2515  0.6314
  425MOL0     H57363   5.214   9.325   8.748 -1.5326 -0.0177 -3.5477
  425MOL0     H57364   5.173   9.485   8.675  1.0929  0.6819 -0.8955
  425MOL0     H57365   5.275   9.429   8.970 -2.4015 -4.2485 -0.6327
  425MOL0     H57366   5.102   9.469   8.923 -0.1418 -1.9026 -0.5508
  425MOL0     H57367   5.343   9.656   8.896 -0.6903 -0.9407 -1.2367
  425MOL0     H57368   5.238   9.652   9.037  1.6980 -0.9156  1.5717
  425MOL0     H57369   5.174   9.832   8.899  4.1528  0.0756  0.8862
  425MOL0     H57370   5.177   9.736   8.749  2.0997 -2.7368  0.1731
  425MOL0     H57371   4.800   9.639   8.946  0.6154 -4.5332 -0.2065
  425MOL0     H57372   5.255   9.390   8.505 -0.5069  0.8628  2.1085
  425MOL0     H57373   5.229   9.320   8.279  1.0692  1.4029  0.5414
  425MOL0     H57374   5.372   9.295   8.183  1.4493  0.0892  0.1651
  425MOL0     H57375   5.294   9.158   8.268  1.5815 -1.7726  0.6013
  426MOL0     O57376   9.177   6.992   6.877  0.1884 -0.0644 -0.0986
  426MOL0     C57377   9.272   6.926   6.840 -0.3757  1.7857 -0.4277
  426MOL0     O57378   9.405   6.964   6.853 -0.0676  0.4425 -0.4724
  426MOL0     C57379   9.445   7.103   6.867  0.0172 -0.0950  1.2905
  426MOL0     C57380   9.586   7.122   6.846  0.1800 -0.3174  0.0176
  426MOL0     C57381   9.644   7.245   6.875  0.1037 -0.8022  0.1105
  426MOL0     C57382   9.567   7.351   6.925  0.1264  0.1126  0.1418
  426MOL0     O57383   9.609   7.478   6.901 -0.4162 -0.1693 -0.6336
  426MOL0     C57384   9.748   7.510   6.913  0.7121 -0.4238 -0.0601
  426MOL0     C57385   9.801   7.498   7.067  0.3976 -0.2648 -1.0989
  426MOL0     C57386   9.956   7.462   7.077  0.7189  0.5830  0.3398
  426MOL0     C57387  10.035   7.585   7.028 -0.2237  0.1302 -0.1264
  426MOL0     C57388  10.188   7.576   7.038 -0.2561  0.2612 -0.0044
  426MOL0     C57389  10.251   7.567   7.182  0.0635 -0.0567 -0.2882
  426MOL0     C57390  10.400   7.549   7.194 -0.2224 -0.5678  0.0065
  426MOL0     C57391  10.456   7.569   7.333  0.1324  0.4474 -0.6059
  426MOL0     N57392  10.604   7.561   7.319 -0.3818 -0.2585 -0.1631
  426MOL0     C57393  10.673   7.457   7.259  0.1961  0.3506 -1.4704
  426MOL0     C57394  10.798   7.483   7.291  0.4808  0.9387 -0.0236
  426MOL0     C57395  10.919   7.404   7.257  0.2612  0.3136  0.3524
  426MOL0     C57396  10.978   7.485   7.134  0.8931  0.3320 -0.8203
  426MOL0     C57397  11.117   7.439   7.081  0.6798 -0.5291 -0.5445
  426MOL0     C57398  11.234   7.471   7.182 -0.5217  0.2022  0.5374
  426MOL0     O57399  11.355   7.426   7.114 -0.3356 -0.3138 -0.7058
  426MOL0     C57400  11.432   7.517   7.043 -0.1431  0.2287 -0.0369
  426MOL0     C57401  11.398   7.643   7.000  0.1614  0.0762  0.0956
  426MOL0     C57402  11.482   7.723   6.920 -0.2676  0.2687 -0.4198
  426MOL0     C57403  11.603   7.682   6.880  0.4991  0.6353  0.3771
  426MOL0     C57404  11.683   7.767   6.790 -0.8172  0.3775  0.4429
  426MOL0     O57405  11.677   7.902   6.801 -0.0096 -0.0121 -0.1887
  426MOL0     C57406  11.732   7.987   6.714  0.2382  0.0802  0.8724
  426MOL0     C57407  11.786   7.963   6.585 -0.6112  0.3193  0.3096
  426MOL0     C57408  11.826   8.066   6.505 -0.5436  0.7396  0.2670
  426MOL0     C57409  11.812   8.194   6.552 -0.9705  0.2132  0.9334
  426MOL0     O57410  11.857   8.314   6.490  0.9410  0.3809 -0.0462
  426MOL0     C57411  11.876   8.320   6.349  0.5186 -0.3543 -0.5009
  426MOL0     C57412  11.929   8.457   6.304  0.8887  0.0495 -0.3946
  426MOL0     C57413  11.826   8.570   6.284 -0.3927 -0.8388  0.2620
  426MOL0     C57414  11.897   8.702   6.291  0.5345 -0.9869  0.3024
  426MOL0     C57415  11.824   8.819   6.229  0.1187  0.1812 -0.1263
  426MOL0     C57416  11.684   8.854   6.287  0.6103 -0.2104  0.3983
  426MOL0     C57417  11.722   8.934   6.407 -0.2036  0.6443 -0.2746
  426MOL0     C57418  11.592   8.987   6.470  0.6576  0.7215  0.0703
  426MOL0    Cl57419  11.648   9.086   6.604  0.1695 -0.0576 -0.4189
  426MOL0     C57420  11.766   8.216   6.679 -1.0550 -0.4614  0.5173
  426MOL0     C57421  11.715   8.118   6.755 -0.7191  0.0820  0.9726
  426MOL0     O57422  11.732   7.700   6.697 -0.9856 -0.2103  0.7116
  426MOL0     C57423  11.638   7.552   6.919  0.4595  0.7204 -0.6099
  426MOL0     C57424  11.556   7.472   6.998  0.4461  1.0198  0.3917
  426MOL0     N57425  10.809   7.592   7.370  0.0836  0.5193 -0.2345
  426MOL0     N57426  10.689   7.634   7.396 -0.0481 -0.3978  0.9442
  426MOL0     C57427   9.432   7.329   6.944  0.9741 -0.0725  0.2717
  426MOL0     C57428   9.373   7.204   6.911  0.8245  0.1953 -0.6387
  426MOL0     C57429   9.256   6.794   6.775 -0.3385  0.0562  0.6961
  426MOL0     C57430   9.375   6.738   6.718  0.6287  0.0351  0.3096
  426MOL0     C57431   9.364   6.625   6.636 -0.2987  0.0889 -0.0722
  426MOL0     C57432   9.242   6.565   6.613 -0.4022 -0.9091 -0.3406
  426MOL0     O57433   9.250   6.459   6.520 -0.1173 -0.3669 -0.1374
  426MOL0     C57434   9.132   6.372   6.492 -0.2573 -0.2950 -0.1583
  426MOL0     C57435   9.176   6.255   6.396 -0.2487 -0.1490 -1.5609
  426MOL0     C57436   9.211   6.289   6.257  0.7633  0.4910  0.8591
  426MOL0     C57437   9.098   6.363   6.187  0.4788 -0.4379  0.3036
  426MOL0     C57438   9.107   6.387   6.040 -0.6215 -0.1959  0.1000
  426MOL0     C57439   9.116   6.418   5.927 -0.0200 -0.3139  0.4430
  426MOL0     C57440   9.132   6.613   6.680  0.7506 -0.0847 -0.3900
  426MOL0     C57441   9.137   6.725   6.760 -0.6865  0.2373 -0.4993
  426MOL0     C57442   9.016   6.749   6.847 -0.3303 -0.0692  0.0305
  426MOL0     H57443   9.644   7.042   6.799 -0.2367  0.6963 -2.3804
  426MOL0     H57444   9.747   7.259   6.845  0.4312 -0.7674  1.2061
  426MOL0     H57445   9.810   7.451   6.844  2.0193  1.2735 -0.4120
  426MOL0     H57446   9.765   7.607   6.864  0.5120  0.8027  2.1887
  426MOL0     H57447   9.742   7.417   7.110  0.1599  0.6412  0.3489
  426MOL0     H57448   9.768   7.579   7.134  1.9315 -1.0905  0.7655
  426MOL0     H57449   9.969   7.376   7.011  1.7012  0.2626  0.9189
  426MOL0     H57450   9.990   7.421   7.173  1.2247 -1.9494 -0.8382
  426MOL0     H57451  10.000   7.632   6.936 -3.5992 -0.5950  0.6503
  426MOL0     H57452  10.026   7.652   7.114  0.0400 -2.3972  1.9998
  426MOL0     H57453  10.211   7.482   6.985 -0.6635 -0.3995  0.9647
  426MOL0     H57454  10.217   7.667   6.985  0.1288 -0.2197 -0.6356
  426MOL0     H57455  10.225   7.654   7.243  0.4212  2.9337 -3.9992
  426MOL0     H57456  10.209   7.477   7.229 -1.1417 -0.1035 -1.3929
  426MOL0     H57457  10.452   7.628   7.139  2.9529 -1.6776  1.1806
  426MOL0     H57458  10.424   7.459   7.135  0.7245 -0.6857  0.5473
  426MOL0     H57459  10.419   7.663   7.374 -2.1702 -0.3987 -0.6002
  426MOL0     H57460  10.419   7.486   7.395 -0.3703 -1.8446 -3.7391
  426MOL0     H57461  10.638   7.377   7.194  0.3872  2.9181 -5.0179
  426MOL0     H57462  10.992   7.400   7.339  2.2621  4.4587 -0.9170
  426MOL0     H57463  10.894   7.304   7.222  2.7974 -0.2532 -0.0383
  426MOL0     H57464  10.908   7.458   7.054 -0.3585 -1.1997  0.7049
  426MOL0     H57465  10.971   7.594   7.139  3.1645  0.4942 -0.0337
  426MOL0     H57466  11.148   7.496   6.993  0.3125 -0.0766 -0.3842
  426MOL0     H57467  11.120   7.334   7.050  2.1892  0.3008 -3.4855
  426MOL0     H57468  11.232   7.403   7.268  1.3974 -1.8617 -0.9473
  426MOL0     H57469  11.246   7.572   7.222  1.8294  0.3870 -0.4856
  426MOL0     H57470  11.299   7.687   7.012 -0.3502 -1.1426  0.5280
  426MOL0     H57471  11.452   7.825   6.897  1.1781  1.2174  1.6582
  426MOL0     H57472  11.816   7.866   6.546 -0.8093 -0.1159  1.2081
  426MOL0     H57473  11.870   8.046   6.408  1.1790  0.2792  1.0973
  426MOL0     H57474  11.955   8.250   6.322  0.0835 -1.0818  0.0904
  426MOL0     H57475  11.782   8.288   6.302  0.3695 -3.2491  1.5347
  426MOL0     H57476  12.001   8.485   6.381  0.0173  2.2463 -0.3059
  426MOL0     H57477  11.978   8.443   6.207  4.7927  0.3071  1.3325
  426MOL0     H57478  11.760   8.556   6.198 -2.1129 -0.7511  1.5133
  426MOL0     H57479  11.775   8.571   6.381  2.0032 -3.3652  1.7084
  426MOL0     H57480  11.998   8.688   6.250  0.1669  1.5917 -1.7163
  426MOL0     H57481  11.903   8.726   6.398 -1.4113 -0.2108  0.2631
  426MOL0     H57482  11.810   8.792   6.123  1.7412 -2.8491  0.3129
  426MOL0     H57483  11.881   8.912   6.222 -0.9234  1.0322  1.7886
  426MOL0     H57484  11.624   8.916   6.219  3.1310  1.7499 -0.1812
  426MOL0     H57485  11.627   8.763   6.306 -3.2760  1.9676  0.1582
  426MOL0     H57486  11.796   9.014   6.400  2.3113 -1.6620 -2.0315
  426MOL0     H57487  11.761   8.867   6.484 -3.5853 -3.3138 -1.6316
  426MOL0     H57488  11.531   9.046   6.402 -0.0750  2.6020  2.2282
  426MOL0     H57489  11.540   8.897   6.503  1.5730  0.7999  1.8428
  426MOL0     H57490  11.752   8.320   6.705  3.6553  1.2394 -2.3167
  426MOL0     H57491  11.668   8.128   6.852  0.7912 -1.8845  1.9882
  426MOL0     H57492  11.733   7.511   6.886 -0.1189 -3.9085  2.5840
  426MOL0     H57493  11.581   7.372   7.034 -3.7130 -1.3996 -2.5732
  426MOL0     H57494   9.367   7.413   6.962 -1.6156 -1.8519 -0.1572
  426MOL0     H57495   9.265   7.209   6.909  0.5617  0.9688  4.0078
  426MOL0     H57496   9.478   6.771   6.734  1.6073 -1.5932 -2.0520
  426MOL0     H57497   9.456   6.593   6.588 -0.5886 -1.7035  0.4764
  426MOL0     H57498   9.053   6.427   6.442 -0.9536 -0.8798  0.2843
  426MOL0     H57499   9.097   6.333   6.588  1.5161  1.6158  1.3619
  426MOL0     H57500   9.095   6.181   6.400 -0.3582  0.0163  0.1995
  426MOL0     H57501   9.269   6.214   6.436 -0.3632 -1.6102 -2.6975
  426MOL0     H57502   9.249   6.205   6.199 -3.2301  0.2312 -1.8752
  426MOL0     H57503   9.297   6.357   6.250  1.6883 -0.7068  0.2819
  426MOL0     H57504   9.007   6.306   6.208  0.3344 -0.4557 -0.3680
  426MOL0     H57505   9.090   6.459   6.239 -2.1431  0.2213 -1.1454
  426MOL0     H57506   9.123   6.449   5.824  3.6940  0.7384  0.8973
  426MOL0     H57507   9.041   6.553   6.684  0.7902 -0.1611  3.1639
  426MOL0     H57508   8.937   6.674   6.851 -2.4334  1.9940 -0.3766
  426MOL0     H57509   9.050   6.750   6.951  0.2814 -1.0598 -0.1471
  426MOL0     H57510   8.969   6.847   6.835  2.7699  1.8635  1.9372
  427MOL0     O57511   1.647   9.196   0.214 -0.4500 -0.1310  0.7722
  427MOL0     C57512   1.571   9.102   0.218  0.3489 -0.1560 -0.4158
  427MOL0     O57513   1.518   9.049   0.339  0.1684  0.2490 -0.5688
  427MOL0     C57514   1.567   9.087   0.458 -1.4842  0.0878 -0.9940
  427MOL0     C57515   1.476   9.083   0.565  0.3208  0.4973 -0.3011
  427MOL0     C57516   1.515   9.094   0.698 -0.3838 -1.1743 -0.1248
  427MOL0     C57517   1.648   9.132   0.726 -1.1786  0.3775  0.4350
  427MOL0     O57518   1.690   9.158   0.852  0.8142 -1.1095 -0.9860
  427MOL0     C57519   1.597   9.145   0.960 -0.2348  0.1737 -0.0023
  427MOL0     C57520   1.669   9.170   1.089 -0.3595  0.1782 -1.2107
  427MOL0     C57521   1.802   9.082   1.106  0.7662 -0.8984 -0.8457
  427MOL0     C57522   1.913   9.174   1.175 -0.3617  0.0770  0.3198
  427MOL0     C57523   2.050   9.092   1.189  1.1075  0.6242  0.4471
  427MOL0     C57524   2.044   8.972   1.280 -1.0686  0.3882  0.0238
  427MOL0     C57525   2.178   8.913   1.317  0.1959 -0.3637 -0.1388
  427MOL0     C57526   2.267   8.900   1.198  0.0320  0.4612 -0.4183
  427MOL0     N57527   2.411   8.871   1.224  0.7689 -0.5875 -0.1115
  427MOL0     C57528   2.461   8.756   1.280 -0.7622 -0.0644 -0.9472
  427MOL0     C57529   2.599   8.765   1.263 -0.7557  0.9160  0.1734
  427MOL0     C57530   2.700   8.680   1.333  0.5086  0.6986  0.6911
  427MOL0     C57531   2.843   8.705   1.292  0.0988 -0.3271  0.1826
  427MOL0     C57532   2.926   8.577   1.326  0.2427 -0.7395 -0.3544
  427MOL0     C57533   3.070   8.619   1.310  0.0848 -0.1208  0.3550
  427MOL0     O57534   3.117   8.487   1.308 -0.1660  0.5604 -0.1512
  427MOL0     C57535   3.242   8.477   1.358 -0.4914 -1.8216 -0.3319
  427MOL0     C57536   3.347   8.526   1.274  0.9525  1.1052  0.3844
  427MOL0     C57537   3.476   8.539   1.325 -0.1392 -0.4368 -0.8634
  427MOL0     C57538   3.502   8.509   1.458 -0.1995 -0.1470 -0.0978
  427MOL0     C57539   3.636   8.522   1.524  0.6000 -0.3467 -0.0530
  427MOL0     O57540   3.731   8.563   1.435 -0.2233  0.2505 -0.0378
  427MOL0     C57541   3.867   8.550   1.474  1.1343 -0.2087 -0.1192
  427MOL0     C57542   3.956   8.647   1.448 -0.4451  0.9174  1.0879
  427MOL0     C57543   4.099   8.634   1.456  0.4711  0.2817 -0.1072
  427MOL0     C57544   4.149   8.513   1.508 -0.8432 -0.7738 -0.3541
  427MOL0     O57545   4.284   8.490   1.516 -0.1945 -0.4822  0.2017
  427MOL0     C57546   4.364   8.584   1.579  0.5826  0.7700  0.1817
  427MOL0     C57547   4.507   8.535   1.570  0.1818  0.1650 -0.0799
  427MOL0     C57548   4.596   8.564   1.454 -0.3098  0.5418  0.2004
  427MOL0     C57549   4.739   8.526   1.488 -0.3177  0.7593  0.1003
  427MOL0     C57550   4.833   8.559   1.385 -0.7655 -0.0347  0.3286
  427MOL0     C57551   4.816   8.474   1.258 -0.4457  0.8146  1.0063
  427MOL0     C57552   4.945   8.404   1.217 -0.5954  0.3183 -0.0707
  427MOL0     C57553   4.927   8.310   1.102 -0.0525  0.5463  0.0934
  427MOL0    Cl57554   4.879   8.405   0.952  0.1195  0.0178  0.1472
  427MOL0     C57555   4.063   8.417   1.548 -0.0013  0.0560  0.4287
  427MOL0     C57556   3.922   8.435   1.521 -0.2938  0.5972  0.6756
  427MOL0     O57557   3.660   8.491   1.640  0.2908 -0.8332  0.0767
  427MOL0     C57558   3.397   8.462   1.540 -0.7455 -0.9683  0.2676
  427MOL0     C57559   3.269   8.446   1.491  1.4480 -0.8578  0.7088
  427MOL0     N57560   2.628   8.881   1.214 -0.4010  0.5504 -0.5790
  427MOL0     N57561   2.520   8.952   1.192 -0.2946  0.5049 -0.2203
  427MOL0     C57562   1.742   9.137   0.626 -0.9514  1.1965  0.6425
  427MOL0     C57563   1.704   9.105   0.491 -0.0661 -0.0569 -0.7163
  427MOL0     C57564   1.514   9.050   0.091 -0.8237 -0.9025  0.6401
  427MOL0     C57565   1.469   8.915   0.098  0.7103  0.0574  0.1427
  427MOL0     C57566   1.442   8.847  -0.020  0.7285 -0.2872  0.2213
  427MOL0     C57567   1.424   8.915  -0.142 -0.2667 -0.0460 -0.1749
  427MOL0     O57568   1.364   8.847  -0.240 -0.1902  0.0029  0.4264
  427MOL0     C57569   1.391   8.902  -0.364 -0.4398 -0.5415 -0.1333
  427MOL0     C57570   1.539   8.882  -0.412  0.4405  0.1049  0.0183
  427MOL0     C57571   1.558   8.966  -0.545  0.0983  1.0306 -1.3072
  427MOL0     C57572   1.557   9.121  -0.535  0.2630 -0.4073 -0.5538
  427MOL0     C57573   1.662   9.152  -0.437 -0.7143  0.4096 -0.5360
  427MOL0     C57574   1.754   9.185  -0.361  0.5408 -0.5839  0.5244
  427MOL0     C57575   1.470   9.048  -0.145 -0.0213 -0.3327  0.5761
  427MOL0     C57576   1.515   9.119  -0.031 -0.5113 -0.2600 -0.6159
  427MOL0     C57577   1.548   9.268  -0.059  0.1236 -0.0943  0.4312
  427MOL0     H57578   1.368   9.075   0.560 -0.1232  4.3769  0.0482
  427MOL0     H57579   1.440   9.091   0.776 -1.0829 -0.1676 -0.7420
  427MOL0     H57580   1.509   9.210   0.949  0.5265  1.0846 -0.8521
  427MOL0     H57581   1.563   9.041   0.957 -0.9610  0.3765  0.7057
  427MOL0     H57582   1.604   9.145   1.174 -0.8896  1.1758 -1.3183
  427MOL0     H57583   1.703   9.273   1.099 -1.6331  0.4000  1.7035
  427MOL0     H57584   1.839   9.050   1.009  0.8938 -0.2586 -1.0157
  427MOL0     H57585   1.792   8.997   1.175 -0.6009 -1.3649 -1.5919
  427MOL0     H57586   1.934   9.259   1.108 -4.2298  0.4517 -0.6864
  427MOL0     H57587   1.890   9.200   1.279  0.9314  4.7393 -0.3078
  427MOL0     H57588   2.065   9.067   1.084 -1.4777  1.1079 -0.1015
  427MOL0     H57589   2.128   9.162   1.221  1.6279  1.8353 -3.0974
  427MOL0     H57590   1.998   9.007   1.373 -1.1987 -0.8221  0.4292
  427MOL0     H57591   1.987   8.895   1.228  1.7728 -0.6415 -1.8018
  427MOL0     H57592   2.170   8.820   1.374  1.3143 -0.1456  0.4083
  427MOL0     H57593   2.235   8.986   1.376  3.4260 -3.3996  0.8977
  427MOL0     H57594   2.223   8.829   1.127  2.0912  1.3678 -2.7265
  427MOL0     H57595   2.264   8.998   1.151 -0.7392  1.1196  0.9355
  427MOL0     H57596   2.402   8.687   1.340 -0.1720  0.8788  0.7917
  427MOL0     H57597   2.686   8.694   1.441  2.7592 -0.4806  1.1865
  427MOL0     H57598   2.690   8.572   1.315  1.0478  0.8562 -0.6436
  427MOL0     H57599   2.856   8.727   1.186 -2.0250 -0.3474 -0.1283
  427MOL0     H57600   2.875   8.793   1.348 -2.7812  1.1600 -0.3366
  427MOL0     H57601   2.897   8.493   1.262  0.2530  0.8405 -2.5585
  427MOL0     H57602   2.897   8.555   1.429 -0.4317  3.0637  0.4228
  427MOL0     H57603   3.091   8.677   1.400 -0.5024  1.9685 -0.7916
  427MOL0     H57604   3.089   8.673   1.216 -1.2226 -0.2936 -0.0379
  427MOL0     H57605   3.320   8.552   1.172  0.4300  0.1740  0.2833
  427MOL0     H57606   3.545   8.595   1.263 -0.8755  2.9165  1.1630
  427MOL0     H57607   3.922   8.743   1.412 -0.2438  0.7577  0.4650
  427MOL0     H57608   4.160   8.719   1.429 -0.9895  1.0131 -1.2266
  427MOL0     H57609   4.355   8.687   1.543 -0.9979  0.0141 -1.7899
  427MOL0     H57610   4.329   8.579   1.683  1.0344  3.0108  0.4934
  427MOL0     H57611   4.548   8.579   1.661 -0.8432 -1.7206  1.3779
  427MOL0     H57612   4.510   8.427   1.586  1.5546  0.3454  1.0747
  427MOL0     H57613   4.553   8.516   1.366 -1.4302  1.1545  0.3774
  427MOL0     H57614   4.597   8.674   1.452  0.5939  0.5453 -1.9295
  427MOL0     H57615   4.741   8.418   1.507 -3.1524  0.4090 -1.1322
  427MOL0     H57616   4.771   8.572   1.582  1.3557  0.2231 -0.1778
  427MOL0     H57617   4.931   8.555   1.432 -0.1432  3.0773 -0.4612
  427MOL0     H57618   4.822   8.668   1.378  0.4426  0.1325  0.8269
  427MOL0     H57619   4.730   8.407   1.262  0.9561 -1.1864 -0.1314
  427MOL0     H57620   4.798   8.545   1.176 -1.5398  1.9889  2.2249
  427MOL0     H57621   4.967   8.344   1.306 -1.3139  0.6349  0.3346
  427MOL0     H57622   5.032   8.470   1.211 -0.4541  0.2935  1.4318
  427MOL0     H57623   5.012   8.250   1.069  1.1454  1.4173  1.4460
  427MOL0     H57624   4.845   8.244   1.128 -0.1735  0.1206 -1.2802
  427MOL0     H57625   4.112   8.325   1.580 -0.1812 -0.8935 -1.8910
  427MOL0     H57626   3.856   8.355   1.551 -0.8535  0.4238 -0.9240
  427MOL0     H57627   3.419   8.413   1.635 -2.2892 -1.8180  0.2124
  427MOL0     H57628   3.184   8.404   1.543  0.0175  1.3255  0.2910
  427MOL0     H57629   1.847   9.145   0.650 -0.8392 -2.4954  2.0791
  427MOL0     H57630   1.788   9.109   0.422  1.5278  2.2490  1.1816
  427MOL0     H57631   1.464   8.855   0.188 -1.0221  0.7198  0.5403
  427MOL0     H57632   1.415   8.741  -0.023 -0.4192 -0.0820  1.6388
  427MOL0     H57633   1.363   9.008  -0.369 -1.9155 -0.8582  0.7564
  427MOL0     H57634   1.334   8.844  -0.438  3.0516 -0.2375 -3.3586
  427MOL0     H57635   1.549   8.777  -0.441 -0.7048  0.3049 -1.2202
  427MOL0     H57636   1.615   8.892  -0.335 -0.4590 -1.8747  1.2266
  427MOL0     H57637   1.471   8.942  -0.606 -1.6095  1.6743  0.7211
  427MOL0     H57638   1.649   8.940  -0.599  1.6402 -0.1401  1.6285
  427MOL0     H57639   1.588   9.165  -0.630  2.7180  2.5201  1.4128
  427MOL0     H57640   1.468   9.173  -0.497  1.7942  1.6812  0.4023
  427MOL0     H57641   1.844   9.219  -0.313  2.5336 -1.2124 -2.4461
  427MOL0     H57642   1.452   9.111  -0.230  1.0179 -4.2649 -2.9123
  427MOL0     H57643   1.634   9.299   0.002 -1.5385  0.2817  2.6970
  427MOL0     H57644   1.566   9.288  -0.165 -0.0218 -2.2549 -0.0294
  427MOL0     H57645   1.452   9.307  -0.024  0.8233  0.7221  1.5022
  428MOL0     O57646   0.467   4.842   2.855 -0.3508 -0.1488 -0.4760
  428MOL0     C57647   0.449   4.717   2.859  0.6773  0.1466  0.3072
  428MOL0     O57648   0.330   4.655   2.857  0.2340 -0.2623 -0.0629
  428MOL0     C57649   0.216   4.726   2.830  1.2191  0.0056 -0.3626
  428MOL0     C57650   0.147   4.735   2.700  0.2116 -0.1833 -0.0047
  428MOL0     C57651   0.020   4.809   2.699 -0.5482  0.0985  0.8684
  428MOL0     C57652  -0.049   4.849   2.819  0.9662 -0.1843  0.2227
  428MOL0     O57653  -0.180   4.904   2.819 -0.3345 -0.1301 -0.3407
  428MOL0     C57654  -0.274   4.864   2.913  0.4726  0.2677 -0.5404
  428MOL0     C57655  -0.425   4.883   2.877  0.5677 -0.5030  0.4189
  428MOL0     C57656  -0.535   4.860   2.988  0.3217  0.8748 -0.9891
  428MOL0     C57657  -0.550   4.718   3.021  0.2534  0.7225 -0.4659
  428MOL0     C57658  -0.667   4.693   3.125  0.0372 -0.4493 -0.1867
  428MOL0     C57659  -0.685   4.545   3.167 -0.0922  0.6091  0.2456
  428MOL0     C57660  -0.735   4.446   3.064 -0.0772  0.6996  0.7664
  428MOL0     C57661  -0.873   4.481   3.006  0.1085  0.4685 -0.0111
  428MOL0     N57662  -0.979   4.421   3.100  0.3824  0.1956  0.4983
  428MOL0     C57663  -1.093   4.361   3.047  0.9244  0.3765 -0.4914
  428MOL0     C57664  -1.151   4.302   3.156  0.5705 -0.1991  0.0139
  428MOL0     C57665  -1.259   4.208   3.151 -0.1763 -0.0130 -0.3162
  428MOL0     C57666  -1.393   4.269   3.096  0.2665 -0.2660  0.7137
  428MOL0     C57667  -1.449   4.393   3.174 -0.2946 -0.3031  0.0940
  428MOL0     C57668  -1.481   4.369   3.326 -0.5424  0.4092 -0.8206
  428MOL0     O57669  -1.590   4.278   3.362 -0.5309 -0.0704 -0.0908
  428MOL0     C57670  -1.613   4.257   3.499 -0.1080 -0.4666  0.1069
  428MOL0     C57671  -1.733   4.206   3.537 -0.3068 -0.0247 -0.2289
  428MOL0     C57672  -1.770   4.190   3.674 -0.0878 -0.1435  0.8113
  428MOL0     C57673  -1.680   4.230   3.776 -0.1672  0.9310 -0.6625
  428MOL0     C57674  -1.715   4.198   3.920  0.8016 -1.0930  0.4253
  428MOL0     O57675  -1.805   4.100   3.949 -0.5058  0.0877 -0.4845
  428MOL0     C57676  -1.847   4.067   4.070  0.3296 -0.6140 -1.2374
  428MOL0     C57677  -1.893   4.161   4.159 -0.4292 -0.0872 -0.5417
  428MOL0     C57678  -1.942   4.125   4.286 -0.2331 -0.3082 -0.1660
  428MOL0     C57679  -1.957   3.987   4.316 -0.3986  0.2277 -0.2036
  428MOL0     O57680  -2.025   3.929   4.425 -0.4621 -0.1907 -0.0342
  428MOL0     C57681  -2.106   4.013   4.501 -0.5058  0.8624 -0.1119
  428MOL0     C57682  -2.247   4.044   4.440 -0.2611  0.6875 -0.6681
  428MOL0     C57683  -2.355   4.090   4.542 -0.2274 -0.1333  0.3709
  428MOL0     C57684  -2.477   4.112   4.450 -0.4852  0.0467  0.4365
  428MOL0     C57685  -2.580   4.178   4.524 -0.3504  0.5069 -0.3898
  428MOL0     C57686  -2.704   4.219   4.430  0.6621  0.7597 -0.1152
  428MOL0     C57687  -2.829   4.261   4.506 -0.4298  0.2067  0.8678
  428MOL0     C57688  -2.952   4.263   4.421 -0.3208  0.6402  0.4045
  428MOL0    Cl57689  -3.093   4.297   4.524  0.0187 -0.4643 -0.1765
  428MOL0     C57690  -1.909   3.895   4.228 -0.1933  0.1899  0.6405
  428MOL0     C57691  -1.852   3.933   4.103 -0.4965 -0.2354 -0.1729
  428MOL0     O57692  -1.658   4.268   4.007 -0.5384  0.0240  0.1734
  428MOL0     C57693  -1.555   4.293   3.742  0.1129  0.1360 -0.0094
  428MOL0     C57694  -1.524   4.302   3.601  0.8491  0.3559 -0.7048
  428MOL0     N57695  -1.078   4.324   3.272  0.2352 -0.4872  0.8423
  428MOL0     N57696  -0.984   4.405   3.232  0.0877 -0.0835 -0.2746
  428MOL0     C57697   0.026   4.837   2.935  0.7092 -0.4950  0.9093
  428MOL0     C57698   0.154   4.787   2.946 -1.2270 -0.0482  0.5280
  428MOL0     C57699   0.569   4.636   2.879  0.1113  0.0087  0.0523
  428MOL0     C57700   0.537   4.501   2.916  0.6188 -1.1015  0.3973
  428MOL0     C57701   0.642   4.420   2.958  1.0217 -0.3067 -0.4851
  428MOL0     C57702   0.774   4.460   2.951  0.2072  0.7528  0.7376
  428MOL0     O57703   0.854   4.374   3.012  0.2946  0.2326  0.4524
  428MOL0     C57704   0.974   4.427   3.071 -0.9529  0.9708  0.0651
  428MOL0     C57705   1.065   4.311   3.116  0.6353  0.1455 -0.6885
  428MOL0     C57706   1.180   4.375   3.199 -0.5460  0.4521 -0.5068
  428MOL0     C57707   1.262   4.256   3.250 -0.6605 -0.3201  0.1157
  428MOL0     C57708   1.195   4.196   3.365 -0.2013  0.2448  0.3564
  428MOL0     C57709   1.130   4.128   3.445  0.1708 -0.9326 -0.0608
  428MOL0     C57710   0.805   4.585   2.903 -0.3357  0.6552 -0.3256
  428MOL0     C57711   0.707   4.675   2.871  0.8295 -0.2338  0.4006
  428MOL0     C57712   0.766   4.805   2.824  0.2915 -0.0748 -0.2119
  428MOL0     H57713   0.179   4.695   2.604 -1.1586 -2.4886  0.4176
  428MOL0     H57714  -0.022   4.848   2.606  1.7979  0.4635 -0.1123
  428MOL0     H57715  -0.262   4.758   2.937  2.1810  0.8485  1.4448
  428MOL0     H57716  -0.260   4.920   3.005  2.7953  0.3580 -0.8851
  428MOL0     H57717  -0.436   4.818   2.790  2.4124 -1.6561  0.9815
  428MOL0     H57718  -0.431   4.990   2.856 -4.7839 -0.2125  2.0409
  428MOL0     H57719  -0.631   4.900   2.956 -0.0059  1.0312  0.1237
  428MOL0     H57720  -0.511   4.921   3.076 -2.6776  1.5465 -0.5347
  428MOL0     H57721  -0.566   4.673   2.923 -0.1367  1.4102 -0.7184
  428MOL0     H57722  -0.453   4.686   3.062  2.0631  1.6750 -3.6692
  428MOL0     H57723  -0.641   4.743   3.219 -1.0537  0.1780 -0.2023
  428MOL0     H57724  -0.763   4.737   3.097 -0.4877 -1.1417  0.4464
  428MOL0     H57725  -0.593   4.506   3.212 -1.0019 -0.4996  1.2105
  428MOL0     H57726  -0.746   4.546   3.258  1.5977 -2.8893  1.6069
  428MOL0     H57727  -0.746   4.356   3.125 -1.4966  0.3514  0.0397
  428MOL0     H57728  -0.666   4.426   2.981 -1.7791  0.8899 -0.7787
  428MOL0     H57729  -0.879   4.590   3.001 -0.0174  0.5675  1.6268
  428MOL0     H57730  -0.878   4.439   2.906  0.8335 -0.1871  0.2194
  428MOL0     H57731  -1.126   4.372   2.944  1.3520 -0.3220 -0.7125
  428MOL0     H57732  -1.238   4.130   3.077  0.2320  0.6935 -0.9503
  428MOL0     H57733  -1.268   4.167   3.253  1.7960  1.5001  0.5327
  428MOL0     H57734  -1.370   4.296   2.993 -0.8844  0.6722  0.6873
  428MOL0     H57735  -1.458   4.181   3.087 -1.1609  0.9580 -2.8490
  428MOL0     H57736  -1.544   4.422   3.128 -2.1893 -1.8391  2.6789
  428MOL0     H57737  -1.368   4.466   3.168 -0.1836 -0.1654  2.2887
  428MOL0     H57738  -1.512   4.466   3.366 -2.5348 -0.4441 -0.1874
  428MOL0     H57739  -1.391   4.321   3.366  0.3613  0.6528 -2.4920
  428MOL0     H57740  -1.790   4.171   3.451  1.5396 -1.2933 -0.9926
  428MOL0     H57741  -1.864   4.145   3.703 -1.2785  2.1504  0.7888
  428MOL0     H57742  -1.883   4.268   4.142 -2.5780  0.0235 -1.3648
  428MOL0     H57743  -1.958   4.197   4.365 -0.3700 -3.5589  3.0400
  428MOL0     H57744  -2.115   3.964   4.599  1.7390  0.3697 -0.1103
  428MOL0     H57745  -2.061   4.110   4.523  1.4109 -0.2275  1.0062
  428MOL0     H57746  -2.230   4.113   4.357  0.5367  1.1328 -0.1566
  428MOL0     H57747  -2.276   3.947   4.400  0.4762  0.1447  0.0950
  428MOL0     H57748  -2.386   4.008   4.607 -1.4892  1.1399  1.4473
  428MOL0     H57749  -2.318   4.176   4.599  2.5802 -0.2675 -1.0697
  428MOL0     H57750  -2.501   4.013   4.410 -0.2923 -0.6869  2.0802
  428MOL0     H57751  -2.455   4.170   4.359 -2.4816 -0.4077 -0.3720
  428MOL0     H57752  -2.543   4.271   4.569 -2.5096  1.2366  0.0066
  428MOL0     H57753  -2.609   4.111   4.606 -0.0241  0.9177  0.0667
  428MOL0     H57754  -2.666   4.294   4.360 -0.9126  1.7164 -0.0090
  428MOL0     H57755  -2.745   4.137   4.370 -1.0393  2.3489 -1.2497
  428MOL0     H57756  -2.817   4.357   4.557  0.9069 -0.6810  2.3059
  428MOL0     H57757  -2.831   4.193   4.591  1.8632  1.2469  1.8441
  428MOL0     H57758  -2.942   4.338   4.342  0.5535 -2.3524 -2.5264
  428MOL0     H57759  -2.962   4.164   4.376 -2.6913 -0.6145  3.3716
  428MOL0     H57760  -1.931   3.790   4.241 -0.4465  0.0674 -0.6498
  428MOL0     H57761  -1.820   3.856   4.034 -0.4763  0.0390 -0.4698
  428MOL0     H57762  -1.475   4.312   3.812 -0.5743 -0.6726  1.0085
  428MOL0     H57763  -1.428   4.343   3.571  0.8745  0.1411 -0.9173
  428MOL0     H57764  -0.022   4.872   3.026  0.7884 -0.1219  0.8077
  428MOL0     H57765   0.197   4.794   3.046  2.2901 -1.5723 -0.7201
  428MOL0     H57766   0.436   4.467   2.931  0.4182  0.6764  4.4588
  428MOL0     H57767   0.615   4.325   3.001 -0.2213  1.0842  2.0756
  428MOL0     H57768   0.955   4.482   3.164  1.6978  4.5344 -1.2470
  428MOL0     H57769   1.029   4.497   3.007  0.1602 -0.1489 -0.2435
  428MOL0     H57770   1.103   4.287   3.016  0.6560 -2.5591 -0.0890
  428MOL0     H57771   1.019   4.223   3.161  1.6701 -0.6521 -1.1577
  428MOL0     H57772   1.150   4.435   3.286 -2.8309 -2.6638  1.0722
  428MOL0     H57773   1.239   4.437   3.131 -1.9994 -0.4058 -2.6306
  428MOL0     H57774   1.281   4.178   3.174  0.5713 -1.7835  1.8416
  428MOL0     H57775   1.359   4.294   3.283 -1.0459  3.1625 -2.2347
  428MOL0     H57776   1.059   4.084   3.513 -0.2670  0.5094  0.4491
  428MOL0     H57777   0.910   4.614   2.903 -0.5909  1.6170 -0.1153
  428MOL0     H57778   0.811   4.856   2.910  0.6722 -1.2541  0.3158
  428MOL0     H57779   0.846   4.787   2.752  0.2745  0.0844 -0.2703
  428MOL0     H57780   0.697   4.874   2.775  2.3915  2.1939 -0.1556
  429MOL0     O57781   5.567   5.567   5.828  0.4459  0.3634 -0.2479
  429MOL0     C57782   5.464   5.627   5.805  0.0440  0.3029 -0.4948
  429MOL0     O57783   5.438   5.750   5.858 -0.4204  0.5380 -0.2985
  429MOL0     C57784   5.537   5.846   5.865  0.1202  0.0205  0.1561
  429MOL0     C57785   5.535   5.944   5.761  0.4100  0.3216 -0.3617
  429MOL0     C57786   5.630   6.041   5.756  0.1720  0.6579 -0.4141
  429MOL0     C57787   5.738   6.035   5.844 -0.3616  0.1712  1.1637
  429MOL0     O57788   5.842   6.131   5.842 -0.3352  1.2599  0.0655
  429MOL0     C57789   5.967   6.077   5.800 -0.3404  0.1419  0.4921
  429MOL0     C57790   6.004   6.146   5.673  0.9029 -0.2689  0.3242
  429MOL0     C57791   5.902   6.121   5.561  0.4195 -0.5789  0.4443
  429MOL0     C57792   5.952   6.192   5.438  0.1918  0.8877 -1.2027
  429MOL0     C57793   5.851   6.197   5.319 -0.0794 -0.0800 -0.7504
  429MOL0     C57794   5.904   6.288   5.201 -0.7850 -0.2278  0.0064
  429MOL0     C57795   5.784   6.326   5.109  0.3503 -0.0494  0.4561
  429MOL0     C57796   5.824   6.392   4.969  0.2069  0.0561 -0.3031
  429MOL0     N57797   5.804   6.540   4.983  0.4804 -0.5110  0.5906
  429MOL0     C57798   5.715   6.603   4.898  0.1214  0.1556  0.1716
  429MOL0     C57799   5.744   6.738   4.915 -0.3090  0.3818 -0.6556
  429MOL0     C57800   5.671   6.862   4.872 -0.3727  0.9206  0.4172
  429MOL0     C57801   5.729   6.900   4.736 -0.3388  0.1781  0.3982
  429MOL0     C57802   5.873   6.947   4.756 -0.6625 -0.2398  0.0257
  429MOL0     C57803   5.914   7.033   4.630  0.3070 -0.3575  0.2381
  429MOL0     O57804   5.930   6.933   4.523  1.1678 -0.0041  0.0736
  429MOL0     C57805   6.022   6.950   4.422 -0.6562  0.8411 -0.7110
  429MOL0     C57806   5.997   6.873   4.304 -0.5356  1.3362 -0.4373
  429MOL0     C57807   6.084   6.888   4.202  0.1682 -0.3913  0.0387
  429MOL0     C57808   6.199   6.968   4.202  0.2112 -1.2768  0.8459
  429MOL0     C57809   6.299   6.984   4.083  0.6673  0.0293 -0.9382
  429MOL0     O57810   6.294   6.889   3.980  0.3014 -0.6138 -0.5847
  429MOL0     C57811   6.358   6.906   3.859 -0.1594  0.9839  0.5101
  429MOL0     C57812   6.448   7.002   3.818 -0.1164 -0.9483  0.3607
  429MOL0     C57813   6.510   6.997   3.690  0.3183 -0.3364  0.4794
  429MOL0     C57814   6.479   6.894   3.598  0.1428  0.3473 -0.0441
  429MOL0     O57815   6.521   6.898   3.472 -0.3255  0.2331  0.5764
  429MOL0     C57816   6.665   6.906   3.455 -0.1217 -0.0520 -0.0080
  429MOL0     C57817   6.697   6.852   3.313  0.0841 -1.0676 -0.0824
  429MOL0     C57818   6.665   6.702   3.297  0.5033  0.9291  0.5968
  429MOL0     C57819   6.672   6.662   3.146 -1.0178 -0.1454  0.7846
  429MOL0     C57820   6.639   6.514   3.125  0.3672  0.1603  0.5943
  429MOL0     C57821   6.665   6.460   2.980  0.4862 -0.0983  0.9138
  429MOL0     C57822   6.602   6.542   2.863  0.3385 -0.2915 -0.6072
  429MOL0     C57823   6.651   6.495   2.732  0.0052  0.0860  0.5379
  429MOL0    Cl57824   6.814   6.553   2.696  0.5079  0.1729 -0.0449
  429MOL0     C57825   6.392   6.797   3.636  0.7773  0.5349  0.3767
  429MOL0     C57826   6.335   6.802   3.763 -0.4059 -0.3523  0.0421
  429MOL0     O57827   6.378   7.072   4.098 -0.2782 -0.5397  0.4561
  429MOL0     C57828   6.209   7.059   4.313  0.0763  0.4935 -0.2716
  429MOL0     C57829   6.119   7.044   4.420 -0.1741 -0.3472 -0.5819
  429MOL0     N57830   5.841   6.742   5.015  0.4806 -0.3218 -0.4353
  429MOL0     N57831   5.877   6.628   5.048 -0.0736  0.2931 -0.7249
  429MOL0     C57832   5.749   5.938   5.945  0.4799  0.5938  0.2455
  429MOL0     C57833   5.642   5.845   5.961  0.2965 -0.2402 -0.0629
  429MOL0     C57834   5.357   5.555   5.718  0.5157  0.7808 -0.0571
  429MOL0     C57835   5.395   5.431   5.653 -0.9673  0.4869  1.1557
  429MOL0     C57836   5.303   5.357   5.585 -0.3533  0.4258  0.4811
  429MOL0     C57837   5.178   5.412   5.561  0.1450 -0.3652 -0.4518
  429MOL0     O57838   5.093   5.348   5.471 -1.2080  0.5001 -0.4630
  429MOL0     C57839   4.979   5.280   5.533  0.0974  1.1115  0.6729
  429MOL0     C57840   4.851   5.354   5.561 -0.3845  1.1808  0.2517
  429MOL0     C57841   4.799   5.433   5.439  0.1889  0.0806 -0.6630
  429MOL0     C57842   4.666   5.503   5.475 -0.0665  1.0138  0.9106
  429MOL0     C57843   4.628   5.573   5.355  0.0747 -0.2154  0.2242
  429MOL0     C57844   4.589   5.615   5.245 -0.0747  0.0962  0.1233
  429MOL0     C57845   5.137   5.529   5.620  0.0635  0.1258  1.7321
  429MOL0     C57846   5.226   5.601   5.699 -0.4118 -0.2029  0.2067
  429MOL0     C57847   5.172   5.729   5.754  0.1524  0.1252  0.2090
  429MOL0     H57848   5.459   5.950   5.683  0.3129 -3.4751 -0.7635
  429MOL0     H57849   5.618   6.117   5.679 -0.2060 -0.2270 -1.2636
  429MOL0     H57850   6.044   6.099   5.875 -1.3006  1.1171  1.2361
  429MOL0     H57851   5.965   5.972   5.772  0.1575 -0.0232  1.0660
  429MOL0     H57852   6.103   6.121   5.633 -0.0175  0.0066 -2.3214
  429MOL0     H57853   6.003   6.253   5.698 -2.9120 -0.1304  0.1427
  429MOL0     H57854   5.810   6.165   5.601  1.5359  0.5329  1.9293
  429MOL0     H57855   5.892   6.013   5.551 -0.3865 -0.4140 -0.7002
  429MOL0     H57856   5.969   6.296   5.467 -2.6647  0.5456  2.4432
  429MOL0     H57857   6.040   6.140   5.399  1.2457  1.1987  0.6298
  429MOL0     H57858   5.841   6.098   5.275  0.6139  0.4339 -2.1314
  429MOL0     H57859   5.752   6.230   5.352  1.3451  3.1993  0.7201
  429MOL0     H57860   5.959   6.379   5.226  1.4944 -1.0794 -1.5881
  429MOL0     H57861   5.975   6.231   5.141  1.9670 -1.0739  3.6730
  429MOL0     H57862   5.709   6.383   5.164 -0.8926 -1.7542  0.6164
  429MOL0     H57863   5.739   6.230   5.082  2.4122 -1.0969  0.6230
  429MOL0     H57864   5.926   6.367   4.937  0.8266  1.6698  0.2745
  429MOL0     H57865   5.762   6.358   4.885  0.5131  1.7627 -1.2779
  429MOL0     H57866   5.644   6.551   4.834 -0.5775 -0.4122  1.3634
  429MOL0     H57867   5.566   6.834   4.859  0.2909 -1.2675 -0.7087
  429MOL0     H57868   5.690   6.941   4.944  0.5484  0.3550  0.8045
  429MOL0     H57869   5.725   6.812   4.672  1.8455  0.0717  0.3460
  429MOL0     H57870   5.668   6.976   4.685  0.3258  0.3990 -0.0698
  429MOL0     H57871   5.947   6.869   4.772 -0.5093 -0.6556 -2.2997
  429MOL0     H57872   5.871   7.017   4.840 -1.3332 -0.0878 -0.1106
  429MOL0     H57873   6.009   7.082   4.651  0.5179  0.1950 -1.7791
  429MOL0     H57874   5.840   7.111   4.609  0.2609 -0.2417  0.8275
  429MOL0     H57875   5.908   6.814   4.286  0.2866  0.8846 -3.7076
  429MOL0     H57876   6.065   6.841   4.106 -2.1856 -1.7688  1.0832
  429MOL0     H57877   6.469   7.092   3.875  1.1090 -0.5038 -0.7545
  429MOL0     H57878   6.573   7.081   3.663 -2.4360  2.2558  1.5439
  429MOL0     H57879   6.692   7.012   3.460 -5.6470  1.8130 -2.1219
  429MOL0     H57880   6.720   6.844   3.527 -1.4571 -0.1149  0.9911
  429MOL0     H57881   6.638   6.913   3.243  2.5942  0.6033 -0.8963
  429MOL0     H57882   6.800   6.881   3.290  0.5911  0.3159  3.3379
  429MOL0     H57883   6.724   6.630   3.353 -0.3848 -1.8742 -1.8352
  429MOL0     H57884   6.560   6.687   3.322  0.4748 -0.4450 -0.2534
  429MOL0     H57885   6.773   6.684   3.109 -1.5437 -0.1298 -0.7066
  429MOL0     H57886   6.611   6.732   3.089  0.5342  0.5346 -0.1248
  429MOL0     H57887   6.538   6.491   3.161  0.3945 -1.7885 -0.4615
  429MOL0     H57888   6.706   6.460   3.192  1.3700 -1.1687 -1.3949
  429MOL0     H57889   6.773   6.460   2.960  0.6999  0.7635  1.9413
  429MOL0     H57890   6.629   6.357   2.976  0.9542 -0.2402  0.0032
  429MOL0     H57891   6.614   6.649   2.882  1.5352 -0.2421 -1.5119
  429MOL0     H57892   6.493   6.533   2.863  0.4629 -2.4862 -1.2190
  429MOL0     H57893   6.642   6.391   2.700  0.5611  0.0246  0.5634
  429MOL0     H57894   6.584   6.545   2.663  0.1289  1.2501  1.2305
  429MOL0     H57895   6.361   6.720   3.565  1.8453  0.0456  0.4229
  429MOL0     H57896   6.265   6.727   3.800 -0.4610  0.0995  0.8818
  429MOL0     H57897   6.282   7.138   4.320 -0.9249  1.3543  1.0324
  429MOL0     H57898   6.138   7.115   4.500 -0.7705 -2.9352  1.9645
  429MOL0     H57899   5.836   5.939   6.011 -0.6850  0.9352  1.8471
  429MOL0     H57900   5.652   5.769   6.037 -0.0515  0.0477  0.2730
  429MOL0     H57901   5.497   5.392   5.655 -1.3437 -0.9443 -2.0034
  429MOL0     H57902   5.323   5.259   5.542 -1.3155  1.6183 -3.0791
  429MOL0     H57903   5.019   5.224   5.618  2.0803 -0.0051 -0.9053
  429MOL0     H57904   4.946   5.203   5.463  0.9294 -1.1389  2.6311
  429MOL0     H57905   4.861   5.434   5.636  1.6379  1.8637 -0.6762
  429MOL0     H57906   4.770   5.290   5.596  0.6609 -2.2668 -3.0611
  429MOL0     H57907   4.780   5.357   5.363  1.1793 -3.8558  2.6671
  429MOL0     H57908   4.882   5.501   5.417  0.3506 -0.0049 -0.3237
  429MOL0     H57909   4.602   5.430   5.525 -0.2128  2.4016  2.8452
  429MOL0     H57910   4.680   5.584   5.547 -0.2198 -0.1645  2.2916
  429MOL0     H57911   4.571   5.645   5.144  1.3516 -0.2664 -0.2504
  429MOL0     H57912   5.040   5.571   5.595  0.5028 -1.0315 -2.9242
  429MOL0     H57913   5.068   5.743   5.724 -0.8353 -1.5675  2.5808
  429MOL0     H57914   5.174   5.723   5.863  0.7631 -2.0899  0.1195
  429MOL0     H57915   5.240   5.807   5.719 -1.2042  0.1168 -2.7541
  430MOL0     O57916   6.058  10.152   7.534 -0.5947 -0.4196  0.5618
  430MOL0     C57917   6.142  10.058   7.554  0.7287 -0.3023 -0.2912
  430MOL0     O57918   6.115   9.938   7.614 -0.0697 -0.3431 -0.2371
  430MOL0     C57919   5.986   9.897   7.622 -0.2158  0.6057  0.2036
  430MOL0     C57920   5.917   9.924   7.736  0.1344  0.3364  0.5236
  430MOL0     C57921   5.780   9.890   7.737  0.0238 -0.5154  0.0057
  430MOL0     C57922   5.719   9.804   7.644  1.3393  0.4886  0.1241
  430MOL0     O57923   5.604   9.737   7.666 -0.2576  0.2568  0.3206
  430MOL0     C57924   5.481   9.819   7.678  0.3790  0.2044  0.2594
  430MOL0     C57925   5.354   9.736   7.659 -0.0857 -0.3851  0.1350
  430MOL0     C57926   5.336   9.636   7.774 -0.2282  0.4432  0.2237
  430MOL0     C57927   5.203   9.579   7.786  0.1336  0.7191  0.3470
  430MOL0     C57928   5.186   9.467   7.899 -0.1884 -0.5196  0.1303
  430MOL0     C57929   5.056   9.398   7.894  0.0615 -0.9280 -0.1447
  430MOL0     C57930   5.034   9.309   8.007  0.3978  0.1264 -0.6266
  430MOL0     C57931   4.899   9.240   7.990  0.4997  0.8244  0.9692
  430MOL0     N57932   4.865   9.183   8.121 -0.2541  0.3700  0.0527
  430MOL0     C57933   4.788   9.253   8.213 -0.6466  0.5250 -0.6754
  430MOL0     C57934   4.831   9.206   8.338 -0.3851  0.0297  0.5093
  430MOL0     C57935   4.785   9.241   8.481  0.3526 -0.5009  0.2201
  430MOL0     C57936   4.789   9.388   8.490 -1.2362 -0.2892 -0.6201
  430MOL0     C57937   4.780   9.442   8.637  0.9142  0.4049  0.2160
  430MOL0     C57938   4.627   9.451   8.679 -0.2360 -0.1410 -0.7027
  430MOL0     O57939   4.553   9.505   8.572  0.1324 -0.1371  0.7926
  430MOL0     C57940   4.559   9.643   8.571  0.0883  0.5433  0.3448
  430MOL0     C57941   4.475   9.693   8.471 -0.0857 -0.0032  0.1997
  430MOL0     C57942   4.477   9.826   8.445  0.3474  0.3736  0.0421
  430MOL0     C57943   4.532   9.915   8.534  0.3989 -0.7482  0.0988
  430MOL0     C57944   4.519  10.058   8.536  0.0459  0.3833  0.6968
  430MOL0     O57945   4.615  10.146   8.577 -0.3087 -0.0340 -0.1781
  430MOL0     C57946   4.589  10.283   8.566 -0.6078  0.3427 -0.4288
  430MOL0     C57947   4.536  10.351   8.672  0.1257  0.0251 -0.1237
  430MOL0     C57948   4.507  10.484   8.671  0.5587 -0.3701  0.5592
  430MOL0     C57949   4.553  10.563   8.559  0.2228  0.5607  0.0775
  430MOL0     O57950   4.517  10.698   8.539 -0.5092 -0.9392 -0.4896
  430MOL0     C57951   4.550  10.785   8.650 -0.4643 -0.0985 -0.5462
  430MOL0     C57952   4.520  10.930   8.620  0.3371 -0.2412 -0.5016
  430MOL0     C57953   4.545  11.016   8.744  0.4329  0.1217 -0.8533
  430MOL0     C57954   4.533  11.161   8.698 -0.3755 -0.0986  0.6937
  430MOL0     C57955   4.539  11.259   8.816  0.4922  1.1923  0.5619
  430MOL0     C57956   4.544  11.397   8.755  0.4809 -1.8754  0.2890
  430MOL0     C57957   4.594  11.494   8.858 -0.0415  0.0130  0.1413
  430MOL0     C57958   4.739  11.496   8.898  0.3436  0.0527 -0.4627
  430MOL0    Cl57959   4.851  11.471   8.767  0.2762 -0.2886  0.2693
  430MOL0     C57960   4.604  10.498   8.449 -0.1499  1.2327  0.1968
  430MOL0     C57961   4.616  10.362   8.448 -0.1036  0.2344 -0.0551
  430MOL0     O57962   4.423  10.093   8.475  0.7833  0.9361 -0.2422
  430MOL0     C57963   4.607   9.858   8.642 -0.5671  0.0858 -0.1515
  430MOL0     C57964   4.617   9.727   8.654 -0.5363  0.1081 -0.1891
  430MOL0     N57965   4.913   9.091   8.311  0.8736 -0.7914  0.1561
  430MOL0     N57966   4.935   9.084   8.180  0.0859  0.3339  0.6608
  430MOL0     C57967   5.793   9.776   7.519 -0.4778 -0.0545 -0.5740
  430MOL0     C57968   5.924   9.826   7.518 -0.2758  0.5256  0.5574
  430MOL0     C57969   6.286  10.088   7.529  0.3372  0.2776  1.2999
  430MOL0     C57970   6.385  10.008   7.591 -0.7368 -0.0408  0.2775
  430MOL0     C57971   6.520  10.029   7.560  0.2138  0.5978 -0.1036
  430MOL0     C57972   6.555  10.130   7.470  0.3735  0.5971 -0.1598
  430MOL0     O57973   6.684  10.146   7.423  0.4393  0.1360  0.1694
  430MOL0     C57974   6.801  10.081   7.486  0.0996  0.3079 -0.0089
  430MOL0     C57975   6.925  10.138   7.440  0.2325 -0.3356 -0.2845
  430MOL0     C57976   6.944  10.282   7.494  0.4284  0.4895  0.1755
  430MOL0     C57977   7.079  10.322   7.532 -0.0257 -0.1392  0.3601
  430MOL0     C57978   7.122  10.262   7.659 -0.4173  0.7726 -0.3205
  430MOL0     C57979   7.137  10.179   7.749 -0.3167 -0.2508  0.7397
  430MOL0     C57980   6.457  10.216   7.420 -1.0381  0.0595 -0.2069
  430MOL0     C57981   6.324  10.201   7.446  0.0863 -0.2120 -0.1661
  430MOL0     C57982   6.239  10.294   7.372 -0.0687  0.6429  0.2494
  430MOL0     H57983   5.954   9.967   7.828 -3.4006  0.8852  1.8640
  430MOL0     H57984   5.737   9.938   7.824 -0.2421 -1.1575  0.2375
  430MOL0     H57985   5.477   9.860   7.779 -0.9966 -0.2970  0.4229
  430MOL0     H57986   5.478   9.909   7.616 -4.0810 -0.1054 -0.2781
  430MOL0     H57987   5.364   9.693   7.560 -1.7595 -0.9944  0.1983
  430MOL0     H57988   5.276   9.812   7.667  0.3218 -0.0065  0.5874
  430MOL0     H57989   5.370   9.673   7.871  0.2518 -0.9624  0.6146
  430MOL0     H57990   5.400   9.548   7.761 -1.4357 -0.5683  0.9150
  430MOL0     H57991   5.121   9.651   7.794  0.1297  0.6362  1.2194
  430MOL0     H57992   5.188   9.522   7.695 -3.5780  0.9106  0.6748
  430MOL0     H57993   5.267   9.394   7.887 -0.5710 -0.8097 -0.8360
  430MOL0     H57994   5.201   9.523   7.992 -0.4681  0.2785 -0.2953
  430MOL0     H57995   4.981   9.478   7.899 -0.0227 -0.6792 -3.0959
  430MOL0     H57996   5.036   9.345   7.800 -1.2331 -0.4129 -0.1778
  430MOL0     H57997   5.033   9.359   8.104  4.1258 -2.3992  0.9394
  430MOL0     H57998   5.111   9.232   8.009 -0.7092 -1.0296  1.6567
  430MOL0     H57999   4.819   9.306   7.955 -0.4194 -0.3036  0.8808
  430MOL0     H58000   4.910   9.153   7.925  1.2142  2.0596 -0.6393
  430MOL0     H58001   4.725   9.339   8.191  2.7291  4.0455  2.0348
  430MOL0     H58002   4.689   9.197   8.511 -0.5253 -0.0632 -1.7864
  430MOL0     H58003   4.863   9.215   8.553 -1.1566  1.7236  2.8504
  430MOL0     H58004   4.880   9.430   8.447 -1.8488  2.6252  0.6664
  430MOL0     H58005   4.713   9.431   8.424 -1.4405  1.8605  0.9027
  430MOL0     H58006   4.824   9.541   8.646  1.1594  0.5728 -2.2451
  430MOL0     H58007   4.839   9.373   8.699  1.6249  0.4250 -0.4224
  430MOL0     H58008   4.612   9.502   8.774 -0.4589  0.7450 -1.2078
  430MOL0     H58009   4.585   9.351   8.698 -0.5093 -0.3165 -2.1037
  430MOL0     H58010   4.433   9.623   8.399  1.2346 -1.6326  0.9353
  430MOL0     H58011   4.428   9.866   8.357  1.3284  0.9890 -0.2390
  430MOL0     H58012   4.516  10.283   8.754  2.9723 -0.5099  0.2395
  430MOL0     H58013   4.435  10.528   8.739 -2.0473 -0.4737 -1.9190
  430MOL0     H58014   4.492  10.758   8.738  1.5136 -0.2183  0.7658
  430MOL0     H58015   4.657  10.779   8.669 -0.2349  2.6086 -0.5625
  430MOL0     H58016   4.580  10.966   8.536  1.9233 -1.2572  0.1709
  430MOL0     H58017   4.412  10.932   8.602  0.0974  1.0247  0.8328
  430MOL0     H58018   4.468  10.988   8.817  0.6002 -2.6836 -1.5972
  430MOL0     H58019   4.648  11.000   8.775  0.0693  1.3657  1.2058
  430MOL0     H58020   4.442  11.180   8.639  1.9600  0.8407 -2.9658
  430MOL0     H58021   4.619  11.190   8.637 -0.2665 -1.0878  0.3606
  430MOL0     H58022   4.626  11.240   8.879 -0.5115 -0.8523  1.4161
  430MOL0     H58023   4.451  11.232   8.875 -1.4834  1.2451 -2.1870
  430MOL0     H58024   4.599  11.412   8.662  0.2428 -0.1267  0.3938
  430MOL0     H58025   4.446  11.432   8.724  0.5095  0.9866  2.9621
  430MOL0     H58026   4.535  11.471   8.947 -3.2896  1.1701 -1.5647
  430MOL0     H58027   4.584  11.598   8.827 -1.9155 -0.6025 -1.4511
  430MOL0     H58028   4.772  11.588   8.946  0.0545  0.0376 -0.2265
  430MOL0     H58029   4.746  11.411   8.967  1.0216  0.5168  0.0515
  430MOL0     H58030   4.629  10.569   8.370 -2.8286  1.8917 -0.1748
  430MOL0     H58031   4.666  10.321   8.361 -0.7502  0.8319 -0.7231
  430MOL0     H58032   4.652   9.923   8.716 -0.3428  0.8613 -0.9503
  430MOL0     H58033   4.688   9.692   8.728 -0.6112  0.4669  0.0628
  430MOL0     H58034   5.757   9.715   7.437 -0.2776  1.4907 -1.8526
  430MOL0     H58035   5.984   9.790   7.436 -0.7656  0.9863 -0.0120
  430MOL0     H58036   6.376   9.920   7.654  1.2625  1.3035  2.6337
  430MOL0     H58037   6.589   9.955   7.601 -1.8720  0.5378  3.7423
  430MOL0     H58038   6.803   9.976   7.455 -0.5280  0.2578  0.1080
  430MOL0     H58039   6.808  10.085   7.595  2.8276 -1.2804 -0.0399
  430MOL0     H58040   6.938  10.131   7.332  1.7346  3.1436 -0.4928
  430MOL0     H58041   7.008  10.083   7.485  0.7189  1.2977  0.9175
  430MOL0     H58042   6.872  10.293   7.575  1.4871  2.6308  0.9071
  430MOL0     H58043   6.918  10.354   7.416  3.0483  2.6835  1.1696
  430MOL0     H58044   7.145  10.291   7.450  0.7833  1.8696  0.2070
  430MOL0     H58045   7.083  10.431   7.542 -1.8907  0.0111 -0.1649
  430MOL0     H58046   7.134  10.105   7.827  0.9686 -2.8759 -1.5545
  430MOL0     H58047   6.494  10.306   7.370  1.3436 -1.5227 -1.4941
  430MOL0     H58048   6.186  10.356   7.445  2.5517  2.9542  0.3063
  430MOL0     H58049   6.298  10.363   7.312 -0.6200  1.6146  0.8021
  430MOL0     H58050   6.169  10.238   7.309 -1.9682  1.1741  1.7870
  431MOL0     O58051   9.584  10.775   6.975  0.0747  0.5362 -0.1002
  431MOL0     C58052   9.569  10.847   6.881 -1.0997  0.9255  0.3713
  431MOL0     O58053   9.564  10.981   6.885  0.1977  0.2713 -0.0582
  431MOL0     C58054   9.544  11.039   7.006 -0.6303  0.0862  0.0593
  431MOL0     C58055   9.411  11.016   7.061 -0.7242 -0.2761  0.7588
  431MOL0     C58056   9.402  11.053   7.199 -0.1691  0.3012 -0.7948
  431MOL0     C58057   9.498  11.120   7.267  0.4962  0.7051  0.4231
  431MOL0     O58058   9.475  11.161   7.399  0.8965  0.2914  0.2457
  431MOL0     C58059   9.547  11.275   7.449  0.9301 -0.7784  0.3455
  431MOL0     C58060   9.484  11.399   7.379 -0.7674  0.1262 -0.5304
  431MOL0     C58061   9.340  11.424   7.403  0.2425 -0.9349  0.0478
  431MOL0     C58062   9.303  11.473   7.542 -0.2848  0.1506  0.0288
  431MOL0     C58063   9.152  11.503   7.548 -1.0270  1.0154 -0.4036
  431MOL0     C58064   9.116  11.591   7.666  0.2862  0.0902  0.2667
  431MOL0     C58065   8.961  11.612   7.677 -0.3979  0.6614  0.0993
  431MOL0     C58066   8.924  11.753   7.730 -0.3972  0.0915  0.3387
  431MOL0     N58067   8.970  11.859   7.646  0.4513  0.1679 -0.3208
  431MOL0     C58068   9.077  11.930   7.666 -0.1819 -0.1514 -0.4894
  431MOL0     C58069   9.073  12.032   7.576  0.0741 -0.8806 -0.5178
  431MOL0     C58070   9.172  12.149   7.568  1.1864 -0.4424  0.0746
  431MOL0     C58071   9.264  12.120   7.446  0.1984 -0.7577 -0.6943
  431MOL0     C58072   9.372  12.244   7.440 -0.0543  0.1955  0.6827
  431MOL0     C58073   9.497  12.200   7.361  0.5832  0.0733 -0.2075
  431MOL0     O58074   9.579  12.316   7.338  0.0911 -0.9030 -0.4991
  431MOL0     C58075   9.656  12.310   7.233  0.2562  0.1831 -0.0238
  431MOL0     C58076   9.672  12.423   7.152  0.1739  0.3980 -0.9886
  431MOL0     C58077   9.752  12.413   7.038  0.5450 -0.3766 -0.6376
  431MOL0     C58078   9.797  12.292   6.986  0.6771  0.2271 -0.7322
  431MOL0     C58079   9.855  12.301   6.846  0.6479  1.0889 -0.2191
  431MOL0     O58080   9.839  12.411   6.770  0.2601 -0.1097  0.6645
  431MOL0     C58081   9.865  12.413   6.634  0.0068 -1.0261 -0.8797
  431MOL0     C58082   9.877  12.312   6.539  0.0446  0.3285 -0.5342
  431MOL0     C58083   9.917  12.337   6.406 -0.8473 -0.0037  0.4216
  431MOL0     C58084   9.935  12.470   6.355  0.4895  0.7349 -0.2999
  431MOL0     O58085   9.968  12.465   6.221 -0.2209  0.2007  0.8241
  431MOL0     C58086   9.973  12.597   6.156 -0.0147 -0.0986 -0.4820
  431MOL0     C58087   9.830  12.618   6.106  0.0062 -0.6133 -0.5475
  431MOL0     C58088   9.847  12.760   6.044  0.3161  0.1945  0.4955
  431MOL0     C58089   9.736  12.799   5.963  0.4888  0.1077 -0.3891
  431MOL0     C58090   9.764  12.923   5.885 -1.1710 -0.8295  0.6470
  431MOL0     C58091   9.727  13.044   5.978  0.4936 -0.4284 -0.5856
  431MOL0     C58092   9.721  13.172   5.893 -0.5232 -0.0106  0.0995
  431MOL0     C58093   9.756  13.299   5.979 -0.9601  0.8460  0.2427
  431MOL0    Cl58094   9.930  13.310   6.025  0.4811 -0.1073 -0.8912
  431MOL0     C58095   9.937  12.573   6.450 -0.1061  0.4135  0.6507
  431MOL0     C58096   9.890  12.540   6.579 -0.5073 -0.1130 -0.3384
  431MOL0     O58097   9.907  12.192   6.808 -0.7870 -0.0725 -0.0215
  431MOL0     C58098   9.795  12.189   7.072 -0.0372  0.3810 -0.2248
  431MOL0     C58099   9.727  12.199   7.190  0.4749  0.1670 -0.7386
  431MOL0     N58100   8.956  12.021   7.497  0.5735  1.0106 -0.3621
  431MOL0     N58101   8.891  11.913   7.545  0.4525  0.5678  0.2557
  431MOL0     C58102   9.621  11.141   7.203 -0.7267 -0.6590 -0.1410
  431MOL0     C58103   9.643  11.105   7.068  0.0635 -0.5180  1.1859
  431MOL0     C58104   9.582  10.793   6.744  0.4903  0.7558 -0.7866
  431MOL0     C58105   9.630  10.881   6.640 -0.7238 -0.1293 -0.1268
  431MOL0     C58106   9.638  10.842   6.508 -0.4263 -0.4306  0.0429
  431MOL0     C58107   9.611  10.715   6.472  0.1319  0.8046 -0.1194
  431MOL0     O58108   9.622  10.662   6.348 -0.1780  0.8055 -0.4090
  431MOL0     C58109   9.629  10.745   6.234  0.4976 -0.3108  0.1545
  431MOL0     C58110   9.620  10.656   6.109 -0.2163  0.5804 -0.5721
  431MOL0     C58111   9.740  10.557   6.088  0.3458  0.2312  0.1010
  431MOL0     C58112   9.830  10.580   5.969  0.4241  0.2355 -0.7867
  431MOL0     C58113   9.909  10.700   5.994  1.2399  0.6971  0.1434
  431MOL0     C58114   9.967  10.803   6.019  0.3865  1.2167  0.0048
  431MOL0     C58115   9.576  10.619   6.568 -0.7545  0.1653  0.1204
  431MOL0     C58116   9.559  10.658   6.703  0.7892 -0.0829  0.8636
  431MOL0     C58117   9.523  10.549   6.801  0.5542 -0.2855 -0.4382
  431MOL0     H58118   9.334  10.961   7.009  0.1507  0.7216 -1.7461
  431MOL0     H58119   9.306  11.035   7.245  0.2344  1.7107  0.6570
  431MOL0     H58120   9.541  11.268   7.558  0.0163 -2.0631  0.2375
  431MOL0     H58121   9.654  11.264   7.428  1.4620  1.4157  1.6104
  431MOL0     H58122   9.497  11.400   7.270  1.6845  1.3064 -0.2973
  431MOL0     H58123   9.546  11.487   7.401  1.2675 -0.8020 -2.1981
  431MOL0     H58124   9.289  11.328   7.385  1.2501 -1.2359 -1.3677
  431MOL0     H58125   9.294  11.494   7.333  0.5373  0.4174  1.1777
  431MOL0     H58126   9.333  11.401   7.619 -1.1185 -3.3233 -2.6413
  431MOL0     H58127   9.354  11.567   7.566  1.3221 -1.2289  2.4930
  431MOL0     H58128   9.118  11.555   7.457 -4.8255 -1.0214 -0.3382
  431MOL0     H58129   9.103  11.407   7.564  2.7738 -1.4196 -1.8911
  431MOL0     H58130   9.145  11.538   7.757 -0.5728  1.1010  1.1535
  431MOL0     H58131   9.167  11.687   7.653  0.3318  0.0572  0.1992
  431MOL0     H58132   8.928  11.537   7.749  3.0876  1.7908  3.2124
  431MOL0     H58133   8.902  11.592   7.587  0.1013 -0.3753 -0.0149
  431MOL0     H58134   8.815  11.760   7.721 -0.2977  0.5925 -0.6791
  431MOL0     H58135   8.960  11.771   7.831  1.3971 -1.0424 -0.0530
  431MOL0     H58136   9.151  11.913   7.743 -1.4310 -1.9038  0.4036
  431MOL0     H58137   9.118  12.242   7.552 -0.2752 -0.7602  2.5193
  431MOL0     H58138   9.223  12.166   7.664  0.5306  2.7113 -0.0208
  431MOL0     H58139   9.313  12.026   7.477 -0.2194  0.0570  2.8951
  431MOL0     H58140   9.212  12.105   7.351 -0.0002  0.2366 -0.7468
  431MOL0     H58141   9.408  12.267   7.541  1.0722 -1.0195  0.5772
  431MOL0     H58142   9.315  12.323   7.391  0.0251  1.4219  2.4633
  431MOL0     H58143   9.464  12.176   7.260 -0.0361 -1.4694  0.3308
  431MOL0     H58144   9.545  12.114   7.408  0.1327 -0.6190 -1.0031
  431MOL0     H58145   9.626  12.518   7.178  0.7715 -0.1267  2.4409
  431MOL0     H58146   9.773  12.507   6.988 -1.4479  0.2253 -0.4392
  431MOL0     H58147   9.862  12.208   6.569  0.7449  0.2802 -0.3306
  431MOL0     H58148   9.918  12.254   6.335 -0.0419  0.1380  0.2575
  431MOL0     H58149  10.006  12.676   6.224  1.2854 -1.0618  0.0576
  431MOL0     H58150  10.047  12.596   6.076  2.1453 -2.5861  1.3465
  431MOL0     H58151   9.823  12.539   6.031  1.9569 -0.4075 -0.9912
  431MOL0     H58152   9.750  12.615   6.180  0.7694 -1.4018  0.2678
  431MOL0     H58153   9.844  12.831   6.127 -1.8209  0.3666  0.3206
  431MOL0     H58154   9.943  12.770   5.991  0.1797 -1.4358 -0.1222
  431MOL0     H58155   9.653  12.819   6.031  1.3072 -1.8930  1.2960
  431MOL0     H58156   9.714  12.722   5.889  1.3641  1.9673 -2.7269
  431MOL0     H58157   9.698  12.921   5.798  0.0567 -2.7580 -0.2914
  431MOL0     H58158   9.861  12.916   5.836 -2.4848 -0.6862 -2.1434
  431MOL0     H58159   9.628  13.029   6.022  1.6055 -0.2912  2.1276
  431MOL0     H58160   9.797  13.045   6.062 -0.0899 -0.3134 -0.1036
  431MOL0     H58161   9.631  13.184   5.832  0.3748  0.9587 -1.0828
  431MOL0     H58162   9.795  13.160   5.813  0.3242  0.7112  0.7571
  431MOL0     H58163   9.738  13.391   5.923  0.4483  2.2124  1.9099
  431MOL0     H58164   9.693  13.306   6.069 -1.2817 -2.2751  0.3564
  431MOL0     H58165   9.966  12.671   6.415  3.0719 -0.9800 -1.1075
  431MOL0     H58166   9.878  12.616   6.655 -2.5659 -1.9152  1.2768
  431MOL0     H58167   9.839  12.096   7.039 -0.7480 -0.0365 -0.0132
  431MOL0     H58168   9.718  12.107   7.247  0.4366  0.2668 -0.5845
  431MOL0     H58169   9.710  11.191   7.239 -1.3957  0.6345 -0.2225
  431MOL0     H58170   9.739  11.110   7.016  0.2265 -0.4631  1.4922
  431MOL0     H58171   9.654  10.984   6.665  2.7797 -1.2974  2.0738
  431MOL0     H58172   9.666  10.918   6.436 -5.6173  0.1506 -1.8078
  431MOL0     H58173   9.724  10.800   6.228  1.2928 -1.7690 -1.4472
  431MOL0     H58174   9.547  10.818   6.229  0.1051 -0.7986 -4.2707
  431MOL0     H58175   9.601  10.726   6.027 -1.4524  3.1402  1.7286
  431MOL0     H58176   9.530  10.595   6.110 -0.0913  0.3741  1.2137
  431MOL0     H58177   9.704  10.454   6.085  4.7400 -1.5405  0.4026
  431MOL0     H58178   9.801  10.561   6.178 -0.2208 -0.9117  0.5502
  431MOL0     H58179   9.893  10.491   5.968 -3.6735 -2.9657 -0.0677
  431MOL0     H58180   9.764  10.594   5.883 -1.4945 -3.0214  0.0021
  431MOL0     H58181  10.033  10.881   6.051  2.6870  0.0567 -1.7127
  431MOL0     H58182   9.554  10.521   6.525  1.1967 -0.1048 -0.3457
  431MOL0     H58183   9.419  10.542   6.835  0.4365 -0.8312 -0.8918
  431MOL0     H58184   9.548  10.455   6.751 -2.2854 -0.4599 -1.7381
  431MOL0     H58185   9.591  10.551   6.886  0.1656 -0.2670 -0.1238
  432MOL0     O58186   6.996   0.618   5.234  0.0056  0.2722  0.6112
  432MOL0     C58187   6.983   0.507   5.277 -0.5109 -0.2584 -0.4141
  432MOL0     O58188   7.047   0.396   5.224  0.0627  0.6864 -0.4254
  432MOL0     C58189   7.128   0.382   5.125  0.3589  0.3487  0.8021
  432MOL0     C58190   7.218   0.272   5.122 -0.5113  0.3547  0.8922
  432MOL0     C58191   7.304   0.247   5.019  0.4093  0.1550  0.8262
  432MOL0     C58192   7.325   0.347   4.924  0.0207  0.0841 -0.5299
  432MOL0     O58193   7.426   0.345   4.824 -0.2920  0.0998 -0.3994
  432MOL0     C58194   7.478   0.229   4.775  0.3947 -0.0726  0.7044
  432MOL0     C58195   7.581   0.255   4.669 -0.4330 -0.8041 -0.0616
  432MOL0     C58196   7.619   0.140   4.579  0.1488 -0.5143 -0.4054
  432MOL0     C58197   7.756   0.173   4.519 -0.8143 -0.0038 -0.7062
  432MOL0     C58198   7.816   0.059   4.443  0.9731 -0.3238 -1.0084
  432MOL0     C58199   7.965   0.073   4.424  1.5366 -0.0068  0.0975
  432MOL0     C58200   8.001   0.142   4.298  0.1857 -0.7456  0.3054
  432MOL0     C58201   8.113   0.240   4.301  0.1612  0.6922 -1.0286
  432MOL0     N58202   8.237   0.164   4.346  0.1946 -0.0496 -0.7310
  432MOL0     C58203   8.318   0.095   4.263 -0.5848 -0.7971 -0.6148
  432MOL0     C58204   8.432   0.073   4.335 -0.3171 -0.0236 -0.7615
  432MOL0     C58205   8.550  -0.006   4.281 -0.1958 -0.1892 -0.2544
  432MOL0     C58206   8.627   0.066   4.175 -0.1228 -0.9842  0.8100
  432MOL0     C58207   8.736  -0.017   4.120 -0.5364 -0.3700  0.1964
  432MOL0     C58208   8.802   0.044   3.995  0.7677 -0.1154 -0.1846
  432MOL0     O58209   8.704   0.047   3.886 -0.6469  0.7969  0.0173
  432MOL0     C58210   8.728   0.106   3.768 -0.3230 -0.2405 -1.4145
  432MOL0     C58211   8.840   0.188   3.734 -1.0177 -0.4818 -0.0458
  432MOL0     C58212   8.841   0.251   3.617  0.2204 -0.3016  0.1617
  432MOL0     C58213   8.728   0.242   3.532 -0.9478 -0.7888  0.9434
  432MOL0     C58214   8.720   0.320   3.412  0.9847 -0.0181  0.0143
  432MOL0     O58215   8.617   0.290   3.329  0.2282  0.4811 -0.0618
  432MOL0     C58216   8.609   0.347   3.206  0.0396 -0.5382 -0.2528
  432MOL0     C58217   8.598   0.487   3.183 -0.1027  0.0075 -0.7546
  432MOL0     C58218   8.562   0.538   3.061 -0.7295  0.2384  0.8296
  432MOL0     C58219   8.533   0.453   2.955 -0.1997 -0.3716  0.0021
  432MOL0     O58220   8.492   0.505   2.832  0.4041  0.3764  0.1934
  432MOL0     C58221   8.567   0.618   2.786  0.5750 -0.2588 -1.2108
  432MOL0     C58222   8.590   0.609   2.648  0.1742 -0.1573  0.8126
  432MOL0     C58223   8.479   0.682   2.573 -0.5713  0.3136 -0.2958
  432MOL0     C58224   8.505   0.837   2.563  0.2514  0.9974  0.8188
  432MOL0     C58225   8.408   0.908   2.465  0.5431 -0.6567 -0.0116
  432MOL0     C58226   8.458   1.051   2.444  0.2300 -0.3579 -0.0885
  432MOL0     C58227   8.459   1.150   2.569  0.4696 -0.0799  0.5334
  432MOL0     C58228   8.485   1.292   2.525 -0.6690 -0.0444  0.3837
  432MOL0    Cl58229   8.454   1.409   2.653  0.0582  0.3630  0.1123
  432MOL0     C58230   8.543   0.315   2.974  0.4964  0.4332 -0.1316
  432MOL0     C58231   8.573   0.266   3.099 -0.5858  0.1393  0.3006
  432MOL0     O58232   8.806   0.411   3.390  0.0810 -0.0053  0.0058
  432MOL0     C58233   8.617   0.160   3.573  0.4436 -0.2117  0.4360
  432MOL0     C58234   8.615   0.092   3.683 -1.0773  0.5968 -0.7426
  432MOL0     N58235   8.427   0.139   4.456  0.6952  0.1066  0.5293
  432MOL0     N58236   8.301   0.181   4.466 -0.2867 -0.7508  0.1461
  432MOL0     C58237   7.243   0.464   4.924 -0.4851 -0.4363 -0.2716
  432MOL0     C58238   7.143   0.475   5.026 -0.8822 -0.7688  1.0511
  432MOL0     C58239   6.912   0.498   5.398  0.8390  0.1182  0.3384
  432MOL0     C58240   6.894   0.606   5.484  0.6719  0.3454  0.2352
  432MOL0     C58241   6.840   0.597   5.614  0.9479 -0.0680 -0.5578
  432MOL0     C58242   6.779   0.477   5.658 -0.9075 -0.3896 -0.8487
  432MOL0     O58243   6.722   0.452   5.782 -0.1552 -0.1096  0.5673
  432MOL0     C58244   6.696   0.549   5.878  0.3228 -0.4687  0.2138
  432MOL0     C58245   6.564   0.526   5.948 -0.5164  0.3350 -0.0627
  432MOL0     C58246   6.561   0.400   6.038  0.5083 -0.0082 -0.3057
  432MOL0     C58247   6.498   0.450   6.179 -0.0091 -0.5554 -0.2223
  432MOL0     C58248   6.363   0.505   6.173  0.0464 -0.4788 -0.9841
  432MOL0     C58249   6.250   0.547   6.165  0.6131  0.0597 -0.5910
  432MOL0     C58250   6.802   0.363   5.580 -0.3709 -1.4055 -0.2638
  432MOL0     C58251   6.869   0.373   5.456 -0.7149  0.0057  1.2634
  432MOL0     C58252   6.893   0.243   5.386 -0.0555 -0.8638 -0.0754
  432MOL0     H58253   7.182   0.206   5.200 -0.3687  1.6862  2.1173
  432MOL0     H58254   7.351   0.150   5.026 -3.1296 -2.0365 -2.0257
  432MOL0     H58255   7.513   0.168   4.859 -0.1926 -1.3515  0.0435
  432MOL0     H58256   7.400   0.170   4.725 -0.0005  0.6792  0.4128
  432MOL0     H58257   7.668   0.313   4.702 -1.2571 -1.2000  3.1432
  432MOL0     H58258   7.538   0.323   4.594 -0.1443  0.5677  0.9812
  432MOL0     H58259   7.556   0.131   4.489  0.9974  0.9045 -1.1751
  432MOL0     H58260   7.609   0.046   4.634 -0.5409  0.9720  2.1460
  432MOL0     H58261   7.728   0.253   4.450 -0.7800  1.4011  0.8353
  432MOL0     H58262   7.826   0.216   4.592 -2.8177 -1.3588  2.2022
  432MOL0     H58263   7.804  -0.022   4.516  1.2478  2.7244  2.7090
  432MOL0     H58264   7.766   0.029   4.351  1.3415 -0.5773 -1.1271
  432MOL0     H58265   8.021   0.115   4.508 -2.0963  1.1941  2.1660
  432MOL0     H58266   8.002  -0.030   4.417  2.7624  0.4104  0.1244
  432MOL0     H58267   7.915   0.206   4.275  0.7311 -0.6529 -1.6101
  432MOL0     H58268   8.019   0.069   4.219  2.3109 -0.9409  0.9000
  432MOL0     H58269   8.134   0.288   4.204  3.4895 -1.6673 -1.6731
  432MOL0     H58270   8.069   0.311   4.370  1.3880 -0.0868  0.6173
  432MOL0     H58271   8.301   0.054   4.163 -0.5866  0.0167 -0.9565
  432MOL0     H58272   8.627  -0.021   4.358 -0.0129  2.4108  0.1583
  432MOL0     H58273   8.520  -0.103   4.241 -1.5001 -0.0314  0.2829
  432MOL0     H58274   8.556   0.099   4.099 -1.1506 -1.5794  1.5006
  432MOL0     H58275   8.669   0.151   4.231  0.7511 -0.5464 -0.4538
  432MOL0     H58276   8.687  -0.111   4.093 -2.5819 -0.3342  3.1753
  432MOL0     H58277   8.809  -0.031   4.200  1.4799  2.5126 -0.9805
  432MOL0     H58278   8.885  -0.020   3.965  0.8939  0.1013 -0.2979
  432MOL0     H58279   8.834   0.148   3.999 -3.1718  1.3760 -1.8699
  432MOL0     H58280   8.938   0.196   3.781 -1.0048  2.2764 -0.4034
  432MOL0     H58281   8.925   0.306   3.577  1.2798 -1.3279  0.9321
  432MOL0     H58282   8.627   0.555   3.263  1.2282 -1.1503 -0.1903
  432MOL0     H58283   8.540   0.644   3.060 -2.3129  0.0384 -3.1380
  432MOL0     H58284   8.523   0.715   2.813  2.4896 -0.1582  2.2107
  432MOL0     H58285   8.664   0.618   2.836 -1.8940 -0.7540  4.4704
  432MOL0     H58286   8.678   0.665   2.615  0.1759  0.5403  1.9505
  432MOL0     H58287   8.596   0.505   2.616  0.4293  0.0729  0.1010
  432MOL0     H58288   8.477   0.633   2.476  1.9945 -2.1568  0.7685
  432MOL0     H58289   8.382   0.675   2.624  0.7851 -0.5604  2.3484
  432MOL0     H58290   8.603   0.857   2.520  1.5865 -2.7579  1.7953
  432MOL0     H58291   8.503   0.884   2.662  2.0622  2.4921  0.1928
  432MOL0     H58292   8.306   0.905   2.506 -0.8665  1.4734 -2.9940
  432MOL0     H58293   8.405   0.843   2.377 -2.4003 -2.2807  1.1314
  432MOL0     H58294   8.552   1.042   2.390 -0.5666 -1.7098 -1.3433
  432MOL0     H58295   8.389   1.089   2.367  1.6985 -0.3400 -1.4466
  432MOL0     H58296   8.525   1.120   2.652 -0.1718 -3.2219  0.0562
  432MOL0     H58297   8.356   1.156   2.604  0.5431  1.2674  0.5423
  432MOL0     H58298   8.590   1.310   2.501 -1.0599  2.9944  0.5167
  432MOL0     H58299   8.412   1.303   2.444 -0.7417 -5.9468 -0.8202
  432MOL0     H58300   8.510   0.241   2.902 -2.7602 -0.0458  1.6290
  432MOL0     H58301   8.577   0.161   3.126  0.6552  0.4540  1.4213
  432MOL0     H58302   8.538   0.127   3.507  0.7853  0.4725 -0.3279
  432MOL0     H58303   8.532   0.027   3.711 -0.1847 -0.5195 -0.6072
  432MOL0     H58304   7.266   0.546   4.857 -0.8103 -0.0540  0.0815
  432MOL0     H58305   7.087   0.567   5.023  0.4508  0.1317  2.3204
  432MOL0     H58306   6.917   0.707   5.452  2.7476 -0.5801 -1.4952
  432MOL0     H58307   6.852   0.682   5.680  0.7135  0.4397 -1.1642
  432MOL0     H58308   6.698   0.649   5.834  4.5032  0.3996  1.8989
  432MOL0     H58309   6.774   0.559   5.954 -0.1014 -1.5728  0.8091
  432MOL0     H58310   6.482   0.527   5.876  0.4547  2.1359 -1.2375
  432MOL0     H58311   6.554   0.618   6.006 -0.9976 -0.0672  0.5056
  432MOL0     H58312   6.657   0.348   6.048  1.7651  1.8328 -2.0963
  432MOL0     H58313   6.494   0.324   5.997  0.8467  0.0193 -0.9198
  432MOL0     H58314   6.482   0.373   6.254  2.4160 -0.2250  0.7299
  432MOL0     H58315   6.568   0.521   6.226 -0.4143  0.7592 -1.5193
  432MOL0     H58316   6.149   0.570   6.138 -0.5270 -3.0790  0.4762
  432MOL0     H58317   6.760   0.266   5.604  0.7318 -1.7866  0.1762
  432MOL0     H58318   6.999   0.215   5.381  0.5164  1.2357 -0.6426
  432MOL0     H58319   6.857   0.164   5.452  1.9361 -1.4267  0.4205
  432MOL0     H58320   6.847   0.240   5.287  0.8356 -1.0904 -0.4920
  433MOL0     O58321   6.118   8.557   6.633  0.1955  0.3900  0.0293
  433MOL0     C58322   6.147   8.654   6.569  0.1624 -0.1725  0.9956
  433MOL0     O58323   6.082   8.700   6.450  0.8206  0.0058  0.7211
  433MOL0     C58324   5.951   8.657   6.426 -0.0956 -0.2953  0.3453
  433MOL0     C58325   5.850   8.756   6.413 -0.1083 -0.2756 -0.9306
  433MOL0     C58326   5.716   8.716   6.406  0.4441 -0.1796  0.2751
  433MOL0     C58327   5.675   8.583   6.414 -0.5260 -1.0495  0.0287
  433MOL0     O58328   5.531   8.547   6.404  0.1481 -0.1830 -0.8663
  433MOL0     C58329   5.501   8.414   6.446 -0.2265 -0.1893 -0.4383
  433MOL0     C58330   5.347   8.402   6.430 -0.5284 -0.1155 -0.5500
  433MOL0     C58331   5.269   8.469   6.540 -0.4500 -0.7009  0.2096
  433MOL0     C58332   5.252   8.621   6.554  0.5450 -0.4281  0.6370
  433MOL0     C58333   5.132   8.679   6.629 -0.1589  0.8502 -0.3056
  433MOL0     C58334   4.989   8.634   6.583  0.3153  0.7187 -0.2386
  433MOL0     C58335   4.954   8.698   6.445 -0.5449 -0.6384 -0.2701
  433MOL0     C58336   4.804   8.705   6.429 -1.0857 -0.2590 -0.1388
  433MOL0     N58337   4.751   8.836   6.471  0.6173  0.7277 -0.3018
  433MOL0     C58338   4.693   8.883   6.585 -0.5389  1.0948 -0.3735
  433MOL0     C58339   4.648   9.002   6.548  0.3280 -1.0244  0.6590
  433MOL0     C58340   4.572   9.090   6.632 -0.2909 -0.3376 -0.3808
  433MOL0     C58341   4.422   9.030   6.661 -0.8159 -0.7780  0.0611
  433MOL0     C58342   4.336   9.135   6.722  0.0352 -0.5713  0.5578
  433MOL0     C58343   4.374   9.140   6.870  0.1063 -0.2833 -0.6139
  433MOL0     O58344   4.318   9.257   6.931  0.2203 -0.5275  0.3048
  433MOL0     C58345   4.393   9.371   6.949  0.4027 -0.2645 -0.7137
  433MOL0     C58346   4.362   9.455   7.050 -0.1452 -0.7307 -0.0493
  433MOL0     C58347   4.420   9.579   7.060  0.5780 -0.5606  0.4191
  433MOL0     C58348   4.519   9.621   6.966  0.3052  0.8672  0.3433
  433MOL0     C58349   4.590   9.748   6.976  0.4552  0.2685  0.0720
  433MOL0     O58350   4.546   9.837   7.064  1.4813 -0.7398  0.4272
  433MOL0     C58351   4.580   9.970   7.070  0.0700 -0.0073  0.1509
  433MOL0     C58352   4.571  10.039   7.192 -0.5713  0.2883  0.8596
  433MOL0     C58353   4.619  10.170   7.195 -0.1789  0.9568 -0.9580
  433MOL0     C58354   4.648  10.242   7.083 -0.0870  0.3540 -0.9593
  433MOL0     O58355   4.702  10.365   7.093  0.0543  0.5688 -0.3604
  433MOL0     C58356   4.640  10.471   7.169  0.6519  0.5978 -0.1880
  433MOL0     C58357   4.752  10.564   7.176 -0.6540  0.2636  0.3115
  433MOL0     C58358   4.699  10.693   7.256  0.5670 -0.3733  0.1980
  433MOL0     C58359   4.813  10.795   7.269  0.3548  0.3628  0.0394
  433MOL0     C58360   4.923  10.745   7.357  0.4399  0.1857 -0.3884
  433MOL0     C58361   5.062  10.808   7.339 -0.7012 -0.3222 -0.4796
  433MOL0     C58362   5.069  10.959   7.328  1.0039  0.4655 -0.3346
  433MOL0     C58363   5.216  11.010   7.321 -1.3720 -0.4635 -0.2398
  433MOL0    Cl58364   5.315  10.982   7.460 -0.1092 -0.2972 -0.3053
  433MOL0     C58365   4.659  10.175   6.959  0.1740  0.0460  0.7953
  433MOL0     C58366   4.627  10.038   6.959  0.1647  0.3384 -0.1334
  433MOL0     O58367   4.689   9.766   6.906 -0.4562  0.5785 -0.3785
  433MOL0     C58368   4.552   9.527   6.861 -0.5822 -0.1569  0.0149
  433MOL0     C58369   4.493   9.403   6.858 -0.5482 -0.2553 -0.7123
  433MOL0     N58370   4.673   9.037   6.420  0.4040  1.1666 -0.0097
  433MOL0     N58371   4.740   8.936   6.376  0.4929  0.4105  0.5150
  433MOL0     C58372   5.780   8.487   6.438 -0.0779  0.6170  0.5275
  433MOL0     C58373   5.918   8.520   6.438 -0.2022 -0.6158 -0.3360
  433MOL0     C58374   6.264   8.731   6.616  0.2824  0.1097 -0.8425
  433MOL0     C58375   6.367   8.679   6.691  0.9818  0.4111  0.1501
  433MOL0     C58376   6.478   8.756   6.738 -0.3212  0.0421 -0.2023
  433MOL0     C58377   6.488   8.898   6.714 -1.1893  0.8764 -0.2498
  433MOL0     O58378   6.595   8.990   6.734  0.6823  0.3182  0.0275
  433MOL0     C58379   6.713   8.943   6.804  0.5193 -0.7155  0.2246
  433MOL0     C58380   6.812   9.057   6.831  0.2699 -0.3940  0.0304
  433MOL0     C58381   6.767   9.184   6.904  0.7960 -0.7960 -0.1706
  433MOL0     C58382   6.838   9.311   6.869  0.2434 -0.0548 -0.8289
  433MOL0     C58383   6.794   9.410   6.961  0.6932 -0.3477 -0.0415
  433MOL0     C58384   6.752   9.506   7.025 -0.0785  0.1634 -0.5440
  433MOL0     C58385   6.379   8.946   6.640  0.2713  0.5893 -0.0655
  433MOL0     C58386   6.267   8.870   6.598 -0.8546  0.2323  0.7071
  433MOL0     C58387   6.151   8.952   6.533 -0.3098  0.6280 -1.2982
  433MOL0     H58388   5.885   8.858   6.420  0.7485 -0.6859  2.0878
  433MOL0     H58389   5.639   8.791   6.415 -0.2093 -0.7197 -0.6182
  433MOL0     H58390   5.542   8.332   6.386  3.7306  1.4138 -0.2343
  433MOL0     H58391   5.532   8.390   6.548  0.6091 -1.9882 -1.0779
  433MOL0     H58392   5.320   8.297   6.440  1.7817 -0.7881 -0.8215
  433MOL0     H58393   5.318   8.428   6.328  2.5789  0.4710 -1.4075
  433MOL0     H58394   5.309   8.445   6.639 -1.2982  0.3181  0.8326
  433MOL0     H58395   5.169   8.426   6.528  0.9491 -3.7078 -2.0551
  433MOL0     H58396   5.347   8.655   6.596 -0.3440 -0.0750  2.4583
  433MOL0     H58397   5.242   8.654   6.450 -2.1808  0.4775  1.1000
  433MOL0     H58398   5.131   8.657   6.737 -2.7043 -0.2907 -0.5019
  433MOL0     H58399   5.138   8.788   6.619 -3.5314  1.1926  0.0889
  433MOL0     H58400   4.991   8.525   6.575  2.5279  0.6373  0.7958
  433MOL0     H58401   4.908   8.660   6.651 -0.2040  0.6796 -0.8278
  433MOL0     H58402   4.996   8.635   6.365 -0.3043 -1.1928  0.2858
  433MOL0     H58403   4.987   8.802   6.436 -3.3436  0.2960 -0.6738
  433MOL0     H58404   4.787   8.677   6.325 -0.5423  0.0531 -0.3159
  433MOL0     H58405   4.756   8.628   6.490 -0.7407  0.1712  0.6964
  433MOL0     H58406   4.672   8.829   6.676 -0.0708  1.0536 -0.2840
  433MOL0     H58407   4.623   9.098   6.728  0.4422 -1.4859 -0.6645
  433MOL0     H58408   4.571   9.190   6.587  1.7944 -1.0115 -2.0668
  433MOL0     H58409   4.388   8.992   6.565  2.1465 -2.5075 -0.4391
  433MOL0     H58410   4.430   8.942   6.725 -2.6091 -0.9025  0.1585
  433MOL0     H58411   4.235   9.097   6.708  0.8295 -2.9523  0.8548
  433MOL0     H58412   4.351   9.230   6.669 -0.0476 -1.0642 -0.3598
  433MOL0     H58413   4.483   9.137   6.884  0.1067 -1.1667 -0.7153
  433MOL0     H58414   4.321   9.067   6.931  1.3542 -1.6000 -1.0400
  433MOL0     H58415   4.281   9.434   7.119 -1.4912  1.6033 -0.7961
  433MOL0     H58416   4.411   9.631   7.155  1.1551  0.7446 -0.2191
  433MOL0     H58417   4.534   9.986   7.279  0.9860 -1.7097  0.3772
  433MOL0     H58418   4.597  10.215   7.292  0.4122  1.6351 -1.1375
  433MOL0     H58419   4.553  10.509   7.116 -1.3366 -2.2724  0.7316
  433MOL0     H58420   4.610  10.436   7.269  1.1306 -0.1719 -0.3018
  433MOL0     H58421   4.835  10.508   7.222 -1.2091 -0.5533  0.3443
  433MOL0     H58422   4.799  10.598   7.083 -0.6199  0.9230  0.5679
  433MOL0     H58423   4.622  10.748   7.200  0.5196 -1.4212 -0.7788
  433MOL0     H58424   4.648  10.667   7.350 -1.1510 -1.7175 -1.0541
  433MOL0     H58425   4.764  10.880   7.316  0.3273 -0.3495  1.3256
  433MOL0     H58426   4.847  10.823   7.168  3.3345  1.0760  1.1402
  433MOL0     H58427   4.928  10.637   7.344 -1.3499  0.0755 -0.3531
  433MOL0     H58428   4.887  10.765   7.459 -0.9598  3.7114 -1.4099
  433MOL0     H58429   5.131  10.776   7.418  0.1976 -0.7243 -1.4043
  433MOL0     H58430   5.102  10.772   7.244 -0.3747  0.7283 -0.7510
  433MOL0     H58431   5.015  11.004   7.412  0.6737  2.1756 -1.4229
  433MOL0     H58432   5.029  10.998   7.234  3.6724  0.4640 -1.5583
  433MOL0     H58433   5.274  10.971   7.237  1.2175 -0.0730  1.2616
  433MOL0     H58434   5.201  11.118   7.310 -0.7727 -0.3477  0.0511
  433MOL0     H58435   4.692  10.232   6.873  0.9864  0.9297  1.6693
  433MOL0     H58436   4.635   9.991   6.862 -0.3551 -3.4674  1.5086
  433MOL0     H58437   4.614   9.557   6.777  1.3097 -0.5864  1.1903
  433MOL0     H58438   4.536   9.327   6.792  3.1300  1.7005 -0.7944
  433MOL0     H58439   5.764   8.383   6.463  1.6962  0.6346  1.9552
  433MOL0     H58440   5.990   8.444   6.467 -0.1908  0.3528  2.5154
  433MOL0     H58441   6.363   8.574   6.721  0.2040  0.5483  0.5650
  433MOL0     H58442   6.560   8.717   6.797 -0.3466  2.3588  1.5445
  433MOL0     H58443   6.767   8.868   6.745 -0.3412 -0.4112 -1.0077
  433MOL0     H58444   6.686   8.907   6.903 -2.8988  1.6710  0.3336
  433MOL0     H58445   6.861   9.087   6.737  0.4048  1.0494  0.5314
  433MOL0     H58446   6.898   9.013   6.882  2.3022  2.0905 -0.9926
  433MOL0     H58447   6.789   9.154   7.007  1.9745  1.3734  0.2581
  433MOL0     H58448   6.658   9.189   6.889  0.9226  0.4127 -0.7846
  433MOL0     H58449   6.946   9.296   6.875  0.4826  1.8062  0.3643
  433MOL0     H58450   6.836   9.347   6.766  5.3333  4.3114  0.1298
  433MOL0     H58451   6.722   9.583   7.094  2.0463  0.5143  0.0437
  433MOL0     H58452   6.376   9.050   6.611 -0.9380  0.6689  0.2716
  433MOL0     H58453   6.058   8.914   6.576 -0.2056  2.0925  0.3440
  433MOL0     H58454   6.157   9.060   6.552 -0.7873  0.9149 -2.6406
  433MOL0     H58455   6.142   8.939   6.425  2.4818  0.4418 -1.5733
  434MOL0     O58456   4.129   2.748   6.279 -0.5583 -0.1820 -0.4990
  434MOL0     C58457   4.209   2.660   6.302  1.0670 -0.0312 -0.2028
  434MOL0     O58458   4.304   2.607   6.223  0.5236 -0.6759 -0.6356
  434MOL0     C58459   4.311   2.625   6.090 -0.0237  1.1406  0.4133
  434MOL0     C58460   4.439   2.639   6.050  0.5103 -0.4679  0.7150
  434MOL0     C58461   4.466   2.678   5.921 -0.3925 -0.9447  0.5458
  434MOL0     C58462   4.359   2.711   5.836  0.5699  0.1332 -0.2392
  434MOL0     O58463   4.387   2.769   5.717  0.3329  0.2749 -0.0307
  434MOL0     C58464   4.420   2.907   5.719 -0.1883  0.3619 -0.4763
  434MOL0     C58465   4.469   2.979   5.594  0.5938 -0.1111  0.0331
  434MOL0     C58466   4.474   3.136   5.621 -0.2923  0.7446  0.8267
  434MOL0     C58467   4.557   3.213   5.521  0.3880  0.9220 -0.8141
  434MOL0     C58468   4.506   3.197   5.370  0.2507  0.3033  0.0024
  434MOL0     C58469   4.585   3.286   5.280 -0.2405 -0.9082  0.5199
  434MOL0     C58470   4.589   3.214   5.136  0.0444  0.5883 -0.3432
  434MOL0     C58471   4.468   3.246   5.052 -1.0101  0.1039  0.2980
  434MOL0     N58472   4.503   3.314   4.929  0.2497 -0.4698 -0.0515
  434MOL0     C58473   4.597   3.270   4.836 -0.2673 -0.0803  0.7545
  434MOL0     C58474   4.578   3.334   4.722  0.5828 -0.2129  0.9286
  434MOL0     C58475   4.639   3.339   4.591  0.1103  0.7220  0.2835
  434MOL0     C58476   4.623   3.195   4.535  0.2617 -0.7807 -0.3253
  434MOL0     C58477   4.700   3.166   4.406 -0.3177  0.4011 -0.7717
  434MOL0     C58478   4.854   3.205   4.413 -0.2448  0.6797  0.0125
  434MOL0     O58479   4.914   3.161   4.288  0.4960 -0.6882  0.1859
  434MOL0     C58480   5.039   3.101   4.284  0.4505 -1.7520  0.1232
  434MOL0     C58481   5.128   3.092   4.387  0.2431 -1.2432  0.1813
  434MOL0     C58482   5.244   3.029   4.371  0.1378  0.4244 -0.4725
  434MOL0     C58483   5.289   2.978   4.242 -0.4653  0.4208  0.6421
  434MOL0     C58484   5.423   2.925   4.228 -0.0278 -0.5488 -0.1276
  434MOL0     O58485   5.461   2.900   4.095  0.3155 -1.4499  0.3790
  434MOL0     C58486   5.588   2.866   4.077 -1.0429  1.6338 -0.2217
  434MOL0     C58487   5.621   2.740   4.050  0.1232  0.5558 -0.5641
  434MOL0     C58488   5.755   2.708   4.016 -0.0368  0.6184  0.0252
  434MOL0     C58489   5.860   2.805   4.013  0.8611 -0.2845  0.0664
  434MOL0     O58490   5.990   2.774   3.991 -0.5068 -1.2064  0.7537
  434MOL0     C58491   6.076   2.807   4.101  0.1572  0.2769 -0.5255
  434MOL0     C58492   6.176   2.700   4.111  0.3943 -0.1222 -0.0766
  434MOL0     C58493   6.260   2.729   4.237 -0.0580  0.1272  0.6859
  434MOL0     C58494   6.395   2.655   4.239 -0.0907 -1.0093 -0.9856
  434MOL0     C58495   6.456   2.689   4.380 -0.4618 -0.0822  0.1819
  434MOL0     C58496   6.597   2.630   4.375 -1.3236 -1.0436 -0.6102
  434MOL0     C58497   6.612   2.487   4.335 -0.6954 -0.6794  0.4601
  434MOL0     C58498   6.750   2.432   4.319  0.4590 -0.2187  0.2699
  434MOL0    Cl58499   6.833   2.442   4.477 -0.5997  0.0278  0.2680
  434MOL0     C58500   5.824   2.931   4.058  0.0451 -0.8916  0.7604
  434MOL0     C58501   5.690   2.958   4.082 -0.6477 -1.0059 -0.8626
  434MOL0     O58502   5.491   2.914   4.334  0.3966  0.1448  0.3254
  434MOL0     C58503   5.205   2.992   4.132  0.2269  0.2481 -0.4210
  434MOL0     C58504   5.080   3.043   4.160 -0.3432  0.1474 -0.1999
  434MOL0     N58505   4.464   3.408   4.743  0.3520 -0.7272  0.9126
  434MOL0     N58506   4.414   3.393   4.864 -0.3301 -0.6068 -0.1765
  434MOL0     C58507   4.224   2.689   5.874 -1.1330  0.3970 -0.4659
  434MOL0     C58508   4.207   2.637   6.004 -0.4674  0.2149 -0.1227
  434MOL0     C58509   4.216   2.620   6.448  0.1401 -0.2120  0.3318
  434MOL0     C58510   4.191   2.719   6.548  0.0030 -0.4254  0.5747
  434MOL0     C58511   4.199   2.687   6.685 -0.1369  0.2720 -0.0353
  434MOL0     C58512   4.247   2.564   6.724 -0.6180  1.0081 -0.2755
  434MOL0     O58513   4.267   2.532   6.854  0.8422 -0.5122 -0.0380
  434MOL0     C58514   4.155   2.495   6.927  0.1430  0.6210 -1.0064
  434MOL0     C58515   4.083   2.615   7.002  1.0921  0.1702 -0.7412
  434MOL0     C58516   4.156   2.660   7.132  0.6691  0.2701 -0.0772
  434MOL0     C58517   4.082   2.782   7.197 -0.2394 -0.8668 -0.7615
  434MOL0     C58518   4.179   2.871   7.269 -0.1387 -0.3869 -0.6172
  434MOL0     C58519   4.264   2.941   7.325  0.8904  0.0993  0.4640
  434MOL0     C58520   4.257   2.463   6.629  0.0418  0.3203  0.4229
  434MOL0     C58521   4.247   2.487   6.490 -1.1892 -0.5476  0.7922
  434MOL0     C58522   4.254   2.377   6.394 -0.1568  0.8534 -0.1601
  434MOL0     H58523   4.514   2.624   6.127  0.2989  1.5219  1.3598
  434MOL0     H58524   4.566   2.681   5.877 -0.1479  2.3719  1.0722
  434MOL0     H58525   4.342   2.969   5.764  1.0940  1.1096  0.8130
  434MOL0     H58526   4.511   2.914   5.780 -0.2691 -0.8841 -0.1940
  434MOL0     H58527   4.412   2.955   5.504  1.1450 -2.1834  0.1779
  434MOL0     H58528   4.572   2.949   5.570  1.4494  3.3093 -1.1518
  434MOL0     H58529   4.510   3.163   5.721  1.3952 -3.0395  1.3919
  434MOL0     H58530   4.370   3.172   5.622 -1.9199 -3.3247 -1.4644
  434MOL0     H58531   4.566   3.317   5.556  1.8354  0.9424 -1.1496
  434MOL0     H58532   4.656   3.167   5.526 -0.2000 -0.2369  1.2303
  434MOL0     H58533   4.533   3.097   5.334  1.6629  0.7506 -0.2656
  434MOL0     H58534   4.400   3.210   5.348  0.6773 -0.2739 -2.7399
  434MOL0     H58535   4.547   3.388   5.266  0.5031 -0.7773 -0.7258
  434MOL0     H58536   4.687   3.288   5.319 -0.7491 -0.5316  1.8700
  434MOL0     H58537   4.604   3.106   5.151  0.6662  0.9919  2.5310
  434MOL0     H58538   4.680   3.250   5.087 -0.8139  0.3409 -2.1965
  434MOL0     H58539   4.420   3.150   5.032  1.7142 -1.3978  0.5741
  434MOL0     H58540   4.402   3.307   5.116  1.6637  2.3813  1.0612
  434MOL0     H58541   4.670   3.189   4.845  0.4547  0.5688  0.8751
  434MOL0     H58542   4.596   3.408   4.518  2.1043  0.8307 -0.8498
  434MOL0     H58543   4.747   3.356   4.603  0.4111 -2.0320  2.3076
  434MOL0     H58544   4.660   3.125   4.611 -1.7330 -0.1487  1.3064
  434MOL0     H58545   4.524   3.162   4.503 -1.2299  2.9399 -0.1185
  434MOL0     H58546   4.645   3.225   4.333 -1.0244  2.2663  1.1623
  434MOL0     H58547   4.691   3.065   4.366  0.9293 -0.0479  0.0157
  434MOL0     H58548   4.893   3.148   4.498  1.2259 -0.1594 -1.1742
  434MOL0     H58549   4.877   3.311   4.423 -1.0446  1.4291 -4.2409
  434MOL0     H58550   5.094   3.124   4.486 -1.0137  2.5559 -1.2789
  434MOL0     H58551   5.304   3.017   4.460  1.9149 -0.7686 -1.7564
  434MOL0     H58552   5.555   2.655   4.041  0.6207  0.3324 -2.5720
  434MOL0     H58553   5.785   2.604   4.008  0.5201  0.0214  5.7514
  434MOL0     H58554   6.120   2.905   4.082  0.3626  0.2590 -0.1558
  434MOL0     H58555   6.019   2.821   4.193  0.8672 -2.0771  0.3498
  434MOL0     H58556   6.126   2.603   4.121  4.4308 -2.3193  1.1737
  434MOL0     H58557   6.234   2.689   4.019  2.4888  2.3205  0.8126
  434MOL0     H58558   6.262   2.837   4.253  0.5537 -0.0537  1.9869
  434MOL0     H58559   6.210   2.679   4.321  1.1840  0.4622  1.6540
  434MOL0     H58560   6.459   2.677   4.153  3.2777 -1.3163  1.2310
  434MOL0     H58561   6.368   2.549   4.236  1.2172 -1.4165  0.3088
  434MOL0     H58562   6.397   2.649   4.463 -0.7068 -0.9050 -0.3700
  434MOL0     H58563   6.464   2.797   4.395 -2.3286  0.0320  0.5767
  434MOL0     H58564   6.653   2.687   4.301 -1.2687  2.0166  1.5607
  434MOL0     H58565   6.632   2.649   4.477 -3.2008 -0.4806 -0.0166
  434MOL0     H58566   6.577   2.481   4.232 -1.8533 -2.3855  0.9112
  434MOL0     H58567   6.551   2.431   4.406 -0.4511  0.4307  1.5748
  434MOL0     H58568   6.743   2.326   4.295  0.7477  0.3224 -2.4732
  434MOL0     H58569   6.801   2.472   4.231 -0.0039 -0.1948  0.0088
  434MOL0     H58570   5.897   3.011   4.064  1.5690 -2.0729 -0.9706
  434MOL0     H58571   5.664   3.056   4.123 -1.3415 -1.2854 -0.6302
  434MOL0     H58572   5.222   2.950   4.034 -0.4198 -2.6009  0.5811
  434MOL0     H58573   5.005   3.054   4.082  1.2427 -0.9357 -1.9874
  434MOL0     H58574   4.132   2.708   5.820 -1.6884  1.7208  0.8492
  434MOL0     H58575   4.106   2.633   6.042 -0.9863  3.5545 -0.9190
  434MOL0     H58576   4.155   2.814   6.510 -2.0371 -1.4718 -0.2525
  434MOL0     H58577   4.171   2.767   6.753 -1.9106  1.4268 -1.9860
  434MOL0     H58578   4.184   2.418   6.999 -3.3688  0.1459  0.1066
  434MOL0     H58579   4.082   2.449   6.860 -2.5703 -0.5262  2.3897
  434MOL0     H58580   3.977   2.597   7.018  0.3134  2.3604 -2.8619
  434MOL0     H58581   4.087   2.700   6.932 -1.4487  1.9037  1.0475
  434MOL0     H58582   4.260   2.692   7.119  0.5586  1.0606  0.8749
  434MOL0     H58583   4.150   2.571   7.195  1.2608  1.5821  1.9133
  434MOL0     H58584   4.024   2.831   7.118 -1.8564 -2.9217 -0.9268
  434MOL0     H58585   4.013   2.744   7.273 -0.2752 -0.5220 -0.6208
  434MOL0     H58586   4.334   2.996   7.385  1.2697 -0.1979  0.2913
  434MOL0     H58587   4.284   2.366   6.668 -2.3950 -0.1445  1.1561
  434MOL0     H58588   4.223   2.409   6.294  2.3797 -1.8117 -1.9637
  434MOL0     H58589   4.357   2.343   6.379 -0.3322  0.1761  0.1176
  434MOL0     H58590   4.194   2.288   6.417 -0.9416  1.2250 -0.7339
  435MOL0     O58591   0.947  10.574   8.709 -0.7377  0.0119 -0.1589
  435MOL0     C58592   0.912  10.476   8.772  0.7105 -0.9345 -0.4450
  435MOL0     O58593   0.949  10.450   8.903  0.1908  0.7881 -0.3270
  435MOL0     C58594   1.038  10.526   8.962  0.2044  0.0700 -0.2208
  435MOL0     C58595   1.016  10.657   8.990 -0.2450  0.7679 -0.5117
  435MOL0     C58596   1.096  10.731   9.074 -0.6791 -0.2822  0.3733
  435MOL0     C58597   1.218  10.683   9.123 -0.3525 -0.5893  0.6739
  435MOL0     O58598   1.287  10.777   9.198 -0.3685 -0.3367 -0.0463
  435MOL0     C58599   1.433  10.745   9.227 -0.1538  1.3127 -0.0430
  435MOL0     C58600   1.497  10.872   9.291 -0.1386  0.5055  0.7428
  435MOL0     C58601   1.481  10.985   9.183 -0.8631  0.2379  0.6860
  435MOL0     C58602   1.567  11.111   9.199 -0.1746 -0.1614  0.7708
  435MOL0     C58603   1.552  11.211   9.078 -0.4419  0.1092  0.3699
  435MOL0     C58604   1.426  11.280   9.074  0.3249  0.3122 -0.0584
  435MOL0     C58605   1.401  11.366   8.952  0.6130  0.0255  0.3607
  435MOL0     C58606   1.313  11.298   8.849 -0.2577 -0.0384 -0.2168
  435MOL0     N58607   1.374  11.176   8.789  0.3556 -0.4473  0.2719
  435MOL0     C58608   1.305  11.057   8.808 -0.9403  0.7458 -0.2126
  435MOL0     C58609   1.400  10.964   8.747  0.6070 -0.8663 -0.4659
  435MOL0     C58610   1.387  10.826   8.754  0.2787  0.1690 -0.0601
  435MOL0     C58611   1.451  10.769   8.632  0.7845  0.2609 -0.6068
  435MOL0     C58612   1.465  10.618   8.662  0.4805  0.2944  0.7186
  435MOL0     C58613   1.339  10.527   8.674  0.7129 -0.2507  0.9085
  435MOL0     O58614   1.382  10.403   8.713  0.0458 -0.6363 -0.2846
  435MOL0     C58615   1.317  10.289   8.666 -0.2678 -0.2103  0.0872
  435MOL0     C58616   1.182  10.273   8.638 -0.4574 -0.2432  0.1794
  435MOL0     C58617   1.128  10.146   8.596 -0.2696  0.0195  0.1431
  435MOL0     C58618   1.207  10.033   8.589 -0.3622  0.1930 -0.1331
  435MOL0     C58619   1.155   9.898   8.538 -0.0024  0.0313 -0.0344
  435MOL0     O58620   1.201   9.798   8.609  0.4316  0.4193  0.3919
  435MOL0     C58621   1.158   9.670   8.569  0.4136 -0.4055  0.3429
  435MOL0     C58622   1.044   9.611   8.623  0.1976  0.2318  0.2008
  435MOL0     C58623   1.000   9.488   8.569  0.5179  0.6608 -0.5210
  435MOL0     C58624   1.072   9.414   8.474 -0.6623 -0.7711  0.0022
  435MOL0     O58625   1.035   9.288   8.445  0.9278 -0.4555 -0.2165
  435MOL0     C58626   0.976   9.205   8.548  0.0854 -0.7027 -1.4755
  435MOL0     C58627   0.953   9.066   8.493 -0.0866 -0.0046  0.2796
  435MOL0     C58628   1.075   8.978   8.464 -0.8891 -0.1668  0.0343
  435MOL0     C58629   1.029   8.833   8.464 -0.8077 -0.3287  0.1550
  435MOL0     C58630   1.153   8.737   8.456 -0.2525  0.2849  0.4179
  435MOL0     C58631   1.118   8.596   8.456  0.1340  0.2248 -0.3294
  435MOL0     C58632   0.991   8.567   8.378  0.6841  1.0493  0.3213
  435MOL0     C58633   0.984   8.418   8.351  0.3829 -0.6758  0.6037
  435MOL0    Cl58634   1.128   8.352   8.254  0.2316  0.3141 -0.1093
  435MOL0     C58635   1.182   9.480   8.425  0.3730  0.8605 -0.4529
  435MOL0     C58636   1.222   9.604   8.468  0.0300  0.1506 -0.6912
  435MOL0     O58637   1.085   9.888   8.438 -0.3484 -0.4673  0.3474
  435MOL0     C58638   1.345  10.042   8.624 -0.0883 -0.3723  0.3503
  435MOL0     C58639   1.393  10.174   8.649  0.9875  0.3301 -0.4109
  435MOL0     N58640   1.498  11.042   8.686 -0.7136  0.3295  0.1022
  435MOL0     N58641   1.480  11.168   8.711 -0.0124 -0.7789  0.6140
  435MOL0     C58642   1.241  10.550   9.095 -0.2112 -0.4221  0.2100
  435MOL0     C58643   1.157  10.478   9.017 -0.3457 -0.1377  0.7703
  435MOL0     C58644   0.822  10.371   8.709  0.6222  1.0966  0.1498
  435MOL0     C58645   0.817  10.237   8.771 -0.6318 -0.0311  0.5705
  435MOL0     C58646   0.739  10.141   8.717 -0.0574 -0.1069  0.6317
  435MOL0     C58647   0.646  10.165   8.620  0.2075  0.8763  0.7149
  435MOL0     O58648   0.555  10.074   8.572 -0.3913 -0.9913  0.2792
  435MOL0     C58649   0.543   9.952   8.630 -1.1903  0.3187 -0.4894
  435MOL0     C58650   0.417   9.900   8.576 -0.2934 -0.6329  0.2148
  435MOL0     C58651   0.412   9.759   8.631  0.5088  0.4890 -0.7203
  435MOL0     C58652   0.282   9.690   8.630  0.0838  0.7086  0.8023
  435MOL0     C58653   0.237   9.686   8.489 -1.1366 -0.8018 -0.9782
  435MOL0     C58654   0.191   9.707   8.379  0.3273  1.2604  0.2554
  435MOL0     C58655   0.647  10.294   8.566 -0.2617 -0.5353  0.1049
  435MOL0     C58656   0.729  10.399   8.609 -0.7784  0.5014  0.0856
  435MOL0     C58657   0.723  10.524   8.526 -0.5911  0.2904 -0.9018
  435MOL0     H58658   0.918  10.697   8.968 -1.5382 -2.6632 -1.6659
  435MOL0     H58659   1.069  10.833   9.097  0.5034  0.3974 -1.0549
  435MOL0     H58660   1.443  10.651   9.282  1.4291  1.7532  0.4707
  435MOL0     H58661   1.488  10.730   9.133 -1.4898 -1.6750 -0.4498
  435MOL0     H58662   1.601  10.853   9.319  0.5994 -1.4010 -2.7589
  435MOL0     H58663   1.430  10.889   9.376 -0.4250 -1.5743  0.9933
  435MOL0     H58664   1.378  11.021   9.176  0.0519  4.1591  3.5871
  435MOL0     H58665   1.506  10.941   9.086 -1.1769 -0.0648  0.7437
  435MOL0     H58666   1.545  11.166   9.291 -3.0684  0.6377 -0.2887
  435MOL0     H58667   1.670  11.075   9.203  0.2338  0.8736  0.1405
  435MOL0     H58668   1.630  11.285   9.097 -1.6496  1.2807  0.9493
  435MOL0     H58669   1.577  11.169   8.980  1.8264 -1.9355  1.6922
  435MOL0     H58670   1.342  11.211   9.088  1.2756 -0.6854  0.9587
  435MOL0     H58671   1.437  11.340   9.165 -0.2210 -1.2438  1.0895
  435MOL0     H58672   1.499  11.394   8.911  0.1789  1.8853  0.4791
  435MOL0     H58673   1.351  11.460   8.978  1.5462 -0.2186  3.3679
  435MOL0     H58674   1.222  11.270   8.903 -0.3434 -0.1266 -0.4071
  435MOL0     H58675   1.281  11.370   8.773 -0.8477  0.5229  0.5428
  435MOL0     H58676   1.226  11.047   8.882 -1.2566 -1.5885 -0.7858
  435MOL0     H58677   1.438  10.798   8.846  0.9638  0.4233 -0.3572
  435MOL0     H58678   1.281  10.799   8.757 -0.7779  3.8880  0.9908
  435MOL0     H58679   1.383  10.786   8.548 -0.8894 -3.4888 -0.2296
  435MOL0     H58680   1.551  10.809   8.615  0.7585 -0.5823 -3.2683
  435MOL0     H58681   1.525  10.603   8.752  0.7419 -1.7744  0.2395
  435MOL0     H58682   1.517  10.577   8.574  1.0494 -0.6411  1.4769
  435MOL0     H58683   1.279  10.523   8.583 -0.3639  0.0268  1.5827
  435MOL0     H58684   1.272  10.567   8.751 -1.2149  0.8398 -1.2295
  435MOL0     H58685   1.112  10.356   8.637 -0.7814 -0.5217 -1.3114
  435MOL0     H58686   1.028  10.126   8.557  0.6098  0.0320 -2.2509
  435MOL0     H58687   0.986   9.664   8.698  0.5479  0.5814  0.2241
  435MOL0     H58688   0.900   9.460   8.599  0.2688  0.7876 -1.2177
  435MOL0     H58689   1.054   9.199   8.625  1.1954  0.6903 -2.4364
  435MOL0     H58690   0.880   9.245   8.582 -1.0604 -2.5322 -2.3826
  435MOL0     H58691   0.892   9.020   8.571 -0.0034 -1.6965 -0.6201
  435MOL0     H58692   0.892   9.079   8.402 -1.9375 -0.2036  1.4438
  435MOL0     H58693   1.119   9.001   8.366  0.6987 -0.0597  0.7532
  435MOL0     H58694   1.152   9.008   8.535  0.2648  2.0017 -1.9686
  435MOL0     H58695   0.956   8.837   8.383 -0.2430  2.0639 -0.3144
  435MOL0     H58696   0.958   8.806   8.543  2.0172 -1.3139  2.5564
  435MOL0     H58697   1.225   8.758   8.536 -3.1092  1.7400  2.8121
  435MOL0     H58698   1.215   8.756   8.369 -1.1476  0.6053 -0.1610
  435MOL0     H58699   1.205   8.552   8.406  0.6996  0.4645  0.4308
  435MOL0     H58700   1.117   8.565   8.561 -0.5177 -0.7327 -0.6015
  435MOL0     H58701   0.977   8.618   8.283 -3.1163  1.4447  0.9100
  435MOL0     H58702   0.906   8.598   8.439  0.2689  1.5044 -0.4753
  435MOL0     H58703   0.954   8.358   8.438  2.7150  1.3399  2.9715
  435MOL0     H58704   0.893   8.407   8.292  1.1539  1.0447 -0.9813
  435MOL0     H58705   1.238   9.419   8.354  1.5152  0.1007  1.0614
  435MOL0     H58706   1.323   9.638   8.443  1.1452 -1.4479  1.3338
  435MOL0     H58707   1.409   9.960   8.592 -0.6469 -0.1738 -1.3356
  435MOL0     H58708   1.500  10.189   8.661  0.5773  1.6834  2.6209
  435MOL0     H58709   1.324  10.505   9.148  3.4772  2.1675 -2.7994
  435MOL0     H58710   1.197  10.380   8.993  1.0500  0.0750  2.0715
  435MOL0     H58711   0.874  10.210   8.859 -0.6661 -0.7444  0.3777
  435MOL0     H58712   0.735  10.041   8.758  3.1446 -1.6602 -2.3948
  435MOL0     H58713   0.524   9.969   8.737 -0.0118 -1.0408 -0.0380
  435MOL0     H58714   0.622   9.880   8.611  0.5144  2.3718 -1.5948
  435MOL0     H58715   0.437   9.904   8.469  1.3786 -1.5815  0.4575
  435MOL0     H58716   0.329   9.960   8.603 -1.9350 -1.9922 -1.7818
  435MOL0     H58717   0.441   9.749   8.736 -2.0967 -0.4130 -0.0248
  435MOL0     H58718   0.486   9.703   8.573  0.2353 -0.2696 -0.3401
  435MOL0     H58719   0.279   9.587   8.666  0.3078 -0.3337 -1.8715
  435MOL0     H58720   0.211   9.744   8.693 -1.2378  0.1697 -0.1717
  435MOL0     H58721   0.155   9.712   8.278 -4.5345 -0.4864  1.6166
  435MOL0     H58722   0.593  10.312   8.474  0.0390  0.0169  0.0290
  435MOL0     H58723   0.671  10.603   8.582 -4.9617 -0.5606 -3.2719
  435MOL0     H58724   0.826  10.558   8.513  1.3714 -4.0045  1.3573
  435MOL0     H58725   0.667  10.515   8.432 -2.4027  0.9898  0.0556
  436MOL0     O58726   0.480   0.277   4.656 -0.0767  1.1830 -0.5080
  436MOL0     C58727   0.427   0.179   4.604 -0.1678 -0.2473  1.5712
  436MOL0     O58728   0.290   0.159   4.585 -0.1028 -0.2217 -0.0792
  436MOL0     C58729   0.205   0.260   4.597 -0.4971 -0.6015  0.9927
  436MOL0     C58730   0.235   0.398   4.580 -0.5574 -0.0454 -0.4935
  436MOL0     C58731   0.143   0.494   4.632  0.4005 -0.9016  0.4664
  436MOL0     C58732   0.012   0.462   4.669 -0.1433 -0.5502  0.5433
  436MOL0     O58733  -0.093   0.549   4.705  0.1604 -0.7135 -0.8413
  436MOL0     C58734  -0.072   0.690   4.721  0.0735 -0.3150 -0.2086
  436MOL0     C58735  -0.141   0.782   4.619  0.1568 -0.2567 -0.0327
  436MOL0     C58736  -0.123   0.752   4.475  0.3786 -0.2913 -0.5485
  436MOL0     C58737  -0.002   0.807   4.406 -0.8381 -1.2608 -0.4000
  436MOL0     C58738  -0.003   0.808   4.255  0.0533 -0.5641  0.0698
  436MOL0     C58739  -0.047   0.676   4.196  0.5571  0.5706  0.6115
  436MOL0     C58740   0.040   0.560   4.240  0.5591 -0.6551 -0.6622
  436MOL0     C58741   0.018   0.430   4.164 -0.4024  0.3690  0.3278
  436MOL0     N58742  -0.109   0.361   4.182 -0.4899  0.3558  0.2501
  436MOL0     C58743  -0.137   0.267   4.287 -0.2946  0.0432 -0.1590
  436MOL0     C58744  -0.270   0.222   4.265  0.1335 -0.1302 -0.5103
  436MOL0     C58745  -0.337   0.126   4.352 -0.1177 -0.3934 -1.1089
  436MOL0     C58746  -0.373   0.193   4.487 -1.3240 -0.2766 -0.3657
  436MOL0     C58747  -0.477   0.306   4.472 -0.1731 -0.4083 -0.6174
  436MOL0     C58748  -0.567   0.315   4.607 -0.0552 -0.0882  0.7160
  436MOL0     O58749  -0.492   0.368   4.719 -0.1480  0.1657 -0.0664
  436MOL0     C58750  -0.553   0.475   4.788 -0.8456  0.1429 -0.1306
  436MOL0     C58751  -0.676   0.445   4.852  0.5181 -0.7154  0.1160
  436MOL0     C58752  -0.750   0.541   4.910  0.4476  0.8693 -0.0559
  436MOL0     C58753  -0.693   0.673   4.927  0.4568 -0.1600 -0.1774
  436MOL0     C58754  -0.776   0.790   4.980  0.1161  0.2521  0.2164
  436MOL0     O58755  -0.710   0.913   4.972 -0.4969 -0.3557  0.0373
  436MOL0     C58756  -0.791   1.024   5.004  0.4752  1.0176  0.4073
  436MOL0     C58757  -0.781   1.086   5.125  0.5033 -0.2577  0.2130
  436MOL0     C58758  -0.877   1.189   5.161 -0.1527  0.4306 -0.3457
  436MOL0     C58759  -0.974   1.234   5.070 -0.3806 -0.3542 -0.0119
  436MOL0     O58760  -1.064   1.325   5.118 -0.3358 -0.3248  0.0814
  436MOL0     C58761  -1.154   1.389   5.024  0.4738 -0.6772  0.4242
  436MOL0     C58762  -1.246   1.481   5.111 -0.6587 -0.4156  0.5457
  436MOL0     C58763  -1.371   1.547   5.047  0.1825 -1.1803  0.6833
  436MOL0     C58764  -1.329   1.623   4.923 -0.2031 -0.5478 -1.4327
  436MOL0     C58765  -1.252   1.746   4.960  0.1679  0.7031 -0.1504
  436MOL0     C58766  -1.271   1.864   4.861 -0.2888 -0.7284 -0.2598
  436MOL0     C58767  -1.163   1.962   4.908 -0.5079  0.2080  0.1830
  436MOL0     C58768  -1.193   2.095   4.817  0.0001  1.1829  0.6923
  436MOL0    Cl58769  -1.078   2.228   4.824  0.2887 -0.1771  0.1415
  436MOL0     C58770  -0.976   1.176   4.941 -0.0132 -0.7652 -0.4060
  436MOL0     C58771  -0.889   1.068   4.910  0.5582 -0.2417  1.0821
  436MOL0     O58772  -0.884   0.769   5.037 -0.4998  0.0116  0.1148
  436MOL0     C58773  -0.560   0.691   4.887 -0.2062  0.6742 -0.2886
  436MOL0     C58774  -0.484   0.597   4.805  0.4126  0.2964  0.5749
  436MOL0     N58775  -0.306   0.268   4.140  0.1688  0.2082  0.4603
  436MOL0     N58776  -0.214   0.343   4.092 -0.3665  0.2740  0.0560
  436MOL0     C58777  -0.015   0.317   4.658 -0.2650  0.2163 -0.3307
  436MOL0     C58778   0.079   0.222   4.629 -0.4497  0.2721 -1.1430
  436MOL0     C58779   0.528   0.085   4.538 -0.5213 -0.2578 -0.3941
  436MOL0     C58780   0.486  -0.017   4.451  1.1415  0.0472 -0.4812
  436MOL0     C58781   0.566  -0.105   4.379 -0.3101 -0.0024 -0.0181
  436MOL0     C58782   0.700  -0.100   4.404 -0.1750 -0.0565 -0.4595
  436MOL0     O58783   0.797  -0.175   4.341  0.1855 -0.0985 -0.6098
  436MOL0     C58784   0.772  -0.278   4.246 -0.1751  0.6043 -0.4326
  436MOL0     C58785   0.905  -0.309   4.186 -0.4649  0.5501  0.4526
  436MOL0     C58786   0.895  -0.420   4.081  0.4788 -0.5807  0.6730
  436MOL0     C58787   1.027  -0.476   4.030  0.4348 -0.8902  0.2110
  436MOL0     C58788   1.137  -0.373   4.032 -0.9483  0.4877  0.3808
  436MOL0     C58789   1.233  -0.298   4.029  0.4454  0.2475 -0.2462
  436MOL0     C58790   0.749  -0.007   4.496  0.9309  0.5085 -0.6168
  436MOL0     C58791   0.667   0.089   4.566 -0.8148  0.5972 -0.6843
  436MOL0     C58792   0.740   0.172   4.672 -0.5887  0.1687 -0.2829
  436MOL0     H58793   0.331   0.440   4.552 -0.2620  0.1205  0.7032
  436MOL0     H58794   0.170   0.598   4.622  2.3080 -1.4766 -0.8552
  436MOL0     H58795  -0.108   0.718   4.821  4.8062  3.1944  0.8785
  436MOL0     H58796   0.032   0.722   4.734 -0.1596 -0.0380  1.1012
  436MOL0     H58797  -0.116   0.886   4.643 -0.0756  0.0205 -0.9485
  436MOL0     H58798  -0.248   0.771   4.642  0.3412  1.8230  2.3366
  436MOL0     H58799  -0.208   0.804   4.430 -0.8950  1.7604  3.6851
  436MOL0     H58800  -0.126   0.643   4.464  1.9345 -0.2760 -1.5471
  436MOL0     H58801   0.010   0.912   4.435 -0.6692 -1.6943  1.2289
  436MOL0     H58802   0.097   0.765   4.426  0.7349  0.9549 -2.8046
  436MOL0     H58803  -0.076   0.884   4.226  1.6211  0.6146 -0.9674
  436MOL0     H58804   0.098   0.826   4.215 -0.8255  0.7808 -1.6620
  436MOL0     H58805  -0.150   0.660   4.226  0.2038 -0.7564 -1.1353
  436MOL0     H58806  -0.027   0.686   4.088  1.1066  0.7016  0.7196
  436MOL0     H58807   0.034   0.531   4.345  0.5542 -4.8666 -1.6578
  436MOL0     H58808   0.143   0.599   4.235  0.2126  0.7659  1.7996
  436MOL0     H58809   0.026   0.449   4.057  0.3748 -2.3241 -0.1783
  436MOL0     H58810   0.093   0.357   4.197 -0.8665  0.0577  0.7044
  436MOL0     H58811  -0.078   0.245   4.375  1.3711  1.5471 -0.8509
  436MOL0     H58812  -0.424   0.080   4.305 -0.5059 -3.0327  1.8795
  436MOL0     H58813  -0.257   0.053   4.371  4.1640  4.1462  0.5459
  436MOL0     H58814  -0.402   0.104   4.542  2.2459 -1.8720 -0.7739
  436MOL0     H58815  -0.281   0.231   4.532 -1.8338  0.3458  0.1702
  436MOL0     H58816  -0.543   0.293   4.386 -2.7261  1.5545  0.9260
  436MOL0     H58817  -0.430   0.404   4.468 -0.0861 -0.4487 -0.5802
  436MOL0     H58818  -0.612   0.219   4.632 -0.2653 -0.7915 -2.0630
  436MOL0     H58819  -0.656   0.373   4.581  0.3928  0.0301 -0.6502
  436MOL0     H58820  -0.728   0.350   4.846 -3.1582  0.6962  4.3862
  436MOL0     H58821  -0.851   0.518   4.941  0.1382  2.9485  0.6094
  436MOL0     H58822  -0.698   1.054   5.188  2.2833  3.1326 -0.1888
  436MOL0     H58823  -0.866   1.236   5.258  2.2051  2.1625 -1.3725
  436MOL0     H58824  -1.103   1.451   4.950 -0.8438  1.0782  0.9200
  436MOL0     H58825  -1.218   1.312   4.981  1.3131 -3.6666  3.9871
  436MOL0     H58826  -1.291   1.414   5.184 -0.4065 -1.2217 -0.0265
  436MOL0     H58827  -1.193   1.557   5.169  0.0193 -1.7065  1.6628
  436MOL0     H58828  -1.439   1.467   5.016 -2.9142  2.5760 -3.5742
  436MOL0     H58829  -1.419   1.602   5.128  0.0117  1.6449 -1.2117
  436MOL0     H58830  -1.413   1.647   4.857  0.5532  2.2850 -1.4826
  436MOL0     H58831  -1.272   1.553   4.861  1.0282  0.2275 -1.2090
  436MOL0     H58832  -1.145   1.723   4.963 -0.0015  0.0014  1.2585
  436MOL0     H58833  -1.290   1.786   5.055  0.5564 -0.1951  0.3962
  436MOL0     H58834  -1.258   1.835   4.756  2.9005 -2.7289  0.5265
  436MOL0     H58835  -1.372   1.903   4.875  0.3292  1.5953 -1.5700
  436MOL0     H58836  -1.071   1.918   4.869 -1.3727 -0.1203 -1.5925
  436MOL0     H58837  -1.166   1.982   5.016 -2.6950  0.5271  0.1137
  436MOL0     H58838  -1.200   2.055   4.715 -3.3364 -1.2999  1.7150
  436MOL0     H58839  -1.294   2.130   4.838 -1.5930 -0.4422 -3.1936
  436MOL0     H58840  -1.050   1.204   4.866  1.8897  0.2839 -2.0308
  436MOL0     H58841  -0.904   1.008   4.821  0.6522  1.2032  0.0551
  436MOL0     H58842  -0.516   0.784   4.921  0.8526  0.1914 -0.3020
  436MOL0     H58843  -0.382   0.618   4.777 -0.0927  3.8204  0.9333
  436MOL0     H58844  -0.118   0.291   4.682 -1.0904 -0.0195 -3.6643
  436MOL0     H58845   0.057   0.116   4.622  3.4861 -0.6951 -1.3921
  436MOL0     H58846   0.383  -0.012   4.418  1.8187 -0.1660 -2.8438
  436MOL0     H58847   0.523  -0.160   4.296 -1.6463 -0.7898  1.1484
  436MOL0     H58848   0.698  -0.242   4.175 -0.1188  0.1965 -0.7028
  436MOL0     H58849   0.727  -0.365   4.296  0.4666 -0.4709 -1.6726
  436MOL0     H58850   0.967  -0.346   4.268 -1.7539 -0.1914  1.1347
  436MOL0     H58851   0.939  -0.214   4.144  0.1048  0.2900  0.3228
  436MOL0     H58852   0.840  -0.384   3.993  0.4681 -2.0765  0.0351
  436MOL0     H58853   0.831  -0.500   4.119 -3.1801  2.4420  1.4614
  436MOL0     H58854   1.070  -0.560   4.086  3.0827  0.3613  0.1712
  436MOL0     H58855   1.016  -0.508   3.925 -2.8493 -0.5280  0.3443
  436MOL0     H58856   1.318  -0.236   4.007  1.1574 -0.8735 -0.7499
  436MOL0     H58857   0.856   0.004   4.508  0.6517  1.1307  1.9091
  436MOL0     H58858   0.847   0.148   4.669 -0.8291 -0.8968 -0.8895
  436MOL0     H58859   0.731   0.280   4.659  1.7685  0.6030  1.0600
  436MOL0     H58860   0.714   0.143   4.774  2.2978 -2.3422 -0.1146
  437MOL0     O58861   0.444   7.880   7.926  0.1558 -0.5085 -0.1192
  437MOL0     C58862   0.410   7.879   7.809  0.7406  0.0991  0.1493
  437MOL0     O58863   0.444   7.787   7.713  0.4912  0.1487  0.0269
  437MOL0     C58864   0.534   7.693   7.759 -0.0838 -0.1464  0.1242
  437MOL0     C58865   0.665   7.704   7.725 -0.1523  0.7136  0.1051
  437MOL0     C58866   0.766   7.598   7.755 -0.0870  0.2755 -0.7175
  437MOL0     C58867   0.711   7.478   7.806  0.1043 -0.2897  0.8653
  437MOL0     O58868   0.778   7.358   7.807  0.5592  0.7614  0.0663
  437MOL0     C58869   0.920   7.352   7.800  0.4199  0.1357 -0.0762
  437MOL0     C58870   0.987   7.210   7.813  0.5583 -0.8931 -0.1199
  437MOL0     C58871   1.139   7.203   7.773 -0.8336  0.4079 -0.4523
  437MOL0     C58872   1.221   7.164   7.908 -0.5265 -0.0572  0.0369
  437MOL0     C58873   1.375   7.148   7.874  0.1249  0.4737 -0.9396
  437MOL0     C58874   1.464   7.127   7.998 -0.1044  0.8134  0.2082
  437MOL0     C58875   1.606   7.141   7.932  0.3429  0.5007 -0.7686
  437MOL0     C58876   1.696   7.080   8.045  0.2061  0.9723 -0.3913
  437MOL0     N58877   1.717   6.940   8.030  0.0816  0.1070  0.7085
  437MOL0     C58878   1.781   6.871   8.127  0.3876 -0.3503  0.6715
  437MOL0     C58879   1.800   6.742   8.087 -0.0180  0.1660  0.3593
  437MOL0     C58880   1.857   6.628   8.167  0.8263  1.1822 -0.5201
  437MOL0     C58881   2.012   6.635   8.174  0.7428 -0.0159 -0.2164
  437MOL0     C58882   2.061   6.526   8.265 -0.7901  0.1738 -0.5594
  437MOL0     C58883   2.201   6.543   8.307 -0.7772 -0.6584  0.0744
  437MOL0     O58884   2.271   6.562   8.182 -0.3069  1.2034 -0.5507
  437MOL0     C58885   2.412   6.588   8.194 -0.2487  1.3643  0.3013
  437MOL0     C58886   2.491   6.559   8.307  0.4375 -0.7380 -1.2672
  437MOL0     C58887   2.622   6.591   8.307  0.1345 -0.4342  0.6210
  437MOL0     C58888   2.682   6.647   8.201  1.2268  0.4317 -0.1944
  437MOL0     C58889   2.826   6.671   8.206 -0.8820 -0.2809  0.4053
  437MOL0     O58890   2.900   6.625   8.314 -0.3925  1.1971 -0.4702
  437MOL0     C58891   3.040   6.638   8.312  0.3255  0.4650  0.2753
  437MOL0     C58892   3.107   6.680   8.430 -0.1036  1.2259  0.8994
  437MOL0     C58893   3.246   6.692   8.430  0.7876  0.0254 -0.2562
  437MOL0     C58894   3.314   6.669   8.313  0.2088  0.4771  0.0609
  437MOL0     O58895   3.450   6.702   8.301 -0.3805  0.4139  0.3163
  437MOL0     C58896   3.485   6.832   8.342 -0.2838 -0.6833  0.0949
  437MOL0     C58897   3.624   6.869   8.281 -0.9694  0.4980 -0.2847
  437MOL0     C58898   3.654   7.015   8.262  0.4871  0.5849 -0.5763
  437MOL0     C58899   3.771   7.015   8.166 -0.5291 -0.2229  0.8697
  437MOL0     C58900   3.828   7.156   8.145 -0.2285 -0.2101 -0.0240
  437MOL0     C58901   3.968   7.143   8.065  0.0802 -0.1946 -0.1982
  437MOL0     C58902   4.044   7.282   8.041 -0.2443 -0.0660 -0.3398
  437MOL0     C58903   4.155   7.273   7.935 -0.7830  0.5262  0.3691
  437MOL0    Cl58904   4.311   7.200   7.978  0.3383 -0.2038  0.3925
  437MOL0     C58905   3.244   6.615   8.201  0.2520 -0.8893  0.1936
  437MOL0     C58906   3.115   6.601   8.198 -0.0814  0.2206  0.2777
  437MOL0     O58907   2.872   6.742   8.114 -0.1994 -0.2262  0.4475
  437MOL0     C58908   2.600   6.680   8.082  0.6175  0.0594  0.3669
  437MOL0     C58909   2.470   6.648   8.079  0.1608 -1.0815  0.3357
  437MOL0     N58910   1.753   6.744   7.955  0.2593 -0.0510 -1.2358
  437MOL0     N58911   1.701   6.859   7.932 -0.4318 -0.8149  0.3592
  437MOL0     C58912   0.575   7.476   7.844  0.1914 -0.3818 -0.9420
  437MOL0     C58913   0.495   7.577   7.823  0.2816 -0.6285  0.2924
  437MOL0     C58914   0.300   7.973   7.776  0.5719  0.2821 -0.5893
  437MOL0     C58915   0.256   8.063   7.881 -0.8145 -0.8574  0.7344
  437MOL0     C58916   0.138   8.134   7.863 -0.6508 -1.0746 -0.2441
  437MOL0     C58917   0.058   8.128   7.756  0.6752 -1.0387  0.2978
  437MOL0     O58918  -0.055   8.199   7.723 -0.7306  0.0412  0.5242
  437MOL0     C58919  -0.120   8.274   7.823  0.3711 -0.1845  0.3022
  437MOL0     C58920  -0.241   8.339   7.739 -0.8239 -0.0432  0.6804
  437MOL0     C58921  -0.339   8.391   7.845 -0.3270 -0.4794  0.2215
  437MOL0     C58922  -0.484   8.422   7.797  0.3592  0.8624 -0.3619
  437MOL0     C58923  -0.468   8.527   7.695 -0.0174  0.1356 -0.3290
  437MOL0     C58924  -0.453   8.616   7.618 -0.3302 -0.6296 -0.5202
  437MOL0     C58925   0.101   8.042   7.656 -0.8881  0.0648  0.3936
  437MOL0     C58926   0.223   7.968   7.656 -0.7653 -0.4111  0.5490
  437MOL0     C58927   0.270   7.903   7.533 -0.7248  0.7433  0.0619
  437MOL0     H58928   0.711   7.793   7.684  3.6074 -0.4740  1.3235
  437MOL0     H58929   0.868   7.606   7.719 -0.3573 -1.0161 -1.8639
  437MOL0     H58930   0.936   7.386   7.698  2.1724  2.5635  0.9213
  437MOL0     H58931   0.958   7.426   7.871  3.0599  1.3844 -2.6009
  437MOL0     H58932   0.931   7.143   7.747 -0.0253  1.4517 -2.1193
  437MOL0     H58933   0.976   7.181   7.918  2.2152  0.3265  0.4472
  437MOL0     H58934   1.182   7.298   7.740  2.7402 -1.4820 -1.8832
  437MOL0     H58935   1.159   7.120   7.704  1.1748  0.3573  0.1338
  437MOL0     H58936   1.221   7.249   7.977 -2.5167 -0.6094  0.7640
  437MOL0     H58937   1.186   7.084   7.973 -0.5877  0.9226  1.2459
  437MOL0     H58938   1.394   7.062   7.808  2.1921 -0.1550  0.3683
  437MOL0     H58939   1.405   7.237   7.818  1.3803  1.6608  1.4683
  437MOL0     H58940   1.443   7.213   8.062  0.4973  0.8745  0.3289
  437MOL0     H58941   1.444   7.031   8.047 -0.9941  0.3115 -1.0644
  437MOL0     H58942   1.633   7.243   7.905  0.4272  0.0777 -2.4055
  437MOL0     H58943   1.621   7.086   7.839  0.8523 -2.5480  0.9728
  437MOL0     H58944   1.791   7.133   8.051  0.4457  0.5969 -0.7967
  437MOL0     H58945   1.647   7.094   8.142 -0.1708 -0.7354 -0.3061
  437MOL0     H58946   1.803   6.913   8.225 -0.9938 -0.3921  1.0222
  437MOL0     H58947   1.818   6.635   8.269  0.9862 -0.0546 -0.3604
  437MOL0     H58948   1.827   6.531   8.127  0.2460 -0.0235  2.5738
  437MOL0     H58949   2.048   6.606   8.075  0.8525 -1.9126  0.3439
  437MOL0     H58950   2.054   6.730   8.209  0.9303 -0.6986  1.4975
  437MOL0     H58951   2.040   6.426   8.225  0.0986 -1.5142  2.7710
  437MOL0     H58952   1.994   6.522   8.352  2.4162  1.9567  2.2408
  437MOL0     H58953   2.231   6.450   8.354 -2.2737  0.5362  3.7506
  437MOL0     H58954   2.224   6.619   8.382 -1.0514  2.5805 -2.8616
  437MOL0     H58955   2.444   6.526   8.399 -0.1236  0.1958 -1.2020
  437MOL0     H58956   2.683   6.572   8.395 -0.2226 -0.5825  0.8364
  437MOL0     H58957   3.054   6.715   8.518 -0.4893  0.6623  0.8983
  437MOL0     H58958   3.292   6.704   8.527 -1.4644 -1.8948  1.1772
  437MOL0     H58959   3.411   6.898   8.297  0.7885 -1.1059 -2.4277
  437MOL0     H58960   3.480   6.848   8.450 -1.7484  1.7452 -0.2741
  437MOL0     H58961   3.711   6.829   8.333  1.0591  2.1894 -2.1591
  437MOL0     H58962   3.626   6.826   8.181  1.6455  0.2818 -0.2003
  437MOL0     H58963   3.565   7.074   8.238  0.3700  2.1924  3.0690
  437MOL0     H58964   3.683   7.048   8.362 -1.1584  0.9576 -0.1894
  437MOL0     H58965   3.739   6.988   8.065 -2.3096  0.9040  1.0891
  437MOL0     H58966   3.853   6.955   8.207 -0.1589  0.3147  0.9305
  437MOL0     H58967   3.839   7.210   8.239  0.7755  0.9890 -0.7820
  437MOL0     H58968   3.751   7.210   8.088 -0.0447 -0.3945 -0.4540
  437MOL0     H58969   4.042   7.082   8.119  0.1512  1.1149  1.2532
  437MOL0     H58970   3.952   7.105   7.964  0.3517 -0.4725 -0.1393
  437MOL0     H58971   4.100   7.304   8.132 -1.4589 -1.0635  0.6736
  437MOL0     H58972   3.976   7.365   8.018 -2.1430 -1.6720 -0.7735
  437MOL0     H58973   4.114   7.238   7.840  2.0726 -0.3500 -0.6347
  437MOL0     H58974   4.181   7.380   7.931 -3.2634  1.1843 -1.9723
  437MOL0     H58975   3.298   6.589   8.111  0.4381 -0.0244  0.0457
  437MOL0     H58976   3.072   6.559   8.108 -0.8468 -2.2449  1.7222
  437MOL0     H58977   2.643   6.729   7.995  1.5203  0.6639  1.1366
  437MOL0     H58978   2.405   6.657   7.992 -0.2070  1.5946  0.8330
  437MOL0     H58979   0.541   7.390   7.901  3.0139 -0.1298  1.3828
  437MOL0     H58980   0.394   7.567   7.863  0.1152 -2.8724 -0.5358
  437MOL0     H58981   0.318   8.083   7.968  2.2144 -0.2906 -1.4222
  437MOL0     H58982   0.113   8.209   7.938 -4.8315 -1.2915 -1.1840
  437MOL0     H58983  -0.047   8.343   7.866  2.0995 -1.6266 -0.1926
  437MOL0     H58984  -0.148   8.204   7.901 -0.7862 -0.6068 -0.4744
  437MOL0     H58985  -0.288   8.263   7.677  0.6755 -0.9126  0.5730
  437MOL0     H58986  -0.201   8.417   7.674  1.3296 -1.8348 -0.2763
  437MOL0     H58987  -0.293   8.481   7.887 -0.3032  1.0634 -2.8493
  437MOL0     H58988  -0.353   8.318   7.925 -1.7952  1.9511  2.3504
  437MOL0     H58989  -0.518   8.327   7.754  1.4387 -0.9413  2.4879
  437MOL0     H58990  -0.551   8.457   7.875  1.0228  0.4083  0.4275
  437MOL0     H58991  -0.428   8.690   7.544  0.9554 -1.5672 -1.0705
  437MOL0     H58992   0.031   8.037   7.572  0.6420  3.9946 -1.3975
  437MOL0     H58993   0.274   7.794   7.546 -2.0451  0.7690  0.8435
  437MOL0     H58994   0.212   7.923   7.443 -0.1766  0.3354 -0.3929
  437MOL0     H58995   0.370   7.943   7.515  0.2071 -1.1254  0.7991
  438MOL0     O58996   0.423   2.721   4.433 -0.3210  0.3406  0.0107
  438MOL0     C58997   0.543   2.712   4.413  0.0613 -0.7500  0.3798
  438MOL0     O58998   0.614   2.600   4.378 -0.4670  0.6800 -0.3124
  438MOL0     C58999   0.550   2.475   4.383 -0.2296 -0.1023  0.0150
  438MOL0     C59000   0.629   2.372   4.438  0.6225  0.5017  0.2663
  438MOL0     C59001   0.567   2.246   4.432 -0.0023 -0.0455  1.1552
  438MOL0     C59002   0.437   2.222   4.388  0.2279  0.2184  0.8243
  438MOL0     O59003   0.373   2.106   4.397 -0.1407  0.4070  0.5328
  438MOL0     C59004   0.415   1.996   4.315 -0.3332 -0.8021  0.7423
  438MOL0     C59005   0.353   2.011   4.176 -0.0954  0.1842  0.4629
  438MOL0     C59006   0.372   1.866   4.117 -0.3965  0.3810  0.0625
  438MOL0     C59007   0.302   1.855   3.977  0.4683  0.7291  0.1898
  438MOL0     C59008   0.177   1.767   3.999 -1.1114  0.4175  0.8434
  438MOL0     C59009   0.213   1.620   4.010  0.3792 -0.3227  0.0080
  438MOL0     C59010   0.091   1.528   3.960  0.6859  0.4983  0.2358
  438MOL0     C59011   0.075   1.390   4.029  1.0810 -0.6991  0.2163
  438MOL0     N59012   0.187   1.296   4.033  0.3365 -0.7262 -0.3706
  438MOL0     C59013   0.293   1.299   4.113  0.9865  0.0376  0.2266
  438MOL0     C59014   0.365   1.196   4.084 -0.3168  0.0721 -0.4058
  438MOL0     C59015   0.491   1.170   4.156  0.9106  0.6600  1.2620
  438MOL0     C59016   0.545   1.038   4.116  0.6492 -1.6340 -0.3171
  438MOL0     C59017   0.689   1.030   4.160  0.6722 -0.4461  0.7441
  438MOL0     C59018   0.770   0.918   4.080  0.4244  0.4039 -0.0163
  438MOL0     O59019   0.912   0.966   4.101  0.4335  0.1406  0.4221
  438MOL0     C59020   0.989   0.909   4.203  0.8711 -0.5561 -0.2887
  438MOL0     C59021   1.009   0.975   4.326  0.2143  0.1058 -0.6014
  438MOL0     C59022   1.110   0.934   4.413  0.3904  0.2908 -0.5684
  438MOL0     C59023   1.183   0.812   4.389  0.0424 -0.2567  0.9679
  438MOL0     C59024   1.292   0.772   4.470  0.2897 -0.0487  0.6260
  438MOL0     O59025   1.374   0.684   4.408  0.4761  0.1191 -0.5153
  438MOL0     C59026   1.460   0.626   4.492 -0.8088 -0.7934 -0.5173
  438MOL0     C59027   1.438   0.492   4.527  0.4881  0.2845 -0.2075
  438MOL0     C59028   1.535   0.428   4.603  0.8314  0.5730 -0.2993
  438MOL0     C59029   1.658   0.490   4.646  0.3989 -0.5834  0.3508
  438MOL0     O59030   1.767   0.432   4.693 -0.2201  0.0337 -0.9009
  438MOL0     C59031   1.768   0.303   4.745  0.1136  0.0890 -0.5437
  438MOL0     C59032   1.811   0.202   4.637  0.2891  0.0085 -0.2187
  438MOL0     C59033   1.964   0.174   4.648 -0.7742 -1.0159 -0.9006
  438MOL0     C59034   2.011   0.069   4.548 -0.3872 -0.7965  0.2227
  438MOL0     C59035   2.166   0.073   4.542 -0.0099 -0.6174  1.1352
  438MOL0     C59036   2.236  -0.029   4.450 -1.0366  0.2298 -0.0837
  438MOL0     C59037   2.365   0.016   4.394 -0.4237  0.5222 -0.7335
  438MOL0     C59038   2.468   0.050   4.504  0.2712  0.4605  0.0078
  438MOL0    Cl59039   2.537  -0.105   4.573  0.3055 -0.1487 -0.0644
  438MOL0     C59040   1.670   0.626   4.617 -0.1335 -0.5273  2.2378
  438MOL0     C59041   1.577   0.690   4.533 -0.1834  0.3879 -0.8318
  438MOL0     O59042   1.297   0.821   4.581 -0.2959 -0.9634  0.3511
  438MOL0     C59043   1.153   0.750   4.266  0.1831  1.0630 -1.0653
  438MOL0     C59044   1.065   0.804   4.177 -0.1167  0.2582 -0.2499
  438MOL0     N59045   0.300   1.121   3.989 -0.0344  0.8812  0.3730
  438MOL0     N59046   0.192   1.181   3.968  0.5808  0.2230  1.0977
  438MOL0     C59047   0.364   2.330   4.344 -0.1555 -0.6951  0.7355
  438MOL0     C59048   0.418   2.457   4.330  1.4098  0.7280  0.4525
  438MOL0     C59049   0.628   2.834   4.442  0.1720  0.1151  0.0905
  438MOL0     C59050   0.564   2.942   4.508 -0.3189  0.5418  0.4291
  438MOL0     C59051   0.621   3.069   4.510  0.3634 -0.0193 -0.9705
  438MOL0     C59052   0.758   3.090   4.474  0.9068 -0.2724 -0.2851
  438MOL0     O59053   0.806   3.206   4.529  0.2897  0.0955 -0.4005
  438MOL0     C59054   0.952   3.215   4.526  0.4180 -1.5983  0.6968
  438MOL0     C59055   1.020   3.335   4.602 -0.0262 -0.1938  0.3710
  438MOL0     C59056   1.175   3.325   4.614  0.4538  0.5076 -0.7360
  438MOL0     C59057   1.226   3.452   4.686 -1.0810  0.3498 -0.1737
  438MOL0     C59058   1.370   3.488   4.652 -0.6039  0.9141  0.6308
  438MOL0     C59059   1.476   3.521   4.602  0.3569  0.3494  0.1203
  438MOL0     C59060   0.824   2.981   4.420 -1.0088 -0.7626 -0.0186
  438MOL0     C59061   0.766   2.856   4.397 -0.4536  0.7463  0.1205
  438MOL0     C59062   0.848   2.748   4.327 -0.1929 -0.4879  0.3176
  438MOL0     H59063   0.732   2.388   4.466  0.6183  0.9021  0.0555
  438MOL0     H59064   0.628   2.167   4.474 -3.1854 -2.6844  1.2256
  438MOL0     H59065   0.523   1.984   4.323 -0.1582 -0.5239 -0.8186
  438MOL0     H59066   0.368   1.908   4.359 -3.0084 -0.0634 -0.4483
  438MOL0     H59067   0.411   2.082   4.116  1.1942  0.7316  2.2737
  438MOL0     H59068   0.249   2.046   4.178 -0.1624 -0.0393  2.2489
  438MOL0     H59069   0.334   1.792   4.188  0.6891  0.6672  0.9642
  438MOL0     H59070   0.480   1.850   4.104 -0.6560 -1.5859 -0.0505
  438MOL0     H59071   0.287   1.958   3.944  1.6139  0.9123  0.1923
  438MOL0     H59072   0.363   1.803   3.902  0.1265  1.9397 -0.9741
  438MOL0     H59073   0.117   1.812   4.079 -0.1400  3.5643 -0.0366
  438MOL0     H59074   0.120   1.777   3.907  1.3980 -0.1832 -0.8765
  438MOL0     H59075   0.304   1.589   3.957 -0.2008 -2.9793  0.4410
  438MOL0     H59076   0.232   1.604   4.117 -0.1187 -0.8873  0.0125
  438MOL0     H59077   0.094   1.511   3.852 -1.4743 -0.8479  0.3308
  438MOL0     H59078   0.002   1.589   3.976  1.2605  1.1129  1.1848
  438MOL0     H59079   0.031   1.406   4.128 -2.4888  1.6554 -1.5125
  438MOL0     H59080  -0.007   1.338   3.979  3.6414 -1.8979 -3.1222
  438MOL0     H59081   0.324   1.373   4.186  2.2021  0.2769 -0.5044
  438MOL0     H59082   0.563   1.250   4.133  2.7769 -1.1974  0.2766
  438MOL0     H59083   0.476   1.162   4.264  3.0761 -1.6566  1.4883
  438MOL0     H59084   0.475   0.974   4.170 -1.8606  1.8679  1.0472
  438MOL0     H59085   0.543   1.016   4.009 -0.5979  2.7343 -1.4017
  438MOL0     H59086   0.708   1.011   4.267  2.8442 -0.0851  0.4763
  438MOL0     H59087   0.746   1.122   4.144  0.1140 -0.3621 -0.8809
  438MOL0     H59088   0.733   0.915   3.977  0.4539 -1.7266  0.0023
  438MOL0     H59089   0.758   0.821   4.129 -2.3911  0.5271 -0.2908
  438MOL0     H59090   0.942   1.056   4.354  1.8294  1.0384  0.7125
  438MOL0     H59091   1.132   0.980   4.509  1.5341  0.8395 -1.0809
  438MOL0     H59092   1.342   0.444   4.509 -0.2093  1.3024  0.6950
  438MOL0     H59093   1.513   0.323   4.619  0.6350  0.7572  0.7093
  438MOL0     H59094   1.840   0.294   4.827  1.3962  2.1033 -1.3693
  438MOL0     H59095   1.670   0.265   4.775 -0.1890 -2.2424 -3.9171
  438MOL0     H59096   1.756   0.108   4.652  1.7118 -0.7480  0.4417
  438MOL0     H59097   1.789   0.236   4.536 -0.3695 -2.7045 -1.0976
  438MOL0     H59098   2.019   0.266   4.625 -0.2921 -1.7979 -3.1287
  438MOL0     H59099   1.992   0.128   4.742 -2.3403  1.3847  0.8704
  438MOL0     H59100   1.981   0.092   4.445 -1.2922 -0.8169  0.4673
  438MOL0     H59101   1.964  -0.027   4.575  2.3611 -2.7165 -1.3622
  438MOL0     H59102   2.204   0.075   4.645 -0.5698 -3.5109  1.4778
  438MOL0     H59103   2.194   0.172   4.506 -0.7753 -0.7759  0.0753
  438MOL0     H59104   2.253  -0.126   4.497 -3.0294 -0.7293 -1.2161
  438MOL0     H59105   2.162  -0.041   4.371 -0.9443 -0.1996 -0.1022
  438MOL0     H59106   2.361   0.101   4.325 -2.2893  1.3701  0.3332
  438MOL0     H59107   2.407  -0.060   4.328 -1.6599 -0.2597 -0.6670
  438MOL0     H59108   2.548   0.107   4.456  0.9457 -1.4056 -1.1729
  438MOL0     H59109   2.425   0.120   4.577 -0.6072  2.5001 -2.2983
  438MOL0     H59110   1.757   0.671   4.664  0.5593 -0.4446  0.9214
  438MOL0     H59111   1.597   0.795   4.517 -1.1041  0.8667  0.8611
  438MOL0     H59112   1.200   0.654   4.248  1.9386  1.0813  2.5356
  438MOL0     H59113   1.051   0.748   4.085 -1.0134  0.4138 -0.2174
  438MOL0     H59114   0.262   2.301   4.320 -0.8011  0.1647  2.3030
  438MOL0     H59115   0.378   2.542   4.276  2.2640  1.9999  1.7181
  438MOL0     H59116   0.469   2.932   4.560  0.9534 -0.9742  2.6234
  438MOL0     H59117   0.574   3.158   4.551  1.7706 -0.2419  1.3331
  438MOL0     H59118   0.976   3.212   4.419 -2.2919 -2.8616  0.0586
  438MOL0     H59119   1.008   3.130   4.565  1.1824 -1.4376 -0.0059
  438MOL0     H59120   0.976   3.345   4.701 -1.3273  2.8060 -0.3900
  438MOL0     H59121   1.000   3.428   4.547  0.6996 -0.1130  0.2383
  438MOL0     H59122   1.226   3.317   4.517  0.9161  2.1765 -0.6533
  438MOL0     H59123   1.198   3.228   4.660  0.1791  0.2981 -1.0349
  438MOL0     H59124   1.171   3.541   4.654  0.1476  0.9123 -0.8087
  438MOL0     H59125   1.221   3.447   4.795 -0.2600 -1.6024 -0.1708
  438MOL0     H59126   1.569   3.544   4.555  1.0851  0.8382  1.7530
  438MOL0     H59127   0.921   3.001   4.375 -1.7260 -1.1829 -1.7895
  438MOL0     H59128   0.806   2.699   4.238  0.0816  0.4171 -0.3261
  438MOL0     H59129   0.945   2.793   4.304  0.4995 -0.5218  2.8427
  438MOL0     H59130   0.874   2.671   4.401  1.8435 -2.8705 -2.5958
  439MOL0     O59131   3.154   8.252   5.877  0.1069  0.4188  1.0650
  439MOL0     C59132   3.189   8.249   5.999 -0.1759 -0.8282  0.1503
  439MOL0     O59133   3.305   8.192   6.045  0.4611  0.3612  0.2569
  439MOL0     C59134   3.413   8.152   5.971  0.1697  0.0105 -0.2538
  439MOL0     C59135   3.531   8.146   6.043 -0.8013 -0.8178 -0.1692
  439MOL0     C59136   3.649   8.101   5.984  0.9016 -0.4128  0.5263
  439MOL0     C59137   3.653   8.082   5.845  0.3394 -0.5159 -0.2815
  439MOL0     O59138   3.775   8.067   5.777 -0.2942  0.6323 -0.5136
  439MOL0     C59139   3.892   8.105   5.853 -0.0492  0.3964  0.2458
  439MOL0     C59140   4.016   8.100   5.766  0.1735 -0.0551  0.3482
  439MOL0     C59141   4.140   8.115   5.852  0.7174  0.4620  0.4900
  439MOL0     C59142   4.267   8.074   5.785 -0.1507 -0.4820 -0.0766
  439MOL0     C59143   4.397   8.109   5.865  0.3168  0.5004  0.0498
  439MOL0     C59144   4.519   8.052   5.793  0.9400 -0.3159  0.7869
  439MOL0     C59145   4.651   8.105   5.853  0.0646  0.6896  0.8634
  439MOL0     C59146   4.702   8.008   5.960 -0.2348 -0.7077 -0.0296
  439MOL0     N59147   4.610   7.992   6.072 -0.1109  0.1039  0.3007
  439MOL0     C59148   4.565   7.868   6.120  0.3201 -0.5168 -0.2219
  439MOL0     C59149   4.516   7.889   6.250 -0.5790  0.8561  0.4900
  439MOL0     C59150   4.445   7.797   6.335 -0.4092  0.0872  0.3542
  439MOL0     C59151   4.400   7.839   6.477 -0.4987 -0.3447  0.3535
  439MOL0     C59152   4.290   7.944   6.460  0.6445 -0.4753  0.6020
  439MOL0     C59153   4.252   7.985   6.602  0.1281  0.2138 -0.1229
  439MOL0     O59154   4.205   7.878   6.684  0.3818 -0.0184 -0.2713
  439MOL0     C59155   4.093   7.912   6.765  0.1615 -0.1116 -0.4206
  439MOL0     C59156   4.087   8.034   6.832 -0.7567 -0.0988 -0.2796
  439MOL0     C59157   3.979   8.074   6.906 -0.0388  0.5418 -0.6333
  439MOL0     C59158   3.870   7.981   6.908  0.4056  0.6228 -0.0271
  439MOL0     C59159   3.753   7.998   6.993 -0.6055 -0.5018  0.4059
  439MOL0     O59160   3.754   8.104   7.078 -1.0429  0.0496 -0.0470
  439MOL0     C59161   3.650   8.143   7.152 -0.2700 -0.4028 -0.1576
  439MOL0     C59162   3.530   8.083   7.179 -0.1355 -0.5081 -0.1875
  439MOL0     C59163   3.429   8.148   7.252  0.8749  0.8633  0.1687
  439MOL0     C59164   3.448   8.275   7.298 -0.0904 -0.7255 -0.1204
  439MOL0     O59165   3.350   8.350   7.348  0.4308 -0.5011  0.2804
  439MOL0     C59166   3.224   8.355   7.267  0.5969 -0.2732  0.3427
  439MOL0     C59167   3.116   8.448   7.323 -0.1178 -1.0970 -0.3118
  439MOL0     C59168   3.157   8.591   7.297 -0.4720  0.6700 -0.7910
  439MOL0     C59169   3.033   8.693   7.301  0.3191 -0.1460  0.1762
  439MOL0     C59170   2.933   8.644   7.185 -0.0107 -0.4732 -1.0544
  439MOL0     C59171   2.820   8.750   7.156  0.2262  0.3151  0.7871
  439MOL0     C59172   2.756   8.710   7.025  0.7895 -0.2402  0.2038
  439MOL0     C59173   2.618   8.784   7.012 -0.4267 -0.0290 -0.2537
  439MOL0    Cl59174   2.540   8.751   6.867  0.1748 -0.3423  0.1091
  439MOL0     C59175   3.577   8.338   7.272  0.1323 -0.1118  0.0420
  439MOL0     C59176   3.674   8.269   7.207 -0.6951 -0.3324 -0.1313
  439MOL0     O59177   3.659   7.919   6.980  0.3002 -0.1608 -0.2533
  439MOL0     C59178   3.880   7.857   6.841 -0.7093  0.2012 -0.7184
  439MOL0     C59179   3.991   7.830   6.771 -0.3757  0.0307  0.6443
  439MOL0     N59180   4.538   8.025   6.269  0.5916  0.0048  0.0920
  439MOL0     N59181   4.583   8.084   6.166  0.0696  0.2189  0.1663
  439MOL0     C59182   3.539   8.096   5.771 -0.0624 -0.0315 -0.4388
  439MOL0     C59183   3.420   8.123   5.831  0.2086 -0.7871 -0.5674
  439MOL0     C59184   3.099   8.306   6.106  0.3130 -0.9595 -0.4788
  439MOL0     C59185   2.958   8.299   6.083 -0.8272  0.6695  0.1792
  439MOL0     C59186   2.873   8.342   6.191  0.4198 -0.5078 -0.1287
  439MOL0     C59187   2.930   8.414   6.299  0.0078  1.4330 -0.9176
  439MOL0     O59188   2.858   8.481   6.396 -0.1933 -0.0955 -0.6854
  439MOL0     C59189   2.724   8.425   6.431  0.8748  0.3916 -0.1866
  439MOL0     C59190   2.660   8.504   6.552  0.7479 -0.0133  0.3358
  439MOL0     C59191   2.731   8.492   6.681 -0.0868 -0.6451  0.1967
  439MOL0     C59192   2.746   8.350   6.740  0.4319  0.3546 -0.1812
  439MOL0     C59193   2.820   8.353   6.871 -0.2994 -0.5175  0.3204
  439MOL0     C59194   2.870   8.326   6.977  0.6858  0.4083 -0.1883
  439MOL0     C59195   3.062   8.411   6.312 -0.2673 -0.4090 -0.6399
  439MOL0     C59196   3.150   8.362   6.220  0.4329  0.9920 -0.5034
  439MOL0     C59197   3.305   8.393   6.242  0.5527  0.4171  0.0123
  439MOL0     H59198   3.546   8.179   6.145  1.4063 -3.6645  0.5526
  439MOL0     H59199   3.729   8.090   6.056  1.2783 -2.3603 -0.1042
  439MOL0     H59200   3.878   8.209   5.883  3.9092  0.5874  1.9663
  439MOL0     H59201   3.900   8.042   5.942  0.7214 -0.7796 -0.6290
  439MOL0     H59202   4.015   8.172   5.684 -0.7898  0.4567  0.7898
  439MOL0     H59203   4.012   8.008   5.708 -0.4032  0.4996 -0.5253
  439MOL0     H59204   4.128   8.044   5.934 -2.1537 -1.5975 -1.5146
  439MOL0     H59205   4.153   8.222   5.871 -0.2475  0.9352 -1.2975
  439MOL0     H59206   4.264   7.966   5.769  1.9804 -0.7180  0.8428
  439MOL0     H59207   4.280   8.135   5.696 -0.2069  0.8042  0.7629
  439MOL0     H59208   4.413   8.215   5.889 -1.0532  0.3936  1.6126
  439MOL0     H59209   4.380   8.049   5.955 -1.1345  1.3079  0.3381
  439MOL0     H59210   4.513   7.944   5.781  1.9829 -0.1873 -1.1905
  439MOL0     H59211   4.509   8.095   5.693 -3.4869 -1.0215  0.6930
  439MOL0     H59212   4.640   8.201   5.904 -0.5843  0.4455  1.2051
  439MOL0     H59213   4.729   8.125   5.780 -0.3080  3.9300  1.2201
  439MOL0     H59214   4.727   7.911   5.916  2.9397  0.7210 -1.6845
  439MOL0     H59215   4.801   8.048   5.987  0.1508 -1.8291  0.2872
  439MOL0     H59216   4.544   7.776   6.067 -3.5923 -0.3258  0.6598
  439MOL0     H59217   4.360   7.754   6.280 -1.0274  2.4535 -0.6765
  439MOL0     H59218   4.518   7.719   6.360 -0.3307  0.7292  2.2699
  439MOL0     H59219   4.365   7.755   6.538 -0.9136  0.5570  1.3830
  439MOL0     H59220   4.482   7.882   6.536 -0.1890 -2.0895  1.2922
  439MOL0     H59221   4.203   7.902   6.408  0.4018  0.8549 -0.1000
  439MOL0     H59222   4.314   8.024   6.390 -2.5830 -1.6238 -2.0987
  439MOL0     H59223   4.173   8.060   6.592 -1.8936 -1.7493  0.2643
  439MOL0     H59224   4.332   8.034   6.658 -1.4364 -0.1247  2.6108
  439MOL0     H59225   4.179   8.091   6.837 -0.8330 -0.0796  1.9714
  439MOL0     H59226   3.980   8.161   6.971 -2.1735 -0.3228  0.6460
  439MOL0     H59227   3.506   7.980   7.155 -1.7650  0.1034 -1.3615
  439MOL0     H59228   3.336   8.099   7.276  0.2579  1.0093 -1.7382
  439MOL0     H59229   3.251   8.372   7.163  0.3708  1.4277  0.5318
  439MOL0     H59230   3.174   8.258   7.261  0.6123 -0.3125  0.8187
  439MOL0     H59231   3.029   8.420   7.262  0.9274  0.1487 -2.4854
  439MOL0     H59232   3.100   8.416   7.426  1.2421 -2.6870 -0.5597
  439MOL0     H59233   3.238   8.617   7.365 -0.3715 -0.1125 -0.6001
  439MOL0     H59234   3.204   8.585   7.198 -0.7330 -4.4637 -0.8704
  439MOL0     H59235   3.075   8.793   7.286 -2.1915  0.6273 -2.8050
  439MOL0     H59236   2.983   8.691   7.398 -1.1724 -1.9039 -0.5521
  439MOL0     H59237   2.882   8.551   7.212  2.3339 -0.5959  4.5027
  439MOL0     H59238   2.990   8.630   7.093 -1.6625  0.1272 -2.2174
  439MOL0     H59239   2.737   8.744   7.228 -3.0441 -1.3705 -2.7601
  439MOL0     H59240   2.856   8.853   7.146 -2.5917  1.2937 -0.0765
  439MOL0     H59241   2.742   8.601   7.025  3.3348 -0.6127  0.4012
  439MOL0     H59242   2.826   8.732   6.945 -0.5494 -1.3893 -1.3537
  439MOL0     H59243   2.555   8.754   7.096 -2.2183  2.6808 -0.4978
  439MOL0     H59244   2.633   8.892   7.026 -3.7424  1.0854 -3.7411
  439MOL0     H59245   3.609   8.432   7.315  2.8181 -1.1557  0.4846
  439MOL0     H59246   3.777   8.300   7.196 -0.8185  0.0522 -0.2160
  439MOL0     H59247   3.801   7.784   6.843  0.0458 -0.6128  0.7261
  439MOL0     H59248   4.003   7.740   6.712 -1.2134 -0.9209  1.8808
  439MOL0     H59249   3.555   8.103   5.664  0.0826 -1.2308 -0.5176
  439MOL0     H59250   3.334   8.137   5.766 -2.1230 -2.7194  1.8375
  439MOL0     H59251   2.923   8.238   6.000  2.3495 -0.9392 -0.1400
  439MOL0     H59252   2.768   8.318   6.202  0.3343  0.0188  0.2627
  439MOL0     H59253   2.726   8.318   6.451  1.4458 -0.0576 -2.4062
  439MOL0     H59254   2.666   8.447   6.341  1.2432  2.0156 -0.0657
  439MOL0     H59255   2.557   8.470   6.566  0.2897  1.1371 -0.0927
  439MOL0     H59256   2.677   8.609   6.525 -0.1858  0.6700  2.2521
  439MOL0     H59257   2.686   8.566   6.747 -1.2176 -2.8246  2.0336
  439MOL0     H59258   2.836   8.516   6.660 -0.6174  1.2901 -0.3584
  439MOL0     H59259   2.649   8.305   6.764  1.8514 -2.1864  1.3794
  439MOL0     H59260   2.789   8.275   6.673 -1.6175  0.5835 -1.8410
  439MOL0     H59261   2.899   8.299   7.077  1.3463  3.1838  0.4495
  439MOL0     H59262   3.101   8.472   6.393 -0.2463 -0.1046 -0.8783
  439MOL0     H59263   3.350   8.433   6.151 -0.7572  0.0979 -0.8167
  439MOL0     H59264   3.307   8.462   6.327 -4.0889  0.4865  0.3583
  439MOL0     H59265   3.350   8.297   6.271 -2.6993 -1.8869 -1.8601
  440MOL0     O59266   5.708   6.547   0.912  0.0486 -0.3774 -0.6313
  440MOL0     C59267   5.628   6.576   1.005 -0.8206  0.2512  0.3660
  440MOL0     O59268   5.511   6.657   0.990 -0.4362  1.1536  0.4562
  440MOL0     C59269   5.495   6.711   0.864  0.0328 -0.1222  0.2934
  440MOL0     C59270   5.591   6.789   0.798  0.0061 -0.0997 -0.5881
  440MOL0     C59271   5.577   6.860   0.680  0.4074  0.5576 -0.8290
  440MOL0     C59272   5.455   6.849   0.612  0.4990 -0.0761 -0.8956
  440MOL0     O59273   5.414   6.899   0.490  0.5041 -0.4642  0.0157
  440MOL0     C59274   5.498   6.993   0.419 -0.3897  0.4108  0.1663
  440MOL0     C59275   5.420   7.114   0.463 -0.2236 -0.5452  0.0453
  440MOL0     C59276   5.490   7.238   0.403 -0.2129 -0.6106 -0.2459
  440MOL0     C59277   5.416   7.315   0.293  0.4816  0.4536  0.2861
  440MOL0     C59278   5.457   7.455   0.284  0.3121 -1.1253 -0.6824
  440MOL0     C59279   5.403   7.523   0.158  0.6663 -0.5476  0.3575
  440MOL0     C59280   5.458   7.666   0.137 -1.0077 -0.2602  0.3826
  440MOL0     C59281   5.391   7.735   0.020 -0.0912 -0.8496 -0.0698
  440MOL0     N59282   5.428   7.871   0.025 -0.2295  0.2624  0.2884
  440MOL0     C59283   5.334   7.972   0.058 -0.2700 -0.9819 -0.6876
  440MOL0     C59284   5.398   8.090   0.036 -0.1156  0.2335 -0.5944
  440MOL0     C59285   5.349   8.218   0.106  0.4167 -0.5384  1.1045
  440MOL0     C59286   5.469   8.257   0.192  0.1155 -0.3529  0.9328
  440MOL0     C59287   5.458   8.393   0.259  0.4462 -0.0677  0.0917
  440MOL0     C59288   5.582   8.425   0.337 -0.2295 -0.4061  0.4925
  440MOL0     O59289   5.560   8.362   0.462 -0.0319  0.2699 -0.2360
  440MOL0     C59290   5.671   8.338   0.543  0.2257 -0.1679 -0.4923
  440MOL0     C59291   5.768   8.242   0.513 -0.0359  0.2911  0.0815
  440MOL0     C59292   5.878   8.231   0.602  0.0029 -0.5676  0.4093
  440MOL0     C59293   5.886   8.298   0.724  0.0798  0.4877 -0.2984
  440MOL0     C59294   6.006   8.280   0.805  0.0366  0.1917  0.6385
  440MOL0     O59295   6.014   8.337   0.929 -0.0446  0.1458  0.1001
  440MOL0     C59296   6.116   8.300   1.014 -0.9480  0.7030  0.2239
  440MOL0     C59297   6.157   8.391   1.105  0.3631  0.0639 -0.3122
  440MOL0     C59298   6.257   8.368   1.202  0.4275 -0.3650 -0.0559
  440MOL0     C59299   6.331   8.249   1.207 -0.1101 -0.0799 -0.5307
  440MOL0     O59300   6.437   8.218   1.289  0.8745 -0.7153 -0.0161
  440MOL0     C59301   6.491   8.312   1.385  0.1140 -0.1439  0.3096
  440MOL0     C59302   6.565   8.253   1.499  0.3682 -0.2733  0.1850
  440MOL0     C59303   6.682   8.167   1.441 -0.6724  0.3367 -0.1735
  440MOL0     C59304   6.739   8.062   1.535 -0.0752 -0.1674  0.6046
  440MOL0     C59305   6.837   7.960   1.476  0.3435 -0.3384  0.1326
  440MOL0     C59306   6.894   7.990   1.330  0.5500  0.1765  0.2420
  440MOL0     C59307   6.979   7.871   1.275 -0.0055  1.3401  0.6908
  440MOL0     C59308   7.124   7.879   1.316 -0.5806 -0.8296  0.4442
  440MOL0    Cl59309   7.196   8.006   1.201 -0.1112  0.2985 -0.4726
  440MOL0     C59310   6.292   8.152   1.113 -0.1474  0.0627 -1.0737
  440MOL0     C59311   6.185   8.177   1.023 -0.8468 -0.4181 -0.1379
  440MOL0     O59312   6.101   8.219   0.748  0.3462 -0.2663 -0.3105
  440MOL0     C59313   5.779   8.385   0.763  0.0701 -0.1071  0.4410
  440MOL0     C59314   5.665   8.404   0.672  0.1219 -0.4058 -0.7436
  440MOL0     N59315   5.529   8.061  -0.010  0.1834 -0.5368  0.5706
  440MOL0     N59316   5.541   7.927  -0.008 -0.4137 -0.4272  0.5202
  440MOL0     C59317   5.361   6.766   0.671 -0.7803  0.6709 -0.0587
  440MOL0     C59318   5.386   6.685   0.785 -0.0297  0.5968  0.1770
  440MOL0     C59319   5.655   6.537   1.149  0.0358  0.2926  0.7634
  440MOL0     C59320   5.542   6.514   1.233 -0.0864 -0.7304 -0.0469
  440MOL0     C59321   5.559   6.458   1.356 -0.1395 -0.3709 -0.5164
  440MOL0     C59322   5.682   6.424   1.404 -0.4038 -0.3314  0.1115
  440MOL0     O59323   5.685   6.390   1.536 -0.6062 -0.8866  0.0022
  440MOL0     C59324   5.795   6.326   1.610 -0.9724  0.0110  0.2288
  440MOL0     C59325   5.812   6.182   1.556 -0.1292 -1.1284 -0.0144
  440MOL0     C59326   5.725   6.086   1.640  0.3052  0.1035  0.4625
  440MOL0     C59327   5.786   5.949   1.679  0.0503  0.0658 -0.2093
  440MOL0     C59328   5.822   5.878   1.553 -0.1950 -0.0544 -1.1329
  440MOL0     C59329   5.868   5.808   1.466 -0.0298  0.0361  0.0097
  440MOL0     C59330   5.792   6.436   1.320  1.4756 -0.8308  0.4571
  440MOL0     C59331   5.776   6.502   1.196 -0.4254  0.2772 -0.7441
  440MOL0     C59332   5.904   6.528   1.129  0.0181 -0.2149  0.4859
  440MOL0     H59333   5.677   6.816   0.858 -3.1463  2.8211  3.1384
  440MOL0     H59334   5.655   6.926   0.643  0.3533 -0.7761 -3.4986
  440MOL0     H59335   5.604   6.980   0.443 -0.9000 -2.1934  1.4263
  440MOL0     H59336   5.488   6.981   0.310  2.9797 -1.6652 -0.0555
  440MOL0     H59337   5.412   7.122   0.572  1.3092  1.3106  0.0701
  440MOL0     H59338   5.320   7.108   0.420  1.5007  0.4709 -4.7866
  440MOL0     H59339   5.588   7.213   0.362 -1.1402 -1.8645 -1.8072
  440MOL0     H59340   5.494   7.307   0.488 -2.6542  1.1663 -1.4484
  440MOL0     H59341   5.418   7.259   0.200  0.4799 -0.5998  0.9088
  440MOL0     H59342   5.310   7.334   0.310 -1.0784 -1.5317 -5.1694
  440MOL0     H59343   5.444   7.519   0.372  1.4280  0.1209 -1.3832
  440MOL0     H59344   5.566   7.462   0.277  0.8144 -2.3227  3.1570
  440MOL0     H59345   5.434   7.462   0.073 -1.3823 -1.2935  0.0933
  440MOL0     H59346   5.294   7.525   0.148  0.7757  1.2545 -1.1781
  440MOL0     H59347   5.566   7.664   0.121 -0.7550  5.1140 -0.3741
  440MOL0     H59348   5.450   7.724   0.229 -1.3868  0.4779 -0.1078
  440MOL0     H59349   5.434   7.686  -0.068  1.1171 -0.3352  0.2122
  440MOL0     H59350   5.282   7.729   0.015 -0.6587  2.9767  3.0729
  440MOL0     H59351   5.238   7.956   0.106  1.0978 -2.7365  1.6317
  440MOL0     H59352   5.327   8.290   0.026 -0.7863 -1.6427  0.4181
  440MOL0     H59353   5.259   8.197   0.165 -1.1977  2.2200 -0.1701
  440MOL0     H59354   5.478   8.174   0.263  0.8436 -0.3816  0.8141
  440MOL0     H59355   5.563   8.263   0.136  1.2515 -0.4023  2.7441
  440MOL0     H59356   5.364   8.402   0.313 -0.0594  1.7785 -0.9758
  440MOL0     H59357   5.450   8.470   0.181 -1.9065  0.0497  0.3800
  440MOL0     H59358   5.586   8.534   0.342 -0.8285 -0.3498 -0.0720
  440MOL0     H59359   5.667   8.381   0.284 -0.5296  1.9213 -2.1760
  440MOL0     H59360   5.751   8.178   0.427 -2.4338 -0.7445  1.2328
  440MOL0     H59361   5.955   8.156   0.584  0.7164  0.6707 -2.0678
  440MOL0     H59362   6.098   8.481   1.110  1.5710  0.9002 -0.5444
  440MOL0     H59363   6.274   8.446   1.275  0.3495 -0.3106 -0.0949
  440MOL0     H59364   6.566   8.372   1.333 -0.0782 -0.5113 -0.4019
  440MOL0     H59365   6.416   8.374   1.436 -0.4792 -3.4332  3.8916
  440MOL0     H59366   6.613   8.325   1.566 -1.0272  0.2518  0.6495
  440MOL0     H59367   6.499   8.182   1.550  0.0065 -1.2318 -1.5509
  440MOL0     H59368   6.644   8.100   1.363  0.5504 -0.8093  0.1596
  440MOL0     H59369   6.762   8.231   1.404 -0.7286  1.7552  2.0153
  440MOL0     H59370   6.660   8.003   1.582  0.4085 -1.5780 -0.2838
  440MOL0     H59371   6.799   8.110   1.613  0.8899 -3.3578  1.9693
  440MOL0     H59372   6.762   7.880   1.472 -0.1308  0.1394 -1.9052
  440MOL0     H59373   6.919   7.939   1.544 -1.3345 -2.3789  1.6941
  440MOL0     H59374   6.802   7.988   1.272  0.9014 -4.1812 -0.5575
  440MOL0     H59375   6.945   8.086   1.330 -1.6688  1.4060 -0.2247
  440MOL0     H59376   6.979   7.868   1.165 -1.9801  2.4507  0.6214
  440MOL0     H59377   6.941   7.772   1.301 -2.0480  1.7377 -0.5789
  440MOL0     H59378   7.136   7.909   1.421 -0.0406  2.2918 -0.4061
  440MOL0     H59379   7.173   7.782   1.302  2.3518  0.3893  1.5485
  440MOL0     H59380   6.339   8.055   1.118 -1.7285 -0.7737  4.0262
  440MOL0     H59381   6.152   8.098   0.955 -0.7457  0.1552 -0.8629
  440MOL0     H59382   5.783   8.433   0.860  2.2567 -0.0490  0.3862
  440MOL0     H59383   5.590   8.476   0.702 -0.3577 -0.2919 -2.1482
  440MOL0     H59384   5.277   6.744   0.607 -0.1195 -1.4055 -0.2940
  440MOL0     H59385   5.313   6.605   0.797 -3.7627  3.2016 -2.8002
  440MOL0     H59386   5.440   6.535   1.201 -0.5027 -0.6421  1.2617
  440MOL0     H59387   5.473   6.444   1.420  1.5001 -2.9661  1.2718
  440MOL0     H59388   5.766   6.324   1.715  2.1259  0.1858  1.1956
  440MOL0     H59389   5.886   6.386   1.603 -0.0956 -1.4190 -1.7376
  440MOL0     H59390   5.918   6.155   1.554  0.2162 -0.0842  1.6333
  440MOL0     H59391   5.779   6.163   1.454 -0.4380  0.4032 -0.2235
  440MOL0     H59392   5.636   6.060   1.581  0.3485 -2.4303  1.3748
  440MOL0     H59393   5.692   6.129   1.735  0.0222 -0.2061  0.5067
  440MOL0     H59394   5.874   5.959   1.742  0.0893 -2.2778  0.2236
  440MOL0     H59395   5.719   5.885   1.738  0.1100  1.4257  1.4119
  440MOL0     H59396   5.906   5.760   1.378 -0.2387 -1.8963  0.9196
  440MOL0     H59397   5.888   6.395   1.351  1.5718 -0.9695 -0.0181
  440MOL0     H59398   5.901   6.445   1.058 -0.5804 -0.5429  0.8832
  440MOL0     H59399   5.905   6.625   1.078 -0.7323  1.7908  3.9384
  440MOL0     H59400   5.995   6.516   1.189  0.0509  0.7253  0.6489
  441MOL0     O59401   6.397  10.749   6.090 -0.2891  0.5104  0.3143
  441MOL0     C59402   6.447  10.723   6.198 -0.0615  0.1204 -0.7101
  441MOL0     O59403   6.382  10.685   6.309  0.8095  0.5450  0.6053
  441MOL0     C59404   6.246  10.662   6.306 -0.1735  0.3390  0.0827
  441MOL0     C59405   6.196  10.542   6.362  0.2277  0.1693 -0.0798
  441MOL0     C59406   6.055  10.516   6.364  0.5823  0.8034 -0.2027
  441MOL0     C59407   5.964  10.612   6.337  0.1790  0.1369  0.2136
  441MOL0     O59408   5.831  10.593   6.379  0.1741 -0.9695 -0.3938
  441MOL0     C59409   5.780  10.691   6.465 -0.3031 -0.3901  0.0240
  441MOL0     C59410   5.663  10.627   6.535  0.8050  0.2322 -0.1481
  441MOL0     C59411   5.563  10.540   6.442 -0.4545  0.7479 -0.1472
  441MOL0     C59412   5.433  10.533   6.528 -0.5631 -0.5417 -0.2674
  441MOL0     C59413   5.319  10.435   6.497 -1.0108  1.3768  0.8038
  441MOL0     C59414   5.283  10.409   6.347  0.6383 -0.9873 -0.0944
  441MOL0     C59415   5.190  10.286   6.330  0.8298 -0.0786 -1.3846
  441MOL0     C59416   5.253  10.150   6.375  0.2015  0.1982  1.2073
  441MOL0     N59417   5.392  10.141   6.312  0.1992  0.6567 -0.2430
  441MOL0     C59418   5.512  10.136   6.379 -0.3985  1.0746  0.0164
  441MOL0     C59419   5.603  10.130   6.293  0.2814 -0.2513 -0.2675
  441MOL0     C59420   5.753  10.138   6.317  0.1797  0.1334  0.1059
  441MOL0     C59421   5.831   9.999   6.329  1.0047  0.4829 -0.2328
  441MOL0     C59422   5.815   9.911   6.197 -0.0253  0.0659  0.1766
  441MOL0     C59423   5.916   9.802   6.219  1.1152 -0.2734 -0.2578
  441MOL0     O59424   6.054   9.847   6.215  0.5586  0.6198  0.4161
  441MOL0     C59425   6.114   9.879   6.101  0.0508  1.0629  0.3451
  441MOL0     C59426   6.058   9.861   5.967  0.6095  0.3747 -0.0149
  441MOL0     C59427   6.122   9.908   5.851  0.0688  0.2798 -0.8254
  441MOL0     C59428   6.255   9.967   5.866 -0.4733 -0.6151  0.0265
  441MOL0     C59429   6.346  10.002   5.745 -0.1553  0.3582 -0.2331
  441MOL0     O59430   6.484  10.029   5.774  0.8494  0.9198 -0.2714
  441MOL0     C59431   6.570  10.079   5.684 -0.0738  0.3159  1.2533
  441MOL0     C59432   6.544  10.125   5.556  0.5442 -0.1753  0.1772
  441MOL0     C59433   6.638  10.170   5.463 -0.5220 -0.5814 -0.4966
  441MOL0     C59434   6.780  10.173   5.506  0.8829 -1.2876  0.5658
  441MOL0     O59435   6.881  10.191   5.408 -0.2311  0.7451  0.0731
  441MOL0     C59436   7.025  10.173   5.463 -0.0124 -0.1817  0.7460
  441MOL0     C59437   7.134  10.200   5.361  0.0119 -0.1554 -0.4117
  441MOL0     C59438   7.155  10.354   5.356 -0.8509  0.0869 -0.0131
  441MOL0     C59439   7.074  10.416   5.232  0.3308 -0.1183  0.3868
  441MOL0     C59440   7.110  10.571   5.214  0.4922  0.9084 -0.7916
  441MOL0     C59441   7.253  10.587   5.174 -0.8467 -0.7312  0.0025
  441MOL0     C59442   7.290  10.736   5.151  0.4239 -0.2966 -0.1600
  441MOL0     C59443   7.306  10.785   5.009 -0.6280 -1.4902  0.5171
  441MOL0    Cl59444   7.153  10.773   4.917  0.0810  0.3410  0.3576
  441MOL0     C59445   6.802  10.123   5.632 -0.3754 -0.0360 -0.7584
  441MOL0     C59446   6.706  10.071   5.717  0.2837  1.0905  0.3929
  441MOL0     O59447   6.288  10.005   5.638 -0.5591 -0.2539 -0.0269
  441MOL0     C59448   6.308   9.984   5.995  0.4042  1.4113 -0.4334
  441MOL0     C59449   6.240   9.939   6.108  0.4401 -0.2169 -0.6072
  441MOL0     N59450   5.538  10.140   6.166  0.4359 -0.7602  0.3392
  441MOL0     N59451   5.406  10.144   6.179 -0.3742  0.1420  0.2243
  441MOL0     C59452   6.014  10.722   6.272  0.7327 -0.4318  0.7476
  441MOL0     C59453   6.148  10.752   6.253  0.1082 -0.1193 -1.1203
  441MOL0     C59454   6.596  10.739   6.202 -0.3193 -0.4052  0.5755
  441MOL0     C59455   6.665  10.760   6.330  1.0148 -0.0714 -0.2928
  441MOL0     C59456   6.798  10.781   6.349 -0.0331  0.8946 -0.1554
  441MOL0     C59457   6.884  10.776   6.236 -0.3826  0.2334 -0.1245
  441MOL0     O59458   7.018  10.797   6.238 -0.0118  0.1353 -0.1381
  441MOL0     C59459   7.082  10.789   6.369 -0.3963 -0.0962 -0.4736
  441MOL0     C59460   7.094  10.928   6.437 -0.2515 -0.2449 -0.5391
  441MOL0     C59461   7.174  10.915   6.566  0.1756  0.4593 -0.7134
  441MOL0     C59462   7.076  10.871   6.673 -0.1353 -0.0530 -0.4539
  441MOL0     C59463   7.136  10.889   6.801  0.3008 -0.8301 -0.0621
  441MOL0     C59464   7.198  10.892   6.904  0.6164 -0.8015 -0.2744
  441MOL0     C59465   6.829  10.752   6.110 -0.3834  0.5999 -0.0752
  441MOL0     C59466   6.688  10.740   6.086 -0.2387  0.6273 -0.7482
  441MOL0     C59467   6.652  10.716   5.945 -0.8824 -0.4350  1.5633
  441MOL0     H59468   6.266  10.470   6.404 -0.7354 -1.8888 -1.7917
  441MOL0     H59469   6.020  10.425   6.410  2.8901  0.8432  1.8128
  441MOL0     H59470   5.857  10.720   6.536  1.8853 -3.0684 -1.0511
  441MOL0     H59471   5.744  10.785   6.422 -5.1741 -0.6114  2.9216
  441MOL0     H59472   5.605  10.701   6.591 -0.3380  0.9136 -2.1381
  441MOL0     H59473   5.696  10.556   6.611  1.5283  2.7568  2.0729
  441MOL0     H59474   5.594  10.437   6.419  3.6155  1.4691  1.2175
  441MOL0     H59475   5.553  10.589   6.345  2.0149 -1.4750 -1.6570
  441MOL0     H59476   5.460  10.511   6.632 -1.5759  1.2465  0.4221
  441MOL0     H59477   5.389  10.633   6.532 -1.9481 -1.1644  0.9800
  441MOL0     H59478   5.361  10.341   6.532 -2.8250  0.1704 -0.1073
  441MOL0     H59479   5.223  10.457   6.544 -1.9508 -0.2779 -0.2468
  441MOL0     H59480   5.239  10.498   6.301 -0.3317 -2.3970 -2.0423
  441MOL0     H59481   5.380  10.398   6.296  0.8904  0.8297 -0.0533
  441MOL0     H59482   5.151  10.279   6.228  0.2577 -1.9751 -1.0745
  441MOL0     H59483   5.107  10.313   6.396  2.4686 -2.0630  1.7183
  441MOL0     H59484   5.264  10.146   6.484 -1.2242 -0.5374  1.3489
  441MOL0     H59485   5.192  10.066   6.340  2.9167 -2.1850  1.7593
  441MOL0     H59486   5.522  10.145   6.487  2.6373 -0.3876 -0.0437
  441MOL0     H59487   5.790  10.201   6.236  0.1761 -1.4841 -1.1914
  441MOL0     H59488   5.771  10.202   6.404 -0.1821  1.0002 -0.4527
  441MOL0     H59489   5.933  10.012   6.364  0.7087 -2.8472  2.3844
  441MOL0     H59490   5.775   9.943   6.404 -2.4946  3.6385 -0.1839
  441MOL0     H59491   5.827   9.976   6.110 -0.9931 -0.8881 -0.7017
  441MOL0     H59492   5.714   9.869   6.194  0.8282 -2.1675  0.5865
  441MOL0     H59493   5.889   9.726   6.145 -2.4500  0.8476 -0.2713
  441MOL0     H59494   5.898   9.749   6.313  0.3839 -1.6799 -1.1526
  441MOL0     H59495   5.960   9.817   5.953  0.7774  0.5742 -2.1800
  441MOL0     H59496   6.086   9.907   5.749 -2.0723  1.8980 -0.1755
  441MOL0     H59497   6.441  10.127   5.522 -0.0221  1.9120  1.7996
  441MOL0     H59498   6.610  10.187   5.360  2.4382 -0.1091 -1.3090
  441MOL0     H59499   7.040  10.241   5.547 -0.9927 -1.6110  2.1356
  441MOL0     H59500   7.032  10.068   5.493 -0.3028  0.1411  1.9979
  441MOL0     H59501   7.229  10.164   5.402  0.5423  0.5492 -0.9766
  441MOL0     H59502   7.111  10.153   5.265 -1.2058 -3.7122  1.4792
  441MOL0     H59503   7.121  10.406   5.446  0.1346 -2.3172  1.8599
  441MOL0     H59504   7.261  10.371   5.332 -0.2312 -3.1821 -0.0569
  441MOL0     H59505   6.970  10.398   5.258  0.3970 -1.3278 -0.0730
  441MOL0     H59506   7.099  10.369   5.136  0.3524  2.1161 -0.7454
  441MOL0     H59507   7.098  10.625   5.309  0.1632  0.7583 -0.7448
  441MOL0     H59508   7.035  10.607   5.143 -2.4493  0.1575  1.6906
  441MOL0     H59509   7.324  10.552   5.250 -0.5310  1.0707  0.5810
  441MOL0     H59510   7.277  10.526   5.086 -1.3802  1.3181 -1.6449
  441MOL0     H59511   7.374  10.765   5.215 -1.0180  0.4875  1.4256
  441MOL0     H59512   7.209  10.798   5.190 -0.0162 -0.5963 -0.5842
  441MOL0     H59513   7.341  10.889   5.019 -1.7772 -0.9923 -0.3785
  441MOL0     H59514   7.385  10.727   4.959 -0.3215 -1.1935  0.6499
  441MOL0     H59515   6.904  10.113   5.669 -0.6163 -0.0885 -0.1016
  441MOL0     H59516   6.726  10.006   5.801  1.3463  0.5119 -0.2862
  441MOL0     H59517   6.408  10.020   6.014  1.4183 -1.2874 -0.1826
  441MOL0     H59518   6.284   9.958   6.206  0.2090 -1.6816 -0.1944
  441MOL0     H59519   5.933  10.792   6.255 -0.2123 -1.5982  0.3318
  441MOL0     H59520   6.176  10.846   6.206  0.2133  1.1438  1.2854
  441MOL0     H59521   6.613  10.753   6.425  1.9084  3.2538  0.5804
  441MOL0     H59522   6.831  10.772   6.453 -1.1575 -0.8595  0.0905
  441MOL0     H59523   7.186  10.757   6.358 -0.7438 -2.0870  1.3472
  441MOL0     H59524   7.032  10.719   6.436 -0.5946  2.3354  2.1038
  441MOL0     H59525   6.998  10.977   6.455 -1.8864 -2.9108 -1.4126
  441MOL0     H59526   7.152  10.999   6.377  2.1041 -0.7430  1.0268
  441MOL0     H59527   7.200  11.015   6.603  2.9071 -1.1195  2.0895
  441MOL0     H59528   7.263  10.852   6.556  2.7341  3.9053 -1.4642
  441MOL0     H59529   6.986  10.932   6.665 -1.2351 -1.1501  2.1077
  441MOL0     H59530   7.042  10.769   6.651 -2.1642  0.1255  1.4499
  441MOL0     H59531   7.261  10.876   6.988  1.0700  0.6594 -0.3123
  441MOL0     H59532   6.895  10.746   6.024  1.5434 -0.9359  1.4365
  441MOL0     H59533   6.587  10.798   5.916 -0.6237 -0.7662 -0.0121
  441MOL0     H59534   6.736  10.719   5.875 -2.4296  1.7119 -0.3466
  441MOL0     H59535   6.595  10.628   5.913  2.3803 -1.4742 -2.2951
  442MOL0     O59536   4.571   1.705   0.205  0.4607 -0.3810 -0.1269
  442MOL0     C59537   4.635   1.604   0.234 -0.0390  0.7680 -0.2978
  442MOL0     O59538   4.582   1.482   0.264  0.5142  0.4957 -0.1871
  442MOL0     C59539   4.459   1.442   0.225  0.5897  0.1501  0.4287
  442MOL0     C59540   4.424   1.330   0.143 -0.5715  0.4163 -0.7383
  442MOL0     C59541   4.290   1.292   0.136  0.0819 -0.0516  0.5386
  442MOL0     C59542   4.189   1.364   0.197  0.3200 -0.9773  1.0483
  442MOL0     O59543   4.066   1.328   0.170 -0.1583  0.5992  0.4274
  442MOL0     C59544   4.005   1.389   0.062  0.0562  0.5421 -1.0369
  442MOL0     C59545   3.888   1.463   0.116  0.9676  0.5633 -0.5015
  442MOL0     C59546   3.812   1.515  -0.009  0.1280  0.3030 -0.6736
  442MOL0     C59547   3.680   1.595   0.025 -0.3272  0.0499  0.1051
  442MOL0     C59548   3.618   1.627  -0.110 -0.1581 -0.3176 -0.2344
  442MOL0     C59549   3.489   1.709  -0.096  0.7806 -0.8343 -0.1150
  442MOL0     C59550   3.425   1.750  -0.231 -0.2519  0.5063  0.9740
  442MOL0     C59551   3.316   1.860  -0.216  0.1989 -0.0268  0.5757
  442MOL0     N59552   3.366   1.993  -0.182  0.2936  0.0421 -0.3744
  442MOL0     C59553   3.450   2.068  -0.262  0.8124  0.3556 -0.6675
  442MOL0     C59554   3.499   2.156  -0.176  0.1518  0.0079 -0.2510
  442MOL0     C59555   3.594   2.263  -0.216 -0.1792  0.5106  0.4638
  442MOL0     C59556   3.693   2.277  -0.104  0.6035 -0.0775  0.8137
  442MOL0     C59557   3.783   2.402  -0.139  0.2123 -0.4739  0.1430
  442MOL0     C59558   3.876   2.435  -0.019 -0.1228  0.3615 -0.7792
  442MOL0     O59559   3.962   2.330   0.032  0.1008  0.3461  0.4898
  442MOL0     C59560   4.050   2.364   0.132  0.0929 -0.8295 -0.0142
  442MOL0     C59561   4.044   2.481   0.205  0.2064  0.4015 -0.1796
  442MOL0     C59562   4.132   2.491   0.311 -0.7973  0.1322  0.7275
  442MOL0     C59563   4.217   2.387   0.352  0.0169  0.7527  1.0641
  442MOL0     C59564   4.312   2.409   0.462 -0.2531 -0.1162  1.1473
  442MOL0     O59565   4.389   2.301   0.502  0.0888 -0.1047 -0.8461
  442MOL0     C59566   4.497   2.305   0.589  1.3434 -0.3882  0.3796
  442MOL0     C59567   4.574   2.184   0.604  0.9028  1.2224 -0.1849
  442MOL0     C59568   4.670   2.167   0.701 -0.9490 -0.0789 -0.7016
  442MOL0     C59569   4.711   2.279   0.772  0.2733  0.6902  0.2672
  442MOL0     O59570   4.812   2.251   0.859 -0.1091 -0.0898  0.2797
  442MOL0     C59571   4.806   2.333   0.977 -0.4509 -0.6672  0.5628
  442MOL0     C59572   4.940   2.305   1.050 -0.4104 -0.0409 -0.8301
  442MOL0     C59573   5.040   2.416   1.008 -0.6681 -0.3423  1.0612
  442MOL0     C59574   5.181   2.412   1.074 -0.6397 -0.2822  0.4829
  442MOL0     C59575   5.269   2.521   1.023 -0.7085  0.8960  0.0969
  442MOL0     C59576   5.412   2.490   1.040 -1.2032  0.1647  0.6723
  442MOL0     C59577   5.453   2.361   0.957  0.3392 -0.4082 -0.1795
  442MOL0     C59578   5.604   2.364   0.957  0.6112 -0.3958  0.9067
  442MOL0    Cl59579   5.691   2.401   1.110 -0.1756 -0.3200  0.0876
  442MOL0     C59580   4.639   2.404   0.756  0.6180  0.9293 -0.2143
  442MOL0     C59581   4.542   2.414   0.665 -0.0298  0.2714  0.4054
  442MOL0     O59582   4.308   2.518   0.514 -0.2377  0.1816 -0.2236
  442MOL0     C59583   4.212   2.262   0.283 -0.2122 -0.2018 -0.0041
  442MOL0     C59584   4.133   2.257   0.168  0.0647  0.0571  0.5984
  442MOL0     N59585   3.439   2.137  -0.047 -0.6448  0.0993  0.9121
  442MOL0     N59586   3.368   2.031  -0.054 -0.2429 -0.0835  0.0611
  442MOL0     C59587   4.217   1.481   0.263 -0.0874 -0.5260 -0.1294
  442MOL0     C59588   4.343   1.515   0.283 -0.7113 -0.2344  0.2629
  442MOL0     C59589   4.777   1.621   0.243 -0.3668 -0.7719  0.5090
  442MOL0     C59590   4.849   1.560   0.138  0.5433 -0.3982 -1.1139
  442MOL0     C59591   4.984   1.579   0.132 -1.2380  0.2801 -0.2346
  442MOL0     C59592   5.057   1.663   0.222  0.3281 -0.3408  1.5133
  442MOL0     O59593   5.190   1.693   0.197 -0.8114 -0.3743 -0.8797
  442MOL0     C59594   5.237   1.695   0.063  0.4018  0.1233 -0.4050
  442MOL0     C59595   5.347   1.804   0.059  0.2724  0.2460  0.7479
  442MOL0     C59596   5.475   1.727   0.112 -0.1376 -0.4472  0.3138
  442MOL0     C59597   5.606   1.809   0.094  0.4050 -0.9719  0.0080
  442MOL0     C59598   5.711   1.738   0.165  0.5305  0.6468 -0.5381
  442MOL0     C59599   5.794   1.692   0.243 -0.2401  0.6737  0.8242
  442MOL0     C59600   4.983   1.736   0.311 -0.7173  0.1268  0.1255
  442MOL0     C59601   4.847   1.703   0.333 -0.3200 -0.8314  0.1267
  442MOL0     C59602   4.783   1.777   0.450  0.2711 -0.2755 -0.7674
  442MOL0     H59603   4.513   1.273   0.117 -1.4097 -0.7665 -1.0954
  442MOL0     H59604   4.270   1.204   0.076 -1.0547  0.9988 -0.6916
  442MOL0     H59605   4.067   1.467   0.017 -0.7011  0.4035 -2.3751
  442MOL0     H59606   3.982   1.315  -0.015 -1.3916  2.3509 -2.4292
  442MOL0     H59607   3.916   1.547   0.181 -1.5477  3.5165 -2.9374
  442MOL0     H59608   3.828   1.394   0.175  4.1874 -1.0692  1.1556
  442MOL0     H59609   3.773   1.436  -0.074  1.5286 -0.4541 -0.6329
  442MOL0     H59610   3.876   1.577  -0.072 -0.8104  1.9243 -0.0839
  442MOL0     H59611   3.606   1.540   0.084 -1.6861  2.9156  1.2825
  442MOL0     H59612   3.714   1.683   0.082  0.1613 -1.1696  1.7870
  442MOL0     H59613   3.685   1.680  -0.178  0.9274 -1.2686  0.0666
  442MOL0     H59614   3.599   1.527  -0.149  1.0572 -0.9039  0.6166
  442MOL0     H59615   3.421   1.660  -0.027 -2.5175  0.4117 -2.2459
  442MOL0     H59616   3.510   1.798  -0.035 -1.7303 -1.0590  1.1834
  442MOL0     H59617   3.381   1.662  -0.278 -3.3805  2.9592 -1.1161
  442MOL0     H59618   3.490   1.781  -0.314 -3.2773 -1.5481 -2.4661
  442MOL0     H59619   3.259   1.864  -0.309 -2.4877 -1.9922  2.0014
  442MOL0     H59620   3.252   1.829  -0.133  0.1580 -3.1836 -0.4922
  442MOL0     H59621   3.478   2.065  -0.367  0.2093  0.2299 -0.8253
  442MOL0     H59622   3.653   2.228  -0.301 -1.1359 -0.0067  0.0018
  442MOL0     H59623   3.536   2.355  -0.232  0.0147  0.5777  0.1266
  442MOL0     H59624   3.633   2.299  -0.015 -1.0523  0.5905 -0.4279
  442MOL0     H59625   3.748   2.186  -0.080  0.8807 -0.2449 -0.4248
  442MOL0     H59626   3.734   2.499  -0.152  1.9369  0.8483  2.7697
  442MOL0     H59627   3.842   2.384  -0.229 -1.2364  2.3285 -1.4982
  442MOL0     H59628   3.814   2.473   0.062  1.0991 -0.7258  0.7041
  442MOL0     H59629   3.936   2.520  -0.054  1.2585 -0.4296 -0.3890
  442MOL0     H59630   3.987   2.564   0.166 -0.7089 -1.4353 -3.1005
  442MOL0     H59631   4.135   2.584   0.365 -0.8368  1.6238 -1.6998
  442MOL0     H59632   4.554   2.096   0.545  2.0760 -0.2983  1.5827
  442MOL0     H59633   4.725   2.076   0.726  1.9690  1.8759  0.5881
  442MOL0     H59634   4.805   2.440   0.951  0.8082 -0.3946  1.5729
  442MOL0     H59635   4.718   2.306   1.037  1.6935 -2.8307  2.9248
  442MOL0     H59636   4.907   2.314   1.154  0.9846  3.4853 -0.5662
  442MOL0     H59637   4.982   2.205   1.062  0.0155  0.1996 -0.2881
  442MOL0     H59638   5.041   2.426   0.899 -3.5074  0.0372  0.9882
  442MOL0     H59639   4.992   2.510   1.038 -1.8585 -0.4196 -0.4286
  442MOL0     H59640   5.218   2.315   1.039  1.6691  1.1342 -1.3717
  442MOL0     H59641   5.170   2.415   1.183 -3.8301 -1.3082  0.2951
  442MOL0     H59642   5.268   2.605   1.092  4.7359  1.4840 -0.1395
  442MOL0     H59643   5.241   2.562   0.925 -2.0783  0.3461  0.2344
  442MOL0     H59644   5.464   2.575   0.994  0.1326 -0.4056  1.0829
  442MOL0     H59645   5.451   2.477   1.141  1.0591 -4.7628 -0.5425
  442MOL0     H59646   5.409   2.366   0.857 -1.2234  0.2889  0.5091
  442MOL0     H59647   5.417   2.264   0.994 -2.0823 -0.6478 -2.7789
  442MOL0     H59648   5.646   2.276   0.909  2.9247  0.3658  1.3901
  442MOL0     H59649   5.638   2.445   0.891  0.6234 -0.0592  1.3234
  442MOL0     H59650   4.646   2.494   0.816  0.6590  1.8415 -1.5455
  442MOL0     H59651   4.495   2.512   0.665  0.2018  0.4167  2.1862
  442MOL0     H59652   4.278   2.177   0.297  2.3246  1.7042  0.3182
  442MOL0     H59653   4.124   2.170   0.104  0.4708 -1.0516  1.9968
  442MOL0     H59654   4.141   1.542   0.312  2.1324  2.0925  0.3274
  442MOL0     H59655   4.369   1.611   0.328  1.3827  0.5459 -2.3550
  442MOL0     H59656   4.801   1.500   0.062  1.3785  0.1763 -2.1111
  442MOL0     H59657   5.040   1.516   0.063 -1.8290  0.1491 -0.6018
  442MOL0     H59658   5.157   1.725  -0.005  0.0614  0.1721  0.0192
  442MOL0     H59659   5.273   1.595   0.034  0.7938 -0.8727  3.1043
  442MOL0     H59660   5.311   1.889   0.117 -0.6762 -0.5048  1.2759
  442MOL0     H59661   5.368   1.842  -0.041 -1.4274  0.5667  0.4954
  442MOL0     H59662   5.488   1.640   0.047 -1.7158 -0.0332 -0.6077
  442MOL0     H59663   5.460   1.695   0.216  1.6603 -3.7457 -0.3052
  442MOL0     H59664   5.626   1.821  -0.013 -1.4007 -2.0867 -0.4971
  442MOL0     H59665   5.598   1.909   0.138 -0.5602 -0.4701 -1.2303
  442MOL0     H59666   5.870   1.654   0.309 -1.4771 -2.8350  0.4145
  442MOL0     H59667   5.037   1.814   0.364 -1.8582  1.5258 -0.7046
  442MOL0     H59668   4.738   1.865   0.402  1.7447 -0.5852 -2.8260
  442MOL0     H59669   4.699   1.726   0.499 -1.9454  3.9889  0.4875
  442MOL0     H59670   4.866   1.804   0.515 -2.0151  1.4296  1.6964
  443MOL0     O59671   1.880  11.416   7.284 -0.8741 -0.5145  0.0196
  443MOL0     C59672   1.787  11.371   7.346  1.1124 -0.0763  0.2903
  443MOL0     O59673   1.774  11.382   7.481 -0.3551 -0.2673 -0.1800
  443MOL0     C59674   1.860  11.454   7.553  0.6607 -0.0196  0.6877
  443MOL0     C59675   1.918  11.576   7.514  0.9618  0.7113 -0.0058
  443MOL0     C59676   2.009  11.643   7.594 -1.3184  0.4438  0.1023
  443MOL0     C59677   2.063  11.585   7.715  0.8979 -0.0087  0.6070
  443MOL0     O59678   2.169  11.635   7.790  0.6460 -0.5667  0.2834
  443MOL0     C59679   2.247  11.747   7.752 -0.3018 -0.2088  0.6967
  443MOL0     C59680   2.356  11.721   7.653  0.6614  0.6158  0.0122
  443MOL0     C59681   2.469  11.644   7.725 -0.1212 -0.2129  1.8319
  443MOL0     C59682   2.596  11.624   7.633 -1.0020  0.6621  0.7820
  443MOL0     C59683   2.686  11.523   7.705 -0.3792  0.7943  0.3489
  443MOL0     C59684   2.816  11.479   7.626 -0.7054 -0.4706 -0.0229
  443MOL0     C59685   2.916  11.398   7.718  0.0627  0.8032  0.6191
  443MOL0     C59686   2.861  11.263   7.757  0.0431  0.5652  0.1318
  443MOL0     N59687   2.964  11.173   7.807  0.8363  0.8120 -0.5195
  443MOL0     C59688   2.953  11.037   7.792 -0.1805 -0.4124  0.2464
  443MOL0     C59689   3.036  10.985   7.888  0.7138 -0.7430  0.2986
  443MOL0     C59690   3.072  10.850   7.912 -0.2437  0.8724 -0.3384
  443MOL0     C59691   2.993  10.798   8.029 -0.3230 -0.2154  0.3514
  443MOL0     C59692   2.956  10.657   8.017 -0.5749  0.2892  0.0301
  443MOL0     C59693   2.879  10.589   8.130  0.5230 -0.3010 -0.0578
  443MOL0     O59694   2.873  10.442   8.106  0.3463  0.9792 -0.5291
  443MOL0     C59695   2.769  10.400   8.028 -0.3570 -0.7777 -0.0818
  443MOL0     C59696   2.765  10.266   7.990 -0.4401 -0.6262  0.5061
  443MOL0     C59697   2.664  10.213   7.915 -0.2718 -0.3466  1.3692
  443MOL0     C59698   2.555  10.298   7.873  0.5089 -0.0354  1.0200
  443MOL0     C59699   2.432  10.257   7.799  0.4346 -0.2423 -0.2343
  443MOL0     O59700   2.372  10.351   7.727  0.3139 -0.2459 -1.0461
  443MOL0     C59701   2.239  10.347   7.693  0.4285 -0.0411  0.4246
  443MOL0     C59702   2.152  10.234   7.701  0.0679 -0.4395  0.3953
  443MOL0     C59703   2.020  10.240   7.668  0.2173 -0.1592 -0.4108
  443MOL0     C59704   1.972  10.369   7.635 -0.4338  0.1061  1.5268
  443MOL0     O59705   1.844  10.362   7.595  0.5663 -0.4790 -0.1289
  443MOL0     C59706   1.792  10.459   7.501  0.2635 -0.3575 -0.3548
  443MOL0     C59707   1.691  10.403   7.404  0.3606  0.5563  0.6613
  443MOL0     C59708   1.561  10.363   7.477 -0.4761 -0.1017  0.1501
  443MOL0     C59709   1.483  10.285   7.370  0.3372  0.8774  0.2649
  443MOL0     C59710   1.336  10.264   7.415  0.5753 -0.3009  0.0671
  443MOL0     C59711   1.256  10.197   7.308 -0.1188 -0.3201  0.0032
  443MOL0     C59712   1.100  10.201   7.334 -0.4074  0.6686  0.7986
  443MOL0     C59713   1.010  10.097   7.256  0.2347  0.4873 -0.9166
  443MOL0    Cl59714   1.007  10.116   7.075  0.2654 -0.0922  0.4789
  443MOL0     C59715   2.054  10.492   7.620  0.3092  0.4777  0.2698
  443MOL0     C59716   2.192  10.474   7.656  0.0390  0.0267  0.7608
  443MOL0     O59717   2.398  10.145   7.812 -0.5347  0.2401 -0.2345
  443MOL0     C59718   2.559  10.432   7.902  0.0619 -0.3061 -0.3051
  443MOL0     C59719   2.662  10.484   7.974  0.9935 -0.6190 -1.1233
  443MOL0     N59720   3.084  11.089   7.968  0.1339  0.6516  0.5469
  443MOL0     N59721   3.045  11.198   7.921  0.5062  0.1104 -0.1572
  443MOL0     C59722   2.008  11.466   7.758  0.0721  0.1219 -0.2844
  443MOL0     C59723   1.907  11.402   7.678  0.2892  0.0026 -0.5745
  443MOL0     C59724   1.698  11.280   7.265 -0.0085  0.0036 -0.6320
  443MOL0     C59725   1.615  11.188   7.331  0.1626  0.3595  0.6555
  443MOL0     C59726   1.535  11.094   7.265  0.3339 -0.6439  0.0871
  443MOL0     C59727   1.529  11.099   7.127 -0.0572  0.3875  0.4402
  443MOL0     O59728   1.460  11.015   7.038  0.4951  0.1375 -0.3883
  443MOL0     C59729   1.328  10.975   7.087  0.5305  0.3531 -0.3339
  443MOL0     C59730   1.217  11.078   7.042 -0.4350 -0.3444  1.2064
  443MOL0     C59731   1.080  11.020   7.045 -1.3077  0.5570  0.5630
  443MOL0     C59732   0.973  11.126   7.018  0.4966  1.1630 -0.1041
  443MOL0     C59733   0.979  11.173   6.881  1.3790 -1.2456  0.0144
  443MOL0     C59734   0.990  11.230   6.771  0.0225 -0.0305  0.0130
  443MOL0     C59735   1.612  11.189   7.055  0.7486  0.3245  0.1760
  443MOL0     C59736   1.702  11.270   7.120  0.0805  0.7887  0.3248
  443MOL0     C59737   1.775  11.365   7.034  0.7401  0.0157 -0.4415
  443MOL0     H59738   1.891  11.615   7.417 -0.2541 -0.2047 -0.0665
  443MOL0     H59739   2.044  11.739   7.559  0.0024 -0.2793 -0.6216
  443MOL0     H59740   2.182  11.832   7.727  1.2472  1.4080  1.8719
  443MOL0     H59741   2.304  11.775   7.842  1.8497  3.3867 -1.5214
  443MOL0     H59742   2.390  11.818   7.616  2.2806 -0.4591 -1.4868
  443MOL0     H59743   2.330  11.648   7.576  1.2849 -1.1374  1.3950
  443MOL0     H59744   2.435  11.542   7.748  1.6879 -1.1920  0.4148
  443MOL0     H59745   2.499  11.710   7.806  1.1937  0.2986  0.9602
  443MOL0     H59746   2.568  11.577   7.538  0.8726  2.5471 -0.7985
  443MOL0     H59747   2.645  11.720   7.614 -1.5935  0.8745  0.3137
  443MOL0     H59748   2.730  11.562   7.797  2.6384 -5.0900  1.9164
  443MOL0     H59749   2.637  11.430   7.733 -0.1011  1.6733  4.2808
  443MOL0     H59750   2.784  11.425   7.537  1.0297 -1.7102  0.0684
  443MOL0     H59751   2.859  11.575   7.596 -0.6530 -0.2443  0.7596
  443MOL0     H59752   2.928  11.459   7.808  0.7432 -0.6301  1.5402
  443MOL0     H59753   3.012  11.384   7.668  0.9362 -0.4437  2.5351
  443MOL0     H59754   2.775  11.286   7.821 -0.2298 -0.3169  0.0937
  443MOL0     H59755   2.819  11.212   7.669  2.3092 -1.7828  0.3010
  443MOL0     H59756   2.891  10.994   7.714  0.4751  0.0894 -0.5795
  443MOL0     H59757   3.050  10.791   7.823  0.1919  1.5579 -0.8998
  443MOL0     H59758   3.180  10.837   7.923 -0.5457 -0.7662  1.2669
  443MOL0     H59759   3.060  10.822   8.112 -0.0446  2.2209 -0.4985
  443MOL0     H59760   2.901  10.857   8.040 -0.9082 -0.8448 -0.9824
  443MOL0     H59761   3.045  10.606   7.980 -0.7178  1.4506 -2.0656
  443MOL0     H59762   2.890  10.669   7.930  1.4271 -0.9578 -1.7725
  443MOL0     H59763   2.789  10.649   8.141  0.3398 -0.2816 -1.5107
  443MOL0     H59764   2.942  10.610   8.218 -1.1636 -0.4742  1.2419
  443MOL0     H59765   2.842  10.200   8.026 -0.6912 -1.1738  0.0556
  443MOL0     H59766   2.656  10.110   7.880  0.3392  0.0988 -0.1775
  443MOL0     H59767   2.175  10.128   7.714  1.2207  0.0651  3.2987
  443MOL0     H59768   1.952  10.156   7.656  0.3316 -0.0558 -1.9172
  443MOL0     H59769   1.752  10.543   7.558 -0.5990 -1.0426  0.0656
  443MOL0     H59770   1.877  10.491   7.440 -1.2966  3.4344 -0.8603
  443MOL0     H59771   1.670  10.485   7.334 -2.2852 -0.0741  0.5905
  443MOL0     H59772   1.742  10.325   7.347  0.2125 -0.0789  1.3861
  443MOL0     H59773   1.576  10.296   7.562 -0.4659 -0.5686 -0.2125
  443MOL0     H59774   1.508  10.453   7.511  0.8173  1.3799 -1.5755
  443MOL0     H59775   1.535  10.192   7.347 -0.6788  0.1177  0.9351
  443MOL0     H59776   1.467  10.348   7.282 -2.2588  0.1011  0.1135
  443MOL0     H59777   1.293  10.363   7.435  0.0833 -0.2928 -0.9951
  443MOL0     H59778   1.331  10.198   7.502  0.5113 -2.8562 -1.7607
  443MOL0     H59779   1.269  10.244   7.210 -2.6911 -1.3229 -0.9008
  443MOL0     H59780   1.301  10.097   7.307 -0.4212 -0.4506 -0.9835
  443MOL0     H59781   1.066  10.304   7.316 -0.9518 -0.2009 -4.4150
  443MOL0     H59782   1.082  10.154   7.431 -0.9136 -1.1445 -0.1427
  443MOL0     H59783   1.050   9.996   7.269  1.9556  0.9336 -2.4155
  443MOL0     H59784   0.906  10.104   7.290  1.0148  0.2319  1.7246
  443MOL0     H59785   2.018  10.592   7.599 -2.0587 -0.5003 -0.7070
  443MOL0     H59786   2.255  10.562   7.658  1.7511 -1.1061 -0.3124
  443MOL0     H59787   2.485  10.503   7.866 -0.6766 -1.4890 -1.1970
  443MOL0     H59788   2.644  10.590   7.987  1.0060 -0.8438  1.3289
  443MOL0     H59789   2.039  11.410   7.846 -0.2495  1.7950  0.9476
  443MOL0     H59790   1.854  11.315   7.716  0.2591  0.5033  0.5471
  443MOL0     H59791   1.596  11.184   7.438 -2.3399  0.6096  0.2899
  443MOL0     H59792   1.467  11.037   7.327 -0.5307 -0.0909 -0.3280
  443MOL0     H59793   1.318  10.939   7.190 -1.3168  0.1243 -0.5629
  443MOL0     H59794   1.306  10.883   7.032 -2.8744  1.4506 -1.0412
  443MOL0     H59795   1.244  11.106   6.940 -0.8894  0.4283  1.2915
  443MOL0     H59796   1.233  11.170   7.099  2.6232 -0.4371  0.6598
  443MOL0     H59797   1.059  10.988   7.147 -3.0516 -0.4418 -0.0599
  443MOL0     H59798   1.068  10.947   6.965 -0.4549 -0.6991  1.5489
  443MOL0     H59799   0.874  11.086   7.038 -0.2871  2.2488 -1.5458
  443MOL0     H59800   0.990  11.196   7.100  1.0487 -0.8496  1.5758
  443MOL0     H59801   0.976  11.279   6.677 -1.6996 -0.8390 -0.1949
  443MOL0     H59802   1.608  11.174   6.948 -1.9785  0.8969  0.1210
  443MOL0     H59803   1.702  11.390   6.955  1.1094  0.9401 -0.5071
  443MOL0     H59804   1.811  11.460   7.074  1.8224  0.7964 -3.0201
  443MOL0     H59805   1.866  11.324   6.990  0.1030  2.1842 -4.2927
  444MOL0     O59806   9.869   8.461   3.479 -0.4130 -0.4361 -0.5294
  444MOL0     C59807   9.911   8.462   3.594  0.4525  0.7781  0.5753
  444MOL0     O59808   9.998   8.376   3.638 -0.7767  1.0405 -0.6434
  444MOL0     C59809  10.035   8.274   3.555  0.0835 -0.2401 -0.6329
  444MOL0     C59810   9.978   8.154   3.577 -0.1194 -0.1730 -0.8796
  444MOL0     C59811   9.995   8.056   3.488 -0.1230  0.6322 -0.5520
  444MOL0     C59812  10.084   8.075   3.377 -0.1230  1.2481  0.0806
  444MOL0     O59813  10.116   7.967   3.289 -0.1291  0.1215 -0.0796
  444MOL0     C59814  10.013   7.865   3.270  0.1681 -0.9685  1.4605
  444MOL0     C59815  10.029   7.796   3.131  0.4055  0.1988 -0.6949
  444MOL0     C59816  10.133   7.680   3.143  0.5250  0.3934 -0.7976
  444MOL0     C59817  10.269   7.732   3.162  0.2127  1.4178 -0.4564
  444MOL0     C59818  10.369   7.611   3.165  0.3269 -0.3710  0.1958
  444MOL0     C59819  10.507   7.671   3.133 -0.0175  0.4494 -0.2202
  444MOL0     C59820  10.576   7.747   3.245  0.6052  0.3760 -0.5949
  444MOL0     C59821  10.709   7.806   3.195  0.1422  0.5344 -0.0716
  444MOL0     N59822  10.702   7.947   3.147 -0.0202 -0.4325  0.0617
  444MOL0     C59823  10.648   8.053   3.214  0.4101 -0.5707 -0.3861
  444MOL0     C59824  10.579   8.128   3.129 -0.6987 -0.6423 -0.7833
  444MOL0     C59825  10.491   8.244   3.163  0.4125 -0.2744 -0.3147
  444MOL0     C59826  10.551   8.381   3.130 -0.5016  0.5768  0.2508
  444MOL0     C59827  10.470   8.507   3.161 -0.9008 -0.2345 -0.4391
  444MOL0     C59828  10.351   8.512   3.061  0.2579 -0.5800  0.4264
  444MOL0     O59829  10.391   8.508   2.924  0.7202  0.0206 -0.4097
  444MOL0     C59830  10.465   8.612   2.887 -0.0301 -1.3912  0.5798
  444MOL0     C59831  10.410   8.740   2.862  0.0083  0.9400  0.5565
  444MOL0     C59832  10.480   8.849   2.804  0.4376  0.0956  0.0208
  444MOL0     C59833  10.613   8.838   2.795 -0.4014 -0.3384 -0.4855
  444MOL0     C59834  10.689   8.952   2.756 -0.5558 -0.0294  0.5308
  444MOL0     O59835  10.624   9.054   2.713 -0.0385 -0.8017  0.4739
  444MOL0     C59836  10.691   9.174   2.681  0.2985  0.1013  0.0818
  444MOL0     C59837  10.692   9.219   2.550 -0.4769 -0.8009 -0.2621
  444MOL0     C59838  10.759   9.338   2.525  0.0410 -0.1167 -0.1460
  444MOL0     C59839  10.826   9.410   2.620 -0.3494  0.3899  1.1900
  444MOL0     O59840  10.889   9.518   2.575 -0.5376  0.2843 -0.2094
  444MOL0     C59841  10.925   9.626   2.666  0.2047  0.2379 -0.8500
  444MOL0     C59842  10.991   9.738   2.590  0.4601  0.0902  0.6296
  444MOL0     C59843  11.141   9.687   2.576  0.3923  0.2643 -0.1239
  444MOL0     C59844  11.222   9.765   2.478  1.3845  0.2667 -0.0463
  444MOL0     C59845  11.223   9.919   2.499  0.3144 -0.5293 -0.6941
  444MOL0     C59846  11.319   9.988   2.403 -0.4905 -1.3747  0.0686
  444MOL0     C59847  11.251  10.104   2.323  0.6009  0.2115 -0.0812
  444MOL0     C59848  11.359  10.186   2.258  0.3773 -0.6146 -0.0368
  444MOL0    Cl59849  11.259  10.307   2.163  0.7335  0.0052 -0.2699
  444MOL0     C59850  10.832   9.361   2.746  0.4611 -0.1906 -1.3017
  444MOL0     C59851  10.769   9.233   2.776  0.0441 -1.1802 -0.6202
  444MOL0     O59852  10.813   8.949   2.781  0.7801 -0.4659  0.1885
  444MOL0     C59853  10.682   8.718   2.835 -0.4702  0.0836  0.1448
  444MOL0     C59854  10.609   8.600   2.868  0.5563  0.8181 -0.2214
  444MOL0     N59855  10.586   8.069   3.014 -0.1359  0.0332 -0.5503
  444MOL0     N59856  10.664   7.964   3.017 -0.5770 -0.6907  0.0121
  444MOL0     C59857  10.162   8.196   3.374 -0.0902 -0.5384  1.3595
  444MOL0     C59858  10.122   8.303   3.457 -0.6381 -0.9263 -0.1320
  444MOL0     C59859   9.863   8.562   3.689 -0.1652  0.4569 -0.4818
  444MOL0     C59860   9.935   8.575   3.807  0.0048  0.1321  0.6018
  444MOL0     C59861   9.908   8.675   3.895  0.5199  0.6196  0.4365
  444MOL0     C59862   9.807   8.760   3.884  1.0518 -0.0495  1.0981
  444MOL0     O59863   9.771   8.846   3.984 -0.3322  0.0209 -0.0112
  444MOL0     C59864   9.683   8.960   3.953  0.3625  0.3971 -0.4334
  444MOL0     C59865   9.540   8.927   3.981  0.1408  0.8303  0.0510
  444MOL0     C59866   9.450   9.042   3.969  0.4164  0.3314 -0.8645
  444MOL0     C59867   9.402   9.061   3.822  0.2700 -0.9351  0.4920
  444MOL0     C59868   9.487   9.137   3.728 -0.4567  1.2815  0.2448
  444MOL0     C59869   9.559   9.195   3.643  0.3019  0.4297 -0.6750
  444MOL0     C59870   9.731   8.759   3.760 -0.4779  0.8989  0.2365
  444MOL0     C59871   9.759   8.659   3.665  0.3437  0.5022 -0.7457
  444MOL0     C59872   9.671   8.655   3.544  0.4637  0.3732 -0.3495
  444MOL0     H59873   9.888   8.154   3.638 -0.8241 -0.1755 -1.8788
  444MOL0     H59874   9.944   7.962   3.502  1.1876 -0.5687 -3.0804
  444MOL0     H59875  10.009   7.800   3.359 -0.1830 -0.6823  1.6567
  444MOL0     H59876   9.919   7.920   3.264 -0.5281 -2.2489 -0.4041
  444MOL0     H59877  10.067   7.864   3.053  0.3783  2.2392  0.9652
  444MOL0     H59878   9.928   7.760   3.109  0.3406  0.3164 -0.5927
  444MOL0     H59879  10.122   7.631   3.046  1.4972  2.5505 -2.0711
  444MOL0     H59880  10.093   7.611   3.218  2.0392 -1.7344 -1.8436
  444MOL0     H59881  10.301   7.815   3.098  0.9255  0.7550 -0.9892
  444MOL0     H59882  10.284   7.775   3.261  4.2489 -0.6951  0.0396
  444MOL0     H59883  10.376   7.567   3.265  0.0770  1.9372  1.3159
  444MOL0     H59884  10.351   7.534   3.090  0.5518  2.5439 -3.1352
  444MOL0     H59885  10.581   7.596   3.103  0.3779  0.8261 -0.1934
  444MOL0     H59886  10.490   7.740   3.050 -1.8512  1.5160  0.9734
  444MOL0     H59887  10.592   7.674   3.324 -2.3561  0.1327 -0.0903
  444MOL0     H59888  10.508   7.823   3.284 -2.1031 -3.2235  2.4771
  444MOL0     H59889  10.768   7.799   3.287 -2.3338 -0.4197  1.5786
  444MOL0     H59890  10.748   7.739   3.118  1.4092  2.4222 -1.1475
  444MOL0     H59891  10.651   8.074   3.321  1.8321  2.7804 -0.9444
  444MOL0     H59892  10.409   8.245   3.089 -0.1061  3.6515  0.1161
  444MOL0     H59893  10.458   8.243   3.267  2.9325 -1.2218  0.5382
  444MOL0     H59894  10.640   8.387   3.194  1.2880 -0.0401 -2.0340
  444MOL0     H59895  10.586   8.371   3.027 -2.2284 -0.2711 -0.2743
  444MOL0     H59896  10.537   8.592   3.145  1.3275 -2.0619 -1.3509
  444MOL0     H59897  10.447   8.522   3.267 -0.6162 -1.9775 -0.0995
  444MOL0     H59898  10.285   8.596   3.082 -0.6012 -1.0124 -0.4390
  444MOL0     H59899  10.283   8.427   3.072 -0.4948 -0.7672 -3.9094
  444MOL0     H59900  10.303   8.749   2.878 -0.1113  0.4044  0.1013
  444MOL0     H59901  10.417   8.935   2.782  0.7240  0.4640  0.6075
  444MOL0     H59902  10.657   9.174   2.458  0.1917 -2.0872  0.0970
  444MOL0     H59903  10.753   9.384   2.427  2.5646  1.8679  0.5434
  444MOL0     H59904  10.844   9.680   2.716  0.9940 -0.7770  1.6819
  444MOL0     H59905  10.983   9.598   2.753  0.8329 -0.5445 -1.5067
  444MOL0     H59906  10.948   9.741   2.489 -0.1718 -0.1188  0.8919
  444MOL0     H59907  10.990   9.835   2.641  6.2951  0.1902  1.2438
  444MOL0     H59908  11.194   9.674   2.670 -2.6752 -1.1516  1.5592
  444MOL0     H59909  11.137   9.587   2.533  0.5383  0.8570 -1.5651
  444MOL0     H59910  11.180   9.748   2.378 -0.3537  1.0404  0.5094
  444MOL0     H59911  11.318   9.712   2.479  0.9824 -0.5239 -1.1788
  444MOL0     H59912  11.261   9.937   2.600  2.4040 -0.8180 -1.3814
  444MOL0     H59913  11.119   9.955   2.494  0.6899  0.5761 -0.8630
  444MOL0     H59914  11.393  10.029   2.472 -0.1102 -0.5947 -0.7922
  444MOL0     H59915  11.375   9.914   2.345  0.3966 -0.4501 -0.2774
  444MOL0     H59916  11.189  10.165   2.389 -2.5678 -4.6060  2.0178
  444MOL0     H59917  11.184  10.052   2.254 -1.3628  0.5615  1.4564
  444MOL0     H59918  11.427  10.228   2.333  0.0585  0.3326 -0.2729
  444MOL0     H59919  11.410  10.118   2.190 -0.1100 -1.7803  0.7327
  444MOL0     H59920  10.886   9.412   2.825 -0.6035  0.4020 -0.9380
  444MOL0     H59921  10.754   9.201   2.879 -2.7878 -0.0781 -0.5967
  444MOL0     H59922  10.790   8.727   2.841 -0.5076  3.1816 -1.8589
  444MOL0     H59923  10.661   8.505   2.874  0.5360  0.8265  0.0827
  444MOL0     H59924  10.237   8.211   3.296 -0.4752 -2.1338  0.6322
  444MOL0     H59925  10.158   8.404   3.437 -1.9404  1.1441  5.8214
  444MOL0     H59926  10.022   8.513   3.823  0.5923  0.9557  0.6444
  444MOL0     H59927   9.961   8.700   3.987 -1.8052  2.7258  1.3149
  444MOL0     H59928   9.688   8.995   3.850  1.8116  1.4654 -0.0341
  444MOL0     H59929   9.705   9.041   4.024 -0.2250 -0.1107  0.3414
  444MOL0     H59930   9.542   8.877   4.079 -0.1111 -0.7545 -0.7183
  444MOL0     H59931   9.517   8.846   3.911  2.3251 -1.4289  1.7635
  444MOL0     H59932   9.498   9.132   4.009 -0.3073  0.8266 -1.0971
  444MOL0     H59933   9.366   9.032   4.038 -0.7141  3.7199 -1.5600
  444MOL0     H59934   9.372   8.962   3.787 -0.1337 -2.3173  4.2768
  444MOL0     H59935   9.306   9.114   3.828  0.0511 -1.4406  1.7699
  444MOL0     H59936   9.620   9.232   3.563 -1.4630  2.3830 -1.1859
  444MOL0     H59937   9.648   8.821   3.728 -1.1754 -0.5027 -0.7657
  444MOL0     H59938   9.618   8.559   3.538  1.0488 -0.0019  0.2455
  444MOL0     H59939   9.591   8.728   3.553 -2.6037 -2.4229 -2.5112
  444MOL0     H59940   9.726   8.667   3.450 -1.3800 -0.0769 -1.5511
  445MOL0     O59941   3.056   9.468   0.717  0.3864 -0.8250 -0.0784
  445MOL0     C59942   3.099   9.394   0.807 -0.1239  0.0244  0.7127
  445MOL0     O59943   3.040   9.345   0.912 -0.1899  0.1005 -0.2650
  445MOL0     C59944   2.904   9.364   0.922 -0.6107 -0.3356 -0.6695
  445MOL0     C59945   2.840   9.486   0.905 -0.7679  0.1648 -0.4056
  445MOL0     C59946   2.711   9.512   0.949 -0.2205  0.6921 -0.0252
  445MOL0     C59947   2.629   9.409   1.008  0.6685  0.3914 -0.7197
  445MOL0     O59948   2.509   9.411   1.065  0.1118  0.3087  0.2080
  445MOL0     C59949   2.474   9.539   1.127 -1.0029  0.7761  0.2594
  445MOL0     C59950   2.321   9.565   1.144 -0.6971 -0.8848 -0.5371
  445MOL0     C59951   2.252   9.488   1.247  0.7880  0.7463  0.1141
  445MOL0     C59952   2.303   9.524   1.384  0.8366 -0.9959  0.3478
  445MOL0     C59953   2.210   9.460   1.485 -0.1137 -0.6097 -0.7301
  445MOL0     C59954   2.267   9.474   1.637 -0.3024  0.1727  1.8681
  445MOL0     C59955   2.286   9.621   1.670 -0.0292 -0.4598  0.0032
  445MOL0     C59956   2.436   9.647   1.702 -0.2577  0.0113 -0.0216
  445MOL0     N59957   2.453   9.779   1.768  0.2159  0.7724  0.6565
  445MOL0     C59958   2.528   9.883   1.723  0.7814  0.8446  0.2492
  445MOL0     C59959   2.532   9.981   1.819  1.7968 -0.0654  0.4309
  445MOL0     C59960   2.612  10.111   1.817  0.0789  0.8843 -0.4900
  445MOL0     C59961   2.709  10.093   1.931  0.2588  0.6009 -0.6877
  445MOL0     C59962   2.806  10.216   1.933  0.0452  0.0779  0.2788
  445MOL0     C59963   2.916  10.208   2.040  0.3822  0.4455 -0.3569
  445MOL0     O59964   3.010  10.311   2.003  0.6893  0.0340  0.4103
  445MOL0     C59965   3.097  10.354   2.091  0.7367  0.1028 -0.0893
  445MOL0     C59966   3.147  10.479   2.067  1.4159 -0.8107 -0.3480
  445MOL0     C59967   3.244  10.529   2.158 -0.4567  0.3090  0.5423
  445MOL0     C59968   3.288  10.456   2.271 -0.3071 -0.2744  0.4785
  445MOL0     C59969   3.385  10.509   2.373 -0.0949 -0.1044 -0.4722
  445MOL0     O59970   3.409  10.438   2.487 -0.1261  0.5947 -0.1464
  445MOL0     C59971   3.483  10.493   2.591 -0.2197  0.1988  0.8006
  445MOL0     C59972   3.577  10.418   2.659 -0.0624 -0.6428 -0.2976
  445MOL0     C59973   3.667  10.473   2.756  0.2307  0.8668  0.1958
  445MOL0     C59974   3.672  10.609   2.778  0.2919  0.4352 -0.0329
  445MOL0     O59975   3.777  10.661   2.851 -0.4014  0.8669 -0.1094
  445MOL0     C59976   3.744  10.747   2.962 -0.4190 -0.1178  0.0735
  445MOL0     C59977   3.685  10.674   3.081 -0.2553  0.2608 -0.2048
  445MOL0     C59978   3.739  10.534   3.109 -0.2460 -0.3995 -0.0658
  445MOL0     C59979   3.900  10.537   3.113  0.0661 -0.8585 -0.6065
  445MOL0     C59980   3.952  10.614   3.240  0.0944  0.0747  0.1244
  445MOL0     C59981   4.106  10.636   3.225  0.0605 -0.5727 -0.0544
  445MOL0     C59982   4.167  10.695   3.350  0.3521  0.1454 -0.7277
  445MOL0     C59983   4.301  10.762   3.324 -0.0553 -0.2347  0.5603
  445MOL0    Cl59984   4.435  10.645   3.284  0.0404  0.1116  0.1995
  445MOL0     C59985   3.573  10.693   2.714  0.0085  0.2644  0.3568
  445MOL0     C59986   3.476  10.633   2.627 -0.1832 -0.2134 -0.7164
  445MOL0     O59987   3.452  10.605   2.334 -0.7900 -0.0475  0.3661
  445MOL0     C59988   3.242  10.324   2.288  0.5097  0.9744  1.1793
  445MOL0     C59989   3.147  10.271   2.197 -0.4446 -0.3388  0.2487
  445MOL0     N59990   2.459   9.929   1.922  0.3371  0.4372  0.5562
  445MOL0     N59991   2.430   9.800   1.897  0.8716  0.4073  1.0416
  445MOL0     C59992   2.690   9.284   1.016 -0.2118 -0.1064 -0.7836
  445MOL0     C59993   2.825   9.273   0.982 -0.0754 -0.6738  0.1451
  445MOL0     C59994   3.253   9.373   0.794  0.8692  0.6574 -0.8644
  445MOL0     C59995   3.310   9.321   0.912 -0.4400 -0.7804  0.3111
  445MOL0     C59996   3.444   9.303   0.914  0.0725 -0.9052 -0.3306
  445MOL0     C59997   3.532   9.348   0.817 -0.2640  0.8198 -0.0536
  445MOL0     O59998   3.672   9.342   0.822 -0.8255 -0.2667 -0.1578
  445MOL0     C59999   3.732   9.256   0.925 -0.3094 -0.7014  0.6808
  445MOL0     C60000   3.871   9.223   0.874  0.3856 -0.3780  0.6949
  445MOL0     C60001   3.949   9.362   0.856 -0.1610  0.5782 -0.1895
  445MOL0     C60002   4.101   9.361   0.843 -1.2547  0.3223  0.1781
  445MOL0     C60003   4.169   9.300   0.954  0.4122  0.4593 -0.5228
  445MOL0     C60004   4.210   9.239   1.051 -0.6865 -1.1300 -0.9148
  445MOL0     C60005   3.480   9.403   0.705 -0.1891  0.7032 -0.2663
  445MOL0     C60006   3.341   9.416   0.685 -0.1588  0.4877  0.2362
  445MOL0     C60007   3.300   9.462   0.553 -0.3387 -0.0429 -0.0315
  445MOL0     H60008   2.900   9.569   0.871  1.7242 -0.8616  1.1424
  445MOL0     H60009   2.667   9.605   0.914  2.5945  2.6127  1.1691
  445MOL0     H60010   2.535   9.555   1.217  2.5446 -0.1542 -1.7539
  445MOL0     H60011   2.504   9.609   1.048  2.4064  1.5321  2.0065
  445MOL0     H60012   2.271   9.558   1.047  2.8551 -1.0040 -2.5534
  445MOL0     H60013   2.316   9.671   1.167  0.8192 -1.4279  2.9485
  445MOL0     H60014   2.273   9.381   1.232  1.4071  0.9790 -0.7858
  445MOL0     H60015   2.143   9.498   1.245  0.4867 -1.8494 -1.6539
  445MOL0     H60016   2.410   9.508   1.400  2.2162  4.8012 -0.9563
  445MOL0     H60017   2.292   9.632   1.391  0.0964 -1.1025  1.0756
  445MOL0     H60018   2.111   9.505   1.478  0.1607  0.0296 -0.5978
  445MOL0     H60019   2.213   9.354   1.458 -0.9424 -0.7423 -0.3066
  445MOL0     H60020   2.187   9.445   1.707 -0.4892  0.5600  1.8195
  445MOL0     H60021   2.359   9.415   1.644  1.9951  2.5818 -3.1009
  445MOL0     H60022   2.236   9.640   1.765 -2.0863  1.7865 -1.4281
  445MOL0     H60023   2.254   9.689   1.591 -0.6222  0.6716  1.1935
  445MOL0     H60024   2.471   9.572   1.773 -0.2890  0.5480  0.5648
  445MOL0     H60025   2.508   9.634   1.620  1.5734  0.5011  1.4551
  445MOL0     H60026   2.571   9.893   1.623  0.3627 -1.0566 -0.1627
  445MOL0     H60027   2.666  10.120   1.722  0.5517  2.1042 -0.1237
  445MOL0     H60028   2.545  10.195   1.836  0.5960  0.6846  2.9190
  445MOL0     H60029   2.657  10.099   2.027 -0.7729  1.0648 -1.2695
  445MOL0     H60030   2.757   9.996   1.916 -2.5064 -0.5054 -3.1251
  445MOL0     H60031   2.752  10.311   1.943  1.0415  0.5874  1.0250
  445MOL0     H60032   2.862  10.216   1.839  0.6560 -1.9463  0.5977
  445MOL0     H60033   2.962  10.110   2.048  0.9672  0.6419 -1.1236
  445MOL0     H60034   2.872  10.211   2.140  0.1666 -0.2234 -0.4260
  445MOL0     H60035   3.113  10.535   1.980 -1.4596 -1.8904 -0.0446
  445MOL0     H60036   3.294  10.623   2.136  0.3107 -0.2774 -0.2677
  445MOL0     H60037   3.576  10.312   2.639  1.3325 -0.6450 -0.4992
  445MOL0     H60038   3.739  10.405   2.800 -1.4023 -0.5874  0.7402
  445MOL0     H60039   3.839  10.792   2.993  0.0939 -0.5259 -0.8599
  445MOL0     H60040   3.672  10.823   2.930  0.0716  0.2929 -0.0540
  445MOL0     H60041   3.695  10.738   3.168  2.5061 -2.1736  1.4667
  445MOL0     H60042   3.579  10.655   3.066 -0.9122 -0.3939  4.1023
  445MOL0     H60043   3.705  10.507   3.210 -1.6245  0.1264 -0.3703
  445MOL0     H60044   3.704  10.466   3.031  1.4054  0.1895 -1.3773
  445MOL0     H60045   3.947  10.585   3.027 -0.8331  1.1063 -0.0660
  445MOL0     H60046   3.925  10.431   3.112  0.5017 -0.7708  0.2886
  445MOL0     H60047   3.945  10.560   3.335 -1.9713 -0.5096 -0.3068
  445MOL0     H60048   3.895  10.708   3.243  1.2025  0.8773 -2.1681
  445MOL0     H60049   4.157  10.543   3.199 -1.2951 -0.9466 -1.5328
  445MOL0     H60050   4.125  10.702   3.139  1.8266 -1.4006 -0.3556
  445MOL0     H60051   4.184  10.614   3.421  0.1002  0.6702 -0.0581
  445MOL0     H60052   4.113  10.772   3.406  0.0177 -0.4261 -0.2535
  445MOL0     H60053   4.306  10.833   3.241  4.0495  2.0754  2.4707
  445MOL0     H60054   4.345  10.822   3.405  1.7337 -3.0201  1.8112
  445MOL0     H60055   3.567  10.797   2.744 -0.1780  0.7798 -1.3811
  445MOL0     H60056   3.414  10.709   2.579  1.6601  3.2726  1.9423
  445MOL0     H60057   3.274  10.257   2.367 -1.8216 -0.2137  1.2224
  445MOL0     H60058   3.117  10.167   2.210 -1.5757  0.0538  0.8674
  445MOL0     H60059   2.618   9.217   1.061 -0.6231  0.9214  0.1244
  445MOL0     H60060   2.881   9.181   0.993  1.0703 -0.2931 -2.0372
  445MOL0     H60061   3.249   9.299   0.999 -0.2442  2.2724  1.3248
  445MOL0     H60062   3.493   9.279   1.008  1.4939  3.6417  0.3383
  445MOL0     H60063   3.681   9.160   0.935  1.4441 -2.1684 -2.8985
  445MOL0     H60064   3.739   9.308   1.021 -0.0860  0.7919 -0.1029
  445MOL0     H60065   3.868   9.168   0.780 -0.5098 -1.9426  1.5954
  445MOL0     H60066   3.926   9.160   0.946 -0.2383 -2.3050 -0.4373
  445MOL0     H60067   3.926   9.423   0.944 -1.4762 -3.7958  2.8922
  445MOL0     H60068   3.907   9.421   0.775  2.5090  3.4039  0.3283
  445MOL0     H60069   4.128   9.318   0.746  0.6590 -0.1895  0.9133
  445MOL0     H60070   4.139   9.463   0.832  1.5719 -0.6352  0.2784
  445MOL0     H60071   4.252   9.194   1.139 -0.9262 -0.4041 -0.4236
  445MOL0     H60072   3.547   9.433   0.626  1.9905  1.4436  1.7678
  445MOL0     H60073   3.206   9.412   0.527 -0.2411 -1.0148  1.4065
  445MOL0     H60074   3.280   9.570   0.549  0.2550  0.0455 -1.3576
  445MOL0     H60075   3.380   9.454   0.478 -0.4475  0.1359 -0.1688
  446MOL0     O60076   3.665   5.595   6.299  0.1135 -0.5115  0.1644
  446MOL0     C60077   3.668   5.481   6.346 -0.1326  0.2937 -0.2677
  446MOL0     O60078   3.779   5.424   6.387  0.2480 -1.0180 -1.0663
  446MOL0     C60079   3.902   5.487   6.374  0.9856 -0.3626  1.2422
  446MOL0     C60080   3.932   5.629   6.383 -0.0234  0.4555 -0.3427
  446MOL0     C60081   4.058   5.683   6.371  0.7301  0.7055  0.8739
  446MOL0     C60082   4.169   5.594   6.379  0.0246  0.1918 -0.9426
  446MOL0     O60083   4.304   5.628   6.376  0.0079  0.6456  0.7591
  446MOL0     C60084   4.346   5.757   6.339  0.3979  0.0253  0.0808
  446MOL0     C60085   4.502   5.749   6.321  0.4758 -0.3448 -0.0450
  446MOL0     C60086   4.581   5.879   6.305  0.8837 -0.6176  0.0405
  446MOL0     C60087   4.728   5.846   6.308  0.2716  0.3272 -0.3928
  446MOL0     C60088   4.809   5.962   6.286  0.4944 -0.7279  0.0043
  446MOL0     C60089   4.811   6.026   6.140 -0.0902 -0.3511 -1.0499
  446MOL0     C60090   4.905   6.139   6.128  1.0206 -0.9117  1.2409
  446MOL0     C60091   5.053   6.096   6.129  0.1541 -0.0856 -0.0037
  446MOL0     N60092   5.109   6.068   5.994  0.6771 -0.5945  0.1038
  446MOL0     C60093   5.193   6.167   5.933 -0.3356  0.4960 -0.8379
  446MOL0     C60094   5.196   6.131   5.806  0.5541  0.3001 -0.3147
  446MOL0     C60095   5.254   6.210   5.694  0.3528 -0.9834  0.1708
  446MOL0     C60096   5.383   6.294   5.733  0.4113  1.0175  0.1140
  446MOL0     C60097   5.446   6.347   5.611  0.2415 -0.5459 -0.4518
  446MOL0     C60098   5.538   6.471   5.628 -0.5367  0.0972  0.1309
  446MOL0     O60099   5.616   6.496   5.507 -1.4359 -0.2452  0.3182
  446MOL0     C60100   5.704   6.599   5.497 -0.9444 -0.2663  0.3286
  446MOL0     C60101   5.769   6.620   5.376  0.5786 -0.1431  0.4903
  446MOL0     C60102   5.863   6.721   5.355  0.5062  0.1701 -0.0302
  446MOL0     C60103   5.902   6.810   5.465  0.1997 -0.8784  0.6624
  446MOL0     C60104   5.999   6.920   5.447 -0.0184 -0.1193  0.3365
  446MOL0     O60105   6.032   6.992   5.557  0.6384  0.5769 -0.6463
  446MOL0     C60106   6.092   7.117   5.542 -0.2620 -0.6100 -0.2926
  446MOL0     C60107   6.202   7.164   5.619  0.2229 -0.6024 -0.6369
  446MOL0     C60108   6.256   7.295   5.620 -0.1720 -0.3521  0.8085
  446MOL0     C60109   6.194   7.381   5.529  0.2105 -0.5912  0.3649
  446MOL0     O60110   6.228   7.511   5.502 -0.0236  0.3796  0.5086
  446MOL0     C60111   6.370   7.540   5.504 -0.3932 -0.4758 -0.0561
  446MOL0     C60112   6.386   7.672   5.420  0.9557  0.5600  0.4399
  446MOL0     C60113   6.335   7.681   5.274  0.0452 -0.4855 -0.2752
  446MOL0     C60114   6.421   7.584   5.189  0.9762  0.0111  0.1493
  446MOL0     C60115   6.395   7.614   5.038  0.5602  0.1419  0.4116
  446MOL0     C60116   6.474   7.515   4.948 -0.1127 -0.3050  0.5663
  446MOL0     C60117   6.491   7.581   4.803 -0.5492 -0.0425  0.3367
  446MOL0     C60118   6.552   7.489   4.701  0.2833 -0.0532 -0.2212
  446MOL0    Cl60119   6.431   7.366   4.665 -0.4517  0.1730 -0.4160
  446MOL0     C60120   6.084   7.346   5.455 -0.0724 -0.0842 -0.0512
  446MOL0     C60121   6.030   7.218   5.469 -0.3870  0.6550  0.1919
  446MOL0     O60122   6.050   6.946   5.333  0.8219  0.0164 -0.0831
  446MOL0     C60123   5.842   6.786   5.587  0.1719 -0.3504 -0.1643
  446MOL0     C60124   5.748   6.682   5.603  0.3187 -0.2421  0.7836
  446MOL0     N60125   5.115   6.022   5.788  0.4982 -0.0076 -0.4263
  446MOL0     N60126   5.059   5.983   5.900  0.2538 -0.4283  0.9188
  446MOL0     C60127   4.142   5.449   6.391  0.1126 -0.0305 -0.2014
  446MOL0     C60128   4.010   5.406   6.376 -0.1592  0.7577 -0.3208
  446MOL0     C60129   3.537   5.412   6.358 -0.2270 -0.0168 -0.7695
  446MOL0     C60130   3.423   5.500   6.375  0.9731  0.8167  0.6326
  446MOL0     C60131   3.295   5.445   6.378  0.5533 -0.8217  0.6465
  446MOL0     C60132   3.276   5.309   6.361  0.3751  0.6693  0.3786
  446MOL0     O60133   3.145   5.268   6.358  0.0810 -0.9897  0.3256
  446MOL0     C60134   3.109   5.139   6.316  1.0093 -0.6097  0.5589
  446MOL0     C60135   3.071   5.046   6.424 -0.6656  0.7085  1.0987
  446MOL0     C60136   2.930   5.084   6.483 -0.8129  0.1869  0.7477
  446MOL0     C60137   2.925   5.171   6.607 -0.0973 -0.3088  0.4294
  446MOL0     C60138   2.994   5.118   6.723 -0.0261 -0.4967  0.4437
  446MOL0     C60139   3.057   5.071   6.813  0.3446 -0.6940 -0.3336
  446MOL0     C60140   3.385   5.226   6.350 -0.5370  0.3718  0.8733
  446MOL0     C60141   3.525   5.275   6.351  0.0670  0.9388  0.3647
  446MOL0     C60142   3.640   5.178   6.338 -1.1042 -0.4020 -0.0798
  446MOL0     H60143   3.850   5.697   6.403 -0.3306  0.0655 -0.2417
  446MOL0     H60144   4.060   5.791   6.365 -1.0231  0.6751 -2.1907
  446MOL0     H60145   4.308   5.784   6.240 -3.0874 -1.6371  0.8132
  446MOL0     H60146   4.316   5.838   6.407  0.6347 -0.2797  0.5545
  446MOL0     H60147   4.510   5.678   6.239 -0.4467 -2.9667  1.9725
  446MOL0     H60148   4.532   5.690   6.408  1.1404 -0.8445 -0.6044
  446MOL0     H60149   4.561   5.947   6.388  2.3517 -1.7295  1.3450
  446MOL0     H60150   4.542   5.929   6.215  0.1283 -1.2343  0.0130
  446MOL0     H60151   4.755   5.796   6.401 -1.8083 -0.6214 -0.2587
  446MOL0     H60152   4.749   5.770   6.232 -2.3451 -1.4026  0.5039
  446MOL0     H60153   4.781   6.043   6.353 -0.7058  0.2294 -1.5638
  446MOL0     H60154   4.911   5.933   6.311  0.7106  0.1918  0.1838
  446MOL0     H60155   4.837   5.957   6.059  1.6716  1.3514 -2.0166
  446MOL0     H60156   4.716   6.071   6.110  0.2608  0.5213 -0.8878
  446MOL0     H60157   4.889   6.214   6.207  0.2578  1.1310 -0.7277
  446MOL0     H60158   4.882   6.194   6.036  0.0408 -2.4182  0.5607
  446MOL0     H60159   5.100   6.182   6.176  1.6764 -0.4226 -0.8422
  446MOL0     H60160   5.072   6.005   6.187 -0.1958  0.7717  1.4939
  446MOL0     H60161   5.252   6.249   5.971 -1.3330  0.4240  0.9820
  446MOL0     H60162   5.294   6.138   5.621 -0.2841  1.4443 -2.7942
  446MOL0     H60163   5.185   6.270   5.635  2.6971  1.0241 -0.6986
  446MOL0     H60164   5.351   6.371   5.804  0.1297 -0.5177  1.7338
  446MOL0     H60165   5.437   6.226   5.800 -2.8920 -2.4219 -0.3834
  446MOL0     H60166   5.359   6.368   5.548 -1.8998 -0.1120  2.4033
  446MOL0     H60167   5.517   6.277   5.568  1.8949 -0.0041  1.2311
  446MOL0     H60168   5.608   6.476   5.712  1.6629  2.7212 -1.6482
  446MOL0     H60169   5.476   6.558   5.651 -0.4899  0.1362  0.1117
  446MOL0     H60170   5.750   6.556   5.289  3.8596  0.4140 -0.8228
  446MOL0     H60171   5.914   6.737   5.261  3.0820 -3.3366  0.5441
  446MOL0     H60172   6.250   7.099   5.691  0.7923  2.4490  1.9643
  446MOL0     H60173   6.325   7.326   5.698  0.1498  0.9280  0.0459
  446MOL0     H60174   6.410   7.558   5.604 -0.2332  2.4196 -0.5750
  446MOL0     H60175   6.421   7.453   5.460 -1.2830  0.0355 -2.2212
  446MOL0     H60176   6.350   7.759   5.476  1.2285  0.5538  0.6256
  446MOL0     H60177   6.494   7.690   5.419  1.0388  0.0579 -0.1541
  446MOL0     H60178   6.229   7.654   5.270 -0.4783  1.2707  0.6782
  446MOL0     H60179   6.339   7.783   5.235 -2.6926 -2.3932 -6.9090
  446MOL0     H60180   6.392   7.481   5.211 -5.1790  1.3836  0.3243
  446MOL0     H60181   6.525   7.600   5.217  0.8874  0.9568 -0.0089
  446MOL0     H60182   6.425   7.717   5.014  1.9438 -0.9857 -3.5855
  446MOL0     H60183   6.289   7.609   5.013  0.5470 -0.1482  0.5251
  446MOL0     H60184   6.575   7.496   4.985  0.8485  1.3617 -1.0623
  446MOL0     H60185   6.417   7.422   4.947  1.9060 -1.6952 -2.8227
  446MOL0     H60186   6.554   7.670   4.806  1.4423 -1.3417 -0.6421
  446MOL0     H60187   6.396   7.615   4.761  0.6462  1.7048 -1.1135
  446MOL0     H60188   6.579   7.544   4.610 -0.5122  0.8219  0.0540
  446MOL0     H60189   6.649   7.449   4.730  0.4645 -0.3677 -1.2429
  446MOL0     H60190   6.039   7.422   5.392 -0.0078 -0.3189 -0.3841
  446MOL0     H60191   5.936   7.201   5.417  0.0970 -1.2994 -0.1310
  446MOL0     H60192   5.866   6.849   5.671  3.6839  0.0713 -1.2985
  446MOL0     H60193   5.711   6.667   5.704  2.9430 -2.2456  1.5330
  446MOL0     H60194   4.225   5.379   6.397  4.2085  3.9209 -3.2022
  446MOL0     H60195   4.002   5.298   6.379 -2.8612  0.9002 -0.2069
  446MOL0     H60196   3.430   5.608   6.387 -1.8581  1.3024 -1.0226
  446MOL0     H60197   3.208   5.504   6.406  1.1452 -1.6108  4.8968
  446MOL0     H60198   3.187   5.090   6.258 -1.0551 -1.2344 -1.8515
  446MOL0     H60199   3.024   5.151   6.248  1.4515  2.4788  0.4292
  446MOL0     H60200   3.144   5.050   6.506  0.7400  1.7320 -0.1576
  446MOL0     H60201   3.070   4.945   6.382  0.1036  0.9607  0.4529
  446MOL0     H60202   2.868   4.998   6.509 -0.5901 -0.1706  0.0960
  446MOL0     H60203   2.875   5.137   6.404  1.8059 -0.5594 -1.7071
  446MOL0     H60204   2.968   5.271   6.597 -1.0850  0.0946  0.0814
  446MOL0     H60205   2.820   5.194   6.631 -0.5211 -1.3387 -0.3677
  446MOL0     H60206   3.119   5.040   6.894 -0.0410 -0.5781  0.0045
  446MOL0     H60207   3.379   5.118   6.360 -0.4374  0.3909  1.1492
  446MOL0     H60208   3.703   5.191   6.426 -2.3470  1.9774  0.5287
  446MOL0     H60209   3.602   5.075   6.342 -0.1643 -0.7185  2.2667
  446MOL0     H60210   3.698   5.199   6.248 -2.1595  2.7687 -0.1482
  447MOL0     O60211  10.530   4.829   9.792 -0.7770 -0.2186  0.1349
  447MOL0     C60212  10.550   4.772   9.901 -0.4803 -0.4735 -0.5274
  447MOL0     O60213  10.662   4.687   9.929 -0.2362 -0.1213 -0.3021
  447MOL0     C60214  10.737   4.648   9.817 -0.0936  0.2168  0.2878
  447MOL0     C60215  10.690   4.555   9.728 -0.2710  1.2353 -0.4731
  447MOL0     C60216  10.775   4.490   9.640  0.6448  0.4789  0.2737
  447MOL0     C60217  10.910   4.526   9.630  0.0185  0.6132  0.6075
  447MOL0     O60218  10.996   4.455   9.552  0.1891 -0.4721  0.3162
  447MOL0     C60219  11.000   4.315   9.590 -1.0478 -0.6658  0.1852
  447MOL0     C60220  11.117   4.244   9.517  0.7868  0.6280  0.6865
  447MOL0     C60221  11.253   4.315   9.531 -0.1479 -0.1715 -0.0898
  447MOL0     C60222  11.324   4.306   9.397  0.8016 -0.0856  0.2615
  447MOL0     C60223  11.332   4.163   9.329  0.2029 -0.5084  0.1042
  447MOL0     C60224  11.442   4.082   9.392  0.3198  0.2462 -0.0388
  447MOL0     C60225  11.460   3.951   9.321 -0.8609 -0.2275  0.8981
  447MOL0     C60226  11.592   3.889   9.343  0.2528  0.9023 -0.0738
  447MOL0     N60227  11.618   3.758   9.283  0.9335  0.0108 -0.3475
  447MOL0     C60228  11.613   3.717   9.148 -0.4294  0.7106  0.6280
  447MOL0     C60229  11.674   3.601   9.149  0.1151 -0.1391  1.5024
  447MOL0     C60230  11.681   3.500   9.038  0.2987  0.1842 -0.3210
  447MOL0     C60231  11.820   3.477   8.985 -0.2081  0.3278 -0.1466
  447MOL0     C60232  11.818   3.376   8.868 -0.8317  0.0154  0.2967
  447MOL0     C60233  11.961   3.343   8.831  0.2071  0.1810  0.5907
  447MOL0     O60234  11.994   3.282   8.704  0.0922  0.4740 -0.8886
  447MOL0     C60235  12.122   3.318   8.666  0.1693 -0.4049  0.2628
  447MOL0     C60236  12.223   3.234   8.702 -0.3419 -0.1296  1.1400
  447MOL0     C60237  12.350   3.260   8.645 -0.3982 -0.0540  0.0663
  447MOL0     C60238  12.370   3.366   8.557  0.2437  0.5651  0.6109
  447MOL0     C60239  12.510   3.388   8.506  0.9746 -0.0354 -1.1544
  447MOL0     O60240  12.605   3.295   8.525 -0.0786  0.6654  0.8847
  447MOL0     C60241  12.734   3.334   8.514 -0.0105 -0.2247  0.5867
  447MOL0     C60242  12.806   3.344   8.393 -0.6979  0.4127 -0.5000
  447MOL0     C60243  12.937   3.399   8.392  0.5233 -0.1577  0.0742
  447MOL0     C60244  13.002   3.433   8.505 -0.2943 -0.8553  0.6163
  447MOL0     O60245  13.110   3.500   8.474 -0.5683  0.3130  0.4387
  447MOL0     C60246  13.220   3.486   8.563  0.1713 -0.1615  0.5283
  447MOL0     C60247  13.356   3.551   8.515  0.0589 -0.2377  0.7843
  447MOL0     C60248  13.351   3.701   8.489  0.4470 -0.2542  0.1309
  447MOL0     C60249  13.366   3.790   8.606 -0.1133 -0.7354 -0.8859
  447MOL0     C60250  13.304   3.929   8.602  0.5029  0.0881 -0.1099
  447MOL0     C60251  13.376   4.028   8.703  0.4949  0.4627 -0.3417
  447MOL0     C60252  13.317   4.169   8.678  0.4433 -0.0520 -1.0419
  447MOL0     C60253  13.408   4.254   8.600 -0.0388 -0.0091  0.4134
  447MOL0    Cl60254  13.550   4.312   8.701 -0.2021 -0.0210 -0.0282
  447MOL0     C60255  12.935   3.419   8.626  0.7381  0.6300 -0.6952
  447MOL0     C60256  12.801   3.363   8.629  0.2105 -0.9253 -0.6666
  447MOL0     O60257  12.524   3.486   8.432 -0.5065 -0.3091  0.5235
  447MOL0     C60258  12.263   3.440   8.503  0.0671 -0.1614 -0.1025
  447MOL0     C60259  12.138   3.409   8.559  1.2139 -0.1493 -0.1078
  447MOL0     N60260  11.722   3.574   9.273 -1.5566  0.0680  0.2530
  447MOL0     N60261  11.683   3.663   9.348 -0.6641 -0.0824 -0.4121
  447MOL0     C60262  10.956   4.630   9.707  0.1120 -0.8590 -0.3031
  447MOL0     C60263  10.870   4.691   9.803  0.6918  0.3167 -0.4794
  447MOL0     C60264  10.455   4.817  10.013 -0.4578  0.0683  1.7261
  447MOL0     C60265  10.498   4.810  10.150 -0.1846  1.2188 -0.0263
  447MOL0     C60266  10.403   4.830  10.248  0.5885 -0.4160 -0.2441
  447MOL0     C60267  10.269   4.868  10.225 -0.8137 -0.2207  0.8141
  447MOL0     O60268  10.196   4.891  10.335  0.0849 -0.5179  0.1274
  447MOL0     C60269  10.053   4.942  10.321 -1.3631  0.8104  0.8248
  447MOL0     C60270  10.062   5.088  10.300 -0.4383 -0.5688  0.1930
  447MOL0     C60271   9.958   5.171  10.371  0.3822 -0.5455  0.6278
  447MOL0     C60272   9.983   5.322  10.331  1.0180 -0.1840 -0.8864
  447MOL0     C60273   9.866   5.393  10.383 -0.4343 -1.0535 -0.0464
  447MOL0     C60274   9.774   5.447  10.435  0.5750  0.3287  0.2494
  447MOL0     C60275  10.232   4.875  10.096  0.4005  0.4390 -0.4305
  447MOL0     C60276  10.319   4.855   9.992  0.3354 -0.0451 -0.0272
  447MOL0     C60277  10.261   4.869   9.856  0.2053  0.9068 -0.8208
  447MOL0     H60278  10.586   4.526   9.725  0.5245 -2.0268 -1.3592
  447MOL0     H60279  10.729   4.417   9.574  0.3625 -2.0772  3.1173
  447MOL0     H60280  11.024   4.318   9.696 -2.8037  1.9001  0.5977
  447MOL0     H60281  10.910   4.254   9.586 -0.6562 -1.2203 -0.3128
  447MOL0     H60282  11.092   4.209   9.416 -1.9547 -1.4423  1.9336
  447MOL0     H60283  11.122   4.147   9.567 -0.7623 -0.7637 -1.6243
  447MOL0     H60284  11.318   4.276   9.609  0.7066 -0.2293 -0.8176
  447MOL0     H60285  11.243   4.421   9.558 -1.4223 -0.1682 -0.4754
  447MOL0     H60286  11.279   4.377   9.328 -2.7199 -1.2110  1.2086
  447MOL0     H60287  11.426   4.337   9.422  0.7458 -1.9964  3.4205
  447MOL0     H60288  11.236   4.111   9.315  0.7326 -0.8696 -2.6813
  447MOL0     H60289  11.365   4.181   9.227  2.7021  1.8823  1.2056
  447MOL0     H60290  11.529   4.148   9.383  0.8538 -0.2325  1.2604
  447MOL0     H60291  11.425   4.067   9.499  3.1987 -2.1491  0.2326
  447MOL0     H60292  11.466   3.960   9.212 -0.1110 -2.8338  0.6683
  447MOL0     H60293  11.386   3.876   9.350 -2.3961  0.9411  0.1808
  447MOL0     H60294  11.661   3.963   9.301 -0.7113  1.1376 -1.2878
  447MOL0     H60295  11.611   3.867   9.449  2.8070  4.0751  0.3033
  447MOL0     H60296  11.566   3.775   9.069 -1.5969 -0.7236  0.2221
  447MOL0     H60297  11.622   3.414   9.071  1.6664  0.4140  3.0759
  447MOL0     H60298  11.637   3.559   8.957 -1.4465  2.5982  2.2277
  447MOL0     H60299  11.868   3.569   8.950 -0.7447 -0.2885 -2.7004
  447MOL0     H60300  11.878   3.436   9.068 -1.7393 -0.9007  0.3695
  447MOL0     H60301  11.770   3.424   8.782 -1.3709  1.0424  1.1461
  447MOL0     H60302  11.763   3.285   8.892 -0.1952 -0.7004 -0.8831
  447MOL0     H60303  11.994   3.267   8.902 -1.5987 -0.0348  1.2639
  447MOL0     H60304  12.001   3.444   8.837 -1.5938  0.8340  2.7603
  447MOL0     H60305  12.187   3.152   8.764  2.7324 -2.7415 -0.2414
  447MOL0     H60306  12.432   3.193   8.669  0.6932  0.9371 -0.8192
  447MOL0     H60307  12.768   3.315   8.296  2.6812  0.5551 -2.0165
  447MOL0     H60308  12.977   3.413   8.292 -0.9265 -1.3093 -0.6918
  447MOL0     H60309  13.193   3.543   8.652  1.1750  0.8473  0.2066
  447MOL0     H60310  13.235   3.382   8.594  4.3815 -0.2361 -1.0622
  447MOL0     H60311  13.429   3.521   8.590  1.2884 -4.1005 -1.6558
  447MOL0     H60312  13.390   3.500   8.424 -0.1574 -0.9091  1.0715
  447MOL0     H60313  13.436   3.724   8.425 -0.1861  0.1547 -0.5736
  447MOL0     H60314  13.256   3.714   8.436 -0.8679 -3.7498  1.2900
  447MOL0     H60315  13.474   3.802   8.621 -0.3162 -2.2406  2.9220
  447MOL0     H60316  13.321   3.740   8.692  2.1963 -0.0825  0.7921
  447MOL0     H60317  13.196   3.916   8.619  0.9417 -0.5764  2.7163
  447MOL0     H60318  13.329   3.966   8.502 -0.0175  0.4840 -0.0968
  447MOL0     H60319  13.351   3.995   8.804 -5.6763  0.8096 -1.4123
  447MOL0     H60320  13.484   4.022   8.683  0.7597  1.1931  0.7731
  447MOL0     H60321  13.307   4.216   8.777  0.8305 -0.3500 -0.8564
  447MOL0     H60322  13.213   4.159   8.646 -0.7223  1.0877  1.9455
  447MOL0     H60323  13.436   4.189   8.517 -0.5723 -0.3723  0.5144
  447MOL0     H60324  13.365   4.343   8.553  1.6111  0.0375 -1.1137
  447MOL0     H60325  12.988   3.458   8.713  1.3520 -1.1070 -0.2494
  447MOL0     H60326  12.745   3.353   8.722 -0.2686 -0.4843 -0.8973
  447MOL0     H60327  12.273   3.515   8.425  1.1619 -0.8890 -0.6838
  447MOL0     H60328  12.040   3.444   8.527 -0.5809 -1.5692  3.2703
  447MOL0     H60329  11.058   4.664   9.693 -0.7374  1.7409 -0.6824
  447MOL0     H60330  10.910   4.770   9.866 -0.2191 -0.0089  0.5283
  447MOL0     H60331  10.600   4.781  10.176  0.2387  1.7212 -1.0546
  447MOL0     H60332  10.423   4.834  10.355 -0.4600 -0.1437 -0.0385
  447MOL0     H60333  10.003   4.917  10.415 -0.1209 -2.5775  0.7545
  447MOL0     H60334  10.005   4.888  10.239  0.6797  0.0402  0.0543
  447MOL0     H60335  10.052   5.102  10.192 -1.3830 -2.2821  0.0296
  447MOL0     H60336  10.161   5.126  10.330 -0.2794  0.3594 -1.3601
  447MOL0     H60337   9.948   5.154  10.479 -1.6556 -1.3210  0.3731
  447MOL0     H60338   9.864   5.142  10.322  0.3380  0.5242  0.0571
  447MOL0     H60339  10.080   5.361  10.364  1.1216  0.8379 -2.2910
  447MOL0     H60340   9.967   5.323  10.223 -3.2426 -5.3508 -0.7327
  447MOL0     H60341   9.699   5.510  10.479  1.4381  0.2318  1.9394
  447MOL0     H60342  10.125   4.893  10.086  0.0649 -1.0945  0.1358
  447MOL0     H60343  10.304   4.952   9.801  0.2759  2.2735  1.1961
  447MOL0     H60344  10.273   4.768   9.815 -0.6739 -2.1243  5.3064
  447MOL0     H60345  10.156   4.899   9.858  0.2705  1.0946 -0.2437
  448MOL0     O60346   7.197   7.269   5.647  0.2060  1.3473  0.4750
  448MOL0     C60347   7.213   7.259   5.523 -0.4452  0.7078 -1.7305
  448MOL0     O60348   7.136   7.330   5.424  1.0665 -0.4233 -0.1165
  448MOL0     C60349   7.031   7.407   5.465  0.5209  0.1513 -0.3383
  448MOL0     C60350   6.901   7.372   5.433 -0.0268  0.0124 -0.1099
  448MOL0     C60351   6.787   7.449   5.475 -0.9705 -0.2459 -0.4128
  448MOL0     C60352   6.808   7.562   5.552 -0.3618 -0.2648 -0.3129
  448MOL0     O60353   6.695   7.627   5.594 -0.1818 -0.2637 -0.2826
  448MOL0     C60354   6.707   7.744   5.676 -0.3250  0.2341  0.3691
  448MOL0     C60355   6.571   7.817   5.681  0.4177  0.4848 -0.7025
  448MOL0     C60356   6.540   7.908   5.800 -0.5185  0.0028 -0.1557
  448MOL0     C60357   6.614   8.041   5.785  0.3218 -1.3256 -0.4703
  448MOL0     C60358   6.608   8.135   5.904  0.4021  0.4531  0.1354
  448MOL0     C60359   6.678   8.272   5.902 -0.3912 -0.0850 -0.1400
  448MOL0     C60360   6.815   8.280   5.846 -1.1430  0.0000  0.2277
  448MOL0     C60361   6.855   8.426   5.855 -0.4672 -0.4593  0.2682
  448MOL0     N60362   6.803   8.522   5.757  0.6127  0.0501  0.5524
  448MOL0     C60363   6.860   8.539   5.635  0.0446  0.2835  0.5175
  448MOL0     C60364   6.823   8.663   5.590 -0.3295 -0.2165 -0.6792
  448MOL0     C60365   6.851   8.723   5.450  0.7740  1.1279  0.9231
  448MOL0     C60366   6.999   8.733   5.404  0.0945  0.2434 -0.0304
  448MOL0     C60367   7.069   8.607   5.354 -0.8947 -0.5503  0.7566
  448MOL0     C60368   7.211   8.643   5.299  0.2745  0.1782  0.1279
  448MOL0     O60369   7.301   8.662   5.413  0.8565 -0.0526 -0.2790
  448MOL0     C60370   7.439   8.669   5.389  0.0430 -0.2347  0.4057
  448MOL0     C60371   7.520   8.643   5.493  0.7999  0.6365 -0.4361
  448MOL0     C60372   7.655   8.659   5.492  0.9658  0.3367 -0.3799
  448MOL0     C60373   7.716   8.694   5.370  0.1548  0.1908 -0.9683
  448MOL0     C60374   7.864   8.699   5.370 -0.2972 -0.9613  0.5607
  448MOL0     O60375   7.918   8.717   5.247 -0.1711  0.2099  0.2376
  448MOL0     C60376   8.048   8.712   5.230  0.5118  0.2236  0.5539
  448MOL0     C60377   8.117   8.599   5.199  0.5784 -0.0404 -0.9151
  448MOL0     C60378   8.250   8.607   5.155  0.2874 -0.5562 -0.6357
  448MOL0     C60379   8.323   8.729   5.156  0.2236  0.5386  0.5467
  448MOL0     O60380   8.450   8.720   5.100 -0.8788  0.9432 -0.5473
  448MOL0     C60381   8.474   8.818   4.999  0.0527 -0.0844  0.0376
  448MOL0     C60382   8.501   8.735   4.871 -1.0776  0.4386 -0.0723
  448MOL0     C60383   8.355   8.680   4.827 -0.0428  0.5158 -0.3263
  448MOL0     C60384   8.370   8.541   4.746 -1.2658 -0.2204 -0.2477
  448MOL0     C60385   8.241   8.484   4.682  0.5660  0.8095 -0.4350
  448MOL0     C60386   8.154   8.585   4.599 -0.4221  0.2668  0.0686
  448MOL0     C60387   8.001   8.538   4.582 -0.5459 -0.3184 -1.2785
  448MOL0     C60388   7.927   8.542   4.716  0.6248  0.1401 -0.1723
  448MOL0    Cl60389   7.759   8.539   4.686  0.3180  0.2038  0.3643
  448MOL0     C60390   8.250   8.847   5.197  1.6098 -0.7824 -1.1012
  448MOL0     C60391   8.112   8.832   5.234 -0.6477 -0.1186 -0.9533
  448MOL0     O60392   7.922   8.693   5.479  0.2468 -0.7720 -0.5948
  448MOL0     C60393   7.639   8.708   5.254  0.1117  0.7342  0.2094
  448MOL0     C60394   7.500   8.695   5.263 -0.6090  0.3442 -0.7072
  448MOL0     N60395   6.744   8.725   5.678  0.8277  0.1167  0.3864
  448MOL0     N60396   6.725   8.643   5.780 -0.0052  0.6609 -0.4594
  448MOL0     C60397   6.944   7.600   5.573  0.4258  0.3494 -0.1206
  448MOL0     C60398   7.054   7.524   5.539  0.3499 -0.2739  0.0641
  448MOL0     C60399   7.328   7.172   5.486  0.6474 -0.1078 -0.5323
  448MOL0     C60400   7.332   7.139   5.354 -0.2777  0.3398  0.9809
  448MOL0     C60401   7.423   7.050   5.303 -0.4531 -0.1307 -0.2946
  448MOL0     C60402   7.526   6.992   5.387 -0.9841 -0.9952  0.6388
  448MOL0     O60403   7.600   6.894   5.328 -0.0520  0.7652  0.8085
  448MOL0     C60404   7.707   6.829   5.402  0.3971 -0.3689  0.7500
  448MOL0     C60405   7.662   6.700   5.482 -0.2415  0.7470  0.5829
  448MOL0     C60406   7.593   6.609   5.387 -0.3647  0.0128  0.1145
  448MOL0     C60407   7.694   6.534   5.301 -0.2259 -0.0301  0.3123
  448MOL0     C60408   7.774   6.423   5.367  0.5640  0.2603 -0.1238
  448MOL0     C60409   7.856   6.342   5.413  0.2214 -0.2779 -1.1627
  448MOL0     C60410   7.534   7.037   5.525 -0.6480  0.0038  0.9525
  448MOL0     C60411   7.430   7.123   5.570 -0.1276  0.1859  0.5302
  448MOL0     C60412   7.455   7.170   5.716 -0.7679  0.2474  0.0632
  448MOL0     H60413   6.889   7.276   5.384  2.5159 -0.6109  0.3651
  448MOL0     H60414   6.681   7.432   5.463 -1.9948  3.7558  1.2520
  448MOL0     H60415   6.739   7.712   5.776  1.3102 -0.1606 -0.2358
  448MOL0     H60416   6.781   7.819   5.645  0.2255 -0.2359  0.5105
  448MOL0     H60417   6.500   7.734   5.679  1.1877 -0.2604  0.8096
  448MOL0     H60418   6.561   7.880   5.593 -2.0938  2.3700  0.7882
  448MOL0     H60419   6.573   7.867   5.896 -1.7791  0.2068  0.3868
  448MOL0     H60420   6.433   7.919   5.819 -0.4187 -0.5315  0.8311
  448MOL0     H60421   6.721   8.022   5.768  0.1387 -1.0821 -2.0128
  448MOL0     H60422   6.577   8.097   5.700 -0.5988 -1.8595 -0.4338
  448MOL0     H60423   6.502   8.161   5.916  0.8644  2.0845  0.9884
  448MOL0     H60424   6.631   8.081   5.997 -0.8713 -2.1880 -0.9868
  448MOL0     H60425   6.609   8.341   5.852  0.4497 -0.3748 -1.7890
  448MOL0     H60426   6.682   8.312   6.003 -1.6775  1.2857 -0.6059
  448MOL0     H60427   6.811   8.236   5.746 -0.4251 -2.6125  1.2867
  448MOL0     H60428   6.884   8.228   5.913 -2.2457 -1.3142  0.3813
  448MOL0     H60429   6.820   8.471   5.949  0.1473  3.1622 -1.0824
  448MOL0     H60430   6.964   8.430   5.849 -0.4612 -0.0067  0.6362
  448MOL0     H60431   6.921   8.475   5.572 -0.4736 -1.8711  2.0975
  448MOL0     H60432   6.788   8.665   5.383 -0.0864  2.1188  0.8440
  448MOL0     H60433   6.814   8.826   5.456  1.0275  1.6213 -3.2667
  448MOL0     H60434   7.017   8.813   5.332  2.0147 -0.2893 -0.1837
  448MOL0     H60435   7.050   8.770   5.493  2.3664  1.4200 -1.7041
  448MOL0     H60436   7.004   8.565   5.277  0.6825  2.2587 -2.3910
  448MOL0     H60437   7.080   8.539   5.439 -1.6833  1.8739  2.9418
  448MOL0     H60438   7.212   8.726   5.227  3.0180 -0.1034 -0.2676
  448MOL0     H60439   7.241   8.552   5.246 -0.1833  0.8366 -1.3109
  448MOL0     H60440   7.481   8.626   5.593 -0.9219  0.8639 -1.0370
  448MOL0     H60441   7.701   8.642   5.589 -1.1440  1.1544  0.8160
  448MOL0     H60442   8.058   8.508   5.202  1.6417 -0.7768 -1.4326
  448MOL0     H60443   8.299   8.518   5.116  1.7720 -0.7222  1.4650
  448MOL0     H60444   8.391   8.888   4.990  2.6273  3.7520  2.8446
  448MOL0     H60445   8.563   8.877   5.025  1.8657 -1.1447 -3.1581
  448MOL0     H60446   8.538   8.808   4.798  0.2476  0.6238  0.7422
  448MOL0     H60447   8.570   8.652   4.885 -1.2666  0.5968  2.1271
  448MOL0     H60448   8.280   8.659   4.904  0.4646  0.0422  0.0455
  448MOL0     H60449   8.307   8.755   4.763 -3.7445 -0.5566  0.9325
  448MOL0     H60450   8.426   8.489   4.824 -1.4742 -2.3335 -1.4359
  448MOL0     H60451   8.438   8.550   4.661 -0.7733 -0.1732  0.1439
  448MOL0     H60452   8.178   8.460   4.768 -2.3132 -2.4495 -3.1825
  448MOL0     H60453   8.256   8.394   4.622 -1.0915  0.8550 -0.9497
  448MOL0     H60454   8.154   8.685   4.642  1.8773  1.1981 -1.8424
  448MOL0     H60455   8.204   8.608   4.504 -1.3856  0.8169 -0.3240
  448MOL0     H60456   7.992   8.432   4.554  1.1358 -1.0730  0.7813
  448MOL0     H60457   7.948   8.610   4.519 -0.8428  1.2294  0.6506
  448MOL0     H60458   7.965   8.456   4.772  0.9614  0.3517 -0.0733
  448MOL0     H60459   7.967   8.636   4.754 -1.2245  1.3700 -1.0749
  448MOL0     H60460   8.298   8.944   5.212  0.5366  0.4173 -4.5377
  448MOL0     H60461   8.040   8.911   5.248 -1.6974 -1.0262 -1.1237
  448MOL0     H60462   7.686   8.744   5.163 -1.6961  0.2487 -0.9667
  448MOL0     H60463   7.445   8.706   5.169 -1.1333  2.2836 -0.2219
  448MOL0     H60464   6.963   7.688   5.634  0.8729  1.3470 -1.6470
  448MOL0     H60465   7.157   7.549   5.562  0.2101  3.0510 -2.2654
  448MOL0     H60466   7.256   7.176   5.285  2.5299 -0.4812 -2.8875
  448MOL0     H60467   7.425   7.017   5.199 -1.3055 -0.2982 -0.2619
  448MOL0     H60468   7.754   6.899   5.471 -0.3127  0.4505  0.4243
  448MOL0     H60469   7.783   6.800   5.329  1.0763 -1.2629  1.7802
  448MOL0     H60470   7.597   6.730   5.565  0.2485  0.8892  0.9244
  448MOL0     H60471   7.756   6.665   5.526  0.6941 -0.7120 -2.3629
  448MOL0     H60472   7.529   6.661   5.315 -0.4441 -1.1871 -0.7222
  448MOL0     H60473   7.532   6.535   5.439 -0.0956  1.5785  2.8298
  448MOL0     H60474   7.636   6.496   5.217 -1.7314 -2.5717  2.3254
  448MOL0     H60475   7.757   6.604   5.246  0.0889  0.3743  1.1633
  448MOL0     H60476   7.927   6.264   5.434  1.0599  0.5407 -0.8728
  448MOL0     H60477   7.616   7.008   5.590 -0.2980 -1.4737 -0.0850
  448MOL0     H60478   7.460   7.279   5.711  1.5586  0.1199 -3.7270
  448MOL0     H60479   7.381   7.125   5.784  1.3558 -0.4046  2.0607
  448MOL0     H60480   7.552   7.132   5.748 -1.9084 -0.9931  2.3996
  449MOL0     O60481  10.583   9.538   5.037  0.1132 -0.1382  0.0311
  449MOL0     C60482  10.474   9.577   5.007 -0.9435 -0.0362  0.6512
  449MOL0     O60483  10.376   9.601   5.108 -0.0737 -0.6955  0.3093
  449MOL0     C60484  10.269   9.686   5.073 -0.5516 -0.8699  0.1811
  449MOL0     C60485  10.150   9.642   5.023 -0.0331 -0.5670 -0.3618
  449MOL0     C60486  10.038   9.717   5.003  0.5053  0.4888 -1.0960
  449MOL0     C60487  10.044   9.847   5.031 -1.0985 -0.3294 -0.8234
  449MOL0     O60488   9.934   9.920   5.023  0.1871 -0.3792  0.0817
  449MOL0     C60489   9.861   9.916   5.145  0.5025  0.3356  0.4955
  449MOL0     C60490   9.734  10.009   5.131 -0.2007 -0.0595  0.1039
  449MOL0     C60491   9.655  10.036   5.260 -0.2319 -0.7804  0.3294
  449MOL0     C60492   9.556  10.145   5.226  0.3183 -0.1715 -0.4185
  449MOL0     C60493   9.486  10.200   5.356  0.2892  0.0255  0.3940
  449MOL0     C60494   9.402  10.097   5.432  0.0616 -0.2554 -0.0503
  449MOL0     C60495   9.304  10.158   5.537 -0.3154 -0.2434  1.0585
  449MOL0     C60496   9.177  10.195   5.456 -1.0908  0.8627  0.1928
  449MOL0     N60497   9.124  10.330   5.491  0.8213 -0.1672 -0.9852
  449MOL0     C60498   9.061  10.365   5.611 -0.2972  0.1664  0.5277
  449MOL0     C60499   9.051  10.499   5.602  0.4085 -0.3204 -0.3089
  449MOL0     C60500   9.010  10.580   5.719  0.7728  0.3437  0.6573
  449MOL0     C60501   8.897  10.682   5.660  0.3839 -0.2910 -0.6076
  449MOL0     C60502   8.778  10.609   5.590  0.3547  0.3669  0.3681
  449MOL0     C60503   8.670  10.714   5.567  0.1115  0.2537 -0.0256
  449MOL0     O60504   8.617  10.756   5.689 -0.8972  0.3041  0.6240
  449MOL0     C60505   8.504  10.699   5.731  1.6097 -0.8727 -0.1118
  449MOL0     C60506   8.510  10.662   5.867  0.6557 -0.4754 -0.5846
  449MOL0     C60507   8.403  10.599   5.930 -0.7809  0.8260 -0.1278
  449MOL0     C60508   8.281  10.565   5.863  0.0539  0.0203 -0.0844
  449MOL0     C60509   8.165  10.509   5.936 -0.4323  0.0528 -0.9805
  449MOL0     O60510   8.172  10.486   6.066 -0.6758  0.0029  0.4875
  449MOL0     C60511   8.053  10.485   6.140  0.0188 -0.4080  0.5401
  449MOL0     C60512   7.926  10.538   6.107 -0.7844 -0.3669  0.8755
  449MOL0     C60513   7.823  10.548   6.199 -0.3826  0.1841  0.5585
  449MOL0     C60514   7.839  10.501   6.328  1.2073 -0.1279  0.1377
  449MOL0     O60515   7.727  10.509   6.407  0.7225  0.6897 -0.2712
  449MOL0     C60516   7.732  10.613   6.504  0.4108 -0.7424 -0.6118
  449MOL0     C60517   7.724  10.752   6.446  0.3304 -0.5148 -0.1088
  449MOL0     C60518   7.736  10.861   6.548  0.5594 -0.0388 -0.9393
  449MOL0     C60519   7.612  10.878   6.637  0.6799  0.1923 -0.1847
  449MOL0     C60520   7.652  10.993   6.740 -0.1314 -0.2085 -0.2064
  449MOL0     C60521   7.528  11.012   6.834 -0.7103  0.4908 -0.1867
  449MOL0     C60522   7.565  11.122   6.938 -0.2945  0.3417 -0.0059
  449MOL0     C60523   7.448  11.158   7.031 -1.2016 -0.3278 -0.3597
  449MOL0    Cl60524   7.316  11.213   6.955  0.3227  0.1101 -0.2111
  449MOL0     C60525   7.958  10.438   6.364 -0.4331 -0.3362 -0.3950
  449MOL0     C60526   8.063  10.426   6.271 -0.1261  0.0914  0.5340
  449MOL0     O60527   8.071  10.478   5.871 -0.7295 -0.5421  0.5297
  449MOL0     C60528   8.277  10.603   5.724 -0.3404 -0.5670  0.0208
  449MOL0     C60529   8.391  10.672   5.654  0.1954  0.1044 -0.7243
  449MOL0     N60530   9.098  10.541   5.478 -0.2593 -0.2181  0.2201
  449MOL0     N60531   9.134  10.436   5.416 -0.8119 -0.0217 -0.5307
  449MOL0     C60532  10.164   9.905   5.070  0.0831 -0.5424  0.4310
  449MOL0     C60533  10.276   9.825   5.097 -0.1050  0.0403  0.7357
  449MOL0     C60534  10.447   9.574   4.858 -0.5653 -0.4263 -0.2102
  449MOL0     C60535  10.369   9.478   4.803 -0.1746 -0.2766  0.2893
  449MOL0     C60536  10.331   9.479   4.667  0.9075 -0.3000 -0.1351
  449MOL0     C60537  10.393   9.565   4.582 -0.5036  0.4170 -0.0722
  449MOL0     O60538  10.369   9.563   4.446  0.2161 -0.5555  0.4552
  449MOL0     C60539  10.283   9.474   4.374 -0.3542  0.1081  0.2349
  449MOL0     C60540  10.358   9.353   4.334 -0.4207 -0.3818  0.1096
  449MOL0     C60541  10.259   9.285   4.241 -0.0756  0.3578  0.5280
  449MOL0     C60542  10.302   9.143   4.204  0.0146  0.0204 -0.2387
  449MOL0     C60543  10.201   9.085   4.111  0.2740  0.1523 -0.8227
  449MOL0     C60544  10.131   9.012   4.048 -0.4674  0.4813 -0.1388
  449MOL0     C60545  10.483   9.660   4.635 -0.4669  0.3312  0.0600
  449MOL0     C60546  10.501   9.673   4.772 -0.4297 -0.3719 -0.3861
  449MOL0     C60547  10.594   9.778   4.824  0.7933 -0.9497  0.6226
  449MOL0     H60548  10.141   9.540   4.987  0.5704 -0.4772 -0.7933
  449MOL0     H60549   9.943   9.682   4.964  0.5750 -0.8485 -0.1310
  449MOL0     H60550   9.833   9.813   5.170  0.5130 -0.4822 -2.4833
  449MOL0     H60551   9.922   9.948   5.229 -2.2396  1.0405  2.3733
  449MOL0     H60552   9.661   9.973   5.058 -0.1351  0.3495 -0.1650
  449MOL0     H60553   9.768  10.107   5.096 -0.3861 -0.4861 -1.2877
  449MOL0     H60554   9.725  10.072   5.337 -1.5739 -2.0005  2.2207
  449MOL0     H60555   9.615   9.940   5.292  0.6214 -0.5337  2.3129
  449MOL0     H60556   9.609  10.232   5.187  1.6086 -0.0225  1.4979
  449MOL0     H60557   9.486  10.099   5.156 -0.7227 -0.7465  0.9590
  449MOL0     H60558   9.564  10.242   5.421  0.3234  0.3758  0.1311
  449MOL0     H60559   9.416  10.275   5.317 -0.0517 -0.5128 -0.0328
  449MOL0     H60560   9.347  10.035   5.360 -0.2520  2.0258 -1.9106
  449MOL0     H60561   9.484  10.039   5.476 -0.3617  0.3502  1.5831
  449MOL0     H60562   9.342  10.245   5.591  1.1937  0.0980 -0.4641
  449MOL0     H60563   9.277  10.092   5.619 -1.6262  0.5599  1.3027
  449MOL0     H60564   9.203  10.206   5.350 -0.5093 -1.3182  0.0579
  449MOL0     H60565   9.104  10.114   5.469 -1.0893  1.0363  1.4003
  449MOL0     H60566   9.035  10.306   5.698 -2.2270  1.2477  0.7562
  449MOL0     H60567   8.968  10.519   5.799  3.0539 -1.4521  0.5924
  449MOL0     H60568   9.100  10.634   5.749  1.0530  0.7310 -0.8277
  449MOL0     H60569   8.869  10.738   5.750 -0.4485  0.6713 -1.4351
  449MOL0     H60570   8.941  10.750   5.587 -1.5038  2.3282  0.5250
  449MOL0     H60571   8.753  10.526   5.657 -0.9797  1.7752  1.6824
  449MOL0     H60572   8.805  10.567   5.492  0.6759  0.5885  0.3594
  449MOL0     H60573   8.599  10.666   5.499  0.2487  0.0041  0.0067
  449MOL0     H60574   8.722  10.798   5.521  0.5162 -0.8373 -1.6450
  449MOL0     H60575   8.594  10.695   5.927  0.1716  0.6090 -0.4784
  449MOL0     H60576   8.417  10.571   6.033 -2.9807  1.3369  0.3626
  449MOL0     H60577   7.912  10.589   6.012 -0.4334  0.2535  1.1559
  449MOL0     H60578   7.733  10.585   6.152  0.8224 -0.3424 -2.3929
  449MOL0     H60579   7.637  10.591   6.555 -1.7330  0.2045 -3.8722
  449MOL0     H60580   7.824  10.599   6.561 -0.2872 -0.4721  0.6297
  449MOL0     H60581   7.806  10.769   6.375  0.9580  2.4393  1.2183
  449MOL0     H60582   7.633  10.773   6.389 -0.4901 -3.1016  0.0948
  449MOL0     H60583   7.821  10.839   6.613  0.7975 -1.3182 -1.6576
  449MOL0     H60584   7.756  10.944   6.480 -0.6802 -2.1766 -4.1500
  449MOL0     H60585   7.600  10.793   6.706  1.5619  0.2214  0.0202
  449MOL0     H60586   7.519  10.894   6.584 -0.4711 -2.3818  0.8508
  449MOL0     H60587   7.660  11.079   6.673 -0.7931  2.0517  2.4074
  449MOL0     H60588   7.738  10.972   6.803 -0.6107 -1.6508 -0.0035
  449MOL0     H60589   7.450  11.043   6.764  0.3636  1.2120 -1.0936
  449MOL0     H60590   7.497  10.918   6.882 -2.2189 -1.1717 -3.9861
  449MOL0     H60591   7.583  11.205   6.869 -3.1701  0.1838 -1.0717
  449MOL0     H60592   7.653  11.095   6.996 -0.1697  0.6604 -0.0414
  449MOL0     H60593   7.428  11.061   7.079  0.8726 -1.3232 -1.4000
  449MOL0     H60594   7.486  11.226   7.108  1.2941 -0.5104 -1.3516
  449MOL0     H60595   7.964  10.411   6.469 -0.0777  1.5521  0.1106
  449MOL0     H60596   8.148  10.370   6.309 -0.6903 -1.7733 -0.8140
  449MOL0     H60597   8.183  10.584   5.672 -0.7235 -1.3273  0.9636
  449MOL0     H60598   8.384  10.695   5.549 -1.4176 -3.0643 -1.4641
  449MOL0     H60599  10.160  10.010   5.095 -1.6137 -0.2244 -1.0165
  449MOL0     H60600  10.368   9.866   5.138  0.7390 -1.7349  0.6841
  449MOL0     H60601  10.328   9.399   4.866 -1.3924  0.5967  0.6387
  449MOL0     H60602  10.259   9.403   4.637 -2.2270  1.6168  1.8920
  449MOL0     H60603  10.237   9.529   4.292 -1.8419 -0.3418  0.7239
  449MOL0     H60604  10.198   9.441   4.435 -1.4375 -0.9201 -1.7334
  449MOL0     H60605  10.379   9.297   4.426 -1.8660  0.8545  1.2528
  449MOL0     H60606  10.448   9.379   4.278  0.6474 -0.2449  1.7910
  449MOL0     H60607  10.237   9.346   4.153  0.7995  3.7833  2.4757
  449MOL0     H60608  10.160   9.281   4.287 -0.4307 -1.4265 -0.2907
  449MOL0     H60609  10.401   9.136   4.160  0.1517 -0.1191  0.0892
  449MOL0     H60610  10.302   9.083   4.296  1.6872  0.6680  0.2192
  449MOL0     H60611  10.073   8.953   3.980 -1.7420 -0.2909  1.5375
  449MOL0     H60612  10.540   9.720   4.565  1.1452 -0.6218  0.4959
  449MOL0     H60613  10.545   9.833   4.904  0.6331  0.3483 -0.3312
  449MOL0     H60614  10.685   9.736   4.868  0.0210 -1.8481  1.4102
  449MOL0     H60615  10.630   9.848   4.748 -1.5541  0.4402  0.6849
  450MOL0     O60616   6.337   3.302  11.019  0.0111  0.1848  0.9903
  450MOL0     C60617   6.257   3.392  11.023  0.3959 -0.0462 -0.1479
  450MOL0     O60618   6.245   3.505  10.941  0.0354  0.6195 -0.1724
  450MOL0     C60619   6.356   3.536  10.863  0.0318 -0.0536 -0.7611
  450MOL0     C60620   6.352   3.665  10.808 -0.4755  0.1234 -0.3715
  450MOL0     C60621   6.451   3.727  10.740 -0.5678  0.4458  0.3852
  450MOL0     C60622   6.571   3.652  10.721 -0.3127 -0.8906 -0.1850
  450MOL0     O60623   6.668   3.694  10.633  0.5594  0.2065  0.1028
  450MOL0     C60624   6.643   3.795  10.533  0.4558  0.5836  0.5981
  450MOL0     C60625   6.774   3.826  10.453  0.2837  0.5732  0.1996
  450MOL0     C60626   6.806   3.714  10.351 -0.3631 -0.7951  0.0181
  450MOL0     C60627   6.921   3.750  10.260 -0.0971 -0.3063  0.5043
  450MOL0     C60628   6.961   3.630  10.180 -0.3257  0.3608 -0.6848
  450MOL0     C60629   7.108   3.635  10.142  0.2030 -0.1042  0.6731
  450MOL0     C60630   7.148   3.541  10.024 -0.6903 -1.1949  1.0584
  450MOL0     C60631   7.263   3.595   9.949 -0.1657  0.2010 -0.1389
  450MOL0     N60632   7.311   3.512   9.837  0.1830  0.4188 -0.9552
  450MOL0     C60633   7.334   3.374   9.839 -0.2401 -0.5346  0.5252
  450MOL0     C60634   7.405   3.350   9.726  0.9125  0.4575 -0.0875
  450MOL0     C60635   7.427   3.210   9.684 -1.4474  0.1281 -0.0043
  450MOL0     C60636   7.569   3.199   9.627 -0.0135  0.2095 -0.0325
  450MOL0     C60637   7.598   3.057   9.581 -0.5856 -0.2946 -0.0822
  450MOL0     C60638   7.743   3.044   9.533 -0.0201  0.3273  0.2406
  450MOL0     O60639   7.832   3.065   9.646 -0.5751 -0.3385 -1.4629
  450MOL0     C60640   7.960   3.112   9.632  0.3468  0.6959 -1.3864
  450MOL0     C60641   8.004   3.191   9.533  0.5499 -0.6846  0.6646
  450MOL0     C60642   8.138   3.229   9.511 -0.2694 -0.0930  0.8057
  450MOL0     C60643   8.229   3.199   9.616 -0.5391 -0.6315 -0.1046
  450MOL0     C60644   8.369   3.233   9.603  0.5046  0.0790  0.2029
  450MOL0     O60645   8.447   3.213   9.721  0.3162 -0.1113  0.6364
  450MOL0     C60646   8.583   3.220   9.710 -0.1764 -0.4264 -0.2044
  450MOL0     C60647   8.664   3.113   9.680  0.3827  0.0131  0.0159
  450MOL0     C60648   8.801   3.125   9.674  0.0580  0.7104 -0.1877
  450MOL0     C60649   8.858   3.244   9.690 -0.0446  0.1785 -0.5084
  450MOL0     O60650   8.993   3.246   9.674  0.3518  0.1570  0.1886
  450MOL0     C60651   9.056   3.365   9.635  0.6138  0.3473  0.0003
  450MOL0     C60652   9.196   3.312   9.594  0.9132  0.3815 -0.1946
  450MOL0     C60653   9.293   3.426   9.596  0.1956  0.1619 -0.3594
  450MOL0     C60654   9.434   3.378   9.548  0.6050 -1.5148 -0.2692
  450MOL0     C60655   9.514   3.498   9.501 -0.1722 -0.0450 -0.6328
  450MOL0     C60656   9.655   3.465   9.453 -0.2236  0.5534 -0.3210
  450MOL0     C60657   9.753   3.579   9.391 -0.0792  0.3363 -0.0922
  450MOL0     C60658   9.896   3.519   9.355  0.9520  0.2334  0.6171
  450MOL0    Cl60659   9.893   3.396   9.246  0.0928  0.5828  0.3734
  450MOL0     C60660   8.784   3.351   9.728 -0.0030 -0.2899 -0.5902
  450MOL0     C60661   8.647   3.338   9.742 -0.1147  0.3583  0.0888
  450MOL0     O60662   8.415   3.241   9.491 -0.7534 -0.8733 -0.5129
  450MOL0     C60663   8.177   3.141   9.735  0.1034  0.8006 -0.2990
  450MOL0     C60664   8.050   3.078   9.729 -0.0905  0.0857  0.1292
  450MOL0     N60665   7.418   3.471   9.656  0.7479 -0.3341 -0.2741
  450MOL0     N60666   7.349   3.565   9.714 -0.5698 -1.1086 -0.6514
  450MOL0     C60667   6.586   3.531  10.782 -0.6780 -0.2232 -1.0831
  450MOL0     C60668   6.484   3.466  10.856  0.1646 -1.2665 -0.3967
  450MOL0     C60669   6.145   3.393  11.121 -0.4009 -0.2559 -0.7217
  450MOL0     C60670   6.043   3.481  11.110  0.6784 -0.3904  0.4109
  450MOL0     C60671   5.934   3.490  11.205 -0.1168 -0.8607  1.0791
  450MOL0     C60672   5.923   3.398  11.305 -0.5750  0.0516  0.5459
  450MOL0     O60673   5.814   3.406  11.385 -0.2187  0.1537 -0.6197
  450MOL0     C60674   5.770   3.331  11.499  0.3294 -0.1744  0.9442
  450MOL0     C60675   5.653   3.244  11.445 -0.1560  0.0204  0.9492
  450MOL0     C60676   5.683   3.131  11.352  0.6646  0.5764 -0.1756
  450MOL0     C60677   5.737   3.013  11.438 -0.2069 -0.3210 -0.0883
  450MOL0     C60678   5.791   2.914  11.350 -1.1902  0.3647  1.0418
  450MOL0     C60679   5.840   2.828  11.273  1.1826 -0.3007 -1.0153
  450MOL0     C60680   6.027   3.312  11.317  0.0852  0.3196 -0.4943
  450MOL0     C60681   6.134   3.306  11.233  0.5368 -0.4661  0.0874
  450MOL0     C60682   6.237   3.203  11.267  0.6383 -0.7365 -0.0339
  450MOL0     H60683   6.254   3.710  10.824 -1.5508 -1.8426 -1.0729
  450MOL0     H60684   6.423   3.822  10.695 -1.9255 -0.8910 -1.8002
  450MOL0     H60685   6.569   3.751  10.466  0.4654  0.7253  0.4935
  450MOL0     H60686   6.600   3.888  10.572 -0.8750  0.1073  0.3245
  450MOL0     H60687   6.853   3.823  10.529 -1.0478 -1.5496  1.6279
  450MOL0     H60688   6.761   3.919  10.398 -1.4411  0.8811  1.0769
  450MOL0     H60689   6.723   3.690  10.284  0.6160 -0.1077 -1.4995
  450MOL0     H60690   6.840   3.630  10.412  1.3289 -0.2845 -0.1481
  450MOL0     H60691   6.900   3.825  10.183  0.8005 -1.6570 -1.1035
  450MOL0     H60692   7.005   3.780  10.324 -0.3702  2.2629 -0.2330
  450MOL0     H60693   6.936   3.534  10.225  2.0292 -0.4824 -1.0644
  450MOL0     H60694   6.910   3.633  10.083  1.3997  1.8392 -1.6046
  450MOL0     H60695   7.134   3.737  10.112  1.0933 -1.2404 -2.9098
  450MOL0     H60696   7.174   3.620  10.228 -0.2479 -0.6165  0.9342
  450MOL0     H60697   7.066   3.522   9.955 -0.8275 -1.1166  1.1994
  450MOL0     H60698   7.178   3.445  10.069 -0.4895 -1.9955 -0.6849
  450MOL0     H60699   7.231   3.690   9.905 -1.0885 -0.0045  0.0608
  450MOL0     H60700   7.343   3.604  10.023  1.0806 -1.1835 -1.2592
  450MOL0     H60701   7.311   3.302   9.917  0.0411 -0.5517  0.5936
  450MOL0     H60702   7.420   3.134   9.762 -0.1415 -0.7371 -0.6889
  450MOL0     H60703   7.350   3.187   9.610 -1.4133  1.6540 -0.5603
  450MOL0     H60704   7.589   3.270   9.546 -1.4833  0.7559  0.0577
  450MOL0     H60705   7.648   3.231   9.696 -0.0624 -1.8806  1.0605
  450MOL0     H60706   7.538   3.026   9.495  0.5295  2.9410 -2.2229
  450MOL0     H60707   7.582   2.990   9.666  0.5919  0.6091  0.9040
  450MOL0     H60708   7.763   3.122   9.459 -1.4008  0.6694  0.1914
  450MOL0     H60709   7.747   2.942   9.495  0.8385 -0.1161  1.4585
  450MOL0     H60710   7.933   3.204   9.452  0.8618  1.8106  0.7173
  450MOL0     H60711   8.163   3.281   9.419 -2.6783  0.2495  0.2824
  450MOL0     H60712   8.620   3.024   9.637  2.4190 -0.6166 -0.8707
  450MOL0     H60713   8.862   3.046   9.630  0.2310  1.7330 -1.9034
  450MOL0     H60714   8.999   3.416   9.556  1.4253  2.5922  0.7873
  450MOL0     H60715   9.059   3.433   9.720  1.7949  0.8661 -0.4336
  450MOL0     H60716   9.224   3.232   9.663  0.7831  1.7149  1.4729
  450MOL0     H60717   9.186   3.277   9.490 -2.6513  1.2843 -0.2805
  450MOL0     H60718   9.262   3.491   9.514  2.6905 -1.3015 -2.6322
  450MOL0     H60719   9.289   3.464   9.699  0.8406  0.3238 -0.3898
  450MOL0     H60720   9.422   3.322   9.455  1.9376  0.7028 -1.8830
  450MOL0     H60721   9.477   3.319   9.629 -0.9325 -1.2356  0.7965
  450MOL0     H60722   9.525   3.568   9.584  1.6215 -1.8255  0.7117
  450MOL0     H60723   9.460   3.542   9.417  2.1104  1.3069 -1.4822
  450MOL0     H60724   9.710   3.426   9.539  2.2681  0.3401 -1.8847
  450MOL0     H60725   9.645   3.383   9.382  2.4114  0.5956 -0.8451
  450MOL0     H60726   9.765   3.663   9.460 -1.7084  2.7379 -2.5285
  450MOL0     H60727   9.702   3.615   9.301 -0.0987  0.1487 -0.1567
  450MOL0     H60728   9.954   3.601   9.312  1.0705  0.9929  2.1305
  450MOL0     H60729   9.939   3.487   9.451 -0.5722 -1.1752  0.8657
  450MOL0     H60730   8.821   3.451   9.749  1.3375 -0.7779 -0.4744
  450MOL0     H60731   8.584   3.415   9.784 -0.5455  0.4295 -0.6562
  450MOL0     H60732   8.244   3.132   9.819 -0.2183 -0.1149 -0.1259
  450MOL0     H60733   8.012   3.014   9.809 -1.9937 -1.6124 -1.9991
  450MOL0     H60734   6.680   3.482  10.758  0.3716  2.8917 -4.2528
  450MOL0     H60735   6.500   3.371  10.907 -1.6634 -1.5546 -0.3049
  450MOL0     H60736   6.049   3.553  11.029  0.7149 -2.2204 -1.3029
  450MOL0     H60737   5.868   3.574  11.183 -1.0229 -1.5430  1.1457
  450MOL0     H60738   5.745   3.410  11.571  0.8191  2.6232 -1.7410
  450MOL0     H60739   5.849   3.269  11.544  1.0051  0.0969  0.1563
  450MOL0     H60740   5.586   3.305  11.384  0.1015 -0.9138 -0.3022
  450MOL0     H60741   5.609   3.202  11.536  0.2422  0.4019  1.3263
  450MOL0     H60742   5.762   3.166  11.284  0.9102 -0.1397 -0.2704
  450MOL0     H60743   5.603   3.098  11.286  0.2034 -0.5222  0.8922
  450MOL0     H60744   5.811   3.056  11.505 -2.3716  0.1724  2.1349
  450MOL0     H60745   5.665   2.966  11.506 -0.7647  0.3197 -0.2264
  450MOL0     H60746   5.883   2.750  11.215  1.0835 -1.4829  0.4568
  450MOL0     H60747   6.006   3.237  11.393 -2.3915  2.0359  0.6693
  450MOL0     H60748   6.254   3.136  11.182  2.9430 -1.0478  0.6127
  450MOL0     H60749   6.332   3.254  11.282  0.3156 -0.1982  0.2323
  450MOL0     H60750   6.215   3.144  11.356  3.5426 -1.3363  0.3631
  451MOL0     O60751  11.381   9.244   7.319  0.1716 -0.7019 -0.0245
  451MOL0     C60752  11.311   9.343   7.353 -0.5230 -0.3566 -0.3803
  451MOL0     O60753  11.210   9.342   7.440 -0.3650  0.1527 -0.2143
  451MOL0     C60754  11.200   9.237   7.536  0.5175 -0.2450  1.4745
  451MOL0     C60755  11.112   9.132   7.508 -0.0644  0.0605  0.0586
  451MOL0     C60756  11.112   9.025   7.602 -1.1801  0.5182  0.0028
  451MOL0     C60757  11.209   9.017   7.709  0.0989  0.0462 -0.0370
  451MOL0     O60758  11.204   8.927   7.812 -0.0489 -0.4508  0.5244
  451MOL0     C60759  11.079   8.874   7.857  0.8234  0.3148 -0.8266
  451MOL0     C60760  11.083   8.775   7.969  0.6726  0.5108  0.8811
  451MOL0     C60761  11.109   8.833   8.102  0.3559  0.3544 -0.3282
  451MOL0     C60762  11.213   8.753   8.186  0.3537  0.7448 -0.1387
  451MOL0     C60763  11.162   8.607   8.222 -0.2769 -0.4562  0.3083
  451MOL0     C60764  11.259   8.526   8.317  0.2079 -0.0104  0.3962
  451MOL0     C60765  11.247   8.557   8.467 -0.2350  0.2091 -1.5098
  451MOL0     C60766  11.378   8.598   8.539 -0.6075 -0.3745  0.4833
  451MOL0     N60767  11.436   8.722   8.500 -0.7570 -0.3493 -0.4324
  451MOL0     C60768  11.372   8.838   8.512 -0.3297 -1.7968 -0.4994
  451MOL0     C60769  11.459   8.929   8.466 -0.0748 -0.1665  0.2741
  451MOL0     C60770  11.415   9.078   8.460  0.3298 -0.0122 -0.4010
  451MOL0     C60771  11.323   9.114   8.340  0.3549  0.5470 -0.3965
  451MOL0     C60772  11.305   9.259   8.311 -0.0407  1.2865  0.4107
  451MOL0     C60773  11.218   9.273   8.182  0.8829  0.0066  0.8780
  451MOL0     O60774  11.275   9.318   8.065 -0.5239 -0.1024  0.4590
  451MOL0     C60775  11.335   9.436   8.060  0.7519  0.1808  0.5230
  451MOL0     C60776  11.320   9.544   8.152 -0.0364  0.5730  0.6441
  451MOL0     C60777  11.375   9.667   8.127 -1.0649  0.3216  0.3648
  451MOL0     C60778  11.462   9.683   8.028  0.3954  0.2032 -0.4158
  451MOL0     C60779  11.528   9.818   7.988  0.5438 -0.1765 -0.1437
  451MOL0     O60780  11.627   9.815   7.897 -0.3848 -0.4492  0.6339
  451MOL0     C60781  11.692   9.931   7.850 -0.8106  0.7400 -0.6155
  451MOL0     C60782  11.628  10.045   7.795 -0.2752  0.9410  0.5250
  451MOL0     C60783  11.696  10.158   7.756 -1.0637  0.0442 -0.2901
  451MOL0     C60784  11.838  10.152   7.748 -0.3675  0.2912  0.1756
  451MOL0     O60785  11.916  10.266   7.723  0.2122  0.0044 -0.5773
  451MOL0     C60786  12.019  10.300   7.814  0.2579  0.0738  0.8625
  451MOL0     C60787  12.040  10.452   7.792  1.2692 -0.7647  0.2364
  451MOL0     C60788  12.149  10.511   7.897  0.3454  0.4532  0.3310
  451MOL0     C60789  12.252  10.604   7.838  0.2994 -0.4951  0.3486
  451MOL0     C60790  12.365  10.629   7.936  0.4234 -1.1230  0.3195
  451MOL0     C60791  12.470  10.522   7.927  0.1014 -0.0810  0.2258
  451MOL0     C60792  12.548  10.522   7.793  0.2942  0.0856 -0.0190
  451MOL0     C60793  12.665  10.429   7.799  1.3161 -0.0567 -0.9529
  451MOL0    Cl60794  12.623  10.279   7.745 -0.2002 -0.0461  0.5502
  451MOL0     C60795  11.904  10.030   7.785  0.0938  0.3947  0.0727
  451MOL0     C60796  11.834   9.927   7.832  0.0562 -0.9897  0.0554
  451MOL0     O60797  11.494   9.917   8.050 -0.0971  0.7310  0.1673
  451MOL0     C60798  11.483   9.579   7.930  0.0650  0.0044 -0.0050
  451MOL0     C60799  11.415   9.458   7.946  0.9220  0.0028  0.3216
  451MOL0     N60800  11.572   8.865   8.415  0.9008  0.2353 -0.0542
  451MOL0     N60801  11.560   8.742   8.445 -0.6104 -0.0791  1.0587
  451MOL0     C60802  11.303   9.122   7.729  0.4593  0.8841  0.1335
  451MOL0     C60803  11.297   9.233   7.641  0.5619  0.3661 -0.7034
  451MOL0     C60804  11.332   9.474   7.289 -0.3091  0.4748 -0.2646
  451MOL0     C60805  11.300   9.491   7.159 -0.7586  0.7733  0.4187
  451MOL0     C60806  11.306   9.616   7.098  0.1162 -0.4443  0.0899
  451MOL0     C60807  11.360   9.720   7.166  1.0620  0.5436 -0.4874
  451MOL0     O60808  11.368   9.846   7.118  0.3456 -0.8466 -0.0753
  451MOL0     C60809  11.330   9.895   6.984  1.1832 -0.5433 -0.1731
  451MOL0     C60810  11.403   9.834   6.863 -0.1280  0.1978 -0.0316
  451MOL0     C60811  11.556   9.871   6.852 -0.2368 -0.0442  0.6627
  451MOL0     C60812  11.652   9.836   6.970  0.0384  0.5562 -0.0218
  451MOL0     C60813  11.650   9.699   6.997 -0.2831  0.1648  0.3621
  451MOL0     C60814  11.661   9.581   7.014 -0.2020 -0.6472 -0.2902
  451MOL0     C60815  11.378   9.702   7.299 -0.2529 -0.8718  0.8353
  451MOL0     C60816  11.372   9.581   7.369  0.3361 -0.3814 -0.3281
  451MOL0     C60817  11.395   9.589   7.512  0.9438 -0.5807  0.4474
  451MOL0     H60818  11.038   9.139   7.430  0.3372 -0.2344 -0.3533
  451MOL0     H60819  11.039   8.946   7.587  0.5046 -0.8631 -1.4289
  451MOL0     H60820  11.019   8.960   7.886  0.9780 -0.4124  1.9118
  451MOL0     H60821  11.040   8.809   7.778  1.4150 -3.8307  2.0264
  451MOL0     H60822  11.173   8.718   7.946  2.1448  3.8146 -2.5324
  451MOL0     H60823  10.991   8.716   7.967 -0.4520  2.1644  1.8670
  451MOL0     H60824  11.019   8.875   8.148 -0.5163 -0.2447 -1.4270
  451MOL0     H60825  11.171   8.923   8.093  1.0622 -0.1974 -1.1732
  451MOL0     H60826  11.306   8.747   8.128 -0.1528 -2.3332 -0.8042
  451MOL0     H60827  11.233   8.807   8.278  1.6189  3.0350 -1.6470
  451MOL0     H60828  11.063   8.619   8.265 -0.7566  0.9813 -1.1175
  451MOL0     H60829  11.143   8.553   8.128  1.1825  0.1991 -0.4000
  451MOL0     H60830  11.242   8.419   8.301  2.0160 -0.3008  0.2767
  451MOL0     H60831  11.363   8.528   8.285  0.3063 -0.3813  0.6766
  451MOL0     H60832  11.224   8.459   8.510 -1.3611 -0.6926 -3.9988
  451MOL0     H60833  11.166   8.628   8.484  0.3065 -0.0451  3.8678
  451MOL0     H60834  11.352   8.582   8.644  0.8979 -1.5043  0.7208
  451MOL0     H60835  11.460   8.527   8.526 -0.9691 -0.6739 -0.2267
  451MOL0     H60836  11.283   8.847   8.573 -0.2139 -0.6852 -0.4727
  451MOL0     H60837  11.347   9.094   8.545  0.1300  0.8112 -0.7049
  451MOL0     H60838  11.493   9.153   8.476 -0.3784  0.2256  2.6072
  451MOL0     H60839  11.383   9.081   8.255  1.8502 -0.1742  0.8785
  451MOL0     H60840  11.234   9.056   8.366  0.5547  0.4196  0.0161
  451MOL0     H60841  11.408   9.296   8.299 -0.4212  2.7434  1.3809
  451MOL0     H60842  11.253   9.310   8.393 -2.9954  1.8284 -1.6607
  451MOL0     H60843  11.134   9.340   8.201  1.6934  0.9519  1.1859
  451MOL0     H60844  11.162   9.183   8.154 -1.4624  1.8357 -0.8086
  451MOL0     H60845  11.253   9.542   8.237  1.8731  3.2948  2.3862
  451MOL0     H60846  11.341   9.747   8.191  0.5427  1.4848 -0.1487
  451MOL0     H60847  11.519  10.045   7.792 -0.3358 -0.8880  1.4518
  451MOL0     H60848  11.643  10.249   7.729 -1.7320  1.0072  3.6289
  451MOL0     H60849  11.996  10.285   7.920  1.9460 -1.1609  1.0870
  451MOL0     H60850  12.111  10.244   7.796 -1.0045 -2.5836  2.0277
  451MOL0     H60851  12.082  10.483   7.696  0.6109 -0.3334  0.0820
  451MOL0     H60852  11.951  10.513   7.811  2.0730  1.2543 -2.0301
  451MOL0     H60853  12.088  10.568   7.967 -1.0939  0.5594 -0.9569
  451MOL0     H60854  12.200  10.430   7.950 -2.5102 -0.6228  1.5783
  451MOL0     H60855  12.216  10.701   7.805  0.2258 -1.8330 -4.1053
  451MOL0     H60856  12.286  10.567   7.741 -2.4698  1.3373 -1.4557
  451MOL0     H60857  12.336  10.646   8.040  1.3067  4.2512 -0.0403
  451MOL0     H60858  12.408  10.729   7.929 -5.3758  1.9192  1.4633
  451MOL0     H60859  12.544  10.563   7.997 -0.6401  3.2487 -0.7601
  451MOL0     H60860  12.437  10.422   7.955  0.8208 -0.2138  0.6216
  451MOL0     H60861  12.583  10.621   7.762  3.6086 -1.0427 -0.3080
  451MOL0     H60862  12.490  10.477   7.711  1.3183 -1.2027 -0.0796
  451MOL0     H60863  12.754  10.465   7.745  1.4080  0.8976 -0.2061
  451MOL0     H60864  12.698  10.425   7.904 -0.3353 -0.1383 -0.4108
  451MOL0     H60865  12.010  10.029   7.766 -0.2380 -3.3060 -2.5847
  451MOL0     H60866  11.885   9.833   7.854  1.9351  0.4076  1.9907
  451MOL0     H60867  11.562   9.584   7.856  0.7816 -0.2525  0.7157
  451MOL0     H60868  11.435   9.370   7.886  0.9230  1.0987 -1.3438
  451MOL0     H60869  11.360   9.120   7.821  4.2524 -0.5466 -2.0371
  451MOL0     H60870  11.360   9.321   7.640  1.0255  0.0333 -1.8231
  451MOL0     H60871  11.261   9.410   7.098  0.9615  0.4960 -0.3823
  451MOL0     H60872  11.269   9.622   6.997  0.6043  0.4808 -0.0426
  451MOL0     H60873  11.347  10.003   6.986 -1.5279 -0.0507  0.0954
  451MOL0     H60874  11.221   9.884   6.979  1.0343 -0.4999  1.9180
  451MOL0     H60875  11.360   9.880   6.774  2.3504  3.0111  0.0624
  451MOL0     H60876  11.403   9.725   6.873  1.7934 -0.0433 -1.9330
  451MOL0     H60877  11.578   9.978   6.845 -1.8349  0.2729  0.1208
  451MOL0     H60878  11.598   9.820   6.765  0.7921  0.3935  0.8831
  451MOL0     H60879  11.752   9.870   6.939 -0.7639  2.5546 -0.5909
  451MOL0     H60880  11.640   9.887   7.066 -0.9721  2.2210 -0.9799
  451MOL0     H60881  11.673   9.479   7.041  1.8735 -0.1131  1.0057
  451MOL0     H60882  11.417   9.791   7.345  0.5426 -0.6133 -0.2910
  451MOL0     H60883  11.308   9.622   7.569 -0.5143 -1.2087 -1.3239
  451MOL0     H60884  11.439   9.497   7.552 -0.0907  0.3212  4.0058
  451MOL0     H60885  11.468   9.670   7.527 -2.6739  2.7724  1.9538
  452MOL0     O60886   5.776   6.386   9.718 -0.2950 -0.1380  0.8831
  452MOL0     C60887   5.783   6.271   9.669 -1.5383 -0.2102  0.6413
  452MOL0     O60888   5.887   6.216   9.585 -0.7221 -0.5148  0.4017
  452MOL0     C60889   5.994   6.298   9.540 -0.4070  0.2015  0.5046
  452MOL0     C60890   6.085   6.349   9.639  0.5088  0.2818  0.1645
  452MOL0     C60891   6.191   6.438   9.606  0.8586 -0.5090 -0.1907
  452MOL0     C60892   6.207   6.473   9.471  0.0115 -0.3315  0.4996
  452MOL0     O60893   6.292   6.571   9.429 -0.6777  0.1042  0.1147
  452MOL0     C60894   6.333   6.687   9.504 -0.1468  0.4205 -0.2786
  452MOL0     C60895   6.349   6.800   9.409 -0.5691  0.0769 -0.0171
  452MOL0     C60896   6.442   6.770   9.287  0.4242 -0.4167 -0.0299
  452MOL0     C60897   6.561   6.672   9.313 -0.3729 -0.0269  0.7359
  452MOL0     C60898   6.671   6.681   9.198 -0.4147  0.1501 -0.2032
  452MOL0     C60899   6.752   6.809   9.201  1.1269 -0.5847 -1.2413
  452MOL0     C60900   6.863   6.824   9.094  0.0168  0.1246 -0.4502
  452MOL0     C60901   6.797   6.862   8.962 -0.0344 -1.1644  0.1115
  452MOL0     N60902   6.877   6.851   8.846  0.4874 -0.4428 -0.1118
  452MOL0     C60903   6.915   6.733   8.785  0.5206  0.2535 -0.6356
  452MOL0     C60904   6.954   6.766   8.662  0.3510 -0.5189  0.3712
  452MOL0     C60905   7.001   6.669   8.567 -0.7295  0.6771 -0.1467
  452MOL0     C60906   7.139   6.607   8.617 -0.4907  0.1770 -0.3336
  452MOL0     C60907   7.252   6.714   8.613  0.6214  0.0824  0.4347
  452MOL0     C60908   7.387   6.653   8.640  0.4922  0.4729  0.2021
  452MOL0     O60909   7.413   6.570   8.749  0.2682  0.3955 -0.0584
  452MOL0     C60910   7.534   6.571   8.809 -0.5805 -1.3796  0.2446
  452MOL0     C60911   7.646   6.640   8.748 -0.2132  0.5916 -1.0093
  452MOL0     C60912   7.762   6.654   8.833 -0.5696  0.1501 -0.2122
  452MOL0     C60913   7.776   6.592   8.956  0.7635  0.1243 -0.1827
  452MOL0     C60914   7.895   6.615   9.039  0.3565 -0.1625  0.5203
  452MOL0     O60915   7.965   6.731   9.019  0.5034 -0.2083 -0.0954
  452MOL0     C60916   8.099   6.748   9.054  0.3404  0.2619 -0.3492
  452MOL0     C60917   8.192   6.670   8.989 -1.1100  0.3393 -0.3880
  452MOL0     C60918   8.325   6.672   9.030 -0.7425 -1.0629  0.1070
  452MOL0     C60919   8.370   6.756   9.135  0.3312 -0.4546  0.9084
  452MOL0     O60920   8.497   6.748   9.183 -0.4448  0.4868 -0.3393
  452MOL0     C60921   8.598   6.690   9.091  0.0422  0.8829  0.2038
  452MOL0     C60922   8.733   6.702   9.159 -0.8758 -0.5220 -0.5454
  452MOL0     C60923   8.857   6.651   9.076  0.6688 -0.3695 -0.2415
  452MOL0     C60924   8.979   6.679   9.164  0.5013  0.6518  0.1848
  452MOL0     C60925   9.112   6.688   9.082  1.0182  0.8180 -0.5406
  452MOL0     C60926   9.231   6.683   9.178 -0.1954 -1.3777  0.3702
  452MOL0     C60927   9.356   6.674   9.086  0.7929 -0.3625  0.6316
  452MOL0     C60928   9.460   6.605   9.161 -0.5339  0.6164 -0.6782
  452MOL0    Cl60929   9.618   6.609   9.079  0.1584 -0.2917  0.1338
  452MOL0     C60930   8.284   6.841   9.188  0.4119  0.2679  1.3356
  452MOL0     C60931   8.149   6.839   9.153  0.6372  0.5377  0.1818
  452MOL0     O60932   7.916   6.529   9.116 -0.0820  0.5572  0.9694
  452MOL0     C60933   7.669   6.508   9.006 -0.4706 -0.2718  0.0610
  452MOL0     C60934   7.545   6.516   8.935  0.1924  0.6829 -0.0627
  452MOL0     N60935   6.963   6.906   8.657  0.0350 -0.1683 -0.6770
  452MOL0     N60936   6.913   6.954   8.764  0.0248 -0.0344 -0.1173
  452MOL0     C60937   6.118   6.426   9.375  0.1587  0.1443 -0.6787
  452MOL0     C60938   6.013   6.343   9.411 -0.8396 -0.3623 -0.5000
  452MOL0     C60939   5.656   6.196   9.682  0.4693  0.0608  0.4157
  452MOL0     C60940   5.538   6.263   9.668  1.1307  0.7132 -0.1135
  452MOL0     C60941   5.418   6.191   9.674 -0.2172  0.0449  0.2058
  452MOL0     C60942   5.418   6.056   9.706 -0.1476  0.0717 -0.2893
  452MOL0     O60943   5.292   5.995   9.732  0.0802 -0.6030  1.0380
  452MOL0     C60944   5.288   5.856   9.747 -0.8342 -0.6384  0.1458
  452MOL0     C60945   5.157   5.800   9.798  0.1671 -0.0868  0.1626
  452MOL0     C60946   5.082   5.880   9.899 -0.3166 -0.0240 -0.6318
  452MOL0     C60947   4.954   5.823   9.958  0.2032  0.2174  0.4965
  452MOL0     C60948   4.860   5.788   9.851  1.1097 -0.4155 -0.0848
  452MOL0     C60949   4.793   5.769   9.746  0.3481  0.1761 -0.2175
  452MOL0     C60950   5.537   5.984   9.696  0.1732 -0.0482  0.0421
  452MOL0     C60951   5.655   6.054   9.687 -0.6161 -0.8635  0.7742
  452MOL0     C60952   5.776   5.978   9.695  0.5492  1.1077 -0.2571
  452MOL0     H60953   6.066   6.313   9.740 -2.4231  1.4390  0.1233
  452MOL0     H60954   6.261   6.464   9.685  1.5703  0.8545 -1.2324
  452MOL0     H60955   6.270   6.701   9.593 -0.2478 -1.3452 -0.0355
  452MOL0     H60956   6.432   6.676   9.551  0.3616 -1.2667 -1.6508
  452MOL0     H60957   6.389   6.888   9.460  3.3889 -0.6404 -1.5770
  452MOL0     H60958   6.247   6.825   9.379  0.1440  0.9560 -1.8163
  452MOL0     H60959   6.467   6.864   9.237 -1.8936  0.7645  0.8884
  452MOL0     H60960   6.374   6.720   9.219 -1.9706  0.8334  1.3133
  452MOL0     H60961   6.621   6.691   9.403  0.8664 -0.8885  0.1180
  452MOL0     H60962   6.523   6.570   9.322 -0.1049 -0.2357 -0.4540
  452MOL0     H60963   6.748   6.605   9.211 -0.0756  0.4754 -0.2907
  452MOL0     H60964   6.611   6.664   9.108 -1.3883  0.4482  0.3691
  452MOL0     H60965   6.687   6.897   9.204  0.7673 -0.8672  1.5084
  452MOL0     H60966   6.803   6.816   9.298 -3.3395 -2.2978  1.5261
  452MOL0     H60967   6.922   6.733   9.078 -0.9280 -0.4053 -1.0181
  452MOL0     H60968   6.937   6.891   9.138  0.4853 -2.1845  2.5731
  452MOL0     H60969   6.709   6.801   8.937  0.7516 -2.6774  0.9213
  452MOL0     H60970   6.762   6.966   8.968 -1.4814 -1.6122 -0.1514
  452MOL0     H60971   6.908   6.629   8.815  3.3172 -0.0857 -0.8657
  452MOL0     H60972   6.919   6.597   8.555 -1.2237  1.4902 -1.9585
  452MOL0     H60973   7.020   6.700   8.464 -0.3782 -3.1792 -1.3931
  452MOL0     H60974   7.127   6.576   8.721 -1.6335  1.0377 -0.1904
  452MOL0     H60975   7.166   6.520   8.556 -0.5570  0.1578 -0.3341
  452MOL0     H60976   7.236   6.785   8.694 -1.2196 -3.9048  3.9664
  452MOL0     H60977   7.248   6.767   8.518 -3.5854 -0.5229  0.0899
  452MOL0     H60978   7.451   6.742   8.650  3.1711 -1.3084 -0.1010
  452MOL0     H60979   7.419   6.598   8.551  1.7589 -1.6138  1.8479
  452MOL0     H60980   7.656   6.668   8.644  0.2254 -3.6402 -2.2962
  452MOL0     H60981   7.836   6.728   8.805 -0.5240 -0.0357 -0.5803
  452MOL0     H60982   8.164   6.603   8.908 -2.8635  2.7250 -1.8962
  452MOL0     H60983   8.394   6.596   8.994 -0.6907 -0.6394 -0.7062
  452MOL0     H60984   8.596   6.582   9.075  0.3952  0.9874 -0.5625
  452MOL0     H60985   8.588   6.739   8.994  2.9602 -1.0983 -1.2358
  452MOL0     H60986   8.747   6.805   9.191 -1.0059 -0.2850 -1.2220
  452MOL0     H60987   8.734   6.642   9.250 -2.1410 -0.5997 -0.5685
  452MOL0     H60988   8.833   6.545   9.064 -0.7257 -0.3790  1.9811
  452MOL0     H60989   8.855   6.711   8.986  0.2885 -1.1105 -0.7421
  452MOL0     H60990   8.983   6.599   9.238 -3.1105 -1.9451 -2.0706
  452MOL0     H60991   8.969   6.776   9.215  0.2396 -0.4329  2.3106
  452MOL0     H60992   9.121   6.781   9.024  1.7672  2.1315  1.5470
  452MOL0     H60993   9.117   6.601   9.016 -1.1858 -1.1486  1.6659
  452MOL0     H60994   9.220   6.774   9.238 -1.5515 -1.4700  0.2866
  452MOL0     H60995   9.218   6.594   9.242 -1.0717 -3.5194 -2.5611
  452MOL0     H60996   9.382   6.775   9.051 -2.5940  0.0156 -1.2490
  452MOL0     H60997   9.328   6.605   9.007 -0.4605  1.5022 -0.6565
  452MOL0     H60998   9.466   6.628   9.268  3.0430 -0.8318 -0.4011
  452MOL0     H60999   9.428   6.501   9.152 -1.1974  0.3895  2.7285
  452MOL0     H61000   8.300   6.905   9.274 -2.2914  0.5426  1.7283
  452MOL0     H61001   8.085   6.914   9.198 -0.5201 -0.0062 -0.5075
  452MOL0     H61002   7.668   6.462   9.104 -0.7743  0.7517  0.5543
  452MOL0     H61003   7.465   6.464   8.988  0.6970  0.8587  0.8986
  452MOL0     H61004   6.134   6.466   9.275  1.6939  0.6142 -0.2736
  452MOL0     H61005   5.933   6.298   9.353 -2.1802 -1.1661  1.8444
  452MOL0     H61006   5.531   6.371   9.669  0.3026  0.6630  0.7825
  452MOL0     H61007   5.326   6.248   9.672 -0.0315  0.5122  2.4432
  452MOL0     H61008   5.369   5.805   9.801 -2.1656 -3.1332 -0.0907
  452MOL0     H61009   5.307   5.824   9.644  0.5193  0.6944 -0.0625
  452MOL0     H61010   5.173   5.699   9.836  1.7099  0.1266  0.1549
  452MOL0     H61011   5.089   5.797   9.713 -1.1457  3.7451  0.8855
  452MOL0     H61012   5.048   5.972   9.852 -3.4614 -1.7565 -2.1030
  452MOL0     H61013   5.145   5.897   9.986  0.2359 -0.6433 -0.8996
  452MOL0     H61014   4.967   5.736  10.024  2.5151 -1.5132 -2.0288
  452MOL0     H61015   4.897   5.899  10.012  0.8134  0.6083  0.6004
  452MOL0     H61016   4.726   5.743   9.666  0.6555 -1.1176 -0.0801
  452MOL0     H61017   5.536   5.876   9.702 -0.8813  0.0459  2.3384
  452MOL0     H61018   5.753   5.873   9.716 -3.8166  1.5231 -1.9593
  452MOL0     H61019   5.833   5.986   9.602 -0.5703  1.7864 -0.9030
  452MOL0     H61020   5.843   6.007   9.777  3.1916 -3.3328 -0.5436
  453MOL0     O61021  11.406   8.147   8.146 -1.0719  0.2351 -0.5301
  453MOL0     C61022  11.457   8.070   8.232  0.8814 -0.3232  0.7589
  453MOL0     O61023  11.587   8.075   8.254 -0.2878 -0.4725  0.4960
  453MOL0     C61024  11.666   8.193   8.251 -0.4630  0.1902 -0.9826
  453MOL0     C61025  11.800   8.169   8.258 -0.6692 -0.0633  0.3551
  453MOL0     C61026  11.894   8.263   8.263 -0.1769 -0.1462  0.5002
  453MOL0     C61027  11.855   8.395   8.260  0.1935 -0.7129  0.5553
  453MOL0     O61028  11.943   8.500   8.269 -0.1475 -0.1952  0.2878
  453MOL0     C61029  12.074   8.492   8.222 -0.1164 -0.9677 -0.1669
  453MOL0     C61030  12.123   8.639   8.234 -0.3540  0.0637 -0.0305
  453MOL0     C61031  12.033   8.725   8.143 -0.1642 -0.2363 -0.5330
  453MOL0     C61032  12.056   8.880   8.160 -0.4049  0.4253  0.3303
  453MOL0     C61033  12.193   8.922   8.124  0.1836 -0.2659 -0.0122
  453MOL0     C61034  12.201   9.069   8.101  0.1056  0.0019  0.0487
  453MOL0     C61035  12.350   9.109   8.085 -0.5529 -0.1946 -0.4333
  453MOL0     C61036  12.366   9.265   8.066  0.0776 -0.1177  0.0545
  453MOL0     N61037  12.420   9.297   7.931  1.1543 -0.0403 -0.4985
  453MOL0     C61038  12.377   9.254   7.810 -0.3128  0.9076 -0.1097
  453MOL0     C61039  12.457   9.315   7.721  0.2827 -1.1001 -0.6572
  453MOL0     C61040  12.441   9.312   7.570 -0.3527 -0.4061  0.4176
  453MOL0     C61041  12.505   9.191   7.514  0.2276  0.5765  0.3171
  453MOL0     C61042  12.656   9.196   7.526 -0.2248 -0.8386 -0.8703
  453MOL0     C61043  12.729   9.333   7.498 -0.3465 -0.5765  0.5351
  453MOL0     O61044  12.867   9.305   7.482  0.1072 -0.4091  0.0217
  453MOL0     C61045  12.968   9.363   7.563  0.7893 -0.1409 -0.0932
  453MOL0     C61046  13.100   9.355   7.528  0.6279  0.1861  0.1366
  453MOL0     C61047  13.204   9.407   7.599 -0.5462 -0.4730 -0.2244
  453MOL0     C61048  13.173   9.482   7.717 -0.4460 -0.7725  0.2552
  453MOL0     C61049  13.273   9.551   7.807 -1.0078  0.8678 -0.3679
  453MOL0     O61050  13.242   9.679   7.853  0.0532  0.4397  0.0946
  453MOL0     C61051  13.342   9.743   7.935  0.4626 -0.7282  0.1202
  453MOL0     C61052  13.375   9.867   7.901  0.2695  1.0903  0.5290
  453MOL0     C61053  13.484   9.933   7.958  0.0563 -0.6293  0.1900
  453MOL0     C61054  13.549   9.870   8.062 -0.7017  0.2895 -0.3580
  453MOL0     O61055  13.654   9.920   8.132  1.4778  0.0344 -0.1249
  453MOL0     C61056  13.718  10.049   8.114  0.3840  0.1772 -0.5430
  453MOL0     C61057  13.874  10.032   8.116  0.6362 -0.0730 -0.1541
  453MOL0     C61058  13.938  10.080   8.247 -0.0081  0.9446  0.9105
  453MOL0     C61059  13.932  10.227   8.249  0.1515  0.7505  0.0395
  453MOL0     C61060  14.043  10.300   8.330  0.6591 -0.0879  0.1100
  453MOL0     C61061  14.016  10.309   8.478  0.1114 -0.6953 -0.4524
  453MOL0     C61062  13.983  10.179   8.558  0.2364  0.0459 -0.8119
  453MOL0     C61063  14.014  10.185   8.715  0.3833 -0.0517 -0.6148
  453MOL0    Cl61064  13.903  10.257   8.799 -0.3726 -0.0001 -0.3979
  453MOL0     C61065  13.522   9.739   8.104 -0.4880 -0.0169  0.5751
  453MOL0     C61066  13.414   9.670   8.034 -0.0966  0.5714 -0.5483
  453MOL0     O61067  13.379   9.489   7.831 -0.0839  0.3793 -0.6053
  453MOL0     C61068  13.042   9.497   7.756  0.3084 -0.5618  0.5243
  453MOL0     C61069  12.942   9.435   7.682  0.1060  0.5471 -0.5833
  453MOL0     N61070  12.557   9.383   7.789 -0.3717  1.1539  0.2137
  453MOL0     N61071  12.529   9.370   7.913 -0.7263 -0.5666  0.2163
  453MOL0     C61072  11.718   8.428   8.259 -0.3264  0.2472 -0.4264
  453MOL0     C61073  11.622   8.324   8.254  0.4099 -0.1911 -0.3267
  453MOL0     C61074  11.384   7.948   8.284  0.7565 -0.2982 -0.1275
  453MOL0     C61075  11.458   7.848   8.349 -0.2141 -0.2749  0.4551
  453MOL0     C61076  11.395   7.737   8.409 -0.4004  0.0770  0.2450
  453MOL0     C61077  11.253   7.719   8.387 -0.3590 -0.6254  0.5938
  453MOL0     O61078  11.176   7.611   8.438  0.3479 -0.6536  0.0070
  453MOL0     C61079  11.226   7.481   8.410 -1.4561 -0.1921 -0.1162
  453MOL0     C61080  11.221   7.450   8.258 -0.4570  0.7513  0.1891
  453MOL0     C61081  11.070   7.440   8.228 -0.4684  0.1764  0.5798
  453MOL0     C61082  11.033   7.384   8.091 -0.4389  0.4362 -0.6087
  453MOL0     C61083  10.884   7.413   8.069 -0.6423  0.0521 -0.5482
  453MOL0     C61084  10.766   7.438   8.055 -0.3248 -0.0289  0.1594
  453MOL0     C61085  11.183   7.821   8.317 -0.7377  0.5461  0.0494
  453MOL0     C61086  11.238   7.937   8.264 -0.0253 -0.0408  1.3923
  453MOL0     C61087  11.145   8.035   8.198  0.7299 -0.6421 -0.5038
  453MOL0     H61088  11.837   8.067   8.253 -0.9804 -0.1604  0.0101
  453MOL0     H61089  11.998   8.240   8.282  0.2550  0.3962 -1.0421
  453MOL0     H61090  12.140   8.427   8.281  1.2674  2.5872  2.5590
  453MOL0     H61091  12.082   8.454   8.120 -1.6523  2.3638 -1.6652
  453MOL0     H61092  12.224   8.634   8.192 -0.0505 -0.3802  0.7463
  453MOL0     H61093  12.107   8.664   8.339  0.4429 -1.8199  0.5704
  453MOL0     H61094  11.931   8.705   8.178  0.0573 -0.9231 -0.2473
  453MOL0     H61095  12.038   8.681   8.043 -2.5535 -1.8593 -0.0229
  453MOL0     H61096  11.999   8.936   8.085  3.0180  2.6374 -0.8793
  453MOL0     H61097  12.028   8.901   8.264 -1.1426 -1.5111  0.5680
  453MOL0     H61098  12.268   8.895   8.199 -1.5254 -1.5712  1.3305
  453MOL0     H61099  12.213   8.873   8.029  1.0331 -0.6060  0.3362
  453MOL0     H61100  12.145   9.090   8.009 -3.8059 -0.9680  1.9942
  453MOL0     H61101  12.152   9.125   8.180 -1.1768  2.7930 -2.5121
  453MOL0     H61102  12.393   9.063   7.996 -1.8792 -1.0968 -0.6289
  453MOL0     H61103  12.405   9.073   8.173  0.2175  2.2604  0.1886
  453MOL0     H61104  12.271   9.319   8.065  0.5038  0.8180  2.4162
  453MOL0     H61105  12.424   9.307   8.149 -2.3009  1.5276  1.0000
  453MOL0     H61106  12.284   9.205   7.786  0.2057  0.9109 -2.3316
  453MOL0     H61107  12.334   9.310   7.546 -0.6244  1.4462  1.3056
  453MOL0     H61108  12.479   9.399   7.515  1.0545 -1.2864 -0.0516
  453MOL0     H61109  12.462   9.099   7.554  1.1333 -2.1534 -4.2108
  453MOL0     H61110  12.491   9.177   7.406 -2.5549  2.2607  0.3602
  453MOL0     H61111  12.706   9.120   7.466  1.6816  0.7599 -1.3965
  453MOL0     H61112  12.672   9.177   7.632 -2.5162  0.7722 -0.1434
  453MOL0     H61113  12.706   9.397   7.584 -1.2374  0.9641 -0.7911
  453MOL0     H61114  12.689   9.375   7.405 -0.8006  2.6309  2.0296
  453MOL0     H61115  13.122   9.288   7.446 -2.7649  0.4642 -1.1573
  453MOL0     H61116  13.309   9.387   7.580 -1.2127 -2.4101 -2.2719
  453MOL0     H61117  13.314   9.936   7.843 -2.7866  0.1616  2.3641
  453MOL0     H61118  13.513  10.033   7.927 -0.0487  0.1157  2.2947
  453MOL0     H61119  13.679  10.093   8.022 -3.7373 -2.1447 -0.1223
  453MOL0     H61120  13.680  10.114   8.192  0.6494  0.9885 -1.0700
  453MOL0     H61121  13.885   9.924   8.102  0.2215 -0.4006  1.8427
  453MOL0     H61122  13.915  10.082   8.027  2.8756  0.3930  1.0744
  453MOL0     H61123  13.876  10.052   8.333  0.2401  3.2216  1.9016
  453MOL0     H61124  14.043  10.051   8.257  0.7624  2.7366 -1.2654
  453MOL0     H61125  13.834  10.266   8.277  0.6359 -0.4863  4.0251
  453MOL0     H61126  13.941  10.265   8.146 -0.5125 -0.4371 -0.4850
  453MOL0     H61127  14.058  10.399   8.286 -3.0985 -0.7414 -3.2678
  453MOL0     H61128  14.136  10.243   8.329  0.1886 -1.1053  3.4193
  453MOL0     H61129  14.099  10.365   8.524  2.3172 -2.3079 -2.2647
  453MOL0     H61130  13.928  10.374   8.486  1.1830  0.7154  0.3479
  453MOL0     H61131  14.038  10.089   8.528  2.2575  1.0835 -0.3719
  453MOL0     H61132  13.877  10.156   8.541  0.5273  0.3994 -3.5335
  453MOL0     H61133  14.016  10.082   8.752 -2.0860  0.6992  1.8793
  453MOL0     H61134  14.111  10.234   8.728  1.9214 -2.9664 -0.1118
  453MOL0     H61135  13.576   9.677   8.175 -0.8464  1.2735  2.0589
  453MOL0     H61136  13.400   9.565   8.056  2.1990 -0.0124 -1.5641
  453MOL0     H61137  12.996   9.554   7.837 -1.8406 -2.9544  1.1613
  453MOL0     H61138  12.843   9.453   7.722  1.0323  2.9419  0.8400
  453MOL0     H61139  11.686   8.531   8.250 -0.0176  0.2976 -0.9775
  453MOL0     H61140  11.515   8.343   8.251 -0.5462 -4.3579  1.0344
  453MOL0     H61141  11.564   7.852   8.372 -0.6345 -0.1931  2.5352
  453MOL0     H61142  11.457   7.676   8.474  0.8610 -0.4958 -1.3994
  453MOL0     H61143  11.177   7.405   8.472 -1.9504  1.9245  2.2497
  453MOL0     H61144  11.327   7.461   8.447 -2.1213 -1.8366  0.9135
  453MOL0     H61145  11.275   7.357   8.238 -1.3418  0.2157  0.2457
  453MOL0     H61146  11.261   7.531   8.197 -0.0493  0.6811  0.3591
  453MOL0     H61147  11.018   7.535   8.239  0.0845  0.3942  1.4739
  453MOL0     H61148  11.027   7.379   8.308 -3.0223  0.6079 -0.3819
  453MOL0     H61149  11.081   7.436   8.008  2.3498 -0.9981 -0.0205
  453MOL0     H61150  11.044   7.275   8.087 -2.2661  0.2524 -3.5951
  453MOL0     H61151  10.661   7.457   8.052 -0.1375  1.1291  0.2028
  453MOL0     H61152  11.075   7.806   8.313 -0.5300 -2.3969  1.9203
  453MOL0     H61153  11.039   8.009   8.202  0.3806  0.8198  1.5345
  453MOL0     H61154  11.145   8.114   8.273 -2.0486  0.2542 -1.3252
  453MOL0     H61155  11.176   8.057   8.096  1.5405  1.3640  0.1220
  454MOL0     O61156   0.690   1.520   5.729 -0.2777  0.4076  0.0618
  454MOL0     C61157   0.592   1.460   5.759  0.0658  0.0791 -0.5034
  454MOL0     O61158   0.583   1.328   5.743  0.0083 -0.0207  0.4799
  454MOL0     C61159   0.667   1.229   5.791 -0.3390  0.6118  0.1252
  454MOL0     C61160   0.632   1.093   5.780 -0.2731  0.0794  0.1785
  454MOL0     C61161   0.715   0.994   5.843 -1.0035 -0.1146  1.0635
  454MOL0     C61162   0.840   1.023   5.897 -0.6040 -0.1852 -0.1618
  454MOL0     O61163   0.931   0.933   5.957 -0.1824  0.2685  0.5649
  454MOL0     C61164   0.881   0.815   6.002  0.8235  1.3600  0.3178
  454MOL0     C61165   0.983   0.714   6.069  0.1839  0.5897 -0.2599
  454MOL0     C61166   1.028   0.779   6.203 -0.1823 -0.0080 -0.0776
  454MOL0     C61167   1.143   0.701   6.269  0.1719  0.0620  1.0244
  454MOL0     C61168   1.182   0.720   6.414 -0.2221  0.6407 -0.2236
  454MOL0     C61169   1.272   0.842   6.416 -0.1412  0.4335  0.3228
  454MOL0     C61170   1.314   0.884   6.549 -0.2749  0.6347 -0.5120
  454MOL0     C61171   1.432   0.978   6.547 -0.2126 -0.1581 -0.1239
  454MOL0     N61172   1.467   1.004   6.684 -0.0934 -0.3093  0.6488
  454MOL0     C61173   1.376   1.051   6.772  0.2942  0.5797  0.1905
  454MOL0     C61174   1.447   1.059   6.891  0.3386  0.9676 -0.6889
  454MOL0     C61175   1.405   1.132   7.019 -0.5687  1.1017  0.1014
  454MOL0     C61176   1.507   1.233   7.066  0.5071  0.5534  0.1105
  454MOL0     C61177   1.492   1.371   6.990 -0.7197  0.4351 -0.1341
  454MOL0     C61178   1.607   1.468   7.009  0.5509  0.9650 -0.5152
  454MOL0     O61179   1.703   1.411   6.917 -0.0078  0.3957 -0.9649
  454MOL0     C61180   1.805   1.488   6.874  0.7013  0.3862 -0.0645
  454MOL0     C61181   1.854   1.596   6.947  1.1970  0.8007 -0.2537
  454MOL0     C61182   1.946   1.681   6.896  0.0260 -0.0899  0.2623
  454MOL0     C61183   2.000   1.654   6.763 -0.2937 -0.1740 -0.4645
  454MOL0     C61184   2.116   1.730   6.713 -0.1878  0.3364  0.8215
  454MOL0     O61185   2.152   1.708   6.591 -0.1631 -0.6201  0.1775
  454MOL0     C61186   2.257   1.787   6.538 -0.0042 -1.1561 -0.1721
  454MOL0     C61187   2.364   1.730   6.466  0.4179  0.0255  0.3321
  454MOL0     C61188   2.465   1.808   6.409 -0.2229  0.2199  0.2777
  454MOL0     C61189   2.467   1.946   6.416  0.0293  0.5072  0.0183
  454MOL0     O61190   2.558   2.028   6.346  0.5652  0.0606 -0.3915
  454MOL0     C61191   2.671   1.985   6.279 -0.1716  0.1772  0.7054
  454MOL0     C61192   2.774   2.101   6.272  0.1760  0.3297  0.7837
  454MOL0     C61193   2.808   2.158   6.408  0.6744 -0.6637 -0.1295
  454MOL0     C61194   2.940   2.234   6.394 -0.3125 -0.8402  0.3220
  454MOL0     C61195   2.976   2.321   6.518 -0.3294 -0.1239 -0.3877
  454MOL0     C61196   2.883   2.446   6.543 -0.1720 -0.3384 -0.7055
  454MOL0     C61197   2.857   2.540   6.432  0.1584 -0.2093 -0.0543
  454MOL0     C61198   2.816   2.688   6.479  0.2900  1.0950 -0.8988
  454MOL0    Cl61199   2.866   2.793   6.344 -0.4260 -0.4778  0.2647
  454MOL0     C61200   2.352   2.002   6.485  0.1651 -1.4953 -0.0697
  454MOL0     C61201   2.251   1.925   6.546  0.2098 -0.4322 -0.0321
  454MOL0     O61202   2.179   1.794   6.794 -0.5413  0.2075  0.4030
  454MOL0     C61203   1.955   1.545   6.691 -0.7523  0.5940  1.3407
  454MOL0     C61204   1.859   1.459   6.747 -0.0224  0.7962  0.4945
  454MOL0     N61205   1.575   1.021   6.871  1.1199 -0.1622 -0.5783
  454MOL0     N61206   1.586   0.992   6.745  0.2379 -0.2931  0.0146
  454MOL0     C61207   0.872   1.156   5.909 -0.1581 -0.0968  0.0757
  454MOL0     C61208   0.783   1.259   5.858 -0.9971  0.3587  0.3694
  454MOL0     C61209   0.475   1.522   5.816  0.2259  0.6250  0.3104
  454MOL0     C61210   0.363   1.444   5.848  1.0283  0.5414 -0.2567
  454MOL0     C61211   0.235   1.494   5.882 -0.0578 -0.7450 -0.1436
  454MOL0     C61212   0.212   1.637   5.875 -1.4629  0.5510  0.0342
  454MOL0     O61213   0.085   1.690   5.902 -0.4915  0.5223  0.0289
  454MOL0     C61214   0.064   1.836   5.893  0.4203  0.7509  0.6154
  454MOL0     C61215  -0.089   1.849   5.905  0.2164  0.2240 -0.1072
  454MOL0     C61216  -0.151   1.861   5.763  0.6003 -0.5967  0.9042
  454MOL0     C61217  -0.146   1.743   5.662  0.1394  0.1823  0.0359
  454MOL0     C61218  -0.215   1.622   5.713 -0.7939 -0.2105  0.6611
  454MOL0     C61219  -0.280   1.522   5.749  0.1842  0.0383  0.1332
  454MOL0     C61220   0.324   1.713   5.852  0.2059 -0.5554  0.9704
  454MOL0     C61221   0.453   1.661   5.809 -0.1044 -0.9052 -0.9654
  454MOL0     C61222   0.572   1.766   5.779 -0.2798  0.2813  0.0743
  454MOL0     H61223   0.535   1.060   5.743 -1.3355 -0.6505  3.2759
  454MOL0     H61224   0.688   0.890   5.851 -0.3082 -0.1990  2.8965
  454MOL0     H61225   0.791   0.834   6.061 -1.0270  2.6315 -2.6960
  454MOL0     H61226   0.832   0.773   5.914 -0.4222  1.2855  1.0314
  454MOL0     H61227   1.078   0.701   6.017  0.0075  0.0544 -0.4540
  454MOL0     H61228   0.933   0.618   6.084 -0.8213  1.2445  0.7070
  454MOL0     H61229   0.952   0.777   6.282  1.3098  2.3168  1.5422
  454MOL0     H61230   1.056   0.884   6.194  1.6204 -0.0919  3.0070
  454MOL0     H61231   1.123   0.595   6.258 -1.1866  0.4356 -0.5027
  454MOL0     H61232   1.225   0.723   6.200  0.0616 -2.4991 -0.0155
  454MOL0     H61233   1.099   0.741   6.482 -1.4953 -1.3659 -1.0775
  454MOL0     H61234   1.239   0.634   6.452 -0.2973  0.0613 -1.3899
  454MOL0     H61235   1.369   0.822   6.368  1.3360  1.0756  2.8542
  454MOL0     H61236   1.223   0.929   6.371 -2.4164  0.0362  1.9048
  454MOL0     H61237   1.324   0.801   6.619 -2.4002 -0.4894 -1.4410
  454MOL0     H61238   1.220   0.932   6.578 -0.5351  0.7868 -1.5502
  454MOL0     H61239   1.511   0.938   6.483 -2.1289 -0.2273 -2.5881
  454MOL0     H61240   1.414   1.077   6.504  1.7473  0.7320  0.9611
  454MOL0     H61241   1.276   1.084   6.748  0.9901  0.9266 -2.5511
  454MOL0     H61242   1.303   1.168   6.999 -1.0076  1.1511  2.1962
  454MOL0     H61243   1.404   1.056   7.097  3.8049  0.9060  0.1715
  454MOL0     H61244   1.489   1.238   7.174  2.9639 -1.2325  0.6823
  454MOL0     H61245   1.607   1.192   7.054  0.3965  0.5379 -0.8709
  454MOL0     H61246   1.401   1.420   7.025 -1.4999 -1.0471  0.0202
  454MOL0     H61247   1.488   1.353   6.882  2.4810  2.0672 -0.6366
  454MOL0     H61248   1.637   1.457   7.113  0.8559  0.4635 -0.6522
  454MOL0     H61249   1.576   1.571   6.987 -2.1478  0.5462  0.9142
  454MOL0     H61250   1.818   1.635   7.042 -1.2323 -1.4641 -0.1212
  454MOL0     H61251   1.956   1.777   6.945 -1.4848 -1.5224  3.6679
  454MOL0     H61252   2.381   1.623   6.458 -1.9590 -0.2280 -3.9654
  454MOL0     H61253   2.543   1.743   6.371 -0.2225  0.1533  0.3904
  454MOL0     H61254   2.713   1.897   6.330 -2.0740 -0.4679  1.2497
  454MOL0     H61255   2.652   1.965   6.173  0.1940  2.7843  0.0959
  454MOL0     H61256   2.871   2.063   6.239 -0.6292 -0.4468 -0.7898
  454MOL0     H61257   2.746   2.190   6.214 -1.3174 -0.8468 -0.3943
  454MOL0     H61258   2.737   2.239   6.427  2.7594  2.0726 -2.9245
  454MOL0     H61259   2.825   2.088   6.491  4.5525 -0.9500 -0.9677
  454MOL0     H61260   2.934   2.298   6.306  2.3414  3.9718  3.1820
  454MOL0     H61261   3.026   2.170   6.373  0.6795 -0.2988  2.4886
  454MOL0     H61262   3.082   2.346   6.510 -0.4627  0.8803  0.7131
  454MOL0     H61263   2.973   2.262   6.609 -0.6555  2.6695  1.5431
  454MOL0     H61264   2.790   2.411   6.589 -0.4541  2.1927  0.8732
  454MOL0     H61265   2.932   2.516   6.611  0.7142  0.1233 -1.7828
  454MOL0     H61266   2.785   2.494   6.363 -0.8192  0.8973  0.2031
  454MOL0     H61267   2.950   2.546   6.375 -0.7890 -0.4233 -1.6881
  454MOL0     H61268   2.708   2.702   6.483  0.2566  0.7292 -0.5914
  454MOL0     H61269   2.865   2.718   6.572 -1.3989  1.9554 -0.2638
  454MOL0     H61270   2.351   2.110   6.489  0.3010 -1.3753 -2.3344
  454MOL0     H61271   2.170   1.971   6.602 -0.9278  0.0078 -1.9562
  454MOL0     H61272   1.988   1.532   6.588  1.0544 -2.0802  2.1606
  454MOL0     H61273   1.815   1.370   6.702 -0.2518  0.6383  1.0147
  454MOL0     H61274   0.969   1.190   5.943 -1.8682  1.4047  4.0544
  454MOL0     H61275   0.815   1.361   5.876 -0.9480  0.3832  0.1491
  454MOL0     H61276   0.374   1.336   5.850  2.7926  0.5980 -2.8248
  454MOL0     H61277   0.150   1.430   5.901  0.4018 -0.7474  2.1502
  454MOL0     H61278   0.091   1.882   5.797  0.0876  0.3698  0.3341
  454MOL0     H61279   0.122   1.884   5.973  2.0539 -1.7870  1.0931
  454MOL0     H61280  -0.105   1.940   5.962 -1.1384  0.2470 -0.4736
  454MOL0     H61281  -0.128   1.772   5.972  2.5464 -1.1974 -0.2754
  454MOL0     H61282  -0.126   1.956   5.715 -1.0100  1.4623  3.8265
  454MOL0     H61283  -0.255   1.867   5.798  0.8095 -0.5511  1.5393
  454MOL0     H61284  -0.195   1.775   5.570 -1.6663  0.7426  1.1293
  454MOL0     H61285  -0.038   1.727   5.651  0.2824  1.3077 -0.2904
  454MOL0     H61286  -0.327   1.431   5.781 -0.7220  0.4149 -0.0934
  454MOL0     H61287   0.310   1.821   5.850  2.2938 -0.2140  1.5215
  454MOL0     H61288   0.540   1.857   5.832 -1.8723 -0.1489 -0.1004
  454MOL0     H61289   0.673   1.744   5.813  0.2990 -2.8194 -3.0656
  454MOL0     H61290   0.580   1.772   5.671 -3.0431  2.5950 -0.1351
  455MOL0     O61291   2.693   8.748   3.520  0.4808  0.6560  0.8076
  455MOL0     C61292   2.703   8.797   3.629  0.8931 -0.5623 -0.2312
  455MOL0     O61293   2.644   8.919   3.662 -0.2697  0.1282 -0.1899
  455MOL0     C61294   2.559   8.989   3.576  0.4332 -0.0724  0.9982
  455MOL0     C61295   2.569   9.123   3.577  0.4996 -0.5166 -0.0813
  455MOL0     C61296   2.460   9.204   3.521  0.3216  0.2690  0.9607
  455MOL0     C61297   2.359   9.143   3.433 -0.1836 -0.8686  0.4295
  455MOL0     O61298   2.269   9.224   3.360 -0.6420 -0.4973 -0.2527
  455MOL0     C61299   2.246   9.194   3.220 -0.6015 -0.4575  0.5325
  455MOL0     C61300   2.169   9.316   3.159 -0.5284 -0.2110  0.5938
  455MOL0     C61301   2.040   9.339   3.222 -0.4329  0.2568 -0.1864
  455MOL0     C61302   1.983   9.454   3.152  0.5437  0.3388  0.6398
  455MOL0     C61303   1.852   9.504   3.207  0.4007  0.1671  0.7063
  455MOL0     C61304   1.849   9.656   3.231  0.3258  0.2545  0.0232
  455MOL0     C61305   1.706   9.704   3.276 -0.8124  0.3787  0.2710
  455MOL0     C61306   1.606   9.691   3.158  0.4440 -0.4494 -0.1662
  455MOL0     N61307   1.664   9.746   3.029 -0.4336  0.0453 -0.6998
  455MOL0     C61308   1.621   9.860   2.967 -0.1334 -0.0969 -0.0633
  455MOL0     C61309   1.667   9.848   2.840 -0.2253  0.2473 -0.1066
  455MOL0     C61310   1.638   9.949   2.732  0.1637 -0.5943  0.0806
  455MOL0     C61311   1.621   9.893   2.590  0.2604 -0.9039  0.4027
  455MOL0     C61312   1.742   9.875   2.492 -0.3847  0.2972  1.1263
  455MOL0     C61313   1.817  10.007   2.467  0.1419 -0.9837  0.4123
  455MOL0     O61314   1.724  10.112   2.413 -0.1891  0.0621  0.3071
  455MOL0     C61315   1.651  10.090   2.301  1.2232  0.3071 -0.3358
  455MOL0     C61316   1.534  10.157   2.286 -1.0909 -0.6330 -0.1950
  455MOL0     C61317   1.456  10.149   2.177  0.7067 -0.2524 -0.8988
  455MOL0     C61318   1.490  10.074   2.066  0.4355 -0.3621  0.3342
  455MOL0     C61319   1.403  10.055   1.946 -1.0384  1.0352 -0.5991
  455MOL0     O61320   1.310  10.155   1.941 -0.7367 -0.0248  0.5955
  455MOL0     C61321   1.215  10.156   1.839 -0.3275 -0.3428 -0.2337
  455MOL0     C61322   1.223  10.277   1.767 -0.4289 -0.1225  0.7036
  455MOL0     C61323   1.143  10.302   1.661 -0.1572  0.2087 -0.9027
  455MOL0     C61324   1.050  10.202   1.620 -0.0498 -0.8476  0.1165
  455MOL0     O61325   0.979  10.235   1.507 -0.7508 -0.0627 -0.7806
  455MOL0     C61326   0.879  10.139   1.467  0.9872 -0.6153 -0.3162
  455MOL0     C61327   0.807  10.193   1.351  1.0228  0.0186  0.7320
  455MOL0     C61328   0.704  10.096   1.298  0.0925 -0.4919 -0.6683
  455MOL0     C61329   0.644  10.159   1.174  0.2228 -0.3282  0.8824
  455MOL0     C61330   0.507  10.089   1.132  0.0923 -0.2649 -0.7892
  455MOL0     C61331   0.393  10.152   1.215  0.2932 -0.7347  0.0155
  455MOL0     C61332   0.266  10.078   1.182 -0.5412  0.3386  0.0084
  455MOL0     C61333   0.157  10.107   1.279 -0.6622  0.2121 -0.4690
  455MOL0    Cl61334   0.189  10.044   1.441  0.0733 -0.1080  0.1255
  455MOL0     C61335   1.046  10.080   1.689 -0.0054  0.0766  0.6831
  455MOL0     C61336   1.128  10.054   1.793  0.0622 -0.3799 -0.6095
  455MOL0     O61337   1.430   9.969   1.863 -0.2167 -0.0051  0.1438
  455MOL0     C61338   1.622  10.003   2.078  0.0297 -0.9591 -0.2783
  455MOL0     C61339   1.687   9.999   2.201  0.0546 -0.7864 -0.0687
  455MOL0     N61340   1.721   9.724   2.819 -0.4187 -0.3641  0.0723
  455MOL0     N61341   1.742   9.671   2.941  0.1246  0.0290  0.5694
  455MOL0     C61342   2.352   8.995   3.430  0.3175  0.0127  0.1347
  455MOL0     C61343   2.450   8.923   3.502  0.4222 -0.9924  0.0679
  455MOL0     C61344   2.778   8.729   3.734 -0.1443  0.2229  0.0938
  455MOL0     C61345   2.848   8.821   3.814  0.0894  0.5568  0.0819
  455MOL0     C61346   2.939   8.767   3.910  0.2811 -0.4036 -0.6000
  455MOL0     C61347   2.964   8.635   3.931 -0.6419  0.2004  0.9275
  455MOL0     O61348   3.069   8.603   4.019  0.3007  0.4078  0.0978
  455MOL0     C61349   3.147   8.500   3.990 -0.5939  0.7696 -0.0575
  455MOL0     C61350   3.210   8.492   3.857 -0.5199  0.0817 -0.4123
  455MOL0     C61351   3.319   8.602   3.850 -0.7438  0.7418 -0.5389
  455MOL0     C61352   3.375   8.622   3.709  0.0247  0.3820  0.0783
  455MOL0     C61353   3.496   8.701   3.709 -0.0618  0.1741  0.2787
  455MOL0     C61354   3.599   8.776   3.710 -0.0334  0.2345 -0.2312
  455MOL0     C61355   2.895   8.551   3.852 -0.3533  0.6474 -0.1967
  455MOL0     C61356   2.796   8.583   3.754 -0.1289  0.0894  0.5203
  455MOL0     C61357   2.707   8.484   3.694 -0.5957  0.0582  0.8851
  455MOL0     H61358   2.651   9.157   3.639 -0.4449 -2.0899  2.1401
  455MOL0     H61359   2.463   9.309   3.546 -0.8758  0.9335 -1.3263
  455MOL0     H61360   2.346   9.187   3.177 -1.2362  1.5201 -1.4799
  455MOL0     H61361   2.194   9.099   3.199  1.8996 -1.5717 -1.1041
  455MOL0     H61362   2.147   9.300   3.053  0.0767  0.7665  0.3073
  455MOL0     H61363   2.241   9.398   3.170  1.1648 -1.6111  0.3517
  455MOL0     H61364   2.061   9.367   3.326  3.1439 -1.3456 -0.3310
  455MOL0     H61365   1.980   9.248   3.226  0.7910 -0.7105 -2.0384
  455MOL0     H61366   2.055   9.537   3.152  1.5572 -0.4650  2.7934
  455MOL0     H61367   1.962   9.434   3.047 -0.4708 -1.2069  1.1045
  455MOL0     H61368   1.785   9.486   3.123  0.5730  1.4684  0.2601
  455MOL0     H61369   1.839   9.449   3.301 -2.7518  0.8659  0.7888
  455MOL0     H61370   1.919   9.660   3.315 -0.9185  0.7485  1.0662
  455MOL0     H61371   1.892   9.717   3.152 -0.6897  3.3987  1.7308
  455MOL0     H61372   1.711   9.806   3.314 -0.4761  0.8792 -1.0372
  455MOL0     H61373   1.666   9.645   3.359 -3.1246  1.3638 -0.0731
  455MOL0     H61374   1.578   9.587   3.140 -1.5976 -0.0711  0.6040
  455MOL0     H61375   1.514   9.742   3.189  0.4648 -0.0538 -0.7480
  455MOL0     H61376   1.573   9.940   3.023 -0.5138 -0.7743  0.5969
  455MOL0     H61377   1.549  10.005   2.763  0.4756 -0.8293  1.4692
  455MOL0     H61378   1.714  10.027   2.730  0.1406 -0.4264  2.3700
  455MOL0     H61379   1.576   9.795   2.607  0.1666 -0.6536  1.7039
  455MOL0     H61380   1.560   9.965   2.534 -1.2220 -0.1889  2.8187
  455MOL0     H61381   1.718   9.821   2.400  1.5375 -1.0580  1.3472
  455MOL0     H61382   1.819   9.821   2.548  1.0821  3.7603  2.7313
  455MOL0     H61383   1.892   9.996   2.388  1.0778  0.3842  1.0544
  455MOL0     H61384   1.865  10.045   2.558 -0.9132 -3.7272  2.2628
  455MOL0     H61385   1.502  10.229   2.361 -0.5227 -0.9695  0.3839
  455MOL0     H61386   1.367  10.210   2.183 -0.3443 -1.6155 -1.9303
  455MOL0     H61387   1.286  10.351   1.816 -1.8503  0.6806  1.3956
  455MOL0     H61388   1.166  10.392   1.605  2.4774  0.7731  0.9189
  455MOL0     H61389   0.929  10.045   1.440  1.2953 -1.4655  2.8426
  455MOL0     H61390   0.816  10.113   1.552  0.7066 -1.0659 -0.6588
  455MOL0     H61391   0.751  10.283   1.378 -0.2795 -0.6093  0.2053
  455MOL0     H61392   0.874  10.224   1.270  0.3999 -2.5617 -0.8739
  455MOL0     H61393   0.745   9.996   1.281 -1.1192 -0.5228 -4.1004
  455MOL0     H61394   0.624  10.097   1.374  0.7387  0.3663  0.0168
  455MOL0     H61395   0.717  10.157   1.093  0.1960  2.6106  0.6859
  455MOL0     H61396   0.630  10.263   1.206 -0.4832 -0.0535 -0.2762
  455MOL0     H61397   0.510   9.980   1.140  0.7119 -0.3644 -2.0042
  455MOL0     H61398   0.494  10.111   1.025  0.9127 -0.4534 -0.9368
  455MOL0     H61399   0.405  10.148   1.324 -1.4599  1.9614  0.4009
  455MOL0     H61400   0.373  10.256   1.190 -3.5801 -1.7111 -1.6288
  455MOL0     H61401   0.293   9.972   1.182  3.4206  1.1224 -2.4790
  455MOL0     H61402   0.231  10.114   1.085 -2.9350  4.3056  2.0933
  455MOL0     H61403   0.132  10.213   1.284 -0.6669  0.1684  0.8437
  455MOL0     H61404   0.067  10.058   1.240 -2.1406  0.4045  2.4098
  455MOL0     H61405   0.974  10.005   1.659 -0.5798  0.5954  0.7604
  455MOL0     H61406   1.132   9.961   1.848  0.7149 -0.3292 -0.5651
  455MOL0     H61407   1.654   9.941   1.995 -0.6558 -1.3839 -0.2289
  455MOL0     H61408   1.781   9.945   2.211 -1.4056 -3.3388  0.6651
  455MOL0     H61409   2.277   8.942   3.372  1.1719 -2.7976  1.4732
  455MOL0     H61410   2.440   8.815   3.511 -1.3997 -0.7658  1.4494
  455MOL0     H61411   2.836   8.928   3.809  0.9320  0.5950 -2.0374
  455MOL0     H61412   2.996   8.833   3.973 -1.2162  2.0916 -1.6944
  455MOL0     H61413   3.102   8.404   4.014  1.1206 -0.1936 -0.5542
  455MOL0     H61414   3.233   8.512   4.057  0.7782  0.9404 -1.7804
  455MOL0     H61415   3.140   8.505   3.774 -2.7617 -0.1449  1.3519
  455MOL0     H61416   3.246   8.389   3.852 -1.8805 -0.3447 -2.5200
  455MOL0     H61417   3.409   8.579   3.907  2.3442  2.7933 -4.1345
  455MOL0     H61418   3.283   8.697   3.889  0.3038  1.8983 -2.2589
  455MOL0     H61419   3.393   8.522   3.668 -1.4963 -1.3881  3.2973
  455MOL0     H61420   3.300   8.678   3.653  0.3495  1.3719  0.6026
  455MOL0     H61421   3.691   8.831   3.716  0.5992 -0.9586  2.5427
  455MOL0     H61422   2.912   8.448   3.881 -1.2051  0.8847  1.2084
  455MOL0     H61423   2.757   8.396   3.653 -2.2434 -0.5385  0.0785
  455MOL0     H61424   2.637   8.440   3.765  0.1857 -3.8824 -0.4988
  455MOL0     H61425   2.651   8.521   3.608  2.6735 -0.1349 -1.5089
  456MOL0     O61426   9.603   2.102   6.243 -0.0680  0.3956 -0.2007
  456MOL0     C61427   9.681   2.044   6.323 -0.4438  0.0025  0.8578
  456MOL0     O61428   9.803   2.106   6.366  0.4548 -0.0501  0.7121
  456MOL0     C61429   9.823   2.243   6.336 -0.6832 -0.9271 -0.3218
  456MOL0     C61430   9.868   2.280   6.207  0.3217  0.0349 -0.1908
  456MOL0     C61431   9.862   2.423   6.174 -0.0922  0.9240  0.4273
  456MOL0     C61432   9.813   2.516   6.260 -0.7314 -2.1309  0.0391
  456MOL0     O61433   9.810   2.653   6.211  0.7505  0.7273 -0.0067
  456MOL0     C61434   9.701   2.676   6.121  0.6169  0.6086  0.6227
  456MOL0     C61435   9.622   2.802   6.159  0.5524  0.0131 -1.0254
  456MOL0     C61436   9.555   2.855   6.031  0.1204  0.4416  0.0393
  456MOL0     C61437   9.488   2.992   6.070  0.4972 -0.3462 -0.1428
  456MOL0     C61438   9.367   3.040   5.981 -0.3384 -0.6800 -0.5933
  456MOL0     C61439   9.314   3.182   6.031 -0.2432 -0.1565  0.0984
  456MOL0     C61440   9.421   3.293   6.004  0.1515  0.2043 -0.9497
  456MOL0     C61441   9.353   3.429   6.015 -0.1673  0.4514  0.3158
  456MOL0     N61442   9.437   3.518   6.095  0.6059  0.6326  0.3578
  456MOL0     C61443   9.424   3.537   6.228  0.3544  0.7621  0.5570
  456MOL0     C61444   9.539   3.598   6.271  0.6563  0.9529  1.0220
  456MOL0     C61445   9.590   3.622   6.412  0.3363 -0.5557  0.2746
  456MOL0     C61446   9.743   3.585   6.410 -0.4395 -0.2640  0.5649
  456MOL0     C61447   9.782   3.451   6.352 -0.5711  0.5323  0.7741
  456MOL0     C61448   9.930   3.451   6.317 -0.4118  0.3288  0.0488
  456MOL0     O61449  10.008   3.452   6.432 -0.3486  0.3310 -0.2268
  456MOL0     C61450  10.138   3.412   6.406  0.0589  0.5888 -0.1028
  456MOL0     C61451  10.174   3.277   6.424  0.0085  0.3524  0.0443
  456MOL0     C61452  10.300   3.233   6.393  0.5580 -0.5764 -0.6874
  456MOL0     C61453  10.406   3.322   6.374  0.5515  0.5066 -0.2181
  456MOL0     C61454  10.551   3.281   6.358  0.5336  0.0556 -0.6272
  456MOL0     O61455  10.646   3.378   6.392 -0.3572  0.0102  0.2599
  456MOL0     C61456  10.771   3.377   6.334  0.2987 -0.0258  0.0151
  456MOL0     C61457  10.804   3.302   6.216 -0.3395  0.0450  0.0118
  456MOL0     C61458  10.927   3.307   6.166 -0.7927 -0.1725 -0.4552
  456MOL0     C61459  11.037   3.363   6.228 -0.4029 -0.1762 -0.2400
  456MOL0     O61460  11.152   3.351   6.152  0.7237 -0.2695  0.6695
  456MOL0     C61461  11.227   3.473   6.126 -0.5653 -0.5468 -0.3873
  456MOL0     C61462  11.381   3.462   6.130 -0.3898 -0.8577  0.5484
  456MOL0     C61463  11.434   3.598   6.073  0.4098  0.2044  0.3798
  456MOL0     C61464  11.575   3.584   6.012 -0.2281 -0.0284  0.5816
  456MOL0     C61465  11.637   3.712   5.966 -0.5376  0.4318  0.5957
  456MOL0     C61466  11.775   3.679   5.906 -1.5370  0.4221 -0.8649
  456MOL0     C61467  11.836   3.805   5.841 -0.0933 -0.3294  0.2171
  456MOL0     C61468  11.972   3.796   5.795 -0.5917  0.3616 -0.3398
  456MOL0    Cl61469  12.001   3.664   5.678  0.3311 -0.5539 -0.0788
  456MOL0     C61470  11.005   3.435   6.342  0.3442  0.1805 -0.5166
  456MOL0     C61471  10.880   3.444   6.399 -0.2773  0.4329  0.7876
  456MOL0     O61472  10.575   3.161   6.333 -0.1266 -0.1394 -0.0984
  456MOL0     C61473  10.376   3.458   6.361  1.5870 -0.4154 -0.4704
  456MOL0     C61474  10.238   3.502   6.367 -0.6031  0.1354  0.0535
  456MOL0     N61475   9.600   3.641   6.153  0.0287  0.5103  0.4592
  456MOL0     N61476   9.527   3.605   6.049 -0.6054  0.7666  0.2347
  456MOL0     C61477   9.782   2.475   6.390 -0.6732  0.2136 -0.0713
  456MOL0     C61478   9.786   2.344   6.423  0.3517  0.8675 -0.1194
  456MOL0     C61479   9.677   1.903   6.356 -0.0128 -0.0594  0.0671
  456MOL0     C61480   9.795   1.837   6.386 -0.0215  0.4493 -0.4020
  456MOL0     C61481   9.791   1.700   6.419 -0.2533 -0.0598  0.1136
  456MOL0     C61482   9.675   1.624   6.414  0.4558  0.4793 -0.1384
  456MOL0     O61483   9.686   1.491   6.447  0.0221 -0.1155  0.4819
  456MOL0     C61484   9.577   1.397   6.435  0.9685  0.3240  1.1390
  456MOL0     C61485   9.614   1.248   6.451 -0.9869 -0.8844  0.2260
  456MOL0     C61486   9.496   1.155   6.433 -0.5237  0.4916 -0.0276
  456MOL0     C61487   9.524   1.003   6.487  0.7318  0.4213 -0.2722
  456MOL0     C61488   9.520   0.993   6.638 -0.9436 -1.7248  0.2554
  456MOL0     C61489   9.526   0.990   6.760 -0.1365  0.0084  0.6386
  456MOL0     C61490   9.556   1.698   6.388  0.1625  0.4844 -0.1381
  456MOL0     C61491   9.554   1.830   6.362 -0.2349 -0.7228  0.1317
  456MOL0     C61492   9.415   1.902   6.350 -0.4521 -0.2841  1.0187
  456MOL0     H61493   9.895   2.205   6.134  1.9768 -1.6001  1.9829
  456MOL0     H61494   9.878   2.452   6.070 -1.4922  1.5218  0.3493
  456MOL0     H61495   9.742   2.682   6.019  2.8341  3.7386  1.5565
  456MOL0     H61496   9.635   2.589   6.129  1.2480 -0.0606 -0.9546
  456MOL0     H61497   9.695   2.865   6.210  1.6739 -0.8154 -1.5729
  456MOL0     H61498   9.543   2.777   6.230  0.5337  1.5526 -0.4485
  456MOL0     H61499   9.480   2.784   5.995 -0.3107  0.1595  1.4450
  456MOL0     H61500   9.635   2.882   5.961  0.0685  1.6810  0.4405
  456MOL0     H61501   9.456   2.992   6.175  0.9082  0.4289 -0.0117
  456MOL0     H61502   9.566   3.068   6.064 -2.1957  2.5038 -2.5222
  456MOL0     H61503   9.408   3.056   5.881  0.2604  1.0453 -0.1144
  456MOL0     H61504   9.283   2.969   5.986 -0.4435 -0.7509 -2.5681
  456MOL0     H61505   9.216   3.210   5.991  0.7695  0.8239 -1.8936
  456MOL0     H61506   9.310   3.189   6.140  0.5848  1.3308  0.0618
  456MOL0     H61507   9.471   3.279   5.908 -2.0557 -2.9094 -1.7783
  456MOL0     H61508   9.496   3.292   6.084 -2.4134  1.5830  1.6940
  456MOL0     H61509   9.345   3.471   5.915 -1.3150 -1.9431 -0.6598
  456MOL0     H61510   9.250   3.423   6.052 -0.7718 -0.6223 -1.4252
  456MOL0     H61511   9.354   3.500   6.302 -0.9060  2.4561  0.2726
  456MOL0     H61512   9.587   3.729   6.433  1.9529  0.1980 -2.7951
  456MOL0     H61513   9.531   3.563   6.482 -1.3547  0.9814  0.2208
  456MOL0     H61514   9.794   3.656   6.343 -1.4004  0.4782  0.6027
  456MOL0     H61515   9.788   3.595   6.510  0.8111 -1.0932  0.1148
  456MOL0     H61516   9.743   3.431   6.252  2.1942 -2.8632  0.1650
  456MOL0     H61517   9.755   3.367   6.418 -0.5469 -0.1396 -0.0488
  456MOL0     H61518   9.956   3.528   6.244 -0.9712 -1.0143 -1.6435
  456MOL0     H61519   9.948   3.358   6.262  2.1555  1.0227 -0.4301
  456MOL0     H61520  10.111   3.204   6.473  2.7668  0.8386  4.9379
  456MOL0     H61521  10.321   3.127   6.382  0.7676 -0.3073 -3.6280
  456MOL0     H61522  10.742   3.233   6.160  1.7557 -2.1495  0.2755
  456MOL0     H61523  10.933   3.239   6.082  0.5741 -0.1344 -0.4195
  456MOL0     H61524  11.211   3.494   6.020  1.1273  1.5261 -0.3177
  456MOL0     H61525  11.199   3.565   6.178  0.4934  0.2933 -1.2468
  456MOL0     H61526  11.418   3.467   6.233  0.4029 -0.2463  0.2423
  456MOL0     H61527  11.420   3.372   6.081 -0.9610  0.5929 -2.9012
  456MOL0     H61528  11.369   3.643   5.997  0.8945  0.0790 -0.1172
  456MOL0     H61529  11.435   3.672   6.154 -2.0093 -1.3204  1.9295
  456MOL0     H61530  11.576   3.516   5.926  1.9817  2.0518 -1.1629
  456MOL0     H61531  11.638   3.537   6.088 -1.8925  0.5071  2.3713
  456MOL0     H61532  11.635   3.773   6.057  0.5445  0.2486  0.7568
  456MOL0     H61533  11.579   3.742   5.879 -0.5643 -0.9895  0.0928
  456MOL0     H61534  11.836   3.650   5.992 -0.2922  2.4970 -0.9804
  456MOL0     H61535  11.761   3.612   5.820 -1.4878  0.7003 -1.0916
  456MOL0     H61536  11.838   3.892   5.906 -0.0157  3.1420 -3.9581
  456MOL0     H61537  11.761   3.827   5.765 -2.2877 -0.7096  2.1715
  456MOL0     H61538  12.001   3.892   5.752 -2.0609  0.1446 -1.9361
  456MOL0     H61539  12.042   3.767   5.874  0.4916  0.7071 -1.1469
  456MOL0     H61540  11.091   3.479   6.392  0.2214 -1.8143  1.6450
  456MOL0     H61541  10.875   3.497   6.493  1.5131 -1.5642  2.0970
  456MOL0     H61542  10.458   3.528   6.350 -0.8310  3.3497  2.7257
  456MOL0     H61543  10.231   3.606   6.338 -0.7224  0.2166  0.3720
  456MOL0     H61544   9.756   2.549   6.465  1.4194 -0.2589  1.1978
  456MOL0     H61545   9.745   2.314   6.519  1.8480 -1.9498 -0.2671
  456MOL0     H61546   9.892   1.885   6.392 -0.1969  0.7186  0.5522
  456MOL0     H61547   9.879   1.643   6.447  0.2570  1.6021  2.1175
  456MOL0     H61548   9.534   1.414   6.335 -3.3196 -0.4281  2.6318
  456MOL0     H61549   9.496   1.418   6.505  1.8183 -0.7826  2.5170
  456MOL0     H61550   9.654   1.235   6.552  0.8890 -1.7952 -0.5859
  456MOL0     H61551   9.693   1.224   6.379 -0.2296 -1.0441  1.0890
  456MOL0     H61552   9.476   1.134   6.327 -1.7069 -1.6036  0.5501
  456MOL0     H61553   9.408   1.196   6.482 -1.2016 -0.9887  0.0398
  456MOL0     H61554   9.440   0.942   6.453  0.6513 -0.2222  1.0031
  456MOL0     H61555   9.616   0.959   6.449 -0.3431 -2.3547  0.1474
  456MOL0     H61556   9.516   0.986   6.866  0.1894 -1.9738  0.6386
  456MOL0     H61557   9.459   1.649   6.395  0.1200 -0.0208 -3.0979
  456MOL0     H61558   9.419   2.006   6.316  1.1160  0.0118  2.0063
  456MOL0     H61559   9.363   1.865   6.262  2.9311  1.8476 -2.1355
  456MOL0     H61560   9.363   1.892   6.446  2.2365  1.2061  2.7702
  457MOL0     O61561   7.917   3.616   0.568 -0.1552 -0.3506  0.0655
  457MOL0     C61562   7.796   3.642   0.550  0.5124 -1.0304 -0.9927
  457MOL0     O61563   7.738   3.764   0.557  0.3216 -0.3797 -0.1462
  457MOL0     C61564   7.820   3.868   0.589 -0.9002 -0.1790 -0.4525
  457MOL0     C61565   7.860   3.965   0.494  0.3090  0.1054  0.3703
  457MOL0     C61566   7.967   4.054   0.533  0.9873 -0.2734 -0.0272
  457MOL0     C61567   8.019   4.061   0.661  0.1562  1.2642 -1.0400
  457MOL0     O61568   8.120   4.155   0.696  0.5496 -0.5807 -0.4284
  457MOL0     C61569   8.245   4.111   0.741  0.3860  0.3365  0.3651
  457MOL0     C61570   8.339   4.203   0.659 -0.7756 -0.3020 -0.3985
  457MOL0     C61571   8.487   4.173   0.693  0.4107 -0.0100  0.8652
  457MOL0     C61572   8.584   4.254   0.617 -0.9127 -0.0495 -0.3602
  457MOL0     C61573   8.647   4.377   0.674 -0.2267 -0.2925 -0.3195
  457MOL0     C61574   8.781   4.428   0.619  0.8331  0.4314 -0.1023
  457MOL0     C61575   8.758   4.521   0.497  0.9281  0.1673 -0.0934
  457MOL0     C61576   8.689   4.654   0.515 -0.0006 -0.8981 -0.2312
  457MOL0     N61577   8.702   4.722   0.383  0.6583  0.7884 -0.1415
  457MOL0     C61578   8.626   4.703   0.268 -0.1753  0.2788  0.1961
  457MOL0     C61579   8.679   4.797   0.189  0.2983  0.3349  0.1703
  457MOL0     C61580   8.648   4.815   0.040 -0.3213  0.0330 -0.3018
  457MOL0     C61581   8.512   4.775  -0.012  0.4114  1.0708 -0.7040
  457MOL0     C61582   8.469   4.823  -0.149 -0.9070  0.0499 -0.3024
  457MOL0     C61583   8.440   4.977  -0.141 -0.0882  0.1884  0.3818
  457MOL0     O61584   8.441   5.028  -0.276 -0.3788  0.1104 -0.0246
  457MOL0     C61585   8.549   5.095  -0.334 -1.0183 -0.3960  0.2085
  457MOL0     C61586   8.676   5.115  -0.273  0.2746 -1.4535 -0.1323
  457MOL0     C61587   8.785   5.179  -0.334  0.2507 -0.1367 -0.1909
  457MOL0     C61588   8.772   5.224  -0.469 -0.5259  0.5578 -0.5162
  457MOL0     C61589   8.890   5.271  -0.545  0.4461  0.1805 -0.5083
  457MOL0     O61590   9.012   5.289  -0.481 -0.5764 -0.0067 -0.1427
  457MOL0     C61591   9.108   5.366  -0.547  0.0538 -0.3654  0.2564
  457MOL0     C61592   9.152   5.360  -0.681  0.2192 -0.1416 -0.0379
  457MOL0     C61593   9.274   5.419  -0.730  1.1864 -0.3259  0.0127
  457MOL0     C61594   9.340   5.498  -0.645 -1.2811  0.5363 -0.1369
  457MOL0     O61595   9.441   5.564  -0.699 -0.8148 -0.1132  0.1603
  457MOL0     C61596   9.460   5.700  -0.663  0.3393  0.4051  0.0585
  457MOL0     C61597   9.561   5.777  -0.754 -0.2395 -0.0576  0.1724
  457MOL0     C61598   9.537   5.748  -0.900 -0.5878 -0.1640 -0.1340
  457MOL0     C61599   9.652   5.816  -0.976  0.0999  0.9338  0.3036
  457MOL0     C61600   9.625   5.778  -1.122 -0.0596 -0.5113  0.0186
  457MOL0     C61601   9.492   5.817  -1.183  0.8107  0.1016 -0.3004
  457MOL0     C61602   9.486   5.790  -1.338  0.7355 -0.1361 -0.9236
  457MOL0     C61603   9.544   5.902  -1.429  0.4764 -0.1248  0.5481
  457MOL0    Cl61604   9.520   5.857  -1.595 -0.2856 -0.6109  0.2789
  457MOL0     C61605   9.298   5.518  -0.513 -0.6472  1.0304  0.7101
  457MOL0     C61606   9.188   5.444  -0.464  0.5784 -0.0081  1.0083
  457MOL0     O61607   8.866   5.293  -0.663  0.1607  0.7011 -0.6431
  457MOL0     C61608   8.648   5.205  -0.532  0.2303  0.8055 -0.0800
  457MOL0     C61609   8.540   5.144  -0.467  0.1797  0.7645 -0.4640
  457MOL0     N61610   8.771   4.877   0.250 -0.2790 -0.4415  0.1725
  457MOL0     N61611   8.783   4.823   0.364 -0.5370 -0.2087 -0.6944
  457MOL0     C61612   7.967   3.970   0.762 -0.2978 -0.7303  0.5231
  457MOL0     C61613   7.874   3.872   0.719 -0.9483 -0.4244 -0.5287
  457MOL0     C61614   7.708   3.538   0.513 -1.0860  0.6066 -0.5409
  457MOL0     C61615   7.656   3.533   0.382  0.2041  0.0614 -1.1434
  457MOL0     C61616   7.554   3.436   0.352 -0.0851  1.2330 -0.1893
  457MOL0     C61617   7.554   3.319   0.434 -0.4538  0.1553  0.7418
  457MOL0     O61618   7.472   3.212   0.402 -0.6509 -0.6167 -0.7662
  457MOL0     C61619   7.503   3.074   0.436  0.3447  0.0482 -0.1812
  457MOL0     C61620   7.383   2.979   0.419  0.7147 -0.6122 -0.2726
  457MOL0     C61621   7.416   2.886   0.299  0.6560 -0.2035 -0.3369
  457MOL0     C61622   7.474   2.970   0.183  0.3378  0.9611 -0.2845
  457MOL0     C61623   7.445   2.896   0.060 -0.6135  0.3938 -0.0648
  457MOL0     C61624   7.409   2.843  -0.049  0.4143 -0.4085  1.4141
  457MOL0     C61625   7.620   3.322   0.553  0.3171  0.2953 -0.6668
  457MOL0     C61626   7.706   3.421   0.587 -1.0441  1.5600 -0.5500
  457MOL0     C61627   7.778   3.396   0.718 -0.1247 -0.1154  1.3399
  457MOL0     H61628   7.820   3.976   0.394 -2.6104 -3.1169  0.9848
  457MOL0     H61629   7.977   4.137   0.464 -3.5442  2.0585  1.6699
  457MOL0     H61630   8.258   4.144   0.844  0.9578  0.2677  0.3192
  457MOL0     H61631   8.258   4.004   0.722  2.8046  0.3219  1.7014
  457MOL0     H61632   8.313   4.302   0.696 -1.7548 -0.9033  0.5992
  457MOL0     H61633   8.320   4.190   0.552  0.6842 -1.4768 -0.5532
  457MOL0     H61634   8.510   4.068   0.674 -1.5438 -0.2577 -0.3348
  457MOL0     H61635   8.501   4.181   0.801  2.1115 -0.3587  0.7012
  457MOL0     H61636   8.669   4.184   0.620 -0.4944  0.4324  2.8133
  457MOL0     H61637   8.544   4.266   0.516 -0.6147  0.3320 -0.4364
  457MOL0     H61638   8.567   4.449   0.688 -0.0085  0.3633 -2.1101
  457MOL0     H61639   8.674   4.343   0.774  0.6491 -2.9076 -1.3637
  457MOL0     H61640   8.839   4.483   0.694  1.1883  0.9270 -0.7288
  457MOL0     H61641   8.847   4.344   0.594 -0.2753 -0.8648  1.1382
  457MOL0     H61642   8.700   4.468   0.421  0.1518  0.2052  0.4659
  457MOL0     H61643   8.858   4.534   0.454  0.8799 -1.1953 -0.6870
  457MOL0     H61644   8.588   4.646   0.554 -0.6323  2.6267 -0.8311
  457MOL0     H61645   8.741   4.717   0.588 -0.5514  0.7345 -1.1971
  457MOL0     H61646   8.546   4.631   0.256  1.1443 -1.1633 -0.2184
  457MOL0     H61647   8.672   4.917   0.010  0.1333 -0.3273 -1.2209
  457MOL0     H61648   8.719   4.745  -0.007 -1.3716 -2.2965  1.3532
  457MOL0     H61649   8.508   4.666  -0.010 -2.0595  1.1060  1.2122
  457MOL0     H61650   8.441   4.821   0.057  1.2709  0.5626  0.5412
  457MOL0     H61651   8.378   4.779  -0.192  0.2460 -0.0090 -2.8418
  457MOL0     H61652   8.541   4.811  -0.230 -0.1370  0.5647  0.3036
  457MOL0     H61653   8.494   5.039  -0.069 -2.2936  0.4080  1.9360
  457MOL0     H61654   8.337   4.976  -0.104 -0.1904 -0.0557  0.0895
  457MOL0     H61655   8.691   5.078  -0.171 -3.9810 -0.9756  0.8900
  457MOL0     H61656   8.877   5.192  -0.278 -1.3785 -1.9916  3.2837
  457MOL0     H61657   9.090   5.302  -0.749  0.2743 -2.5795  1.8387
  457MOL0     H61658   9.304   5.414  -0.834 -1.5533  1.4370 -0.9758
  457MOL0     H61659   9.359   5.740  -0.676 -1.4367 -2.7512  2.7399
  457MOL0     H61660   9.489   5.708  -0.558 -0.3410  1.0505  0.2053
  457MOL0     H61661   9.560   5.884  -0.731 -1.1007  0.1214 -0.6223
  457MOL0     H61662   9.656   5.734  -0.720 -0.0797 -0.2379 -0.4976
  457MOL0     H61663   9.509   5.647  -0.931 -0.7930  0.2559 -1.3753
  457MOL0     H61664   9.442   5.799  -0.921 -0.0480  0.0902 -2.1844
  457MOL0     H61665   9.746   5.767  -0.951  0.3807  1.4698  0.3125
  457MOL0     H61666   9.655   5.923  -0.952 -0.7797  1.0246  0.0594
  457MOL0     H61667   9.636   5.673  -1.151  2.3869  0.0334 -1.3297
  457MOL0     H61668   9.684   5.838  -1.192 -1.4450  2.3858  1.1634
  457MOL0     H61669   9.416   5.755  -1.135 -0.6630  2.7020  0.8679
  457MOL0     H61670   9.470   5.923  -1.169  4.3489  0.8634  0.6804
  457MOL0     H61671   9.380   5.776  -1.360 -0.0967  2.1738  1.1583
  457MOL0     H61672   9.537   5.695  -1.359 -1.5920 -0.6183 -5.9013
  457MOL0     H61673   9.481   5.990  -1.412 -4.0169 -3.0873  0.7396
  457MOL0     H61674   9.647   5.935  -1.411 -0.4872  4.0155 -0.3318
  457MOL0     H61675   9.346   5.584  -0.442 -3.4260  1.8038  2.0188
  457MOL0     H61676   9.168   5.435  -0.358 -0.5688  2.4041  1.0623
  457MOL0     H61677   8.644   5.236  -0.636 -1.2618 -1.9828 -0.9380
  457MOL0     H61678   8.449   5.112  -0.516  0.1039 -0.1896  0.2611
  457MOL0     H61679   8.017   3.985   0.857  3.7325 -1.3006 -1.3009
  457MOL0     H61680   7.834   3.793   0.781 -2.5228  1.4742  1.0194
  457MOL0     H61681   7.666   3.622   0.321  2.8521 -0.7465 -2.0607
  457MOL0     H61682   7.498   3.443   0.259 -0.2814  1.7412 -0.0370
  457MOL0     H61683   7.509   3.079   0.545 -0.5827 -0.5750 -0.0932
  457MOL0     H61684   7.593   3.030   0.392 -1.2382  0.1178 -3.8464
  457MOL0     H61685   7.296   3.044   0.405  0.2918 -0.9368  0.7145
  457MOL0     H61686   7.372   2.918   0.510  0.1256 -0.9844 -0.5848
  457MOL0     H61687   7.323   2.841   0.262  0.7051 -0.7235  0.1605
  457MOL0     H61688   7.489   2.809   0.323  1.1724  0.3429 -0.1299
  457MOL0     H61689   7.422   3.066   0.189  1.5359  1.5429  1.7758
  457MOL0     H61690   7.582   2.986   0.190  0.1810  2.8960 -1.3862
  457MOL0     H61691   7.394   2.813  -0.151  2.4748 -1.3739  1.3496
  457MOL0     H61692   7.607   3.243   0.626  0.1333 -1.2447 -2.2966
  457MOL0     H61693   7.740   3.469   0.791 -0.5681  1.1998 -0.1467
  457MOL0     H61694   7.761   3.296   0.760 -2.7152 -0.4046 -0.1759
  457MOL0     H61695   7.887   3.397   0.714 -0.1654  1.6743 -0.9712
  458MOL0     O61696  10.063   9.955   5.605 -0.3306  0.3150  0.0400
  458MOL0     C61697   9.945   9.912   5.577 -0.0724  0.6735 -0.0948
  458MOL0     O61698   9.918   9.791   5.513  0.0231 -0.1984  0.8603
  458MOL0     C61699  10.032   9.714   5.518  0.3853  0.8288 -0.2921
  458MOL0     C61700  10.048   9.616   5.621 -0.7490 -0.9414 -0.8990
  458MOL0     C61701  10.162   9.541   5.631 -0.5817  0.2263  0.3101
  458MOL0     C61702  10.266   9.560   5.538  0.8971 -0.2037 -0.1538
  458MOL0     O61703  10.368   9.468   5.554  0.4904 -0.2380 -0.0055
  458MOL0     C61704  10.478   9.492   5.475 -0.5361  0.2415  0.1208
  458MOL0     C61705  10.588   9.405   5.536 -0.3432 -0.0338 -0.9052
  458MOL0     C61706  10.654   9.478   5.650 -0.3753  0.5286  0.2644
  458MOL0     C61707  10.740   9.377   5.728 -0.2094  0.2055  0.2645
  458MOL0     C61708  10.797   9.441   5.856  0.0023 -0.1621  0.2153
  458MOL0     C61709  10.867   9.345   5.949  1.4281  0.0029  0.6966
  458MOL0     C61710  10.992   9.282   5.889  0.6825  0.0499  0.9944
  458MOL0     C61711  11.037   9.176   5.984  0.0743 -0.1365  0.2103
  458MOL0     N61712  11.151   9.103   5.927 -0.3226 -0.2085  0.6900
  458MOL0     C61713  11.284   9.112   5.956 -0.2585  0.2851 -0.5871
  458MOL0     C61714  11.347   9.019   5.888 -0.7817  0.5943 -0.1005
  458MOL0     C61715  11.496   8.999   5.886  0.4771 -0.3186  0.3157
  458MOL0     C61716  11.580   9.060   5.768 -0.0241  0.9627 -0.3076
  458MOL0     C61717  11.564   9.205   5.757  0.0546 -0.3726 -0.2829
  458MOL0     C61718  11.648   9.296   5.853  0.2249  0.7724 -0.0548
  458MOL0     O61719  11.642   9.436   5.816 -0.0166 -0.3487  0.0421
  458MOL0     C61720  11.518   9.497   5.815  0.0076  0.4369  0.2392
  458MOL0     C61721  11.492   9.598   5.716 -0.6669  0.0276 -0.1362
  458MOL0     C61722  11.377   9.686   5.715 -0.4927  0.0523 -0.7396
  458MOL0     C61723  11.283   9.666   5.816  0.6283  0.2288  0.2324
  458MOL0     C61724  11.165   9.755   5.825 -0.4131 -0.4457 -1.1248
  458MOL0     O61725  11.142   9.852   5.728  0.1357 -0.1885  0.7502
  458MOL0     C61726  11.017   9.920   5.736  0.1613 -0.0921  0.8064
  458MOL0     C61727  10.985   9.993   5.854 -0.3243  0.3301  0.4063
  458MOL0     C61728  10.862  10.057   5.868 -0.0734  0.0001  0.1826
  458MOL0     C61729  10.768  10.048   5.768  0.8878  0.6264 -0.0906
  458MOL0     O61730  10.642  10.102   5.770 -0.5834  0.3497  0.1566
  458MOL0     C61731  10.631  10.223   5.833  0.8360 -0.8632  0.0277
  458MOL0     C61732  10.537  10.192   5.953 -0.6979 -0.0218  0.3679
  458MOL0     C61733  10.480  10.315   6.024  0.3930 -0.4409  0.1608
  458MOL0     C61734  10.402  10.282   6.143  0.0960 -0.1632 -0.8863
  458MOL0     C61735  10.325  10.408   6.200 -0.0888  0.5033  0.2202
  458MOL0     C61736  10.426  10.498   6.270 -0.0158 -0.7516  0.8110
  458MOL0     C61737  10.376  10.630   6.334 -0.4146  0.7607 -0.3211
  458MOL0     C61738  10.464  10.755   6.294  0.3248  0.3232 -0.0411
  458MOL0    Cl61739  10.467  10.785   6.117 -0.2164 -0.1798 -0.0206
  458MOL0     C61740  10.806   9.987   5.645 -1.4672 -0.7780 -0.6316
  458MOL0     C61741  10.933   9.923   5.626 -0.7537  0.1633 -0.5009
  458MOL0     O61742  11.099   9.739   5.929  0.4190  0.1197 -0.8023
  458MOL0     C61743  11.293   9.550   5.898  0.6918  0.0807 -0.4088
  458MOL0     C61744  11.415   9.467   5.899  0.5645  0.6003 -0.1339
  458MOL0     N61745  11.257   8.943   5.822 -0.0028 -0.7331  0.2982
  458MOL0     N61746  11.138   8.998   5.837  0.1766 -0.6423 -0.7515
  458MOL0     C61747  10.257   9.660   5.432 -0.5868 -1.4732 -0.7813
  458MOL0     C61748  10.137   9.738   5.428 -0.6416 -0.3312 -0.2626
  458MOL0     C61749   9.839  10.007   5.607  0.1247 -0.3103  1.0626
  458MOL0     C61750   9.876  10.138   5.588 -0.6765 -0.7380 -0.4892
  458MOL0     C61751   9.788  10.243   5.614  0.7990 -0.0427 -0.4124
  458MOL0     C61752   9.660  10.227   5.662  0.4532 -0.0188 -0.3666
  458MOL0     O61753   9.571  10.330   5.697  0.5169  0.9018 -0.3359
  458MOL0     C61754   9.588  10.456   5.642 -0.2129  0.2837 -0.1187
  458MOL0     C61755   9.462  10.531   5.657  0.2918 -0.3210  0.4199
  458MOL0     C61756   9.435  10.577   5.803  0.2453  0.2848  0.1435
  458MOL0     C61757   9.373  10.716   5.820 -0.8603  0.6668  0.7571
  458MOL0     C61758   9.478  10.821   5.825  0.0425 -0.6585  0.4139
  458MOL0     C61759   9.558  10.913   5.838 -0.2742 -0.7246  0.0710
  458MOL0     C61760   9.621  10.097   5.687  0.4990 -0.2097 -0.1492
  458MOL0     C61761   9.710   9.985   5.665  0.2560 -1.1744 -0.1256
  458MOL0     C61762   9.646   9.848   5.701  0.1414  0.0899 -0.1311
  458MOL0     H61763   9.958   9.600   5.680 -1.0121  0.9521 -0.7114
  458MOL0     H61764  10.164   9.452   5.693 -0.5843 -1.9987 -2.6618
  458MOL0     H61765  10.456   9.444   5.379 -1.4800 -1.8187  1.2891
  458MOL0     H61766  10.517   9.593   5.464  2.5188 -0.9220 -0.7401
  458MOL0     H61767  10.658   9.390   5.454 -2.5200 -2.0358 -2.5327
  458MOL0     H61768  10.543   9.311   5.569  3.1183 -1.4040  0.3580
  458MOL0     H61769  10.580   9.531   5.711  0.4411  1.3245  0.5861
  458MOL0     H61770  10.724   9.556   5.618  0.4512 -0.6283 -0.8579
  458MOL0     H61771  10.678   9.290   5.750 -2.5916  1.4805 -1.0006
  458MOL0     H61772  10.823   9.354   5.661 -0.2665 -1.9855  0.8791
  458MOL0     H61773  10.860   9.526   5.829 -1.5861  0.4884 -1.6799
  458MOL0     H61774  10.707   9.478   5.906  1.0948  0.6672  1.6381
  458MOL0     H61775  10.889   9.380   6.050  2.9332 -3.8704  1.8909
  458MOL0     H61776  10.795   9.265   5.970 -1.7969  1.9528 -1.7855
  458MOL0     H61777  11.069   9.358   5.879  0.1231  0.5200  0.1655
  458MOL0     H61778  10.965   9.230   5.797 -0.4960  0.6674  0.9683
  458MOL0     H61779  11.059   9.230   6.077 -0.9474 -2.0597  1.6291
  458MOL0     H61780  10.956   9.106   6.007 -0.4185  0.1658 -0.5642
  458MOL0     H61781  11.343   9.167   6.029  0.2682 -1.0575  0.0219
  458MOL0     H61782  11.549   9.034   5.974  1.0819  0.2425 -0.2587
  458MOL0     H61783  11.503   8.890   5.895  2.8117 -0.4162 -1.6865
  458MOL0     H61784  11.687   9.039   5.764 -0.5250 -2.0255 -0.4255
  458MOL0     H61785  11.537   9.017   5.677 -0.4629  3.8214 -1.5386
  458MOL0     H61786  11.457   9.225   5.764  0.1239 -0.4574  1.3111
  458MOL0     H61787  11.609   9.239   5.663 -0.5729 -0.1042 -0.4875
  458MOL0     H61788  11.750   9.261   5.833  0.0484 -0.9884  1.8117
  458MOL0     H61789  11.622   9.291   5.959  2.0567 -0.5663  0.3776
  458MOL0     H61790  11.570   9.605   5.641 -2.4823 -0.6988 -2.2183
  458MOL0     H61791  11.371   9.772   5.649  1.0455 -0.1124 -1.1308
  458MOL0     H61792  11.047   9.979   5.942 -2.1096 -0.6687  1.5657
  458MOL0     H61793  10.834  10.107   5.960  2.3495 -1.1477  1.6339
  458MOL0     H61794  10.717  10.277   5.875 -1.9793  2.4084  2.1400
  458MOL0     H61795  10.583  10.293   5.764 -2.4891 -1.5374  1.4766
  458MOL0     H61796  10.445  10.139   5.927 -1.5560  0.3203  2.5081
  458MOL0     H61797  10.588  10.137   6.033  1.5424  3.2849  1.4253
  458MOL0     H61798  10.563  10.377   6.061 -0.2270 -0.0128  0.8596
  458MOL0     H61799  10.421  10.384   5.963 -2.5611 -0.8190  2.3602
  458MOL0     H61800  10.468  10.239   6.219  0.2260 -0.8178 -1.3586
  458MOL0     H61801  10.323  10.210   6.121  0.8170 -0.6343 -2.0320
  458MOL0     H61802  10.250  10.385   6.275 -3.1504  1.7082 -2.2692
  458MOL0     H61803  10.272  10.449   6.114 -0.0243  0.5392  0.1969
  458MOL0     H61804  10.474  10.438   6.349  1.0357 -2.3733 -0.9734
  458MOL0     H61805  10.512  10.522   6.207 -2.2050  2.2454 -1.2724
  458MOL0     H61806  10.366  10.613   6.442  2.5597 -3.1349 -0.4378
  458MOL0     H61807  10.278  10.652   6.291 -0.3189 -0.7116 -1.3722
  458MOL0     H61808  10.441  10.845   6.350  4.8848 -0.7812  4.3468
  458MOL0     H61809  10.566  10.728   6.323 -0.1467 -1.3517  0.2082
  458MOL0     H61810  10.745   9.964   5.559  0.3144  0.2345 -2.2344
  458MOL0     H61811  10.967   9.878   5.533 -0.4648  0.4032 -0.5136
  458MOL0     H61812  11.216   9.521   5.968 -3.1882  0.1769 -4.2101
  458MOL0     H61813  11.406   9.384   5.969  0.0718  0.2848 -0.5568
  458MOL0     H61814  10.329   9.670   5.352  0.3517 -0.2119  0.1782
  458MOL0     H61815  10.116   9.820   5.360 -3.8795 -2.1011 -1.6054
  458MOL0     H61816   9.974  10.174   5.559 -0.1474  0.8681  2.7723
  458MOL0     H61817   9.823  10.343   5.592  0.3664  0.2653  0.2895
  458MOL0     H61818   9.604  10.459   5.533  0.0111  3.3282 -0.0938
  458MOL0     H61819   9.674  10.492   5.699 -1.9441 -2.8068  5.0553
  458MOL0     H61820   9.372  10.474   5.629 -2.4518  4.1787 -0.9193
  458MOL0     H61821   9.447  10.615   5.589 -3.2371 -2.5969 -1.9501
  458MOL0     H61822   9.528  10.571   5.860 -0.1173 -0.6115  0.6649
  458MOL0     H61823   9.373  10.508   5.861  0.7040 -0.7947 -0.6139
  458MOL0     H61824   9.297  10.744   5.747 -2.5654  1.7535  2.8562
  458MOL0     H61825   9.315  10.714   5.912  0.3984 -1.4837  1.5887
  458MOL0     H61826   9.623  10.995   5.861 -0.6643  0.1816 -1.8560
  458MOL0     H61827   9.519  10.084   5.722  0.1667  3.4409  0.5625
  458MOL0     H61828   9.712   9.792   5.768 -0.5680 -1.8879 -1.0110
  458MOL0     H61829   9.556   9.857   5.761  1.3993  0.2330  1.8227
  458MOL0     H61830   9.633   9.791   5.608  0.7252  2.4223 -1.7510
  459MOL0     O61831   8.437   4.082   1.683 -0.2715  0.1831  0.3095
  459MOL0     C61832   8.432   4.035   1.570 -0.0685 -0.2782 -0.0738
  459MOL0     O61833   8.529   4.055   1.468  0.7328  0.7508  0.7198
  459MOL0     C61834   8.608   4.156   1.488 -0.6969  0.4779  0.5218
  459MOL0     C61835   8.710   4.135   1.580 -0.1175  0.5531 -0.8566
  459MOL0     C61836   8.804   4.235   1.611 -0.2420 -0.1081  0.5830
  459MOL0     C61837   8.790   4.361   1.546  0.8545  0.6018  0.5031
  459MOL0     O61838   8.865   4.472   1.552  0.3561 -0.5890  0.0929
  459MOL0     C61839   8.994   4.457   1.607 -0.3229 -0.5970 -0.6096
  459MOL0     C61840   9.074   4.583   1.591  0.7048 -0.6166  0.3561
  459MOL0     C61841   9.047   4.632   1.444  0.0201 -1.3049 -0.2088
  459MOL0     C61842   9.099   4.778   1.432  1.1885 -0.8057  0.9321
  459MOL0     C61843   9.071   4.829   1.282  0.2758 -0.3594  0.5897
  459MOL0     C61844   9.119   4.973   1.253 -0.2318  0.5636 -0.4815
  459MOL0     C61845   9.268   4.990   1.269 -0.3280 -0.2257 -0.0014
  459MOL0     C61846   9.339   4.934   1.151  0.2862  0.6721 -0.0309
  459MOL0     N61847   9.348   5.032   1.043 -0.0789  0.2186  0.2654
  459MOL0     C61848   9.460   5.107   1.000  0.3118 -0.3192  0.3134
  459MOL0     C61849   9.414   5.158   0.884  0.7182 -0.1986  0.7085
  459MOL0     C61850   9.499   5.234   0.796  0.2535  0.5762  0.2357
  459MOL0     C61851   9.463   5.386   0.789  0.4310  0.0578 -1.0558
  459MOL0     C61852   9.554   5.466   0.699  0.0202 -0.1251  0.6171
  459MOL0     C61853   9.523   5.416   0.550 -0.4045 -0.0383 -0.5216
  459MOL0     O61854   9.620   5.473   0.463 -0.2124 -0.1834 -0.2038
  459MOL0     C61855   9.749   5.430   0.459 -0.1683 -1.2386  0.3285
  459MOL0     C61856   9.803   5.308   0.499 -0.1061 -0.4957  0.2422
  459MOL0     C61857   9.936   5.277   0.470 -0.3062 -0.4048  0.8414
  459MOL0     C61858  10.031   5.370   0.419  0.2049  0.5635  0.1945
  459MOL0     C61859  10.170   5.345   0.378  1.1313  0.0293 -0.3704
  459MOL0     O61860  10.250   5.452   0.346  0.1718 -0.0333 -0.2935
  459MOL0     C61861  10.383   5.431   0.302 -0.6896 -0.3163 -0.4197
  459MOL0     C61862  10.484   5.459   0.389 -0.9415  0.4002  0.3926
  459MOL0     C61863  10.618   5.426   0.344  0.5376  0.0035  0.2671
  459MOL0     C61864  10.650   5.366   0.223 -0.5243 -0.3007  0.4381
  459MOL0     O61865  10.783   5.342   0.187  0.1470 -0.2690  0.7380
  459MOL0     C61866  10.831   5.406   0.066  0.8864 -0.2061  0.0837
  459MOL0     C61867  10.922   5.324  -0.017  0.5095 -0.0111 -0.8365
  459MOL0     C61868  10.959   5.369  -0.167 -0.0472 -0.5261  0.2238
  459MOL0     C61869  11.023   5.512  -0.186  1.1391  0.7053 -0.4830
  459MOL0     C61870  11.063   5.533  -0.328 -0.4085 -0.0041 -0.5791
  459MOL0     C61871  11.184   5.458  -0.382  0.0284 -0.0965  1.5070
  459MOL0     C61872  11.288   5.415  -0.284 -0.2358 -0.0953  0.2415
  459MOL0     C61873  11.418   5.368  -0.355  1.0499 -0.0563 -0.0753
  459MOL0    Cl61874  11.509   5.490  -0.455 -0.5813  0.1971 -0.4540
  459MOL0     C61875  10.533   5.335   0.150  0.2835 -0.2371  0.3413
  459MOL0     C61876  10.398   5.360   0.183 -0.7399 -0.6302 -0.4058
  459MOL0     O61877  10.205   5.229   0.393 -0.2352  0.1784  0.3558
  459MOL0     C61878   9.970   5.497   0.395  0.8489  0.3304  0.4151
  459MOL0     C61879   9.839   5.531   0.422  0.3917  0.1906  1.2828
  459MOL0     N61880   9.282   5.112   0.855  0.4098  0.1876 -0.6475
  459MOL0     N61881   9.240   5.043   0.959  0.6426 -0.5812  0.0308
  459MOL0     C61882   8.699   4.366   1.437 -0.7646 -0.1315 -0.0343
  459MOL0     C61883   8.607   4.270   1.409  0.5483 -0.1621  0.9110
  459MOL0     C61884   8.336   3.925   1.543 -0.5798 -0.9508  0.9877
  459MOL0     C61885   8.358   3.847   1.427 -0.5514  0.3064 -0.4157
  459MOL0     C61886   8.265   3.742   1.393 -1.0458 -0.3646 -0.2425
  459MOL0     C61887   8.161   3.704   1.476 -0.2197  0.2710  0.3648
  459MOL0     O61888   8.093   3.588   1.444  0.4230  0.3288 -0.8731
  459MOL0     C61889   7.992   3.543   1.538 -1.0375  0.0477 -0.1390
  459MOL0     C61890   7.951   3.407   1.496  0.8063  1.6618  0.5081
  459MOL0     C61891   7.813   3.369   1.554 -0.1350 -0.4191  0.1740
  459MOL0     C61892   7.808   3.234   1.630 -0.2795  0.3283  0.8768
  459MOL0     C61893   7.676   3.213   1.676  0.2917  0.2628  0.3282
  459MOL0     C61894   7.566   3.194   1.718  0.2086 -0.1824  0.4255
  459MOL0     C61895   8.143   3.773   1.598 -0.4815 -0.0221 -0.5139
  459MOL0     C61896   8.228   3.887   1.628 -0.6389  0.7061 -0.5575
  459MOL0     C61897   8.182   3.979   1.743 -0.6045 -0.3850  0.2857
  459MOL0     H61898   8.718   4.033   1.617 -0.0341 -0.0496 -2.4446
  459MOL0     H61899   8.880   4.219   1.688  1.1071 -4.0978 -1.3312
  459MOL0     H61900   9.000   4.430   1.713 -0.2676 -1.9872 -0.9467
  459MOL0     H61901   9.037   4.377   1.547  0.9643  0.7044 -1.4723
  459MOL0     H61902   9.178   4.551   1.588  0.5656 -1.0793 -2.5105
  459MOL0     H61903   9.044   4.670   1.651  1.5582 -0.0129 -0.0754
  459MOL0     H61904   8.942   4.645   1.417 -0.3711  1.4672  2.1209
  459MOL0     H61905   9.093   4.554   1.383  0.6706 -2.5537  1.7799
  459MOL0     H61906   9.025   4.832   1.492  0.1140  0.4852 -1.4279
  459MOL0     H61907   9.202   4.793   1.465  0.2714  2.9305  2.5963
  459MOL0     H61908   9.126   4.758   1.220 -2.2872 -1.7602 -0.2425
  459MOL0     H61909   8.964   4.822   1.258 -0.9860  4.4843  3.2682
  459MOL0     H61910   9.095   4.995   1.149  0.4940 -1.5581 -1.1507
  459MOL0     H61911   9.060   5.033   1.322  1.0814 -1.2885  2.4420
  459MOL0     H61912   9.306   4.950   1.363 -3.8517 -2.3097  0.7049
  459MOL0     H61913   9.293   5.096   1.273 -2.1334  0.1916  1.2930
  459MOL0     H61914   9.432   4.904   1.199 -0.4973 -2.5488 -0.3438
  459MOL0     H61915   9.294   4.840   1.118 -0.5351  0.3322  1.8883
  459MOL0     H61916   9.551   5.130   1.054 -0.6560  0.5919  1.6366
  459MOL0     H61917   9.604   5.228   0.828  0.3917  0.9388 -0.1459
  459MOL0     H61918   9.480   5.185   0.701 -3.7846  0.0748  1.1295
  459MOL0     H61919   9.363   5.391   0.745 -0.5421 -0.3676  0.9986
  459MOL0     H61920   9.461   5.435   0.887 -3.4048  1.7168 -1.7768
  459MOL0     H61921   9.659   5.469   0.729  0.4196  0.7135 -0.7735
  459MOL0     H61922   9.516   5.568   0.702  1.9537  0.6215  1.5998
  459MOL0     H61923   9.424   5.443   0.511 -0.7690 -1.8241 -0.8982
  459MOL0     H61924   9.527   5.307   0.545  1.3372 -0.0919  0.8915
  459MOL0     H61925   9.738   5.226   0.527 -1.2798  0.6045  0.8253
  459MOL0     H61926   9.979   5.178   0.483  0.5204 -0.0407  0.9822
  459MOL0     H61927  10.456   5.497   0.487  1.0060 -1.8875  1.9391
  459MOL0     H61928  10.698   5.444   0.415  1.3264  0.6516 -0.7500
  459MOL0     H61929  10.740   5.432   0.011 -0.7787  1.2461  3.3012
  459MOL0     H61930  10.871   5.502   0.099 -0.9415  0.7913 -0.4725
  459MOL0     H61931  11.013   5.310   0.042  1.2452 -2.9784 -2.4895
  459MOL0     H61932  10.881   5.223  -0.008 -3.6879  1.5080 -0.8926
  459MOL0     H61933  11.028   5.290  -0.196 -1.4854 -2.0083  0.6447
  459MOL0     H61934  10.882   5.354  -0.243 -0.9001 -0.2818  1.0175
  459MOL0     H61935  11.105   5.519  -0.115  0.1508 -1.6458  1.0478
  459MOL0     H61936  10.943   5.583  -0.164  0.2937  0.0269 -1.2848
  459MOL0     H61937  11.088   5.639  -0.330  0.4355 -0.2076 -1.9977
  459MOL0     H61938  10.980   5.510  -0.395 -0.9599  0.8261 -0.1968
  459MOL0     H61939  11.139   5.365  -0.417 -2.7717  1.1220  1.5819
  459MOL0     H61940  11.211   5.519  -0.469 -2.6121 -0.0732  0.5972
  459MOL0     H61941  11.248   5.338  -0.218 -0.0892  1.4367  2.1793
  459MOL0     H61942  11.318   5.497  -0.218  2.3979  0.1852 -1.1460
  459MOL0     H61943  11.470   5.321  -0.271 -1.4203  0.3824  1.7964
  459MOL0     H61944  11.386   5.301  -0.435  1.6893  0.0640 -0.4447
  459MOL0     H61945  10.547   5.282   0.056 -1.7120  1.4441 -0.9911
  459MOL0     H61946  10.309   5.344   0.124 -1.4803 -1.4216  0.8758
  459MOL0     H61947  10.035   5.579   0.366 -0.7680  2.1796  1.7227
  459MOL0     H61948   9.798   5.627   0.392  0.4459 -0.4396 -0.9577
  459MOL0     H61949   8.691   4.455   1.376 -2.8306  0.3869  0.9225
  459MOL0     H61950   8.527   4.283   1.337  0.3070 -1.7077  0.8800
  459MOL0     H61951   8.425   3.877   1.347  1.7782 -0.8426  0.9955
  459MOL0     H61952   8.281   3.666   1.318 -0.9456  0.6343 -1.2643
  459MOL0     H61953   7.914   3.620   1.537 -1.9874 -0.8977 -0.1221
  459MOL0     H61954   8.030   3.531   1.639  2.8234 -0.9659 -1.5430
  459MOL0     H61955   8.034   3.339   1.517 -1.3566 -1.9119 -1.5437
  459MOL0     H61956   7.932   3.402   1.388 -1.0924 -3.6498  0.8128
  459MOL0     H61957   7.734   3.375   1.479 -1.9479 -0.0718  2.0486
  459MOL0     H61958   7.793   3.445   1.630  0.8273 -0.4376  0.4616
  459MOL0     H61959   7.829   3.148   1.566  2.0499 -0.0303  2.0073
  459MOL0     H61960   7.883   3.233   1.709 -0.1938  0.5963  0.7980
  459MOL0     H61961   7.463   3.181   1.741 -0.4487  1.8208 -1.0378
  459MOL0     H61962   8.078   3.739   1.677  1.1758  0.7542  1.2637
  459MOL0     H61963   8.190   4.082   1.708  5.0237 -1.1712 -1.8223
  459MOL0     H61964   8.091   3.933   1.783 -1.0505 -2.4135 -2.7120
  459MOL0     H61965   8.247   3.970   1.831 -0.6163 -1.9808  0.1572
  460MOL0     O61966   1.837   8.433   7.830 -0.1173  0.2434  0.2947
  460MOL0     C61967   1.774   8.543   7.824  0.0636  0.2728 -0.4887
  460MOL0     O61968   1.667   8.563   7.752 -0.7828 -0.1218 -0.5085
  460MOL0     C61969   1.622   8.438   7.699 -0.1252 -0.8251 -0.1558
  460MOL0     C61970   1.497   8.382   7.743  0.2058 -0.4325 -0.1152
  460MOL0     C61971   1.437   8.281   7.675 -0.3405 -0.3689 -0.8244
  460MOL0     C61972   1.481   8.225   7.556 -0.3550 -0.3928 -0.3339
  460MOL0     O61973   1.402   8.134   7.491  0.1508  1.1475 -0.4203
  460MOL0     C61974   1.439   8.089   7.355  0.1666 -0.4276  0.8025
  460MOL0     C61975   1.348   7.983   7.304  0.6616 -0.3939  0.0600
  460MOL0     C61976   1.201   8.005   7.339  0.6481 -0.5510  0.6271
  460MOL0     C61977   1.119   7.881   7.306  0.6802 -1.1514 -0.4420
  460MOL0     C61978   0.967   7.907   7.276 -1.7843  1.0776  0.1526
  460MOL0     C61979   0.919   7.802   7.178 -0.2148  0.0639  0.3566
  460MOL0     C61980   0.962   7.649   7.207  0.3255 -0.3221  0.4541
  460MOL0     C61981   0.929   7.594   7.349  0.5716 -0.2048  0.6539
  460MOL0     N61982   0.992   7.464   7.369 -0.1205  0.4817  0.1961
  460MOL0     C61983   0.941   7.350   7.316  0.1927  0.0429  1.6576
  460MOL0     C61984   1.007   7.247   7.379 -0.4845 -0.4677 -0.2368
  460MOL0     C61985   0.989   7.097   7.344  1.0901  0.1255 -0.6693
  460MOL0     C61986   1.039   7.004   7.449  0.2782 -1.3951 -0.7402
  460MOL0     C61987   1.021   6.860   7.415 -0.7239 -0.2003 -0.3208
  460MOL0     C61988   1.027   6.773   7.534 -0.5375  0.8826 -0.2593
  460MOL0     O61989   1.153   6.789   7.601 -0.5665  0.1848 -0.0889
  460MOL0     C61990   1.176   6.777   7.732  0.3534  0.2227 -0.2600
  460MOL0     C61991   1.315   6.757   7.762  0.0022  0.7958  0.3409
  460MOL0     C61992   1.363   6.742   7.891  0.3184 -0.7217 -0.1946
  460MOL0     C61993   1.273   6.755   7.995 -0.5477 -0.2591 -0.3187
  460MOL0     C61994   1.327   6.739   8.134 -0.1817  0.4949  0.5024
  460MOL0     O61995   1.431   6.642   8.153  0.6817  0.3164  0.6105
  460MOL0     C61996   1.504   6.621   8.276  0.3780 -0.9792  0.4583
  460MOL0     C61997   1.550   6.494   8.309 -0.1597 -0.9740 -0.0315
  460MOL0     C61998   1.604   6.470   8.440 -0.1087  0.3389  0.5003
  460MOL0     C61999   1.628   6.571   8.526 -1.0053  0.7667  0.4158
  460MOL0     O62000   1.691   6.560   8.652 -0.2460 -0.1147  0.6657
  460MOL0     C62001   1.711   6.430   8.711  0.4261 -0.6771  0.4943
  460MOL0     C62002   1.577   6.357   8.740  0.1448  0.4039  0.6741
  460MOL0     C62003   1.494   6.429   8.835  0.2847 -0.2932 -0.5849
  460MOL0     C62004   1.411   6.335   8.928 -0.2331 -0.4457 -0.0705
  460MOL0     C62005   1.308   6.257   8.854  0.1287 -0.2303 -0.2020
  460MOL0     C62006   1.200   6.200   8.944 -0.6320  0.0237  0.1333
  460MOL0     C62007   1.090   6.140   8.860 -1.4665 -0.5298 -0.3519
  460MOL0     C62008   0.987   6.071   8.957 -0.1861 -0.4784 -0.5694
  460MOL0    Cl62009   0.839   6.015   8.892 -0.3535  0.3038  0.4175
  460MOL0     C62010   1.594   6.703   8.489  0.1360 -0.1267  0.3497
  460MOL0     C62011   1.519   6.726   8.368  0.5093 -0.7836  1.1537
  460MOL0     O62012   1.272   6.805   8.227  0.0486 -0.5075  0.2110
  460MOL0     C62013   1.135   6.797   7.971  0.6421  0.9344 -0.1431
  460MOL0     C62014   1.092   6.802   7.837  0.3250  0.6898  0.7835
  460MOL0     N62015   1.090   7.305   7.464  0.0411 -0.0643  0.6044
  460MOL0     N62016   1.085   7.433   7.465  0.4069 -1.1143  0.7867
  460MOL0     C62017   1.611   8.276   7.512 -0.1024  0.1336  0.1032
  460MOL0     C62018   1.678   8.385   7.581  0.1022  0.7037  0.2141
  460MOL0     C62019   1.839   8.662   7.883  0.7863 -0.3867  0.4954
  460MOL0     C62020   1.963   8.645   7.942  0.3648 -0.8010 -0.4255
  460MOL0     C62021   2.039   8.751   7.987 -0.0073  0.2169  0.4552
  460MOL0     C62022   1.987   8.878   7.987  0.2954 -0.1093  0.3711
  460MOL0     O62023   2.048   8.985   8.026 -0.1154 -0.7361  0.2913
  460MOL0     C62024   2.174   8.978   8.105 -0.1800 -0.3283 -0.9640
  460MOL0     C62025   2.161   8.993   8.263 -0.0071 -0.1872  0.6582
  460MOL0     C62026   2.056   8.895   8.325  0.8678 -0.3690  0.5024
  460MOL0     C62027   2.059   8.866   8.478  0.7175  0.0326 -0.2835
  460MOL0     C62028   2.037   8.988   8.560  0.6081 -0.4927  0.7689
  460MOL0     C62029   2.018   9.073   8.641  0.2533  0.0085 -0.5107
  460MOL0     C62030   1.861   8.910   7.936 -0.2540  0.5289 -0.8327
  460MOL0     C62031   1.787   8.798   7.883  0.6666 -0.0424  0.4273
  460MOL0     C62032   1.655   8.827   7.835  0.0994 -0.2872 -0.5004
  460MOL0     H62033   1.458   8.420   7.837  3.2757  1.7979  0.4489
  460MOL0     H62034   1.334   8.262   7.705  0.2063  2.2311  3.5056
  460MOL0     H62035   1.432   8.170   7.282  1.5404 -1.1472 -0.1591
  460MOL0     H62036   1.547   8.071   7.352  0.9607  3.4567 -0.0837
  460MOL0     H62037   1.368   7.888   7.355 -2.0303 -0.7721  0.5111
  460MOL0     H62038   1.368   7.978   7.196  1.4077 -3.5039  0.2221
  460MOL0     H62039   1.157   8.069   7.263  4.4514  0.6318 -0.8131
  460MOL0     H62040   1.191   8.042   7.442 -1.2552  1.8561 -0.3367
  460MOL0     H62041   1.169   7.846   7.215  0.5098 -0.1773 -0.9194
  460MOL0     H62042   1.134   7.808   7.386  2.3356 -0.3641 -0.0063
  460MOL0     H62043   0.914   7.922   7.371 -0.7335  0.0290  0.9445
  460MOL0     H62044   0.964   8.009   7.237 -1.7054  0.1398 -2.4604
  460MOL0     H62045   0.811   7.813   7.179 -0.1593  0.8144  2.5592
  460MOL0     H62046   0.955   7.821   7.076  1.4659  0.1566  0.9295
  460MOL0     H62047   1.072   7.650   7.202  0.2781 -1.1549 -1.6470
  460MOL0     H62048   0.921   7.578   7.135  2.6616 -2.0098  0.6760
  460MOL0     H62049   0.980   7.664   7.415  2.3745 -0.6213 -0.2277
  460MOL0     H62050   0.820   7.591   7.359  0.5341 -2.8761  0.2553
  460MOL0     H62051   0.875   7.352   7.229  3.0714  1.3346 -0.6842
  460MOL0     H62052   0.881   7.081   7.330  0.7829 -1.2495  2.4341
  460MOL0     H62053   1.037   7.069   7.250 -1.1168 -2.3103 -1.2118
  460MOL0     H62054   1.146   7.027   7.453  0.0859  0.0240 -2.3773
  460MOL0     H62055   0.986   7.030   7.541 -0.4510 -2.1534 -0.9398
  460MOL0     H62056   1.103   6.835   7.346 -1.0801  0.5409 -1.0268
  460MOL0     H62057   0.920   6.841   7.377 -0.4545 -2.7527  0.0788
  460MOL0     H62058   1.014   6.669   7.501  1.5569  0.1463  1.0781
  460MOL0     H62059   0.937   6.783   7.595 -1.1415 -0.9505 -0.7635
  460MOL0     H62060   1.402   6.756   7.697  0.3426 -1.5242  0.7158
  460MOL0     H62061   1.467   6.729   7.922  1.0964  1.0044 -1.8783
  460MOL0     H62062   1.544   6.411   8.239  1.5034 -1.8581  0.7931
  460MOL0     H62063   1.639   6.369   8.458  2.2028  1.0105  0.1051
  460MOL0     H62064   1.782   6.380   8.644  1.2743  0.9702  0.1125
  460MOL0     H62065   1.766   6.435   8.806 -0.2749 -2.0314  0.9955
  460MOL0     H62066   1.526   6.342   8.644  2.5125  0.3435 -0.6503
  460MOL0     H62067   1.606   6.256   8.773  1.4015  0.7525  0.7030
  460MOL0     H62068   1.558   6.493   8.897 -1.4501  1.9568 -0.9900
  460MOL0     H62069   1.419   6.492   8.786 -0.7021  0.8856  2.1866
  460MOL0     H62070   1.365   6.396   9.006  1.7580  2.0426 -0.7430
  460MOL0     H62071   1.479   6.261   8.972  0.4193  0.6989  0.8759
  460MOL0     H62072   1.351   6.170   8.804 -2.1239 -1.1901 -0.5796
  460MOL0     H62073   1.266   6.312   8.770 -0.1340 -3.1984 -2.1586
  460MOL0     H62074   1.231   6.118   9.010 -0.4114  2.1007  2.8276
  460MOL0     H62075   1.164   6.271   9.019  1.7696 -0.2208  1.6311
  460MOL0     H62076   1.129   6.065   8.790  2.6305  1.6603 -0.7034
  460MOL0     H62077   1.043   6.220   8.801  1.0197  1.5326  0.3321
  460MOL0     H62078   1.036   5.984   9.002 -2.2379 -0.9576  0.8610
  460MOL0     H62079   0.947   6.143   9.030 -0.0577 -2.6516  1.7864
  460MOL0     H62080   1.621   6.781   8.559  3.0519 -1.3876  0.7841
  460MOL0     H62081   1.508   6.827   8.329 -0.4341 -1.4069 -0.3182
  460MOL0     H62082   1.062   6.818   8.049  1.5055 -0.2935  1.0367
  460MOL0     H62083   0.991   6.832   7.811  0.7298  2.7847  1.5059
  460MOL0     H62084   1.665   8.245   7.423 -0.6571 -1.2840  0.2372
  460MOL0     H62085   1.766   8.436   7.544 -0.6224  0.9977 -1.1686
  460MOL0     H62086   2.014   8.550   7.933 -0.0733 -0.9870 -0.9864
  460MOL0     H62087   2.129   8.733   8.045  1.6614  5.3491 -0.0372
  460MOL0     H62088   2.240   9.060   8.079 -0.8081  0.2879 -0.6613
  460MOL0     H62089   2.229   8.891   8.069 -1.6849 -0.2242 -3.8092
  460MOL0     H62090   2.137   9.096   8.289 -1.3361 -0.7104  1.6200
  460MOL0     H62091   2.260   8.965   8.300  0.5315  1.6327  0.6656
  460MOL0     H62092   2.063   8.794   8.282 -2.0609  0.2230 -1.7196
  460MOL0     H62093   1.958   8.936   8.300  0.6141 -1.3626 -0.2275
  460MOL0     H62094   1.983   8.791   8.501  1.6809  0.0545  3.5189
  460MOL0     H62095   2.154   8.816   8.500  0.0350 -0.8877  0.6626
  460MOL0     H62096   2.005   9.146   8.718 -0.8670 -0.8327  0.1289
  460MOL0     H62097   1.809   9.004   7.952 -0.0239  0.8720 -2.0383
  460MOL0     H62098   1.580   8.770   7.892 -1.6143  1.9936 -0.3323
  460MOL0     H62099   1.620   8.928   7.856 -0.4056 -0.5987  0.2234
  460MOL0     H62100   1.644   8.797   7.730 -0.0399 -0.2865 -0.4872
  461MOL0     O62101  10.227   6.124   5.098  0.3834 -0.4202  0.0149
  461MOL0     C62102  10.137   6.174   5.031  0.6675 -0.3758 -0.1879
  461MOL0     O62103  10.155   6.229   4.902  0.0091 -1.0303  0.1841
  461MOL0     C62104  10.277   6.224   4.851 -0.4503 -0.0906 -0.0087
  461MOL0     C62105  10.391   6.281   4.914 -0.1199  0.2473  0.4493
  461MOL0     C62106  10.514   6.291   4.840 -0.0549  0.1449  0.3626
  461MOL0     C62107  10.531   6.237   4.712 -0.8808 -0.2272 -0.2044
  461MOL0     O62108  10.651   6.249   4.654 -0.0817 -0.4053 -0.4903
  461MOL0     C62109  10.669   6.253   4.506  0.6515 -0.5007 -0.2249
  461MOL0     C62110  10.785   6.341   4.446 -0.3516 -0.0648 -0.5937
  461MOL0     C62111  10.921   6.266   4.438 -0.5689  0.0586 -1.0797
  461MOL0     C62112  10.984   6.270   4.578  0.1175  0.2445 -0.7483
  461MOL0     C62113  11.040   6.412   4.607 -0.2659  0.4778 -0.2295
  461MOL0     C62114  11.099   6.430   4.748  1.1992  0.0950  1.1447
  461MOL0     C62115  11.210   6.332   4.773  0.4320  0.4770  0.2195
  461MOL0     C62116  11.239   6.339   4.925 -0.6513 -0.0869 -0.8095
  461MOL0     N62117  11.348   6.259   4.975 -0.0128  0.7777 -0.0098
  461MOL0     C62118  11.483   6.280   4.970  0.1826  0.0235 -0.1417
  461MOL0     C62119  11.545   6.169   5.019  0.6409 -0.4674  0.6792
  461MOL0     C62120  11.690   6.161   5.017 -0.9922  0.5805 -0.3992
  461MOL0     C62121  11.769   6.284   5.079  1.0031  0.2987  0.0238
  461MOL0     C62122  11.911   6.241   5.119 -0.1032  0.4722 -0.1009
  461MOL0     C62123  11.992   6.357   5.174  0.1825  0.4407 -0.3437
  461MOL0     O62124  12.011   6.470   5.082 -0.5337  0.0705 -0.2199
  461MOL0     C62125  12.064   6.586   5.136 -0.1207 -0.4608  0.7972
  461MOL0     C62126  12.084   6.688   5.040 -0.2404 -0.7596 -0.0205
  461MOL0     C62127  12.136   6.811   5.083  0.8005  0.5699 -0.1966
  461MOL0     C62128  12.176   6.832   5.218  0.9164 -0.2767  0.0586
  461MOL0     C62129  12.237   6.955   5.268  0.3848 -0.9151 -0.0958
  461MOL0     O62130  12.222   6.975   5.398  0.3241  0.5084  0.1747
  461MOL0     C62131  12.283   7.086   5.448  0.7598 -0.0456  0.5411
  461MOL0     C62132  12.281   7.220   5.395  0.5139  0.7200  0.0584
  461MOL0     C62133  12.334   7.320   5.471 -0.0809  0.8564 -0.4515
  461MOL0     C62134  12.392   7.294   5.598  0.0797 -0.3602 -0.5232
  461MOL0     O62135  12.430   7.398   5.683 -0.2400 -0.7194 -0.7201
  461MOL0     C62136  12.441   7.526   5.636 -0.7088 -0.5936 -0.1708
  461MOL0     C62137  12.442   7.620   5.760 -0.7473 -1.0636  0.5470
  461MOL0     C62138  12.512   7.572   5.895  0.1311 -0.6656 -0.2067
  461MOL0     C62139  12.478   7.678   6.004  0.2326 -0.2779  0.6204
  461MOL0     C62140  12.510   7.622   6.144  0.0751  0.2848  0.1926
  461MOL0     C62141  12.506   7.729   6.259  0.8928  0.6256  0.2171
  461MOL0     C62142  12.359   7.787   6.273 -0.8204  0.3967 -0.0983
  461MOL0     C62143  12.336   7.861   6.402 -0.1326 -0.4507  0.2780
  461MOL0    Cl62144  12.333   7.759   6.550  0.3390 -0.1803  0.5907
  461MOL0     C62145  12.392   7.169   5.649  0.0491 -0.2098  0.7564
  461MOL0     C62146  12.350   7.063   5.564 -0.5347  1.2294 -0.1955
  461MOL0     O62147  12.282   7.034   5.180 -0.2707 -0.3222 -0.3563
  461MOL0     C62148  12.160   6.736   5.309 -0.0765  0.0938  0.0258
  461MOL0     C62149  12.091   6.613   5.270 -0.0978  0.4400 -0.8456
  461MOL0     N62150  11.442   6.083   5.054 -0.2428 -0.1530  0.5336
  461MOL0     N62151  11.322   6.141   5.028  0.1141 -0.1590 -0.2208
  461MOL0     C62152  10.418   6.184   4.652  0.3608  0.5969  0.0619
  461MOL0     C62153  10.293   6.175   4.714 -0.8674 -0.5817 -0.4691
  461MOL0     C62154  10.004   6.209   5.094 -0.2930  0.4557  0.3888
  461MOL0     C62155   9.917   6.299   5.037  0.4726 -0.7433  0.2166
  461MOL0     C62156   9.797   6.338   5.105 -1.1920  0.2497 -1.7155
  461MOL0     C62157   9.776   6.299   5.242  0.5993  0.0842 -0.0871
  461MOL0     O62158   9.666   6.347   5.312  0.0187  1.0891  0.8217
  461MOL0     C62159   9.612   6.476   5.269  0.2217 -0.5529 -0.6255
  461MOL0     C62160   9.532   6.558   5.369  0.9142  0.5688 -0.6515
  461MOL0     C62161   9.581   6.528   5.515  0.1286 -0.4703  0.3836
  461MOL0     C62162   9.515   6.628   5.620  0.5653 -1.5823 -0.1640
  461MOL0     C62163   9.374   6.606   5.610  0.5766 -0.5072 -0.6231
  461MOL0     C62164   9.256   6.586   5.585 -0.7823 -0.5328 -0.1361
  461MOL0     C62165   9.858   6.198   5.293  0.0845  0.8033 -0.9140
  461MOL0     C62166   9.959   6.142   5.221 -0.3154 -0.2208  1.0382
  461MOL0     C62167  10.033   6.044   5.295 -0.8249 -0.1506  0.1272
  461MOL0     H62168  10.384   6.333   5.009 -2.3297 -1.0231  1.0680
  461MOL0     H62169  10.609   6.330   4.876  0.4338 -0.1534 -0.5748
  461MOL0     H62170  10.674   6.150   4.469  1.0930 -0.3066 -0.7073
  461MOL0     H62171  10.575   6.297   4.471 -0.0831 -1.3484  0.6110
  461MOL0     H62172  10.784   6.435   4.501 -2.6081 -0.2092 -0.2831
  461MOL0     H62173  10.764   6.359   4.340 -0.3559  1.0429 -0.4094
  461MOL0     H62174  10.985   6.328   4.375 -0.4639  0.9497 -0.1283
  461MOL0     H62175  10.906   6.169   4.390  0.3511 -2.6243  3.4303
  461MOL0     H62176  10.904   6.244   4.648 -2.4963  1.4940 -3.0891
  461MOL0     H62177  11.062   6.193   4.585  1.9763  2.1787  1.3580
  461MOL0     H62178  11.127   6.430   4.544 -0.2229 -1.0568 -0.6575
  461MOL0     H62179  10.971   6.493   4.581 -1.3681 -0.2331  0.4037
  461MOL0     H62180  11.125   6.536   4.755 -1.1242  0.6625  2.1872
  461MOL0     H62181  11.022   6.412   4.824  0.3532 -0.4295  0.2063
  461MOL0     H62182  11.302   6.354   4.718  1.1918 -1.3086  0.7030
  461MOL0     H62183  11.193   6.227   4.750 -0.4576  0.6002  0.2790
  461MOL0     H62184  11.248   6.446   4.948  0.5074 -0.2807 -0.2924
  461MOL0     H62185  11.151   6.304   4.979 -0.9460  2.2792  0.3843
  461MOL0     H62186  11.531   6.371   4.935 -2.7931  1.4468 -0.8281
  461MOL0     H62187  11.717   6.068   5.068  1.6865 -1.1980 -4.5245
  461MOL0     H62188  11.729   6.153   4.915 -0.5274 -0.5588 -0.1516
  461MOL0     H62189  11.760   6.372   5.015 -0.9927  0.8594  0.9796
  461MOL0     H62190  11.718   6.299   5.175  0.6693 -1.0237  0.0792
  461MOL0     H62191  11.960   6.203   5.028 -2.5715 -1.5977 -0.6631
  461MOL0     H62192  11.891   6.158   5.187 -2.9429  0.2746 -1.0713
  461MOL0     H62193  12.092   6.322   5.202 -0.0841 -1.8586 -1.8967
  461MOL0     H62194  11.929   6.389   5.256 -2.7284 -0.6136 -2.0079
  461MOL0     H62195  12.078   6.668   4.933  4.1245  3.0352 -1.3182
  461MOL0     H62196  12.155   6.892   5.013  1.3072  0.1096 -0.5902
  461MOL0     H62197  12.236   7.247   5.300 -1.1545 -0.0687  0.5924
  461MOL0     H62198  12.349   7.417   5.424  0.9458  0.3144 -1.2791
  461MOL0     H62199  12.536   7.526   5.581 -1.2554 -2.5057 -1.2064
  461MOL0     H62200  12.361   7.563   5.571  1.5206  1.6607 -1.8078
  461MOL0     H62201  12.486   7.714   5.725  2.4490 -1.7372  2.4024
  461MOL0     H62202  12.337   7.646   5.776 -0.3414  1.8622 -0.8786
  461MOL0     H62203  12.457   7.481   5.919 -2.7027  1.2133  1.0526
  461MOL0     H62204  12.621   7.562   5.894  0.3889  1.0908  1.9853
  461MOL0     H62205  12.372   7.701   5.990  0.5519  0.4688 -0.8334
  461MOL0     H62206  12.537   7.767   5.983  2.0772 -1.6039 -0.1010
  461MOL0     H62207  12.605   7.567   6.141 -0.4008 -0.5486  0.1361
  461MOL0     H62208  12.438   7.542   6.166  2.4239 -1.7064  1.0950
  461MOL0     H62209  12.530   7.674   6.351 -1.5353  2.8870  2.3551
  461MOL0     H62210  12.580   7.808   6.243 -0.7443  2.0583 -0.5026
  461MOL0     H62211  12.288   7.705   6.262 -2.0238  1.3444  0.3349
  461MOL0     H62212  12.351   7.859   6.191  2.4891 -0.2048 -1.0885
  461MOL0     H62213  12.412   7.939   6.403  0.4780 -1.0325 -0.1722
  461MOL0     H62214  12.235   7.900   6.389  1.1896  2.7905 -1.1959
  461MOL0     H62215  12.443   7.153   5.744  0.9693 -0.6506  0.2063
  461MOL0     H62216  12.366   6.959   5.591  2.3330  1.2735 -1.4023
  461MOL0     H62217  12.189   6.741   5.413 -1.6486 -1.6832  0.6049
  461MOL0     H62218  12.055   6.547   5.348 -2.7173  0.0970 -2.2154
  461MOL0     H62219  10.428   6.145   4.551 -3.0993  1.0961 -0.5897
  461MOL0     H62220  10.203   6.136   4.666 -0.4623  0.2987 -2.0168
  461MOL0     H62221   9.946   6.349   4.945 -0.4321 -0.4457  0.0894
  461MOL0     H62222   9.727   6.405   5.055  0.7757  2.2809 -1.9042
  461MOL0     H62223   9.554   6.464   5.177 -1.3219  1.6497 -0.0053
  461MOL0     H62224   9.689   6.549   5.242  0.8504 -1.2172 -0.6710
  461MOL0     H62225   9.434   6.509   5.362  2.4283 -2.5008 -2.0883
  461MOL0     H62226   9.523   6.665   5.345 -2.0528  1.1868  2.3612
  461MOL0     H62227   9.690   6.526   5.522  0.1037 -0.2561  0.8424
  461MOL0     H62228   9.554   6.429   5.553  0.8856 -0.9043 -0.1841
  461MOL0     H62229   9.549   6.606   5.722 -0.8144  1.5617  1.0889
  461MOL0     H62230   9.549   6.731   5.610 -0.3191 -1.2191  0.5380
  461MOL0     H62231   9.159   6.555   5.553 -1.6672 -1.2053  2.8425
  461MOL0     H62232   9.840   6.177   5.398  0.6334  1.5868 -0.6522
  461MOL0     H62233  10.093   5.972   5.238  0.1332 -1.2251  2.3767
  461MOL0     H62234  10.108   6.100   5.352  0.9473 -1.7712 -0.5059
  461MOL0     H62235   9.964   5.988   5.359 -0.9248 -2.8971 -2.1983
  462MOL0     O62236   2.282  10.935   9.666 -0.2971 -0.4729 -0.7642
  462MOL0     C62237   2.221  10.957   9.769 -0.6382  0.3747 -0.4491
  462MOL0     O62238   2.268  10.944   9.894  0.1075  0.3994 -0.2484
  462MOL0     C62239   2.390  10.883   9.907 -0.6948 -0.6048 -0.0923
  462MOL0     C62240   2.389  10.764   9.970  0.7533 -0.0043  0.1747
  462MOL0     C62241   2.502  10.696   9.997 -0.1982  0.9547 -0.5968
  462MOL0     C62242   2.634  10.750   9.953  0.3500  0.4756 -0.7542
  462MOL0     O62243   2.737  10.664   9.976 -0.4967 -0.4545  0.7195
  462MOL0     C62244   2.858  10.688   9.898 -0.1329  0.3908  0.5880
  462MOL0     C62245   2.985  10.624   9.966 -0.0008  0.4039  0.0611
  462MOL0     C62246   2.964  10.478   9.991  0.0131  0.4695 -0.1318
  462MOL0     C62247   2.966  10.444  10.138  0.6925  0.9325 -0.1807
  462MOL0     C62248   2.930  10.301  10.171 -0.3020 -0.8933 -0.1675
  462MOL0     C62249   2.790  10.262  10.123 -0.8167 -0.0229 -0.1495
  462MOL0     C62250   2.795  10.112  10.169 -0.0337  0.1901 -0.2823
  462MOL0     C62251   2.690  10.031  10.104  0.3148  0.3556 -0.2571
  462MOL0     N62252   2.730   9.889  10.098  0.2936 -0.2772 -1.2281
  462MOL0     C62253   2.808   9.833  10.001  1.0392  0.1027  1.1742
  462MOL0     C62254   2.783   9.705  10.005  0.4418  0.9358 -0.6216
  462MOL0     C62255   2.832   9.580   9.928 -0.9497 -0.2468  0.0274
  462MOL0     C62256   2.804   9.597   9.776 -0.2864  0.0217 -0.5243
  462MOL0     C62257   2.854   9.480   9.696  0.4164  0.2832 -0.4465
  462MOL0     C62258   2.818   9.480   9.554 -0.5749  0.4174 -0.4554
  462MOL0     O62259   2.678   9.478   9.545 -0.6094  0.3735  0.5070
  462MOL0     C62260   2.636   9.501   9.419  0.6068 -0.0651 -0.0123
  462MOL0     C62261   2.637   9.634   9.365  0.2645 -0.2926  0.2665
  462MOL0     C62262   2.577   9.648   9.234 -0.7359 -0.1682 -1.0108
  462MOL0     C62263   2.540   9.542   9.156  0.1166 -0.1460 -0.2056
  462MOL0     C62264   2.476   9.551   9.026  0.4283 -0.3052 -1.0092
  462MOL0     O62265   2.383   9.459   8.992  0.1596  0.6793 -0.2010
  462MOL0     C62266   2.337   9.471   8.860 -0.7633  0.6140  0.1989
  462MOL0     C62267   2.240   9.554   8.826  0.1873  0.2767 -0.0352
  462MOL0     C62268   2.186   9.558   8.695 -0.7907 -0.3383 -0.2218
  462MOL0     C62269   2.234   9.467   8.597 -0.5953 -0.1739 -0.1294
  462MOL0     O62270   2.171   9.471   8.476  0.2200  0.2574  0.4129
  462MOL0     C62271   2.166   9.352   8.390  0.1194 -0.7176 -1.1275
  462MOL0     C62272   2.057   9.385   8.274 -0.1038 -0.6336 -0.0258
  462MOL0     C62273   1.917   9.357   8.327  0.2648 -0.1790  0.7466
  462MOL0     C62274   1.836   9.268   8.233 -0.4653  0.0841  0.2165
  462MOL0     C62275   1.690   9.256   8.285  0.5050  0.5680  0.7141
  462MOL0     C62276   1.615   9.158   8.207  0.8782  0.2509  1.5578
  462MOL0     C62277   1.577   9.215   8.064  0.5206 -0.0259 -0.0474
  462MOL0     C62278   1.458   9.321   8.064  0.3864  0.4387 -0.5596
  462MOL0    Cl62279   1.298   9.258   8.146 -0.1090  0.2570  0.4861
  462MOL0     C62280   2.341   9.383   8.629 -0.3562  0.4907 -0.8639
  462MOL0     C62281   2.389   9.387   8.763  0.9099  0.1131 -0.4259
  462MOL0     O62282   2.509   9.640   8.955 -0.2586  0.0969  0.0493
  462MOL0     C62283   2.552   9.411   9.207  0.3121 -0.3179 -0.9361
  462MOL0     C62284   2.599   9.394   9.331 -0.8228  0.9200  0.0380
  462MOL0     N62285   2.701   9.686  10.117  0.0248 -0.1182 -0.2760
  462MOL0     N62286   2.657   9.800  10.167  1.4776  0.5171  0.2020
  462MOL0     C62287   2.634  10.878   9.905 -1.1481  0.5498  0.0258
  462MOL0     C62288   2.516  10.942   9.866 -0.1454  0.6761  0.1439
  462MOL0     C62289   2.090  11.028   9.738 -0.1086 -0.7508  0.3616
  462MOL0     C62290   2.065  11.090   9.606  0.2925 -0.5794  0.6307
  462MOL0     C62291   1.950  11.159   9.577 -0.7976 -0.3444  0.8674
  462MOL0     C62292   1.850  11.165   9.677 -1.1195  0.3227  0.6860
  462MOL0     O62293   1.728  11.214   9.631 -0.0410 -0.5060  0.2503
  462MOL0     C62294   1.702  11.351   9.669  0.2525 -0.2910 -0.3646
  462MOL0     C62295   1.617  11.427   9.565 -0.0384  0.7020 -0.4294
  462MOL0     C62296   1.464  11.388   9.568 -0.6000  0.2536  0.5230
  462MOL0     C62297   1.384  11.458   9.455 -0.0030 -0.1002 -0.8431
  462MOL0     C62298   1.373  11.601   9.484  0.6049 -0.0062  0.5832
  462MOL0     C62299   1.374  11.724   9.495  0.2063 -0.1917 -0.0726
  462MOL0     C62300   1.861  11.086   9.796  0.1297 -0.5869 -0.2058
  462MOL0     C62301   1.986  11.026   9.837 -0.1673  0.3590 -0.3411
  462MOL0     C62302   1.985  10.970   9.980  0.2063  0.6219 -0.7639
  462MOL0     H62303   2.291  10.728  10.001 -0.8643  1.7913 -2.3828
  462MOL0     H62304   2.491  10.599  10.044 -1.0804  0.6600 -1.3882
  462MOL0     H62305   2.844  10.636   9.803  0.9449  1.2543 -0.0714
  462MOL0     H62306   2.880  10.794   9.881 -0.3505  0.6653  1.9034
  462MOL0     H62307   3.004  10.678  10.059  1.2314 -0.8570  0.5830
  462MOL0     H62308   3.069  10.636   9.897  0.9727 -0.7645  1.0042
  462MOL0     H62309   3.036  10.413   9.942 -0.6597 -0.3262 -0.0816
  462MOL0     H62310   2.860  10.465   9.959 -1.1046  1.6553  2.6171
  462MOL0     H62311   3.070  10.472  10.161  0.2911  4.0137 -1.6010
  462MOL0     H62312   2.914  10.513  10.206 -0.9395 -2.2112  1.9881
  462MOL0     H62313   3.006  10.237  10.124  1.5982  0.1323  1.3375
  462MOL0     H62314   2.929  10.288  10.279 -0.6269 -1.6041 -0.2512
  462MOL0     H62315   2.703  10.304  10.175 -1.8083 -0.4926 -1.3857
  462MOL0     H62316   2.778  10.273  10.015 -1.1964  0.1214 -0.0913
  462MOL0     H62317   2.782  10.084  10.274  0.0077  1.2712  0.0247
  462MOL0     H62318   2.891  10.064  10.150  0.2756 -1.2552  3.9446
  462MOL0     H62319   2.588  10.041  10.142 -0.3011 -2.2839 -1.0321
  462MOL0     H62320   2.676  10.059   9.999  0.8023 -0.9116 -0.6726
  462MOL0     H62321   2.856   9.893   9.925  5.0539  0.5307  3.7488
  462MOL0     H62322   2.939   9.565   9.946 -1.0416 -3.8193 -1.5966
  462MOL0     H62323   2.790   9.487   9.967 -0.8543 -0.8300 -1.2412
  462MOL0     H62324   2.695   9.599   9.771 -0.5548 -2.6410  1.7984
  462MOL0     H62325   2.849   9.692   9.745  1.3729 -0.7815 -0.6813
  462MOL0     H62326   2.818   9.394   9.755 -1.6901  0.4192 -1.4273
  462MOL0     H62327   2.962   9.478   9.708  0.2211 -0.4992  1.5916
  462MOL0     H62328   2.860   9.397   9.496  0.3757  0.0807  0.6797
  462MOL0     H62329   2.865   9.570   9.514 -1.4949  0.7646 -0.7958
  462MOL0     H62330   2.682   9.716   9.421  0.1523  0.4467 -0.6845
  462MOL0     H62331   2.546   9.746   9.198 -1.9103  1.6278  4.0547
  462MOL0     H62332   2.187   9.612   8.901 -1.1457 -1.8501  0.7523
  462MOL0     H62333   2.096   9.616   8.674  0.4111  0.6785 -3.2268
  462MOL0     H62334   2.262   9.324   8.346  0.7027 -0.6186  0.0286
  462MOL0     H62335   2.126   9.269   8.449 -0.5386 -2.0496 -3.3408
  462MOL0     H62336   2.059   9.490   8.245 -1.1761 -0.9249 -1.2867
  462MOL0     H62337   2.089   9.321   8.191  0.0965 -1.7565  0.8862
  462MOL0     H62338   1.915   9.310   8.426  1.1871  0.5165  1.1183
  462MOL0     H62339   1.866   9.454   8.328 -0.5732 -0.6124  1.7138
  462MOL0     H62340   1.899   9.178   8.232 -1.8068 -1.2062  5.2033
  462MOL0     H62341   1.852   9.307   8.132  1.9301 -1.3244 -0.0263
  462MOL0     H62342   1.635   9.351   8.282 -3.4327 -1.5329 -0.6304
  462MOL0     H62343   1.694   9.217   8.387  1.2716  0.3360  0.6003
  462MOL0     H62344   1.678   9.069   8.202  1.2186  0.5423 -0.3581
  462MOL0     H62345   1.514   9.142   8.246 -0.3472 -0.3705 -1.5835
  462MOL0     H62346   1.556   9.132   7.997  2.7684 -0.9908  0.3501
  462MOL0     H62347   1.658   9.275   8.021 -0.3216  1.9117  0.9048
  462MOL0     H62348   1.481   9.414   8.118 -1.4205  0.3615  0.4210
  462MOL0     H62349   1.429   9.353   7.964 -1.6540  1.9326  0.4405
  462MOL0     H62350   2.393   9.319   8.558  2.8486  1.3030  0.5910
  462MOL0     H62351   2.472   9.326   8.796  0.7964  0.6157  0.8503
  462MOL0     H62352   2.532   9.315   9.160  0.0672 -1.2072  0.8962
  462MOL0     H62353   2.618   9.298   9.379 -1.2499  0.2377 -1.1310
  462MOL0     H62354   2.726  10.919   9.866 -0.6996 -0.2546  0.2018
  462MOL0     H62355   2.516  11.038   9.815 -1.9033 -0.0444 -1.3262
  462MOL0     H62356   2.127  11.059   9.522 -1.3007 -0.8285 -0.4922
  462MOL0     H62357   1.925  11.201   9.480 -2.6843  0.0643  1.4911
  462MOL0     H62358   1.801  11.394   9.689 -0.2290  0.7066 -0.0751
  462MOL0     H62359   1.638  11.352   9.757  0.4129  0.1842 -0.2501
  462MOL0     H62360   1.649  11.425   9.461 -1.0025 -1.3306 -0.7308
  462MOL0     H62361   1.625  11.535   9.585 -1.9674  0.5516  1.4766
  462MOL0     H62362   1.423  11.407   9.667  1.2985 -1.3164  1.6875
  462MOL0     H62363   1.471  11.281   9.546  2.3667  0.0794  1.8320
  462MOL0     H62364   1.444  11.456   9.363  1.6896  0.6237  0.1931
  462MOL0     H62365   1.294  11.404   9.426  0.0362 -0.5110 -0.2090
  462MOL0     H62366   1.349  11.828   9.490  0.5351 -0.1316 -0.5705
  462MOL0     H62367   1.774  11.089   9.861  0.4598 -0.2537  0.2244
  462MOL0     H62368   2.032  11.040  10.051  0.7754  0.3638 -0.8760
  462MOL0     H62369   1.885  10.934  10.006  0.9629 -1.0219  0.0151
  462MOL0     H62370   2.060  10.890   9.978  0.6653  0.9925  0.6657
  463MOL0     O62371  11.005   3.148   5.530  0.0214  0.2678  0.4286
  463MOL0     C62372  10.948   3.254   5.547 -0.0082  0.1520 -0.4865
  463MOL0     O62373  10.807   3.274   5.558 -0.8051  0.1826 -0.4866
  463MOL0     C62374  10.714   3.179   5.556 -0.1840  0.6912 -0.3553
  463MOL0     C62375  10.735   3.043   5.565 -0.4389 -0.1044  0.1892
  463MOL0     C62376  10.624   2.956   5.532 -0.1613 -0.1692  0.0745
  463MOL0     C62377  10.492   3.009   5.509 -0.5575  1.4211 -0.3212
  463MOL0     O62378  10.386   2.915   5.500  0.4277 -0.3423 -0.1464
  463MOL0     C62379  10.370   2.846   5.374  0.9473 -0.4578  0.0315
  463MOL0     C62380  10.321   2.950   5.276 -0.3747 -0.1887 -0.8585
  463MOL0     C62381  10.292   2.886   5.142  0.0778  0.6101 -1.1702
  463MOL0     C62382  10.235   2.980   5.032 -0.1558  0.0158 -0.0860
  463MOL0     C62383  10.252   2.937   4.887  0.4432 -0.8748 -0.1244
  463MOL0     C62384  10.229   3.054   4.795 -0.1087  0.5463 -0.3535
  463MOL0     C62385  10.261   3.017   4.653  0.0800 -0.2808 -0.7118
  463MOL0     C62386  10.223   3.151   4.575 -0.0432 -0.6767  0.3045
  463MOL0     N62387  10.299   3.272   4.610 -0.8452 -0.5327 -0.4046
  463MOL0     C62388  10.274   3.378   4.700 -0.5141 -0.3508 -0.7447
  463MOL0     C62389  10.391   3.454   4.703  0.7420  0.1555  0.2618
  463MOL0     C62390  10.408   3.583   4.782 -0.5680 -0.1921  0.5060
  463MOL0     C62391  10.461   3.557   4.929  0.1492  0.6278 -0.3469
  463MOL0     C62392  10.590   3.474   4.940 -0.5397  0.4192 -1.1144
  463MOL0     C62393  10.609   3.458   5.091 -0.6275 -0.9326 -0.0550
  463MOL0     O62394  10.665   3.575   5.140 -0.0543  0.9676 -0.3514
  463MOL0     C62395  10.795   3.580   5.182  1.3203 -0.4782 -0.1772
  463MOL0     C62396  10.859   3.704   5.165  0.2104 -0.1195  0.4776
  463MOL0     C62397  11.003   3.726   5.174  0.0922 -0.0733 -0.2243
  463MOL0     C62398  11.088   3.622   5.206 -0.1252 -1.0509  0.5891
  463MOL0     C62399  11.231   3.634   5.217  0.5989  0.2082  0.2879
  463MOL0     O62400  11.298   3.512   5.217 -0.0243  1.4364  0.2678
  463MOL0     C62401  11.418   3.491   5.249  0.4913  0.2318  0.5474
  463MOL0     C62402  11.500   3.565   5.335 -0.4245  0.5289 -0.1272
  463MOL0     C62403  11.630   3.530   5.365  0.3242 -0.3189 -0.4707
  463MOL0     C62404  11.688   3.423   5.298 -0.0145  0.3256  0.3377
  463MOL0     O62405  11.830   3.383   5.309  0.8563 -0.3137  0.1875
  463MOL0     C62406  11.918   3.439   5.398 -1.0280 -0.4772 -0.7141
  463MOL0     C62407  12.047   3.360   5.402  0.4938 -0.3473  0.1657
  463MOL0     C62408  12.121   3.368   5.265 -0.2349 -0.7731 -1.5759
  463MOL0     C62409  12.257   3.294   5.272  0.0446 -0.4267 -0.2646
  463MOL0     C62410  12.299   3.293   5.129  0.0213 -0.7345  0.1511
  463MOL0     C62411  12.424   3.209   5.104  0.2792 -0.7030 -0.3231
  463MOL0     C62412  12.549   3.289   5.161 -0.0849  0.7719  0.4562
  463MOL0     C62413  12.594   3.417   5.074 -0.1599  0.2520  0.0260
  463MOL0    Cl62414  12.773   3.417   5.066  0.5370 -0.2424  0.0577
  463MOL0     C62415  11.609   3.350   5.209  0.2427  0.4225 -0.9158
  463MOL0     C62416  11.477   3.381   5.186  0.0149 -0.0710 -0.0199
  463MOL0     O62417  11.278   3.748   5.196 -0.0756  0.0038 -0.3300
  463MOL0     C62418  11.025   3.496   5.224  0.7873 -0.4264  0.3153
  463MOL0     C62419  10.886   3.474   5.211  0.6839  0.4424 -0.5104
  463MOL0     N62420  10.481   3.401   4.613 -0.2267  0.3421 -0.3150
  463MOL0     N62421  10.432   3.292   4.565 -0.2075 -0.8293 -0.2644
  463MOL0     C62422  10.472   3.147   5.514  1.0007  0.3889  0.8828
  463MOL0     C62423  10.583   3.228   5.527 -0.1416 -0.4180 -0.4296
  463MOL0     C62424  11.040   3.371   5.561  0.3734  0.2948 -0.4296
  463MOL0     C62425  10.979   3.500   5.567  0.1865  0.5802  0.1399
  463MOL0     C62426  11.050   3.617   5.574 -0.3447 -0.3034 -0.4459
  463MOL0     C62427  11.195   3.611   5.586  0.3855 -1.3374  0.2439
  463MOL0     O62428  11.258   3.727   5.606  0.1797  0.0048  0.2983
  463MOL0     C62429  11.208   3.854   5.549 -0.9578  0.6528 -0.1641
  463MOL0     C62430  11.327   3.941   5.516 -0.1504 -0.3526  0.5410
  463MOL0     C62431  11.427   3.971   5.627 -0.2608  0.4485  0.1743
  463MOL0     C62432  11.363   4.043   5.752  0.5389  0.0283 -0.1125
  463MOL0     C62433  11.349   4.189   5.728  0.0849  0.1201 -0.7114
  463MOL0     C62434  11.315   4.302   5.719 -0.6276  0.3247  0.0786
  463MOL0     C62435  11.254   3.488   5.581 -0.1872 -0.5823 -0.0512
  463MOL0     C62436  11.179   3.366   5.568 -0.6123 -0.1779 -0.1216
  463MOL0     C62437  11.270   3.242   5.533  0.6653 -0.3117  0.1498
  463MOL0     H62438  10.836   3.009   5.584 -0.2394  0.1208 -0.4334
  463MOL0     H62439  10.639   2.848   5.530 -2.1899 -0.4797 -1.4473
  463MOL0     H62440  10.454   2.786   5.337 -0.4312 -2.1549 -0.4806
  463MOL0     H62441  10.285   2.781   5.398  0.1641  0.5364  0.0039
  463MOL0     H62442  10.395   3.028   5.260  0.9700 -1.5414 -1.5393
  463MOL0     H62443  10.234   3.001   5.318  0.1361 -0.1367  0.1584
  463MOL0     H62444  10.239   2.792   5.160  2.4443 -0.7150 -0.5515
  463MOL0     H62445  10.382   2.840   5.098  0.8127  0.5354  0.3562
  463MOL0     H62446  10.134   3.013   5.058  0.1685  0.6809  0.3578
  463MOL0     H62447  10.294   3.072   5.040 -1.2896  0.6084  2.4853
  463MOL0     H62448  10.350   2.894   4.868  1.7556  2.0215 -0.3669
  463MOL0     H62449  10.184   2.852   4.873  0.5924 -0.9589 -0.3386
  463MOL0     H62450  10.122   3.065   4.813  0.1369  0.7422  1.1200
  463MOL0     H62451  10.283   3.143   4.828  2.1040 -1.0115  0.4247
  463MOL0     H62452  10.206   2.929   4.616  0.9772 -1.7411  1.2680
  463MOL0     H62453  10.365   2.984   4.648  0.7983  1.8935 -0.7897
  463MOL0     H62454  10.241   3.132   4.468 -1.1635 -3.0370  0.4865
  463MOL0     H62455  10.118   3.176   4.593 -0.0028  0.1841 -0.5234
  463MOL0     H62456  10.183   3.415   4.745  1.0453  2.1940  0.5458
  463MOL0     H62457  10.482   3.650   4.737 -0.7966  0.8288  1.5831
  463MOL0     H62458  10.313   3.635   4.790  0.7804  2.5430 -0.0453
  463MOL0     H62459  10.471   3.650   4.986  2.9533  0.6895 -0.8149
  463MOL0     H62460  10.389   3.506   4.994 -1.6324  2.4571 -0.7870
  463MOL0     H62461  10.679   3.528   4.905 -0.3634  0.9352  0.0769
  463MOL0     H62462  10.589   3.377   4.891 -0.3771  0.0546 -0.4183
  463MOL0     H62463  10.670   3.373   5.124  0.2727  0.5761  2.4409
  463MOL0     H62464  10.516   3.443   5.147 -1.1714  3.3778  0.5273
  463MOL0     H62465  10.794   3.782   5.125 -0.4689 -0.5006  0.8375
  463MOL0     H62466  11.041   3.826   5.156  0.2930 -0.2522 -0.7889
  463MOL0     H62467  11.464   3.653   5.386 -0.6964  0.1670  0.3133
  463MOL0     H62468  11.689   3.590   5.433 -1.1554  0.5241  0.1314
  463MOL0     H62469  11.929   3.545   5.373 -2.7856  0.6825  2.7590
  463MOL0     H62470  11.874   3.442   5.498 -4.2820 -3.9593 -1.8184
  463MOL0     H62471  12.113   3.401   5.479  3.3608  1.0457 -2.7819
  463MOL0     H62472  12.030   3.253   5.419 -2.3735  0.1598  1.1298
  463MOL0     H62473  12.066   3.330   5.178 -1.0833 -0.3438 -1.2346
  463MOL0     H62474  12.144   3.474   5.257  2.9082 -0.8554  2.7790
  463MOL0     H62475  12.260   3.193   5.312 -1.2635 -0.1775  0.5241
  463MOL0     H62476  12.325   3.342   5.342 -0.4012 -2.2718  1.5181
  463MOL0     H62477  12.306   3.395   5.090 -3.7676  0.9278  3.1527
  463MOL0     H62478  12.223   3.247   5.066 -2.2815 -0.0868  2.3037
  463MOL0     H62479  12.405   3.112   5.151 -1.7738 -0.5364 -0.7468
  463MOL0     H62480  12.442   3.193   4.997 -1.3612  0.5176 -0.8235
  463MOL0     H62481  12.627   3.213   5.160 -2.1192 -1.4098 -0.0291
  463MOL0     H62482  12.538   3.315   5.267  0.0354 -1.9058  1.2048
  463MOL0     H62483  12.542   3.407   4.977 -1.5695 -2.9338  0.9569
  463MOL0     H62484  12.560   3.512   5.116  2.3646  0.6098  1.4404
  463MOL0     H62485  11.653   3.265   5.156  1.1377  0.8729 -0.8992
  463MOL0     H62486  11.427   3.309   5.123  1.2517  1.3581 -2.7980
  463MOL0     H62487  11.087   3.418   5.267  1.2736  0.7606  1.8503
  463MOL0     H62488  10.849   3.374   5.226  0.3483  0.7955  1.2214
  463MOL0     H62489  10.370   3.176   5.534  1.0323  0.0735  1.5422
  463MOL0     H62490  10.565   3.334   5.537 -3.0154 -0.6682 -2.0346
  463MOL0     H62491  10.872   3.512   5.554  0.1619 -0.5662 -0.8911
  463MOL0     H62492  11.000   3.710   5.597  0.5038 -0.2586  1.4532
  463MOL0     H62493  11.147   3.898   5.629 -0.7917 -1.2706  1.0974
  463MOL0     H62494  11.145   3.834   5.462 -1.2086  0.6329  0.0208
  463MOL0     H62495  11.288   4.036   5.479 -1.0687 -0.5492  0.9651
  463MOL0     H62496  11.391   3.889   5.445  1.6821  1.0590  1.0664
  463MOL0     H62497  11.511   4.033   5.595  0.0693  0.9452  1.9130
  463MOL0     H62498  11.461   3.875   5.664  0.6661  0.7724  0.1818
  463MOL0     H62499  11.258   4.017   5.767 -0.0730  3.0107  1.6981
  463MOL0     H62500  11.413   4.022   5.847  1.3457 -3.6879 -1.2190
  463MOL0     H62501  11.292   4.404   5.694  0.1496 -0.0447 -2.4210
  463MOL0     H62502  11.362   3.478   5.582 -0.0709  0.6051  0.2476
  463MOL0     H62503  11.254   3.198   5.434 -1.1511 -1.8872  1.0704
  463MOL0     H62504  11.376   3.268   5.540  0.9700 -1.7059  1.2616
  463MOL0     H62505  11.256   3.161   5.605  0.7260 -2.1134 -1.7479
  464MOL0     O62506   6.601   5.096   6.196  0.3011 -0.3719  0.2577
  464MOL0     C62507   6.702   5.114   6.258  0.2979 -1.1148 -0.5554
  464MOL0     O62508   6.701   5.156   6.387 -0.1074  0.0872  0.2295
  464MOL0     C62509   6.602   5.086   6.465 -0.3094  0.1866  0.0603
  464MOL0     C62510   6.481   5.148   6.482 -0.0767 -0.6418  0.1469
  464MOL0     C62511   6.380   5.084   6.549  0.2921 -0.4264  0.5603
  464MOL0     C62512   6.398   4.957   6.601  0.2689 -0.1615  0.5618
  464MOL0     O62513   6.313   4.876   6.665  0.3563 -0.6921 -0.0537
  464MOL0     C62514   6.177   4.917   6.686  0.0616 -0.9324  0.4498
  464MOL0     C62515   6.104   4.803   6.766 -0.1931 -0.5125  0.2084
  464MOL0     C62516   5.981   4.854   6.851  0.0054  0.1787 -0.3614
  464MOL0     C62517   5.844   4.793   6.819  0.1712 -0.1979  0.0562
  464MOL0     C62518   5.733   4.857   6.901 -0.2597  0.0396 -0.4671
  464MOL0     C62519   5.598   4.821   6.856 -0.6146  0.6049 -0.3496
  464MOL0     C62520   5.482   4.898   6.930  0.3537  0.4442  0.4785
  464MOL0     C62521   5.491   4.897   7.083 -0.3931 -1.1915 -0.9924
  464MOL0     N62522   5.465   4.767   7.152  0.2175 -0.0101 -0.3947
  464MOL0     C62523   5.556   4.700   7.220 -0.6456  0.1450  0.3725
  464MOL0     C62524   5.497   4.622   7.305 -0.6139  0.0342 -0.3245
  464MOL0     C62525   5.558   4.528   7.404 -0.5752  0.2467 -0.4966
  464MOL0     C62526   5.656   4.601   7.505 -0.9526  0.1257  0.3535
  464MOL0     C62527   5.651   4.541   7.644 -0.2519 -0.5004 -0.1502
  464MOL0     C62528   5.760   4.601   7.733  0.3644 -0.1888 -0.0820
  464MOL0     O62529   5.893   4.575   7.692  0.3383 -0.0970  0.7999
  464MOL0     C62530   5.972   4.482   7.758  0.0491  0.3762 -0.5870
  464MOL0     C62531   5.925   4.361   7.803  0.8373 -0.3320 -0.1036
  464MOL0     C62532   6.009   4.271   7.861  0.7734  0.3009 -0.0186
  464MOL0     C62533   6.143   4.303   7.892 -0.4792 -1.1570 -1.0849
  464MOL0     C62534   6.237   4.213   7.963 -0.0365  0.4536 -1.1524
  464MOL0     O62535   6.364   4.255   7.997  0.3857 -0.0690 -0.1753
  464MOL0     C62536   6.462   4.166   8.048  0.6078 -0.4047 -0.1255
  464MOL0     C62537   6.425   4.087   8.166  0.1332 -0.8452  1.4449
  464MOL0     C62538   6.520   4.019   8.236  0.3920 -0.4343 -0.4617
  464MOL0     C62539   6.650   4.019   8.201  0.4528 -0.3644 -0.0667
  464MOL0     O62540   6.742   3.967   8.292  0.1938  0.0690  0.3300
  464MOL0     C62541   6.876   4.020   8.301 -0.6629  0.2002  0.5000
  464MOL0     C62542   6.920   3.973   8.433  0.1045 -0.0165 -0.6678
  464MOL0     C62543   7.048   4.057   8.476 -0.0109 -1.3730 -0.7635
  464MOL0     C62544   7.184   4.001   8.442 -0.0588 -0.6482  0.3537
  464MOL0     C62545   7.217   3.874   8.520 -0.0221 -0.1631  0.1313
  464MOL0     C62546   7.359   3.820   8.480  0.0254  0.2382  0.6605
  464MOL0     C62547   7.470   3.885   8.552  0.6525  0.4755 -0.2993
  464MOL0     C62548   7.586   3.912   8.463 -0.4246  0.6926 -0.1886
  464MOL0    Cl62549   7.575   4.056   8.352  0.5851 -0.0753  0.3246
  464MOL0     C62550   6.680   4.094   8.086 -0.8182 -0.0806 -0.5567
  464MOL0     C62551   6.594   4.165   8.002 -0.1558 -0.3243 -0.7942
  464MOL0     O62552   6.195   4.094   7.970  0.2887  0.5972 -0.1608
  464MOL0     C62553   6.188   4.429   7.844  0.3896  0.5468 -0.5347
  464MOL0     C62554   6.109   4.520   7.781  1.5627  0.4456  0.2465
  464MOL0     N62555   5.361   4.649   7.301  0.5739 -0.0542  0.1730
  464MOL0     N62556   5.342   4.728   7.199  0.3604  0.9122  0.8325
  464MOL0     C62557   6.525   4.900   6.587 -0.1013 -1.2723  0.1145
  464MOL0     C62558   6.630   4.959   6.518  0.1671 -0.4135  0.2430
  464MOL0     C62559   6.824   5.135   6.180  0.2110  0.3823 -0.3549
  464MOL0     C62560   6.929   5.207   6.243  0.6443  0.4394  0.2034
  464MOL0     C62561   7.046   5.231   6.180 -0.4382 -0.1103  0.8929
  464MOL0     C62562   7.077   5.166   6.051  0.1553 -0.3296 -0.6000
  464MOL0     O62563   7.194   5.147   5.989 -0.0096 -0.4114 -0.4502
  464MOL0     C62564   7.316   5.199   6.052  0.4091 -0.7134 -0.6112
  464MOL0     C62565   7.448   5.127   6.017  0.0916 -0.1838  0.6309
  464MOL0     C62566   7.569   5.224   6.054 -0.4367  0.2516 -0.9410
  464MOL0     C62567   7.604   5.336   5.957 -0.6081  0.1892 -0.2028
  464MOL0     C62568   7.734   5.321   5.891 -0.5420  0.4704  0.0263
  464MOL0     C62569   7.826   5.315   5.810 -0.4587  0.6945 -0.6031
  464MOL0     C62570   6.972   5.095   5.995  0.2119  0.7170 -0.1471
  464MOL0     C62571   6.845   5.078   6.053 -0.4575 -0.9857  0.4848
  464MOL0     C62572   6.750   4.997   5.972 -0.5688  0.0530 -0.2106
  464MOL0     H62573   6.466   5.249   6.445  0.3436 -1.0952 -1.3084
  464MOL0     H62574   6.284   5.133   6.560  0.6003  0.4063 -0.3862
  464MOL0     H62575   6.184   5.010   6.743  2.6123 -0.9858  0.3349
  464MOL0     H62576   6.124   4.944   6.593  0.5034  0.8244  0.6723
  464MOL0     H62577   6.175   4.756   6.835  0.4905 -2.8323 -1.9281
  464MOL0     H62578   6.079   4.718   6.703 -1.3589  0.5254 -0.7896
  464MOL0     H62579   5.977   4.963   6.847  0.7000  0.1868 -0.9487
  464MOL0     H62580   5.989   4.835   6.959  1.4074 -0.9212 -0.6279
  464MOL0     H62581   5.820   4.804   6.713  0.4365 -2.9234 -0.3668
  464MOL0     H62582   5.860   4.686   6.835  1.1454 -0.0757 -0.0447
  464MOL0     H62583   5.742   4.827   7.006 -1.6852  2.1085  0.3077
  464MOL0     H62584   5.741   4.966   6.901  0.2988  0.1754 -5.0421
  464MOL0     H62585   5.602   4.837   6.748 -1.0957 -1.7338 -0.7692
  464MOL0     H62586   5.575   4.714   6.863 -0.5329  0.6686  1.2471
  464MOL0     H62587   5.388   4.848   6.907  1.3933 -1.9912  1.2342
  464MOL0     H62588   5.487   5.002   6.896  1.8490  1.3296  3.1777
  464MOL0     H62589   5.589   4.937   7.113  0.0834 -2.1274 -1.2742
  464MOL0     H62590   5.412   4.966   7.114  1.5101  1.0243 -0.7917
  464MOL0     H62591   5.664   4.690   7.209 -0.3778 -0.6472  3.0028
  464MOL0     H62592   5.473   4.489   7.461  0.6513 -1.8893  0.0213
  464MOL0     H62593   5.619   4.450   7.357  1.3172 -1.6656  4.4558
  464MOL0     H62594   5.758   4.584   7.469 -1.5791  0.2244 -1.5801
  464MOL0     H62595   5.637   4.708   7.517  2.8635  0.9964 -0.0220
  464MOL0     H62596   5.657   4.432   7.652  0.3666 -0.8148 -3.3262
  464MOL0     H62597   5.552   4.571   7.678  0.7613  2.6242  0.3263
  464MOL0     H62598   5.731   4.565   7.831  0.7581 -1.5706 -0.4548
  464MOL0     H62599   5.757   4.711   7.739 -0.4904 -0.2753  1.2350
  464MOL0     H62600   5.823   4.334   7.779  0.3488  1.3503 -0.0457
  464MOL0     H62601   5.972   4.176   7.897  0.1256  0.4949 -0.1627
  464MOL0     H62602   6.322   4.095   8.200 -0.4145 -0.2405 -0.2461
  464MOL0     H62603   6.499   3.963   8.326 -1.1062  0.1249 -0.4355
  464MOL0     H62604   6.950   3.981   8.230 -2.8655 -1.3797 -1.0793
  464MOL0     H62605   6.867   4.129   8.292 -0.5944  0.0717 -1.6893
  464MOL0     H62606   6.843   3.990   8.509  1.7452 -0.5097  1.1723
  464MOL0     H62607   6.953   3.869   8.432  1.8398  0.4253  1.9698
  464MOL0     H62608   7.041   4.165   8.457  1.0423  0.2561  5.8780
  464MOL0     H62609   7.049   4.061   8.585  1.9906  4.2321 -0.6225
  464MOL0     H62610   7.257   4.075   8.474  0.5390 -1.2914  0.4969
  464MOL0     H62611   7.194   3.985   8.334  0.6945 -1.9509  0.5941
  464MOL0     H62612   7.139   3.800   8.495 -0.1961  0.4800 -1.3234
  464MOL0     H62613   7.214   3.893   8.628  2.9525  0.1977  0.2106
  464MOL0     H62614   7.376   3.712   8.481  0.9366  0.3504 -0.5347
  464MOL0     H62615   7.379   3.842   8.375 -0.1569  3.0709  1.1560
  464MOL0     H62616   7.495   3.822   8.638  0.9556  3.3780  1.8894
  464MOL0     H62617   7.449   3.980   8.600 -0.5616 -1.0374  2.3985
  464MOL0     H62618   7.677   3.927   8.522 -1.4729  0.9408  1.4109
  464MOL0     H62619   7.606   3.819   8.409  1.9635  1.7290 -1.2245
  464MOL0     H62620   6.784   4.101   8.056 -0.3487  1.6905  1.2801
  464MOL0     H62621   6.619   4.225   7.915 -0.0775  0.4588 -0.2333
  464MOL0     H62622   6.292   4.459   7.853  0.6592 -0.7577  1.1735
  464MOL0     H62623   6.138   4.617   7.741  1.6335  1.1460  1.8888
  464MOL0     H62624   6.531   4.801   6.631  1.5474 -1.3388 -0.2056
  464MOL0     H62625   6.731   4.921   6.509 -0.0622 -0.9236 -0.2603
  464MOL0     H62626   6.914   5.252   6.340 -2.1208  2.6774 -1.1050
  464MOL0     H62627   7.117   5.286   6.241  2.2905 -2.3805 -0.0401
  464MOL0     H62628   7.307   5.197   6.161  2.3205 -1.2939 -0.4249
  464MOL0     H62629   7.312   5.304   6.024 -3.1745  0.3470  2.9815
  464MOL0     H62630   7.453   5.109   5.909 -2.7223  0.8700  0.2329
  464MOL0     H62631   7.465   5.031   6.067  2.2387  0.4137  1.1541
  464MOL0     H62632   7.652   5.154   6.070 -1.8024 -1.0632  0.7478
  464MOL0     H62633   7.554   5.264   6.155  1.2925 -0.1920 -0.4667
  464MOL0     H62634   7.527   5.342   5.880  2.5286 -0.0912 -3.6334
  464MOL0     H62635   7.609   5.430   6.013  1.3757  1.0373 -1.6828
  464MOL0     H62636   7.915   5.308   5.751  1.5424  2.4923  1.9658
  464MOL0     H62637   6.988   5.035   5.906 -5.4235 -0.2940 -0.9086
  464MOL0     H62638   6.797   4.936   5.895 -0.6283 -0.6469  0.3028
  464MOL0     H62639   6.690   4.928   6.032 -0.3207  0.1058  0.1021
  464MOL0     H62640   6.673   5.063   5.929 -1.0351 -1.4164 -1.6889
  465MOL0     O62641  10.852   9.135   1.624  0.4125 -0.3323  0.8184
  465MOL0     C62642  10.821   9.165   1.739 -0.1942 -0.1065 -0.2418
  465MOL0     O62643  10.914   9.193   1.842 -0.0382 -0.1219  0.3406
  465MOL0     C62644  11.047   9.171   1.846 -0.8307  0.7263  0.9460
  465MOL0     C62645  11.129   9.267   1.901  0.0434 -0.0957 -0.1443
  465MOL0     C62646  11.270   9.274   1.886  0.5774  0.1906  1.4265
  465MOL0     C62647  11.330   9.165   1.820  0.6128 -0.4429  0.2136
  465MOL0     O62648  11.468   9.155   1.801  0.8524 -0.1553  0.4827
  465MOL0     C62649  11.545   9.272   1.802 -0.0488  0.0574 -0.6298
  465MOL0     C62650  11.690   9.227   1.795  0.5157  0.0072 -0.9557
  465MOL0     C62651  11.775   9.341   1.800  0.1601 -0.9433 -0.3926
  465MOL0     C62652  11.903   9.316   1.890 -0.7569 -0.2875  0.0110
  465MOL0     C62653  12.003   9.432   1.872 -0.7884 -0.9368 -0.5191
  465MOL0     C62654  12.099   9.417   1.977 -0.4104  0.4499  0.4957
  465MOL0     C62655  12.217   9.507   1.957  0.0168  0.2851 -0.2317
  465MOL0     C62656  12.330   9.465   2.057  0.4246 -0.1400 -0.0757
  465MOL0     N62657  12.442   9.561   2.080  0.8056  0.0207  0.3102
  465MOL0     C62658  12.532   9.601   1.983  0.7358  0.4314 -1.1193
  465MOL0     C62659  12.607   9.689   2.049  0.5191 -0.5102  0.4153
  465MOL0     C62660  12.735   9.753   1.999  0.4145 -0.3062  0.0209
  465MOL0     C62661  12.860   9.666   2.036  0.0678 -0.8202  0.4557
  465MOL0     C62662  12.879   9.662   2.182  0.2255  0.5998 -0.5069
  465MOL0     C62663  13.013   9.585   2.211 -0.4045 -0.4849 -0.7940
  465MOL0     O62664  13.015   9.547   2.352  0.2763  1.2428 -0.2564
  465MOL0     C62665  13.132   9.500   2.407  0.1425  0.2280  0.7600
  465MOL0     C62666  13.148   9.499   2.545  0.2437  0.6174  0.2239
  465MOL0     C62667  13.254   9.437   2.611 -0.8430 -0.3127 -0.1878
  465MOL0     C62668  13.369   9.400   2.538 -0.5605 -0.2951  1.5296
  465MOL0     C62669  13.486   9.348   2.601 -0.3237  0.0245 -0.3802
  465MOL0     O62670  13.602   9.400   2.566 -0.2618 -0.4319  0.7528
  465MOL0     C62671  13.708   9.349   2.634 -0.5635 -0.6960 -0.4204
  465MOL0     C62672  13.743   9.420   2.746 -0.2700 -0.0982  0.1793
  465MOL0     C62673  13.855   9.380   2.826  0.1122 -0.5849 -0.0625
  465MOL0     C62674  13.936   9.278   2.783  0.0595  0.1061 -0.6865
  465MOL0     O62675  14.036   9.220   2.858  0.1803 -0.0972  0.0680
  465MOL0     C62676  14.069   9.260   2.993  0.1838 -0.8482 -0.1824
  465MOL0     C62677  14.214   9.234   3.031  0.2530 -0.2735 -0.8797
  465MOL0     C62678  14.300   9.199   2.911 -0.1361 -0.2835  0.9239
  465MOL0     C62679  14.449   9.183   2.938  0.1149  0.3670  0.2489
  465MOL0     C62680  14.545   9.178   2.816  0.2383  0.2805 -0.1085
  465MOL0     C62681  14.688   9.178   2.858  1.1145 -0.6555  0.4974
  465MOL0     C62682  14.782   9.222   2.745 -0.4620  0.4090 -0.6707
  465MOL0     C62683  14.928   9.177   2.760 -1.3650  0.9360  0.5987
  465MOL0    Cl62684  15.002   9.261   2.907  0.3983 -0.3207  0.1708
  465MOL0     C62685  13.917   9.216   2.668 -0.2147 -0.5529  0.0038
  465MOL0     C62686  13.809   9.256   2.591  0.4127 -0.9645 -0.4587
  465MOL0     O62687  13.476   9.279   2.708  0.3693 -0.1232 -0.0426
  465MOL0     C62688  13.352   9.386   2.394  1.3143  0.6403  0.9409
  465MOL0     C62689  13.237   9.439   2.332  0.6390  0.0401 -0.4883
  465MOL0     N62690  12.555   9.709   2.171  0.1551  0.4281 -0.2263
  465MOL0     N62691  12.451   9.644   2.187  0.3246  0.1037 -0.0476
  465MOL0     C62692  11.244   9.058   1.773 -1.2409 -0.2199  0.2383
  465MOL0     C62693  11.104   9.065   1.774 -1.0955  0.1354  0.0409
  465MOL0     C62694  10.684   9.188   1.769  1.0463  0.4023 -0.1903
  465MOL0     C62695  10.664   9.303   1.854  0.2847 -0.2875 -0.2105
  465MOL0     C62696  10.538   9.357   1.885  0.5489  0.6808  0.2595
  465MOL0     C62697  10.424   9.289   1.831  0.1348  0.0210  0.0682
  465MOL0     O62698  10.294   9.317   1.848  0.7088  0.3163 -0.1652
  465MOL0     C62699  10.242   9.447   1.881  0.0340 -0.5713 -0.3656
  465MOL0     C62700  10.089   9.445   1.861 -0.9784  0.8074 -0.2320
  465MOL0     C62701  10.036   9.584   1.855 -0.8918  0.1804  0.3791
  465MOL0     C62702   9.878   9.581   1.836 -0.2165 -1.1193  0.6036
  465MOL0     C62703   9.795   9.557   1.955  0.1020  0.0333 -0.3407
  465MOL0     C62704   9.723   9.551   2.048 -0.4428 -1.2197 -1.0916
  465MOL0     C62705  10.439   9.175   1.750 -0.2956 -0.6310 -0.6845
  465MOL0     C62706  10.563   9.118   1.730 -0.9752  0.1473  0.7885
  465MOL0     C62707  10.567   8.984   1.660 -0.6381  0.5930  0.2248
  465MOL0     H62708  11.073   9.348   1.947 -1.9258 -2.4266  1.9053
  465MOL0     H62709  11.327   9.361   1.919  3.8782 -1.0211 -0.6236
  465MOL0     H62710  11.522   9.357   1.736  2.7092  0.8147 -0.7574
  465MOL0     H62711  11.520   9.316   1.899 -0.2797  0.6463 -0.9452
  465MOL0     H62712  11.703   9.179   1.697  0.2409  0.1558 -1.0631
  465MOL0     H62713  11.719   9.148   1.865  1.9908  0.9748 -0.4205
  465MOL0     H62714  11.725   9.429   1.842  1.2582 -0.6979  0.4420
  465MOL0     H62715  11.789   9.366   1.695 -3.5255 -2.4594 -1.4274
  465MOL0     H62716  11.873   9.296   1.993 -1.8577 -1.9561 -0.5851
  465MOL0     H62717  11.940   9.217   1.864 -3.4886 -0.7627 -2.6837
  465MOL0     H62718  12.053   9.432   1.774 -0.3075 -0.7716 -0.2732
  465MOL0     H62719  11.953   9.529   1.883  1.4779  0.3508 -0.9688
  465MOL0     H62720  12.040   9.440   2.065 -0.9197  1.1413 -0.0171
  465MOL0     H62721  12.133   9.313   1.979 -0.9992 -0.1348 -4.8494
  465MOL0     H62722  12.185   9.609   1.983 -1.9992 -0.8379  2.0820
  465MOL0     H62723  12.266   9.488   1.861  0.2051  0.9730 -0.2788
  465MOL0     H62724  12.286   9.446   2.156 -0.5530 -0.2980 -0.5288
  465MOL0     H62725  12.370   9.370   2.020  1.0578 -0.1482  0.6128
  465MOL0     H62726  12.564   9.549   1.893 -0.8934  1.2379 -2.2133
  465MOL0     H62727  12.723   9.775   1.892 -1.8696  1.7315  0.6082
  465MOL0     H62728  12.739   9.841   2.063 -2.4574 -0.2855  0.3086
  465MOL0     H62729  12.862   9.567   1.988 -1.0919  0.6021 -2.7994
  465MOL0     H62730  12.942   9.720   1.988  0.7570 -2.4535 -0.2812
  465MOL0     H62731  12.796   9.608   2.229 -1.0861  2.9977  0.0887
  465MOL0     H62732  12.883   9.766   2.216 -2.6151 -0.1841  2.8243
  465MOL0     H62733  13.092   9.651   2.174  1.7454 -2.9358 -0.8771
  465MOL0     H62734  13.010   9.496   2.147  1.1259  0.3774 -2.1496
  465MOL0     H62735  13.064   9.544   2.595  0.0168 -0.0623  0.4656
  465MOL0     H62736  13.257   9.429   2.719  0.6832  1.5214 -0.0585
  465MOL0     H62737  13.666   9.488   2.780 -1.4633 -2.0922  1.7314
  465MOL0     H62738  13.863   9.416   2.928 -0.1101 -3.1252  0.9317
  465MOL0     H62739  14.049   9.367   3.004 -1.5346 -1.0157 -1.3721
  465MOL0     H62740  13.998   9.222   3.067  1.5857  1.5925  2.6678
  465MOL0     H62741  14.245   9.327   3.078  2.0298 -1.0305 -0.4781
  465MOL0     H62742  14.216   9.154   3.105  0.2368 -0.7497 -1.3844
  465MOL0     H62743  14.263   9.106   2.866 -0.0486  0.2992 -0.3755
  465MOL0     H62744  14.302   9.280   2.838  2.2005  1.0594  2.3815
  465MOL0     H62745  14.460   9.098   3.006  0.7655  2.2959  2.7472
  465MOL0     H62746  14.472   9.271   3.000 -1.9233  0.5723  0.7704
  465MOL0     H62747  14.532   9.270   2.758 -1.4037  0.5178  0.5773
  465MOL0     H62748  14.524   9.092   2.751 -2.0618 -0.1351  1.0963
  465MOL0     H62749  14.697   9.257   2.933 -0.6253  0.5596 -0.5046
  465MOL0     H62750  14.727   9.079   2.886  0.8234 -1.0778 -0.5429
  465MOL0     H62751  14.775   9.327   2.717 -0.4319  0.4420 -0.5562
  465MOL0     H62752  14.751   9.172   2.653  0.9110  0.9903 -1.4695
  465MOL0     H62753  14.933   9.069   2.777 -3.9867  0.2291 -2.2284
  465MOL0     H62754  14.972   9.201   2.662 -0.4750  1.8536  1.2034
  465MOL0     H62755  13.978   9.133   2.635  1.7478  0.7666  0.1447
  465MOL0     H62756  13.798   9.194   2.503  1.1329 -0.7748 -0.6861
  465MOL0     H62757  13.421   9.335   2.326  2.3584  1.2492  1.5117
  465MOL0     H62758  13.208   9.415   2.230 -2.0385 -1.9461  0.5813
  465MOL0     H62759  11.294   8.981   1.715  3.5596  3.2566 -0.8769
  465MOL0     H62760  11.037   8.989   1.734  0.8204 -1.2089 -0.7549
  465MOL0     H62761  10.751   9.363   1.882  0.3580 -0.6282  0.2872
  465MOL0     H62762  10.533   9.437   1.958  1.5500 -2.4418  4.1355
  465MOL0     H62763  10.287   9.507   1.801  1.5418 -1.8681 -0.5405
  465MOL0     H62764  10.270   9.468   1.985 -3.0675 -2.4342  0.9793
  465MOL0     H62765  10.052   9.391   1.949  1.9750 -1.1688 -0.0603
  465MOL0     H62766  10.058   9.404   1.765  0.9275  1.2578 -1.0777
  465MOL0     H62767  10.084   9.641   1.775 -1.4490 -1.2453 -1.0358
  465MOL0     H62768  10.071   9.639   1.942  3.0524  3.5823 -2.9351
  465MOL0     H62769   9.857   9.681   1.797  0.5751 -1.4815 -0.8284
  465MOL0     H62770   9.837   9.511   1.763 -2.3763 -1.5059  2.0982
  465MOL0     H62771   9.656   9.539   2.130 -1.1955  1.6195 -1.1900
  465MOL0     H62772  10.348   9.121   1.725 -1.9886  0.8562  1.7271
  465MOL0     H62773  10.651   8.979   1.590 -0.5182 -1.1061  0.4366
  465MOL0     H62774  10.587   8.906   1.735 -2.7204 -1.5523 -1.2694
  465MOL0     H62775  10.485   8.961   1.592 -0.5086  1.4394 -0.2274
  466MOL0     O62776   9.386   5.878   0.852 -0.3236 -0.7682 -0.5187
  466MOL0     C62777   9.402   5.880   0.735  0.6026 -0.1666  0.9501
  466MOL0     O62778   9.506   5.932   0.666  0.2802  0.2410 -0.4655
  466MOL0     C62779   9.623   5.976   0.735  1.2199 -1.2648  0.0165
  466MOL0     C62780   9.625   6.085   0.824  1.3344  0.6030 -1.0617
  466MOL0     C62781   9.733   6.125   0.898  0.1416  0.1376 -0.3340
  466MOL0     C62782   9.851   6.057   0.884 -0.1156 -0.4385 -0.5347
  466MOL0     O62783   9.967   6.099   0.944 -0.0769  0.2308  0.6806
  466MOL0     C62784  10.023   6.016   1.047  0.1295  0.4650  0.4255
  466MOL0     C62785  10.168   5.983   1.005  0.2716 -0.1706 -0.0754
  466MOL0     C62786  10.251   6.107   0.960 -0.1676  0.6182  0.5067
  466MOL0     C62787  10.392   6.070   0.933 -1.0952  0.2727 -1.1467
  466MOL0     C62788  10.472   6.196   0.903 -0.0787  0.1310 -0.3002
  466MOL0     C62789  10.615   6.171   0.856 -0.8052 -0.8061 -1.2539
  466MOL0     C62790  10.681   6.303   0.802 -0.0053 -0.0016 -0.8253
  466MOL0     C62791  10.755   6.385   0.912  0.4931  1.3206  0.6034
  466MOL0     N62792  10.863   6.463   0.856 -0.6222 -0.2214  0.3659
  466MOL0     C62793  10.851   6.560   0.761 -0.1347  0.0762 -0.4104
  466MOL0     C62794  10.975   6.618   0.758  1.2806  0.7890 -0.0237
  466MOL0     C62795  11.010   6.727   0.663  0.3616  0.3678  0.1515
  466MOL0     C62796  10.993   6.690   0.514  0.2323  0.2346 -1.3996
  466MOL0     C62797  11.110   6.625   0.446  1.3034 -0.4945  0.5464
  466MOL0     C62798  11.175   6.487   0.492  0.9871 -0.1314  0.1010
  466MOL0     O62799  11.193   6.405   0.382  0.3444  0.1147  0.3786
  466MOL0     C62800  11.218   6.269   0.385 -0.3948 -0.7265  0.2853
  466MOL0     C62801  11.233   6.192   0.503 -0.0735  0.4102 -0.1307
  466MOL0     C62802  11.276   6.056   0.503  0.7111  0.2747  0.6024
  466MOL0     C62803  11.287   5.991   0.376  0.4553 -0.5306  0.3960
  466MOL0     C62804  11.328   5.841   0.374  0.5989  0.2857  0.4565
  466MOL0     O62805  11.296   5.772   0.258  0.2358 -0.7071 -0.0781
  466MOL0     C62806  11.335   5.641   0.232 -0.3034 -0.3593 -0.8841
  466MOL0     C62807  11.453   5.575   0.272 -0.0858 -0.2080 -0.1147
  466MOL0     C62808  11.486   5.453   0.216  0.1234 -0.2674 -0.1681
  466MOL0     C62809  11.398   5.391   0.125  0.4772  0.4743 -0.6473
  466MOL0     O62810  11.440   5.267   0.085  0.1970  0.1669  0.3465
  466MOL0     C62811  11.477   5.164   0.177  0.2562 -0.0001 -0.5624
  466MOL0     C62812  11.417   5.026   0.126 -0.2255 -0.6085  0.2605
  466MOL0     C62813  11.489   4.972   0.006 -0.2822  0.3231 -0.4429
  466MOL0     C62814  11.413   4.869  -0.073  0.8532 -0.4549  0.4969
  466MOL0     C62815  11.454   4.727  -0.022  0.6659  0.2543 -0.0372
  466MOL0     C62816  11.355   4.637  -0.102 -0.2480 -0.0447 -0.5252
  466MOL0     C62817  11.389   4.611  -0.245 -0.6460  0.5483 -0.7466
  466MOL0     C62818  11.534   4.548  -0.256  0.6455 -0.3390  0.1298
  466MOL0    Cl62819  11.667   4.665  -0.309 -0.0473  0.6168  0.4497
  466MOL0     C62820  11.279   5.458   0.095 -0.7367  0.0645  0.3576
  466MOL0     C62821  11.254   5.581   0.141 -0.0109 -1.1195  0.0155
  466MOL0     O62822  11.376   5.792   0.469  0.6543  0.3178  0.3164
  466MOL0     C62823  11.260   6.072   0.264  0.2030  0.8991  0.5703
  466MOL0     C62824  11.243   6.212   0.271 -0.1954  0.8457  0.0762
  466MOL0     N62825  11.054   6.569   0.861 -0.6920  0.3285 -0.0025
  466MOL0     N62826  10.983   6.474   0.918  0.0487  0.3427 -0.1499
  466MOL0     C62827   9.851   5.949   0.796 -0.1081  0.4678 -0.5976
  466MOL0     C62828   9.740   5.909   0.722 -0.1005 -0.5891  0.0107
  466MOL0     C62829   9.283   5.838   0.652  0.1810  0.0266 -1.2099
  466MOL0     C62830   9.314   5.772   0.535 -0.3569  0.5150  0.2785
  466MOL0     C62831   9.207   5.733   0.452  0.5102  0.1933 -0.4559
  466MOL0     C62832   9.074   5.755   0.487  0.6715  0.7766  0.3598
  466MOL0     O62833   8.988   5.720   0.388 -0.6064 -0.6942  0.3096
  466MOL0     C62834   8.842   5.731   0.421 -0.8404  0.4901 -0.1332
  466MOL0     C62835   8.790   5.880   0.412  0.7614  0.5006  0.3803
  466MOL0     C62836   8.643   5.873   0.427  0.4766 -0.1449 -0.3755
  466MOL0     C62837   8.568   5.993   0.480 -1.0666  0.9249  0.2903
  466MOL0     C62838   8.622   6.035   0.608 -1.0846  0.5951 -0.4820
  466MOL0     C62839   8.682   6.070   0.709 -0.6833 -0.7847  1.3168
  466MOL0     C62840   9.045   5.824   0.607 -0.1544  0.1289 -0.1525
  466MOL0     C62841   9.146   5.858   0.692 -0.5681  0.3743  0.9220
  466MOL0     C62842   9.095   5.937   0.814 -1.2900  0.7159 -0.0006
  466MOL0     H62843   9.531   6.135   0.841  0.4689 -1.0615 -0.7653
  466MOL0     H62844   9.718   6.214   0.957 -2.0276  0.8482 -1.8317
  466MOL0     H62845  10.023   6.058   1.148 -1.9145 -1.3155  1.2674
  466MOL0     H62846   9.976   5.918   1.061  4.7676 -2.3186 -1.2200
  466MOL0     H62847  10.167   5.906   0.927 -1.9686 -1.8138  1.4696
  466MOL0     H62848  10.218   5.934   1.088 -0.4236  1.4014  1.3340
  466MOL0     H62849  10.256   6.179   1.042  1.6531  1.0618  0.0637
  466MOL0     H62850  10.206   6.129   0.862 -0.3355 -0.8007  0.2401
  466MOL0     H62851  10.441   6.031   1.022 -3.4865 -1.1780 -0.3683
  466MOL0     H62852  10.394   5.996   0.852 -0.4035  0.1416 -1.0118
  466MOL0     H62853  10.412   6.243   0.824 -0.3706  1.9288  0.9273
  466MOL0     H62854  10.478   6.264   0.988  0.2082  0.2306 -0.3979
  466MOL0     H62855  10.674   6.122   0.934  0.5556 -0.2226 -1.8862
  466MOL0     H62856  10.612   6.103   0.770 -1.0293 -0.6860 -1.3415
  466MOL0     H62857  10.604   6.364   0.754 -0.2131  0.1253 -0.3406
  466MOL0     H62858  10.742   6.294   0.712  1.1844  2.9917 -0.4231
  466MOL0     H62859  10.682   6.443   0.969  0.6270  2.4020 -0.2915
  466MOL0     H62860  10.795   6.314   0.984 -2.0658  0.7980  1.6378
  466MOL0     H62861  10.765   6.586   0.702  0.7407  1.4784 -1.1179
  466MOL0     H62862  10.949   6.814   0.686 -2.5249 -1.1556 -1.2320
  466MOL0     H62863  11.115   6.755   0.678  0.8770 -2.0424  1.7061
  466MOL0     H62864  10.898   6.643   0.488  0.5649 -0.1484 -1.9366
  466MOL0     H62865  10.984   6.784   0.460  4.6683  1.6289 -0.1386
  466MOL0     H62866  11.191   6.698   0.440 -1.1050  2.2196 -2.0016
  466MOL0     H62867  11.084   6.617   0.340 -0.7098 -1.6760  1.0828
  466MOL0     H62868  11.108   6.435   0.562  0.9028 -1.1223 -0.6853
  466MOL0     H62869  11.266   6.505   0.549 -0.4039 -0.5228  2.5750
  466MOL0     H62870  11.213   6.250   0.593 -1.3643 -0.4528  0.1613
  466MOL0     H62871  11.295   6.007   0.597  2.1819 -1.6320 -0.6052
  466MOL0     H62872  11.506   5.638   0.342 -2.1102  1.4030  0.0871
  466MOL0     H62873  11.579   5.407   0.247  0.6296  1.8831  1.7627
  466MOL0     H62874  11.585   5.165   0.191  0.6364  1.8831 -2.9416
  466MOL0     H62875  11.423   5.189   0.269 -0.9761  0.8627 -1.4850
  466MOL0     H62876  11.420   4.948   0.203  1.1702  0.8788  1.7888
  466MOL0     H62877  11.314   5.055   0.106 -0.7265 -0.7600  2.3897
  466MOL0     H62878  11.523   5.048  -0.065  0.0542 -0.0017 -0.6331
  466MOL0     H62879  11.584   4.924   0.032  0.0259 -0.7217 -3.1398
  466MOL0     H62880  11.429   4.885  -0.180 -2.3774 -4.1060 -0.7520
  466MOL0     H62881  11.307   4.892  -0.062  0.9219  1.3519 -1.7955
  466MOL0     H62882  11.453   4.719   0.087 -2.0774  2.6916  0.2126
  466MOL0     H62883  11.556   4.707  -0.058 -0.8649 -2.5705 -3.2989
  466MOL0     H62884  11.348   4.538  -0.054 -2.9309 -0.5933 -1.8494
  466MOL0     H62885  11.256   4.685  -0.102 -1.1490 -1.7497  0.9309
  466MOL0     H62886  11.380   4.701  -0.306  0.5849  1.2420  0.0494
  466MOL0     H62887  11.318   4.533  -0.274  1.8029 -1.8084 -0.8420
  466MOL0     H62888  11.546   4.486  -0.166 -3.3622 -1.4890  0.1103
  466MOL0     H62889  11.530   4.490  -0.349  1.7831 -0.3983  0.1094
  466MOL0     H62890  11.205   5.414   0.029  0.3705 -0.3885 -0.6322
  466MOL0     H62891  11.172   5.635   0.094 -0.6061 -2.6705 -0.7846
  466MOL0     H62892  11.266   6.032   0.163 -1.1327  2.0434  0.0169
  466MOL0     H62893  11.230   6.269   0.179  0.1557 -0.2747 -0.6902
  466MOL0     H62894   9.945   5.895   0.784  0.6455  1.7391 -0.6570
  466MOL0     H62895   9.751   5.818   0.664  0.6744 -0.1078 -0.6208
  466MOL0     H62896   9.417   5.756   0.506 -0.9415 -1.5354 -0.8253
  466MOL0     H62897   9.212   5.680   0.358 -0.6382  0.5930 -0.7589
  466MOL0     H62898   8.823   5.702   0.525  1.7365 -3.3429 -0.5242
  466MOL0     H62899   8.788   5.667   0.351 -1.1450 -0.4250  0.9195
  466MOL0     H62900   8.812   5.916   0.311 -1.6148 -2.1647 -1.2347
  466MOL0     H62901   8.830   5.952   0.484  3.7852 -0.2551 -0.3931
  466MOL0     H62902   8.619   5.800   0.505  0.0384  1.6635  1.2784
  466MOL0     H62903   8.601   5.837   0.333  0.3362 -1.3686  0.1439
  466MOL0     H62904   8.571   6.071   0.403 -1.5071  0.6747  0.0181
  466MOL0     H62905   8.463   5.963   0.490 -0.8411  0.1302  0.3258
  466MOL0     H62906   8.719   6.121   0.796  2.9768  3.9541 -2.4618
  466MOL0     H62907   8.943   5.851   0.630 -1.0906 -1.9068 -1.6564
  466MOL0     H62908   8.997   5.985   0.803 -1.3092  1.1786  1.8606
  466MOL0     H62909   9.083   5.858   0.889 -2.4084  0.3107 -0.5771
  466MOL0     H62910   9.171   6.009   0.844  0.0900 -1.4753  2.1434
  467MOL0     O62911   8.925  11.232   3.508 -0.1822 -0.4423 -0.4468
  467MOL0     C62912   9.035  11.242   3.456  0.5171  0.1124  0.3373
  467MOL0     O62913   9.127  11.142   3.458  0.1098 -0.5771 -0.4206
  467MOL0     C62914   9.094  11.011   3.468  0.4850  0.6677 -0.0750
  467MOL0     C62915   9.200  10.922   3.490 -0.9580  0.2890 -0.4861
  467MOL0     C62916   9.182  10.783   3.487  0.0000  0.4842 -0.4215
  467MOL0     C62917   9.050  10.731   3.474  0.3003  0.1182  0.2797
  467MOL0     O62918   9.030  10.591   3.474  0.2248 -0.6055  0.8340
  467MOL0     C62919   8.892  10.545   3.496 -0.0269  0.4305 -0.8358
  467MOL0     C62920   8.923  10.388   3.522  0.1870 -0.5638  1.2393
  467MOL0     C62921   8.808  10.293   3.524 -0.8321 -0.0735  0.6707
  467MOL0     C62922   8.714  10.294   3.652 -0.5150  0.9387  0.5473
  467MOL0     C62923   8.639  10.166   3.647  0.1902 -0.0458 -0.0043
  467MOL0     C62924   8.533  10.162   3.529 -0.1425 -0.3384 -0.9996
  467MOL0     C62925   8.468  10.027   3.502  0.0594 -1.2161 -0.2541
  467MOL0     C62926   8.563   9.903   3.494  0.2890 -0.0541 -0.4302
  467MOL0     N62927   8.654   9.909   3.375  0.3738  0.8221  0.5217
  467MOL0     C62928   8.785   9.947   3.368 -0.1369 -0.1548  0.5546
  467MOL0     C62929   8.816   9.957   3.231 -0.4320  0.8317  0.1125
  467MOL0     C62930   8.955  10.001   3.168  1.0016  0.2834 -0.5716
  467MOL0     C62931   8.947  10.151   3.153  0.0461 -0.8011 -0.0591
  467MOL0     C62932   9.089  10.205   3.105  0.6567  0.8698 -0.2897
  467MOL0     C62933   9.120  10.352   3.143 -0.2426  0.9912 -0.0098
  467MOL0     O62934   9.031  10.426   3.058 -0.1447  0.7391 -0.3149
  467MOL0     C62935   9.042  10.565   3.067 -0.5089  0.3672 -0.6224
  467MOL0     C62936   8.959  10.635   2.982 -0.4233 -0.1038  1.0602
  467MOL0     C62937   8.967  10.772   2.964  0.1085 -0.2998  0.0698
  467MOL0     C62938   9.058  10.847   3.047 -0.2049 -1.1530  0.5052
  467MOL0     C62939   9.065  11.002   3.036 -0.6825 -0.1039  0.4256
  467MOL0     O62940   9.033  11.051   2.919 -0.4004 -0.5136  0.2341
  467MOL0     C62941   9.013  11.193   2.910 -0.0963  0.5577  0.2967
  467MOL0     C62942   9.103  11.290   2.949 -0.4750  0.1987 -1.0229
  467MOL0     C62943   9.073  11.421   2.922 -0.3252  0.0482 -0.5477
  467MOL0     C62944   8.943  11.455   2.877 -0.1621 -0.4304 -0.3151
  467MOL0     O62945   8.920  11.589   2.873 -0.1773 -0.2366  0.0000
  467MOL0     C62946   8.825  11.631   2.775 -0.9431  0.5190 -0.8940
  467MOL0     C62947   8.824  11.786   2.779 -0.1177  0.2257 -0.1888
  467MOL0     C62948   8.949  11.851   2.714  0.2948  0.6071 -0.6319
  467MOL0     C62949   9.072  11.864   2.808  0.0641 -0.2300  0.9165
  467MOL0     C62950   9.199  11.909   2.732  0.0170 -0.4129  0.2589
  467MOL0     C62951   9.188  12.054   2.679  0.3220 -0.3812 -0.1923
  467MOL0     C62952   9.313  12.098   2.598 -0.2610 -0.8297  0.0476
  467MOL0     C62953   9.310  12.231   2.519  0.8394 -0.2368  0.2892
  467MOL0    Cl62954   9.478  12.284   2.514 -0.0143  0.2248 -0.4740
  467MOL0     C62955   8.859  11.357   2.831 -0.9230 -0.3791 -0.0377
  467MOL0     C62956   8.895  11.226   2.847  0.0109 -0.1070 -0.4655
  467MOL0     O62957   9.112  11.066   3.130 -0.1598  1.3839  0.4582
  467MOL0     C62958   9.138  10.777   3.135 -0.3450  0.3228 -0.5091
  467MOL0     C62959   9.123  10.635   3.163 -0.2686 -1.1913 -0.6135
  467MOL0     N62960   8.697   9.928   3.165 -0.9553 -0.2018  0.3524
  467MOL0     N62961   8.605   9.906   3.250 -0.4568  0.2642 -0.0381
  467MOL0     C62962   8.939  10.816   3.460  0.4953  0.6011  0.8221
  467MOL0     C62963   8.962  10.954   3.451 -0.0418 -0.1282  0.2136
  467MOL0     C62964   9.083  11.363   3.381  0.0838 -1.0194 -0.6549
  467MOL0     C62965   9.215  11.386   3.351 -0.4827 -0.6120 -0.6957
  467MOL0     C62966   9.274  11.491   3.283  0.3123  1.0579  0.5586
  467MOL0     C62967   9.189  11.591   3.237 -0.2224  0.6535  0.3254
  467MOL0     O62968   9.238  11.699   3.166 -0.6298  0.2073  0.2843
  467MOL0     C62969   9.168  11.824   3.151  1.2966 -0.1931 -0.1464
  467MOL0     C62970   9.136  11.919   3.271 -1.0940 -0.2988 -0.2344
  467MOL0     C62971   9.271  11.975   3.335  0.1001  0.4932 -0.0285
  467MOL0     C62972   9.255  12.082   3.443 -0.2772  0.3964 -0.2376
  467MOL0     C62973   9.157  12.046   3.542 -0.3887  0.0844 -0.4972
  467MOL0     C62974   9.090  12.035   3.641 -0.4816 -0.8870  0.1383
  467MOL0     C62975   9.049  11.570   3.245  0.0681  1.3020  1.0506
  467MOL0     C62976   8.995  11.461   3.323  0.0950 -0.2371 -0.0074
  467MOL0     C62977   8.841  11.432   3.322 -0.5506  0.6106 -0.7722
  467MOL0     H62978   9.302  10.956   3.503 -0.2638 -2.6013  3.1908
  467MOL0     H62979   9.274  10.728   3.502  0.5398  1.0670 -1.4669
  467MOL0     H62980   8.838  10.599   3.574  1.5532  0.1650  0.4790
  467MOL0     H62981   8.833  10.547   3.404 -2.4194 -0.6876  0.5465
  467MOL0     H62982   8.983  10.379   3.613  0.7678 -2.1809  0.7248
  467MOL0     H62983   8.985  10.351   3.440  0.8625 -0.9511  1.9096
  467MOL0     H62984   8.852  10.194   3.510 -0.9953 -0.1260  0.5316
  467MOL0     H62985   8.753  10.318   3.434  1.1954  0.7698 -0.3945
  467MOL0     H62986   8.771  10.282   3.745  0.3133  0.6971  0.0148
  467MOL0     H62987   8.655  10.386   3.659 -0.4532  1.1573 -1.4390
  467MOL0     H62988   8.717  10.091   3.631 -0.6896 -1.0543  0.3008
  467MOL0     H62989   8.594  10.139   3.743 -2.2101 -0.6604 -1.2260
  467MOL0     H62990   8.459  10.239   3.551  0.5871  0.6672 -1.9612
  467MOL0     H62991   8.590  10.181   3.438  4.0356  0.5236  1.5305
  467MOL0     H62992   8.402  10.020   3.415 -0.8591 -2.8323  0.5185
  467MOL0     H62993   8.395  10.020   3.584 -2.8508 -1.6847 -2.6995
  467MOL0     H62994   8.613   9.887   3.590 -0.1818  2.1194  0.2132
  467MOL0     H62995   8.496   9.819   3.471 -1.6431  1.0533  0.8922
  467MOL0     H62996   8.844   9.985   3.451 -1.1885  1.2384  0.6849
  467MOL0     H62997   9.036   9.966   3.233  0.6881  1.4138  0.4588
  467MOL0     H62998   8.971   9.962   3.067 -0.8899  0.8505 -1.1335
  467MOL0     H62999   8.865  10.168   3.083 -2.2460 -0.7244  2.4671
  467MOL0     H63000   8.904  10.196   3.243 -0.3642  1.4911 -1.3419
  467MOL0     H63001   9.105  10.195   2.998 -0.0371  1.9854 -0.5145
  467MOL0     H63002   9.166  10.146   3.156 -1.5922  0.0422  2.4219
  467MOL0     H63003   9.226  10.363   3.120 -0.5610 -0.2591 -2.4292
  467MOL0     H63004   9.097  10.358   3.250 -0.5979  3.0312 -0.1600
  467MOL0     H63005   8.889  10.571   2.929 -0.7740 -2.6636  4.3183
  467MOL0     H63006   8.923  10.818   2.876 -0.9427  1.2396  1.3330
  467MOL0     H63007   9.202  11.259   2.982 -1.2226 -1.6996 -0.4691
  467MOL0     H63008   9.147  11.493   2.955  0.3138 -0.0604 -1.7094
  467MOL0     H63009   8.859  11.600   2.675  1.8167  0.8751 -0.1520
  467MOL0     H63010   8.722  11.603   2.800 -0.6178  1.1741  1.3221
  467MOL0     H63011   8.742  11.811   2.711  1.4117 -3.2478 -3.7468
  467MOL0     H63012   8.802  11.832   2.875 -1.4388  0.3899 -0.5490
  467MOL0     H63013   8.968  11.787   2.627 -0.9022 -1.3633  0.4888
  467MOL0     H63014   8.927  11.951   2.675  0.0526  0.4329 -0.9510
  467MOL0     H63015   9.087  11.764   2.849  0.4731 -1.1037 -1.2161
  467MOL0     H63016   9.044  11.926   2.893  0.9378  0.1526  0.9422
  467MOL0     H63017   9.209  11.847   2.643 -2.4055 -2.1344  1.0600
  467MOL0     H63018   9.278  11.884   2.803 -0.1919  2.6968  1.7755
  467MOL0     H63019   9.103  12.078   2.614  1.3125  1.7470 -0.8075
  467MOL0     H63020   9.186  12.128   2.759 -1.1996  0.7290 -1.1882
  467MOL0     H63021   9.348  12.020   2.530  0.2020  1.2931 -2.2742
  467MOL0     H63022   9.386  12.126   2.676 -2.2968 -0.0339  1.7639
  467MOL0     H63023   9.276  12.220   2.415 -0.0550  1.0734  0.4258
  467MOL0     H63024   9.241  12.302   2.565  2.3923  2.0475 -0.7483
  467MOL0     H63025   8.766  11.386   2.783 -0.6183  1.4618  0.4155
  467MOL0     H63026   8.840  11.145   2.799 -1.3112 -0.8083  2.0485
  467MOL0     H63027   9.202  10.843   3.194  0.1360  0.7305 -1.4573
  467MOL0     H63028   9.186  10.598   3.244  0.4763  2.0946  0.4372
  467MOL0     H63029   8.837  10.789   3.431  0.6402 -2.0205  2.4333
  467MOL0     H63030   8.872  11.011   3.430  0.5277  1.3916  1.6809
  467MOL0     H63031   9.284  11.318   3.402 -0.5035  0.6116  1.0763
  467MOL0     H63032   9.379  11.496   3.258  0.5483  1.2651  1.5525
  467MOL0     H63033   9.070  11.805   3.106  1.9132 -0.6804 -1.3197
  467MOL0     H63034   9.221  11.887   3.079  0.0781  1.5726  0.4310
  467MOL0     H63035   9.087  11.863   3.351  0.0570 -0.9170  0.0512
  467MOL0     H63036   9.076  12.003   3.234  0.0720 -0.8278 -3.7192
  467MOL0     H63037   9.344  12.015   3.264  0.5224  1.5123  0.9468
  467MOL0     H63038   9.323  11.897   3.392 -1.3875  2.0580  3.8673
  467MOL0     H63039   9.353  12.074   3.490 -1.3630 -1.0163  1.9535
  467MOL0     H63040   9.236  12.176   3.391  2.8429 -0.1799 -2.7492
  467MOL0     H63041   9.016  12.024   3.718  0.7357 -1.2814  1.2870
  467MOL0     H63042   8.978  11.643   3.209 -2.5794 -0.3741  2.4965
  467MOL0     H63043   8.823  11.327   3.299 -1.8241  1.2392 -2.9746
  467MOL0     H63044   8.800  11.445   3.423  2.7053  1.5744  0.5458
  467MOL0     H63045   8.788  11.492   3.247 -1.3058  0.7653 -0.1329
  468MOL0     O63046   3.299   3.370   5.323 -0.1776 -0.1133 -0.2536
  468MOL0     C63047   3.257   3.483   5.355 -0.5910 -0.2321  0.2275
  468MOL0     O63048   3.347   3.589   5.390  0.2393 -0.6521 -0.5963
  468MOL0     C63049   3.479   3.553   5.397 -0.3116 -0.5242  1.4478
  468MOL0     C63050   3.534   3.532   5.520 -0.5921  0.2839 -0.2664
  468MOL0     C63051   3.668   3.502   5.519 -0.9175 -0.2179 -0.7351
  468MOL0     C63052   3.758   3.490   5.408 -0.5642  0.5821  0.9872
  468MOL0     O63053   3.889   3.458   5.389  0.7487 -0.5106  0.0721
  468MOL0     C63054   3.961   3.466   5.510  0.1142  0.3822 -0.2226
  468MOL0     C63055   4.107   3.452   5.477 -0.7909 -0.0230  0.2819
  468MOL0     C63056   4.150   3.319   5.405  0.2429  0.5343 -0.3466
  468MOL0     C63057   4.064   3.191   5.444 -0.4373  0.0267 -0.0875
  468MOL0     C63058   4.088   3.071   5.363 -0.1064 -0.7388  0.0919
  468MOL0     C63059   4.004   2.945   5.413 -0.3655 -0.1240  0.6347
  468MOL0     C63060   4.048   2.825   5.326 -0.1104 -0.3974  0.2726
  468MOL0     C63061   4.032   2.691   5.398  0.1331  0.0139 -0.3650
  468MOL0     N63062   3.896   2.670   5.449  0.3306  0.3163 -0.5661
  468MOL0     C63063   3.788   2.683   5.367  0.3973 -0.3790 -0.7439
  468MOL0     C63064   3.678   2.679   5.438  0.0227 -0.6210 -0.8563
  468MOL0     C63065   3.540   2.669   5.369  0.0270 -0.2461 -0.0880
  468MOL0     C63066   3.441   2.599   5.461 -0.0411  0.2645 -0.4017
  468MOL0     C63067   3.297   2.613   5.395 -0.2474  0.6413 -0.4760
  468MOL0     C63068   3.196   2.504   5.414  1.5440  0.0574 -0.2718
  468MOL0     O63069   3.064   2.553   5.367  0.3396 -0.1812  0.7202
  468MOL0     C63070   2.967   2.462   5.346  0.3139 -0.1252 -0.3886
  468MOL0     C63071   2.843   2.514   5.333 -0.1658  1.1416  0.4066
  468MOL0     C63072   2.735   2.435   5.289 -0.4067 -0.6530 -0.8033
  468MOL0     C63073   2.748   2.296   5.288  1.0930 -0.0381 -0.7357
  468MOL0     C63074   2.643   2.211   5.249 -0.1117 -0.9558 -0.6060
  468MOL0     O63075   2.551   2.256   5.152  0.3467 -0.0040 -0.8944
  468MOL0     C63076   2.444   2.172   5.131 -0.0353  0.3218  0.5338
  468MOL0     C63077   2.433   2.109   5.009 -0.7383 -0.1746 -1.0916
  468MOL0     C63078   2.330   2.021   4.977  0.3752  0.6121 -0.0286
  468MOL0     C63079   2.223   2.000   5.064 -0.9807  0.5460  0.1289
  468MOL0     O63080   2.117   1.926   5.010  0.4968  0.6040 -0.0486
  468MOL0     C63081   1.999   1.901   5.098 -0.4338  0.2490  0.1191
  468MOL0     C63082   1.880   1.866   5.012  0.1593 -0.0913  0.2502
  468MOL0     C63083   1.838   1.997   4.925 -0.1041  0.0993 -0.0796
  468MOL0     C63084   1.734   1.953   4.824 -0.3099  0.6130  0.0176
  468MOL0     C63085   1.684   2.071   4.744 -0.5387  0.2186 -0.3938
  468MOL0     C63086   1.599   2.029   4.626  0.1599  0.2116  0.1628
  468MOL0     C63087   1.659   1.930   4.528 -0.6291  0.4666  0.8213
  468MOL0     C63088   1.807   1.955   4.488 -0.1593 -0.0540  0.0491
  468MOL0    Cl63089   1.838   2.109   4.392 -0.5065  0.1518  0.1396
  468MOL0     C63090   2.234   2.053   5.194 -0.1677  0.6097 -0.1416
  468MOL0     C63091   2.342   2.133   5.229  0.3373 -0.4281  0.7664
  468MOL0     O63092   2.632   2.109   5.321  0.3372 -0.2413  0.3253
  468MOL0     C63093   2.875   2.240   5.308  0.9710 -0.2025 -0.4338
  468MOL0     C63094   2.980   2.322   5.345  0.0702  0.6292  0.0669
  468MOL0     N63095   3.709   2.677   5.572  0.2008  1.1457  0.3436
  468MOL0     N63096   3.837   2.673   5.575  0.4653 -0.6747 -0.1086
  468MOL0     C63097   3.698   3.496   5.277 -0.1334  0.6589 -0.5917
  468MOL0     C63098   3.563   3.541   5.271 -0.2734  0.4103 -0.2092
  468MOL0     C63099   3.111   3.516   5.363  0.5932 -0.1849 -0.0630
  468MOL0     C63100   3.081   3.641   5.425 -0.1168 -0.0155 -0.5890
  468MOL0     C63101   2.955   3.684   5.439  0.6460 -0.0990 -0.2683
  468MOL0     C63102   2.844   3.603   5.394 -0.7958 -0.9661  1.2846
  468MOL0     O63103   2.720   3.640   5.429  0.3599  1.2802  0.4664
  468MOL0     C63104   2.654   3.538   5.503 -0.1121 -0.1608  0.5442
  468MOL0     C63105   2.538   3.477   5.421  0.0855 -0.1151  0.4093
  468MOL0     C63106   2.523   3.325   5.438  1.0336  0.5524 -0.7181
  468MOL0     C63107   2.400   3.275   5.360  0.0536 -0.0983 -0.5901
  468MOL0     C63108   2.309   3.221   5.461 -0.2444 -0.1583  0.0680
  468MOL0     C63109   2.247   3.146   5.531 -0.2153 -0.2672 -0.1677
  468MOL0     C63110   2.874   3.486   5.326  0.2758 -0.4271  0.2363
  468MOL0     C63111   3.000   3.441   5.307  0.0575 -0.5820  0.0578
  468MOL0     C63112   3.019   3.315   5.227  0.3324 -0.4629 -0.8707
  468MOL0     H63113   3.462   3.519   5.600 -0.4189  0.7815 -0.0236
  468MOL0     H63114   3.717   3.485   5.615 -0.5982  2.2862 -0.3868
  468MOL0     H63115   3.953   3.570   5.545  3.7427  1.3372 -1.8285
  468MOL0     H63116   3.935   3.390   5.585 -0.8965  3.8366  3.3148
  468MOL0     H63117   4.157   3.466   5.574 -2.4249  1.3808  0.9674
  468MOL0     H63118   4.145   3.541   5.425 -2.4303  0.1549 -0.6531
  468MOL0     H63119   4.250   3.303   5.447 -0.7752  1.1397  2.5343
  468MOL0     H63120   4.139   3.327   5.296 -0.9891  2.6332 -0.1215
  468MOL0     H63121   4.097   3.175   5.547 -1.5829 -0.2400  0.2563
  468MOL0     H63122   3.955   3.203   5.437 -0.4842  0.8140  1.5387
  468MOL0     H63123   4.065   3.099   5.259 -0.3096  2.6321  0.9333
  468MOL0     H63124   4.193   3.040   5.360  0.7162  1.6701  1.1707
  468MOL0     H63125   4.025   2.929   5.520  0.0354  1.4046  0.8070
  468MOL0     H63126   3.895   2.952   5.407 -0.6542 -2.3919  1.8851
  468MOL0     H63127   4.156   2.828   5.311 -0.3391 -1.0894 -2.0023
  468MOL0     H63128   4.009   2.831   5.224  0.2288 -2.0573  0.0149
  468MOL0     H63129   4.048   2.611   5.324  2.9237 -0.1729  0.3061
  468MOL0     H63130   4.112   2.680   5.472  1.9542 -0.2804 -2.2834
  468MOL0     H63131   3.780   2.686   5.259  0.1435 -1.4170 -0.7630
  468MOL0     H63132   3.504   2.769   5.344  2.7850  0.5317 -1.2961
  468MOL0     H63133   3.558   2.621   5.272  0.2201 -0.6303  0.1355
  468MOL0     H63134   3.465   2.493   5.472  0.2896  0.2972 -0.7477
  468MOL0     H63135   3.440   2.650   5.558 -2.2585  1.9429 -1.2251
  468MOL0     H63136   3.305   2.611   5.286  2.4225 -3.3332 -0.4079
  468MOL0     H63137   3.250   2.705   5.430  1.0713  0.4688  1.9653
  468MOL0     H63138   3.182   2.481   5.520 -3.3717  4.0130  0.3525
  468MOL0     H63139   3.233   2.419   5.357  0.8417  0.7138 -1.7432
  468MOL0     H63140   2.841   2.622   5.332 -2.4003  1.1595  1.3530
  468MOL0     H63141   2.643   2.487   5.265 -0.2652 -0.6980 -1.4578
  468MOL0     H63142   2.513   2.137   4.942 -2.1944  2.2323 -1.9042
  468MOL0     H63143   2.319   1.980   4.877  0.8482  0.5829 -0.0678
  468MOL0     H63144   2.018   1.805   5.146  1.4990  0.0608 -0.9088
  468MOL0     H63145   1.992   1.983   5.170 -0.1630  0.5819 -0.2312
  468MOL0     H63146   1.900   1.779   4.949 -1.0292  0.2796 -0.6886
  468MOL0     H63147   1.796   1.843   5.079 -1.2791  1.0822 -1.0504
  468MOL0     H63148   1.800   2.070   4.997 -1.8095  0.0762 -0.9054
  468MOL0     H63149   1.928   2.040   4.880  0.6220 -0.2196  1.0341
  468MOL0     H63150   1.657   1.897   4.878 -1.2861 -0.8995 -2.7526
  468MOL0     H63151   1.797   1.894   4.757  0.9626  2.8520 -0.8606
  468MOL0     H63152   1.777   2.111   4.704  0.3373  0.3010  1.6289
  468MOL0     H63153   1.636   2.142   4.811  0.3341  2.0675 -1.6657
  468MOL0     H63154   1.513   1.970   4.658 -2.4486  3.6756  0.0286
  468MOL0     H63155   1.561   2.119   4.576  3.0727  1.2627 -0.3700
  468MOL0     H63156   1.606   1.927   4.433  3.9388  0.5808 -2.0714
  468MOL0     H63157   1.655   1.830   4.572  2.8227  0.0525  0.5005
  468MOL0     H63158   1.859   1.960   4.584  1.0420 -5.1578 -0.0432
  468MOL0     H63159   1.856   1.870   4.441 -1.1948 -0.0719 -1.0504
  468MOL0     H63160   2.177   2.015   5.278  1.6747  1.2978  1.4943
  468MOL0     H63161   2.351   2.155   5.335  0.7443 -0.8366  0.8182
  468MOL0     H63162   2.886   2.133   5.295  3.1132 -0.0873 -0.0055
  468MOL0     H63163   3.064   2.257   5.365  1.0213  0.8477 -2.7849
  468MOL0     H63164   3.747   3.487   5.181 -0.2418 -2.1645 -0.4594
  468MOL0     H63165   3.510   3.563   5.179  1.8753  0.7236 -1.4444
  468MOL0     H63166   3.150   3.712   5.468 -0.8591  1.8894 -2.4043
  468MOL0     H63167   2.937   3.780   5.486  3.3112  0.0798  0.5375
  468MOL0     H63168   2.602   3.581   5.589 -4.7557 -2.8306 -0.6031
  468MOL0     H63169   2.723   3.464   5.546 -0.5355  0.5563  2.5746
  468MOL0     H63170   2.560   3.489   5.314 -0.9634 -0.5689  0.1294
  468MOL0     H63171   2.444   3.530   5.442 -0.1592  0.7651 -2.4154
  468MOL0     H63172   2.517   3.300   5.544  1.7329  2.1782 -0.2633
  468MOL0     H63173   2.615   3.288   5.390  1.2943  2.5391 -1.8358
  468MOL0     H63174   2.368   3.366   5.307 -1.4302  1.5202  2.8185
  468MOL0     H63175   2.437   3.202   5.287  4.2250  0.8395  0.3421
  468MOL0     H63176   2.186   3.087   5.595  0.6034 -1.3573 -0.3651
  468MOL0     H63177   2.791   3.423   5.298 -1.6733  1.4934  1.3571
  468MOL0     H63178   2.985   3.227   5.283  0.6117  1.4846  2.6667
  468MOL0     H63179   2.958   3.334   5.138  1.8928  0.2685 -1.8295
  468MOL0     H63180   3.114   3.295   5.176 -0.9431  0.1980 -3.7112
  469MOL0     O63181   0.541   9.455   9.649 -0.0257 -0.6077 -0.9414
  469MOL0     C63182   0.555   9.522   9.545 -0.7666  0.3070  1.0211
  469MOL0     O63183   0.601   9.475   9.427  0.5560 -0.7424  0.1643
  469MOL0     C63184   0.671   9.363   9.426  0.4400  1.2315  0.1580
  469MOL0     C63185   0.814   9.356   9.437 -0.4262  0.5495  0.5024
  469MOL0     C63186   0.886   9.246   9.410  0.2182 -0.1502 -0.8923
  469MOL0     C63187   0.812   9.118   9.390 -0.7071  0.1917 -0.2509
  469MOL0     O63188   0.893   9.002   9.376 -0.2708 -0.4934  0.6605
  469MOL0     C63189   0.841   8.888   9.442  0.6509 -0.6352  0.0382
  469MOL0     C63190   0.942   8.777   9.441 -0.3327  0.2408 -0.1989
  469MOL0     C63191   1.055   8.802   9.542 -0.9560  0.4139 -0.8145
  469MOL0     C63192   1.186   8.756   9.490  0.9927 -0.5076  0.3353
  469MOL0     C63193   1.205   8.606   9.489  0.2261 -0.2578 -0.3284
  469MOL0     C63194   1.351   8.568   9.457 -0.0968 -0.8319  0.1985
  469MOL0     C63195   1.360   8.418   9.438 -0.0319 -0.6453 -0.0317
  469MOL0     C63196   1.314   8.359   9.306  0.3826 -0.5430 -0.6727
  469MOL0     N63197   1.356   8.225   9.296  0.1625  0.0236  0.0556
  469MOL0     C63198   1.477   8.190   9.249 -0.2466 -0.8050 -0.4067
  469MOL0     C63199   1.490   8.060   9.264 -0.2812  0.2509  0.4205
  469MOL0     C63200   1.608   7.974   9.233 -1.2425  0.0317  0.4597
  469MOL0     C63201   1.737   8.019   9.304 -0.4064  0.1984  1.2530
  469MOL0     C63202   1.747   8.006   9.458  0.5170  0.4319  0.5248
  469MOL0     C63203   1.749   7.855   9.511  0.5173 -0.3260  0.8659
  469MOL0     O63204   1.846   7.788   9.439 -0.5635 -0.2737 -0.5916
  469MOL0     C63205   1.925   7.683   9.491  0.7390  0.7893  0.8493
  469MOL0     C63206   1.886   7.602   9.594  0.3001 -0.4694  0.0707
  469MOL0     C63207   1.956   7.486   9.620 -0.3095 -0.0548 -0.3065
  469MOL0     C63208   2.067   7.443   9.544 -1.3080  0.6902 -0.6802
  469MOL0     C63209   2.133   7.318   9.569 -0.3173  0.0831  0.1816
  469MOL0     O63210   2.249   7.283   9.505 -0.6075 -0.1512  0.2447
  469MOL0     C63211   2.333   7.186   9.551 -0.1775 -0.1793 -0.1685
  469MOL0     C63212   2.473   7.216   9.554 -0.5374 -0.1275 -0.1880
  469MOL0     C63213   2.567   7.120   9.580 -0.0653 -0.0017 -0.5309
  469MOL0     C63214   2.538   6.986   9.596  1.1281 -0.8547  0.3539
  469MOL0     O63215   2.630   6.896   9.619 -0.2965 -0.4417 -0.0346
  469MOL0     C63216   2.640   6.793   9.511 -1.0361  0.3422  0.6374
  469MOL0     C63217   2.748   6.821   9.399  0.3768 -0.6295 -0.3991
  469MOL0     C63218   2.737   6.713   9.290 -0.0816  0.4954  0.0364
  469MOL0     C63219   2.843   6.724   9.185  0.5262 -1.3666  0.8621
  469MOL0     C63220   2.849   6.589   9.109 -0.0600  0.4915 -0.3290
  469MOL0     C63221   2.917   6.597   8.967 -0.5191  0.5784  0.1329
  469MOL0     C63222   2.942   6.459   8.913 -0.5081 -0.0814 -0.1455
  469MOL0     C63223   3.010   6.459   8.767  0.0931  0.2603 -0.0657
  469MOL0    Cl63224   3.168   6.545   8.780  0.0519  0.6993  0.0895
  469MOL0     C63225   2.395   6.952   9.600 -0.2841  0.4586 -0.0637
  469MOL0     C63226   2.298   7.051   9.582 -0.0347 -0.1230  0.0098
  469MOL0     O63227   2.083   7.245   9.653  0.1846  0.7970  0.7708
  469MOL0     C63228   2.108   7.528   9.443 -0.0120 -0.0355 -0.0194
  469MOL0     C63229   2.033   7.640   9.411  0.7602  0.4338 -1.1750
  469MOL0     N63230   1.376   8.016   9.336 -0.0422 -0.3042  0.0360
  469MOL0     N63231   1.294   8.115   9.350 -0.2014  0.4164 -0.1787
  469MOL0     C63232   0.674   9.126   9.381  0.0655 -0.4966  0.4544
  469MOL0     C63233   0.606   9.244   9.395 -0.0240 -0.4684 -0.2393
  469MOL0     C63234   0.498   9.663   9.551 -0.3435  0.2500  0.1821
  469MOL0     C63235   0.359   9.680   9.547 -0.4557  0.2066  0.1271
  469MOL0     C63236   0.295   9.806   9.540  0.6183 -0.2757 -0.1579
  469MOL0     C63237   0.373   9.920   9.528  0.8254 -0.2833  0.8689
  469MOL0     O63238   0.301  10.036   9.520 -1.0531 -0.3206 -0.5405
  469MOL0     C63239   0.370  10.152   9.461  0.6204 -0.1538  0.0383
  469MOL0     C63240   0.256  10.221   9.389 -0.5248 -0.1178  0.2761
  469MOL0     C63241   0.293  10.348   9.322 -0.7013  0.9747 -0.9582
  469MOL0     C63242   0.181  10.457   9.338 -0.5908 -0.1114 -0.4825
  469MOL0     C63243   0.212  10.584   9.264 -0.4900 -0.6308  0.0009
  469MOL0     C63244   0.227  10.692   9.218  1.2058 -0.3580 -0.9850
  469MOL0     C63245   0.505   9.906   9.536 -0.1130  0.4752  0.0875
  469MOL0     C63246   0.575   9.780   9.545 -0.1120  0.3968  0.3838
  469MOL0     C63247   0.725   9.775   9.536 -0.4970 -0.1751 -0.2487
  469MOL0     H63248   0.860   9.451   9.463 -1.6243  0.8508  1.6256
  469MOL0     H63249   0.994   9.253   9.410  0.2628 -0.2337  0.8674
  469MOL0     H63250   0.805   8.917   9.541  1.5617 -1.1620  0.5290
  469MOL0     H63251   0.755   8.840   9.394 -0.5638 -2.1977  3.4460
  469MOL0     H63252   0.978   8.767   9.339 -1.4581  1.8357 -0.7883
  469MOL0     H63253   0.890   8.685   9.470  0.1210 -0.2081 -0.7810
  469MOL0     H63254   1.026   8.750   9.633  0.7415 -2.8544 -1.9808
  469MOL0     H63255   1.075   8.907   9.565 -2.7681  1.0770 -2.0316
  469MOL0     H63256   1.196   8.814   9.398 -1.3190 -0.2849  0.1725
  469MOL0     H63257   1.266   8.783   9.560  0.3564  0.7167  0.6276
  469MOL0     H63258   1.173   8.573   9.588 -1.0336  1.8843  0.0313
  469MOL0     H63259   1.135   8.566   9.415 -0.7537  1.9715 -0.6874
  469MOL0     H63260   1.394   8.612   9.367  1.6369 -1.1544  0.8223
  469MOL0     H63261   1.412   8.604   9.540  1.1994  2.3033 -1.9019
  469MOL0     H63262   1.300   8.370   9.516  0.9514 -0.9256  0.5662
  469MOL0     H63263   1.463   8.388   9.458  0.0129 -0.4938 -0.0372
  469MOL0     H63264   1.205   8.351   9.304  0.1459  1.6947  0.4283
  469MOL0     H63265   1.353   8.424   9.227  0.4920  1.2715  0.8100
  469MOL0     H63266   1.554   8.258   9.212  0.4088  0.8126  3.4410
  469MOL0     H63267   1.584   7.870   9.258  0.6389 -1.3436 -2.8091
  469MOL0     H63268   1.629   7.977   9.125 -2.0312 -3.1359  0.1332
  469MOL0     H63269   1.815   7.951   9.269  0.4086  2.4667 -1.8133
  469MOL0     H63270   1.765   8.119   9.268 -2.3491  0.5261  0.5214
  469MOL0     H63271   1.672   8.063   9.514  1.2289 -0.1055  2.0830
  469MOL0     H63272   1.846   8.050   9.479  1.4487 -0.9715 -0.7565
  469MOL0     H63273   1.651   7.810   9.496 -1.0026  3.2011 -0.8744
  469MOL0     H63274   1.759   7.858   9.620 -0.2106  1.9783  0.9226
  469MOL0     H63275   1.799   7.617   9.656  2.1329 -0.3688  2.7650
  469MOL0     H63276   1.925   7.418   9.698  0.5329 -1.2204 -0.9660
  469MOL0     H63277   2.501   7.318   9.529 -3.0637  0.4632 -0.8840
  469MOL0     H63278   2.671   7.151   9.588 -0.4589  1.0787  0.7805
  469MOL0     H63279   2.680   6.704   9.561 -1.3744 -0.1320  0.0765
  469MOL0     H63280   2.546   6.763   9.466  1.0220 -0.7725 -3.3333
  469MOL0     H63281   2.728   6.924   9.370 -1.2775 -0.1442  2.1028
  469MOL0     H63282   2.845   6.823   9.452 -0.3987 -2.3575  1.2162
  469MOL0     H63283   2.733   6.615   9.337 -0.3149  0.8822  0.8450
  469MOL0     H63284   2.642   6.718   9.235 -1.9916 -0.9516  2.9426
  469MOL0     H63285   2.939   6.754   9.226 -0.2718  4.1641 -0.4738
  469MOL0     H63286   2.812   6.809   9.124 -0.2013  0.6054  3.7774
  469MOL0     H63287   2.746   6.555   9.094 -0.0392  0.9546 -1.5459
  469MOL0     H63288   2.910   6.516   9.164  1.8836  0.7812 -2.0233
  469MOL0     H63289   2.845   6.636   8.895 -0.4785 -2.1705 -1.5392
  469MOL0     H63290   3.011   6.653   8.972 -0.1775 -0.0695  3.6892
  469MOL0     H63291   2.847   6.406   8.914  0.7863 -2.5821 -1.2838
  469MOL0     H63292   3.016   6.399   8.967 -1.4408 -1.2253 -0.1016
  469MOL0     H63293   3.011   6.357   8.726  0.2115  0.6867 -1.1456
  469MOL0     H63294   2.950   6.519   8.698 -1.6156  0.0512  1.1857
  469MOL0     H63295   2.381   6.846   9.619 -2.2052  0.6182 -0.4597
  469MOL0     H63296   2.192   7.030   9.569 -0.4610  0.5568  2.0268
  469MOL0     H63297   2.178   7.500   9.364 -0.2084 -1.6671  0.3535
  469MOL0     H63298   2.070   7.694   9.324  1.3556  2.0333  0.0313
  469MOL0     H63299   0.616   9.036   9.362 -0.7506 -0.4497  2.4160
  469MOL0     H63300   0.503   9.265   9.371 -0.0627 -1.2539 -0.8356
  469MOL0     H63301   0.291   9.595   9.543  1.2472 -1.3709  2.2171
  469MOL0     H63302   0.188   9.811   9.528  0.4263  2.4230  1.7984
  469MOL0     H63303   0.447  10.119   9.391 -0.0412 -2.2561  0.2555
  469MOL0     H63304   0.418  10.209   9.542 -0.4025  2.8617 -1.3242
  469MOL0     H63305   0.165  10.236   9.448 -0.3946  0.7052  0.2757
  469MOL0     H63306   0.231  10.163   9.301  2.0634 -0.9359 -0.0096
  469MOL0     H63307   0.316  10.325   9.218  0.0924  1.8047 -0.9829
  469MOL0     H63308   0.381  10.387   9.375  0.5690 -3.0469  0.2630
  469MOL0     H63309   0.080  10.422   9.313 -0.1372 -2.9276  1.2163
  469MOL0     H63310   0.166  10.473   9.445  5.4057  0.5161  0.5852
  469MOL0     H63311   0.223  10.796   9.190 -3.3693 -0.2187 -0.4467
  469MOL0     H63312   0.564   9.996   9.552 -1.5706  1.0612  2.8124
  469MOL0     H63313   0.763   9.748   9.635 -1.6269  1.2390  0.6271
  469MOL0     H63314   0.756   9.701   9.462 -0.2549 -1.9943  1.5763
  469MOL0     H63315   0.759   9.876   9.512  1.7819 -0.4896  1.3899
  470MOL0     O63316   8.283   1.316   7.159 -0.3364  0.3852  0.4284
  470MOL0     C63317   8.242   1.282   7.048  0.6164  0.4171  0.3179
  470MOL0     O63318   8.310   1.239   6.943  0.7990  0.4173 -0.0105
  470MOL0     C63319   8.443   1.233   6.972  0.0760  0.3239  0.2983
  470MOL0     C63320   8.519   1.342   6.982  0.2576 -0.3780 -0.6310
  470MOL0     C63321   8.656   1.339   7.004  0.0535  0.6771  0.0062
  470MOL0     C63322   8.718   1.210   7.016 -0.1777 -0.1736 -0.4309
  470MOL0     O63323   8.854   1.219   7.029 -0.2942  0.8987 -0.1412
  470MOL0     C63324   8.902   1.287   7.150  0.0246  0.0013  0.9326
  470MOL0     C63325   8.996   1.407   7.102  0.5809  0.5377 -0.6096
  470MOL0     C63326   9.017   1.494   7.225 -0.2982  0.2967 -0.6377
  470MOL0     C63327   9.104   1.610   7.174 -0.3071 -0.8662 -0.8954
  470MOL0     C63328   9.119   1.718   7.289  0.1338  0.0005  0.3080
  470MOL0     C63329   9.221   1.836   7.237  0.2395  1.6736 -0.4722
  470MOL0     C63330   9.147   1.918   7.136  0.6489 -0.0415 -0.5577
  470MOL0     C63331   9.238   2.003   7.049  0.7060  0.7128 -0.2769
  470MOL0     N63332   9.267   1.942   6.919 -0.0939  0.3949 -0.4442
  470MOL0     C63333   9.296   1.806   6.898  0.0886 -0.1301 -0.4210
  470MOL0     C63334   9.314   1.798   6.763  0.2637  0.7115 -0.4140
  470MOL0     C63335   9.305   1.674   6.680  0.2434  1.0404  0.1257
  470MOL0     C63336   9.155   1.616   6.689 -0.7469  0.7701  0.2388
  470MOL0     C63337   9.142   1.461   6.690 -0.0935 -0.2123  0.7530
  470MOL0     C63338   9.188   1.397   6.557 -0.7136 -0.7941 -1.1808
  470MOL0     O63339   9.086   1.429   6.457 -0.6888  1.0003 -0.1625
  470MOL0     C63340   9.131   1.489   6.342  0.9719 -0.1720  0.2030
  470MOL0     C63341   9.112   1.629   6.327  0.0423  0.2274 -0.2470
  470MOL0     C63342   9.178   1.696   6.227  0.7764  0.6893  0.5418
  470MOL0     C63343   9.248   1.609   6.129  0.1964  0.0956  0.8762
  470MOL0     C63344   9.318   1.672   6.020 -0.6022  0.2287  1.4782
  470MOL0     O63345   9.298   1.808   6.003  1.3084  0.4163  0.4056
  470MOL0     C63346   9.365   1.874   5.897  0.2865 -0.5517 -0.3533
  470MOL0     C63347   9.409   2.003   5.916 -0.2210 -0.8832 -0.2349
  470MOL0     C63348   9.434   2.094   5.812  0.9681  0.2675  0.4263
  470MOL0     C63349   9.429   2.058   5.680  0.2333 -0.3486 -0.6278
  470MOL0     O63350   9.444   2.161   5.589 -0.3095 -0.0313 -0.6837
  470MOL0     C63351   9.411   2.130   5.454  0.7395  0.4965 -0.4517
  470MOL0     C63352   9.458   2.251   5.365 -0.1604 -0.0788  0.1574
  470MOL0     C63353   9.359   2.359   5.364 -0.2989 -0.1543  0.2395
  470MOL0     C63354   9.362   2.470   5.261 -1.4630  0.3444  1.0644
  470MOL0     C63355   9.244   2.562   5.272  0.3064 -0.1860 -0.4320
  470MOL0     C63356   9.230   2.654   5.156  0.1015  0.0534  0.4550
  470MOL0     C63357   9.090   2.717   5.166  0.8293  0.2871  0.6623
  470MOL0     C63358   9.050   2.800   5.050 -0.4935  0.6098 -0.6209
  470MOL0    Cl63359   9.015   2.697   4.904 -0.3860 -0.0810  0.3550
  470MOL0     C63360   9.392   1.918   5.647  0.3544 -0.6557 -1.3850
  470MOL0     C63361   9.357   1.840   5.759 -0.6495  0.7499  0.2937
  470MOL0     O63362   9.395   1.609   5.945 -0.5994  0.1004  0.1262
  470MOL0     C63363   9.265   1.467   6.144  0.8679 -0.0852 -0.1353
  470MOL0     C63364   9.203   1.405   6.250 -0.6259 -0.6261 -0.2630
  470MOL0     N63365   9.305   1.918   6.702  0.0301  0.4761  0.1138
  470MOL0     N63366   9.275   2.001   6.793 -1.4923  0.0360  0.3452
  470MOL0     C63367   8.643   1.092   6.990  0.1273  0.2146 -0.2790
  470MOL0     C63368   8.501   1.101   6.977 -0.1137 -0.3108  0.4422
  470MOL0     C63369   8.101   1.248   7.037  0.4951  0.3313  0.7517
  470MOL0     C63370   8.041   1.157   6.940  0.2461 -0.4633  0.4573
  470MOL0     C63371   7.914   1.126   6.933  0.3650 -0.1762 -0.1840
  470MOL0     C63372   7.825   1.193   7.021  0.5431  0.2188 -1.4211
  470MOL0     O63373   7.690   1.174   7.024  0.6207  0.2407 -0.2220
  470MOL0     C63374   7.628   1.099   6.921  0.1859 -0.0505 -0.2596
  470MOL0     C63375   7.485   1.107   6.949  0.4141  0.6680 -0.0131
  470MOL0     C63376   7.415   0.973   6.903 -0.4616  0.0003  1.0887
  470MOL0     C63377   7.277   0.941   6.978  0.2508 -0.0568  0.4045
  470MOL0     C63378   7.199   1.055   6.976  0.5908  0.2624 -0.3941
  470MOL0     C63379   7.127   1.150   6.939 -0.5090 -0.2534 -0.2040
  470MOL0     C63380   7.863   1.280   7.121  0.4126  0.2088  1.4694
  470MOL0     C63381   8.005   1.308   7.126  0.1854 -0.1118 -0.1589
  470MOL0     C63382   8.049   1.425   7.219 -0.0539  0.3475  0.3201
  470MOL0     H63383   8.476   1.438   6.956  1.7021  0.0673 -1.5207
  470MOL0     H63384   8.707   1.435   7.006 -0.2805  1.0140 -2.9281
  470MOL0     H63385   8.813   1.328   7.199  0.7365 -0.3163  2.5712
  470MOL0     H63386   8.963   1.224   7.216  1.0544  0.8879  0.8477
  470MOL0     H63387   8.941   1.448   7.017 -1.3378 -0.2088  0.2099
  470MOL0     H63388   9.093   1.364   7.076  0.1153 -2.4415  1.8746
  470MOL0     H63389   9.061   1.444   7.311 -0.9605  3.3806  1.6709
  470MOL0     H63390   8.923   1.538   7.260 -1.4865 -0.9036 -2.1511
  470MOL0     H63391   9.202   1.575   7.140 -0.0637  0.7469 -1.9589
  470MOL0     H63392   9.066   1.658   7.083  0.5747  0.9261 -0.3598
  470MOL0     H63393   9.024   1.766   7.314  0.4813  1.2115 -0.6114
  470MOL0     H63394   9.168   1.671   7.375  0.3645  0.1693  0.2699
  470MOL0     H63395   9.256   1.893   7.324  2.4480 -1.0789  0.5859
  470MOL0     H63396   9.307   1.788   7.191 -0.2318 -0.7706  0.9922
  470MOL0     H63397   9.082   1.980   7.198  2.0899  2.2696 -1.2256
  470MOL0     H63398   9.080   1.855   7.077  0.1321  1.5021 -1.6711
  470MOL0     H63399   9.182   2.092   7.021 -1.5055 -0.6811 -0.4823
  470MOL0     H63400   9.333   2.037   7.092 -0.6720  2.5600  1.4703
  470MOL0     H63401   9.263   1.721   6.958 -2.2242  0.5115 -0.6706
  470MOL0     H63402   9.345   1.687   6.579 -2.6299  0.8239 -1.1377
  470MOL0     H63403   9.373   1.598   6.720 -0.7132  0.9414  1.6279
  470MOL0     H63404   9.118   1.652   6.785  0.4299  0.1935  0.9261
  470MOL0     H63405   9.088   1.665   6.617 -0.0296  1.3543 -0.0383
  470MOL0     H63406   9.034   1.441   6.694  0.5402 -4.7151  0.3526
  470MOL0     H63407   9.203   1.420   6.771  1.0560 -2.8528 -1.3143
  470MOL0     H63408   9.190   1.288   6.563 -2.5361 -0.8537 -1.0225
  470MOL0     H63409   9.287   1.430   6.523 -1.7012  0.9237 -2.5882
  470MOL0     H63410   9.049   1.683   6.397 -1.3262  3.0219 -3.3264
  470MOL0     H63411   9.154   1.802   6.231 -0.9793  0.2789  2.0847
  470MOL0     H63412   9.402   2.024   6.022 -2.4988 -0.9498 -0.3168
  470MOL0     H63413   9.457   2.197   5.836  1.9244 -0.3977  2.6160
  470MOL0     H63414   9.472   2.041   5.434  0.6323 -0.1033  1.6352
  470MOL0     H63415   9.307   2.101   5.437  1.7339 -1.6355 -3.6956
  470MOL0     H63416   9.552   2.281   5.413 -0.5364 -0.6974  1.3251
  470MOL0     H63417   9.468   2.209   5.265 -2.0470 -1.1305  0.3776
  470MOL0     H63418   9.262   2.307   5.368 -1.1417  1.4356  1.4945
  470MOL0     H63419   9.374   2.414   5.457  2.9201 -0.6942  0.1663
  470MOL0     H63420   9.371   2.425   5.162  2.2859 -0.8616  1.7918
  470MOL0     H63421   9.454   2.528   5.267 -0.8354 -0.6049  0.8091
  470MOL0     H63422   9.249   2.618   5.366 -1.3668 -0.1483 -0.3319
  470MOL0     H63423   9.158   2.494   5.279 -0.8994  1.0807 -2.1411
  470MOL0     H63424   9.308   2.731   5.159 -3.1993  3.6285  1.0793
  470MOL0     H63425   9.238   2.586   5.070  0.7365 -0.2925  0.7765
  470MOL0     H63426   9.090   2.785   5.252 -1.3043  1.6472 -0.3423
  470MOL0     H63427   9.022   2.634   5.184  0.2413  0.6979  0.3340
  470MOL0     H63428   8.955   2.849   5.075  1.2137  2.6019  2.7240
  470MOL0     H63429   9.122   2.877   5.024 -0.7873  0.8230 -0.8090
  470MOL0     H63430   9.387   1.876   5.547  1.6349  2.3267 -2.8446
  470MOL0     H63431   9.323   1.740   5.734 -0.4672  1.0911 -1.4648
  470MOL0     H63432   9.339   1.413   6.086  2.7488  0.5368  1.5719
  470MOL0     H63433   9.205   1.297   6.257  1.2231 -0.6648 -0.8304
  470MOL0     H63434   8.680   0.991   7.003  0.4794  0.4236  0.4146
  470MOL0     H63435   8.438   1.014   6.962 -0.9873  0.7789 -3.2507
  470MOL0     H63436   8.102   1.105   6.867 -0.6805  1.9373 -2.2017
  470MOL0     H63437   7.874   1.048   6.870  0.2419  0.9128 -1.5003
  470MOL0     H63438   7.672   0.999   6.928 -1.0784 -0.6766 -0.9454
  470MOL0     H63439   7.666   1.138   6.826  0.0585 -2.0815 -1.2053
  470MOL0     H63440   7.436   1.180   6.884 -3.2294 -0.6154  1.0524
  470MOL0     H63441   7.460   1.118   7.055 -0.9978  1.6447 -0.4207
  470MOL0     H63442   7.485   0.891   6.922 -1.6562 -1.2090  0.5068
  470MOL0     H63443   7.384   0.982   6.799 -0.6450  4.5148  1.3454
  470MOL0     H63444   7.221   0.864   6.925 -0.6584 -0.0049  1.2474
  470MOL0     H63445   7.285   0.910   7.082  1.9342  0.6318  0.5162
  470MOL0     H63446   7.067   1.230   6.900 -0.1426 -0.3465 -0.9778
  470MOL0     H63447   7.786   1.330   7.180 -2.0389 -0.1118 -1.2515
  470MOL0     H63448   8.122   1.483   7.163 -0.1644  0.4579  0.2916
  470MOL0     H63449   7.965   1.493   7.235  1.9970  3.0262  0.5857
  470MOL0     H63450   8.102   1.385   7.306  2.1733  1.1609 -0.5936
  471MOL0     O63451   3.225   0.402  10.596 -0.6584  0.5271  0.2886
  471MOL0     C63452   3.161   0.449  10.505 -1.5436  0.5651  0.0466
  471MOL0     O63453   3.026   0.458  10.504 -0.1475 -0.5146  0.2459
  471MOL0     C63454   2.954   0.430  10.619 -0.4990  0.5459 -0.3088
  471MOL0     C63455   2.942   0.300  10.670  0.8508 -0.2755  0.8247
  471MOL0     C63456   2.869   0.283  10.788 -0.2946 -0.3370  0.5479
  471MOL0     C63457   2.803   0.394  10.851  0.9520 -0.1737 -1.5841
  471MOL0     O63458   2.739   0.386  10.973  0.1906  0.4695 -0.4691
  471MOL0     C63459   2.706   0.248  11.021  0.4771  0.3771  0.3375
  471MOL0     C63460   2.614   0.247  11.135  0.3060 -0.6980 -0.4212
  471MOL0     C63461   2.612   0.109  11.198 -0.1303  0.2987  0.9855
  471MOL0     C63462   2.512   0.102  11.311 -0.9445  0.1341 -0.1384
  471MOL0     C63463   2.455  -0.040  11.321 -0.6900  0.8401 -0.0894
  471MOL0     C63464   2.421  -0.064  11.464  0.1406  0.4280 -0.1185
  471MOL0     C63465   2.319  -0.174  11.498  0.7353  0.7097  1.2787
  471MOL0     C63466   2.175  -0.108  11.502  0.5322  0.0656  0.1401
  471MOL0     N63467   2.072  -0.197  11.547  0.5606 -0.2035  0.0658
  471MOL0     C63468   2.067  -0.272  11.660 -0.4965  0.3205 -0.4446
  471MOL0     C63469   1.935  -0.307  11.662 -0.2540  0.0374 -0.4345
  471MOL0     C63470   1.873  -0.389  11.772 -0.5820 -0.3294  0.5929
  471MOL0     C63471   1.800  -0.316  11.889  0.2460 -0.8733  0.1919
  471MOL0     C63472   1.693  -0.404  11.950 -0.3676 -0.4319 -0.0031
  471MOL0     C63473   1.618  -0.330  12.063  0.9033  0.2969 -0.9466
  471MOL0     O63474   1.506  -0.411  12.102  0.3879 -0.1031  0.2545
  471MOL0     C63475   1.526  -0.469  12.225  0.1144  0.6676 -0.0591
  471MOL0     C63476   1.536  -0.394  12.346 -0.1567 -0.1532  0.3377
  471MOL0     C63477   1.565  -0.459  12.467 -0.0604 -0.5941 -0.3417
  471MOL0     C63478   1.565  -0.602  12.473  1.9637 -0.1440  0.5472
  471MOL0     C63479   1.572  -0.676  12.604 -0.1468 -1.2165 -0.4245
  471MOL0     O63480   1.561  -0.813  12.615 -0.5553 -0.3319  0.1264
  471MOL0     C63481   1.567  -0.862  12.745 -0.4081 -0.1192 -0.4363
  471MOL0     C63482   1.684  -0.934  12.790 -0.4034 -0.1918  0.4329
  471MOL0     C63483   1.691  -0.983  12.926 -0.7131  0.6869 -0.2790
  471MOL0     C63484   1.583  -0.964  13.008  1.1079  0.3141 -0.1926
  471MOL0     O63485   1.568  -1.002  13.139  1.0318  0.3369  0.5990
  471MOL0     C63486   1.688  -0.986  13.211  0.1496  0.3536  0.5110
  471MOL0     C63487   1.674  -1.035  13.360  0.2451  0.1281  0.2518
  471MOL0     C63488   1.585  -0.933  13.428 -0.0880 -0.9710  0.0256
  471MOL0     C63489   1.498  -0.998  13.542  0.1270  0.1728  0.7357
  471MOL0     C63490   1.400  -0.887  13.602 -0.3078 -0.1051  0.4687
  471MOL0     C63491   1.302  -0.954  13.700 -0.3562 -0.3247  0.3868
  471MOL0     C63492   1.199  -0.854  13.754 -0.2391 -0.6420  0.9673
  471MOL0     C63493   1.255  -0.740  13.849  0.8860  0.8945  0.0258
  471MOL0    Cl63494   1.351  -0.612  13.767 -0.1737  0.1644  0.2334
  471MOL0     C63495   1.464  -0.901  12.967 -0.5273 -0.3358 -0.2056
  471MOL0     C63496   1.461  -0.858  12.834 -0.0453  0.2461 -0.5491
  471MOL0     O63497   1.580  -0.601  12.707  0.7197 -0.1752  0.2150
  471MOL0     C63498   1.568  -0.673  12.354 -0.0482 -0.0255  0.5340
  471MOL0     C63499   1.543  -0.609  12.230 -0.2240  0.9949  0.2771
  471MOL0     N63500   1.870  -0.250  11.554  0.7425  0.6701 -0.3367
  471MOL0     N63501   1.951  -0.188  11.486  0.1253  0.3746 -0.1023
  471MOL0     C63502   2.801   0.519  10.785  0.1186 -0.6167 -0.1610
  471MOL0     C63503   2.887   0.532  10.674 -0.2959 -0.2387 -0.4858
  471MOL0     C63504   3.236   0.490  10.375 -0.9571 -0.0692 -0.5653
  471MOL0     C63505   3.159   0.494  10.257  0.0275  0.5329  1.1194
  471MOL0     C63506   3.218   0.530  10.131 -0.8722  0.2466 -0.1000
  471MOL0     C63507   3.362   0.555  10.121  0.3969  0.2623 -0.0097
  471MOL0     O63508   3.413   0.621  10.008  0.3528  0.1210 -0.2943
  471MOL0     C63509   3.323   0.645   9.903 -0.0901  0.3030 -0.2337
  471MOL0     C63510   3.405   0.696   9.785  1.1485  0.4925 -0.3516
  471MOL0     C63511   3.351   0.693   9.641 -0.8290  0.8527 -0.2284
  471MOL0     C63512   3.454   0.770   9.545 -0.5038 -0.3452  1.1869
  471MOL0     C63513   3.577   0.692   9.545 -0.4798  0.1120  0.0842
  471MOL0     C63514   3.675   0.618   9.552 -0.2960 -0.3999 -0.3908
  471MOL0     C63515   3.432   0.554  10.247  0.3954 -0.1655  0.2688
  471MOL0     C63516   3.377   0.514  10.368  0.1352  0.0506  0.3842
  471MOL0     C63517   3.474   0.494  10.482  1.0194  1.3359 -0.6142
  471MOL0     H63518   2.993   0.218  10.622  0.0419 -0.5330  0.3950
  471MOL0     H63519   2.872   0.183  10.830 -2.1353  0.1013  1.8247
  471MOL0     H63520   2.652   0.206  10.936 -0.5382  3.1856 -0.5433
  471MOL0     H63521   2.786   0.178  11.042  1.4238  0.6233 -2.1269
  471MOL0     H63522   2.513   0.265  11.096 -1.0253 -2.8722  1.7467
  471MOL0     H63523   2.636   0.332  11.201 -2.7927 -0.0091 -0.0768
  471MOL0     H63524   2.706   0.071  11.240  0.9303 -0.0793 -1.5357
  471MOL0     H63525   2.584   0.039  11.119 -4.4760  2.4654  0.3300
  471MOL0     H63526   2.560   0.143  11.401 -1.4880 -0.5252  0.4606
  471MOL0     H63527   2.427   0.169  11.292 -0.3542  0.9944  0.1789
  471MOL0     H63528   2.362  -0.035  11.264 -1.3949  2.5492  1.1354
  471MOL0     H63529   2.533  -0.113  11.298 -0.5650  0.2580  1.9458
  471MOL0     H63530   2.516  -0.101  11.503  0.7931  1.6322 -0.5094
  471MOL0     H63531   2.402   0.032  11.513  2.0460 -0.4539  2.6544
  471MOL0     H63532   2.337  -0.193  11.605  2.5391  0.7634  1.0226
  471MOL0     H63533   2.327  -0.266  11.440  0.5899 -1.1908  4.0609
  471MOL0     H63534   2.175  -0.019  11.566 -1.0947 -0.6409  1.1953
  471MOL0     H63535   2.146  -0.071  11.403 -0.3131  1.2828  0.8248
  471MOL0     H63536   2.148  -0.291  11.730 -1.4357  3.9762  1.9295
  471MOL0     H63537   1.810  -0.466  11.726 -2.8559  1.1340  1.1221
  471MOL0     H63538   1.956  -0.443  11.817 -0.6004 -0.6348  0.2654
  471MOL0     H63539   1.879  -0.283  11.957  1.6843  0.5790 -2.0227
  471MOL0     H63540   1.760  -0.221  11.852  2.6784 -0.6924 -2.3401
  471MOL0     H63541   1.723  -0.502  11.989 -0.4433 -0.3184  0.3448
  471MOL0     H63542   1.622  -0.429  11.870  0.4288 -0.4251 -0.7262
  471MOL0     H63543   1.590  -0.237  12.013  2.4383  2.5738  2.0812
  471MOL0     H63544   1.681  -0.294  12.145 -1.0173  4.4637 -1.0624
  471MOL0     H63545   1.512  -0.288  12.344  0.6944  0.0811  1.4445
  471MOL0     H63546   1.566  -0.403  12.560  1.3195  0.8525 -1.1703
  471MOL0     H63547   1.763  -0.947  12.717  0.9984 -1.1266  2.0508
  471MOL0     H63548   1.781  -1.034  12.960 -0.5892 -0.4044 -2.1511
  471MOL0     H63549   1.774  -1.045  13.178  2.6759  4.5036 -1.0525
  471MOL0     H63550   1.720  -0.881  13.218  1.7050 -0.0577 -0.0572
  471MOL0     H63551   1.627  -1.134  13.353 -0.7675  0.5551  0.7454
  471MOL0     H63552   1.768  -1.040  13.417  1.0215  0.3125 -0.9765
  471MOL0     H63553   1.642  -0.856  13.481  1.6949 -1.7743 -0.6639
  471MOL0     H63554   1.516  -0.885  13.358  1.0032  1.6931  0.6662
  471MOL0     H63555   1.562  -1.031  13.625  2.0022  1.1175 -0.2534
  471MOL0     H63556   1.436  -1.073  13.493 -1.8095  0.9049  1.9596
  471MOL0     H63557   1.351  -0.849  13.511 -1.1229 -0.9803  0.5223
  471MOL0     H63558   1.464  -0.822  13.661  1.4736 -1.4506  0.1237
  471MOL0     H63559   1.239  -1.022  13.642  0.0116  1.1146 -1.8251
  471MOL0     H63560   1.364  -1.008  13.771  1.1291 -1.6608 -1.7858
  471MOL0     H63561   1.122  -0.917  13.799 -1.1224 -2.1337 -2.3190
  471MOL0     H63562   1.145  -0.808  13.671  1.7170 -2.4472 -1.4621
  471MOL0     H63563   1.163  -0.691  13.879  1.1946 -0.4689  3.7355
  471MOL0     H63564   1.308  -0.787  13.932 -0.1611 -2.1263 -0.8797
  471MOL0     H63565   1.380  -0.867  13.027 -2.5029 -2.7670 -1.4171
  471MOL0     H63566   1.369  -0.807  12.808  1.4477  2.5281 -1.6988
  471MOL0     H63567   1.589  -0.779  12.353  1.4507  0.0912 -4.1988
  471MOL0     H63568   1.559  -0.677  12.147  1.8253  1.1115  0.5341
  471MOL0     H63569   2.755   0.614  10.809  2.4960  0.5542  0.1083
  471MOL0     H63570   2.890   0.626  10.620 -4.3045  0.3036 -0.1354
  471MOL0     H63571   3.052   0.472  10.260 -0.1517  0.0580 -2.8352
  471MOL0     H63572   3.147   0.546  10.050 -1.3894 -2.5401 -0.3097
  471MOL0     H63573   3.259   0.726   9.940 -0.2326 -0.9895  2.6306
  471MOL0     H63574   3.266   0.558   9.869 -0.3962  0.4885 -0.1968
  471MOL0     H63575   3.488   0.626   9.793  0.4625 -0.1306  2.0541
  471MOL0     H63576   3.441   0.798   9.801 -3.6873  2.4810 -0.2979
  471MOL0     H63577   3.252   0.739   9.641 -2.9874 -3.1839 -2.2681
  471MOL0     H63578   3.341   0.586   9.620 -2.1890  1.2449 -1.7120
  471MOL0     H63579   3.427   0.768   9.439  1.5427 -0.2518  0.6209
  471MOL0     H63580   3.469   0.871   9.584  1.7245 -0.7954  1.6349
  471MOL0     H63581   3.763   0.558   9.561 -1.0978 -1.4292  0.9675
  471MOL0     H63582   3.535   0.590  10.245  0.1762  0.4720  0.3926
  471MOL0     H63583   3.555   0.567  10.477  0.8915  1.4286 -1.4249
  471MOL0     H63584   3.441   0.517  10.584  1.0661  1.1866 -0.5642
  471MOL0     H63585   3.527   0.398  10.478 -1.7789 -0.2946 -1.3273
  472MOL0     O63586   4.426   3.074   1.029 -0.5557 -0.1509  0.3784
  472MOL0     C63587   4.509   3.000   1.075 -0.4332 -0.3377 -0.6727
  472MOL0     O63588   4.515   2.870   1.072  0.0084  0.5548  0.0397
  472MOL0     C63589   4.432   2.790   1.001  0.4789  0.5747 -0.7795
  472MOL0     C63590   4.441   2.655   1.034  0.5162  0.1556  1.2180
  472MOL0     C63591   4.368   2.554   0.967  0.8906 -0.0728 -0.0971
  472MOL0     C63592   4.272   2.592   0.873  0.1058  0.0957 -0.1392
  472MOL0     O63593   4.178   2.509   0.820 -0.4305 -0.1674 -0.1322
  472MOL0     C63594   4.163   2.376   0.874  0.0140  0.2249 -0.8121
  472MOL0     C63595   4.036   2.294   0.824  1.0388  0.0981 -0.8581
  472MOL0     C63596   4.015   2.336   0.669  0.4078  0.1434 -0.2715
  472MOL0     C63597   3.964   2.209   0.592  0.7034 -0.5545 -1.0558
  472MOL0     C63598   3.851   2.234   0.488  0.4733  0.3577  0.1507
  472MOL0     C63599   3.790   2.114   0.436 -0.2402  0.4262  1.4266
  472MOL0     C63600   3.717   2.123   0.296 -0.3718  0.9900 -1.0774
  472MOL0     C63601   3.573   2.142   0.307  0.2332  0.0031 -0.4612
  472MOL0     N63602   3.535   2.275   0.363 -0.0413 -0.0726  0.0667
  472MOL0     C63603   3.487   2.300   0.486  0.4910  0.8826  0.7419
  472MOL0     C63604   3.499   2.434   0.508  0.2860 -0.5827  0.1830
  472MOL0     C63605   3.475   2.493   0.643 -1.0897 -1.7365  0.4658
  472MOL0     C63606   3.392   2.621   0.652  0.8411 -0.1234  0.4757
  472MOL0     C63607   3.476   2.748   0.639 -0.7118 -0.6115  0.2651
  472MOL0     C63608   3.393   2.885   0.626 -0.0708  0.2192  0.1869
  472MOL0     O63609   3.463   2.984   0.549  0.0430  0.3663  0.3471
  472MOL0     C63610   3.563   3.063   0.604 -0.1534 -0.6642 -0.3393
  472MOL0     C63611   3.607   3.047   0.738  0.1125 -0.1611 -0.3734
  472MOL0     C63612   3.702   3.124   0.798  0.0007  0.2131  0.5645
  472MOL0     C63613   3.779   3.208   0.717 -0.2452 -0.1489  0.6228
  472MOL0     C63614   3.886   3.292   0.771  0.1497  1.0025 -0.8825
  472MOL0     O63615   3.938   3.257   0.892  0.5489  0.3774 -0.3045
  472MOL0     C63616   4.045   3.330   0.937  0.4355 -0.0809 -0.3624
  472MOL0     C63617   4.139   3.413   0.863 -0.5168 -0.6881 -0.3403
  472MOL0     C63618   4.242   3.479   0.927  0.2575 -0.7314  1.7867
  472MOL0     C63619   4.263   3.447   1.057 -0.1232 -0.0093 -1.4988
  472MOL0     O63620   4.371   3.500   1.124  0.2565  0.5841 -0.7410
  472MOL0     C63621   4.451   3.606   1.075  0.3217 -0.2184  0.8901
  472MOL0     C63622   4.572   3.619   1.164  1.0489 -0.3319  0.4627
  472MOL0     C63623   4.652   3.730   1.104 -0.1864 -0.2517  0.3965
  472MOL0     C63624   4.764   3.695   0.986 -0.2953  0.3011 -1.6431
  472MOL0     C63625   4.888   3.799   0.990  0.7815 -1.1956 -0.2285
  472MOL0     C63626   5.003   3.746   1.081  0.1034 -1.2667  0.1549
  472MOL0     C63627   5.063   3.615   1.032  0.0073 -0.1692  1.1871
  472MOL0     C63628   5.199   3.589   1.085  0.2461  0.1289  0.6570
  472MOL0    Cl63629   5.207   3.546   1.262 -0.2810  0.0296 -0.1652
  472MOL0     C63630   4.173   3.363   1.129 -1.1741  0.3585 -0.4779
  472MOL0     C63631   4.058   3.317   1.071  0.3040 -0.7080 -0.5291
  472MOL0     O63632   3.908   3.391   0.706  0.0059 -1.1146 -0.0276
  472MOL0     C63633   3.740   3.220   0.579 -0.5555 -0.8617  0.1233
  472MOL0     C63634   3.632   3.153   0.530  0.5295  0.0922  0.8461
  472MOL0     N63635   3.546   2.499   0.396 -0.4892  0.6890 -0.0094
  472MOL0     N63636   3.575   2.405   0.312 -0.1266  0.3120 -0.0687
  472MOL0     C63637   4.268   2.722   0.835  0.1360 -0.7518 -0.4135
  472MOL0     C63638   4.345   2.821   0.899  0.4270 -0.7072 -0.4051
  472MOL0     C63639   4.604   3.067   1.174  0.4946 -0.4196  0.1648
  472MOL0     C63640   4.562   3.180   1.242  0.4529 -0.2532  0.0858
  472MOL0     C63641   4.642   3.237   1.337 -1.6097  1.2318 -0.3379
  472MOL0     C63642   4.770   3.181   1.372  0.8932  0.3776 -0.4140
  472MOL0     O63643   4.857   3.231   1.465 -0.0819 -0.2071  0.2540
  472MOL0     C63644   4.808   3.325   1.561 -0.2117  0.7974  0.5472
  472MOL0     C63645   4.849   3.458   1.497 -0.4935 -0.7807 -0.0048
  472MOL0     C63646   4.821   3.584   1.579 -0.4681  0.9246  0.5193
  472MOL0     C63647   4.851   3.719   1.512  0.1794  0.2050  0.4148
  472MOL0     C63648   4.987   3.754   1.542  0.0831 -0.2070  0.0489
  472MOL0     C63649   5.105   3.765   1.565  0.5662 -0.7395 -0.3801
  472MOL0     C63650   4.804   3.060   1.307  0.4916 -0.4492  0.3327
  472MOL0     C63651   4.729   3.005   1.208 -0.6843  0.0265  0.5699
  472MOL0     C63652   4.790   2.892   1.139  0.8597 -0.9733  0.1395
  472MOL0     H63653   4.520   2.626   1.102  0.4042 -0.0046  1.2794
  472MOL0     H63654   4.386   2.451   0.996  3.4433  0.7414  1.5818
  472MOL0     H63655   4.252   2.315   0.858  0.4615  0.1641  1.5078
  472MOL0     H63656   4.153   2.394   0.982  1.8276  0.6109 -0.6746
  472MOL0     H63657   3.953   2.314   0.892  1.1319 -1.7819 -0.1302
  472MOL0     H63658   4.063   2.189   0.840  2.1780  0.3747 -0.8587
  472MOL0     H63659   4.107   2.370   0.620  0.3567 -0.5268 -0.8507
  472MOL0     H63660   3.949   2.422   0.652  3.4964  2.0384 -4.9376
  472MOL0     H63661   4.045   2.154   0.544  0.7951  0.6147 -2.2988
  472MOL0     H63662   3.902   2.144   0.655 -1.9849 -0.5984 -3.5261
  472MOL0     H63663   3.766   2.281   0.538 -1.9605 -0.3271 -3.0202
  472MOL0     H63664   3.882   2.296   0.403 -1.8881 -1.7606 -2.4758
  472MOL0     H63665   3.874   2.045   0.424 -0.9355 -0.5721  2.1053
  472MOL0     H63666   3.719   2.069   0.506 -3.0512  1.5319 -0.5530
  472MOL0     H63667   3.731   2.029   0.242 -0.5465 -0.4329  1.1853
  472MOL0     H63668   3.770   2.194   0.232  2.0669  1.8879  1.6952
  472MOL0     H63669   3.529   2.147   0.207  2.5988  2.6721 -1.4984
  472MOL0     H63670   3.532   2.062   0.370 -0.3804 -1.0853 -2.1643
  472MOL0     H63671   3.454   2.225   0.557  0.0388  1.4859  1.1753
  472MOL0     H63672   3.432   2.418   0.711 -1.2293 -1.2275  0.9439
  472MOL0     H63673   3.579   2.517   0.668 -1.5008 -1.4588  2.0070
  472MOL0     H63674   3.310   2.620   0.580  1.7782  0.2918 -0.6280
  472MOL0     H63675   3.346   2.624   0.751  0.4994 -2.2763  0.4357
  472MOL0     H63676   3.545   2.740   0.555  1.6000 -0.6100  2.0873
  472MOL0     H63677   3.538   2.751   0.729  0.2522 -3.3922 -0.2131
  472MOL0     H63678   3.360   2.929   0.721  0.7208  1.1293  0.0525
  472MOL0     H63679   3.304   2.871   0.564  0.1734  3.1173 -0.9835
  472MOL0     H63680   3.555   2.972   0.798 -2.6824 -0.3141 -2.7075
  472MOL0     H63681   3.721   3.103   0.903  4.5225  0.0648 -0.0907
  472MOL0     H63682   4.126   3.430   0.756 -0.7798 -2.6925 -0.6738
  472MOL0     H63683   4.296   3.560   0.879 -3.5206  1.5095  0.8043
  472MOL0     H63684   4.471   3.597   0.968 -0.2660 -2.5143  0.9253
  472MOL0     H63685   4.396   3.700   1.065 -1.4677 -1.3405 -0.3802
  472MOL0     H63686   4.543   3.645   1.265 -1.2839 -1.6946  0.2057
  472MOL0     H63687   4.632   3.527   1.166 -2.2361 -2.6888 -0.4949
  472MOL0     H63688   4.588   3.805   1.055 -1.1570 -2.3346 -1.7211
  472MOL0     H63689   4.707   3.769   1.190 -1.1574  2.3997 -0.0849
  472MOL0     H63690   4.721   3.709   0.886  1.3859  1.5479 -2.2365
  472MOL0     H63691   4.796   3.592   1.002 -1.6691  0.4740  4.3789
  472MOL0     H63692   4.851   3.898   1.020 -1.9085 -1.8458 -1.1449
  472MOL0     H63693   4.922   3.806   0.887 -1.2329 -0.9561 -0.9243
  472MOL0     H63694   5.082   3.821   1.077 -0.5215 -0.5913  0.2346
  472MOL0     H63695   4.975   3.736   1.187  1.2018  0.7095  0.6809
  472MOL0     H63696   5.076   3.636   0.925  0.1130 -0.0441  1.2252
  472MOL0     H63697   5.001   3.526   1.039 -0.6134 -0.4404 -3.8040
  472MOL0     H63698   5.232   3.501   1.030 -1.3226 -0.5551  0.7824
  472MOL0     H63699   5.268   3.672   1.063  0.5821 -0.2379  0.3174
  472MOL0     H63700   4.197   3.335   1.231 -1.3555  3.2811  0.4800
  472MOL0     H63701   3.987   3.261   1.132 -2.4201  1.4947 -1.4609
  472MOL0     H63702   3.789   3.291   0.512 -2.6193 -0.7749 -1.3996
  472MOL0     H63703   3.583   3.180   0.437  2.1107 -2.5841 -0.9077
  472MOL0     H63704   4.204   2.752   0.753  3.3532 -0.1342 -2.8962
  472MOL0     H63705   4.324   2.923   0.867 -1.7815 -1.1533 -0.5182
  472MOL0     H63706   4.468   3.230   1.221 -1.7532 -4.4386 -1.0467
  472MOL0     H63707   4.601   3.328   1.380 -3.1074  1.2934 -1.7894
  472MOL0     H63708   4.865   3.310   1.653  0.1524  3.4746  0.8419
  472MOL0     H63709   4.702   3.319   1.587 -0.1419 -0.8645  0.5851
  472MOL0     H63710   4.790   3.466   1.405  0.0084 -0.0740 -0.2765
  472MOL0     H63711   4.956   3.459   1.473 -0.3244  0.3429  0.7239
  472MOL0     H63712   4.884   3.571   1.668 -1.3849 -3.2162  0.7729
  472MOL0     H63713   4.717   3.584   1.614  0.4173 -0.3236  3.5379
  472MOL0     H63714   4.834   3.702   1.405 -2.1287 -1.2798  0.9433
  472MOL0     H63715   4.786   3.801   1.545  1.3406  0.8979  1.0338
  472MOL0     H63716   5.208   3.783   1.586  0.5512  0.5922 -1.2985
  472MOL0     H63717   4.900   3.014   1.328  0.2354 -1.3907 -0.4839
  472MOL0     H63718   4.795   2.918   1.033  1.1128  1.2612  0.6315
  472MOL0     H63719   4.893   2.874   1.172  0.8094  0.7371  1.4336
  472MOL0     H63720   4.725   2.806   1.153 -2.4582  1.3566  0.3038
  473MOL0     O63721   0.677   4.590   9.635 -0.8703 -0.6406 -0.0408
  473MOL0     C63722   0.695   4.541   9.746  0.7330 -1.1274 -0.1740
  473MOL0     O63723   0.749   4.416   9.770 -0.0331  0.0582 -0.3476
  473MOL0     C63724   0.818   4.359   9.666  0.9498  0.4108 -0.4371
  473MOL0     C63725   0.913   4.431   9.603 -0.5126  0.0226  0.1743
  473MOL0     C63726   0.986   4.368   9.499 -0.8746 -0.4078 -0.2774
  473MOL0     C63727   0.964   4.237   9.459 -0.9114 -0.4531 -0.1135
  473MOL0     O63728   1.037   4.181   9.356  0.7060 -0.1485  0.5342
  473MOL0     C63729   1.023   4.044   9.325  0.5771  0.1802  0.0855
  473MOL0     C63730   1.106   4.009   9.198 -0.0823  1.4234  0.4333
  473MOL0     C63731   1.076   4.079   9.068 -0.8376  0.7744  0.6146
  473MOL0     C63732   0.928   4.057   9.017 -0.8628  0.1470 -0.6143
  473MOL0     C63733   0.910   4.158   8.906  0.8435 -0.0159 -0.1904
  473MOL0     C63734   0.769   4.172   8.852  0.4506  1.4050 -0.0624
  473MOL0     C63735   0.693   4.043   8.801  0.4186  0.2646  0.1665
  473MOL0     C63736   0.561   4.054   8.724 -0.1634 -0.5571  0.3034
  473MOL0     N63737   0.526   3.921   8.665 -0.0407 -0.4122  0.5609
  473MOL0     C63738   0.475   3.898   8.537 -0.8360  0.1380 -0.4064
  473MOL0     C63739   0.454   3.764   8.527  0.8166  1.3169 -0.7623
  473MOL0     C63740   0.381   3.684   8.417  0.3290  0.9225  0.5979
  473MOL0     C63741   0.458   3.670   8.282 -0.5882  0.3510  0.2762
  473MOL0     C63742   0.436   3.789   8.198  0.1091 -0.3586  1.3277
  473MOL0     C63743   0.304   3.780   8.121 -0.1473 -0.0234 -0.2391
  473MOL0     O63744   0.281   3.670   8.018 -0.1372 -0.0991 -0.8402
  473MOL0     C63745   0.165   3.594   8.009  0.2290  0.5339  0.0707
  473MOL0     C63746   0.065   3.577   8.110 -0.1722 -0.9438  0.4801
  473MOL0     C63747  -0.053   3.509   8.085 -0.1850 -0.5251  0.3221
  473MOL0     C63748  -0.072   3.441   7.963  0.4319  0.0405  0.0528
  473MOL0     C63749  -0.197   3.365   7.931 -0.0280  0.0867  0.8993
  473MOL0     O63750  -0.198   3.297   7.815  0.2692  0.2462  0.7342
  473MOL0     C63751  -0.316   3.243   7.756  0.0495  0.3623 -0.2845
  473MOL0     C63752  -0.402   3.152   7.806 -0.6286  0.1428 -0.5961
  473MOL0     C63753  -0.514   3.118   7.738  0.3208 -0.0717  0.6855
  473MOL0     C63754  -0.551   3.189   7.613  0.9122  0.0958  0.6398
  473MOL0     O63755  -0.656   3.151   7.527  0.4610 -0.9885  0.6674
  473MOL0     C63756  -0.671   3.017   7.494  0.4468  0.7417 -0.3689
  473MOL0     C63757  -0.791   2.996   7.403  0.1317  0.5268 -0.0553
  473MOL0     C63758  -0.773   3.048   7.263 -0.0452 -0.6397 -0.0779
  473MOL0     C63759  -0.894   3.038   7.179  0.7675 -0.8490  0.1166
  473MOL0     C63760  -0.990   3.164   7.184  0.4166  0.7848 -0.0455
  473MOL0     C63761  -1.116   3.136   7.098  1.3675  0.0573  0.7160
  473MOL0     C63762  -1.205   3.265   7.078 -1.3435  0.4226 -0.1009
  473MOL0     C63763  -1.317   3.240   6.988  1.1212  0.6425 -0.1649
  473MOL0    Cl63764  -1.433   3.123   7.069 -0.2532  0.7616  0.1642
  473MOL0     C63765  -0.460   3.277   7.556  0.3562  0.2412 -0.4446
  473MOL0     C63766  -0.335   3.295   7.626 -0.0933 -0.0710  0.0454
  473MOL0     O63767  -0.292   3.377   8.014 -0.4313  0.2107 -0.1002
  473MOL0     C63768   0.030   3.445   7.872 -0.0152  0.4413  0.9390
  473MOL0     C63769   0.145   3.513   7.894 -0.4976 -0.5654  0.6928
  473MOL0     N63770   0.492   3.700   8.657  0.2855 -0.2101 -0.3887
  473MOL0     N63771   0.523   3.799   8.738  0.2946  0.2507 -0.6487
  473MOL0     C63772   0.858   4.168   9.520  0.3060  0.5302  0.2573
  473MOL0     C63773   0.786   4.231   9.623  0.4205  0.7881 -0.1807
  473MOL0     C63774   0.649   4.618   9.865 -0.3019  0.5260 -0.8844
  473MOL0     C63775   0.660   4.560   9.999 -0.7030  0.7031  1.0690
  473MOL0     C63776   0.639   4.630  10.112 -0.1403 -0.0914  0.1951
  473MOL0     C63777   0.583   4.749  10.114 -0.1577  0.7132  0.2948
  473MOL0     O63778   0.558   4.799  10.237  0.0118 -0.9186 -0.0666
  473MOL0     C63779   0.473   4.913  10.245 -0.0571  0.4984 -0.1403
  473MOL0     C63780   0.403   4.913  10.377  1.8445 -0.5323 -1.4128
  473MOL0     C63781   0.250   4.876  10.388  0.5982 -0.7013 -0.2178
  473MOL0     C63782   0.192   4.870  10.535  0.3247 -0.1856 -0.2859
  473MOL0     C63783   0.051   4.907  10.534 -0.2512 -0.0880  1.0590
  473MOL0     C63784  -0.062   4.940  10.550  0.0884  0.2916 -0.5926
  473MOL0     C63785   0.557   4.809   9.986  0.0242 -0.0619  0.3558
  473MOL0     C63786   0.589   4.748   9.865 -1.3405  0.6058 -0.3694
  473MOL0     C63787   0.549   4.830   9.747  0.1375 -0.2434 -0.3140
  473MOL0     H63788   0.945   4.526   9.645 -1.2444  1.2167 -1.8371
  473MOL0     H63789   1.078   4.408   9.455  0.8395 -2.0293  1.6310
  473MOL0     H63790   1.070   3.975   9.396  2.8013 -1.0255 -2.3557
  473MOL0     H63791   0.921   4.011   9.306  0.7683  0.6631 -2.0716
  473MOL0     H63792   1.097   3.901   9.182 -1.6152  1.6889 -0.7894
  473MOL0     H63793   1.212   4.029   9.213  0.5244  0.6256 -2.2165
  473MOL0     H63794   1.148   4.054   8.990 -2.3958 -0.9791 -0.3593
  473MOL0     H63795   1.078   4.188   9.082 -3.8781  0.9111  0.7621
  473MOL0     H63796   0.916   3.953   8.985 -0.1705 -0.2761  0.4314
  473MOL0     H63797   0.851   4.066   9.093  1.3763  1.8942  1.6444
  473MOL0     H63798   0.942   4.255   8.945 -1.3968  0.8884 -0.4370
  473MOL0     H63799   0.969   4.121   8.822 -1.3371 -0.1518 -1.7717
  473MOL0     H63800   0.711   4.221   8.930  0.8452  1.0490  0.4624
  473MOL0     H63801   0.762   4.247   8.773  0.4814 -0.0330 -1.4734
  473MOL0     H63802   0.671   3.978   8.887 -0.6173 -1.3239 -1.2335
  473MOL0     H63803   0.750   3.976   8.736 -2.0815  0.1752 -2.1394
  473MOL0     H63804   0.479   4.089   8.787  0.6031 -0.6725  1.3910
  473MOL0     H63805   0.573   4.126   8.642 -3.0762 -1.4147 -1.0170
  473MOL0     H63806   0.450   3.975   8.465  0.0964  0.0741 -0.8126
  473MOL0     H63807   0.365   3.588   8.468 -1.0842 -0.6652 -2.5126
  473MOL0     H63808   0.285   3.732   8.393  0.5074  0.5943 -0.9267
  473MOL0     H63809   0.565   3.661   8.301  0.7122  0.0017 -5.4192
  473MOL0     H63810   0.424   3.578   8.234  0.7271 -0.2286  0.4064
  473MOL0     H63811   0.507   3.789   8.115 -0.7644  0.3372  0.5523
  473MOL0     H63812   0.447   3.877   8.261  1.1806 -1.3198  2.5369
  473MOL0     H63813   0.301   3.873   8.063  0.4554 -0.4126 -0.9057
  473MOL0     H63814   0.229   3.787   8.200  1.8511  1.6301  1.6535
  473MOL0     H63815   0.077   3.605   8.214 -0.2475  1.5087 -0.1191
  473MOL0     H63816  -0.132   3.484   8.155 -0.9947 -0.3851 -0.5219
  473MOL0     H63817  -0.378   3.108   7.902  0.0525  3.0250  0.6647
  473MOL0     H63818  -0.577   3.037   7.771 -0.7116  1.1397  1.7853
  473MOL0     H63819  -0.587   2.975   7.438 -1.6519 -1.7253 -1.9163
  473MOL0     H63820  -0.678   2.965   7.590  2.6067  3.4892  1.4589
  473MOL0     H63821  -0.819   2.890   7.399  0.0001  0.5801 -0.6276
  473MOL0     H63822  -0.865   3.058   7.455  0.8175  2.8441 -1.7024
  473MOL0     H63823  -0.732   3.147   7.244 -0.7830  0.2391  2.4799
  473MOL0     H63824  -0.694   2.980   7.231  1.2343 -1.1471  3.6584
  473MOL0     H63825  -0.956   2.956   7.218 -0.8957  0.8212  1.1809
  473MOL0     H63826  -0.869   3.029   7.073 -2.5126 -3.8498 -0.6057
  473MOL0     H63827  -0.934   3.255   7.161  1.2335  0.4676  0.6739
  473MOL0     H63828  -1.026   3.184   7.285 -0.8352 -0.7514 -0.1408
  473MOL0     H63829  -1.091   3.104   6.997 -0.9726 -1.8169  0.6168
  473MOL0     H63830  -1.170   3.052   7.143  0.1882  1.2261  1.5589
  473MOL0     H63831  -1.147   3.346   7.033  1.3317 -0.3453  1.7133
  473MOL0     H63832  -1.222   3.307   7.177  1.0782 -0.4579  0.7733
  473MOL0     H63833  -1.375   3.332   6.976  2.8012  1.8517  0.6311
  473MOL0     H63834  -1.279   3.218   6.888  3.4087  3.2514  0.0134
  473MOL0     H63835  -0.472   3.317   7.456 -1.0126 -0.2759 -0.5042
  473MOL0     H63836  -0.255   3.349   7.577  2.1983 -4.6910 -1.9012
  473MOL0     H63837   0.027   3.381   7.784  1.2585 -2.5584  2.9016
  473MOL0     H63838   0.225   3.508   7.821 -0.0527  3.0166  0.7698
  473MOL0     H63839   0.822   4.067   9.502  1.3751  0.3991 -1.3707
  473MOL0     H63840   0.698   4.178   9.657  1.6360 -0.9927  0.3107
  473MOL0     H63841   0.695   4.457   9.995  0.1787  0.9730  1.7910
  473MOL0     H63842   0.674   4.578  10.201  2.6029  1.5700  0.2083
  473MOL0     H63843   0.389   4.894  10.178 -1.5086  1.7502  1.2336
  473MOL0     H63844   0.515   5.008  10.211 -2.9560  1.0609 -2.6113
  473MOL0     H63845   0.405   5.020  10.399  0.0461 -0.2589 -2.3882
  473MOL0     H63846   0.456   4.866  10.460  0.4809  1.0195  0.4076
  473MOL0     H63847   0.234   4.777  10.343  0.4723 -0.3365 -0.9846
  473MOL0     H63848   0.194   4.944  10.323 -4.1822 -4.1346 -0.2522
  473MOL0     H63849   0.209   4.774  10.585 -0.6487 -1.1253 -1.7109
  473MOL0     H63850   0.246   4.946  10.593 -0.4223 -0.3125  0.5975
  473MOL0     H63851  -0.162   4.968  10.578  0.6554  0.8214  1.0056
  473MOL0     H63852   0.511   4.907   9.986 -5.2539 -2.1504  2.5899
  473MOL0     H63853   0.507   4.769   9.666 -0.1601 -2.6498  1.5463
  473MOL0     H63854   0.482   4.914   9.768 -0.6249 -0.8966 -0.0638
  473MOL0     H63855   0.647   4.867   9.716 -0.2526  2.1346  1.0838
  474MOL0     O63856  10.307  10.976   1.174  0.3924 -0.2307  0.2852
  474MOL0     C63857  10.263  10.870   1.150  0.0369 -0.0101  0.1061
  474MOL0     O63858  10.317  10.780   1.054 -0.0094  0.3809  1.1148
  474MOL0     C63859  10.416  10.835   0.976 -0.9585 -0.7280  0.0466
  474MOL0     C63860  10.422  10.968   0.923  0.0954 -0.4923  1.1769
  474MOL0     C63861  10.524  10.999   0.834  0.1372 -0.4529  0.4014
  474MOL0     C63862  10.623  10.904   0.798  0.5909  0.1782  0.4271
  474MOL0     O63863  10.720  10.939   0.705  0.5383  0.7864 -0.2563
  474MOL0     C63864  10.747  10.847   0.595  0.7153  1.3506 -0.0099
  474MOL0     C63865  10.690  10.915   0.465  0.1913 -0.5622 -0.0563
  474MOL0     C63866  10.544  10.981   0.471  0.0218 -0.4431  0.0143
  474MOL0     C63867  10.430  10.886   0.494 -0.0439  0.5863 -0.3865
  474MOL0     C63868  10.295  10.959   0.462 -0.3812  0.1460  0.0945
  474MOL0     C63869  10.283  11.069   0.561  0.1550 -0.2580 -0.2822
  474MOL0     C63870  10.141  11.146   0.553 -0.8931 -0.7222 -0.1938
  474MOL0     C63871  10.143  11.274   0.633  1.2047 -0.0146  0.3193
  474MOL0     N63872  10.031  11.360   0.591  0.4173 -0.4732 -0.5879
  474MOL0     C63873   9.901  11.327   0.557 -0.0495 -0.3444 -0.7928
  474MOL0     C63874   9.839  11.440   0.526  0.1277 -0.3043 -0.0659
  474MOL0     C63875   9.693  11.449   0.507 -0.7704  0.1239  0.6912
  474MOL0     C63876   9.650  11.558   0.418 -0.5600 -1.0472  0.3551
  474MOL0     C63877   9.668  11.528   0.268 -0.7316 -0.1250  0.4053
  474MOL0     C63878   9.816  11.544   0.205  0.7382 -0.0887 -0.5284
  474MOL0     O63879   9.813  11.506   0.072 -0.5264  0.0487 -0.2221
  474MOL0     C63880   9.906  11.557  -0.016 -0.1955 -0.4126 -0.3050
  474MOL0     C63881  10.036  11.602   0.023  0.0741  0.9417  0.3115
  474MOL0     C63882  10.131  11.656  -0.062 -1.1781  0.0178 -0.1221
  474MOL0     C63883  10.104  11.667  -0.203  0.1733 -0.2519 -0.7349
  474MOL0     C63884  10.192  11.718  -0.303  0.1907  0.6642 -0.8598
  474MOL0     O63885  10.324  11.686  -0.277  0.2635  0.0295  0.5708
  474MOL0     C63886  10.423  11.767  -0.336  0.2876  0.8036 -0.9568
  474MOL0     C63887  10.419  11.892  -0.387 -0.3876  0.0325 -0.0432
  474MOL0     C63888  10.527  11.959  -0.450  0.0681 -0.0638 -0.0822
  474MOL0     C63889  10.643  11.884  -0.470 -0.4657  0.1278  0.4334
  474MOL0     O63890  10.752  11.925  -0.539  0.1673  0.1751 -0.2936
  474MOL0     C63891  10.729  11.985  -0.668 -0.3239 -0.1313 -0.5873
  474MOL0     C63892  10.863  11.989  -0.740  0.2334 -0.7918  1.1700
  474MOL0     C63893  10.984  11.903  -0.707  0.7453  0.0277 -0.6128
  474MOL0     C63894  10.960  11.749  -0.715 -0.0241 -0.5344  0.6450
  474MOL0     C63895  10.899  11.694  -0.849  0.6823 -0.0182 -0.0638
  474MOL0     C63896  10.905  11.540  -0.846 -1.0735 -0.2193  0.4337
  474MOL0     C63897  10.785  11.488  -0.776 -0.7975 -0.0475 -0.1992
  474MOL0     C63898  10.786  11.329  -0.753  0.4649 -0.8524 -0.3307
  474MOL0    Cl63899  10.907  11.273  -0.630 -0.1740  0.0184  0.1320
  474MOL0     C63900  10.659  11.758  -0.412 -0.2280  0.1067  0.0863
  474MOL0     C63901  10.548  11.699  -0.343  0.6610 -0.7128  0.8231
  474MOL0     O63902  10.152  11.773  -0.402  1.0953 -0.0808  0.1166
  474MOL0     C63903   9.988  11.619  -0.250 -0.1802 -0.1054 -0.9460
  474MOL0     C63904   9.882  11.569  -0.160 -0.4711  0.0097  0.2895
  474MOL0     N63905   9.925  11.548   0.539 -0.0515  0.1969 -0.1073
  474MOL0     N63906  10.045  11.500   0.574  0.6126 -0.6547  0.1027
  474MOL0     C63907  10.618  10.777   0.852  0.5726  0.2809  0.6928
  474MOL0     C63908  10.519  10.741   0.943  0.3394 -0.6202 -0.6423
  474MOL0     C63909  10.154  10.815   1.235  0.4532 -0.0194 -0.3518
  474MOL0     C63910  10.123  10.677   1.222  0.1109 -0.3867 -1.3535
  474MOL0     C63911  10.030  10.611   1.298  1.0980 -0.3100  0.5833
  474MOL0     C63912   9.954  10.672   1.395 -0.7356 -0.2415  0.1558
  474MOL0     O63913   9.861  10.624   1.476  0.1536 -0.5766 -0.7302
  474MOL0     C63914   9.913  10.517   1.560  0.0092  0.2447 -0.8080
  474MOL0     C63915   9.953  10.582   1.697  0.0084 -0.2578 -0.1593
  474MOL0     C63916  10.037  10.491   1.789 -0.1339 -0.1710  0.3613
  474MOL0     C63917   9.996  10.340   1.781  0.3130 -0.3384 -0.3115
  474MOL0     C63918   9.860  10.310   1.829  0.7576  0.0110  0.9258
  474MOL0     C63919   9.739  10.289   1.853 -0.1034  0.5753  0.2226
  474MOL0     C63920   9.982  10.804   1.412  0.5314 -0.5564 -1.1199
  474MOL0     C63921  10.073  10.879   1.336  0.0740 -0.1841  0.1662
  474MOL0     C63922  10.075  11.022   1.384 -0.1525 -0.6002 -0.3459
  474MOL0     H63923  10.343  11.039   0.948  0.8605  0.2848  1.4599
  474MOL0     H63924  10.544  11.095   0.788  1.0080 -1.2286 -0.9016
  474MOL0     H63925  10.856  10.837   0.587  0.6273  0.2786 -0.0460
  474MOL0     H63926  10.705  10.748   0.615  1.2353  1.3592  1.1641
  474MOL0     H63927  10.690  10.841   0.385  2.7131 -1.5362  0.7395
  474MOL0     H63928  10.774  10.978   0.435  0.8881 -2.6304 -2.8346
  474MOL0     H63929  10.528  11.035   0.378 -2.0078 -0.0705  0.5234
  474MOL0     H63930  10.565  11.054   0.550  3.4806 -1.0247 -0.2278
  474MOL0     H63931  10.445  10.792   0.441  1.1702 -1.3924  3.1568
  474MOL0     H63932  10.428  10.854   0.598 -0.9156 -0.2044 -0.6305
  474MOL0     H63933  10.284  10.990   0.358 -1.2563 -0.7479 -0.0963
  474MOL0     H63934  10.215  10.887   0.481  1.6407 -2.1376  0.3607
  474MOL0     H63935  10.298  11.034   0.663 -2.5274 -1.7483 -0.3243
  474MOL0     H63936  10.351  11.154   0.546 -0.8174  0.8507  1.1869
  474MOL0     H63937  10.068  11.077   0.596  1.2050 -0.4373  4.4124
  474MOL0     H63938  10.120  11.170   0.448 -3.3786  4.4820  1.1648
  474MOL0     H63939  10.141  11.247   0.739 -0.7622 -1.2414  0.0083
  474MOL0     H63940  10.238  11.330   0.629  1.1557  0.0558  0.0937
  474MOL0     H63941   9.853  11.230   0.566 -0.3091 -0.3698 -2.1629
  474MOL0     H63942   9.650  11.358   0.464 -2.4863  0.2669  2.0234
  474MOL0     H63943   9.648  11.468   0.605 -3.4125  4.0632 -1.0132
  474MOL0     H63944   9.543  11.573   0.436 -0.7060 -1.0644 -0.4894
  474MOL0     H63945   9.704  11.647   0.453  0.0790 -1.4014  0.2919
  474MOL0     H63946   9.600  11.598   0.218 -1.0666  1.0159  2.3648
  474MOL0     H63947   9.636  11.425   0.252  0.4997 -0.9639  2.8799
  474MOL0     H63948   9.867  11.471   0.269 -1.6247 -1.2878  0.1196
  474MOL0     H63949   9.864  11.642   0.213 -1.6838  1.1646 -0.5790
  474MOL0     H63950  10.082  11.596   0.121  1.1003  1.5370 -0.1196
  474MOL0     H63951  10.224  11.686  -0.016 -0.2496 -1.0787 -1.2156
  474MOL0     H63952  10.333  11.958  -0.380  1.7930  3.8006 -3.8664
  474MOL0     H63953  10.522  12.062  -0.482 -0.8024 -0.2380 -0.5564
  474MOL0     H63954  10.653  11.931  -0.726  0.0858 -1.0926 -0.2473
  474MOL0     H63955  10.714  12.092  -0.653  1.4249 -0.0866  1.2133
  474MOL0     H63956  10.846  11.970  -0.846  2.2147 -1.4238  0.9218
  474MOL0     H63957  10.902  12.091  -0.729  2.0725 -1.1731 -1.0495
  474MOL0     H63958  11.064  11.917  -0.780 -0.4023  1.4621 -1.6699
  474MOL0     H63959  11.021  11.923  -0.606 -1.8142  0.4454  0.3112
  474MOL0     H63960  10.896  11.735  -0.628  0.0571 -0.1056  0.7759
  474MOL0     H63961  11.050  11.691  -0.694 -0.2875 -0.5880  1.6475
  474MOL0     H63962  10.946  11.733  -0.940  0.4758  1.4795  0.4320
  474MOL0     H63963  10.792  11.718  -0.851  1.1190  2.3568  1.0096
  474MOL0     H63964  10.910  11.512  -0.951  0.7928  1.5712 -0.0306
  474MOL0     H63965  11.001  11.504  -0.808 -0.0989  2.4618  0.7348
  474MOL0     H63966  10.704  11.509  -0.845  0.9980 -0.8736 -2.7199
  474MOL0     H63967  10.778  11.535  -0.677  2.3532  0.2722 -0.0037
  474MOL0     H63968  10.694  11.286  -0.711  2.0379 -0.0562  4.6024
  474MOL0     H63969  10.799  11.295  -0.856  2.5021 -0.0257 -0.4013
  474MOL0     H63970  10.739  11.694  -0.448  1.4723  1.1284  1.8723
  474MOL0     H63971  10.556  11.597  -0.309  4.3343 -0.7083  0.4063
  474MOL0     H63972   9.958  11.618  -0.354 -1.3545  1.6984 -0.6610
  474MOL0     H63973   9.793  11.537  -0.214  0.4827  1.1212 -2.1136
  474MOL0     H63974  10.691  10.701   0.825 -0.6182 -0.5726 -0.1935
  474MOL0     H63975  10.506  10.649   0.999 -0.0738  0.4239  1.0593
  474MOL0     H63976  10.182  10.622   1.150  1.9630  2.8204 -2.5046
  474MOL0     H63977  10.015  10.505   1.279 -2.3373  0.1892 -0.1256
  474MOL0     H63978  10.007  10.479   1.517  2.5105  3.8348  0.9539
  474MOL0     H63979   9.838  10.437   1.567  0.0600  0.0300 -2.3785
  474MOL0     H63980   9.867  10.608   1.759  0.0945  1.3300 -0.6614
  474MOL0     H63981  10.007  10.675   1.679 -2.3574  1.1602 -0.3974
  474MOL0     H63982  10.022  10.539   1.886  0.5655  1.5621 -0.3612
  474MOL0     H63983  10.139  10.513   1.757 -0.7286  1.5110 -0.4910
  474MOL0     H63984  10.009  10.304   1.679  0.7649  0.9745 -0.7466
  474MOL0     H63985  10.067  10.287   1.846 -0.1459 -2.3461 -1.3721
  474MOL0     H63986   9.635  10.268   1.870  0.1018  1.3751  2.8227
  474MOL0     H63987   9.922  10.854   1.488  2.7781  2.4343 -1.1225
  474MOL0     H63988   9.978  11.061   1.414 -0.0085 -0.2554 -0.3197
  474MOL0     H63989  10.150  11.020   1.463  1.4051  0.2129 -1.7247
  474MOL0     H63990  10.098  11.088   1.300  1.0625 -0.4147  0.1015
  475MOL0     O63991   5.214   9.435   5.342  0.3102 -0.3946  1.2983
  475MOL0     C63992   5.174   9.480   5.235  0.5950  0.1547  0.6334
  475MOL0     O63993   5.262   9.534   5.141 -0.5570  0.3602 -0.0904
  475MOL0     C63994   5.398   9.528   5.157  0.9227 -0.7438  1.1186
  475MOL0     C63995   5.465   9.581   5.051 -0.1939  0.2458  0.0595
  475MOL0     C63996   5.604   9.568   5.043 -0.1889 -0.8425  0.6790
  475MOL0     C63997   5.687   9.527   5.140  0.3294  0.2287 -0.0300
  475MOL0     O63998   5.819   9.538   5.125  0.3940  0.1887 -0.5503
  475MOL0     C63999   5.911   9.483   5.215  0.4360  0.6194  0.7157
  475MOL0     C64000   6.014   9.409   5.136  0.6243  0.2329  0.0861
  475MOL0     C64001   6.111   9.510   5.069  0.3957 -0.0792 -0.4690
  475MOL0     C64002   6.221   9.428   5.007 -0.2952  0.5374 -0.6242
  475MOL0     C64003   6.356   9.497   4.987 -1.0508 -0.3216 -0.6606
  475MOL0     C64004   6.366   9.624   4.901 -0.3367 -0.5989 -0.5997
  475MOL0     C64005   6.496   9.713   4.915  0.6969 -0.2180  0.0787
  475MOL0     C64006   6.622   9.638   4.879 -0.3880  0.1449 -0.4093
  475MOL0     N64007   6.721   9.744   4.854 -0.7852  0.5657 -0.5924
  475MOL0     C64008   6.776   9.814   4.958 -0.4745 -0.1734  0.0542
  475MOL0     C64009   6.838   9.929   4.904 -0.1310  0.2609 -0.2429
  475MOL0     C64010   6.917  10.032   4.978 -0.2524  0.4555 -0.4527
  475MOL0     C64011   6.837  10.161   5.000 -0.0332 -0.9554  1.2472
  475MOL0     C64012   6.862  10.253   4.873 -0.3781  0.1843  0.3205
  475MOL0     C64013   6.756  10.364   4.851 -0.2960  0.6971 -0.4717
  475MOL0     O64014   6.746  10.445   4.976  0.3868 -0.0355 -0.1193
  475MOL0     C64015   6.665  10.549   4.977 -0.2770 -0.1610  0.6688
  475MOL0     C64016   6.563  10.555   4.892 -0.5626  0.3842  0.8453
  475MOL0     C64017   6.472  10.657   4.915  0.4239 -0.6151 -0.4083
  475MOL0     C64018   6.480  10.744   5.027  0.2925 -0.8549  0.9634
  475MOL0     C64019   6.379  10.857   5.053 -0.6133 -0.9351 -0.8718
  475MOL0     O64020   6.377  10.893   5.189 -0.4476 -0.2404 -0.2073
  475MOL0     C64021   6.323  11.012   5.217  0.4879 -0.0804  0.3601
  475MOL0     C64022   6.384  11.139   5.212 -0.2329  0.2743  0.7661
  475MOL0     C64023   6.332  11.241   5.284 -0.3980 -0.4179  0.0450
  475MOL0     C64024   6.203  11.241   5.339  0.2030  0.8173  0.0529
  475MOL0     O64025   6.163  11.360   5.394 -0.3635 -0.0154  0.5775
  475MOL0     C64026   6.196  11.366   5.533  0.2366  0.0575  1.1480
  475MOL0     C64027   6.153  11.501   5.593 -0.4257  1.3300 -0.5329
  475MOL0     C64028   6.199  11.508   5.742 -0.7537 -0.1117  0.4178
  475MOL0     C64029   6.353  11.499   5.756 -0.5951  0.7675  0.0645
  475MOL0     C64030   6.396  11.517   5.906 -0.1914 -0.6475  0.2499
  475MOL0     C64031   6.541  11.519   5.918  0.4025  0.3431 -1.7460
  475MOL0     C64032   6.608  11.372   5.900  0.6281 -0.3076  0.0724
  475MOL0     C64033   6.751  11.376   5.868 -0.4248 -0.0639 -0.3545
  475MOL0    Cl64034   6.779  11.473   5.720 -0.0981 -0.7248  0.4027
  475MOL0     C64035   6.130  11.128   5.326 -0.5226 -0.6837  0.0262
  475MOL0     C64036   6.190  11.015   5.266 -1.4314  0.8307 -0.3189
  475MOL0     O64037   6.293  10.877   4.967 -0.0970 -0.1571  0.1218
  475MOL0     C64038   6.579  10.719   5.124  0.5304 -0.5053  0.6758
  475MOL0     C64039   6.676  10.632   5.095  0.6794  0.4978  1.0159
  475MOL0     N64040   6.849   9.901   4.770 -0.6232  0.6572  0.0054
  475MOL0     N64041   6.776   9.793   4.740 -0.6010 -0.0985  0.4564
  475MOL0     C64042   5.610   9.485   5.262 -0.2822 -0.3987 -0.3109
  475MOL0     C64043   5.471   9.482   5.266 -0.0306 -0.3924  0.3856
  475MOL0     C64044   5.033   9.461   5.205 -0.1463  0.7356 -0.0200
  475MOL0     C64045   4.952   9.398   5.292 -0.8021 -0.2131  0.0757
  475MOL0     C64046   4.812   9.387   5.279 -0.8863 -0.6418 -0.3777
  475MOL0     C64047   4.745   9.454   5.174 -0.5355  0.2736 -0.0323
  475MOL0     O64048   4.604   9.446   5.161 -0.0899 -0.5626  0.4033
  475MOL0     C64049   4.537   9.326   5.190  0.3498  0.8547 -0.1288
  475MOL0     C64050   4.386   9.330   5.148 -0.4750  0.7348 -0.3319
  475MOL0     C64051   4.346   9.387   5.006  0.1691  0.1934 -0.5509
  475MOL0     C64052   4.307   9.544   5.021 -0.9594  0.6888  0.9663
  475MOL0     C64053   4.252   9.587   4.890 -0.3800 -0.1433  0.7694
  475MOL0     C64054   4.220   9.625   4.781  0.5527 -0.5493 -0.1177
  475MOL0     C64055   4.828   9.522   5.081 -0.4896  0.7577  0.0008
  475MOL0     C64056   4.968   9.530   5.102  0.8052 -0.0825  0.6152
  475MOL0     C64057   5.032   9.619   5.005 -1.2886 -0.6373  0.5960
  475MOL0     H64058   5.407   9.632   4.975 -0.0277  0.8754  0.3543
  475MOL0     H64059   5.651   9.614   4.957 -2.2632  1.5125  0.6782
  475MOL0     H64060   5.955   9.569   5.265  0.3839  1.8616 -1.2578
  475MOL0     H64061   5.863   9.413   5.284 -1.1832  0.0938 -0.8439
  475MOL0     H64062   5.984   9.337   5.060  0.9366 -0.3377  0.4908
  475MOL0     H64063   6.068   9.353   5.214  2.2372  0.3856 -0.8735
  475MOL0     H64064   6.152   9.578   5.144  1.7912 -0.5190 -0.7979
  475MOL0     H64065   6.071   9.566   4.984 -0.0384 -0.5405 -0.5746
  475MOL0     H64066   6.233   9.343   5.075 -0.4107  0.3137 -0.8817
  475MOL0     H64067   6.187   9.374   4.918 -2.4528 -0.0982  0.5157
  475MOL0     H64068   6.391   9.528   5.086 -2.3691 -0.0362 -0.2676
  475MOL0     H64069   6.424   9.423   4.945  0.5840  0.0751  1.1663
  475MOL0     H64070   6.349   9.602   4.796 -2.1139  0.0104 -0.4763
  475MOL0     H64071   6.289   9.699   4.922 -0.1344 -0.2099 -1.2330
  475MOL0     H64072   6.512   9.748   5.017 -2.4137  2.4457 -0.1979
  475MOL0     H64073   6.486   9.804   4.856  1.4615 -0.2331 -0.0883
  475MOL0     H64074   6.661   9.591   4.970  1.3342  0.6289 -0.8607
  475MOL0     H64075   6.619   9.564   4.798  0.5748 -0.7093  0.3138
  475MOL0     H64076   6.756   9.805   5.065 -2.6646 -1.1588 -0.3909
  475MOL0     H64077   6.955   9.993   5.073 -0.6973 -2.8139 -1.4776
  475MOL0     H64078   7.002  10.054   4.913 -0.9408  1.3018 -1.0768
  475MOL0     H64079   6.737  10.125   5.025 -0.9621  1.7674  1.7908
  475MOL0     H64080   6.887  10.212   5.083  1.9801 -1.1238  0.2185
  475MOL0     H64081   6.878  10.198   4.780 -4.5752  1.0643 -1.1379
  475MOL0     H64082   6.953  10.307   4.900 -1.5095  1.2332  2.2454
  475MOL0     H64083   6.658  10.316   4.844  1.2771 -3.0121  0.4583
  475MOL0     H64084   6.787  10.425   4.766 -0.4355  0.6789 -0.5361
  475MOL0     H64085   6.549  10.487   4.809 -0.1932  0.1205  0.9925
  475MOL0     H64086   6.390  10.673   4.845  0.5454 -2.7846 -1.1186
  475MOL0     H64087   6.473  11.149   5.150  2.2380 -2.7439  3.4691
  475MOL0     H64088   6.392  11.332   5.280  2.4304 -2.1791 -1.0638
  475MOL0     H64089   6.151  11.290   5.597  1.1333 -0.6827  0.9235
  475MOL0     H64090   6.305  11.373   5.530  0.2951  0.5484  3.2221
  475MOL0     H64091   6.201  11.584   5.539 -1.1882  2.0779 -0.0906
  475MOL0     H64092   6.045  11.516   5.591 -0.4439  1.7281  1.6544
  475MOL0     H64093   6.172  11.606   5.781  2.7609  1.8770 -1.6604
  475MOL0     H64094   6.155  11.418   5.787 -3.2854 -1.6012 -4.3825
  475MOL0     H64095   6.405  11.573   5.694  1.0035 -1.4408 -1.4185
  475MOL0     H64096   6.387  11.400   5.724 -2.9863  0.3694 -1.4734
  475MOL0     H64097   6.338  11.444   5.965 -3.1790  1.7953  0.6126
  475MOL0     H64098   6.337  11.602   5.942 -1.3533 -1.3500  0.0695
  475MOL0     H64099   6.591  11.589   5.852  1.4684 -2.0230 -3.6007
  475MOL0     H64100   6.563  11.541   6.023 -0.8227 -1.5212 -1.0478
  475MOL0     H64101   6.563  11.330   5.810 -0.2097 -0.5727  0.6074
  475MOL0     H64102   6.582  11.305   5.982  0.6015 -2.1798 -1.3965
  475MOL0     H64103   6.809  11.416   5.952  1.2629  1.0062 -1.9506
  475MOL0     H64104   6.792  11.280   5.837  0.6449 -0.9482  3.3253
  475MOL0     H64105   6.040  11.117   5.386 -1.3910  2.3207 -0.5527
  475MOL0     H64106   6.155  10.914   5.286 -1.5433  0.9626  0.1547
  475MOL0     H64107   6.576  10.762   5.223 -0.8595 -1.3063  1.0143
  475MOL0     H64108   6.765  10.617   5.155  1.3367 -0.2020 -0.0839
  475MOL0     H64109   5.662   9.457   5.353 -0.8175 -3.5658 -0.8527
  475MOL0     H64110   5.430   9.437   5.356  0.6379 -1.0079  0.3895
  475MOL0     H64111   4.990   9.350   5.382 -0.8798  3.2110  2.1032
  475MOL0     H64112   4.753   9.339   5.356 -1.0654  0.4030  0.1572
  475MOL0     H64113   4.551   9.302   5.296  3.3411  3.8448  0.3397
  475MOL0     H64114   4.597   9.252   5.136 -1.0761 -1.5321  1.3797
  475MOL0     H64115   4.336   9.381   5.230 -2.8847 -1.3156 -0.4066
  475MOL0     H64116   4.345   9.229   5.150  0.1591  0.4437 -1.0650
  475MOL0     H64117   4.261   9.326   4.975 -0.0806 -0.1016  0.6540
  475MOL0     H64118   4.429   9.375   4.936 -0.7574 -1.6175 -1.4275
  475MOL0     H64119   4.232   9.556   5.100 -0.2204 -0.1243  1.8254
  475MOL0     H64120   4.399   9.601   5.038 -0.5023  1.2489 -2.6534
  475MOL0     H64121   4.184   9.672   4.691 -0.0023  3.1309  1.8314
  475MOL0     H64122   4.776   9.557   4.993 -2.2564 -1.9479 -0.1526
  475MOL0     H64123   5.060   9.708   5.061 -0.4952  0.0927 -0.8835
  475MOL0     H64124   5.115   9.578   4.947  0.1644  1.5563  1.0234
  475MOL0     H64125   4.965   9.650   4.924  0.3030  1.1532 -0.1103
  476MOL0     O64126   8.973   3.710  10.921  0.2693  1.0741 -0.8232
  476MOL0     C64127   8.969   3.645  11.024  0.3251  0.5883 -0.4899
  476MOL0     O64128   9.023   3.685  11.147 -0.6750  0.2678  0.4495
  476MOL0     C64129   9.078   3.804  11.153  0.2804 -0.4022  0.0620
  476MOL0     C64130   8.999   3.910  11.197  0.9531 -0.0565  0.8318
  476MOL0     C64131   9.051   4.036  11.220 -0.0751 -0.2101  0.5526
  476MOL0     C64132   9.192   4.051  11.223 -0.3748 -0.6002 -0.3058
  476MOL0     O64133   9.243   4.168  11.254  0.1466 -0.1149 -0.1294
  476MOL0     C64134   9.302   4.229  11.139 -0.3445  0.0974 -0.4776
  476MOL0     C64135   9.352   4.371  11.161  0.0675 -0.1181 -0.4977
  476MOL0     C64136   9.470   4.397  11.072  0.3603  0.2478 -0.8884
  476MOL0     C64137   9.528   4.532  11.112 -0.3246  0.3128 -0.5133
  476MOL0     C64138   9.659   4.560  11.042  0.1532 -1.3848 -0.3982
  476MOL0     C64139   9.710   4.711  11.077  0.7680  0.1556  0.6923
  476MOL0     C64140   9.813   4.748  10.959  1.2684  0.4392  0.1228
  476MOL0     C64141   9.835   4.898  10.968 -0.3454 -0.4879 -0.9007
  476MOL0     N64142   9.935   4.936  10.867 -0.4235  0.0804 -0.6948
  476MOL0     C64143  10.070   4.887  10.864  0.3613  0.5657 -0.6753
  476MOL0     C64144  10.116   4.933  10.745 -0.6930  0.5606 -0.1271
  476MOL0     C64145  10.256   4.941  10.694  0.1218  0.1601 -0.2838
  476MOL0     C64146  10.357   4.829  10.727 -0.2171  0.0406 -0.2833
  476MOL0     C64147  10.298   4.689  10.714 -0.3484  0.8955 -0.4384
  476MOL0     C64148  10.398   4.590  10.670 -0.5234 -0.5062  1.2895
  476MOL0     O64149  10.419   4.603  10.531  0.2668 -0.1574 -0.0014
  476MOL0     C64150  10.534   4.534  10.484 -0.6881 -0.0420  0.2111
  476MOL0     C64151  10.629   4.622  10.434 -0.1645  0.0062  0.5130
  476MOL0     C64152  10.740   4.570  10.363  0.0719 -0.1601  1.1004
  476MOL0     C64153  10.756   4.432  10.365 -0.4546 -0.1809 -0.7308
  476MOL0     C64154  10.873   4.384  10.304  0.6874 -0.1265 -0.1851
  476MOL0     O64155  10.973   4.475  10.263  0.2488 -0.0667  0.3405
  476MOL0     C64156  11.067   4.421  10.176  0.2014  0.3103  0.6574
  476MOL0     C64157  11.070   4.458  10.046 -0.4080 -0.4413 -0.7528
  476MOL0     C64158  11.164   4.405   9.957 -0.4347  0.2530 -0.5134
  476MOL0     C64159  11.250   4.305   9.996  0.4462 -0.2097 -0.4633
  476MOL0     O64160  11.336   4.248   9.899 -0.7349 -0.8197  0.5653
  476MOL0     C64161  11.376   4.114   9.928  0.0472 -0.6919  1.1403
  476MOL0     C64162  11.436   4.053   9.805  0.5387  0.4998  0.7316
  476MOL0     C64163  11.559   4.127   9.765  0.6764 -0.7292  0.4730
  476MOL0     C64164  11.676   4.029   9.731  0.2954 -0.5429 -0.4375
  476MOL0     C64165  11.786   4.097   9.643  0.1573  0.1896 -0.9072
  476MOL0     C64166  11.894   3.999   9.595 -0.2221 -0.2903 -0.1203
  476MOL0     C64167  11.978   3.938   9.707 -0.3237  0.2067 -0.0020
  476MOL0     C64168  12.056   3.810   9.655 -0.2797  0.0913 -0.4317
  476MOL0    Cl64169  12.020   3.675   9.764 -0.4639  0.4343 -0.1446
  476MOL0     C64170  11.235   4.260  10.133 -0.5276  0.7270 -0.0158
  476MOL0     C64171  11.147   4.311  10.217 -0.1979  0.7909 -0.4840
  476MOL0     O64172  10.868   4.258  10.279  0.3388  0.4469  0.3782
  476MOL0     C64173  10.665   4.341  10.431 -0.4931 -0.8010 -0.2841
  476MOL0     C64174  10.548   4.394  10.484 -0.3763 -0.2532 -1.3088
  476MOL0     N64175  10.001   4.976  10.671  0.0462  0.3322 -0.0551
  476MOL0     N64176   9.897   4.988  10.743 -0.4122  0.3987  0.0112
  476MOL0     C64177   9.276   3.948  11.183 -0.6214 -0.2848  0.3657
  476MOL0     C64178   9.223   3.826  11.151  0.4020 -0.6434 -0.1074
  476MOL0     C64179   8.885   3.517  11.023 -0.2382 -0.5719 -0.5180
  476MOL0     C64180   8.880   3.443  11.144 -0.2388  0.6504 -0.6396
  476MOL0     C64181   8.809   3.321  11.154  0.4013  0.9007 -0.1662
  476MOL0     C64182   8.746   3.269  11.045  0.8523 -0.0545 -1.1012
  476MOL0     O64183   8.680   3.143  11.055  0.3025 -0.2444  0.7010
  476MOL0     C64184   8.577   3.103  10.960 -0.3907 -0.8345  0.3417
  476MOL0     C64185   8.501   2.995  11.030 -0.7392 -0.2459  0.1753
  476MOL0     C64186   8.371   2.973  10.962 -0.0457 -0.5372  0.9195
  476MOL0     C64187   8.378   2.886  10.833  0.0308  0.5520 -0.7058
  476MOL0     C64188   8.402   2.957  10.708 -0.4237  0.0062  0.3338
  476MOL0     C64189   8.408   3.002  10.595  0.0740  0.8380 -0.1142
  476MOL0     C64190   8.759   3.338  10.932 -0.0686 -0.0628 -0.1804
  476MOL0     C64191   8.823   3.459  10.912  0.9401  0.0322 -0.3828
  476MOL0     C64192   8.827   3.526  10.769 -0.0144 -0.5597 -0.2233
  476MOL0     H64193   8.891   3.901  11.205  0.5737  0.6457 -2.1784
  476MOL0     H64194   8.982   4.113  11.251 -0.0498 -0.0627  0.2500
  476MOL0     H64195   9.378   4.159  11.102 -1.3541 -1.5711  0.4667
  476MOL0     H64196   9.227   4.248  11.061 -0.1058 -1.8744 -1.2481
  476MOL0     H64197   9.379   4.373  11.267  0.8437 -2.2826 -0.5986
  476MOL0     H64198   9.271   4.443  11.145  0.9271  1.0054  0.0295
  476MOL0     H64199   9.442   4.388  10.967  0.7740  0.7296 -1.0464
  476MOL0     H64200   9.551   4.329  11.100  1.5089  2.3898  1.4122
  476MOL0     H64201   9.461   4.616  11.090  1.0536  1.1914 -1.5196
  476MOL0     H64202   9.561   4.524  11.216  2.3789  0.5923 -1.2909
  476MOL0     H64203   9.729   4.484  11.079 -0.4674 -0.7514  2.2973
  476MOL0     H64204   9.638   4.554  10.935 -1.8675  4.6124 -0.6762
  476MOL0     H64205   9.637   4.792  11.080 -0.1947 -0.5821 -1.0767
  476MOL0     H64206   9.767   4.716  11.170  0.3257 -3.3517  1.2997
  476MOL0     H64207   9.763   4.731  10.864  0.7201 -1.9683  0.7731
  476MOL0     H64208   9.902   4.684  10.960  1.7043  0.7987 -3.5734
  476MOL0     H64209   9.737   4.946  10.956 -1.4489 -1.1731  3.6652
  476MOL0     H64210   9.871   4.932  11.065 -0.8976 -2.8972  0.2150
  476MOL0     H64211  10.123   4.845  10.950 -2.0262  0.2552  0.7511
  476MOL0     H64212  10.243   4.935  10.586 -2.0574 -2.2577  0.0163
  476MOL0     H64213  10.295   5.040  10.717 -1.5432  0.6478  0.6478
  476MOL0     H64214  10.433   4.856  10.653 -1.2045  1.5617 -0.7789
  476MOL0     H64215  10.397   4.840  10.828 -2.0324 -1.1124  0.6184
  476MOL0     H64216  10.212   4.692  10.646 -1.0431  0.2386  0.3820
  476MOL0     H64217  10.255   4.657  10.809 -1.1483  0.2327 -1.0069
  476MOL0     H64218  10.373   4.485  10.689  0.6976 -0.7671  1.5890
  476MOL0     H64219  10.491   4.603  10.726 -1.6401 -0.6594  3.2783
  476MOL0     H64220  10.603   4.727  10.445 -2.3780 -0.2004 -1.9263
  476MOL0     H64221  10.805   4.636  10.306  0.6980  0.5667  2.5815
  476MOL0     H64222  11.008   4.530   9.994 -2.0459 -2.8828 -2.3822
  476MOL0     H64223  11.163   4.431   9.851 -1.2211  0.8973 -0.3588
  476MOL0     H64224  11.455   4.111  10.004  0.3239 -0.9596  0.8433
  476MOL0     H64225  11.293   4.046   9.948 -0.2998 -0.5870  0.0868
  476MOL0     H64226  11.443   3.946   9.827 -2.5223 -0.5125 -2.3541
  476MOL0     H64227  11.365   4.063   9.722  2.9051  0.3332 -1.4076
  476MOL0     H64228  11.545   4.203   9.688 -0.0875 -0.7882  0.5467
  476MOL0     H64229  11.600   4.177   9.853 -1.6075  0.5377  0.8702
  476MOL0     H64230  11.630   3.950   9.670 -0.4615 -0.2423 -0.2758
  476MOL0     H64231  11.729   3.995   9.820 -0.7741 -1.1609 -0.0165
  476MOL0     H64232  11.827   4.175   9.708 -2.0220  0.7698 -0.1335
  476MOL0     H64233  11.739   4.142   9.554  1.8684  0.4161 -1.7312
  476MOL0     H64234  11.848   3.930   9.524 -0.9998  0.5764 -0.4704
  476MOL0     H64235  11.973   4.058   9.547 -0.1945 -0.1553  0.0898
  476MOL0     H64236  11.899   3.908   9.777 -2.2676  2.4390 -1.0604
  476MOL0     H64237  12.042   4.000   9.770  0.6441  1.1423 -1.8257
  476MOL0     H64238  12.011   3.782   9.560  0.7579  0.0479 -0.9251
  476MOL0     H64239  12.162   3.839   9.650 -0.1259  0.8536  3.7040
  476MOL0     H64240  11.303   4.180  10.163 -1.1548 -0.0967 -0.7313
  476MOL0     H64241  11.138   4.268  10.316 -3.4279  0.2195 -0.9203
  476MOL0     H64242  10.692   4.235  10.435  3.5042  0.0057 -1.4565
  476MOL0     H64243  10.463   4.336  10.520  0.0205  0.8674  1.6720
  476MOL0     H64244   9.383   3.963  11.180 -0.5372 -0.2870  2.0372
  476MOL0     H64245   9.298   3.749  11.140 -0.5736 -1.3858 -1.9032
  476MOL0     H64246   8.915   3.469  11.243 -1.4206 -1.0335  0.2778
  476MOL0     H64247   8.809   3.264  11.246 -0.6718  1.2133  0.0421
  476MOL0     H64248   8.625   3.067  10.868 -0.2853  0.7501 -0.2500
  476MOL0     H64249   8.516   3.193  10.953  0.7069  0.0594  1.7395
  476MOL0     H64250   8.480   3.037  11.128 -2.0920 -1.7884  0.6001
  476MOL0     H64251   8.571   2.910  11.034  1.8336  1.7106 -0.6185
  476MOL0     H64252   8.318   3.067  10.946 -1.8434 -1.4196  1.4533
  476MOL0     H64253   8.304   2.923  11.033 -0.0774 -1.5660  0.1953
  476MOL0     H64254   8.453   2.809  10.849 -1.6231 -0.9506  0.2030
  476MOL0     H64255   8.278   2.841  10.826 -1.0690  1.5835  4.4709
  476MOL0     H64256   8.401   3.052  10.500  0.9715  0.3771 -0.4309
  476MOL0     H64257   8.711   3.303  10.841  1.0242  1.1033 -1.2523
  476MOL0     H64258   8.776   3.623  10.770 -1.0068 -0.9894 -2.5861
  476MOL0     H64259   8.930   3.542  10.738 -1.0479 -0.6233 -4.2474
  476MOL0     H64260   8.774   3.471  10.691 -5.1542 -0.3982  2.6874
  477MOL0     O64261   2.359   8.847   7.328 -0.1275  0.7205 -0.1174
  477MOL0     C64262   2.313   8.886   7.433 -0.7246 -0.3611 -0.2501
  477MOL0     O64263   2.378   8.867   7.559 -0.2291  0.7603 -0.0662
  477MOL0     C64264   2.516   8.860   7.554  0.7895  0.0392 -0.2897
  477MOL0     C64265   2.604   8.945   7.477  0.5174 -0.3180  0.2029
  477MOL0     C64266   2.741   8.941   7.486 -0.5782  0.0365  0.3628
  477MOL0     C64267   2.796   8.850   7.573 -0.1077 -0.3099  0.5639
  477MOL0     O64268   2.933   8.843   7.597 -0.4669 -0.6252  0.6564
  477MOL0     C64269   3.016   8.967   7.582 -0.0301  0.1496 -0.8738
  477MOL0     C64270   2.968   9.092   7.653  0.0186  0.2233  0.0431
  477MOL0     C64271   3.062   9.210   7.642 -0.2485  0.3189 -0.3771
  477MOL0     C64272   3.165   9.200   7.762 -0.0321 -0.8089 -1.6109
  477MOL0     C64273   3.270   9.306   7.753 -0.8303 -0.9857 -0.5485
  477MOL0     C64274   3.385   9.262   7.657 -0.2815  0.1254 -0.1908
  477MOL0     C64275   3.496   9.180   7.711  0.0452  0.1572 -0.0749
  477MOL0     C64276   3.632   9.226   7.659  0.0183 -0.3610 -0.1889
  477MOL0     N64277   3.745   9.139   7.713 -0.0717 -0.0438 -0.4817
  477MOL0     C64278   3.807   9.149   7.825 -0.5165 -0.5432 -0.5847
  477MOL0     C64279   3.905   9.062   7.830  0.2116 -0.5641  0.0458
  477MOL0     C64280   4.016   9.041   7.932  0.4168  0.4793  0.1315
  477MOL0     C64281   4.152   9.007   7.867  0.0556  0.6298  0.3941
  477MOL0     C64282   4.164   8.864   7.812 -0.2245  0.4834 -0.0710
  477MOL0     C64283   4.303   8.835   7.744  0.5258 -0.1469  0.0461
  477MOL0     O64284   4.333   8.696   7.745  0.4770  0.3125 -0.9595
  477MOL0     C64285   4.251   8.619   7.672 -0.2654 -0.3585  0.0510
  477MOL0     C64286   4.187   8.506   7.736 -0.1034  0.0518 -0.0396
  477MOL0     C64287   4.116   8.414   7.656 -0.4941 -0.7986  0.7519
  477MOL0     C64288   4.108   8.422   7.518  0.8264 -0.8227 -0.3713
  477MOL0     C64289   4.056   8.314   7.437  0.2040 -0.4524 -0.0952
  477MOL0     O64290   4.044   8.189   7.490  0.4773 -0.6651  0.0655
  477MOL0     C64291   3.990   8.084   7.416  0.4978  0.7476 -0.2472
  477MOL0     C64292   3.888   8.013   7.483  0.1334  0.5438 -0.4461
  477MOL0     C64293   3.815   7.916   7.410  0.4285  0.7299 -0.1684
  477MOL0     C64294   3.855   7.873   7.279 -1.1928  0.1246 -0.0592
  477MOL0     O64295   3.791   7.774   7.215  0.8154 -0.0802  0.4506
  477MOL0     C64296   3.652   7.727   7.246 -0.3718  0.4611  0.6797
  477MOL0     C64297   3.649   7.595   7.332  0.0558 -0.0603 -0.9595
  477MOL0     C64298   3.514   7.524   7.331  0.9948  1.1441  0.6623
  477MOL0     C64299   3.545   7.388   7.376  0.3913  0.5202  0.2079
  477MOL0     C64300   3.419   7.300   7.389 -0.1129 -0.0600  0.8218
  477MOL0     C64301   3.455   7.178   7.483 -0.4288  0.2944  0.9276
  477MOL0     C64302   3.339   7.091   7.502  1.3550  0.6347 -0.1013
  477MOL0     C64303   3.383   6.940   7.520  0.3901 -0.3107 -0.1741
  477MOL0    Cl64304   3.253   6.844   7.592 -0.3159 -0.4620  0.5532
  477MOL0     C64305   3.969   7.938   7.230 -0.0179 -0.7445  0.0047
  477MOL0     C64306   4.037   8.047   7.289  0.0177  0.2557 -0.6283
  477MOL0     O64307   4.018   8.343   7.325 -0.2321  0.1625 -0.0180
  477MOL0     C64308   4.158   8.541   7.461 -0.1582 -0.3335  0.0814
  477MOL0     C64309   4.228   8.640   7.534 -0.1390 -0.3899  0.5171
  477MOL0     N64310   3.893   8.984   7.713  1.0493 -0.2593 -0.7737
  477MOL0     N64311   3.793   9.033   7.644 -0.3825 -0.5638 -0.8667
  477MOL0     C64312   2.708   8.753   7.636  0.4206  0.5828 -0.4882
  477MOL0     C64313   2.570   8.772   7.644 -0.0153  0.3712 -0.3788
  477MOL0     C64314   2.170   8.904   7.432 -0.2427  0.2638 -0.5713
  477MOL0     C64315   2.111   8.984   7.325 -0.5838  0.6017 -0.1648
  477MOL0     C64316   1.974   9.015   7.321 -0.3633  0.3492  0.2760
  477MOL0     C64317   1.889   8.977   7.435 -0.5680  0.2288  0.4465
  477MOL0     O64318   1.753   8.988   7.433 -0.4862 -1.1590  0.6674
  477MOL0     C64319   1.699   9.003   7.302  0.4936 -0.6896 -0.2175
  477MOL0     C64320   1.545   8.986   7.297 -1.1099 -1.0454 -0.3559
  477MOL0     C64321   1.485   8.862   7.346  0.2080 -0.0034  0.2864
  477MOL0     C64322   1.523   8.745   7.262  0.4516  0.2849 -0.2083
  477MOL0     C64323   1.449   8.620   7.295 -0.1913 -0.6369 -0.6461
  477MOL0     C64324   1.398   8.515   7.328  0.7780  0.5668  0.5949
  477MOL0     C64325   1.951   8.896   7.540  0.6165  1.6501 -0.0615
  477MOL0     C64326   2.082   8.852   7.534 -0.3866  0.5722  0.4762
  477MOL0     C64327   2.131   8.753   7.632 -0.0492  0.1463  0.7273
  477MOL0     H64328   2.563   9.006   7.397 -0.9841 -0.1351  1.0674
  477MOL0     H64329   2.803   9.000   7.420 -1.4996  0.2884 -0.2939
  477MOL0     H64330   3.111   8.947   7.632 -0.0555 -3.2892 -1.9681
  477MOL0     H64331   3.033   8.983   7.476  1.6115 -1.8853 -0.9745
  477MOL0     H64332   2.942   9.079   7.758 -0.5783  3.5091  0.3991
  477MOL0     H64333   2.877   9.126   7.605 -0.9784  1.7594  2.8222
  477MOL0     H64334   3.007   9.304   7.648 -0.6498  0.4054 -3.6574
  477MOL0     H64335   3.121   9.204   7.550  1.1225  1.7080  0.3570
  477MOL0     H64336   3.109   9.206   7.855  0.1391 -3.0396 -1.3091
  477MOL0     H64337   3.215   9.102   7.762 -1.8605 -1.7785 -0.8128
  477MOL0     H64338   3.233   9.403   7.721 -0.3093 -0.2085  1.1043
  477MOL0     H64339   3.318   9.314   7.851  0.0419  2.0687 -1.1219
  477MOL0     H64340   3.344   9.204   7.574  0.6728 -1.3222  0.3059
  477MOL0     H64341   3.427   9.353   7.613 -1.9094  0.4014 -1.2592
  477MOL0     H64342   3.475   9.077   7.681 -0.0049 -0.8598  3.0520
  477MOL0     H64343   3.496   9.169   7.820 -2.4155 -0.7709 -0.1166
  477MOL0     H64344   3.637   9.217   7.550 -1.3460  0.5504 -0.3522
  477MOL0     H64345   3.650   9.331   7.685  2.8507 -0.0924 -2.6108
  477MOL0     H64346   3.792   9.225   7.901  0.8365  0.7101 -1.5041
  477MOL0     H64347   4.025   9.133   7.991 -2.3956 -1.0617  3.3018
  477MOL0     H64348   3.997   8.960   8.003 -1.6037 -0.6590 -1.6151
  477MOL0     H64349   4.161   9.066   7.775  1.5272 -0.1545 -0.0171
  477MOL0     H64350   4.240   9.022   7.931  1.0843 -1.7788 -0.2988
  477MOL0     H64351   4.081   8.848   7.742  0.4943  1.6734 -1.2333
  477MOL0     H64352   4.147   8.794   7.894 -1.2976  0.1678 -0.5337
  477MOL0     H64353   4.386   8.897   7.779  0.3233  0.2002 -0.0749
  477MOL0     H64354   4.300   8.871   7.641  0.2955 -0.6744 -0.1345
  477MOL0     H64355   4.214   8.488   7.840 -1.0754  0.5122  0.3130
  477MOL0     H64356   4.087   8.321   7.703 -0.1691 -2.9353 -2.9137
  477MOL0     H64357   3.856   8.051   7.580 -0.1917 -1.4348  0.2564
  477MOL0     H64358   3.740   7.860   7.466  3.0549 -0.2033  2.7615
  477MOL0     H64359   3.594   7.808   7.292  0.5320  0.9959  0.8938
  477MOL0     H64360   3.602   7.720   7.148 -1.3459 -0.1002  1.1980
  477MOL0     H64361   3.730   7.526   7.306 -0.2861 -0.1831 -1.7247
  477MOL0     H64362   3.663   7.619   7.438  2.5716 -2.6327 -0.5815
  477MOL0     H64363   3.443   7.575   7.398  0.8047 -0.1618  1.4980
  477MOL0     H64364   3.478   7.527   7.228  0.5435  0.0650  0.7691
  477MOL0     H64365   3.573   7.392   7.482 -0.4368 -1.5009  0.5441
  477MOL0     H64366   3.622   7.345   7.312 -1.4354  0.5158 -2.1482
  477MOL0     H64367   3.389   7.272   7.288 -1.8918  3.4233  0.2126
  477MOL0     H64368   3.340   7.363   7.432  0.4592 -0.4443  2.5070
  477MOL0     H64369   3.528   7.119   7.427  1.5966  3.7107 -0.3543
  477MOL0     H64370   3.499   7.207   7.579  1.1263 -0.1288  0.3830
  477MOL0     H64371   3.271   7.100   7.418 -0.0506  2.6959  1.1529
  477MOL0     H64372   3.288   7.124   7.593 -2.0321 -0.7560 -1.3692
  477MOL0     H64373   3.409   6.893   7.425  1.4440 -0.2789  0.0786
  477MOL0     H64374   3.477   6.937   7.576  1.5359 -0.0318 -1.9865
  477MOL0     H64375   3.999   7.912   7.128 -3.6025 -0.5993 -1.2259
  477MOL0     H64376   4.131   8.074   7.243 -0.4600 -2.1411 -3.2948
  477MOL0     H64377   4.147   8.543   7.353  1.0521 -2.4026 -0.1305
  477MOL0     H64378   4.244   8.736   7.487 -3.0207 -0.1253 -0.1132
  477MOL0     H64379   2.764   8.680   7.694 -1.8842 -0.5255  0.5206
  477MOL0     H64380   2.523   8.696   7.707 -1.2282  2.0969  0.8955
  477MOL0     H64381   2.167   9.027   7.243  2.1510 -3.8674 -0.9435
  477MOL0     H64382   1.937   9.065   7.232 -1.0523 -1.0366 -0.2503
  477MOL0     H64383   1.737   8.938   7.222  0.4139  3.2606 -3.7909
  477MOL0     H64384   1.724   9.105   7.272  0.6838 -0.3787  0.9509
  477MOL0     H64385   1.521   8.991   7.191  1.6922 -1.9178 -1.1185
  477MOL0     H64386   1.484   9.059   7.352 -3.7758 -4.1846  1.1663
  477MOL0     H64387   1.377   8.873   7.352  0.0992 -1.6296  3.5147
  477MOL0     H64388   1.522   8.846   7.448 -0.2502  2.0909  0.8185
  477MOL0     H64389   1.493   8.768   7.159  1.2809 -0.1554 -0.5543
  477MOL0     H64390   1.628   8.718   7.272  0.2742 -0.7529 -0.9452
  477MOL0     H64391   1.357   8.420   7.357  0.2822  1.7007  3.9735
  477MOL0     H64392   1.888   8.855   7.619 -2.5361  0.0842 -3.1435
  477MOL0     H64393   2.211   8.693   7.587  0.4119  0.8265  0.6180
  477MOL0     H64394   2.181   8.810   7.711 -0.6867 -0.3688  1.5113
  477MOL0     H64395   2.050   8.688   7.665  0.2168 -0.8891 -0.5921
  478MOL0     O64396  10.389   8.333   6.350  1.2404 -0.0763  0.3611
  478MOL0     C64397  10.295   8.349   6.272  0.6457 -0.3479 -0.0407
  478MOL0     O64398  10.274   8.278   6.155  0.1898 -0.2253  0.3985
  478MOL0     C64399  10.370   8.199   6.098  0.5412 -0.3288  0.6368
  478MOL0     C64400  10.321   8.116   5.992  0.2131  0.0888 -0.1843
  478MOL0     C64401  10.406   8.046   5.916 -0.5278 -0.1484 -0.2070
  478MOL0     C64402  10.543   8.051   5.935  0.6998 -0.3324 -0.9263
  478MOL0     O64403  10.645   7.999   5.867  0.5042 -0.2272  0.0423
  478MOL0     C64404  10.632   7.884   5.783  0.2330  1.1313  0.2328
  478MOL0     C64405  10.752   7.860   5.700 -0.2950 -0.6107 -0.5285
  478MOL0     C64406  10.751   7.729   5.614  0.5350  0.1523 -0.1539
  478MOL0     C64407  10.645   7.740   5.499  0.1196 -0.7165 -0.6374
  478MOL0     C64408  10.679   7.648   5.381  0.1050 -0.0723  0.1068
  478MOL0     C64409  10.703   7.499   5.411 -0.7357 -0.4742 -0.4265
  478MOL0     C64410  10.706   7.404   5.286 -0.5391  0.2008 -0.4413
  478MOL0     C64411  10.848   7.400   5.203 -1.0321  0.2778  0.5214
  478MOL0     N64412  10.846   7.301   5.096  0.3034 -0.6317  0.4854
  478MOL0     C64413  10.902   7.171   5.106  0.1984  0.3175 -0.0894
  478MOL0     C64414  10.928   7.125   4.975 -0.0410 -0.4008 -0.7196
  478MOL0     C64415  10.997   6.996   4.956  0.4160  0.2061  0.5270
  478MOL0     C64416  10.918   6.911   4.852 -0.6196 -0.5838 -0.8966
  478MOL0     C64417  10.795   6.852   4.915  0.6124  0.5212 -0.6979
  478MOL0     C64418  10.741   6.746   4.826 -0.1424 -0.1398  0.0770
  478MOL0     O64419  10.646   6.663   4.890  0.7428 -0.5386  0.1141
  478MOL0     C64420  10.523   6.641   4.831  0.6146 -0.0203  0.1186
  478MOL0     C64421  10.497   6.614   4.692 -0.2861 -0.6930 -0.0834
  478MOL0     C64422  10.368   6.583   4.659  0.3279 -0.0426  0.2623
  478MOL0     C64423  10.261   6.574   4.751  0.9025  0.3404  0.6750
  478MOL0     C64424  10.117   6.564   4.704 -0.6022  0.6204 -0.1852
  478MOL0     O64425  10.093   6.614   4.571 -0.2549  0.2953  0.1550
  478MOL0     C64426   9.965   6.627   4.540  0.0602 -0.4654  0.0707
  478MOL0     C64427   9.871   6.524   4.532 -0.3457 -1.0152 -0.8631
  478MOL0     C64428   9.740   6.563   4.508 -0.1770 -0.2518 -0.2785
  478MOL0     C64429   9.701   6.693   4.471  0.1402  0.4040 -0.9285
  478MOL0     O64430   9.575   6.721   4.420 -0.0755  0.1486  0.0301
  478MOL0     C64431   9.500   6.823   4.480 -0.7773 -0.0518  0.0963
  478MOL0     C64432   9.346   6.804   4.469 -1.3978 -0.2190  0.1518
  478MOL0     C64433   9.286   6.915   4.555  0.4612 -0.3753 -0.9094
  478MOL0     C64434   9.147   6.957   4.512  0.6426 -0.0184 -0.5115
  478MOL0     C64435   9.110   7.089   4.571 -0.2053 -0.5415 -0.3676
  478MOL0     C64436   8.956   7.108   4.550 -0.1071  0.1342 -0.4746
  478MOL0     C64437   8.926   7.253   4.567  0.1043  0.2900  0.0142
  478MOL0     C64438   8.779   7.275   4.575  0.2458  0.0517 -0.6369
  478MOL0    Cl64439   8.724   7.226   4.741 -0.1237 -0.2608  0.0447
  478MOL0     C64440   9.790   6.794   4.490 -0.0568  0.2273 -0.0549
  478MOL0     C64441   9.922   6.766   4.522 -0.2081  0.8863 -0.3727
  478MOL0     O64442  10.033   6.548   4.792 -0.0558 -0.0500  0.2634
  478MOL0     C64443  10.292   6.596   4.886 -0.3410  1.1013 -0.5466
  478MOL0     C64444  10.426   6.614   4.921 -0.6527  0.2302  0.2499
  478MOL0     N64445  10.901   7.230   4.891 -0.1524  0.3631 -0.5187
  478MOL0     N64446  10.862   7.328   4.960  0.6310  0.0741 -0.8320
  478MOL0     C64447  10.593   8.144   6.027 -0.1469  0.1091 -0.1723
  478MOL0     C64448  10.508   8.211   6.112 -0.7789 -0.4204 -0.2318
  478MOL0     C64449  10.178   8.425   6.314  0.3958  0.3860 -0.3665
  478MOL0     C64450  10.048   8.418   6.253  0.7341  0.5681  0.1815
  478MOL0     C64451   9.934   8.473   6.308  0.2821  0.1048 -0.7518
  478MOL0     C64452   9.939   8.540   6.431  0.3629  0.6100 -0.0609
  478MOL0     O64453   9.831   8.592   6.503  0.1303 -0.0835 -0.2828
  478MOL0     C64454   9.693   8.563   6.465  1.1003  0.2459  0.2871
  478MOL0     C64455   9.592   8.615   6.559  0.4425  0.5120 -0.5233
  478MOL0     C64456   9.455   8.563   6.523 -0.5451 -0.4376 -0.1571
  478MOL0     C64457   9.412   8.432   6.596 -0.2215 -0.7597 -0.8940
  478MOL0     C64458   9.464   8.311   6.526 -0.7340  0.0698 -0.2322
  478MOL0     C64459   9.520   8.216   6.467  0.7954  0.2335 -0.8761
  478MOL0     C64460  10.063   8.559   6.479  0.2050  0.3468  0.3362
  478MOL0     C64461  10.187   8.520   6.425 -0.1775  0.8058 -0.0199
  478MOL0     C64462  10.307   8.568   6.514  0.6095  0.7082  0.5140
  478MOL0     H64463  10.214   8.108   5.975 -0.0877 -0.3181  1.6345
  478MOL0     H64464  10.357   7.980   5.845  0.5944 -3.2213  1.6697
  478MOL0     H64465  10.601   7.798   5.843  1.1867  1.8603  1.8372
  478MOL0     H64466  10.544   7.900   5.720 -0.1724 -1.3149  0.1161
  478MOL0     H64467  10.825   7.868   5.781 -1.5136  1.9753  0.4104
  478MOL0     H64468  10.758   7.945   5.631 -1.1840  0.7423  0.9931
  478MOL0     H64469  10.746   7.640   5.676 -1.5127  1.7727  2.2008
  478MOL0     H64470  10.849   7.721   5.566 -0.7605 -2.9508 -2.6497
  478MOL0     H64471  10.544   7.717   5.533  0.6991 -2.8956 -0.2317
  478MOL0     H64472  10.658   7.842   5.462  4.8664 -0.9432 -0.2524
  478MOL0     H64473  10.604   7.662   5.303 -2.1552 -0.0855  2.1567
  478MOL0     H64474  10.772   7.691   5.344  0.4217  1.2063  2.2215
  478MOL0     H64475  10.795   7.484   5.466 -1.9560 -4.3819  0.8679
  478MOL0     H64476  10.618   7.474   5.475 -1.6653  1.3784 -0.8435
  478MOL0     H64477  10.625   7.435   5.219 -0.3811  0.8748 -0.3327
  478MOL0     H64478  10.682   7.302   5.314 -0.0558  0.2303  0.1026
  478MOL0     H64479  10.882   7.500   5.175 -2.5391  0.9729  1.0732
  478MOL0     H64480  10.927   7.372   5.274 -1.5755  1.5314  1.6623
  478MOL0     H64481  10.916   7.115   5.198 -1.5452 -1.0521 -0.6137
  478MOL0     H64482  11.099   7.006   4.918 -0.4873  1.7382 -1.7529
  478MOL0     H64483  10.998   6.938   5.049  2.1400 -1.0408 -0.2146
  478MOL0     H64484  10.890   6.972   4.765 -0.6912  1.6471  0.6067
  478MOL0     H64485  10.979   6.834   4.805  0.9736  0.4656 -0.6212
  478MOL0     H64486  10.712   6.919   4.937  1.1671  0.1878  3.0816
  478MOL0     H64487  10.830   6.800   5.005  0.7497  0.4341 -0.8014
  478MOL0     H64488  10.819   6.688   4.774 -0.3731  0.7221 -1.2963
  478MOL0     H64489  10.692   6.804   4.747 -0.2774  1.5309  1.3313
  478MOL0     H64490  10.577   6.621   4.620 -1.5932  3.8370 -1.4675
  478MOL0     H64491  10.336   6.571   4.556 -2.7238 -1.9845  1.3013
  478MOL0     H64492   9.895   6.421   4.556 -3.9863 -1.7464  0.3260
  478MOL0     H64493   9.668   6.482   4.499  1.8243 -2.2797  0.9131
  478MOL0     H64494   9.515   6.822   4.589  1.8606 -1.8168 -0.2071
  478MOL0     H64495   9.537   6.917   4.438 -2.6808  1.7684  2.1848
  478MOL0     H64496   9.321   6.821   4.364 -2.6013  1.6103  0.6981
  478MOL0     H64497   9.323   6.704   4.506  1.5104 -0.3555  1.9194
  478MOL0     H64498   9.281   6.879   4.658  0.2774 -0.0840 -0.8156
  478MOL0     H64499   9.352   7.001   4.562  1.5596 -1.3212  1.5679
  478MOL0     H64500   9.067   6.891   4.546  1.5284  0.1295  2.0539
  478MOL0     H64501   9.154   6.974   4.404  1.3504  1.7654 -0.2242
  478MOL0     H64502   9.169   7.164   4.517  0.9150 -1.4855 -0.4696
  478MOL0     H64503   9.143   7.089   4.675 -0.9865 -3.8446 -0.0214
  478MOL0     H64504   8.925   7.081   4.449 -2.0622 -0.0554  0.1405
  478MOL0     H64505   8.898   7.044   4.617  1.2162  0.3794  0.9562
  478MOL0     H64506   8.969   7.311   4.486  2.7400 -1.3536  0.1292
  478MOL0     H64507   8.967   7.299   4.657  0.5044  2.9472 -1.4261
  478MOL0     H64508   8.757   7.382   4.573 -0.1714 -0.0067  0.4017
  478MOL0     H64509   8.726   7.221   4.495  1.0513 -1.1389 -0.3967
  478MOL0     H64510   9.761   6.896   4.470 -3.0132 -0.7702 -1.5200
  478MOL0     H64511   9.994   6.845   4.537  2.8849 -2.1807  3.1770
  478MOL0     H64512  10.207   6.604   4.953 -1.1414  4.5207 -1.7792
  478MOL0     H64513  10.440   6.624   5.028 -2.0115  1.1071  0.3790
  478MOL0     H64514  10.698   8.161   6.047 -0.5566  1.1488  1.3367
  478MOL0     H64515  10.559   8.284   6.174 -0.6489 -1.2735  0.6933
  478MOL0     H64516  10.019   8.370   6.161 -0.6209 -0.0102  0.8853
  478MOL0     H64517   9.845   8.458   6.247  2.1044 -0.5804 -3.4190
  478MOL0     H64518   9.693   8.454   6.458  2.8045  0.1763  1.0624
  478MOL0     H64519   9.677   8.610   6.368  0.4693 -2.1690 -0.8641
  478MOL0     H64520   9.589   8.724   6.549 -0.7243  0.3463 -2.3724
  478MOL0     H64521   9.622   8.574   6.656 -2.6892 -3.0464 -0.8506
  478MOL0     H64522   9.446   8.545   6.415  0.3655 -2.7955  0.0919
  478MOL0     H64523   9.384   8.639   6.555  1.2595  0.0651  3.0391
  478MOL0     H64524   9.435   8.432   6.703 -1.2174  1.7712 -0.6209
  478MOL0     H64525   9.304   8.421   6.603 -0.2917  0.3565 -0.0594
  478MOL0     H64526   9.576   8.145   6.408  0.2554 -0.1033 -0.9959
  478MOL0     H64527  10.052   8.623   6.566 -4.2783 -2.4153  2.1581
  478MOL0     H64528  10.392   8.586   6.447 -0.8732  1.4892 -1.2440
  478MOL0     H64529  10.282   8.650   6.582 -3.3998  0.2921 -0.2521
  478MOL0     H64530  10.334   8.496   6.591  2.0579  0.8500  0.1694
  479MOL0     O64531   3.961   5.623   0.535 -0.3348 -0.6163 -0.4135
  479MOL0     C64532   3.963   5.584   0.652  0.0788  0.5827  0.0871
  479MOL0     O64533   3.924   5.458   0.690 -0.2687 -0.3898 -0.2577
  479MOL0     C64534   3.874   5.357   0.607  0.3073 -0.3819 -0.6942
  479MOL0     C64535   3.780   5.270   0.654  0.4076  1.5268  0.3757
  479MOL0     C64536   3.728   5.160   0.570 -0.8016 -0.4464 -0.6831
  479MOL0     C64537   3.769   5.150   0.438  0.6809  0.0077  0.0682
  479MOL0     O64538   3.720   5.051   0.356 -0.2266  0.0391  0.1498
  479MOL0     C64539   3.604   4.979   0.391  0.2452  0.1386  0.2327
  479MOL0     C64540   3.551   4.896   0.274 -0.0016 -0.2087  0.0254
  479MOL0     C64541   3.538   4.972   0.137  0.3350  0.5419 -0.2252
  479MOL0     C64542   3.569   4.876   0.018  0.0302 -0.3790  0.2518
  479MOL0     C64543   3.555   4.953  -0.112 -0.0795  0.5730  1.1527
  479MOL0     C64544   3.602   4.858  -0.227 -0.6431  0.0588  0.8886
  479MOL0     C64545   3.585   4.893  -0.372 -0.0552  1.0284 -0.3687
  479MOL0     C64546   3.649   5.026  -0.415 -0.3547  0.2407 -0.3592
  479MOL0     N64547   3.620   5.067  -0.553  0.2595  0.1150  0.3241
  479MOL0     C64548   3.634   4.990  -0.661 -0.0475  0.6499  0.2141
  479MOL0     C64549   3.570   5.058  -0.756 -0.1180 -0.1069 -0.2791
  479MOL0     C64550   3.568   5.020  -0.900 -0.3567  1.0823 -0.3921
  479MOL0     C64551   3.443   4.939  -0.943 -0.6060 -0.0301  0.6277
  479MOL0     C64552   3.414   4.802  -0.878  0.6301  1.1874 -0.0343
  479MOL0     C64553   3.273   4.744  -0.887  0.2108 -0.1307 -0.6712
  479MOL0     O64554   3.270   4.619  -0.819  0.5328  0.0278 -0.4722
  479MOL0     C64555   3.268   4.602  -0.683 -0.7966 -0.7422  0.2548
  479MOL0     C64556   3.317   4.481  -0.632 -0.8517 -0.1468 -0.3595
  479MOL0     C64557   3.340   4.463  -0.500 -0.0517 -0.8497 -0.3260
  479MOL0     C64558   3.322   4.563  -0.409 -0.3747 -0.2275  0.1865
  479MOL0     C64559   3.348   4.530  -0.264 -0.4943  0.4991  0.3881
  479MOL0     O64560   3.429   4.422  -0.238 -0.3505 -0.1211 -0.9558
  479MOL0     C64561   3.446   4.390  -0.103 -0.6999  0.2197  0.2137
  479MOL0     C64562   3.505   4.486  -0.019 -1.1157  0.6076 -0.1042
  479MOL0     C64563   3.519   4.445   0.116 -0.6840 -0.2626 -0.2460
  479MOL0     C64564   3.470   4.328   0.156 -0.0794  0.5147  0.0382
  479MOL0     O64565   3.457   4.291   0.283 -0.1432  0.2744 -0.1334
  479MOL0     C64566   3.563   4.325   0.379  0.0892 -0.3170  0.1796
  479MOL0     C64567   3.526   4.404   0.510  0.6539 -0.0932  0.2664
  479MOL0     C64568   3.647   4.463   0.598  0.5541  0.4498 -0.2623
  479MOL0     C64569   3.739   4.570   0.538  0.9568  0.3744 -0.2161
  479MOL0     C64570   3.845   4.642   0.630 -0.6740  0.8251  0.0887
  479MOL0     C64571   3.791   4.760   0.718  0.2639 -0.0825 -0.2076
  479MOL0     C64572   3.903   4.822   0.800 -0.2754 -0.4144  0.0006
  479MOL0     C64573   3.846   4.915   0.904 -0.6777 -0.1793  0.3356
  479MOL0    Cl64574   3.699   4.846   0.994  0.1208  0.0744  0.2571
  479MOL0     C64575   3.416   4.235   0.063  0.2232  0.7199 -0.2149
  479MOL0     C64576   3.393   4.267  -0.066 -0.6387 -0.0158  1.1424
  479MOL0     O64577   3.298   4.605  -0.184  0.6782  0.7756  0.2247
  479MOL0     C64578   3.253   4.683  -0.444 -0.6400  1.2776 -0.5514
  479MOL0     C64579   3.246   4.702  -0.585  0.7802  0.5389  0.0092
  479MOL0     N64580   3.524   5.179  -0.712 -0.5034  0.4048 -1.2892
  479MOL0     N64581   3.559   5.182  -0.590 -0.8009  0.0666 -0.8042
  479MOL0     C64582   3.863   5.240   0.394  0.4600  0.3355 -0.2248
  479MOL0     C64583   3.924   5.339   0.478  0.4402  0.1964 -1.1005
  479MOL0     C64584   3.995   5.689   0.748  0.7449 -0.2370  0.7993
  479MOL0     C64585   3.931   5.700   0.875  0.8218  0.0014 -0.5010
  479MOL0     C64586   3.973   5.781   0.978 -0.7972 -0.3608  0.4343
  479MOL0     C64587   4.087   5.864   0.965  0.6924  0.8984 -0.0157
  479MOL0     O64588   4.113   5.933   1.078 -0.6961 -0.2066 -0.5247
  479MOL0     C64589   4.216   6.030   1.069 -0.3185  0.6572 -0.5105
  479MOL0     C64590   4.192   6.137   1.173  0.5991 -0.6276  0.2337
  479MOL0     C64591   4.304   6.232   1.177  0.3519 -0.0298  0.4255
  479MOL0     C64592   4.293   6.353   1.269  0.1148  1.3314  0.8059
  479MOL0     C64593   4.220   6.466   1.212  0.0039 -0.9394 -0.1176
  479MOL0     C64594   4.137   6.547   1.177  0.5766  0.5115 -0.7097
  479MOL0     C64595   4.151   5.863   0.834  0.2826 -0.3737 -0.4559
  479MOL0     C64596   4.100   5.777   0.726 -0.4909 -0.5841 -0.4480
  479MOL0     C64597   4.159   5.798   0.596 -0.2879 -0.0850  0.4220
  479MOL0     H64598   3.749   5.275   0.758 -2.4854 -0.0492 -0.2955
  479MOL0     H64599   3.667   5.084   0.616 -0.2898  1.0259  2.7571
  479MOL0     H64600   3.626   4.901   0.465 -0.1961 -1.0131 -0.8104
  479MOL0     H64601   3.527   5.048   0.427 -1.6928 -1.8904  0.2196
  479MOL0     H64602   3.454   4.856   0.307 -0.0715  0.9306  1.3090
  479MOL0     H64603   3.619   4.812   0.266 -1.4464 -1.4976  0.7634
  479MOL0     H64604   3.620   5.044   0.129  1.8833 -1.0846  0.3364
  479MOL0     H64605   3.445   5.029   0.122 -1.3492 -2.1489 -0.5886
  479MOL0     H64606   3.673   4.842   0.021  0.6049  0.8002 -2.8877
  479MOL0     H64607   3.506   4.786   0.022 -0.3900 -0.1135  4.5068
  479MOL0     H64608   3.455   4.987  -0.139 -0.3136 -0.8795  0.0883
  479MOL0     H64609   3.620   5.041  -0.120 -1.7877  1.6872 -2.8212
  479MOL0     H64610   3.707   4.835  -0.203 -1.0150 -0.8785  1.7256
  479MOL0     H64611   3.547   4.765  -0.208  1.7690 -2.6589 -3.6953
  479MOL0     H64612   3.479   4.904  -0.398 -0.0180  1.1630 -0.4707
  479MOL0     H64613   3.619   4.809  -0.432 -2.4933 -0.6715  0.4670
  479MOL0     H64614   3.609   5.102  -0.347 -0.2884  0.5121 -0.6194
  479MOL0     H64615   3.757   5.015  -0.403 -0.4045  0.5039  0.3397
  479MOL0     H64616   3.694   4.900  -0.674 -1.3875 -0.5781  2.0545
  479MOL0     H64617   3.587   5.104  -0.968  1.0312  1.8645  0.9092
  479MOL0     H64618   3.646   4.945  -0.914 -1.0178 -0.6707  3.9223
  479MOL0     H64619   3.354   5.002  -0.930 -1.3178 -0.0449 -3.0314
  479MOL0     H64620   3.437   4.924  -1.051  0.5718  0.5961  0.4631
  479MOL0     H64621   3.442   4.803  -0.772 -0.1224 -2.7282  0.3693
  479MOL0     H64622   3.475   4.727  -0.929  0.8011  0.9241  0.5442
  479MOL0     H64623   3.240   4.725  -0.989  1.2104 -1.7540 -0.7131
  479MOL0     H64624   3.213   4.818  -0.832  0.2571  1.4819 -2.6482
  479MOL0     H64625   3.352   4.402  -0.697  0.2044 -0.1936  0.2535
  479MOL0     H64626   3.388   4.369  -0.474  3.6898  1.5959  2.6952
  479MOL0     H64627   3.531   4.586  -0.050  1.1184  0.6623  1.7112
  479MOL0     H64628   3.559   4.519   0.186 -2.4165 -0.1090  0.6141
  479MOL0     H64629   3.603   4.230   0.417 -0.3738 -1.2638 -1.5858
  479MOL0     H64630   3.654   4.369   0.335 -0.0945  0.3768  0.4761
  479MOL0     H64631   3.469   4.492   0.478  1.1149  0.3830  0.7458
  479MOL0     H64632   3.470   4.335   0.574  0.4031 -0.7536 -0.6399
  479MOL0     H64633   3.601   4.500   0.690  2.0500 -0.8472  1.0682
  479MOL0     H64634   3.706   4.374   0.621 -0.4021 -0.3232 -0.7755
  479MOL0     H64635   3.675   4.638   0.482  0.4606  0.7154  0.7445
  479MOL0     H64636   3.801   4.523   0.461  1.2427  0.2030  0.1119
  479MOL0     H64637   3.914   4.688   0.560 -1.7462  2.2382 -0.1001
  479MOL0     H64638   3.893   4.562   0.687  1.9408  0.8634 -1.9230
  479MOL0     H64639   3.731   4.834   0.663 -0.3896  0.9538  1.7925
  479MOL0     H64640   3.719   4.703   0.776  0.4193  0.7266  0.8002
  479MOL0     H64641   3.962   4.875   0.725 -2.8015  1.7147 -0.6236
  479MOL0     H64642   3.951   4.734   0.843 -2.0563 -2.3554 -1.7273
  479MOL0     H64643   3.928   4.943   0.971 -0.1855  3.8898 -1.6518
  479MOL0     H64644   3.821   5.002   0.843  1.1055  0.9758  1.1713
  479MOL0     H64645   3.377   4.144   0.107 -0.9064  0.0848 -2.3901
  479MOL0     H64646   3.344   4.196  -0.132  1.0251  0.0266 -0.1963
  479MOL0     H64647   3.208   4.758  -0.380  0.1665  0.2365  1.3079
  479MOL0     H64648   3.200   4.796  -0.612 -0.6689  0.4161  1.8781
  479MOL0     H64649   3.896   5.241   0.290  0.9687 -0.5687 -0.0804
  479MOL0     H64650   3.998   5.403   0.430  0.1789 -0.9964 -3.1947
  479MOL0     H64651   3.848   5.634   0.898 -2.4581  3.6644 -0.8128
  479MOL0     H64652   3.913   5.780   1.068 -0.2739  0.3304  0.8087
  479MOL0     H64653   4.222   6.082   0.973 -1.3909  1.7737 -0.0085
  479MOL0     H64654   4.314   5.983   1.082  1.6147  2.6869 -5.2415
  479MOL0     H64655   4.182   6.086   1.269  1.0555 -1.4175 -0.1285
  479MOL0     H64656   4.101   6.191   1.146  1.8945  2.0901  0.9880
  479MOL0     H64657   4.309   6.272   1.075 -1.0649 -3.6974 -1.2641
  479MOL0     H64658   4.398   6.180   1.196  1.9796  2.9213  0.9981
  479MOL0     H64659   4.236   6.334   1.361 -1.3492  4.3931  0.6641
  479MOL0     H64660   4.393   6.389   1.295  2.7645 -3.7719 -1.0209
  479MOL0     H64661   4.069   6.608   1.122 -1.3501  3.7702  4.5036
  479MOL0     H64662   4.228   5.930   0.799 -1.0236  1.0866 -0.6327
  479MOL0     H64663   4.244   5.867   0.591 -1.2032  1.0385  0.0166
  479MOL0     H64664   4.197   5.702   0.559  1.9469  0.1907  1.8030
  479MOL0     H64665   4.087   5.833   0.521  0.5675  0.7412 -0.0414
  480MOL0     O64666  10.742   9.733   8.942 -0.1800  0.2362 -0.1963
  480MOL0     C64667  10.673   9.694   9.033  0.2159  0.3966 -0.7623
  480MOL0     O64668  10.721   9.622   9.143  0.0760  0.6047  0.5360
  480MOL0     C64669  10.845   9.570   9.135  0.7196  0.0962  0.6825
  480MOL0     C64670  10.944   9.603   9.224  0.2980  0.5344  1.0453
  480MOL0     C64671  11.066   9.531   9.235 -0.1070  0.0480 -0.0688
  480MOL0     C64672  11.082   9.419   9.154  0.0323  0.2185  0.8076
  480MOL0     O64673  11.202   9.364   9.141  0.2890 -0.8582  0.0750
  480MOL0     C64674  11.293   9.365   9.242  0.2280  0.1601 -0.5209
  480MOL0     C64675  11.380   9.237   9.239  0.0687 -0.0882  0.6451
  480MOL0     C64676  11.308   9.105   9.244 -0.3145  0.6135  0.8477
  480MOL0     C64677  11.409   8.979   9.254  1.1939  0.4730 -1.0313
  480MOL0     C64678  11.342   8.842   9.268  0.3246 -0.2723 -0.4563
  480MOL0     C64679  11.448   8.746   9.328  0.7894  0.9659 -0.1033
  480MOL0     C64680  11.390   8.592   9.330 -0.0975  0.5069  0.1265
  480MOL0     C64681  11.262   8.572   9.414  0.3655 -0.7703  0.5406
  480MOL0     N64682  11.294   8.594   9.558 -1.4316 -0.7434  0.5795
  480MOL0     C64683  11.254   8.705   9.625  0.4965 -0.3395  0.9355
  480MOL0     C64684  11.309   8.689   9.747 -1.4285 -0.3221 -0.1928
  480MOL0     C64685  11.282   8.777   9.860 -0.2212 -0.7901 -0.6270
  480MOL0     C64686  11.144   8.769   9.918 -0.2485  0.6633 -0.1037
  480MOL0     C64687  11.085   8.909   9.903 -0.2058  0.0347 -0.0086
  480MOL0     C64688  10.951   8.930   9.967 -0.1731  0.1690 -0.3319
  480MOL0     O64689  10.903   9.071   9.946  0.1356  0.1286 -0.4655
  480MOL0     C64690  10.781   9.105   9.993  1.2701  0.0873 -0.0968
  480MOL0     C64691  10.687   9.018  10.060 -0.5255 -0.4528 -0.0860
  480MOL0     C64692  10.553   9.063  10.080  0.1566 -0.1047 -0.1577
  480MOL0     C64693  10.506   9.201  10.058 -0.6509 -0.4762 -0.1010
  480MOL0     C64694  10.366   9.244  10.089 -0.1361 -0.5146  0.3147
  480MOL0     O64695  10.275   9.138  10.123  1.4208  0.2363 -0.6032
  480MOL0     C64696  10.142   9.172  10.126  0.4599  0.6436 -0.5167
  480MOL0     C64697  10.073   9.215  10.011  0.4807  0.4619  0.3780
  480MOL0     C64698   9.932   9.217  10.012 -1.3476 -0.8934  0.0964
  480MOL0     C64699   9.863   9.203  10.126  0.5854  0.2430  0.3075
  480MOL0     O64700   9.725   9.211  10.119 -0.5687  0.3416 -0.4751
  480MOL0     C64701   9.645   9.202  10.238 -0.3151  0.0820  0.3880
  480MOL0     C64702   9.501   9.217  10.210 -0.9830 -0.3088  0.5400
  480MOL0     C64703   9.451   9.101  10.113  0.3448  0.2307  0.7349
  480MOL0     C64704   9.304   9.091  10.085 -0.0627 -0.1797 -0.1263
  480MOL0     C64705   9.233   9.221  10.073 -0.1745  0.1793  0.1400
  480MOL0     C64706   9.261   9.297   9.946 -0.0417  1.1683 -0.0588
  480MOL0     C64707   9.199   9.231   9.816 -0.5759  0.0802  0.1027
  480MOL0     C64708   9.042   9.250   9.819  0.2078 -0.6138 -0.8257
  480MOL0    Cl64709   8.990   9.085   9.855  0.1391  0.4064  0.1591
  480MOL0     C64710   9.929   9.174  10.243  0.3556 -0.2918 -0.1714
  480MOL0     C64711  10.068   9.148  10.246 -0.7206 -0.1483  1.0143
  480MOL0     O64712  10.327   9.360  10.068 -0.0504 -0.7381 -0.3149
  480MOL0     C64713  10.601   9.283  10.011 -0.0435  0.7802  0.9049
  480MOL0     C64714  10.728   9.233   9.969  0.3404  0.1715 -0.1213
  480MOL0     N64715  11.377   8.569   9.757  0.3570 -0.4683  0.5912
  480MOL0     N64716  11.371   8.518   9.637  0.1585 -0.3455 -0.8368
  480MOL0     C64717  10.984   9.392   9.064 -0.4524  1.1447 -0.7092
  480MOL0     C64718  10.867   9.461   9.055 -0.9505 -0.7110  0.1272
  480MOL0     C64719  10.526   9.727   9.038 -0.1168 -0.0290 -1.0816
  480MOL0     C64720  10.439   9.654   9.129 -0.5909  0.5116 -0.2981
  480MOL0     C64721  10.307   9.701   9.154 -0.8501 -0.8651  0.4413
  480MOL0     C64722  10.244   9.803   9.081 -0.0240 -0.1045 -0.4013
  480MOL0     O64723  10.118   9.854   9.105 -0.3282  0.8385  0.1075
  480MOL0     C64724  10.039   9.779   9.210 -1.1132 -0.8842  0.2975
  480MOL0     C64725   9.898   9.828   9.230  0.0794 -0.2713  0.6726
  480MOL0     C64726   9.890   9.969   9.294 -0.5501 -0.7029 -0.1475
  480MOL0     C64727   9.743  10.032   9.266 -1.0793  0.3382  0.8242
  480MOL0     C64728   9.647   9.933   9.309  0.6593 -0.2152  0.1442
  480MOL0     C64729   9.552   9.867   9.334 -0.7548  0.3798 -0.7524
  480MOL0     C64730  10.323   9.860   8.978 -0.1975  0.0329 -0.6031
  480MOL0     C64731  10.459   9.830   8.962  0.3466 -0.4292  0.6997
  480MOL0     C64732  10.530   9.922   8.853 -0.6380  0.1053 -0.6913
  480MOL0     H64733  10.925   9.689   9.286  1.3311  1.3368  0.2962
  480MOL0     H64734  11.137   9.583   9.298 -0.2980  0.9390 -0.5763
  480MOL0     H64735  11.362   9.450   9.246  3.5357 -2.3067  3.7968
  480MOL0     H64736  11.238   9.372   9.336 -1.3125 -0.8325 -1.2986
  480MOL0     H64737  11.442   9.244   9.329  0.0682  1.2388  0.5625
  480MOL0     H64738  11.450   9.244   9.156  0.3487 -0.9298  0.8000
  480MOL0     H64739  11.251   9.096   9.151  2.0229 -1.0377 -0.5221
  480MOL0     H64740  11.239   9.097   9.327 -0.5800 -0.6488  0.5243
  480MOL0     H64741  11.476   8.969   9.169  1.8711  1.1900 -0.5955
  480MOL0     H64742  11.471   8.997   9.343  0.7252  1.1016 -0.8235
  480MOL0     H64743  11.252   8.848   9.330  1.7796  0.5540  1.6868
  480MOL0     H64744  11.318   8.803   9.168 -2.1230 -1.7333  0.6165
  480MOL0     H64745  11.536   8.759   9.265 -0.9609  0.6574 -2.7697
  480MOL0     H64746  11.465   8.766   9.434 -0.7081 -2.5091  0.9603
  480MOL0     H64747  11.469   8.527   9.369  1.3200  0.9909 -1.7985
  480MOL0     H64748  11.359   8.576   9.226  0.6785 -0.2225 -0.0069
  480MOL0     H64749  11.185   8.643   9.385  0.5462 -0.2744  1.2588
  480MOL0     H64750  11.220   8.472   9.399  0.3024 -0.4880 -1.4626
  480MOL0     H64751  11.184   8.777   9.584 -0.0976 -2.0208 -1.2554
  480MOL0     H64752  11.362   8.766   9.934 -0.0163  3.2870  0.0209
  480MOL0     H64753  11.301   8.881   9.831 -1.9873  0.4508  2.1487
  480MOL0     H64754  11.097   8.679   9.877  3.7797 -1.1034 -1.3904
  480MOL0     H64755  11.147   8.749  10.026  1.8092  2.0792  0.1643
  480MOL0     H64756  11.083   8.934   9.797 -2.0841 -0.0942 -0.0277
  480MOL0     H64757  11.152   8.982   9.949 -0.4953  0.2473  0.0807
  480MOL0     H64758  10.954   8.918  10.076  1.1456  0.3976 -0.3246
  480MOL0     H64759  10.880   8.861   9.921 -0.5367 -0.4136  1.0472
  480MOL0     H64760  10.722   8.917  10.077 -0.1059 -0.1211  1.1336
  480MOL0     H64761  10.475   8.994  10.110 -1.4810  0.6957 -2.2901
  480MOL0     H64762  10.131   9.227   9.920  0.6940 -0.4039  0.3918
  480MOL0     H64763   9.876   9.251   9.925  0.0279  2.4380  0.3590
  480MOL0     H64764   9.652   9.101  10.279 -0.0592 -0.0470  0.0354
  480MOL0     H64765   9.673   9.279  10.310  2.8166  0.1789 -0.7741
  480MOL0     H64766   9.430   9.196  10.290 -1.9202 -2.2333 -0.7058
  480MOL0     H64767   9.482   9.316  10.167  0.3029 -0.9964 -1.8013
  480MOL0     H64768   9.498   9.108  10.014  0.6165 -2.5819  0.5920
  480MOL0     H64769   9.487   9.007  10.157  0.5384 -0.0074  0.0785
  480MOL0     H64770   9.256   9.032  10.163 -1.7645 -0.2222 -1.1459
  480MOL0     H64771   9.285   9.027   9.998 -1.0389 -0.0074 -0.0493
  480MOL0     H64772   9.251   9.282  10.162 -1.0866 -0.2588  0.6433
  480MOL0     H64773   9.127   9.194  10.073  0.0621 -0.8708  1.3900
  480MOL0     H64774   9.208   9.392   9.950 -1.0057  0.6089  2.3695
  480MOL0     H64775   9.367   9.318   9.931 -0.2058  1.7391 -0.4489
  480MOL0     H64776   9.238   9.133   9.787 -2.4701 -0.7296  0.1654
  480MOL0     H64777   9.235   9.286   9.728  0.4051 -2.9754 -1.5444
  480MOL0     H64778   9.018   9.324   9.896  1.1657 -2.5013  1.4049
  480MOL0     H64779   8.993   9.283   9.727  0.3002  2.4858  0.1011
  480MOL0     H64780   9.870   9.153  10.331 -1.0286 -2.3744 -1.4785
  480MOL0     H64781  10.120   9.116  10.336 -2.4041  0.6267  2.3194
  480MOL0     H64782  10.588   9.389  10.028 -1.0577  0.8052  0.1020
  480MOL0     H64783  10.807   9.300   9.937  0.8233 -2.0837 -4.3411
  480MOL0     H64784  11.011   9.321   8.987  2.0904  1.2245  0.0249
  480MOL0     H64785  10.795   9.423   8.984 -2.9453  0.2574  1.5478
  480MOL0     H64786  10.479   9.567   9.179  1.1962 -0.7618 -3.5989
  480MOL0     H64787  10.243   9.658   9.231 -3.1303  0.0957 -0.8163
  480MOL0     H64788  10.099   9.793   9.301  0.8445  1.5136 -1.2049
  480MOL0     H64789  10.036   9.675   9.177 -1.2029 -0.7810 -0.0245
  480MOL0     H64790   9.840   9.755   9.287 -1.2216  0.1285 -0.1198
  480MOL0     H64791   9.853   9.831   9.131 -0.2592  0.5853  0.8451
  480MOL0     H64792   9.967  10.029   9.244 -0.6161  0.5395  1.1698
  480MOL0     H64793   9.898   9.958   9.403 -1.7183  1.4779  0.2101
  480MOL0     H64794   9.735  10.128   9.316 -1.5515 -0.5085  2.4460
  480MOL0     H64795   9.741  10.049   9.158 -0.8769  1.4212  0.9880
  480MOL0     H64796   9.468   9.808   9.365  0.7530 -1.6631 -0.3184
  480MOL0     H64797  10.286   9.947   8.925 -2.2333 -0.3880  0.0387
  480MOL0     H64798  10.609   9.864   8.805  0.3985  0.5201  0.4592
  480MOL0     H64799  10.457   9.944   8.774 -1.8337  1.5336  0.7213
  480MOL0     H64800  10.560  10.015   8.901 -1.6921  1.1990 -2.0767
  481MOL0     O64801   6.682   1.215   8.069 -0.3662  0.5094 -0.1967
  481MOL0     C64802   6.681   1.092   8.060 -0.9960 -0.5204 -0.4547
  481MOL0     O64803   6.787   1.012   8.026  0.2118  0.2306  0.1786
  481MOL0     C64804   6.908   1.069   8.022  0.3733 -0.5920  0.6271
  481MOL0     C64805   6.930   1.166   7.922  0.0535  0.2254 -0.1960
  481MOL0     C64806   7.059   1.216   7.903  0.6238 -0.3054 -0.8749
  481MOL0     C64807   7.170   1.176   7.994  0.3887 -0.9095  0.2205
  481MOL0     O64808   7.305   1.216   7.982  0.3216  0.6746  0.1851
  481MOL0     C64809   7.362   1.212   7.855 -0.5631 -0.5279  0.0075
  481MOL0     C64810   7.513   1.222   7.881  0.1103 -0.1386 -0.8379
  481MOL0     C64811   7.568   1.099   7.945 -0.2064  0.3607  0.0556
  481MOL0     C64812   7.723   1.119   7.970  0.2814 -0.0775  0.2570
  481MOL0     C64813   7.783   0.997   8.049 -0.6319 -0.2846 -0.8450
  481MOL0     C64814   7.936   1.022   8.072  0.1834  0.0437  0.8024
  481MOL0     C64815   8.004   0.932   8.165 -0.5228  0.0058 -0.4737
  481MOL0     C64816   8.152   0.917   8.114  0.1496  0.4684 -0.2298
  481MOL0     N64817   8.248   0.857   8.205  0.4340  0.1703 -0.6645
  481MOL0     C64818   8.270   0.718   8.210 -0.0066 -0.5361 -0.6848
  481MOL0     C64819   8.383   0.705   8.288  0.0837 -0.5425  0.1790
  481MOL0     C64820   8.433   0.572   8.343  0.2744  0.0191  0.2846
  481MOL0     C64821   8.408   0.569   8.492  0.4626 -0.3576  0.8551
  481MOL0     C64822   8.388   0.428   8.552 -0.2210 -0.2546 -0.4845
  481MOL0     C64823   8.479   0.322   8.497  1.6024  0.2189  0.7814
  481MOL0     O64824   8.610   0.370   8.494 -0.2907  0.5201 -0.5673
  481MOL0     C64825   8.703   0.316   8.418 -1.2200  0.9837  0.2453
  481MOL0     C64826   8.695   0.196   8.336 -0.3651  0.2888 -0.8707
  481MOL0     C64827   8.806   0.139   8.275  1.2884  0.5087  0.9928
  481MOL0     C64828   8.931   0.197   8.293 -1.3987 -0.6502  0.6793
  481MOL0     C64829   9.047   0.158   8.218  0.4069  0.6144  1.0557
  481MOL0     O64830   9.154   0.246   8.219  0.1298 -0.6638  0.8172
  481MOL0     C64831   9.272   0.210   8.141 -0.8321 -0.1482 -0.4086
  481MOL0     C64832   9.292   0.259   8.015 -0.5638 -0.0949  0.0215
  481MOL0     C64833   9.396   0.219   7.935  0.9098  0.1979  0.3385
  481MOL0     C64834   9.489   0.117   7.977 -0.0446  0.5859  0.1633
  481MOL0     O64835   9.607   0.088   7.915 -0.1078  0.2331 -0.3323
  481MOL0     C64836   9.602   0.109   7.775  0.6775  0.0776  0.5425
  481MOL0     C64837   9.723   0.041   7.701 -0.4029 -0.0009  0.6012
  481MOL0     C64838   9.869   0.081   7.731 -1.4835 -0.7029  0.3303
  481MOL0     C64839   9.964   0.017   7.629 -1.0755  0.1004 -0.3710
  481MOL0     C64840   9.960  -0.134   7.622  0.4539 -0.2888 -1.1565
  481MOL0     C64841  10.060  -0.170   7.518  0.6730 -0.2531  0.7890
  481MOL0     C64842  10.069  -0.322   7.506  0.3628  0.0818  0.0750
  481MOL0     C64843  10.142  -0.383   7.379 -0.4874  0.3553 -0.7614
  481MOL0    Cl64844  10.035  -0.359   7.248 -0.2704 -0.3432 -0.1064
  481MOL0     C64845   9.464   0.067   8.112 -0.7569 -0.6339 -0.3334
  481MOL0     C64846   9.362   0.110   8.189  0.3835  0.1698  0.6822
  481MOL0     O64847   9.032   0.062   8.144  0.8427  0.1972 -0.0125
  481MOL0     C64848   8.940   0.311   8.375  0.5535 -0.2030 -0.2146
  481MOL0     C64849   8.830   0.375   8.424 -0.6758 -0.4652 -0.9805
  481MOL0     N64850   8.424   0.834   8.318 -0.5902 -0.1951  0.0734
  481MOL0     N64851   8.342   0.925   8.273 -0.9428  0.0984  0.4486
  481MOL0     C64852   7.140   1.084   8.091  0.1434 -0.5665 -0.2300
  481MOL0     C64853   7.018   1.023   8.102  0.2542  0.0575  0.2733
  481MOL0     C64854   6.562   1.018   8.090 -0.1529 -0.1522  0.7816
  481MOL0     C64855   6.497   1.037   8.212  0.0357 -0.2065 -0.2562
  481MOL0     C64856   6.383   0.957   8.243  0.4608  1.5955 -0.1925
  481MOL0     C64857   6.318   0.886   8.144  0.1336 -0.4995  0.0816
  481MOL0     O64858   6.192   0.824   8.153  0.1325 -0.8471 -1.0375
  481MOL0     C64859   6.124   0.841   8.288 -0.5544  0.2113  0.5579
  481MOL0     C64860   6.042   0.966   8.309 -0.5065 -0.2813  0.3082
  481MOL0     C64861   5.915   0.969   8.214  1.0748  0.4398  0.5364
  481MOL0     C64862   5.808   0.887   8.285 -0.0200 -0.9550 -0.7795
  481MOL0     C64863   5.739   0.970   8.388 -0.9796  0.2444 -0.3613
  481MOL0     C64864   5.665   1.048   8.451  0.1233  1.1146 -0.3359
  481MOL0     C64865   6.373   0.878   8.012 -0.8497 -0.1589 -0.8490
  481MOL0     C64866   6.500   0.941   7.989 -0.2735  0.3501 -0.6446
  481MOL0     C64867   6.559   0.925   7.851  0.4591 -0.5798 -0.6952
  481MOL0     H64868   6.859   1.199   7.847  0.8597  0.9550 -0.6491
  481MOL0     H64869   7.074   1.274   7.812 -0.4162 -0.2310 -1.0151
  481MOL0     H64870   7.344   1.120   7.799 -0.3477 -0.2636 -0.4979
  481MOL0     H64871   7.324   1.299   7.801 -1.6926 -2.0616 -1.7845
  481MOL0     H64872   7.546   1.303   7.946  2.1753 -1.1184 -0.5968
  481MOL0     H64873   7.558   1.251   7.786 -0.7395  2.2620 -0.5724
  481MOL0     H64874   7.557   1.017   7.874  0.0441  0.4932 -0.1367
  481MOL0     H64875   7.528   1.068   8.042 -2.4089  0.9330 -0.6020
  481MOL0     H64876   7.785   1.138   7.881  2.5105  0.1682  1.7843
  481MOL0     H64877   7.736   1.202   8.040  1.8735 -0.5272  0.5350
  481MOL0     H64878   7.724   0.994   8.141  0.9242  2.1782  0.3459
  481MOL0     H64879   7.757   0.903   8.001 -4.6929 -0.0070  0.4137
  481MOL0     H64880   7.983   1.013   7.973 -1.4982  3.2043 -0.4204
  481MOL0     H64881   7.966   1.118   8.113 -0.6994 -0.5489  3.0076
  481MOL0     H64882   7.965   0.830   8.166  0.1565 -0.3539  3.0034
  481MOL0     H64883   8.001   0.964   8.270  4.0354 -1.2349  0.2608
  481MOL0     H64884   8.154   0.853   8.025 -0.4235 -1.3727  1.0249
  481MOL0     H64885   8.189   1.009   8.068  1.5825 -0.3737 -0.7938
  481MOL0     H64886   8.205   0.636   8.182 -1.1094  0.7222 -1.9747
  481MOL0     H64887   8.363   0.500   8.301 -0.9401  0.5396  1.3341
  481MOL0     H64888   8.540   0.553   8.329  0.5056  0.8415  0.8883
  481MOL0     H64889   8.495   0.612   8.543  0.3626  1.9031 -0.7497
  481MOL0     H64890   8.329   0.640   8.518 -0.1449  1.0343 -3.9564
  481MOL0     H64891   8.287   0.396   8.526 -0.4648  0.7940 -0.8874
  481MOL0     H64892   8.396   0.444   8.660  2.4547  0.2186 -0.6799
  481MOL0     H64893   8.460   0.299   8.392  1.7922  3.2494 -0.0096
  481MOL0     H64894   8.469   0.236   8.564 -3.6497  0.6857  1.0277
  481MOL0     H64895   8.606   0.137   8.316  0.4112 -1.3075  0.1942
  481MOL0     H64896   8.797   0.046   8.219 -0.4856  1.6066 -0.6324
  481MOL0     H64897   9.219   0.328   7.974 -1.2209 -0.1440  1.0808
  481MOL0     H64898   9.404   0.276   7.843  0.5093 -0.4558 -0.1123
  481MOL0     H64899   9.511   0.067   7.732  0.1444  0.7843  0.9756
  481MOL0     H64900   9.613   0.215   7.753  1.1251 -0.3689 -1.7374
  481MOL0     H64901   9.725  -0.069   7.706  0.3043  0.0270  0.9802
  481MOL0     H64902   9.688   0.054   7.598  0.8251  1.2391  0.3227
  481MOL0     H64903   9.884   0.189   7.723  2.4507 -0.6755  4.3125
  481MOL0     H64904   9.902   0.058   7.833  3.9628  1.3156 -0.6448
  481MOL0     H64905  10.067   0.046   7.651  0.0212 -1.5963 -2.7880
  481MOL0     H64906   9.950   0.053   7.526  2.1697 -1.6227 -1.5947
  481MOL0     H64907   9.861  -0.172   7.596 -0.0831  1.0981 -1.2256
  481MOL0     H64908   9.989  -0.165   7.723 -1.7773 -2.1258 -1.0124
  481MOL0     H64909  10.030  -0.123   7.424  0.8020  0.2421  0.9936
  481MOL0     H64910  10.157  -0.127   7.543 -0.2359  2.1591  0.3927
  481MOL0     H64911   9.971  -0.368   7.487  0.6502  0.1660 -1.8386
  481MOL0     H64912  10.113  -0.347   7.602  0.3343 -1.9302 -0.3926
  481MOL0     H64913  10.243  -0.343   7.368  0.0468  0.8735  4.0035
  481MOL0     H64914  10.148  -0.490   7.400 -1.2853  0.7602  1.9399
  481MOL0     H64915   9.543   0.006   8.154 -1.1213  0.6294  2.4666
  481MOL0     H64916   9.334   0.055   8.278 -0.2113  0.3005  0.5838
  481MOL0     H64917   9.038   0.353   8.390  0.2270  1.0256 -1.3384
  481MOL0     H64918   8.840   0.469   8.476  1.1866 -1.4722  0.6134
  481MOL0     H64919   7.226   1.057   8.152  1.1537  4.0209  0.7465
  481MOL0     H64920   7.013   0.939   8.171 -0.6619 -0.7495 -0.7237
  481MOL0     H64921   6.530   1.108   8.287 -1.4192 -0.8628  1.0638
  481MOL0     H64922   6.343   0.976   8.342  0.2634 -0.0277  0.0607
  481MOL0     H64923   6.188   0.829   8.376  1.1626 -0.5004 -0.7250
  481MOL0     H64924   6.045   0.767   8.300 -0.1623  0.0980  2.7151
  481MOL0     H64925   6.108   1.046   8.273  1.5442 -0.2443  3.7105
  481MOL0     H64926   6.013   0.984   8.413  2.5396 -3.1496  1.8449
  481MOL0     H64927   5.948   0.931   8.117  0.1355 -0.1749  0.4418
  481MOL0     H64928   5.873   1.070   8.210 -1.4502 -0.5276  0.8404
  481MOL0     H64929   5.745   0.857   8.201  0.8057  0.1243 -1.8108
  481MOL0     H64930   5.838   0.795   8.336 -0.3060 -0.9590 -0.6144
  481MOL0     H64931   5.592   1.108   8.501  1.3036  2.9045 -0.6697
  481MOL0     H64932   6.336   0.812   7.935 -0.9702 -2.3156  0.9561
  481MOL0     H64933   6.482   0.929   7.774 -1.4309 -1.2720  1.0886
  481MOL0     H64934   6.627   1.011   7.843  2.3020 -1.0717  5.0387
  481MOL0     H64935   6.619   0.834   7.839  3.0119  0.8637  0.2430
  482MOL0     O64936   6.019   3.505   0.317 -0.0273 -0.1316  0.3922
  482MOL0     C64937   6.096   3.543   0.403 -0.4816 -0.3864 -1.1325
  482MOL0     O64938   6.223   3.598   0.380  0.1028 -0.9275 -0.8382
  482MOL0     C64939   6.295   3.574   0.265  1.4929  1.1638 -0.0366
  482MOL0     C64940   6.275   3.466   0.181  0.3844  0.5715 -0.0734
  482MOL0     C64941   6.348   3.461   0.059  0.3177  0.3162  0.7377
  482MOL0     C64942   6.455   3.551   0.034  0.5434  0.1020 -0.2209
  482MOL0     O64943   6.519   3.535  -0.083  0.0936  0.0725 -0.6579
  482MOL0     C64944   6.590   3.657  -0.127 -0.3697  0.1355  0.0373
  482MOL0     C64945   6.611   3.657  -0.277  0.5695  0.5522 -0.4409
  482MOL0     C64946   6.666   3.794  -0.314 -0.5090 -0.9609  0.8252
  482MOL0     C64947   6.737   3.800  -0.443  0.7463 -0.1402 -1.2213
  482MOL0     C64948   6.780   3.943  -0.492 -0.0815 -0.6482 -0.2010
  482MOL0     C64949   6.810   3.934  -0.641  0.0353  0.7546 -0.5664
  482MOL0     C64950   6.925   4.035  -0.675  0.6348 -0.2037  0.3008
  482MOL0     C64951   7.061   3.962  -0.656 -0.2032  0.7801  0.2944
  482MOL0     N64952   7.178   4.056  -0.668  0.4204  0.8890 -0.1983
  482MOL0     C64953   7.188   4.126  -0.786  0.1708 -0.7650  0.3130
  482MOL0     C64954   7.297   4.205  -0.762  0.2441 -0.2070 -0.0644
  482MOL0     C64955   7.357   4.300  -0.868 -0.2061 -0.2736  0.1856
  482MOL0     C64956   7.445   4.222  -0.970  0.2625  0.1121  0.3429
  482MOL0     C64957   7.582   4.177  -0.917  0.5310 -1.1793 -0.0350
  482MOL0     C64958   7.669   4.095  -1.014 -0.0984  0.3602  0.7847
  482MOL0     O64959   7.764   4.018  -0.942 -0.2768 -0.1067  0.8263
  482MOL0     C64960   7.735   3.885  -0.909  0.5031 -1.0214 -0.2882
  482MOL0     C64961   7.620   3.823  -0.929 -0.0019 -0.4469  0.6734
  482MOL0     C64962   7.620   3.682  -0.934 -0.4049 -0.2317  0.1351
  482MOL0     C64963   7.726   3.605  -0.891 -1.3703 -0.0437  0.2644
  482MOL0     C64964   7.722   3.453  -0.887 -0.6651  0.3510  0.8614
  482MOL0     O64965   7.598   3.391  -0.893  0.0364  0.5126 -0.6393
  482MOL0     C64966   7.587   3.258  -0.866 -0.4092  0.1449  0.2139
  482MOL0     C64967   7.658   3.203  -0.755  0.0364 -0.8036  0.1116
  482MOL0     C64968   7.659   3.065  -0.737 -0.7997 -0.3871  0.3181
  482MOL0     C64969   7.582   2.981  -0.817 -0.8243  0.1322  0.6347
  482MOL0     O64970   7.584   2.849  -0.787  0.4931  0.5325 -0.1922
  482MOL0     C64971   7.612   2.763  -0.896 -0.6445 -0.4948 -0.5792
  482MOL0     C64972   7.642   2.629  -0.829 -0.2191 -0.3042 -0.2606
  482MOL0     C64973   7.701   2.550  -0.946  0.4062 -0.1686 -0.0289
  482MOL0     C64974   7.711   2.401  -0.907 -0.2818  0.6478  0.2223
  482MOL0     C64975   7.798   2.313  -1.000 -0.3590 -0.0808  0.6847
  482MOL0     C64976   7.768   2.164  -0.997 -0.4206 -0.1918 -0.1773
  482MOL0     C64977   7.780   2.093  -0.864 -0.3386  0.7121 -0.3149
  482MOL0     C64978   7.732   1.943  -0.855  0.0540 -0.2016  0.4171
  482MOL0    Cl64979   7.844   1.839  -0.946 -0.1142 -0.0561  0.3333
  482MOL0     C64980   7.505   3.032  -0.926  0.8922  0.3281  0.5101
  482MOL0     C64981   7.500   3.175  -0.945 -0.5876 -0.1091 -0.5075
  482MOL0     O64982   7.830   3.394  -0.866  0.2729 -0.5951  1.3113
  482MOL0     C64983   7.838   3.671  -0.848  0.2850 -0.4642 -0.5674
  482MOL0     C64984   7.843   3.813  -0.857 -0.5406  0.4139  0.1810
  482MOL0     N64985   7.347   4.187  -0.639  0.2453 -0.7540 -0.7590
  482MOL0     N64986   7.278   4.087  -0.584  0.2843 -0.1430 -0.2895
  482MOL0     C64987   6.487   3.642   0.140 -0.6605  0.3640  0.3567
  482MOL0     C64988   6.408   3.654   0.256  0.6489  0.4824  0.2984
  482MOL0     C64989   6.062   3.544   0.547  0.4046 -0.8447 -0.4993
  482MOL0     C64990   6.159   3.511   0.644 -0.7679 -0.6823 -0.3154
  482MOL0     C64991   6.127   3.494   0.779 -0.4790 -0.2764 -0.0208
  482MOL0     C64992   6.003   3.518   0.835 -0.4045 -0.0132  0.5215
  482MOL0     O64993   5.981   3.492   0.963  0.0515 -0.0835 -0.4414
  482MOL0     C64994   5.846   3.499   1.022 -0.5998 -0.4294 -0.4190
  482MOL0     C64995   5.862   3.504   1.181  0.1689 -0.5658 -0.1470
  482MOL0     C64996   5.949   3.391   1.227  0.5473  0.1952  0.0611
  482MOL0     C64997   5.955   3.388   1.376  0.0800  0.7108  0.4734
  482MOL0     C64998   6.009   3.253   1.423  0.5836  0.5418 -0.8037
  482MOL0     C64999   6.067   3.152   1.459  0.2854  0.3658  0.7221
  482MOL0     C65000   5.910   3.566   0.740 -0.1018 -0.7663 -0.4192
  482MOL0     C65001   5.936   3.574   0.603 -0.7656 -0.0487  0.7126
  482MOL0     C65002   5.820   3.613   0.510 -0.1264 -0.6604 -0.0762
  482MOL0     H65003   6.192   3.397   0.188 -0.9494  2.2307  1.2408
  482MOL0     H65004   6.297   3.403  -0.017 -1.1307  0.6122  1.4394
  482MOL0     H65005   6.527   3.744  -0.110 -2.5766 -0.7311 -2.9827
  482MOL0     H65006   6.681   3.671  -0.068 -0.2745  4.7596 -0.8780
  482MOL0     H65007   6.509   3.648  -0.317 -0.4469 -3.1269  2.3640
  482MOL0     H65008   6.673   3.577  -0.318 -1.5829 -0.1313 -2.6329
  482MOL0     H65009   6.751   3.835  -0.259  0.9978  0.4181 -2.2668
  482MOL0     H65010   6.589   3.871  -0.305  2.1699  1.9287  0.6467
  482MOL0     H65011   6.826   3.737  -0.427 -0.0067 -0.6903  1.1972
  482MOL0     H65012   6.680   3.752  -0.522 -0.3840  1.4247 -1.3786
  482MOL0     H65013   6.714   4.028  -0.475 -0.8017 -1.3930  0.8852
  482MOL0     H65014   6.874   3.972  -0.443  0.0561 -2.7566  0.9228
  482MOL0     H65015   6.835   3.832  -0.671 -0.8296 -0.2585  1.8734
  482MOL0     H65016   6.719   3.968  -0.693 -0.8194  3.3159  2.3166
  482MOL0     H65017   6.915   4.119  -0.605  0.7608  0.0260  0.0416
  482MOL0     H65018   6.913   4.057  -0.781 -1.3635 -1.7221  0.1626
  482MOL0     H65019   7.074   3.917  -0.557  0.5190  0.5417  0.0967
  482MOL0     H65020   7.055   3.900  -0.746 -4.1226  1.8479 -0.4017
  482MOL0     H65021   7.139   4.112  -0.881  0.5593 -1.0292  0.1503
  482MOL0     H65022   7.272   4.343  -0.921 -1.0893 -2.8248 -0.6251
  482MOL0     H65023   7.422   4.373  -0.819 -1.1512 -1.3093  3.1444
  482MOL0     H65024   7.382   4.137  -0.995 -0.1491  0.9301 -1.6039
  482MOL0     H65025   7.468   4.283  -1.059  2.2758  0.6251  1.1456
  482MOL0     H65026   7.561   4.118  -0.828  0.4193 -1.0521  0.0245
  482MOL0     H65027   7.623   4.270  -0.878 -0.8351  0.3415 -1.9839
  482MOL0     H65028   7.723   4.170  -1.073 -1.0214  0.1676 -0.3463
  482MOL0     H65029   7.607   4.045  -1.089  2.7241 -0.6758 -1.0457
  482MOL0     H65030   7.536   3.875  -0.975 -0.3332 -1.4945  0.0572
  482MOL0     H65031   7.530   3.631  -0.968 -0.1101  1.0656 -2.8685
  482MOL0     H65032   7.722   3.260  -0.688  0.3047 -4.0217  2.8546
  482MOL0     H65033   7.723   3.038  -0.654 -0.2600 -0.1392 -0.0110
  482MOL0     H65034   7.528   2.753  -0.966 -0.0675 -0.0734 -1.3376
  482MOL0     H65035   7.698   2.802  -0.951 -0.4906 -0.7935 -0.5512
  482MOL0     H65036   7.716   2.645  -0.750  0.4475  0.5532 -1.0516
  482MOL0     H65037   7.542   2.599  -0.794 -2.8635  5.2556 -1.8931
  482MOL0     H65038   7.643   2.564  -1.038 -1.7964  2.3262  1.6061
  482MOL0     H65039   7.797   2.594  -0.975  0.8033 -1.2646 -0.4409
  482MOL0     H65040   7.608   2.365  -0.906 -0.3890  0.9558  0.4403
  482MOL0     H65041   7.751   2.383  -0.807  1.4544 -0.0660 -0.5624
  482MOL0     H65042   7.904   2.335  -0.991 -0.3855  0.6547 -0.5176
  482MOL0     H65043   7.771   2.349  -1.100  0.5813 -0.0939  0.4159
  482MOL0     H65044   7.670   2.156  -1.045 -0.2096 -0.1547 -0.6241
  482MOL0     H65045   7.847   2.119  -1.059 -1.6325  0.0025 -1.9451
  482MOL0     H65046   7.711   2.146  -0.797 -1.4362  1.7475 -2.1803
  482MOL0     H65047   7.878   2.091  -0.817 -0.8487  1.1105  0.8228
  482MOL0     H65048   7.727   1.917  -0.749  0.7566 -0.4616  0.3934
  482MOL0     H65049   7.632   1.929  -0.896 -0.7571  0.6021  2.0410
  482MOL0     H65050   7.437   2.959  -0.969  1.4561  0.6514 -0.9924
  482MOL0     H65051   7.430   3.212  -1.020  1.2242  3.3606 -0.6846
  482MOL0     H65052   7.916   3.610  -0.803  2.6174 -0.6253 -4.3391
  482MOL0     H65053   7.937   3.865  -0.848 -0.5928  0.2957  1.5806
  482MOL0     H65054   6.580   3.697   0.124 -0.3838 -1.0401 -4.8043
  482MOL0     H65055   6.426   3.732   0.329 -2.6596  1.5023  0.1910
  482MOL0     H65056   6.259   3.488   0.608 -1.3248 -1.7010 -1.2921
  482MOL0     H65057   6.205   3.472   0.851  0.3829  1.4511 -0.3742
  482MOL0     H65058   5.773   3.427   0.983 -0.5857  1.3370 -4.1589
  482MOL0     H65059   5.797   3.589   0.986  0.8077 -0.2088 -1.9547
  482MOL0     H65060   5.759   3.487   1.211  0.4910  2.1727  3.2205
  482MOL0     H65061   5.907   3.598   1.217  2.6908 -1.1405 -1.5382
  482MOL0     H65062   6.051   3.392   1.188  1.9183  0.4508  3.3031
  482MOL0     H65063   5.902   3.297   1.196 -2.3768  0.9065  1.8610
  482MOL0     H65064   6.019   3.472   1.402  0.9430 -0.5664  2.7462
  482MOL0     H65065   5.854   3.393   1.419 -0.6397 -1.9968 -0.6873
  482MOL0     H65066   6.114   3.056   1.449  0.8618  0.6745  0.4236
  482MOL0     H65067   5.809   3.590   0.771  0.8360  1.9245  0.8748
  482MOL0     H65068   5.839   3.633   0.404  3.3855 -2.1678  0.1458
  482MOL0     H65069   5.746   3.533   0.522  0.1790 -0.7175  1.6396
  482MOL0     H65070   5.775   3.702   0.554  3.0112  0.2320  1.6074
  483MOL0     O65071   8.834   8.373   0.604  0.5392  0.3096 -0.4958
  483MOL0     C65072   8.731   8.419   0.551  0.0966 -0.2158  0.1807
  483MOL0     O65073   8.622   8.490   0.618 -0.2697 -0.2222 -0.2357
  483MOL0     C65074   8.633   8.547   0.735  0.7930 -1.0015 -0.2133
  483MOL0     C65075   8.506   8.571   0.792 -0.1463 -0.7090  0.8292
  483MOL0     C65076   8.502   8.640   0.914 -0.0496  0.8804  0.1032
  483MOL0     C65077   8.608   8.703   0.976 -0.0376  1.1441 -0.2034
  483MOL0     O65078   8.582   8.784   1.085 -0.6204 -0.7053  1.1515
  483MOL0     C65079   8.683   8.811   1.177 -1.0245  0.4069  0.3151
  483MOL0     C65080   8.644   8.905   1.284 -0.3020 -0.0620  0.3904
  483MOL0     C65081   8.763   8.956   1.362 -0.1656  0.4288  0.4479
  483MOL0     C65082   8.841   9.054   1.275 -0.3743 -0.1407 -0.5940
  483MOL0     C65083   8.910   9.166   1.352  0.3258 -0.2564  0.8369
  483MOL0     C65084   9.019   9.122   1.452  0.6898  0.1819  0.9487
  483MOL0     C65085   9.161   9.118   1.392  0.0335 -0.3974 -0.0827
  483MOL0     C65086   9.259   9.062   1.510 -0.0056  0.2541 -0.5957
  483MOL0     N65087   9.387   9.014   1.468  0.0325  1.2455 -0.3479
  483MOL0     C65088   9.492   9.071   1.405 -0.1550  0.3317  0.4275
  483MOL0     C65089   9.590   8.974   1.380  0.4670 -1.2054 -0.0963
  483MOL0     C65090   9.711   8.974   1.285  0.4142  0.5523  0.2067
  483MOL0     C65091   9.845   8.985   1.362  0.2456 -0.2550  0.4404
  483MOL0     C65092   9.879   8.844   1.428  0.3405 -0.1448  0.1627
  483MOL0     C65093   9.912   8.723   1.336 -0.6752  0.3179 -0.8372
  483MOL0     O65094   9.957   8.611   1.418 -0.7537 -0.3077  0.3059
  483MOL0     C65095  10.089   8.607   1.442  0.4327 -0.1894 -0.5146
  483MOL0     C65096  10.140   8.482   1.459  0.3547  0.6973 -0.9281
  483MOL0     C65097  10.278   8.454   1.475 -0.4615 -0.2017  1.1250
  483MOL0     C65098  10.370   8.570   1.474 -0.0163  0.2224  0.9902
  483MOL0     C65099  10.514   8.539   1.470  0.5648  0.4863  0.6317
  483MOL0     O65100  10.541   8.405   1.473  0.7144  0.1310  0.0375
  483MOL0     C65101  10.673   8.357   1.468  0.2621 -0.1429 -0.4032
  483MOL0     C65102  10.744   8.322   1.579  0.0146 -0.4338 -0.2591
  483MOL0     C65103  10.871   8.282   1.570 -0.2283  0.4213 -1.0443
  483MOL0     C65104  10.944   8.301   1.462 -1.6369  0.4010  0.2781
  483MOL0     O65105  11.081   8.264   1.463  0.0288  0.3516  1.1348
  483MOL0     C65106  11.154   8.332   1.364 -0.3549  0.0861 -0.0814
  483MOL0     C65107  11.302   8.327   1.394 -0.7843  0.3268 -0.0393
  483MOL0     C65108  11.350   8.181   1.393 -0.7846 -0.0659 -0.3326
  483MOL0     C65109  11.504   8.185   1.411 -0.9944  0.0778 -0.7871
  483MOL0     C65110  11.555   8.055   1.479 -0.3561  0.1364  0.2507
  483MOL0     C65111  11.702   8.038   1.464 -0.3904  0.1184 -0.7765
  483MOL0     C65112  11.759   7.924   1.553 -0.5338 -0.3478  0.2943
  483MOL0     C65113  11.912   7.916   1.542 -0.2345 -0.3272 -1.1451
  483MOL0    Cl65114  11.976   7.849   1.386 -0.4867  0.0104 -0.7067
  483MOL0     C65115  10.883   8.352   1.349 -0.3768 -0.3536 -0.0536
  483MOL0     C65116  10.749   8.378   1.351  0.8723  0.6275 -0.5385
  483MOL0     O65117  10.593   8.629   1.450 -0.5734  0.1643  0.3493
  483MOL0     C65118  10.315   8.694   1.453 -0.8698  0.0291  0.4287
  483MOL0     C65119  10.180   8.720   1.441 -0.1859  0.0790 -0.3873
  483MOL0     N65120   9.546   8.864   1.450 -0.2433 -0.5286  0.5066
  483MOL0     N65121   9.425   8.883   1.491  0.0767 -0.4817 -0.2308
  483MOL0     C65122   8.734   8.695   0.905  1.2978 -0.8539  0.3667
  483MOL0     C65123   8.746   8.604   0.797  0.2171 -0.8080 -0.3840
  483MOL0     C65124   8.703   8.404   0.401 -0.6321  0.3569 -0.1934
  483MOL0     C65125   8.569   8.369   0.363  0.4473  0.2954  0.2365
  483MOL0     C65126   8.550   8.322   0.238  0.3733  1.6455  0.6884
  483MOL0     C65127   8.651   8.315   0.139 -0.2559  0.0241 -0.9819
  483MOL0     O65128   8.640   8.272   0.015 -0.8862  0.5241  0.6104
  483MOL0     C65129   8.510   8.247  -0.032  0.0743  0.8251 -0.8194
  483MOL0     C65130   8.496   8.210  -0.179  0.4590 -0.2426  1.3109
  483MOL0     C65131   8.347   8.211  -0.207  0.3258 -0.0398  0.0435
  483MOL0     C65132   8.317   8.171  -0.353  1.0991  0.6137 -0.1955
  483MOL0     C65133   8.348   8.265  -0.458 -0.1659  0.4159  0.0273
  483MOL0     C65134   8.360   8.336  -0.557 -0.0858  0.7309  0.2549
  483MOL0     C65135   8.779   8.354   0.173 -0.1193  0.2203  0.3372
  483MOL0     C65136   8.809   8.402   0.301 -0.9309 -0.2304 -0.7962
  483MOL0     C65137   8.952   8.422   0.326  0.1734 -0.2659 -0.3757
  483MOL0     H65138   8.422   8.520   0.747  0.1702 -0.2226 -0.3470
  483MOL0     H65139   8.407   8.651   0.965  1.0198 -0.2557  2.4927
  483MOL0     H65140   8.715   8.716   1.218  1.3833  0.4057 -1.3308
  483MOL0     H65141   8.776   8.841   1.127  0.0473 -1.3693  1.1586
  483MOL0     H65142   8.580   8.849   1.353 -0.4630  0.2861  0.5211
  483MOL0     H65143   8.579   8.981   1.240  0.2234 -0.5741 -1.3795
  483MOL0     H65144   8.829   8.877   1.401 -0.7598  0.0463  0.6979
  483MOL0     H65145   8.726   9.003   1.454 -2.7825 -1.3345  0.4179
  483MOL0     H65146   8.921   8.997   1.227  0.2800 -0.0195  0.3413
  483MOL0     H65147   8.769   9.106   1.210 -0.7704  2.5919  1.8476
  483MOL0     H65148   8.945   9.233   1.274  0.4798 -2.2116 -0.8578
  483MOL0     H65149   8.825   9.214   1.402  0.4679 -0.0194  0.8487
  483MOL0     H65150   9.020   9.205   1.524  3.5227  1.0976 -0.0228
  483MOL0     H65151   8.986   9.030   1.503  1.5826  0.2280  1.6281
  483MOL0     H65152   9.202   9.216   1.365 -1.7889  0.6368  0.7110
  483MOL0     H65153   9.168   9.056   1.302  2.0474  1.7475 -1.5139
  483MOL0     H65154   9.276   9.136   1.589  1.5651  0.2482 -0.8861
  483MOL0     H65155   9.215   8.977   1.562  0.0850 -0.0507 -1.0101
  483MOL0     H65156   9.478   9.170   1.365 -0.2919  1.8319  3.8182
  483MOL0     H65157   9.717   8.883   1.226  1.2637  0.2515  0.7394
  483MOL0     H65158   9.698   9.068   1.231 -0.9845  0.7140  0.7522
  483MOL0     H65159   9.924   9.012   1.290 -1.6250 -0.6509 -1.8862
  483MOL0     H65160   9.829   9.066   1.434  1.5787  0.3263  0.1116
  483MOL0     H65161   9.793   8.810   1.487 -0.3176 -1.3801 -1.4396
  483MOL0     H65162   9.958   8.859   1.502  0.9287  3.0794 -0.9381
  483MOL0     H65163   9.987   8.754   1.263 -0.4756 -1.0823 -1.2368
  483MOL0     H65164   9.832   8.697   1.266 -0.0457  0.1078 -1.4779
  483MOL0     H65165  10.058   8.411   1.458  0.5440  0.3851  1.3436
  483MOL0     H65166  10.318   8.356   1.454  1.8754  0.9623 -0.2623
  483MOL0     H65167  10.692   8.305   1.673  0.4390 -0.0264  0.0551
  483MOL0     H65168  10.933   8.244   1.651 -0.6131 -1.5383 -1.6049
  483MOL0     H65169  11.144   8.290   1.264  0.5479 -0.5869  0.0990
  483MOL0     H65170  11.134   8.440   1.361  0.1066  0.1441 -1.9182
  483MOL0     H65171  11.352   8.379   1.312  0.5027 -0.4099  0.2527
  483MOL0     H65172  11.329   8.366   1.493  0.2764 -1.4670  0.4195
  483MOL0     H65173  11.298   8.137   1.478  2.2329 -1.3054  1.0188
  483MOL0     H65174  11.329   8.128   1.300  2.3241 -1.1705 -0.5323
  483MOL0     H65175  11.537   8.268   1.474 -0.0828 -0.4770 -0.5157
  483MOL0     H65176  11.553   8.201   1.315 -1.0153  0.0057 -0.8104
  483MOL0     H65177  11.499   7.965   1.452 -1.8666 -0.3943  4.3450
  483MOL0     H65178  11.543   8.076   1.586  1.0630  2.0950  0.0765
  483MOL0     H65179  11.719   8.023   1.357 -2.5666  1.5760 -1.3922
  483MOL0     H65180  11.771   8.122   1.479  0.6108 -0.8054 -0.0263
  483MOL0     H65181  11.716   7.830   1.518  3.6442 -2.4989  0.2332
  483MOL0     H65182  11.737   7.950   1.657  0.0700 -1.8069  0.8181
  483MOL0     H65183  11.957   8.013   1.565  0.7432 -0.4692 -2.3756
  483MOL0     H65184  11.952   7.836   1.606 -0.9171 -1.5575 -2.1909
  483MOL0     H65185  10.941   8.366   1.257  2.2629 -0.6307  1.4610
  483MOL0     H65186  10.696   8.420   1.267 -0.6804 -1.0645 -0.4615
  483MOL0     H65187  10.390   8.773   1.444 -2.6095  1.5759 -1.7298
  483MOL0     H65188  10.150   8.823   1.425 -2.9215 -0.6704 -0.7012
  483MOL0     H65189   8.826   8.735   0.947  0.7768  2.6440 -1.4810
  483MOL0     H65190   8.844   8.578   0.759  0.1079 -0.1827 -1.1428
  483MOL0     H65191   8.489   8.398   0.430 -0.6532 -2.7143  0.3905
  483MOL0     H65192   8.449   8.293   0.212  1.2324  1.3794 -2.8638
  483MOL0     H65193   8.439   8.322   0.003  0.3463  0.3234  0.8805
  483MOL0     H65194   8.476   8.159   0.024 -0.7441  1.3585 -0.4680
  483MOL0     H65195   8.540   8.119  -0.221 -2.0402 -0.2194 -1.7676
  483MOL0     H65196   8.523   8.296  -0.242 -3.8521 -0.5085 -1.3299
  483MOL0     H65197   8.303   8.310  -0.199 -2.5128 -1.3092  1.6749
  483MOL0     H65198   8.292   8.135  -0.151 -1.5866 -0.4839 -2.2835
  483MOL0     H65199   8.364   8.075  -0.377  0.7778  0.5740 -0.6655
  483MOL0     H65200   8.210   8.156  -0.372  1.4503 -2.3268 -0.3069
  483MOL0     H65201   8.379   8.406  -0.635  0.3775  0.0034 -0.2960
  483MOL0     H65202   8.863   8.344   0.106  1.5385  0.1236  2.3275
  483MOL0     H65203   9.009   8.352   0.264  0.4080  0.8973 -1.5336
  483MOL0     H65204   8.967   8.529   0.306  3.2436 -0.4414  0.3678
  483MOL0     H65205   8.981   8.395   0.428 -0.6297 -1.6771 -0.5045
  484MOL0     O65206   2.035  11.291  10.717 -0.3142  0.0065  0.0645
  484MOL0     C65207   2.049  11.211  10.624 -0.3746 -0.3327 -1.3369
  484MOL0     O65208   2.008  11.082  10.623  0.0140 -0.2050 -0.2520
  484MOL0     C65209   1.935  11.035  10.730 -0.1013  0.9840 -0.2743
  484MOL0     C65210   1.965  10.905  10.776 -0.4842  0.0925  1.4988
  484MOL0     C65211   1.883  10.857  10.876 -1.4841 -0.1956  0.4667
  484MOL0     C65212   1.793  10.929  10.944  0.4979  0.1114 -0.3223
  484MOL0     O65213   1.721  10.886  11.053  0.2309  0.2304  0.4316
  484MOL0     C65214   1.739  10.768  11.127 -0.3732  0.3401  0.2183
  484MOL0     C65215   1.626  10.745  11.225  1.7029  0.3173  0.6203
  484MOL0     C65216   1.635  10.824  11.354 -0.0324 -0.7837  0.0931
  484MOL0     C65217   1.512  10.789  11.436  0.2978  0.2473 -0.4911
  484MOL0     C65218   1.514  10.871  11.561  0.3848  0.5001  0.3906
  484MOL0     C65219   1.471  11.014  11.542 -0.5381  0.8598  0.1391
  484MOL0     C65220   1.435  11.109  11.667  0.0283 -0.8554  0.2076
  484MOL0     C65221   1.320  11.054  11.751  0.0807 -0.7590 -0.2372
  484MOL0     N65222   1.180  11.038  11.686  0.7506  0.1108  1.3143
  484MOL0     C65223   1.085  11.133  11.678  0.1415 -0.5605 -0.3755
  484MOL0     C65224   0.979  11.074  11.622  0.6664  0.0682 -0.0326
  484MOL0     C65225   0.858  11.142  11.570  0.4434 -1.1267 -0.2129
  484MOL0     C65226   0.735  11.157  11.677 -0.5124  0.1822  0.3629
  484MOL0     C65227   0.617  11.240  11.620  0.9290  0.0500 -0.1835
  484MOL0     C65228   0.489  11.211  11.704  0.3863 -0.1187  0.0224
  484MOL0     O65229   0.501  11.248  11.839  0.4521  0.1099  0.1535
  484MOL0     C65230   0.393  11.226  11.918  0.2739 -0.7357  0.3820
  484MOL0     C65231   0.254  11.213  11.871  0.2161  0.2928 -0.0583
  484MOL0     C65232   0.152  11.195  11.975 -0.8815  0.0759  0.4284
  484MOL0     C65233   0.185  11.194  12.114  0.1370 -0.5295 -0.5847
  484MOL0     C65234   0.082  11.157  12.216  0.1844 -0.0862  0.3568
  484MOL0     O65235   0.136  11.119  12.337 -0.5230 -0.0675  0.1147
  484MOL0     C65236   0.052  11.054  12.429  0.2733 -0.7873 -0.6592
  484MOL0     C65237   0.050  11.092  12.557 -0.5133  0.3584 -0.1935
  484MOL0     C65238  -0.042  11.035  12.650 -0.2033 -0.3073 -0.7138
  484MOL0     C65239  -0.121  10.928  12.618  1.0250  0.4537  0.5680
  484MOL0     O65240  -0.224  10.870  12.685 -0.2478 -0.8924  0.3362
  484MOL0     C65241  -0.234  10.878  12.830 -0.1820 -0.0610 -0.8726
  484MOL0     C65242  -0.164  10.757  12.893 -0.1949  0.3206  0.5264
  484MOL0     C65243  -0.186  10.747  13.041 -0.0630 -1.9575 -0.0482
  484MOL0     C65244  -0.314  10.682  13.063 -0.0160  0.7270 -0.0899
  484MOL0     C65245  -0.361  10.685  13.219  0.4419  0.6663  0.7665
  484MOL0     C65246  -0.469  10.579  13.268  0.1307  0.9786 -0.0962
  484MOL0     C65247  -0.607  10.573  13.186  0.6123 -0.5937 -0.6421
  484MOL0     C65248  -0.737  10.573  13.272  0.4883 -0.2583 -0.8139
  484MOL0    Cl65249  -0.720  10.440  13.385 -0.0911 -0.0726  0.0303
  484MOL0     C65250  -0.113  10.890  12.481  0.0231 -0.4530 -0.6717
  484MOL0     C65251  -0.027  10.946  12.387 -0.1384  0.1127 -0.4438
  484MOL0     O65252  -0.039  11.155  12.184 -0.0536  0.1878 -0.5527
  484MOL0     C65253   0.320  11.210  12.151 -0.0731 -0.7417  0.1943
  484MOL0     C65254   0.418  11.242  12.054 -0.6397 -0.7093  0.4572
  484MOL0     N65255   1.010  10.945  11.589 -0.2328  0.8281  0.6321
  484MOL0     N65256   1.132  10.924  11.626  0.2644  1.0709  0.0650
  484MOL0     C65257   1.773  11.056  10.905 -1.0253  0.6689 -0.0988
  484MOL0     C65258   1.841  11.111  10.797  0.3981 -0.4346 -0.2434
  484MOL0     C65259   2.093  11.287  10.496  0.6466 -1.4394  0.7112
  484MOL0     C65260   2.074  11.214  10.385 -0.8984  0.2859 -0.4086
  484MOL0     C65261   2.094  11.257  10.255  0.0279  0.3021  0.3586
  484MOL0     C65262   2.138  11.384  10.236 -0.2952 -0.8421  0.0892
  484MOL0     O65263   2.172  11.443  10.113  0.1941  0.4883 -0.6193
  484MOL0     C65264   2.187  11.350  10.000  0.0263 -1.0290  0.4053
  484MOL0     C65265   2.261  11.415   9.877 -0.3042 -0.5634 -0.8981
  484MOL0     C65266   2.157  11.485   9.791 -0.4731 -0.7275 -0.2263
  484MOL0     C65267   2.212  11.526   9.652  0.6828 -0.7334  0.4734
  484MOL0     C65268   2.115  11.602   9.580 -0.1135 -0.4631  0.6044
  484MOL0     C65269   2.036  11.669   9.512  0.2473 -0.5213  0.4812
  484MOL0     C65270   2.153  11.461  10.346  0.2148  0.0344 -0.1340
  484MOL0     C65271   2.133  11.421  10.470  0.5080 -0.1635 -0.7737
  484MOL0     C65272   2.173  11.515  10.589  1.3032  0.4326 -0.3471
  484MOL0     H65273   2.040  10.843  10.727 -0.2169  1.2428  0.4090
  484MOL0     H65274   1.894  10.757  10.916 -1.3828  0.3926  1.9873
  484MOL0     H65275   1.745  10.685  11.055 -1.8108  2.3565 -2.3877
  484MOL0     H65276   1.829  10.771  11.189 -0.0961  1.5525 -0.2117
  484MOL0     H65277   1.625  10.639  11.250  2.8328  0.1594  0.0727
  484MOL0     H65278   1.538  10.778  11.169  1.0751 -0.6337  1.0253
  484MOL0     H65279   1.641  10.930  11.329 -1.9275  0.4511  4.1474
  484MOL0     H65280   1.734  10.797  11.392  0.5423  0.4189 -0.5178
  484MOL0     H65281   1.417  10.804  11.383 -3.0178  1.4555  5.0437
  484MOL0     H65282   1.530  10.685  11.464  1.3769  0.3235 -0.8685
  484MOL0     H65283   1.444  10.826  11.631 -0.3926 -0.0398 -0.7112
  484MOL0     H65284   1.613  10.874  11.607  0.3970  3.2913  0.3379
  484MOL0     H65285   1.551  11.067  11.490 -1.2510 -0.1958 -2.1876
  484MOL0     H65286   1.394  11.010  11.464  0.7766 -0.0024 -1.1815
  484MOL0     H65287   1.408  11.199  11.612 -1.3565 -2.1242 -1.2706
  484MOL0     H65288   1.511  11.142  11.739 -0.0190 -0.3108  0.0109
  484MOL0     H65289   1.343  10.954  11.790  1.8889 -0.0400  0.6568
  484MOL0     H65290   1.296  11.126  11.830 -3.0254 -0.9403 -0.8683
  484MOL0     H65291   1.095  11.238  11.703  1.6589 -0.1005 -2.5556
  484MOL0     H65292   0.902  11.240  11.549 -1.1316 -0.2969  0.1725
  484MOL0     H65293   0.820  11.093  11.480 -1.8623  0.1238  0.0065
  484MOL0     H65294   0.696  11.056  11.696  2.1477 -0.9956 -0.0626
  484MOL0     H65295   0.773  11.202  11.769 -0.7470 -0.4173  0.7599
  484MOL0     H65296   0.611  11.217  11.513 -0.6732  0.9220 -0.3133
  484MOL0     H65297   0.632  11.346  11.643  0.7612  0.2648 -1.0454
  484MOL0     H65298   0.458  11.108  11.682  2.2556 -0.2485 -2.5308
  484MOL0     H65299   0.407  11.267  11.656 -1.6538 -1.2162  2.0255
  484MOL0     H65300   0.232  11.221  11.765 -1.1560  1.1886  0.2767
  484MOL0     H65301   0.052  11.186  11.936 -0.5252 -2.4663 -0.1047
  484MOL0     H65302   0.121  11.161  12.602 -0.4691 -1.1827  2.2375
  484MOL0     H65303  -0.058  11.063  12.753  3.9247  0.7738 -0.1843
  484MOL0     H65304  -0.199  10.971  12.877 -2.2315  0.8828 -1.1286
  484MOL0     H65305  -0.341  10.889  12.851  0.3827  0.3540  2.3357
  484MOL0     H65306  -0.197  10.664  12.846 -2.1147  0.9526  0.5508
  484MOL0     H65307  -0.056  10.757  12.875 -0.4774 -0.0679 -1.4139
  484MOL0     H65308  -0.111  10.684  13.089  0.3724 -1.4757 -0.0957
  484MOL0     H65309  -0.198  10.846  13.087  0.2461  0.1156 -4.0293
  484MOL0     H65310  -0.312  10.582  13.020 -0.4741  0.3746  0.6754
  484MOL0     H65311  -0.389  10.741  13.008 -0.0513  1.1004  0.3523
  484MOL0     H65312  -0.416  10.778  13.238 -2.9027 -1.0241  0.0424
  484MOL0     H65313  -0.277  10.701  13.287  0.1531  1.9359  0.8596
  484MOL0     H65314  -0.421  10.482  13.252 -0.0355  0.9419 -0.3918
  484MOL0     H65315  -0.485  10.582  13.376  2.9645 -1.0330  0.4955
  484MOL0     H65316  -0.607  10.483  13.124  1.7995 -1.2041  0.2012
  484MOL0     H65317  -0.614  10.667  13.131 -2.0470 -0.3606 -0.0192
  484MOL0     H65318  -0.725  10.667  13.328  2.6098 -0.0447 -1.5379
  484MOL0     H65319  -0.828  10.573  13.212 -0.4807 -0.4747  0.6067
  484MOL0     H65320  -0.176  10.812  12.441 -0.8619  0.0698 -0.3247
  484MOL0     H65321  -0.027  10.904  12.287 -0.9395 -1.2511  0.1058
  484MOL0     H65322   0.349  11.209  12.255 -1.6963  0.4277  0.6951
  484MOL0     H65323   0.515  11.270  12.094 -1.0272 -1.7165  2.2137
  484MOL0     H65324   1.697  11.120  10.950 -2.7012 -0.3219 -1.3699
  484MOL0     H65325   1.815  11.211  10.764 -1.7528 -0.2246  1.8013
  484MOL0     H65326   2.055  11.108  10.400  2.2516 -0.4545 -0.9144
  484MOL0     H65327   2.069  11.187  10.177 -4.4488 -1.6737  3.1884
  484MOL0     H65328   2.087  11.325   9.963 -1.2278 -0.3990  3.0781
  484MOL0     H65329   2.249  11.265  10.029  1.2440 -0.1151  0.5645
  484MOL0     H65330   2.305  11.329   9.825 -1.6989 -2.5737  1.0502
  484MOL0     H65331   2.329  11.493   9.911 -1.9947  0.4915  0.2157
  484MOL0     H65332   2.129  11.579   9.839 -1.2599 -1.2744  0.4003
  484MOL0     H65333   2.078  11.413   9.770 -2.0947  1.0150 -0.3410
  484MOL0     H65334   2.287  11.599   9.682  0.2950  0.2998 -0.9891
  484MOL0     H65335   2.245  11.437   9.598 -3.3380 -3.3219  1.8173
  484MOL0     H65336   1.974  11.727   9.447 -0.1823  1.4600  2.5167
  484MOL0     H65337   2.184  11.564  10.327  0.9451 -0.0500  0.4988
  484MOL0     H65338   2.236  11.598  10.554  2.1754 -0.5155 -1.0985
  484MOL0     H65339   2.083  11.553  10.637 -0.0801 -0.7379 -1.8944
  484MOL0     H65340   2.226  11.470  10.673  3.0241  0.9397 -1.1205
  485MOL0     O65341   8.725   6.782   0.462  0.0979 -0.0420 -0.5343
  485MOL0     C65342   8.701   6.681   0.397 -0.5961  0.3181  0.2499
  485MOL0     O65343   8.796   6.581   0.370 -0.5828  0.5944  0.8666
  485MOL0     C65344   8.925   6.604   0.408  0.4434  0.1621  0.3367
  485MOL0     C65345   8.976   6.636   0.535  0.1959  0.6638  1.3426
  485MOL0     C65346   9.115   6.669   0.549  0.1935  1.0115  0.3429
  485MOL0     C65347   9.198   6.670   0.434 -0.7931 -0.5006 -0.7686
  485MOL0     O65348   9.339   6.698   0.441  0.1093  0.6258 -0.0678
  485MOL0     C65349   9.342   6.832   0.398  0.1522  0.2013  0.5371
  485MOL0     C65350   9.478   6.890   0.390 -0.3205  0.3941  0.5552
  485MOL0     C65351   9.558   6.837   0.278 -0.0271  0.3698  1.1970
  485MOL0     C65352   9.674   6.919   0.229  0.1175 -0.1464 -0.1612
  485MOL0     C65353   9.783   6.934   0.331 -1.0768 -0.4776 -0.2690
  485MOL0     C65354   9.884   7.040   0.288  0.2160 -0.5000  0.1722
  485MOL0     C65355   9.969   7.108   0.410 -0.4893  1.0021  0.3391
  485MOL0     C65356   9.934   7.251   0.445  0.1102 -0.1236  0.2673
  485MOL0     N65357   9.787   7.260   0.447 -1.1501  0.8659  0.2813
  485MOL0     C65358   9.721   7.345   0.360  0.6437 -0.2920 -0.1483
  485MOL0     C65359   9.599   7.354   0.423  0.3782  0.3806  0.1649
  485MOL0     C65360   9.480   7.411   0.358  0.7033 -0.0581  0.4815
  485MOL0     C65361   9.362   7.314   0.357 -0.3443 -0.2565  0.9335
  485MOL0     C65362   9.240   7.366   0.287 -1.1357 -0.1987 -0.1073
  485MOL0     C65363   9.169   7.484   0.365  0.4125  0.3832 -0.3290
  485MOL0     O65364   9.155   7.439   0.503 -0.1723  0.0775 -0.1033
  485MOL0     C65365   9.052   7.472   0.590  0.5965  0.9189 -0.2640
  485MOL0     C65366   8.936   7.530   0.536  0.3984 -0.1164  0.0167
  485MOL0     C65367   8.831   7.566   0.621 -0.0760 -0.3446 -0.3979
  485MOL0     C65368   8.843   7.568   0.763 -1.3302  0.0566  0.9122
  485MOL0     C65369   8.735   7.629   0.840  0.4976  0.4494 -0.6054
  485MOL0     O65370   8.738   7.598   0.976 -0.3273 -0.0476  0.2083
  485MOL0     C65371   8.650   7.656   1.060 -0.4006 -0.3799  0.4391
  485MOL0     C65372   8.697   7.693   1.185  0.0793 -0.1146  0.0260
  485MOL0     C65373   8.613   7.732   1.287  0.3964 -0.1438 -0.8888
  485MOL0     C65374   8.479   7.736   1.272  0.3657  0.0501 -0.2028
  485MOL0     O65375   8.388   7.757   1.368 -0.5433 -0.8748  0.2088
  485MOL0     C65376   8.440   7.771   1.506  0.1716  0.7211 -0.1856
  485MOL0     C65377   8.326   7.809   1.598  0.0018  0.3198  0.7605
  485MOL0     C65378   8.372   7.823   1.746  0.5624 -0.2864 -0.6751
  485MOL0     C65379   8.253   7.871   1.843  1.2234  0.1327 -0.0217
  485MOL0     C65380   8.299   7.900   1.993  0.1565 -0.2801  0.4834
  485MOL0     C65381   8.178   7.961   2.083 -0.8333 -0.1829  1.1008
  485MOL0     C65382   8.212   8.003   2.220 -1.0770  0.0726 -0.5088
  485MOL0     C65383   8.092   8.019   2.300 -0.0337 -0.5393  0.6366
  485MOL0    Cl65384   8.053   8.193   2.324 -0.0922  0.0832  0.2849
  485MOL0     C65385   8.421   7.708   1.145  0.0275 -0.4176 -0.2105
  485MOL0     C65386   8.510   7.682   1.037  0.3529  0.1899 -0.4815
  485MOL0     O65387   8.663   7.706   0.781  0.3473 -0.4368  0.0260
  485MOL0     C65388   8.965   7.527   0.811  0.0785 -0.0638 -0.5030
  485MOL0     C65389   9.061   7.462   0.728  0.1277  0.1862  0.2415
  485MOL0     N65390   9.599   7.287   0.545 -0.0717  0.3248  0.5667
  485MOL0     N65391   9.709   7.220   0.553  0.6247  0.4190 -0.3594
  485MOL0     C65392   9.141   6.634   0.306  0.5970  0.1716  0.1391
  485MOL0     C65393   9.009   6.615   0.301  0.2315 -0.1439 -0.6830
  485MOL0     C65394   8.558   6.662   0.357  0.2486 -0.7324 -0.7288
  485MOL0     C65395   8.504   6.533   0.378 -0.2390 -0.4396  1.2837
  485MOL0     C65396   8.375   6.497   0.332 -0.0827 -1.4414 -0.7958
  485MOL0     C65397   8.293   6.598   0.285 -0.6448  0.4697  0.2725
  485MOL0     O65398   8.162   6.570   0.257  0.1246  0.1768  0.7267
  485MOL0     C65399   8.064   6.664   0.287 -0.1554 -0.8899 -0.5444
  485MOL0     C65400   7.926   6.595   0.305 -0.8987 -0.4933 -1.2195
  485MOL0     C65401   7.898   6.488   0.207  0.0635  0.7464  0.8077
  485MOL0     C65402   7.758   6.446   0.235  0.6310  0.3547 -0.6962
  485MOL0     C65403   7.739   6.316   0.309 -0.3054 -0.4906 -0.4153
  485MOL0     C65404   7.724   6.214   0.366  1.3720  0.4603  0.6843
  485MOL0     C65405   8.344   6.733   0.277  0.1583 -0.0076 -0.8423
  485MOL0     C65406   8.477   6.768   0.312  0.4123  0.1220  0.0159
  485MOL0     C65407   8.527   6.911   0.288 -0.4487  0.1638 -0.1576
  485MOL0     H65408   8.917   6.629   0.626 -1.7481 -3.5168  0.0506
  485MOL0     H65409   9.153   6.695   0.647 -1.0232 -0.9271  1.3946
  485MOL0     H65410   9.299   6.844   0.298 -1.7326 -0.7144  1.1825
  485MOL0     H65411   9.277   6.892   0.463  2.5554  1.9300  1.5030
  485MOL0     H65412   9.530   6.878   0.486 -3.1982 -0.7385  2.1207
  485MOL0     H65413   9.458   6.995   0.370 -2.9019 -0.2504 -0.7029
  485MOL0     H65414   9.490   6.808   0.198  0.8452 -1.5411  1.0817
  485MOL0     H65415   9.602   6.745   0.319 -1.0302  0.2807  2.1344
  485MOL0     H65416   9.727   6.873   0.146 -1.1042  1.3434 -1.8529
  485MOL0     H65417   9.630   7.012   0.191  0.0468  0.3649  1.0948
  485MOL0     H65418   9.744   6.955   0.431  0.3147  0.9684  0.0182
  485MOL0     H65419   9.833   6.837   0.340 -0.7031 -0.3221 -0.6278
  485MOL0     H65420   9.955   6.997   0.217  0.7576 -1.5427  1.3100
  485MOL0     H65421   9.828   7.117   0.233  0.2600 -1.6131 -1.4814
  485MOL0     H65422  10.071   7.115   0.372 -0.0810 -2.9075  0.3096
  485MOL0     H65423   9.972   7.038   0.494 -0.5946 -1.8235 -1.8324
  485MOL0     H65424   9.965   7.282   0.545 -1.0723  2.8856 -0.1964
  485MOL0     H65425   9.970   7.328   0.376 -0.0528 -0.7333 -0.5253
  485MOL0     H65426   9.742   7.376   0.258 -0.5931 -0.6372 -0.5166
  485MOL0     H65427   9.465   7.499   0.422  0.9360  2.2560 -2.4289
  485MOL0     H65428   9.514   7.450   0.262  2.3205  1.7289  1.6774
  485MOL0     H65429   9.391   7.236   0.286  1.7813  0.9248  0.4286
  485MOL0     H65430   9.342   7.271   0.456 -0.3622 -0.8133  0.6888
  485MOL0     H65431   9.166   7.291   0.255  0.3984 -1.4689 -0.8263
  485MOL0     H65432   9.273   7.408   0.192 -0.3440 -0.3856  0.0825
  485MOL0     H65433   9.074   7.487   0.311  0.4344  0.6048 -0.3571
  485MOL0     H65434   9.218   7.581   0.372  1.4601 -0.1364 -0.2147
  485MOL0     H65435   8.927   7.556   0.431 -0.7012 -0.1458  0.0943
  485MOL0     H65436   8.738   7.587   0.569  0.0052 -2.7377 -1.6480
  485MOL0     H65437   8.801   7.683   1.214 -0.1038 -2.7088  0.0997
  485MOL0     H65438   8.653   7.744   1.387  1.6204 -2.1413 -1.0960
  485MOL0     H65439   8.473   7.673   1.540 -1.0294 -0.0153 -1.0573
  485MOL0     H65440   8.521   7.844   1.515  1.8836 -1.2004  1.1127
  485MOL0     H65441   8.280   7.902   1.564  1.2112  0.3255 -1.0059
  485MOL0     H65442   8.248   7.732   1.593 -0.7324  1.0078  1.2858
  485MOL0     H65443   8.414   7.726   1.775  2.9873  0.8954  0.0026
  485MOL0     H65444   8.458   7.890   1.750  0.5781 -0.3227 -0.4182
  485MOL0     H65445   8.169   7.800   1.840 -0.3776  1.9576 -0.5973
  485MOL0     H65446   8.220   7.964   1.797  2.9749 -0.7148 -3.3266
  485MOL0     H65447   8.389   7.961   1.986  0.3278 -0.6899 -1.4909
  485MOL0     H65448   8.318   7.802   2.037  1.9742  0.6642  1.9357
  485MOL0     H65449   8.142   8.053   2.036  2.0668 -0.3476 -1.8092
  485MOL0     H65450   8.097   7.888   2.081 -0.9497 -0.1896  3.4899
  485MOL0     H65451   8.277   8.092   2.218  1.1347 -1.4550 -0.4212
  485MOL0     H65452   8.274   7.927   2.267  1.0783  1.5089 -0.8698
  485MOL0     H65453   8.006   7.973   2.250 -0.3207  3.4377 -3.0754
  485MOL0     H65454   8.104   7.969   2.397  1.0184 -1.6211 -0.0195
  485MOL0     H65455   8.314   7.707   1.132  0.1496 -0.2066 -1.3165
  485MOL0     H65456   8.481   7.654   0.936 -1.2125 -1.5931  0.4016
  485MOL0     H65457   8.974   7.525   0.920  4.9236 -1.7052 -0.6726
  485MOL0     H65458   9.148   7.411   0.767  1.6524  1.9936 -0.6009
  485MOL0     H65459   9.204   6.643   0.218  0.6401  0.8008  0.2276
  485MOL0     H65460   8.973   6.580   0.205  1.5156 -1.8747 -0.5669
  485MOL0     H65461   8.570   6.462   0.428  1.2958  0.9578  1.3260
  485MOL0     H65462   8.338   6.398   0.358 -0.8767 -0.7538  0.8785
  485MOL0     H65463   8.064   6.745   0.213 -1.1857  1.4000  1.8138
  485MOL0     H65464   8.081   6.710   0.384 -2.0699  2.8147 -1.7660
  485MOL0     H65465   7.850   6.673   0.298 -0.1494  0.2151 -1.8093
  485MOL0     H65466   7.921   6.557   0.407  0.1535 -1.5583 -1.5349
  485MOL0     H65467   7.962   6.401   0.227  3.0252  2.3633 -0.8135
  485MOL0     H65468   7.926   6.517   0.105 -0.9418  0.3071  0.3935
  485MOL0     H65469   7.705   6.524   0.290  0.3017  0.0211 -0.5293
  485MOL0     H65470   7.699   6.430   0.143 -1.1359  1.1545  0.2415
  485MOL0     H65471   7.725   6.123   0.423  1.6081  0.6384  0.9645
  485MOL0     H65472   8.281   6.813   0.240  1.0429  1.0163 -0.1728
  485MOL0     H65473   8.576   6.947   0.379  0.7901  0.1173 -0.7837
  485MOL0     H65474   8.599   6.906   0.205 -0.6157 -0.5837 -0.2624
  485MOL0     H65475   8.448   6.980   0.258  1.5640  1.8099 -2.0297
  486MOL0     O65476   8.229  10.350   2.274  0.1459  0.0767  0.0751
  486MOL0     C65477   8.254  10.250   2.335  0.3169  0.5418  0.6431
  486MOL0     O65478   8.296  10.134   2.270  0.0058 -0.1350  0.4402
  486MOL0     C65479   8.278  10.117   2.133  0.9479  0.8123  0.8033
  486MOL0     C65480   8.161  10.156   2.062  0.1144  0.0986  0.1069
  486MOL0     C65481   8.149  10.126   1.925 -0.5976  0.6037  0.5769
  486MOL0     C65482   8.256  10.066   1.851 -0.7312 -0.1412 -0.5225
  486MOL0     O65483   8.277  10.054   1.718  0.2438 -0.1827 -0.7694
  486MOL0     C65484   8.182  10.114   1.637  1.0755  0.3967 -0.7119
  486MOL0     C65485   8.201  10.118   1.487 -0.5824  0.5665  0.6283
  486MOL0     C65486   8.142  10.242   1.430  0.5687  1.1294  0.5392
  486MOL0     C65487   8.195  10.279   1.283 -0.5326 -1.0332 -0.3213
  486MOL0     C65488   8.130  10.408   1.240 -0.6516 -0.4363  0.7449
  486MOL0     C65489   7.978  10.407   1.238 -0.1921 -0.5052  0.5038
  486MOL0     C65490   7.928  10.289   1.156  0.3946 -0.0708  0.1274
  486MOL0     C65491   7.774  10.299   1.134 -0.2473  0.7063  0.0822
  486MOL0     N65492   7.728  10.410   1.054 -1.2083  0.0023  0.5709
  486MOL0     C65493   7.753  10.420   0.922 -0.0683 -0.4448 -0.8710
  486MOL0     C65494   7.712  10.544   0.890  0.1762 -0.4661 -0.3040
  486MOL0     C65495   7.719  10.604   0.757 -0.4403 -0.1430 -0.4980
  486MOL0     C65496   7.866  10.645   0.723  0.0832 -0.5784  0.1656
  486MOL0     C65497   7.939  10.537   0.653  0.0622 -1.2166  0.2729
  486MOL0     C65498   8.079  10.579   0.602  0.0838 -0.0012  0.1235
  486MOL0     O65499   8.167  10.635   0.696  0.5196 -0.7514 -0.4098
  486MOL0     C65500   8.305  10.633   0.683 -0.1935 -0.2336  0.1829
  486MOL0     C65501   8.368  10.583   0.573 -0.7585 -0.2008 -0.2030
  486MOL0     C65502   8.503  10.588   0.555 -0.8657  0.6476  0.0587
  486MOL0     C65503   8.587  10.650   0.654 -0.4403  0.1140  0.0831
  486MOL0     C65504   8.731  10.667   0.638  0.0605  0.5981 -0.6174
  486MOL0     O65505   8.781  10.621   0.517 -0.2588  0.3444  0.6643
  486MOL0     C65506   8.916  10.627   0.496 -0.5951  0.2743 -0.0367
  486MOL0     C65507   8.949  10.672   0.372 -0.9693 -0.9482  0.0823
  486MOL0     C65508   9.078  10.682   0.331 -0.1904  0.0281 -0.0370
  486MOL0     C65509   9.178  10.669   0.429 -0.7476  0.2914  0.4446
  486MOL0     O65510   9.312  10.690   0.411 -0.2467  0.5045 -0.8797
  486MOL0     C65511   9.365  10.726   0.283  0.0615 -0.3791 -0.0376
  486MOL0     C65512   9.521  10.730   0.279 -0.1505 -0.4903  0.6262
  486MOL0     C65513   9.578  10.676   0.146 -0.2057 -0.2080  0.6625
  486MOL0     C65514   9.727  10.665   0.125  0.9141 -0.3429  0.0941
  486MOL0     C65515   9.765  10.543   0.040  0.0942  0.1748 -0.6438
  486MOL0     C65516   9.914  10.568  -0.012 -0.4030  0.7360 -0.2556
  486MOL0     C65517   9.954  10.464  -0.123  0.4038  0.4267 -0.2699
  486MOL0     C65518  10.091  10.497  -0.183 -0.7843 -0.3941  0.5604
  486MOL0    Cl65519  10.071  10.632  -0.302  0.1498  0.0280  0.5755
  486MOL0     C65520   9.148  10.615   0.553 -0.4070 -0.2665 -1.9097
  486MOL0     C65521   9.016  10.588   0.588  0.2122 -0.1212 -0.6551
  486MOL0     O65522   8.794  10.706   0.734 -0.1160  0.0450 -1.2331
  486MOL0     C65523   8.518  10.700   0.766  0.1436 -0.6283  0.4100
  486MOL0     C65524   8.380  10.691   0.784 -0.4779  0.0485  0.5897
  486MOL0     N65525   7.659  10.609   1.005 -0.2131 -0.1213 -1.2529
  486MOL0     N65526   7.658  10.519   1.097 -0.0019  0.2948  0.0566
  486MOL0     C65527   8.364  10.020   1.922  0.4465 -1.3205  0.1622
  486MOL0     C65528   8.373  10.046   2.058 -0.3235  0.2090 -0.6142
  486MOL0     C65529   8.218  10.227   2.480 -0.4352 -0.0846  0.4956
  486MOL0     C65530   8.230  10.097   2.530  0.0003  0.3490 -0.0247
  486MOL0     C65531   8.199  10.075   2.662  0.1806  0.5329 -0.0132
  486MOL0     C65532   8.156  10.180   2.746 -0.7275  0.9723 -0.1111
  486MOL0     O65533   8.122  10.156   2.884 -0.4538  0.3044  0.5164
  486MOL0     C65534   8.141  10.022   2.948 -0.9318  0.6558  0.1181
  486MOL0     C65535   8.082  10.025   3.082 -0.0488 -0.1168  0.8079
  486MOL0     C65536   8.027   9.892   3.123 -0.2202  0.6075  0.5353
  486MOL0     C65537   7.949   9.896   3.246 -0.3972 -0.5540 -0.9151
  486MOL0     C65538   8.026   9.848   3.362 -0.6885 -0.4083 -0.5056
  486MOL0     C65539   8.109   9.803   3.445  0.2023 -0.1973 -0.1852
  486MOL0     C65540   8.132  10.304   2.697 -0.5414  0.5558 -0.7245
  486MOL0     C65541   8.157  10.331   2.563 -0.6471  0.2419  0.4855
  486MOL0     C65542   8.110  10.472   2.517 -0.0740  0.4048  0.6342
  486MOL0     H65543   8.092  10.220   2.116 -1.2010 -0.0790 -1.3091
  486MOL0     H65544   8.063  10.172   1.877  1.5976  1.7364 -2.6004
  486MOL0     H65545   8.090  10.057   1.651  3.1076 -3.1964 -0.5606
  486MOL0     H65546   8.159  10.214   1.674 -0.7211  0.5686 -2.1708
  486MOL0     H65547   8.145  10.032   1.449 -0.3740  0.3274  0.8590
  486MOL0     H65548   8.301  10.116   1.444 -1.7688  1.3338 -2.4379
  486MOL0     H65549   8.177  10.324   1.494  1.1403  2.0663 -0.9131
  486MOL0     H65550   8.035  10.220   1.436  1.0670 -1.6277  0.4919
  486MOL0     H65551   8.304  10.284   1.289 -0.6479  0.1029  3.1488
  486MOL0     H65552   8.172  10.195   1.216 -0.0089 -2.5161  1.2812
  486MOL0     H65553   8.173  10.501   1.281  2.3665 -0.0519 -2.7961
  486MOL0     H65554   8.160  10.427   1.136  1.7703 -0.9788  1.2764
  486MOL0     H65555   7.937  10.387   1.337 -3.5606  0.2210 -0.5977
  486MOL0     H65556   7.942  10.504   1.202 -1.3501 -1.7512 -2.0415
  486MOL0     H65557   7.949  10.192   1.202  5.5837  0.0671 -1.2526
  486MOL0     H65558   7.973  10.284   1.056 -0.4686  1.1845 -0.3422
  486MOL0     H65559   7.735  10.204   1.096  1.2637  1.2334 -3.1345
  486MOL0     H65560   7.732  10.311   1.234 -0.4573  0.2041  0.0560
  486MOL0     H65561   7.793  10.341   0.858  1.5506 -1.1758  0.9664
  486MOL0     H65562   7.676  10.532   0.686 -1.8691  1.4603 -1.3171
  486MOL0     H65563   7.654  10.690   0.741 -0.8548 -0.3251  0.1714
  486MOL0     H65564   7.863  10.735   0.662 -2.5234  0.8711  2.2232
  486MOL0     H65565   7.926  10.659   0.814  3.9086 -5.5329 -1.1302
  486MOL0     H65566   7.874  10.515   0.568 -0.0467  2.6638 -0.8289
  486MOL0     H65567   7.947  10.452   0.722 -0.6795  0.9440  3.2603
  486MOL0     H65568   8.060  10.644   0.516 -1.8973  0.7602  1.0847
  486MOL0     H65569   8.121  10.486   0.564 -0.6729  0.4432 -1.9219
  486MOL0     H65570   8.316  10.542   0.487 -2.7202  0.7659  0.4586
  486MOL0     H65571   8.543  10.530   0.472  0.2517 -0.5670  1.4023
  486MOL0     H65572   8.871  10.698   0.302 -0.5765 -0.0272 -0.0219
  486MOL0     H65573   9.111  10.706   0.231  0.9925 -2.0199 -0.2033
  486MOL0     H65574   9.341  10.653   0.205 -1.2770 -1.4048  1.2800
  486MOL0     H65575   9.330  10.823   0.248 -0.3982 -0.9748 -1.3326
  486MOL0     H65576   9.560  10.830   0.301 -0.2167  0.0660 -1.5810
  486MOL0     H65577   9.543  10.666   0.366  0.0151  1.8382  2.3846
  486MOL0     H65578   9.541  10.575   0.126 -1.3706  0.6856 -2.1911
  486MOL0     H65579   9.543  10.744   0.067  2.0084 -1.7729 -1.8353
  486MOL0     H65580   9.760  10.661   0.229 -1.5049  2.4960  1.1356
  486MOL0     H65581   9.761  10.760   0.082 -1.3398  1.8662  2.7789
  486MOL0     H65582   9.701  10.529  -0.048 -1.7276  1.3125  0.4367
  486MOL0     H65583   9.752  10.452   0.100 -1.2502  2.0836  2.1661
  486MOL0     H65584   9.930  10.673  -0.041  2.1406  1.6828  3.7035
  486MOL0     H65585   9.973  10.545   0.077  0.3827  1.6697 -0.5178
  486MOL0     H65586   9.878  10.447  -0.200  1.2874  0.0465 -1.0704
  486MOL0     H65587   9.968  10.374  -0.061 -1.4616  3.4844  5.3158
  486MOL0     H65588  10.163  10.530  -0.108 -1.9421  0.9458  1.1230
  486MOL0     H65589  10.123  10.407  -0.237 -1.1908  0.2950 -0.8971
  486MOL0     H65590   9.226  10.601   0.626 -3.7426 -0.4881  1.9817
  486MOL0     H65591   8.980  10.535   0.675 -2.3759  4.8027  1.6697
  486MOL0     H65592   8.589  10.740   0.838  0.5909  0.0512 -0.3821
  486MOL0     H65593   8.327  10.743   0.862 -1.2597  0.1254  0.0113
  486MOL0     H65594   8.444   9.961   1.879  0.9636  0.9484 -2.2429
  486MOL0     H65595   8.464  10.020   2.111 -0.7964 -2.0451 -0.7866
  486MOL0     H65596   8.258  10.014   2.465 -0.1924  0.0213  0.3044
  486MOL0     H65597   8.203   9.969   2.683  0.5385  0.7330  0.9712
  486MOL0     H65598   8.245   9.992   2.959 -0.6926  0.3414 -2.3869
  486MOL0     H65599   8.097   9.947   2.881 -1.0138 -1.9190  2.8406
  486MOL0     H65600   8.007  10.105   3.078  0.0333 -0.0799 -0.3544
  486MOL0     H65601   8.173  10.046   3.140  0.1797 -0.5088  0.5956
  486MOL0     H65602   8.114   9.825   3.129 -1.3955 -0.8396  2.5069
  486MOL0     H65603   7.957   9.851   3.049 -3.1807 -0.8910  3.8671
  486MOL0     H65604   7.905   9.995   3.261  2.1712  0.8007 -1.7894
  486MOL0     H65605   7.876   9.814   3.245  0.4921 -1.3816 -0.0515
  486MOL0     H65606   8.183   9.763   3.512  0.6163  2.5488  1.1133
  486MOL0     H65607   8.093  10.376   2.768 -0.2323 -0.5153  0.5859
  486MOL0     H65608   8.019  10.457   2.458  0.8115  0.8932 -0.9244
  486MOL0     H65609   8.102  10.543   2.600  0.2788  0.9878  0.1770
  486MOL0     H65610   8.178  10.521   2.447  3.0341 -3.1247  0.8135
  487MOL0     O65611   2.433  10.849  11.081  0.1452 -0.2898  0.4225
  487MOL0     C65612   2.348  10.919  11.141 -1.0638 -0.3662  0.2275
  487MOL0     O65613   2.353  11.051  11.140 -0.7885 -0.1418  0.4467
  487MOL0     C65614   2.424  11.114  11.040 -0.5037 -0.2325 -0.6256
  487MOL0     C65615   2.552  11.168  11.068 -0.0078  0.5764  0.1997
  487MOL0     C65616   2.618  11.237  10.970 -0.4248 -0.3115 -0.0351
  487MOL0     C65617   2.558  11.254  10.839 -0.8461 -0.7459 -1.3827
  487MOL0     O65618   2.632  11.328  10.748 -0.2048  0.0740 -0.2434
  487MOL0     C65619   2.563  11.372  10.632  0.0709 -0.5075 -0.8642
  487MOL0     C65620   2.534  11.525  10.638 -0.3946  0.5534 -0.5118
  487MOL0     C65621   2.511  11.578  10.496  0.2629 -0.5013 -0.0072
  487MOL0     C65622   2.496  11.735  10.516 -0.4674  0.3380 -0.1085
  487MOL0     C65623   2.495  11.822  10.385  0.4173  0.4892  0.6768
  487MOL0     C65624   2.639  11.807  10.328  0.6162 -0.0809  0.0341
  487MOL0     C65625   2.699  11.941  10.284  0.0824  0.1794  0.0234
  487MOL0     C65626   2.660  11.981  10.148  0.1477  0.6859 -0.2711
  487MOL0     N65627   2.760  12.074  10.099  0.2029 -0.7470 -0.4107
  487MOL0     C65628   2.786  12.200  10.150 -0.4355 -0.7634 -0.5569
  487MOL0     C65629   2.889  12.248  10.081 -0.4172 -0.2412  0.9295
  487MOL0     C65630   2.942  12.390  10.102 -0.3288  0.9533 -0.6468
  487MOL0     C65631   3.091  12.413  10.117 -0.2786 -0.7627  0.1687
  487MOL0     C65632   3.134  12.332  10.235  0.3883 -0.0546 -0.2348
  487MOL0     C65633   3.280  12.349  10.270  0.1814  0.1273  0.1858
  487MOL0     O65634   3.318  12.464  10.344  0.7096 -0.9361 -0.7660
  487MOL0     C65635   3.449  12.484  10.374 -0.2045 -0.2501 -0.1562
  487MOL0     C65636   3.560  12.405  10.346  0.9391 -0.3828 -0.1897
  487MOL0     C65637   3.693  12.447  10.386  0.4120  0.1010  0.7356
  487MOL0     C65638   3.725  12.569  10.445 -0.2701 -0.3837  1.0853
  487MOL0     C65639   3.860  12.600  10.474 -1.0624 -0.9363 -0.5901
  487MOL0     O65640   3.871  12.719  10.543  0.4383  0.3909  0.8027
  487MOL0     C65641   3.996  12.769  10.576  0.1736  0.9570 -0.2176
  487MOL0     C65642   4.027  12.805  10.711 -0.1983  1.0861  0.6014
  487MOL0     C65643   4.158  12.832  10.744  0.2812 -0.1468  0.3887
  487MOL0     C65644   4.258  12.855  10.647  1.0151  0.8818 -0.1646
  487MOL0     O65645   4.390  12.885  10.673  0.4135  0.4107  0.7452
  487MOL0     C65646   4.421  12.958  10.788  0.0383 -0.9645 -0.5879
  487MOL0     C65647   4.557  13.029  10.777 -0.5627  0.2108  0.4163
  487MOL0     C65648   4.668  12.934  10.743 -0.2178 -0.0161 -0.0174
  487MOL0     C65649   4.806  12.995  10.702 -0.0778 -0.1746  0.2316
  487MOL0     C65650   4.889  12.890  10.638 -0.4450 -0.2318 -0.4693
  487MOL0     C65651   5.030  12.937  10.626  0.1102 -0.4523 -0.5181
  487MOL0     C65652   5.123  12.843  10.560 -0.1016 -0.0188  0.3200
  487MOL0     C65653   5.257  12.913  10.512 -0.7874  0.3562 -0.2355
  487MOL0    Cl65654   5.377  12.792  10.448 -0.4922  0.3731 -0.0876
  487MOL0     C65655   4.217  12.857  10.515  0.3810 -0.4213 -0.9158
  487MOL0     C65656   4.096  12.811  10.477  0.5030  0.9745  0.5739
  487MOL0     O65657   3.954  12.524  10.449  0.0929  0.0943  0.5755
  487MOL0     C65658   3.616  12.642  10.491 -0.5153 -0.8062 -0.0784
  487MOL0     C65659   3.482  12.598  10.455  0.5738  0.1011 -0.1446
  487MOL0     N65660   2.934  12.152   9.991  0.2754  0.8778 -1.3973
  487MOL0     N65661   2.849  12.044  10.002 -0.9425  0.0078  0.8583
  487MOL0     C65662   2.432  11.192  10.818 -0.4203 -0.8124 -0.1595
  487MOL0     C65663   2.361  11.121  10.912  0.0634  0.7662  0.2509
  487MOL0     C65664   2.248  10.851  11.232 -0.5804 -0.4822 -0.3973
  487MOL0     C65665   2.279  10.720  11.295 -0.2493 -0.7072  0.4088
  487MOL0     C65666   2.186  10.655  11.377  0.0864  0.2221 -1.0101
  487MOL0     C65667   2.060  10.702  11.393  0.4583  0.4147 -0.3003
  487MOL0     O65668   1.962  10.643  11.467  0.0129 -0.2139  0.3490
  487MOL0     C65669   1.978  10.513  11.530 -0.7413 -0.2424  0.4804
  487MOL0     C65670   1.859  10.451  11.611 -0.6802  0.3727  0.6345
  487MOL0     C65671   1.766  10.556  11.675  0.5422  0.6150 -0.1456
  487MOL0     C65672   1.695  10.506  11.792 -0.0839  1.0340 -0.6266
  487MOL0     C65673   1.595  10.607  11.831 -0.4868  0.3591  0.1143
  487MOL0     C65674   1.510  10.687  11.862 -0.2206 -0.1210  0.3208
  487MOL0     C65675   2.021  10.829  11.340 -0.0975  0.5598  0.4672
  487MOL0     C65676   2.109  10.896  11.254 -0.2684 -0.0161 -0.6066
  487MOL0     C65677   2.067  11.015  11.166  0.3990  0.2325  0.0764
  487MOL0     H65678   2.598  11.165  11.166  0.1041 -0.0247  0.1321
  487MOL0     H65679   2.713  11.284  10.990 -2.2013  2.8969  1.6538
  487MOL0     H65680   2.621  11.344  10.544  0.3902 -5.9287  0.7111
  487MOL0     H65681   2.464  11.328  10.622 -1.0920  1.5052  0.8255
  487MOL0     H65682   2.624  11.575  10.675 -0.4000  2.4054 -2.7640
  487MOL0     H65683   2.448  11.559  10.697 -1.9169 -2.2858 -0.9220
  487MOL0     H65684   2.417  11.545  10.450 -0.0366 -1.3498  1.1551
  487MOL0     H65685   2.593  11.544  10.434  1.8093 -0.6857  2.0224
  487MOL0     H65686   2.400  11.767  10.560 -0.3580  2.6663 -1.3942
  487MOL0     H65687   2.570  11.767  10.590 -2.5838  1.8229  1.4930
  487MOL0     H65688   2.430  11.774  10.312  1.8355  0.4380 -0.5897
  487MOL0     H65689   2.468  11.925  10.410  5.0489  1.7556  1.3742
  487MOL0     H65690   2.710  11.766  10.400  0.0059 -1.5456 -0.1743
  487MOL0     H65691   2.623  11.751  10.236  0.0600  0.8534 -0.4544
  487MOL0     H65692   2.808  11.929  10.281  0.2578  1.6870 -0.3548
  487MOL0     H65693   2.679  12.028  10.347 -0.7749  0.2234 -0.2915
  487MOL0     H65694   2.665  11.893  10.083  0.4961  0.4923  0.0182
  487MOL0     H65695   2.556  12.015  10.141 -1.3655 -3.5054 -1.3304
  487MOL0     H65696   2.738  12.263  10.224 -0.8176 -0.4572 -1.0648
  487MOL0     H65697   2.904  12.430  10.007 -1.7521 -0.2898 -0.6384
  487MOL0     H65698   2.885  12.427  10.187 -1.9509 -1.6671 -0.5003
  487MOL0     H65699   3.141  12.394  10.021  1.3342  3.4195 -0.0163
  487MOL0     H65700   3.105  12.520  10.131 -1.5151 -0.5764  0.0936
  487MOL0     H65701   3.116  12.224  10.229 -0.4745  0.0411  0.4382
  487MOL0     H65702   3.084  12.355  10.329  2.6087 -0.6646  1.1512
  487MOL0     H65703   3.339  12.334  10.179 -0.1836 -2.9968  0.3382
  487MOL0     H65704   3.297  12.259  10.331 -1.0601  0.9079  1.7584
  487MOL0     H65705   3.544  12.310  10.297 -1.2310 -1.1783  1.8514
  487MOL0     H65706   3.770  12.375  10.360 -0.3462 -0.5715  0.2772
  487MOL0     H65707   3.952  12.805  10.789  0.7873 -0.9225  1.6159
  487MOL0     H65708   4.185  12.863  10.845 -1.1719  2.5448  0.0457
  487MOL0     H65709   4.340  13.031  10.796  0.3424 -0.8605  3.5968
  487MOL0     H65710   4.414  12.903  10.883 -1.2759  1.7857  1.0209
  487MOL0     H65711   4.539  13.101  10.696  0.9843 -0.5152 -0.6285
  487MOL0     H65712   4.582  13.091  10.863 -2.0430 -0.4436  1.3555
  487MOL0     H65713   4.691  12.853  10.812  1.5121 -1.1889 -1.8382
  487MOL0     H65714   4.647  12.889  10.645  0.1951 -0.4787  0.1021
  487MOL0     H65715   4.859  13.040  10.787 -1.1103  0.0437  0.7734
  487MOL0     H65716   4.787  13.069  10.624 -1.3464 -0.2250  0.4756
  487MOL0     H65717   4.845  12.845  10.549 -2.7702  1.0724 -0.0404
  487MOL0     H65718   4.887  12.807  10.710 -0.2266  1.1955  1.2630
  487MOL0     H65719   5.027  13.025  10.562 -0.3602  0.1409  0.3048
  487MOL0     H65720   5.080  12.954  10.722  0.9447  2.3735 -1.3508
  487MOL0     H65721   5.065  12.808  10.474 -2.9739  1.1896  1.6294
  487MOL0     H65722   5.153  12.751  10.612  0.2082  0.2351  0.5953
  487MOL0     H65723   5.243  12.984  10.430  1.1690 -0.3312 -1.2019
  487MOL0     H65724   5.301  12.964  10.598  1.0200 -0.6216 -0.5483
  487MOL0     H65725   4.295  12.881  10.444  2.1587 -1.2061  0.6813
  487MOL0     H65726   4.056  12.813  10.376 -2.0070 -1.5905  1.3908
  487MOL0     H65727   3.624  12.735  10.547  0.4276 -0.5056 -0.7055
  487MOL0     H65728   3.396  12.661  10.475  1.7331  1.1767  1.7331
  487MOL0     H65729   2.381  11.194  10.722  1.4484  0.8560 -1.1923
  487MOL0     H65730   2.262  11.081  10.895 -1.0878  3.1207  1.0022
  487MOL0     H65731   2.382  10.686  11.297  0.3793  1.1532  1.3968
  487MOL0     H65732   2.223  10.560  11.414  1.4742 -0.5197 -4.0150
  487MOL0     H65733   2.072  10.519  11.586  1.4853 -0.9338 -2.8910
  487MOL0     H65734   2.006  10.442  11.452  1.3038  2.1254 -1.1077
  487MOL0     H65735   1.903  10.396  11.694 -1.0405  4.5697  3.9030
  487MOL0     H65736   1.810  10.389  11.535  2.1901 -1.8720  0.4595
  487MOL0     H65737   1.693  10.609  11.613  0.6309  0.2038 -0.6042
  487MOL0     H65738   1.833  10.631  11.718 -1.0505  1.7608  0.4184
  487MOL0     H65739   1.638  10.418  11.763 -3.5364  3.5007 -1.9008
  487MOL0     H65740   1.761  10.485  11.877 -0.3632  0.6669 -0.4988
  487MOL0     H65741   1.438  10.758  11.898  0.0739 -1.3678  3.7487
  487MOL0     H65742   1.921  10.865  11.364 -1.7271 -2.9356 -0.4681
  487MOL0     H65743   2.113  11.109  11.198  1.9294 -0.7069  0.7411
  487MOL0     H65744   2.093  10.999  11.061  0.7299 -1.8784  0.4451
  487MOL0     H65745   1.958  11.009  11.168  0.4807 -3.3944  1.5378
  488MOL0     O65746   7.251   6.417   6.556 -0.3366 -0.5278  1.0234
  488MOL0     C65747   7.352   6.358   6.534 -0.2500 -0.7286 -0.0721
  488MOL0     O65748   7.379   6.227   6.568  0.0335  0.2985  0.6717
  488MOL0     C65749   7.276   6.149   6.596  0.1740 -0.2417  0.4652
  488MOL0     C65750   7.212   6.059   6.510 -0.0619 -0.3337  0.7035
  488MOL0     C65751   7.106   5.974   6.552 -0.0765 -0.3619  0.0500
  488MOL0     C65752   7.063   5.969   6.687 -0.4091 -0.3000  0.4058
  488MOL0     O65753   6.957   5.895   6.709 -0.0138  0.4795  0.2802
  488MOL0     C65754   6.926   5.861   6.844  0.2438 -0.3972 -0.2092
  488MOL0     C65755   7.015   5.760   6.917 -0.2709 -0.7332  0.0981
  488MOL0     C65756   7.066   5.797   7.053 -0.0743  0.2771  0.1816
  488MOL0     C65757   7.098   5.669   7.143  0.1118 -0.2682 -0.5166
  488MOL0     C65758   7.172   5.706   7.274  0.3359 -1.1253 -0.2326
  488MOL0     C65759   7.320   5.745   7.232 -0.5471 -0.4653  0.1514
  488MOL0     C65760   7.417   5.766   7.355  0.0747  0.8903  1.5075
  488MOL0     C65761   7.441   5.653   7.440 -0.2303 -0.1175 -0.5190
  488MOL0     N65762   7.580   5.615   7.480 -0.3233 -0.8337 -0.0174
  488MOL0     C65763   7.629   5.599   7.597 -0.2039  0.7907 -0.4908
  488MOL0     C65764   7.745   5.523   7.590  0.3453  0.2896  0.6186
  488MOL0     C65765   7.849   5.498   7.699  0.2989  0.5123  0.1544
  488MOL0     C65766   7.973   5.575   7.672 -0.3726  0.0440 -0.0538
  488MOL0     C65767   7.959   5.730   7.684 -0.6977 -0.5163 -0.0502
  488MOL0     C65768   8.088   5.813   7.663  0.7562 -0.9301  0.9771
  488MOL0     O65769   8.060   5.953   7.633  0.3140  0.3216  0.9657
  488MOL0     C65770   8.170   6.034   7.648 -0.3621 -0.8254 -0.1841
  488MOL0     C65771   8.136   6.168   7.673  0.0099  0.4507  0.1176
  488MOL0     C65772   8.230   6.270   7.680  0.3790 -0.0603  0.3198
  488MOL0     C65773   8.365   6.241   7.672 -0.0202  0.1747  0.2014
  488MOL0     C65774   8.464   6.353   7.672  0.1315 -0.2120 -0.0038
  488MOL0     O65775   8.594   6.327   7.651 -0.7655 -0.2709 -0.9710
  488MOL0     C65776   8.693   6.420   7.691 -0.1311  0.1742 -0.1827
  488MOL0     C65777   8.826   6.387   7.650  0.2064  0.5376  0.0560
  488MOL0     C65778   8.934   6.452   7.707  0.5498  0.0186  0.1149
  488MOL0     C65779   8.924   6.566   7.785  0.0350 -0.7926 -0.6583
  488MOL0     O65780   9.036   6.636   7.810  0.4968  0.5381  0.6185
  488MOL0     C65781   9.075   6.660   7.948 -0.3139 -1.3605 -0.1764
  488MOL0     C65782   9.109   6.809   7.990  0.4359  0.3376 -0.0205
  488MOL0     C65783   9.112   6.828   8.142  0.2219  0.1961  0.1019
  488MOL0     C65784   9.176   6.963   8.179  0.3351 -0.0935 -0.9741
  488MOL0     C65785   9.195   6.981   8.335  0.4295  0.3920  0.8909
  488MOL0     C65786   9.062   6.949   8.424 -0.7110  0.0754  0.5632
  488MOL0     C65787   8.947   7.051   8.401 -0.3783 -0.5986 -0.4619
  488MOL0     C65788   8.980   7.199   8.441  0.5914  0.7727 -0.0861
  488MOL0    Cl65789   8.871   7.312   8.350  0.2712 -0.2844 -0.0937
  488MOL0     C65790   8.792   6.596   7.824  0.7464  0.0211  0.1369
  488MOL0     C65791   8.682   6.523   7.782  0.0967  0.9791 -0.0621
  488MOL0     O65792   8.410   6.462   7.677  0.1387  0.1511  0.0468
  488MOL0     C65793   8.407   6.103   7.665  0.3015  0.1429  0.1341
  488MOL0     C65794   8.309   6.005   7.654 -0.5078 -0.3954  0.1923
  488MOL0     N65795   7.757   5.490   7.456  0.0503 -0.1174 -0.4519
  488MOL0     N65796   7.660   5.546   7.390  0.2960  0.5395 -0.7564
  488MOL0     C65797   7.119   6.061   6.777  0.9642  0.8880 -0.6242
  488MOL0     C65798   7.224   6.146   6.738  0.6245 -0.0881  0.6874
  488MOL0     C65799   7.477   6.442   6.495 -0.0602 -0.2594 -0.1511
  488MOL0     C65800   7.595   6.364   6.506  0.8684  0.1436 -0.4840
  488MOL0     C65801   7.714   6.426   6.461 -0.0746 -0.2957  0.1515
  488MOL0     C65802   7.721   6.556   6.415 -0.0325  0.1100 -0.0638
  488MOL0     O65803   7.844   6.608   6.402 -1.3336 -0.2192 -0.1840
  488MOL0     C65804   7.868   6.694   6.290 -0.4663 -0.2516  0.4890
  488MOL0     C65805   8.015   6.724   6.283  0.0123  0.3681  0.5122
  488MOL0     C65806   8.055   6.815   6.398  1.5462  0.0925  0.4866
  488MOL0     C65807   8.214   6.835   6.398 -0.0578 -0.3950 -0.8274
  488MOL0     C65808   8.269   6.935   6.306 -0.5957  0.0499  0.0174
  488MOL0     C65809   8.345   7.017   6.255 -0.0011  0.2718 -0.3880
  488MOL0     C65810   7.601   6.629   6.408 -0.2934 -0.7505 -0.1708
  488MOL0     C65811   7.475   6.578   6.454 -0.1857  0.6661  1.1180
  488MOL0     C65812   7.346   6.660   6.433 -0.6314  0.1331  0.2812
  488MOL0     H65813   7.257   6.041   6.413 -0.0430  0.7118  0.5097
  488MOL0     H65814   7.053   5.907   6.485 -1.5926  2.0792 -1.3120
  488MOL0     H65815   6.903   5.950   6.904 -0.6606 -2.0747  2.0931
  488MOL0     H65816   6.833   5.805   6.829 -1.1350  1.5034  0.7787
  488MOL0     H65817   7.107   5.740   6.862  1.5682  1.4261  2.1660
  488MOL0     H65818   6.957   5.666   6.919 -1.8372  0.1802 -0.7749
  488MOL0     H65819   6.991   5.859   7.103  3.0172  1.5176  3.7826
  488MOL0     H65820   7.151   5.866   7.055 -1.1736  1.7023  3.1035
  488MOL0     H65821   7.008   5.615   7.173  0.1047  1.3199  2.7410
  488MOL0     H65822   7.165   5.594   7.100  1.5317  0.3926  0.4531
  488MOL0     H65823   7.128   5.797   7.314  3.8556 -0.0104  1.5640
  488MOL0     H65824   7.173   5.626   7.349  0.0925  1.1330  2.3263
  488MOL0     H65825   7.370   5.671   7.170 -3.1565 -0.2630 -2.4342
  488MOL0     H65826   7.323   5.836   7.172  0.0664 -0.5008  0.1279
  488MOL0     H65827   7.372   5.841   7.422 -0.4606  1.3592  0.6485
  488MOL0     H65828   7.512   5.809   7.322 -0.7011  2.0930  0.7579
  488MOL0     H65829   7.390   5.672   7.535 -2.3410 -1.9820 -1.1788
  488MOL0     H65830   7.405   5.558   7.400  3.2234 -2.2357  0.8785
  488MOL0     H65831   7.580   5.636   7.687  2.7882  3.1047  0.3829
  488MOL0     H65832   7.803   5.519   7.796  1.7704  2.5392  0.4850
  488MOL0     H65833   7.874   5.394   7.718  5.8882  0.6724 -3.9131
  488MOL0     H65834   8.040   5.542   7.752  0.2891 -4.1222 -2.0542
  488MOL0     H65835   8.014   5.546   7.575  2.4134 -0.4281  1.1620
  488MOL0     H65836   7.915   5.761   7.779  0.6077 -1.4099  0.8995
  488MOL0     H65837   7.891   5.765   7.607  0.0401 -0.7008 -0.7964
  488MOL0     H65838   8.142   5.779   7.573  0.7837 -1.1786  1.0852
  488MOL0     H65839   8.161   5.812   7.745  0.4139 -0.4052  1.2901
  488MOL0     H65840   8.032   6.197   7.671 -0.1455  0.7018 -5.5767
  488MOL0     H65841   8.178   6.362   7.704 -0.6404 -1.0884  2.4326
  488MOL0     H65842   8.842   6.299   7.589  1.8516  1.5710 -1.0992
  488MOL0     H65843   9.035   6.432   7.672  1.1699  0.7267  1.4126
  488MOL0     H65844   8.983   6.634   8.000 -2.0550 -1.1806 -2.9526
  488MOL0     H65845   9.162   6.604   7.984  0.8627  0.5405  0.1388
  488MOL0     H65846   9.200   6.843   7.940 -0.2542  1.9814 -0.2226
  488MOL0     H65847   9.036   6.882   7.957  1.3970 -0.1519 -3.6550
  488MOL0     H65848   9.010   6.823   8.180 -0.4904  0.3759 -1.6951
  488MOL0     H65849   9.174   6.748   8.183 -0.9260 -1.0952 -0.6118
  488MOL0     H65850   9.117   7.047   8.142 -0.9941  0.0781  1.3786
  488MOL0     H65851   9.274   6.965   8.131  0.8076  3.7498 -0.1316
  488MOL0     H65852   9.233   7.083   8.348 -2.6002  1.9636 -1.3559
  488MOL0     H65853   9.264   6.911   8.383 -0.8272  0.2606  2.6115
  488MOL0     H65854   9.020   6.855   8.388 -1.8824  0.3270  1.2151
  488MOL0     H65855   9.083   6.949   8.532 -0.1980  2.6587  0.5317
  488MOL0     H65856   8.861   7.014   8.457  1.0713 -1.7492  1.1022
  488MOL0     H65857   8.915   7.061   8.296 -2.4747  0.1337  0.1936
  488MOL0     H65858   8.963   7.206   8.549  4.8712 -0.4704  0.8738
  488MOL0     H65859   9.084   7.229   8.426  0.7546  0.6836  0.8186
  488MOL0     H65860   8.779   6.671   7.901 -0.0277 -0.3602  0.3950
  488MOL0     H65861   8.582   6.544   7.819 -0.0602 -0.6607  0.5089
  488MOL0     H65862   8.514   6.088   7.679  0.1013 -0.1926  1.3696
  488MOL0     H65863   8.360   5.909   7.648  1.9879  0.9152 -1.2562
  488MOL0     H65864   7.077   6.064   6.877 -0.5866  3.1188 -1.2638
  488MOL0     H65865   7.265   6.207   6.817  0.6969 -1.3765  1.6838
  488MOL0     H65866   7.591   6.259   6.532 -3.8590 -0.0241 -1.0665
  488MOL0     H65867   7.806   6.371   6.475 -0.7629 -1.8525 -1.1647
  488MOL0     H65868   7.811   6.785   6.310  0.0298  0.2657 -0.3718
  488MOL0     H65869   7.839   6.657   6.192  2.8983  0.4572 -0.9113
  488MOL0     H65870   8.036   6.780   6.192 -0.0941  0.7741  0.7369
  488MOL0     H65871   8.079   6.635   6.288  0.8110  0.9683  1.2627
  488MOL0     H65872   8.027   6.772   6.495  0.7321 -1.8367 -0.5552
  488MOL0     H65873   8.006   6.912   6.383  5.2475  2.1197  0.3577
  488MOL0     H65874   8.247   6.850   6.501 -1.0342 -2.3926 -0.1769
  488MOL0     H65875   8.256   6.740   6.365 -1.3137 -1.7320  1.1889
  488MOL0     H65876   8.398   7.099   6.211 -0.7655  0.2619 -1.3776
  488MOL0     H65877   7.594   6.728   6.364 -0.8140 -1.4504 -1.7293
  488MOL0     H65878   7.364   6.749   6.370 -0.0003 -1.5672 -2.0905
  488MOL0     H65879   7.276   6.593   6.382  2.4357 -1.5603 -2.0156
  488MOL0     H65880   7.306   6.699   6.527 -0.2000  3.9148 -0.9251
  489MOL0     O65881   1.278   3.877   3.681 -0.3084 -0.6964  0.2563
  489MOL0     C65882   1.249   3.897   3.807  0.3946 -0.7307  1.2823
  489MOL0     O65883   1.141   3.854   3.871 -0.7207 -0.4031 -0.1807
  489MOL0     C65884   1.076   3.750   3.814 -0.2271 -0.1275 -0.9182
  489MOL0     C65885   0.992   3.772   3.707  0.0463 -0.5640 -1.3507
  489MOL0     C65886   0.929   3.665   3.642 -0.6022  0.3987  0.0792
  489MOL0     C65887   0.945   3.535   3.685 -0.0428  0.1368  0.0078
  489MOL0     O65888   0.882   3.430   3.626 -0.0722  0.1515 -0.4027
  489MOL0     C65889   0.963   3.389   3.520 -0.3985 -0.0342 -0.4592
  489MOL0     C65890   0.874   3.321   3.423 -0.2400 -1.0832 -0.5273
  489MOL0     C65891   0.802   3.201   3.474  0.6057 -0.2378 -0.1838
  489MOL0     C65892   0.708   3.157   3.359 -0.0887 -0.0787 -0.2060
  489MOL0     C65893   0.614   3.043   3.398 -0.4266 -0.2336 -0.2379
  489MOL0     C65894   0.693   2.926   3.456  0.6001 -0.3232  0.6502
  489MOL0     C65895   0.629   2.790   3.423  0.3570  0.8448 -0.1516
  489MOL0     C65896   0.480   2.769   3.456 -1.2302 -0.9745 -0.2137
  489MOL0     N65897   0.442   2.631   3.434 -0.0145 -0.0116 -0.1100
  489MOL0     C65898   0.452   2.561   3.316 -0.6044  0.8260  0.6856
  489MOL0     C65899   0.410   2.434   3.342 -0.4112  0.1249 -0.2944
  489MOL0     C65900   0.427   2.311   3.259 -0.1332 -0.0280  0.7482
  489MOL0     C65901   0.465   2.188   3.345 -0.3958 -0.1406  0.3082
  489MOL0     C65902   0.519   2.073   3.254 -0.4856 -0.6224  0.4106
  489MOL0     C65903   0.425   2.023   3.140  0.2128  0.2504 -0.0683
  489MOL0     O65904   0.415   2.098   3.022  1.0930 -0.2265  0.0788
  489MOL0     C65905   0.353   2.037   2.914  0.1206 -0.3974 -0.5217
  489MOL0     C65906   0.244   1.949   2.928  0.0778  0.0499  0.0506
  489MOL0     C65907   0.177   1.911   2.811 -0.4649  0.2433  0.0250
  489MOL0     C65908   0.207   1.965   2.690 -0.9491 -0.0689  0.8390
  489MOL0     C65909   0.126   1.916   2.576  1.0526  0.0208  0.5782
  489MOL0     O65910  -0.001   1.874   2.622  0.2481 -0.4979  0.5448
  489MOL0     C65911  -0.100   1.816   2.536  0.1659  0.2720 -0.5882
  489MOL0     C65912  -0.231   1.833   2.563  0.7897 -0.1358  0.6359
  489MOL0     C65913  -0.338   1.768   2.494 -1.0927  0.2151  0.1078
  489MOL0     C65914  -0.308   1.694   2.382  0.5167  0.3906 -0.2396
  489MOL0     O65915  -0.419   1.640   2.316 -0.4794 -1.0043 -0.4145
  489MOL0     C65916  -0.401   1.606   2.181  0.8266 -0.7299 -0.5296
  489MOL0     C65917  -0.354   1.725   2.094 -0.1395  0.5644  0.8100
  489MOL0     C65918  -0.333   1.672   1.948  0.6318 -0.5030  0.4333
  489MOL0     C65919  -0.202   1.594   1.930  0.7187  0.3985 -0.6570
  489MOL0     C65920  -0.203   1.542   1.787 -0.4515  0.5002 -0.1943
  489MOL0     C65921  -0.070   1.512   1.728 -1.5463  0.1217  0.3671
  489MOL0     C65922  -0.045   1.528   1.575  0.3864 -0.5890  0.5131
  489MOL0     C65923   0.004   1.665   1.532 -0.5552 -0.8755  0.7659
  489MOL0    Cl65924  -0.112   1.788   1.572  0.3465 -0.2950  0.0919
  489MOL0     C65925  -0.171   1.664   2.360  0.1497 -0.7886 -0.2538
  489MOL0     C65926  -0.070   1.719   2.440  0.0538  0.4479 -0.1742
  489MOL0     O65927   0.159   1.930   2.462  0.4713  0.2318  0.6216
  489MOL0     C65928   0.312   2.057   2.680 -0.1225  0.2843  0.5220
  489MOL0     C65929   0.377   2.099   2.793  0.2727  0.5593  0.8340
  489MOL0     N65930   0.373   2.429   3.474 -0.0571  0.6096  0.1931
  489MOL0     N65931   0.388   2.548   3.527  0.7176  0.4262 -0.1283
  489MOL0     C65932   1.030   3.513   3.790  0.0437 -1.1846 -0.3938
  489MOL0     C65933   1.102   3.617   3.853 -0.0470  0.4904  0.2035
  489MOL0     C65934   1.352   3.967   3.887  0.6618 -0.4890 -0.7661
  489MOL0     C65935   1.390   3.914   4.009  0.5669  0.3449 -0.0659
  489MOL0     C65936   1.480   3.987   4.090  0.4396  0.0166  0.2161
  489MOL0     C65937   1.540   4.107   4.042 -0.5564 -0.1149 -0.0289
  489MOL0     O65938   1.624   4.157   4.131 -0.2965  0.3854  0.2341
  489MOL0     C65939   1.699   4.278   4.100  1.5479 -0.5295  1.1268
  489MOL0     C65940   1.786   4.337   4.212  0.0940 -0.3072 -0.2089
  489MOL0     C65941   1.911   4.247   4.228  1.1097 -0.6327 -0.0155
  489MOL0     C65942   2.022   4.261   4.119  0.8373 -0.5581 -0.6358
  489MOL0     C65943   2.110   4.383   4.115  0.0399  0.6278 -0.3412
  489MOL0     C65944   2.170   4.486   4.087  0.7985  0.5218  0.1345
  489MOL0     C65945   1.500   4.156   3.918 -0.1591  0.0068 -0.4850
  489MOL0     C65946   1.402   4.091   3.845 -0.4387 -0.4652 -0.1482
  489MOL0     C65947   1.361   4.161   3.713  0.7995  0.3395 -0.0636
  489MOL0     H65948   0.998   3.873   3.670  2.0543 -0.0282  0.2289
  489MOL0     H65949   0.858   3.682   3.562 -1.4437  1.8820  1.0881
  489MOL0     H65950   1.015   3.470   3.468 -0.2857 -1.1717 -2.1955
  489MOL0     H65951   1.042   3.329   3.565 -1.0362  0.8275  1.9353
  489MOL0     H65952   0.931   3.280   3.340  0.0246 -1.1271 -0.3277
  489MOL0     H65953   0.814   3.403   3.384  1.7030  1.5543  1.5894
  489MOL0     H65954   0.747   3.224   3.566  2.8593  0.0872  1.1422
  489MOL0     H65955   0.873   3.121   3.497  2.7395  2.0193  1.6804
  489MOL0     H65956   0.650   3.247   3.338  0.6464 -0.0438 -2.3173
  489MOL0     H65957   0.763   3.153   3.264 -1.0399  1.6153 -0.8809
  489MOL0     H65958   0.535   3.076   3.466  0.1078  1.2743 -0.3234
  489MOL0     H65959   0.580   3.000   3.304 -0.0894 -3.0212  0.8237
  489MOL0     H65960   0.796   2.933   3.422 -0.1820  2.3646 -1.5245
  489MOL0     H65961   0.699   2.937   3.565 -0.3165  0.6824  0.6179
  489MOL0     H65962   0.684   2.712   3.478  2.6944  2.4392 -0.0906
  489MOL0     H65963   0.641   2.772   3.316  0.1638  1.0004 -0.1987
  489MOL0     H65964   0.459   2.799   3.559  0.8493  1.5624 -0.4016
  489MOL0     H65965   0.418   2.829   3.389 -1.4501 -2.2523 -1.2114
  489MOL0     H65966   0.496   2.584   3.219  3.0451 -2.1654  1.4009
  489MOL0     H65967   0.334   2.290   3.205 -0.5174  1.1233  0.9498
  489MOL0     H65968   0.510   2.335   3.193  1.2618 -0.8630  2.1129
  489MOL0     H65969   0.543   2.210   3.419  0.8046 -2.0262 -0.3209
  489MOL0     H65970   0.374   2.157   3.396 -0.3519 -1.0333 -0.1489
  489MOL0     H65971   0.516   1.984   3.317 -0.8399 -0.4753  0.6085
  489MOL0     H65972   0.621   2.093   3.221 -0.1393 -3.0643 -0.1593
  489MOL0     H65973   0.327   2.016   3.189  0.0346  0.8019 -0.3329
  489MOL0     H65974   0.462   1.924   3.115 -1.2830 -1.1082  2.5871
  489MOL0     H65975   0.224   1.908   3.027 -1.5535  0.9770  0.1314
  489MOL0     H65976   0.101   1.834   2.822  1.6646 -2.4345 -2.3016
  489MOL0     H65977  -0.273   1.908   2.629 -0.6201 -2.4345  2.5299
  489MOL0     H65978  -0.440   1.800   2.514 -3.0886 -4.6405 -0.8894
  489MOL0     H65979  -0.334   1.521   2.170  0.7023 -0.6604 -1.9377
  489MOL0     H65980  -0.509   1.591   2.164 -0.1109  0.5472  3.2620
  489MOL0     H65981  -0.434   1.799   2.084 -2.1532 -1.4197  1.2771
  489MOL0     H65982  -0.260   1.769   2.129  0.1189  0.8736 -0.2492
  489MOL0     H65983  -0.432   1.638   1.917 -1.1544  1.2199  3.7712
  489MOL0     H65984  -0.318   1.763   1.888 -0.9221 -0.5790 -0.1166
  489MOL0     H65985  -0.199   1.513   2.004 -0.2603  0.9776  0.0418
  489MOL0     H65986  -0.125   1.667   1.955  2.3068 -1.4585  0.1215
  489MOL0     H65987  -0.250   1.600   1.707 -2.8740 -1.9927 -0.7059
  489MOL0     H65988  -0.259   1.448   1.783 -0.4126  0.4029  1.1087
  489MOL0     H65989   0.005   1.568   1.784  0.8675 -3.4847  1.0242
  489MOL0     H65990  -0.043   1.410   1.756  2.2247  0.6300 -0.7699
  489MOL0     H65991  -0.134   1.502   1.516 -2.3690  4.6254  1.7222
  489MOL0     H65992   0.025   1.455   1.533 -0.4717 -1.1687  0.0475
  489MOL0     H65993   0.097   1.687   1.585  0.4866  4.9304 -2.6421
  489MOL0     H65994   0.031   1.686   1.428 -1.3796  1.6058  0.9866
  489MOL0     H65995  -0.158   1.603   2.272 -2.2440 -0.6526 -0.7542
  489MOL0     H65996   0.036   1.700   2.422  0.1297  2.7942 -2.7951
  489MOL0     H65997   0.337   2.101   2.584 -1.3935  0.2081  0.1381
  489MOL0     H65998   0.447   2.181   2.789 -0.6580  1.3281 -0.8487
  489MOL0     H65999   1.051   3.413   3.827  0.7968 -1.2877 -1.0710
  489MOL0     H66000   1.179   3.585   3.923  0.5974  0.6754 -0.4178
  489MOL0     H66001   1.331   3.835   4.056  1.0755  0.0769  0.1392
  489MOL0     H66002   1.492   3.950   4.191  1.6820 -1.0549 -0.3039
  489MOL0     H66003   1.623   4.353   4.076  1.5748 -1.0330 -0.7407
  489MOL0     H66004   1.758   4.262   4.010 -1.1814  3.6919 -1.8045
  489MOL0     H66005   1.721   4.325   4.299  2.1316 -2.1239  1.1517
  489MOL0     H66006   1.817   4.440   4.194  0.8295 -0.4992 -0.0810
  489MOL0     H66007   1.876   4.147   4.257 -2.8391  1.1220  2.1091
  489MOL0     H66008   1.949   4.294   4.319 -0.4666 -1.9383  1.3760
  489MOL0     H66009   2.090   4.176   4.124  3.2512  1.3157  0.1283
  489MOL0     H66010   1.982   4.256   4.017 -1.0528  1.2480 -0.0496
  489MOL0     H66011   2.215   4.578   4.054 -1.7961  1.8513  0.0492
  489MOL0     H66012   1.543   4.250   3.886  0.7327  0.2259  1.2790
  489MOL0     H66013   1.372   4.096   3.627 -0.7216 -0.8116  0.5664
  489MOL0     H66014   1.255   4.188   3.722  0.6637 -0.2100  0.0193
  489MOL0     H66015   1.418   4.253   3.696  0.1468  0.4350 -1.9377
  490MOL0     O66016   0.090   1.914   3.357 -0.2294 -0.0260 -0.2486
  490MOL0     C66017   0.106   1.993   3.452 -0.4729 -0.1715  0.2367
  490MOL0     O66018   0.158   1.953   3.574  0.2115  0.0068 -0.0329
  490MOL0     C66019   0.225   1.834   3.578 -0.4542  0.3456 -1.2041
  490MOL0     C66020   0.149   1.722   3.621 -0.1117 -0.8144  0.1027
  490MOL0     C66021   0.203   1.595   3.623 -0.3835  0.2590 -0.1001
  490MOL0     C66022   0.327   1.570   3.565 -0.6404 -1.1161 -0.4117
  490MOL0     O66023   0.380   1.445   3.548  0.5407  0.6570 -0.3518
  490MOL0     C66024   0.295   1.354   3.466  0.2333 -0.7372 -0.9132
  490MOL0     C66025   0.364   1.242   3.406  0.1669  0.1652  0.3708
  490MOL0     C66026   0.468   1.173   3.488 -0.2054  0.3831  0.2065
  490MOL0     C66027   0.411   1.073   3.602 -0.2284  0.2654  0.0904
  490MOL0     C66028   0.507   1.003   3.694 -0.8731  0.1527 -0.5853
  490MOL0     C66029   0.587   0.886   3.630 -0.0153 -0.6347  0.2314
  490MOL0     C66030   0.509   0.757   3.615  0.5749  0.5463 -0.3259
  490MOL0     C66031   0.586   0.637   3.564 -0.2353 -0.6956  1.0881
  490MOL0     N66032   0.702   0.602   3.639  0.1508  0.0420 -0.4170
  490MOL0     C66033   0.828   0.553   3.598 -0.5173 -1.1108  0.2730
  490MOL0     C66034   0.902   0.540   3.713  0.7044 -0.2482  0.9477
  490MOL0     C66035   1.041   0.484   3.714 -0.6260 -0.5437 -0.4844
  490MOL0     C66036   1.138   0.590   3.769 -0.0679 -0.0021  0.7196
  490MOL0     C66037   1.282   0.557   3.740 -0.8244  0.6355  0.2238
  490MOL0     C66038   1.334   0.434   3.820 -0.5057  0.0783 -0.1521
  490MOL0     O66039   1.359   0.474   3.956 -0.4377 -0.3427  0.2900
  490MOL0     C66040   1.495   0.508   3.990 -0.0684  0.4846 -0.0985
  490MOL0     C66041   1.601   0.500   3.903  0.2250 -0.8079  0.5992
  490MOL0     C66042   1.732   0.494   3.935 -0.5223 -0.6369 -1.2495
  490MOL0     C66043   1.766   0.507   4.077  0.2867  0.7407  0.6019
  490MOL0     C66044   1.904   0.518   4.109 -0.4418  1.2041  0.2535
  490MOL0     O66045   1.928   0.511   4.241  0.3673 -0.3726  0.8440
  490MOL0     C66046   2.055   0.534   4.304 -0.0549  0.2206 -0.6195
  490MOL0     C66047   2.078   0.479   4.437 -0.3308  0.3034  0.0857
  490MOL0     C66048   2.202   0.506   4.496  0.7629  0.3149  0.0220
  490MOL0     C66049   2.291   0.599   4.443 -0.0856 -0.3260  0.2209
  490MOL0     O66050   2.412   0.621   4.513 -0.5204  0.9114 -0.2220
  490MOL0     C66051   2.527   0.701   4.458 -0.9209 -0.4812  0.8788
  490MOL0     C66052   2.644   0.686   4.561  0.1540 -0.3419  0.5548
  490MOL0     C66053   2.688   0.545   4.584 -0.0306 -0.5809  0.0250
  490MOL0     C66054   2.798   0.539   4.693 -0.1534 -0.5648 -0.4494
  490MOL0     C66055   2.810   0.394   4.748 -0.8321  0.1550 -0.4410
  490MOL0     C66056   2.879   0.312   4.642 -0.1916  1.1389  0.0659
  490MOL0     C66057   2.908   0.164   4.687 -0.2883  0.3897  0.6324
  490MOL0     C66058   2.786   0.077   4.676  0.3810 -0.3119 -0.3483
  490MOL0    Cl66059   2.643   0.130   4.778 -0.1338 -0.3251 -0.0972
  490MOL0     C66060   2.268   0.653   4.318 -0.6188  0.6205  0.4367
  490MOL0     C66061   2.158   0.616   4.243 -0.2623  0.9833 -0.0422
  490MOL0     O66062   1.987   0.525   4.021 -0.6627  0.8478 -0.3352
  490MOL0     C66063   1.665   0.521   4.166  0.9336  0.1592 -0.0975
  490MOL0     C66064   1.526   0.518   4.124 -0.5434  0.0769 -0.0721
  490MOL0     N66065   0.817   0.577   3.815 -0.2293 -0.4292 -0.1386
  490MOL0     N66066   0.703   0.611   3.774  0.7436 -0.0928 -0.0896
  490MOL0     C66067   0.409   1.676   3.534 -0.5424 -0.4223  1.5202
  490MOL0     C66068   0.357   1.811   3.538 -0.7473  0.3994  0.6933
  490MOL0     C66069   0.076   2.139   3.430 -0.4767  0.5696 -1.1097
  490MOL0     C66070   0.024   2.173   3.311 -0.2515  0.0616 -0.6420
  490MOL0     C66071  -0.025   2.297   3.280 -0.3941 -0.3757  0.4152
  490MOL0     C66072  -0.012   2.402   3.371  0.4837  1.1842 -0.0433
  490MOL0     O66073  -0.070   2.525   3.335 -0.6546  0.3327 -0.3421
  490MOL0     C66074  -0.048   2.639   3.414  0.2306  0.0002  0.2324
  490MOL0     C66075  -0.156   2.650   3.521  0.2569 -0.6441 -0.1809
  490MOL0     C66076  -0.139   2.755   3.635 -0.0205 -0.3221  0.1737
  490MOL0     C66077  -0.270   2.806   3.698  0.0397 -0.2031  0.6865
  490MOL0     C66078  -0.332   2.907   3.613  0.0195  0.5052 -0.7434
  490MOL0     C66079  -0.382   2.990   3.544  0.0384  0.8155  0.1532
  490MOL0     C66080   0.045   2.370   3.496 -0.0727 -0.3545  0.0385
  490MOL0     C66081   0.089   2.243   3.527 -0.1951 -0.0861  0.2801
  490MOL0     C66082   0.150   2.231   3.668 -0.7617 -1.0480 -0.1451
  490MOL0     H66083   0.046   1.736   3.653  0.2858  1.9162  0.4303
  490MOL0     H66084   0.140   1.510   3.650 -1.6138  1.5582  1.2530
  490MOL0     H66085   0.208   1.325   3.525 -0.8238  0.9078 -1.5764
  490MOL0     H66086   0.243   1.411   3.388 -1.1312 -2.0864 -1.0238
  490MOL0     H66087   0.407   1.289   3.317 -1.0882 -1.7795 -1.3387
  490MOL0     H66088   0.284   1.182   3.361 -0.6264  1.5213 -0.0666
  490MOL0     H66089   0.534   1.247   3.535  0.9275 -0.3832 -0.1380
  490MOL0     H66090   0.532   1.115   3.420 -0.0043 -1.7480  2.0852
  490MOL0     H66091   0.351   1.145   3.657 -2.7349 -0.1809 -1.8547
  490MOL0     H66092   0.346   0.994   3.562 -2.6035  1.0003  2.2405
  490MOL0     H66093   0.577   1.073   3.740 -1.8589  0.7813  0.0016
  490MOL0     H66094   0.454   0.973   3.784  1.2754 -0.9058  0.3997
  490MOL0     H66095   0.625   0.933   3.539  0.4218 -1.0084  0.2194
  490MOL0     H66096   0.670   0.862   3.698 -1.6558 -2.3993  1.7236
  490MOL0     H66097   0.427   0.774   3.545  2.2457 -1.2492 -2.8823
  490MOL0     H66098   0.473   0.726   3.714  2.0783 -0.6945 -0.1233
  490MOL0     H66099   0.510   0.558   3.557 -1.2983  0.3249  0.7158
  490MOL0     H66100   0.629   0.661   3.466  2.1579  2.1595  2.6746
  490MOL0     H66101   0.863   0.546   3.495  0.0360  3.2740 -0.0334
  490MOL0     H66102   1.038   0.403   3.786 -1.4958  0.4726  0.6622
  490MOL0     H66103   1.071   0.452   3.614  1.2638  1.7883 -0.7572
  490MOL0     H66104   1.117   0.687   3.724 -2.2066 -0.1175  1.3438
  490MOL0     H66105   1.127   0.596   3.878  0.9613 -2.3249  1.0068
  490MOL0     H66106   1.337   0.648   3.764  0.9482  0.0895 -1.4634
  490MOL0     H66107   1.289   0.525   3.636  0.7239 -0.6622  0.6830
  490MOL0     H66108   1.422   0.394   3.770  0.5585  1.3462  0.6620
  490MOL0     H66109   1.264   0.352   3.801 -0.2361  0.4621 -3.3491
  490MOL0     H66110   1.595   0.504   3.794 -0.2275 -2.5081  0.5332
  490MOL0     H66111   1.816   0.500   3.865  2.7900  0.5366  2.4442
  490MOL0     H66112   1.991   0.439   4.488  1.3064 -2.2420  1.0497
  490MOL0     H66113   2.238   0.468   4.590  0.6658  2.0878  0.8259
  490MOL0     H66114   2.550   0.670   4.355 -1.3656  0.9652  0.3128
  490MOL0     H66115   2.496   0.806   4.465  2.0596  0.5254  0.4903
  490MOL0     H66116   2.733   0.725   4.511 -0.5085 -2.3369 -2.4352
  490MOL0     H66117   2.612   0.737   4.653  0.0573  1.2668 -0.3473
  490MOL0     H66118   2.611   0.472   4.610  0.3096 -1.9856 -2.5341
  490MOL0     H66119   2.729   0.508   4.490 -0.0777 -2.9760  0.8619
  490MOL0     H66120   2.784   0.612   4.773  0.5101 -1.2865  0.3437
  490MOL0     H66121   2.886   0.581   4.644  0.3302  1.2780  1.8315
  490MOL0     H66122   2.709   0.362   4.775  0.7355 -2.1615  3.7101
  490MOL0     H66123   2.869   0.387   4.840  0.1021 -5.3182 -1.0861
  490MOL0     H66124   2.844   0.314   4.538  2.2090  0.2009 -0.8450
  490MOL0     H66125   2.984   0.343   4.639 -0.0748  0.6927 -0.6003
  490MOL0     H66126   2.938   0.170   4.792  4.4423 -0.3246 -0.4514
  490MOL0     H66127   2.989   0.122   4.627 -1.6254 -0.2368 -0.7914
  490MOL0     H66128   2.742   0.074   4.576 -0.7094  3.9446 -0.1928
  490MOL0     H66129   2.802  -0.027   4.706 -0.3017 -0.8327 -1.6946
  490MOL0     H66130   2.336   0.717   4.263  1.2100 -0.8287  0.9018
  490MOL0     H66131   2.161   0.668   4.147  2.9185  0.2652 -0.4337
  490MOL0     H66132   1.681   0.543   4.271  1.4686 -0.8864  0.0600
  490MOL0     H66133   1.443   0.545   4.187  0.5270  1.5890  0.7576
  490MOL0     H66134   0.511   1.658   3.501 -0.8328  1.6952 -0.8107
  490MOL0     H66135   0.410   1.903   3.514 -0.3095  0.2524  1.0987
  490MOL0     H66136   0.019   2.101   3.230  3.1195 -0.2711 -0.6939
  490MOL0     H66137  -0.073   2.314   3.184 -1.3953 -0.0497  0.9578
  490MOL0     H66138  -0.067   2.737   3.369 -1.0562  0.3777  1.5276
  490MOL0     H66139   0.058   2.644   3.439  0.6281  0.6394 -1.4638
  490MOL0     H66140  -0.200   2.556   3.558 -0.5500 -1.4807 -3.0320
  490MOL0     H66141  -0.239   2.690   3.462 -2.9048 -2.2028  2.8220
  490MOL0     H66142  -0.066   2.835   3.615 -0.1438 -0.2622 -0.0379
  490MOL0     H66143  -0.083   2.699   3.711  3.7290  1.4072 -1.0244
  490MOL0     H66144  -0.335   2.718   3.700 -0.2702 -0.1416 -2.1498
  490MOL0     H66145  -0.258   2.838   3.802  0.1184  3.5316 -0.3031
  490MOL0     H66146  -0.430   3.062   3.481  1.1540  0.7277 -0.8382
  490MOL0     H66147   0.051   2.452   3.567 -0.5756 -0.7823  0.5891
  490MOL0     H66148   0.247   2.183   3.656 -2.1090 -3.4668 -2.1996
  490MOL0     H66149   0.157   2.331   3.713 -2.3987  0.7955 -3.5916
  490MOL0     H66150   0.089   2.161   3.727 -3.7119  1.7841  0.4914
  491MOL0     O66151   5.852   8.059   7.583 -0.4498  0.0159 -0.6072
  491MOL0     C66152   5.801   8.056   7.473  0.4321 -0.8158 -0.7144
  491MOL0     O66153   5.859   8.046   7.351 -0.1911 -0.0055  0.0585
  491MOL0     C66154   5.995   8.068   7.352 -0.4128  0.0148  0.4404
  491MOL0     C66155   6.078   7.974   7.413  0.6156 -0.1433 -0.1683
  491MOL0     C66156   6.218   7.994   7.406  0.5538  0.7582 -0.5197
  491MOL0     C66157   6.266   8.110   7.350 -0.2228  0.2997 -0.4418
  491MOL0     O66158   6.397   8.133   7.329  0.2554  0.2085 -0.3857
  491MOL0     C66159   6.499   8.031   7.328 -0.0144 -0.0843 -0.5716
  491MOL0     C66160   6.610   8.064   7.229 -0.4814  0.3202 -0.9290
  491MOL0     C66161   6.577   8.025   7.086 -0.3363  0.7315  1.3311
  491MOL0     C66162   6.604   7.882   7.039 -0.4570  0.0273  0.0651
  491MOL0     C66163   6.607   7.871   6.881  0.7652 -0.5954  0.3238
  491MOL0     C66164   6.669   7.742   6.826  0.1709 -0.9787  0.0662
  491MOL0     C66165   6.635   7.720   6.674  1.0447  0.1669 -0.5064
  491MOL0     C66166   6.679   7.583   6.624 -0.9040  1.2303 -0.2656
  491MOL0     N66167   6.691   7.580   6.475 -0.1246 -1.0488 -0.5971
  491MOL0     C66168   6.590   7.602   6.384  0.0616  0.4226 -0.3630
  491MOL0     C66169   6.653   7.625   6.262  0.1397 -0.1633  1.0027
  491MOL0     C66170   6.584   7.665   6.138  0.5906 -0.0600  0.3925
  491MOL0     C66171   6.584   7.561   6.024 -0.6427 -0.4305  0.1060
  491MOL0     C66172   6.450   7.550   5.950 -0.7869 -0.9249  0.3531
  491MOL0     C66173   6.356   7.430   5.974 -1.0767 -0.0813  0.5262
  491MOL0     O66174   6.232   7.438   5.895 -0.1098 -0.1246 -0.5673
  491MOL0     C66175   6.133   7.347   5.917 -0.0699 -0.2514 -0.5451
  491MOL0     C66176   6.017   7.352   5.847  0.0686 -0.9461  0.0673
  491MOL0     C66177   5.919   7.256   5.857 -0.4916 -1.2873  0.0055
  491MOL0     C66178   5.933   7.144   5.934 -0.7191 -0.8942 -0.3710
  491MOL0     C66179   5.836   7.030   5.929  0.2859 -1.0134 -0.7981
  491MOL0     O66180   5.703   7.067   5.910 -0.0104 -0.1532  0.6154
  491MOL0     C66181   5.615   6.969   5.886  0.4166  0.2925  0.4173
  491MOL0     C66182   5.588   6.873   5.988  1.1520 -0.6760  0.0988
  491MOL0     C66183   5.489   6.780   5.979  0.7227  0.0359  0.3758
  491MOL0     C66184   5.410   6.784   5.868  0.3208  0.3171  0.1122
  491MOL0     O66185   5.301   6.707   5.869  0.0956 -0.1369 -0.3126
  491MOL0     C66186   5.216   6.696   5.754  0.0767  0.1967  0.2542
  491MOL0     C66187   5.119   6.579   5.780 -0.2426  0.5962  0.0468
  491MOL0     C66188   5.003   6.605   5.873  0.5029 -0.3529  0.0402
  491MOL0     C66189   5.026   6.529   6.006  0.2030 -1.1407 -0.0068
  491MOL0     C66190   4.952   6.577   6.125  0.8372  0.2198 -0.7001
  491MOL0     C66191   4.999   6.706   6.197 -0.2050  0.4532  0.3097
  491MOL0     C66192   4.907   6.764   6.291  0.4988  0.6823 -0.5123
  491MOL0     C66193   4.968   6.873   6.377 -0.3410 -0.4668 -0.5268
  491MOL0    Cl66194   5.021   6.797   6.526  0.2364 -0.1673 -0.0910
  491MOL0     C66195   5.432   6.881   5.761 -0.2331  0.8186  0.6281
  491MOL0     C66196   5.537   6.966   5.774 -0.2093 -0.9970 -0.0657
  491MOL0     O66197   5.885   6.917   5.925 -0.3381  1.1786 -0.6425
  491MOL0     C66198   6.046   7.140   6.009 -0.7126 -0.0617 -0.4014
  491MOL0     C66199   6.141   7.238   6.003 -0.1482 -0.5456  0.4427
  491MOL0     N66200   6.791   7.634   6.276  0.5684  0.9258  0.4919
  491MOL0     N66201   6.812   7.598   6.402  0.9598  0.3818 -0.2062
  491MOL0     C66202   6.184   8.216   7.329  0.1379 -0.6027 -0.7490
  491MOL0     C66203   6.044   8.196   7.324 -0.4021 -0.0425  0.5891
  491MOL0     C66204   5.659   8.040   7.477 -0.9001 -0.0794  0.4359
  491MOL0     C66205   5.609   7.918   7.502 -0.8828  0.1195 -0.1903
  491MOL0     C66206   5.476   7.903   7.521  0.0031 -0.4137  0.6815
  491MOL0     C66207   5.390   8.013   7.512  0.3249  0.0253  0.2128
  491MOL0     O66208   5.253   7.995   7.519 -0.5510 -0.4333  0.1621
  491MOL0     C66209   5.183   8.052   7.627  0.0621  0.3465 -0.1163
  491MOL0     C66210   5.188   8.199   7.634 -0.2217  0.2698  0.0347
  491MOL0     C66211   5.119   8.256   7.753  0.0477  0.0750  0.4318
  491MOL0     C66212   5.201   8.282   7.876 -0.7093 -0.5830  0.6756
  491MOL0     C66213   5.201   8.175   7.975  0.2247  0.5761  0.0203
  491MOL0     C66214   5.192   8.094   8.066 -0.5163 -0.2527 -0.8011
  491MOL0     C66215   5.447   8.136   7.482  0.3404 -0.3505 -0.7018
  491MOL0     C66216   5.585   8.156   7.469  0.5258 -0.9673 -0.1212
  491MOL0     C66217   5.644   8.288   7.433 -0.4253  0.2206 -0.1988
  491MOL0     H66218   6.044   7.880   7.454 -1.8108  1.1154  0.9250
  491MOL0     H66219   6.283   7.913   7.441 -0.3712 -0.6949 -2.0159
  491MOL0     H66220   6.551   8.040   7.424 -0.9162  1.5747 -0.1941
  491MOL0     H66221   6.451   7.933   7.320 -3.0959  1.3264 -1.1518
  491MOL0     H66222   6.698   8.012   7.267 -0.1100  0.7475 -1.2078
  491MOL0     H66223   6.636   8.170   7.233  0.8766  0.0153 -1.3077
  491MOL0     H66224   6.623   8.109   7.032  0.3411  1.8664  3.5654
  491MOL0     H66225   6.470   8.029   7.062 -0.1459 -0.1628  0.2618
  491MOL0     H66226   6.701   7.846   7.073 -1.1360  0.2853  2.5159
  491MOL0     H66227   6.517   7.828   7.079  0.1327  0.4777  2.1029
  491MOL0     H66228   6.514   7.890   6.828  2.9144 -1.1504 -4.0540
  491MOL0     H66229   6.667   7.954   6.843  0.1868  0.4801  1.6739
  491MOL0     H66230   6.778   7.744   6.836  0.3505  4.5743 -0.4021
  491MOL0     H66231   6.612   7.659   6.870 -1.7113 -2.0097 -3.8789
  491MOL0     H66232   6.671   7.800   6.609 -0.9019  1.0020 -0.6361
  491MOL0     H66233   6.526   7.718   6.675  1.0490 -0.3144  0.6894
  491MOL0     H66234   6.774   7.560   6.674 -0.7797  0.7218 -0.7273
  491MOL0     H66235   6.613   7.503   6.657  0.9599 -0.4332 -0.3881
  491MOL0     H66236   6.484   7.611   6.406 -0.1570 -3.2127  0.6488
  491MOL0     H66237   6.481   7.692   6.163  0.6588  1.9387 -1.2614
  491MOL0     H66238   6.618   7.762   6.102 -2.7111  0.6859 -1.1204
  491MOL0     H66239   6.655   7.607   5.955  0.5529 -0.9104  0.9704
  491MOL0     H66240   6.626   7.465   6.056 -1.1930  0.2776  3.3647
  491MOL0     H66241   6.469   7.553   5.843  0.6624 -1.8112  0.5633
  491MOL0     H66242   6.388   7.635   5.981  0.1784 -0.5625  1.3677
  491MOL0     H66243   6.329   7.428   6.080 -0.6552  2.5976  0.7662
  491MOL0     H66244   6.407   7.335   5.955  2.5280  1.7395  0.3254
  491MOL0     H66245   6.010   7.438   5.782 -3.0257 -2.7916 -2.3746
  491MOL0     H66246   5.832   7.272   5.795  1.7418  0.4580 -2.9296
  491MOL0     H66247   5.645   6.880   6.080  0.2338  2.2675  0.5564
  491MOL0     H66248   5.465   6.708   6.056  1.0438 -0.1583  0.2948
  491MOL0     H66249   5.159   6.789   5.741  0.0998  0.1954  0.1377
  491MOL0     H66250   5.261   6.671   5.658 -2.7104 -0.9625 -0.8587
  491MOL0     H66251   5.071   6.558   5.684 -0.1035  0.5437 -0.0119
  491MOL0     H66252   5.169   6.487   5.814 -0.8051  0.3670  0.2563
  491MOL0     H66253   4.992   6.713   5.890  2.3321  0.0057 -0.9097
  491MOL0     H66254   4.905   6.573   5.836 -0.4642  2.3742 -0.0316
  491MOL0     H66255   5.131   6.551   6.026 -0.4270  0.9835  1.2217
  491MOL0     H66256   5.027   6.421   5.986 -2.8625 -1.0104 -1.4970
  491MOL0     H66257   4.954   6.498   6.201 -0.1461  1.3064  0.5124
  491MOL0     H66258   4.846   6.586   6.098 -0.2819  0.6702  3.2125
  491MOL0     H66259   5.097   6.695   6.244 -1.2289  0.0729  2.4949
  491MOL0     H66260   5.008   6.782   6.118 -0.7653 -1.1939 -1.4026
  491MOL0     H66261   4.862   6.690   6.358  1.6717 -0.5098 -1.0026
  491MOL0     H66262   4.828   6.815   6.234 -2.2682 -3.6736 -1.0237
  491MOL0     H66263   5.058   6.918   6.333 -0.9381  1.1077 -0.2050
  491MOL0     H66264   4.895   6.951   6.401 -1.0916 -1.3277  0.0489
  491MOL0     H66265   5.368   6.887   5.674  3.7340 -1.8527 -2.8708
  491MOL0     H66266   5.564   7.039   5.699 -0.9225 -1.2720 -0.5988
  491MOL0     H66267   6.062   7.055   6.074 -0.2129 -0.3242 -0.8569
  491MOL0     H66268   6.229   7.219   6.065  0.8863 -0.8362 -1.0655
  491MOL0     H66269   6.222   8.313   7.299  0.3491 -0.2358  0.6206
  491MOL0     H66270   5.966   8.270   7.311 -0.0662  0.6004  1.9955
  491MOL0     H66271   5.684   7.839   7.491 -1.7162 -0.3728 -3.4262
  491MOL0     H66272   5.447   7.798   7.520  0.9124 -0.7274 -2.0245
  491MOL0     H66273   5.208   8.013   7.726 -1.7738  3.3104  1.7050
  491MOL0     H66274   5.077   8.037   7.606  0.2404  0.7351 -1.3750
  491MOL0     H66275   5.146   8.247   7.544 -2.0662  1.8171  1.6179
  491MOL0     H66276   5.292   8.229   7.645  0.5835 -1.3289 -2.4173
  491MOL0     H66277   5.027   8.202   7.778 -0.6487  1.2477  0.4656
  491MOL0     H66278   5.085   8.358   7.732  1.4669  1.1597  2.9648
  491MOL0     H66279   5.306   8.281   7.845 -0.2116  1.6285  2.0169
  491MOL0     H66280   5.173   8.381   7.915 -2.1909 -0.5665 -0.3580
  491MOL0     H66281   5.181   8.033   8.154  1.7065 -0.3365 -0.5180
  491MOL0     H66282   5.383   8.222   7.461 -1.2522 -1.7721 -1.9484
  491MOL0     H66283   5.700   8.265   7.341  0.8783  3.7023 -0.3995
  491MOL0     H66284   5.573   8.364   7.400  0.0092  0.5203 -0.4552
  491MOL0     H66285   5.717   8.315   7.509  0.5050 -0.7974 -0.7026
  492MOL0     O66286   5.332   9.390   2.228 -0.0162 -0.1258 -0.5247
  492MOL0     C66287   5.419   9.304   2.238  0.1131 -0.0572 -0.0561
  492MOL0     O66288   5.559   9.330   2.235  0.1395 -0.2770  0.5062
  492MOL0     C66289   5.601   9.435   2.152 -0.3999  0.3314 -0.8017
  492MOL0     C66290   5.723   9.494   2.188  0.5118 -0.2381 -0.4733
  492MOL0     C66291   5.769   9.601   2.099  0.2934  0.9455 -0.6439
  492MOL0     C66292   5.703   9.638   1.988  0.5806  1.5707  0.8172
  492MOL0     O66293   5.744   9.734   1.895 -0.2839 -0.2571 -0.3155
  492MOL0     C66294   5.882   9.768   1.905  1.0485 -0.4871  0.2004
  492MOL0     C66295   5.910   9.846   1.779  0.2750 -0.4430 -0.6306
  492MOL0     C66296   5.920   9.756   1.666  0.9667  1.0389 -2.0276
  492MOL0     C66297   5.964   9.820   1.536  0.0196  0.8782 -0.7750
  492MOL0     C66298   6.024   9.713   1.439  0.1703  0.0975  0.7792
  492MOL0     C66299   5.919   9.597   1.413  0.3961 -0.4887 -0.2664
  492MOL0     C66300   5.791   9.646   1.336  0.3399  0.1980  1.0919
  492MOL0     C66301   5.727   9.527   1.278  0.1563 -0.8291 -0.1683
  492MOL0     N66302   5.608   9.556   1.201  0.4377  0.8691  0.7076
  492MOL0     C66303   5.526   9.660   1.208  0.2205 -0.2708  0.1888
  492MOL0     C66304   5.436   9.635   1.116 -0.1980 -0.2667  0.1772
  492MOL0     C66305   5.308   9.721   1.093  0.3145 -0.4216  0.0129
  492MOL0     C66306   5.180   9.669   1.152 -0.0616 -0.3598  0.1375
  492MOL0     C66307   5.131   9.752   1.265 -0.4814 -0.3610 -0.2492
  492MOL0     C66308   4.986   9.718   1.309 -0.2171  0.8380  0.5356
  492MOL0     O66309   4.999   9.596   1.392 -0.1632 -0.0841  0.4317
  492MOL0     C66310   4.895   9.551   1.474 -0.1017 -0.1003 -0.4596
  492MOL0     C66311   4.930   9.455   1.572 -0.0828  0.3502 -0.0701
  492MOL0     C66312   4.832   9.420   1.664  0.4458 -0.0958 -0.7953
  492MOL0     C66313   4.693   9.467   1.648 -0.1268  0.2574  0.3689
  492MOL0     C66314   4.581   9.403   1.731 -0.1029 -0.7843  0.2489
  492MOL0     O66315   4.621   9.330   1.837  0.9861 -0.1845  0.5125
  492MOL0     C66316   4.530   9.254   1.911 -1.1625  0.1038  0.0937
  492MOL0     C66317   4.591   9.211   2.031  0.0851  1.1578  0.6961
  492MOL0     C66318   4.506   9.138   2.124 -0.0604 -0.4397  1.2838
  492MOL0     C66319   4.374   9.099   2.091  0.2176  0.7803 -0.8746
  492MOL0     O66320   4.304   9.034   2.181 -0.6017 -0.7530  0.3473
  492MOL0     C66321   4.249   9.110   2.293 -0.1088 -0.1880 -0.0413
  492MOL0     C66322   4.151   9.012   2.358 -0.0760  0.6650  0.3410
  492MOL0     C66323   4.077   9.072   2.483  0.6730  0.5225 -0.0459
  492MOL0     C66324   4.105   8.999   2.613  0.4293  0.7166  0.1358
  492MOL0     C66325   4.034   9.062   2.733 -0.0074 -0.2541 -0.4285
  492MOL0     C66326   4.058   9.217   2.753 -0.3614  0.8558  0.3579
  492MOL0     C66327   3.957   9.282   2.850  0.1620 -0.1133  0.9516
  492MOL0     C66328   3.946   9.442   2.865 -0.1089  1.3031  0.6671
  492MOL0    Cl66329   4.088   9.510   2.955  0.1338 -0.6594 -0.2840
  492MOL0     C66330   4.325   9.131   1.964 -0.1049 -0.1985 -1.1788
  492MOL0     C66331   4.403   9.206   1.873 -0.8247  0.3794  0.3991
  492MOL0     O66332   4.468   9.433   1.697  0.2872  0.0352 -0.4310
  492MOL0     C66333   4.664   9.557   1.540  0.3911  0.5003 -0.1555
  492MOL0     C66334   4.766   9.606   1.453 -0.0556  0.3099  0.3100
  492MOL0     N66335   5.458   9.515   1.043  0.1765  0.3081 -0.4697
  492MOL0     N66336   5.562   9.468   1.102 -0.4778  0.4783 -0.0401
  492MOL0     C66337   5.595   9.561   1.949  0.0324  0.8372 -0.5959
  492MOL0     C66338   5.538   9.469   2.028  0.2888  0.4909 -0.9704
  492MOL0     C66339   5.385   9.168   2.297  0.8280  0.0366  0.3392
  492MOL0     C66340   5.478   9.103   2.386  0.8774  0.3913 -0.1327
  492MOL0     C66341   5.455   8.978   2.446 -0.1185 -0.2181 -0.8510
  492MOL0     C66342   5.331   8.909   2.424 -0.8381  0.7087  1.1286
  492MOL0     O66343   5.309   8.789   2.486  0.3341  0.3396  0.3253
  492MOL0     C66344   5.402   8.695   2.435 -0.1981  0.2665 -0.4888
  492MOL0     C66345   5.337   8.554   2.457  0.2707 -0.2953 -0.8616
  492MOL0     C66346   5.369   8.493   2.595  0.5735  0.2240 -0.4887
  492MOL0     C66347   5.259   8.399   2.644 -0.3461 -0.0614 -0.4985
  492MOL0     C66348   5.125   8.462   2.657  1.0019  0.5212 -0.7510
  492MOL0     C66349   5.021   8.524   2.652 -0.8701  0.3073 -0.3960
  492MOL0     C66350   5.230   8.978   2.352 -0.4962  0.5662  0.3915
  492MOL0     C66351   5.262   9.102   2.289  0.1061 -0.2485  0.5563
  492MOL0     C66352   5.138   9.168   2.221 -0.1868  0.0239 -0.0022
  492MOL0     H66353   5.770   9.468   2.282 -0.5171  0.3757  0.2325
  492MOL0     H66354   5.851   9.655   2.144 -0.2501 -0.2872  2.0399
  492MOL0     H66355   5.895   9.835   1.990  0.0746 -1.4166  1.1028
  492MOL0     H66356   5.956   9.689   1.917  2.8102  1.3403  2.2579
  492MOL0     H66357   6.012   9.884   1.788 -0.4831  1.8118 -0.9145
  492MOL0     H66358   5.845   9.933   1.766  0.4266 -0.2931 -0.3948
  492MOL0     H66359   5.830   9.697   1.647  1.0090  0.5270 -0.7135
  492MOL0     H66360   5.993   9.681   1.695 -1.6640 -0.9919 -0.0996
  492MOL0     H66361   5.892   9.885   1.484  0.5401  2.1475  0.0394
  492MOL0     H66362   6.046   9.891   1.552  1.9255 -0.2444 -4.2923
  492MOL0     H66363   6.048   9.769   1.348 -2.7309 -2.5445 -1.8357
  492MOL0     H66364   6.116   9.668   1.476  1.5935  0.4581 -2.0589
  492MOL0     H66365   5.970   9.514   1.361 -1.1339 -1.4486 -0.3038
  492MOL0     H66366   5.896   9.549   1.508 -2.5920 -1.7821 -1.4981
  492MOL0     H66367   5.811   9.720   1.257 -0.9308 -1.3309 -0.7355
  492MOL0     H66368   5.719   9.694   1.402  1.1364  0.2827  1.9209
  492MOL0     H66369   5.805   9.478   1.219  1.7628 -0.8879  1.8880
  492MOL0     H66370   5.701   9.448   1.350 -0.5320 -2.5519 -2.2152
  492MOL0     H66371   5.528   9.741   1.280  0.4737 -0.5845  0.5375
  492MOL0     H66372   5.325   9.826   1.116 -2.1274  0.2898 -1.0989
  492MOL0     H66373   5.287   9.732   0.986 -1.4477  0.7647  0.4460
  492MOL0     H66374   5.114   9.671   1.064  0.7826 -0.6437 -0.5151
  492MOL0     H66375   5.179   9.565   1.187 -1.2167 -0.2294  0.5289
  492MOL0     H66376   5.143   9.859   1.246  0.1895 -0.1583  1.2084
  492MOL0     H66377   5.202   9.735   1.347  1.1403  0.6797 -1.3717
  492MOL0     H66378   4.926   9.706   1.218  2.1847 -0.9616 -0.9366
  492MOL0     H66379   4.947   9.797   1.374  0.1642  2.4793 -1.1537
  492MOL0     H66380   5.029   9.419   1.596 -0.5433  0.9476  3.1272
  492MOL0     H66381   4.865   9.353   1.743 -0.5857 -1.4148 -1.4265
  492MOL0     H66382   4.690   9.238   2.064  0.2914  0.5210  0.6254
  492MOL0     H66383   4.551   9.100   2.215 -0.3017 -1.0455  1.1593
  492MOL0     H66384   4.329   9.138   2.361  0.4639  1.1152 -1.2061
  492MOL0     H66385   4.194   9.195   2.253  0.4954  0.6103  0.8022
  492MOL0     H66386   4.073   8.969   2.294 -0.1503 -0.2892  1.0403
  492MOL0     H66387   4.216   8.929   2.386  1.6208  1.7579 -0.2125
  492MOL0     H66388   4.106   9.177   2.478 -0.3052  0.7870 -0.4049
  492MOL0     H66389   3.970   9.075   2.462  0.8920  0.7863 -1.2419
  492MOL0     H66390   4.211   8.996   2.642  0.4554 -2.2743  0.0160
  492MOL0     H66391   4.068   8.898   2.596 -2.1961  1.7702 -0.8279
  492MOL0     H66392   4.075   9.012   2.822  1.9443  2.2508  0.1965
  492MOL0     H66393   3.929   9.036   2.718 -0.4089  1.2082 -0.3312
  492MOL0     H66394   4.163   9.225   2.783  0.2957 -3.2110 -0.2638
  492MOL0     H66395   4.037   9.267   2.658 -3.5900  0.8025  0.9209
  492MOL0     H66396   3.972   9.244   2.952 -1.5650 -2.9419  0.2802
  492MOL0     H66397   3.856   9.254   2.818  0.3856 -2.0604  1.7745
  492MOL0     H66398   3.952   9.487   2.766  2.0399  1.4606  0.8130
  492MOL0     H66399   3.856   9.472   2.918  0.7689  2.0319  1.8016
  492MOL0     H66400   4.225   9.097   1.941 -0.5399 -1.7238  2.2844
  492MOL0     H66401   4.366   9.225   1.772  0.9528 -1.7436 -0.7393
  492MOL0     H66402   4.564   9.587   1.512  0.7783 -0.1386 -2.3644
  492MOL0     H66403   4.729   9.672   1.375 -2.9361 -0.4164  0.9410
  492MOL0     H66404   5.548   9.576   1.852  0.9011  1.4959 -0.9330
  492MOL0     H66405   5.451   9.419   1.987  0.3637  0.9037 -1.6535
  492MOL0     H66406   5.576   9.146   2.405  0.4845  0.9033  0.7736
  492MOL0     H66407   5.545   8.944   2.495  0.6652 -1.0496 -2.7774
  492MOL0     H66408   5.489   8.699   2.501 -0.3750  0.7038 -0.2768
  492MOL0     H66409   5.431   8.705   2.330 -3.7617 -2.2968 -1.9484
  492MOL0     H66410   5.394   8.487   2.392  2.2280  1.8940 -1.5352
  492MOL0     H66411   5.232   8.571   2.432  0.4676 -1.3661 -2.6133
  492MOL0     H66412   5.371   8.574   2.669  0.2438 -0.0348 -0.1917
  492MOL0     H66413   5.469   8.449   2.595  0.6189  0.3173  0.2175
  492MOL0     H66414   5.250   8.314   2.575 -2.4816 -1.6266  1.5394
  492MOL0     H66415   5.301   8.360   2.737  2.0670  0.7659 -1.1479
  492MOL0     H66416   4.932   8.584   2.649 -0.1618  1.4284  0.3537
  492MOL0     H66417   5.136   8.927   2.335 -0.8923  1.1898  0.6923
  492MOL0     H66418   5.077   9.226   2.290 -1.0693  0.6994 -1.3026
  492MOL0     H66419   5.159   9.212   2.123 -0.9077 -1.8932 -1.0714
  492MOL0     H66420   5.072   9.089   2.185  3.9177 -2.6708 -2.5411
  493MOL0     O66421   0.800   7.003   3.702  0.4893 -1.3265 -0.2443
  493MOL0     C66422   0.717   7.096   3.724  0.4695 -0.8202  0.2207
  493MOL0     O66423   0.599   7.111   3.657  0.7528  0.7120 -0.5230
  493MOL0     C66424   0.552   7.045   3.551 -0.3686  0.3235 -0.2816
  493MOL0     C66425   0.416   7.060   3.518 -0.2686  0.1934 -0.0524
  493MOL0     C66426   0.368   7.017   3.391  0.3985  0.8505  0.2818
  493MOL0     C66427   0.437   6.925   3.308 -0.0923 -0.2226 -0.2442
  493MOL0     O66428   0.391   6.892   3.189 -0.1682  0.2423 -0.2493
  493MOL0     C66429   0.270   6.944   3.144 -0.0450  0.8107 -0.5850
  493MOL0     C66430   0.215   6.854   3.021  0.5205  0.2539 -0.1328
  493MOL0     C66431   0.090   6.907   2.949 -0.4962 -0.3927  0.2445
  493MOL0     C66432  -0.031   6.912   3.052 -0.6435 -0.4209  0.9627
  493MOL0     C66433  -0.078   7.055   3.057  0.5604 -0.7491 -0.3384
  493MOL0     C66434  -0.217   7.073   3.124 -0.1342  0.2046  1.0262
  493MOL0     C66435  -0.203   7.047   3.277  0.1572 -0.6257 -0.3539
  493MOL0     C66436  -0.343   7.079   3.341 -0.6243  0.3150  0.3520
  493MOL0     N66437  -0.397   7.212   3.300 -0.1600  0.0880  0.0423
  493MOL0     C66438  -0.335   7.331   3.331  0.1709  0.1315  0.2592
  493MOL0     C66439  -0.402   7.425   3.264  0.3358  0.3501  0.3232
  493MOL0     C66440  -0.369   7.570   3.260  0.6860 -0.1345 -0.2063
  493MOL0     C66441  -0.433   7.656   3.373  0.2057  0.1198  0.0442
  493MOL0     C66442  -0.409   7.798   3.338 -0.0667 -0.2118 -0.6841
  493MOL0     C66443  -0.449   7.896   3.445  0.4800 -0.4145  1.2079
  493MOL0     O66444  -0.342   7.911   3.538  0.0942 -0.2412 -0.2440
  493MOL0     C66445  -0.350   7.998   3.636 -0.4484 -0.2552  0.3943
  493MOL0     C66446  -0.462   8.070   3.670 -0.1943 -0.2811  0.5272
  493MOL0     C66447  -0.459   8.171   3.762 -0.2891 -0.4087 -0.7490
  493MOL0     C66448  -0.341   8.195   3.822  0.5900 -0.0991  1.5623
  493MOL0     C66449  -0.330   8.307   3.918  0.2881  0.9771  0.5560
  493MOL0     O66450  -0.412   8.411   3.901  0.7467  0.3955 -1.0343
  493MOL0     C66451  -0.437   8.510   3.997  1.2266 -0.6602 -0.0459
  493MOL0     C66452  -0.542   8.591   3.981  0.2002  0.1767  0.3168
  493MOL0     C66453  -0.594   8.676   4.074 -0.2538 -0.4120  0.2950
  493MOL0     C66454  -0.519   8.708   4.197 -0.5907 -0.5867  0.4798
  493MOL0     O66455  -0.562   8.785   4.300 -0.6824  0.1557  0.1265
  493MOL0     C66456  -0.702   8.788   4.323 -0.1428 -0.4361  0.0979
  493MOL0     C66457  -0.772   8.906   4.244 -0.3892 -0.8218 -0.4210
  493MOL0     C66458  -0.712   9.045   4.264  0.5467  0.5393 -1.1523
  493MOL0     C66459  -0.737   9.102   4.407 -0.6562 -0.5048  1.3401
  493MOL0     C66460  -0.663   9.230   4.430  0.0530 -0.9549 -0.9857
  493MOL0     C66461  -0.694   9.295   4.565 -0.4824 -0.0383  0.3041
  493MOL0     C66462  -0.620   9.428   4.570  0.4105 -0.6598  0.2515
  493MOL0     C66463  -0.653   9.496   4.702 -0.5691 -0.2738  1.2160
  493MOL0    Cl66464  -0.573   9.422   4.835  0.3244  0.1013  0.4473
  493MOL0     C66465  -0.395   8.631   4.217  0.0027 -1.3913 -0.9365
  493MOL0     C66466  -0.362   8.536   4.119  0.0133 -0.0011  0.6880
  493MOL0     O66467  -0.258   8.288   4.012 -0.7493 -0.4338 -0.2379
  493MOL0     C66468  -0.227   8.133   3.788 -0.8981  0.8184 -0.1866
  493MOL0     C66469  -0.229   8.027   3.700  0.0773  0.1657  0.6310
  493MOL0     N66470  -0.502   7.357   3.189 -0.3948 -0.2172 -0.0255
  493MOL0     N66471  -0.505   7.238   3.228 -0.6050  0.5614  0.3471
  493MOL0     C66472   0.571   6.908   3.350 -0.1495 -0.8962  0.0556
  493MOL0     C66473   0.628   6.964   3.469 -0.3661 -1.0603 -0.7158
  493MOL0     C66474   0.734   7.198   3.827 -0.6812  0.2309 -0.4796
  493MOL0     C66475   0.787   7.147   3.952 -1.0600 -1.3044  0.3152
  493MOL0     C66476   0.778   7.223   4.068 -0.2785  0.7003  0.7426
  493MOL0     C66477   0.738   7.363   4.074 -0.5061 -0.5323 -0.0464
  493MOL0     O66478   0.741   7.428   4.192  1.1931  0.7337  0.0396
  493MOL0     C66479   0.658   7.547   4.215  0.0129  0.5090  0.0808
  493MOL0     C66480   0.679   7.583   4.359 -0.6725  0.7086  0.5670
  493MOL0     C66481   0.588   7.705   4.388  0.3214  0.3655 -0.0875
  493MOL0     C66482   0.650   7.841   4.371 -0.0712  0.0681 -0.1480
  493MOL0     C66483   0.747   7.862   4.476 -0.0049  0.3290  0.3173
  493MOL0     C66484   0.820   7.867   4.574 -0.2880  0.9302  0.5064
  493MOL0     C66485   0.704   7.413   3.950 -0.1887 -0.5858 -1.0263
  493MOL0     C66486   0.691   7.331   3.832  0.4441  0.2474 -0.0980
  493MOL0     C66487   0.621   7.399   3.724  0.7406  0.4239 -0.0200
  493MOL0     H66488   0.353   7.107   3.593 -0.6183 -1.3747  0.6964
  493MOL0     H66489   0.266   7.047   3.367  1.6824  3.2838 -2.8535
  493MOL0     H66490   0.196   6.949   3.225 -0.1380 -1.0838 -0.4911
  493MOL0     H66491   0.292   7.049   3.123  0.6027  1.0724  1.2086
  493MOL0     H66492   0.202   6.752   3.059 -0.3375  0.0200 -1.0067
  493MOL0     H66493   0.292   6.834   2.946  1.3103 -0.7563  0.9152
  493MOL0     H66494   0.054   6.840   2.870  1.1700  0.3103 -1.1842
  493MOL0     H66495   0.116   7.004   2.906  5.3885 -1.2472  1.0477
  493MOL0     H66496  -0.107   6.845   3.012  2.4463 -2.6953 -1.6735
  493MOL0     H66497   0.001   6.874   3.149  5.0881  0.0862 -0.3386
  493MOL0     H66498  -0.011   7.122   3.111 -0.8618 -0.7214  1.4638
  493MOL0     H66499  -0.080   7.102   2.958  1.5268 -0.6252 -0.3080
  493MOL0     H66500  -0.237   7.178   3.102 -0.1557  0.2437  1.2345
  493MOL0     H66501  -0.302   7.013   3.089 -0.9123  1.8679 -0.0790
  493MOL0     H66502  -0.131   7.126   3.301 -2.3598  1.7716 -0.0685
  493MOL0     H66503  -0.163   6.950   3.307 -1.1245 -0.8445  0.7669
  493MOL0     H66504  -0.420   7.003   3.322 -0.7349  0.2174  1.1222
  493MOL0     H66505  -0.334   7.073   3.450  2.9117 -4.1191  0.0810
  493MOL0     H66506  -0.264   7.370   3.403  0.2744  1.5777 -0.5962
  493MOL0     H66507  -0.262   7.593   3.266  0.2480  1.6870  3.0598
  493MOL0     H66508  -0.399   7.604   3.160  3.9864 -1.0864 -1.6628
  493MOL0     H66509  -0.540   7.631   3.372  0.6307 -1.9320 -1.1719
  493MOL0     H66510  -0.387   7.632   3.469  3.2612  0.5563 -1.2080
  493MOL0     H66511  -0.474   7.820   3.253 -0.8213  2.5580  0.4871
  493MOL0     H66512  -0.303   7.806   3.314  0.2250 -0.2816  0.5149
  493MOL0     H66513  -0.551   7.868   3.474 -0.7922 -0.2552 -2.5975
  493MOL0     H66514  -0.464   7.993   3.397  1.8498 -0.6668  0.2491
  493MOL0     H66515  -0.562   8.051   3.631  0.1555  0.7220 -0.9445
  493MOL0     H66516  -0.546   8.233   3.781 -0.9366 -1.6541  0.5641
  493MOL0     H66517  -0.598   8.587   3.888 -4.5822  1.8178  2.7609
  493MOL0     H66518  -0.691   8.715   4.047  0.0670  0.6958  0.6765
  493MOL0     H66519  -0.764   8.697   4.323  0.2774 -0.8700  3.2533
  493MOL0     H66520  -0.703   8.806   4.431  0.0437 -1.4127  0.2756
  493MOL0     H66521  -0.778   8.882   4.138 -2.8581  0.0281 -0.5321
  493MOL0     H66522  -0.876   8.909   4.277 -0.5825 -0.2761 -1.0697
  493MOL0     H66523  -0.604   9.042   4.250  0.4676  1.0297 -1.8722
  493MOL0     H66524  -0.761   9.115   4.196 -1.3542 -1.0094 -1.4642
  493MOL0     H66525  -0.726   9.020   4.479 -1.7260 -2.8640 -0.9835
  493MOL0     H66526  -0.842   9.132   4.408 -0.6104  0.6297 -3.3268
  493MOL0     H66527  -0.694   9.302   4.353 -1.5080  0.4188  0.8293
  493MOL0     H66528  -0.556   9.207   4.422 -0.4269 -2.6108 -3.5592
  493MOL0     H66529  -0.800   9.312   4.584 -0.1512  0.0602  2.2446
  493MOL0     H66530  -0.659   9.226   4.643 -0.8124 -0.8466 -0.2434
  493MOL0     H66531  -0.642   9.491   4.484  0.9697 -1.2781 -0.3606
  493MOL0     H66532  -0.512   9.410   4.560  0.6893  2.0308 -3.8665
  493MOL0     H66533  -0.622   9.601   4.703 -0.2302 -0.2562 -1.7685
  493MOL0     H66534  -0.762   9.508   4.704 -0.3847  2.4747 -0.0374
  493MOL0     H66535  -0.336   8.637   4.308 -3.1654  0.1088  1.2073
  493MOL0     H66536  -0.267   8.485   4.131 -0.6464 -0.9807  2.1399
  493MOL0     H66537  -0.133   8.155   3.838 -1.3946  0.0893  1.1070
  493MOL0     H66538  -0.146   7.968   3.663 -0.2286  1.2988 -2.1380
  493MOL0     H66539   0.627   6.849   3.279 -1.6051  1.3717 -3.2081
  493MOL0     H66540   0.733   6.941   3.484 -0.3287  0.0461  0.9693
  493MOL0     H66541   0.848   7.057   3.948  0.7422 -0.1334  0.3023
  493MOL0     H66542   0.822   7.184   4.159  1.7633  0.7357 -0.1597
  493MOL0     H66543   0.554   7.531   4.185  0.1341 -0.1378 -0.0163
  493MOL0     H66544   0.694   7.634   4.160  0.3423  0.7528  0.6720
  493MOL0     H66545   0.788   7.585   4.365 -0.3776 -4.4719  2.1993
  493MOL0     H66546   0.646   7.499   4.421 -1.4540  0.6427  0.0829
  493MOL0     H66547   0.557   7.695   4.493 -4.7590  3.5579 -0.9002
  493MOL0     H66548   0.498   7.701   4.325 -0.2341 -3.9034  0.6799
  493MOL0     H66549   0.699   7.844   4.274  1.2949 -3.0824  0.3212
  493MOL0     H66550   0.575   7.921   4.370 -0.1133  0.0464  0.4798
  493MOL0     H66551   0.882   7.880   4.660 -2.2758 -2.2707  2.6441
  493MOL0     H66552   0.684   7.520   3.946  0.6060 -0.4578 -3.9544
  493MOL0     H66553   0.644   7.506   3.722 -2.9321  1.4375  2.0623
  493MOL0     H66554   0.635   7.356   3.624 -4.1125 -0.6609 -0.4831
  493MOL0     H66555   0.513   7.395   3.740  0.6118 -3.3183 -0.8039
  494MOL0     O66556   0.153   0.651   2.809 -0.4404 -0.8830  0.3592
  494MOL0     C66557   0.173   0.745   2.729 -0.2565 -0.1199 -0.0428
  494MOL0     O66558   0.083   0.849   2.705  0.8256  0.6191  0.0030
  494MOL0     C66559  -0.026   0.874   2.792 -0.4531 -0.1366  0.4022
  494MOL0     C66560  -0.057   0.813   2.912 -1.5632 -0.4611 -0.1259
  494MOL0     C66561  -0.180   0.836   2.983 -0.0311  0.1371 -1.0994
  494MOL0     C66562  -0.267   0.942   2.937 -0.0808  0.8494  0.1611
  494MOL0     O66563  -0.380   0.972   3.009  0.0712  0.2017 -0.0953
  494MOL0     C66564  -0.483   1.076   2.987  1.0468 -0.7395  0.4924
  494MOL0     C66565  -0.597   1.024   2.906  0.3843 -0.2972 -0.3725
  494MOL0     C66566  -0.685   1.145   2.863 -0.0550 -0.2250 -0.3607
  494MOL0     C66567  -0.816   1.107   2.795 -0.0406 -0.4527  0.0293
  494MOL0     C66568  -0.909   1.219   2.760 -0.3548  0.5930 -0.5627
  494MOL0     C66569  -0.975   1.285   2.877  0.3170 -0.7032 -0.1226
  494MOL0     C66570  -1.064   1.399   2.830  0.2941 -0.3412  0.4449
  494MOL0     C66571  -1.104   1.499   2.954  0.0375  0.1559  0.1556
  494MOL0     N66572  -1.159   1.411   3.066 -0.3821 -0.0371 -0.3068
  494MOL0     C66573  -1.095   1.400   3.185 -0.1528 -0.1068  0.6596
  494MOL0     C66574  -1.169   1.312   3.265  0.0180  0.5432 -0.2319
  494MOL0     C66575  -1.152   1.284   3.409 -0.7008  1.1838  0.5405
  494MOL0     C66576  -1.227   1.385   3.493  0.2888  0.7681  0.0893
  494MOL0     C66577  -1.225   1.358   3.642 -0.3188 -0.2471 -1.0195
  494MOL0     C66578  -1.350   1.412   3.707 -0.1227  0.2693 -0.2938
  494MOL0     O66579  -1.396   1.544   3.678 -0.4800  0.3901 -0.6902
  494MOL0     C66580  -1.467   1.610   3.776 -0.7969 -0.6029 -0.3327
  494MOL0     C66581  -1.519   1.544   3.888 -0.1154  0.6679 -0.3641
  494MOL0     C66582  -1.588   1.622   3.991 -0.2158  0.6708 -0.0466
  494MOL0     C66583  -1.589   1.762   3.987 -0.0941 -0.0266 -0.1389
  494MOL0     C66584  -1.657   1.839   4.099  0.8754 -0.4584 -0.9380
  494MOL0     O66585  -1.696   1.970   4.078 -0.6918 -0.1607  0.2252
  494MOL0     C66586  -1.769   2.035   4.174 -0.7386 -0.4499  0.5917
  494MOL0     C66587  -1.910   2.021   4.175 -0.2952 -0.5813 -0.4379
  494MOL0     C66588  -1.978   2.094   4.273  0.0804 -0.7193  0.4070
  494MOL0     C66589  -1.918   2.188   4.357  0.3486 -0.9615 -0.4891
  494MOL0     O66590  -1.998   2.271   4.435  0.1298  0.0473 -0.1911
  494MOL0     C66591  -2.108   2.217   4.511 -0.3608  0.2573 -0.8532
  494MOL0     C66592  -2.225   2.299   4.477  0.6747  0.5065 -0.2044
  494MOL0     C66593  -2.339   2.228   4.553 -0.4741  0.2393  0.1215
  494MOL0     C66594  -2.473   2.299   4.517 -0.0174  0.4788 -0.6961
  494MOL0     C66595  -2.593   2.250   4.593  1.1438  0.2842  0.0019
  494MOL0     C66596  -2.709   2.347   4.582 -0.1676  0.8153  0.1589
  494MOL0     C66597  -2.691   2.486   4.656 -0.5565  0.9922  0.2502
  494MOL0     C66598  -2.815   2.563   4.704 -0.0824 -0.6529  1.0834
  494MOL0    Cl66599  -2.890   2.623   4.554  0.0657 -0.4660  0.2862
  494MOL0     C66600  -1.777   2.211   4.346  0.6310 -0.3646  0.3284
  494MOL0     C66601  -1.708   2.143   4.245  0.4858  0.3340 -0.4294
  494MOL0     O66602  -1.688   1.778   4.201  0.5515 -0.3475  0.3923
  494MOL0     C66603  -1.536   1.827   3.876  0.3210  0.2790  0.1686
  494MOL0     C66604  -1.473   1.750   3.774 -1.1381 -0.3033  0.6861
  494MOL0     N66605  -1.274   1.273   3.193 -0.6186 -0.0787  0.3622
  494MOL0     N66606  -1.275   1.340   3.080 -0.3784 -0.6829  0.1586
  494MOL0     C66607  -0.227   1.017   2.830  0.9362  0.2833  0.2349
  494MOL0     C66608  -0.116   0.977   2.752  0.2376 -0.1176  1.0188
  494MOL0     C66609   0.305   0.751   2.657  0.7216  0.2561 -1.0500
  494MOL0     C66610   0.325   0.863   2.575  0.0676 -0.5741 -0.0391
  494MOL0     C66611   0.447   0.895   2.510  0.7837  0.9267  0.5801
  494MOL0     C66612   0.551   0.811   2.532 -0.1456 -0.0145 -0.2528
  494MOL0     O66613   0.680   0.832   2.483  0.9829  0.1096  0.0076
  494MOL0     C66614   0.793   0.860   2.568 -0.2310 -0.4177  0.4956
  494MOL0     C66615   0.856   0.989   2.516 -0.7366 -0.2156 -0.5617
  494MOL0     C66616   0.984   1.047   2.587  0.3007  0.6198  0.5297
  494MOL0     C66617   0.956   1.104   2.725  0.0495 -1.1090  0.4482
  494MOL0     C66618   1.072   1.180   2.770  1.2038  0.2137 -0.1748
  494MOL0     C66619   1.174   1.239   2.802 -0.1755  0.1156  0.1780
  494MOL0     C66620   0.538   0.693   2.612 -1.3896 -0.3234 -0.1879
  494MOL0     C66621   0.414   0.661   2.672  0.2875  0.6577  0.4478
  494MOL0     C66622   0.410   0.542   2.757 -0.7276 -0.6072 -0.5402
  494MOL0     H66623   0.016   0.748   2.958  1.8126  2.8612 -0.3266
  494MOL0     H66624  -0.204   0.789   3.078 -1.6578 -0.3664 -1.7208
  494MOL0     H66625  -0.511   1.097   3.091 -1.6616 -2.0136  0.0910
  494MOL0     H66626  -0.433   1.160   2.938 -1.2658 -0.3445 -1.3353
  494MOL0     H66627  -0.656   0.957   2.969 -0.7737  1.5250  0.6013
  494MOL0     H66628  -0.571   0.969   2.816  1.6385 -0.0554 -0.1764
  494MOL0     H66629  -0.637   1.205   2.785  2.0467 -0.0582  0.9635
  494MOL0     H66630  -0.702   1.195   2.959 -0.5720 -0.1369 -0.4938
  494MOL0     H66631  -0.800   1.052   2.702  0.1360  2.3674 -1.7251
  494MOL0     H66632  -0.871   1.047   2.867  0.7560  1.8615  2.7557
  494MOL0     H66633  -0.849   1.297   2.711 -0.8720  2.7555  2.0418
  494MOL0     H66634  -0.980   1.179   2.686 -1.9859  2.1135  0.1241
  494MOL0     H66635  -1.040   1.205   2.912  3.2415 -2.3949  1.8011
  494MOL0     H66636  -0.914   1.314   2.964  0.0862 -1.7004  0.3805
  494MOL0     H66637  -1.154   1.356   2.785  1.2621 -0.5082 -1.4164
  494MOL0     H66638  -1.011   1.456   2.753 -1.6696  0.1280 -0.6233
  494MOL0     H66639  -1.019   1.556   2.992 -0.2621 -0.4043  1.7211
  494MOL0     H66640  -1.167   1.581   2.916  0.6016  0.2073 -0.7099
  494MOL0     H66641  -1.007   1.455   3.216  0.3312 -0.1231 -0.6467
  494MOL0     H66642  -1.184   1.183   3.437  2.3329  0.0249  0.2607
  494MOL0     H66643  -1.048   1.293   3.443 -0.2990 -1.0778  0.0687
  494MOL0     H66644  -1.184   1.481   3.463  2.2844 -0.5257 -1.4886
  494MOL0     H66645  -1.330   1.378   3.455  0.4523  1.4771 -0.4956
  494MOL0     H66646  -1.133   1.402   3.680  0.5743 -0.9952 -2.2372
  494MOL0     H66647  -1.217   1.249   3.645 -0.3792 -0.2347 -0.2655
  494MOL0     H66648  -1.326   1.407   3.813  0.2545 -1.6277 -0.4277
  494MOL0     H66649  -1.431   1.344   3.678  0.0479 -1.4170  2.7914
  494MOL0     H66650  -1.516   1.436   3.898  0.2967  0.8110  1.4639
  494MOL0     H66651  -1.643   1.569   4.069 -4.0811 -0.6205 -3.3110
  494MOL0     H66652  -1.966   1.941   4.129 -0.1301 -1.2735  0.5504
  494MOL0     H66653  -2.085   2.089   4.289  0.3078  1.2322  3.3159
  494MOL0     H66654  -2.128   2.111   4.489 -1.6138  0.4864 -0.8822
  494MOL0     H66655  -2.094   2.218   4.619  2.2014  1.3169 -1.1357
  494MOL0     H66656  -2.215   2.397   4.524 -2.6577  0.8252  0.0977
  494MOL0     H66657  -2.232   2.312   4.369  0.5179 -1.5282 -0.4729
  494MOL0     H66658  -2.356   2.128   4.512  3.6833 -0.9949  0.9472
  494MOL0     H66659  -2.313   2.223   4.659  0.4966  0.1902 -0.1099
  494MOL0     H66660  -2.476   2.297   4.408  4.3782 -2.2766 -1.0119
  494MOL0     H66661  -2.456   2.401   4.553  2.1794 -0.5916  1.6538
  494MOL0     H66662  -2.578   2.232   4.700  0.2738 -2.4483 -0.2656
  494MOL0     H66663  -2.623   2.153   4.553  0.8876 -1.8698  4.7171
  494MOL0     H66664  -2.722   2.370   4.476  1.0676  0.7924 -0.0129
  494MOL0     H66665  -2.802   2.295   4.609  0.0329 -0.3485 -1.2959
  494MOL0     H66666  -2.639   2.555   4.589 -0.7217  1.9182  1.0611
  494MOL0     H66667  -2.632   2.466   4.746  1.2003 -3.0187 -1.5252
  494MOL0     H66668  -2.883   2.504   4.766 -0.9514 -0.8935 -0.0804
  494MOL0     H66669  -2.777   2.654   4.751  1.7224  0.1042 -1.6232
  494MOL0     H66670  -1.730   2.294   4.399 -1.0730  0.4617  0.5968
  494MOL0     H66671  -1.608   2.186   4.243 -0.5078  3.1310  1.8064
  494MOL0     H66672  -1.520   1.935   3.875 -0.8964  0.6462 -4.6084
  494MOL0     H66673  -1.423   1.796   3.690  0.6224 -1.5546  0.9899
  494MOL0     H66674  -0.290   1.100   2.799 -1.0388 -0.8552  1.0602
  494MOL0     H66675  -0.079   1.037   2.670  3.1809 -1.2007  1.4480
  494MOL0     H66676   0.249   0.937   2.552  2.4214  1.6932 -1.1005
  494MOL0     H66677   0.459   0.981   2.445  0.9909 -0.9625 -2.0173
  494MOL0     H66678   0.869   0.784   2.548  0.0868 -0.1856  0.8013
  494MOL0     H66679   0.770   0.871   2.674  0.3441 -0.7180  0.6592
  494MOL0     H66680   0.782   1.068   2.500  0.9555  1.2270 -1.7409
  494MOL0     H66681   0.883   0.969   2.412 -4.0234 -0.9179 -1.3900
  494MOL0     H66682   1.034   1.123   2.526  1.7328  1.0195  2.1469
  494MOL0     H66683   1.063   0.971   2.589 -0.2082 -0.1640 -2.5757
  494MOL0     H66684   0.863   1.162   2.731  0.9916  0.6220 -0.8455
  494MOL0     H66685   0.935   1.017   2.789 -1.3895 -2.3847 -1.6106
  494MOL0     H66686   1.259   1.294   2.835  0.0677  0.7571 -1.4415
  494MOL0     H66687   0.625   0.629   2.624  0.3868  1.4383 -2.5595
  494MOL0     H66688   0.492   0.478   2.723 -1.0258 -0.1182 -2.3106
  494MOL0     H66689   0.423   0.573   2.861  0.0086 -1.4410 -0.3697
  494MOL0     H66690   0.327   0.471   2.760  0.0138 -1.5438  3.0824
  495MOL0     O66691   9.514   3.187  10.824 -0.0684 -0.2553 -0.1292
  495MOL0     C66692   9.501   3.067  10.796  0.1158 -0.1486 -0.3698
  495MOL0     O66693   9.509   2.966  10.889 -0.2666 -0.9692 -0.1815
  495MOL0     C66694   9.568   2.982  11.011  0.7140  0.3828 -0.7215
  495MOL0     C66695   9.509   3.058  11.107 -0.4020 -0.3902  0.1324
  495MOL0     C66696   9.560   3.069  11.237  1.2034 -0.1087  0.2979
  495MOL0     C66697   9.657   2.984  11.278  0.2152 -0.2279 -0.4273
  495MOL0     O66698   9.686   2.978  11.413 -0.5659 -0.4223 -1.0208
  495MOL0     C66699   9.764   2.869  11.470  0.4597 -0.4022 -0.7112
  495MOL0     C66700   9.815   2.899  11.612 -0.6507  0.5422 -0.5176
  495MOL0     C66701   9.875   3.043  11.622  0.7422  0.5953 -0.2695
  495MOL0     C66702   9.779   3.134  11.709  0.1244  0.5410 -0.1980
  495MOL0     C66703   9.825   3.279  11.711 -0.4756  0.2029 -0.0861
  495MOL0     C66704   9.817   3.325  11.860  0.1958 -0.9214 -0.3172
  495MOL0     C66705   9.838   3.475  11.860 -0.2005 -1.2728 -0.9198
  495MOL0     C66706   9.814   3.552  11.995 -0.8465 -0.5004 -0.5473
  495MOL0     N66707   9.716   3.492  12.083 -0.1290 -0.5501  0.2484
  495MOL0     C66708   9.728   3.481  12.217 -1.0123 -0.2806  0.5223
  495MOL0     C66709   9.603   3.451  12.255  0.4176  0.3945  0.3773
  495MOL0     C66710   9.552   3.444  12.392  0.1459  0.0682  0.2552
  495MOL0     C66711   9.614   3.338  12.479 -0.4692  0.3427  0.8139
  495MOL0     C66712   9.558   3.202  12.423  0.1997  0.9612  0.0458
  495MOL0     C66713   9.596   3.078  12.500  0.4457  0.4740  0.0792
  495MOL0     O66714   9.657   3.110  12.627 -0.6004 -0.4147  0.4187
  495MOL0     C66715   9.585   3.115  12.747  0.2769 -0.9943  0.0806
  495MOL0     C66716   9.660   3.092  12.869 -0.6117 -0.2989 -0.6715
  495MOL0     C66717   9.593   3.071  12.984 -0.9099  0.1736 -0.1635
  495MOL0     C66718   9.455   3.099  12.994 -0.3482 -0.9392  0.4919
  495MOL0     C66719   9.387   3.072  13.121  0.3120 -0.0046 -0.4720
  495MOL0     O66720   9.453   3.008  13.220 -0.8362  0.1001  0.0873
  495MOL0     C66721   9.368   2.940  13.302  0.0057 -0.6761 -0.3923
  495MOL0     C66722   9.343   2.810  13.286  0.2704 -0.7276  0.7805
  495MOL0     C66723   9.263   2.740  13.378  0.6713  0.4141  0.0181
  495MOL0     C66724   9.214   2.803  13.493 -0.1747 -0.0712  0.0618
  495MOL0     O66725   9.138   2.741  13.591  0.0868  0.0094  0.8904
  495MOL0     C66726   9.092   2.604  13.593  0.2451 -0.7479  0.2625
  495MOL0     C66727   8.960   2.591  13.677  1.6161  0.8113  0.9014
  495MOL0     C66728   8.853   2.484  13.644 -0.3082 -1.2895 -0.9632
  495MOL0     C66729   8.729   2.517  13.740  0.7758 -0.4711  0.2654
  495MOL0     C66730   8.622   2.408  13.708 -0.4149 -0.8348  0.9146
  495MOL0     C66731   8.556   2.419  13.563 -0.2556 -0.3133  0.0145
  495MOL0     C66732   8.454   2.542  13.551  0.3573  0.4302  0.6053
  495MOL0     C66733   8.323   2.529  13.625  0.2372  0.7110  0.2098
  495MOL0    Cl66734   8.211   2.419  13.531 -0.0261  0.6342 -0.3732
  495MOL0     C66735   9.239   2.935  13.507 -0.8436 -0.0397  0.8189
  495MOL0     C66736   9.324   3.000  13.415 -0.1970 -0.0985 -0.2941
  495MOL0     O66737   9.267   3.107  13.128  0.3361  0.2364 -0.2921
  495MOL0     C66738   9.378   3.138  12.878  0.2030 -0.7529 -0.5077
  495MOL0     C66739   9.448   3.139  12.757 -0.7012  0.2209 -0.2338
  495MOL0     N66740   9.519   3.447  12.143 -1.1011 -0.2786 -0.6585
  495MOL0     N66741   9.591   3.464  12.042  0.9411  0.8140  0.6173
  495MOL0     C66742   9.722   2.907  11.184 -1.1908  0.6085 -0.4497
  495MOL0     C66743   9.672   2.897  11.051  0.1306 -0.8255  0.2561
  495MOL0     C66744   9.456   3.038  10.649  1.2638 -0.1501 -0.8014
  495MOL0     C66745   9.448   3.141  10.558  0.3104 -1.1345 -0.0687
  495MOL0     C66746   9.405   3.124  10.425  0.4835 -0.0029 -1.2374
  495MOL0     C66747   9.343   3.008  10.384  0.3026  0.7345  0.9501
  495MOL0     O66748   9.296   3.021  10.255 -0.4395 -0.3341  0.3383
  495MOL0     C66749   9.210   2.924  10.192  0.0926  0.3679  0.4798
  495MOL0     C66750   9.075   2.957  10.245 -0.9268  0.4199  0.2774
  495MOL0     C66751   8.962   2.858  10.204  0.5169 -0.0841 -0.6329
  495MOL0     C66752   8.933   2.727  10.285  0.9956  0.4755 -0.2109
  495MOL0     C66753   9.033   2.628  10.253  0.2758  0.5393 -0.4932
  495MOL0     C66754   9.098   2.527  10.238 -1.0519 -0.3784 -0.5995
  495MOL0     C66755   9.341   2.901  10.474  1.2774 -1.2324  0.4933
  495MOL0     C66756   9.405   2.910  10.603  1.3465 -0.0685  0.1432
  495MOL0     C66757   9.421   2.781  10.686  0.5494 -0.0325  0.3008
  495MOL0     H66758   9.417   3.109  11.083 -0.0108  1.5232  2.4230
  495MOL0     H66759   9.512   3.148  11.293  3.0319  0.2357  1.4513
  495MOL0     H66760   9.715   2.772  11.461 -0.8265  0.0973  0.4664
  495MOL0     H66761   9.857   2.856  11.413  1.1988  0.4282  0.2542
  495MOL0     H66762   9.896   2.826  11.625 -0.8476  0.7706  2.6179
  495MOL0     H66763   9.728   2.885  11.677  0.0526 -2.1807 -0.0338
  495MOL0     H66764   9.880   3.086  11.522  0.5069  0.8610 -0.1683
  495MOL0     H66765   9.982   3.040  11.646  1.0275  0.5248 -1.4789
  495MOL0     H66766   9.679   3.124  11.664 -0.6582  5.8552 -0.2302
  495MOL0     H66767   9.791   3.096  11.811  2.5930  0.7234 -0.3475
  495MOL0     H66768   9.929   3.281  11.676 -0.4184  2.1204  0.0756
  495MOL0     H66769   9.765   3.340  11.643  2.5680  1.5837 -1.7365
  495MOL0     H66770   9.719   3.306  11.905 -0.4409 -0.2855 -1.3904
  495MOL0     H66771   9.901   3.272  11.907  3.1037  1.2530 -2.6340
  495MOL0     H66772   9.795   3.527  11.774 -1.6744 -1.5198 -0.3609
  495MOL0     H66773   9.944   3.496  11.843  0.0303 -2.5248 -1.1453
  495MOL0     H66774   9.900   3.558  12.061 -1.4938  1.1544  0.2150
  495MOL0     H66775   9.792   3.659  11.993 -1.4448 -0.6169 -0.4369
  495MOL0     H66776   9.825   3.486  12.266 -0.2856 -2.0895 -0.6282
  495MOL0     H66777   9.571   3.540  12.441 -0.2859  0.1375  0.2842
  495MOL0     H66778   9.444   3.427  12.399  0.3670 -0.8586  3.0084
  495MOL0     H66779   9.721   3.333  12.460 -0.7436 -2.3436 -0.4602
  495MOL0     H66780   9.589   3.349  12.585 -1.1675  0.4612  0.6415
  495MOL0     H66781   9.601   3.192  12.323 -2.0139 -0.2590 -0.8593
  495MOL0     H66782   9.451   3.212  12.401  0.2326  1.4506  0.0982
  495MOL0     H66783   9.662   3.015  12.440  0.6112 -0.4045  1.1573
  495MOL0     H66784   9.509   3.014  12.518  0.5655  0.2347 -0.1805
  495MOL0     H66785   9.768   3.080  12.865 -0.2407  2.2990 -0.2983
  495MOL0     H66786   9.657   3.055  13.070 -1.9499  0.4672  0.6885
  495MOL0     H66787   9.391   2.770  13.197 -0.0493  0.2182  0.1752
  495MOL0     H66788   9.256   2.633  13.358  0.2655  0.5699 -0.7013
  495MOL0     H66789   9.080   2.559  13.494  0.4623 -2.7606  1.1022
  495MOL0     H66790   9.169   2.543  13.643  1.3757  0.3836 -0.0534
  495MOL0     H66791   8.986   2.572  13.781 -3.3330 -2.0803  1.9111
  495MOL0     H66792   8.912   2.688  13.659  0.9563  0.3182 -0.0758
  495MOL0     H66793   8.833   2.492  13.537  1.4924  1.4329 -1.1971
  495MOL0     H66794   8.887   2.382  13.663 -2.0400 -1.8993 -0.9773
  495MOL0     H66795   8.684   2.616  13.729 -0.4729 -0.9632  0.6570
  495MOL0     H66796   8.756   2.507  13.846 -2.3257  0.9237  1.3188
  495MOL0     H66797   8.543   2.408  13.783 -1.9327 -1.8750 -0.5945
  495MOL0     H66798   8.672   2.310  13.702  1.4335  0.1458 -1.6699
  495MOL0     H66799   8.630   2.425  13.483 -2.5407  1.0541 -2.1196
  495MOL0     H66800   8.514   2.321  13.543  2.5681 -1.4301 -0.9380
  495MOL0     H66801   8.440   2.548  13.442  2.3332 -0.2889  0.2644
  495MOL0     H66802   8.504   2.635  13.579  1.9402 -0.1303 -0.1637
  495MOL0     H66803   8.341   2.486  13.724 -1.0140  0.4089  0.3350
  495MOL0     H66804   8.271   2.625  13.637 -1.2959  0.0608 -0.7833
  495MOL0     H66805   9.205   3.002  13.585 -1.6277  0.0972  0.3630
  495MOL0     H66806   9.335   3.105  13.440 -0.0897 -0.7377  2.7491
  495MOL0     H66807   9.270   3.149  12.879  0.1451 -1.2484 -0.8999
  495MOL0     H66808   9.396   3.152  12.662  1.7291 -0.5729 -1.7399
  495MOL0     H66809   9.812   2.849  11.203 -0.3004  2.3553  0.9198
  495MOL0     H66810   9.726   2.848  10.970  0.5681  1.1149 -0.6789
  495MOL0     H66811   9.482   3.239  10.590  3.5585 -1.7457 -1.1839
  495MOL0     H66812   9.431   3.204  10.356 -0.7195  1.5345  0.0161
  495MOL0     H66813   9.247   2.823  10.210 -2.2463 -0.7776 -0.5780
  495MOL0     H66814   9.207   2.953  10.087 -0.2740  2.5034  1.0385
  495MOL0     H66815   9.055   3.059  10.210  0.7196  0.8845  0.6283
  495MOL0     H66816   9.078   2.951  10.354  0.9904 -2.9730  0.1577
  495MOL0     H66817   8.972   2.830  10.099 -0.4269 -0.5418 -0.6112
  495MOL0     H66818   8.865   2.907  10.220 -1.0394 -2.8867 -0.8590
  495MOL0     H66819   8.944   2.758  10.390 -1.5724  0.0935  0.2433
  495MOL0     H66820   8.838   2.683  10.253  1.6514  0.1474 -1.7806
  495MOL0     H66821   9.157   2.438  10.230 -0.6288 -0.4041  1.8069
  495MOL0     H66822   9.298   2.809  10.435  1.3990 -0.7133 -0.9290
  495MOL0     H66823   9.348   2.790  10.767 -0.1080 -0.8169 -0.1804
  495MOL0     H66824   9.399   2.698  10.618 -0.9107  1.9617 -1.8190
  495MOL0     H66825   9.521   2.786  10.728 -0.0417  0.6283  1.6841
  496MOL0     O66826   0.068   6.774   9.650  0.1921 -0.0572  0.4166
  496MOL0     C66827   0.157   6.721   9.589 -0.1796 -0.2821  0.6621
  496MOL0     O66828   0.155   6.608   9.514  0.2744 -0.1112  0.3667
  496MOL0     C66829   0.064   6.517   9.558  0.5600 -0.0783  0.0337
  496MOL0     C66830  -0.068   6.539   9.539 -0.6692 -0.5935  0.1725
  496MOL0     C66831  -0.156   6.440   9.592 -0.3606 -0.4009  0.4834
  496MOL0     C66832  -0.110   6.324   9.668  0.1525 -0.4403 -0.1312
  496MOL0     O66833  -0.186   6.230   9.733 -0.1997 -0.1655  1.1771
  496MOL0     C66834  -0.323   6.227   9.691  0.0658 -0.5244 -0.1707
  496MOL0     C66835  -0.393   6.124   9.786 -0.2900 -0.4605  0.3342
  496MOL0     C66836  -0.538   6.098   9.763  0.2916  0.4932  0.3884
  496MOL0     C66837  -0.602   6.052   9.901 -0.9350  0.0257 -0.3315
  496MOL0     C66838  -0.651   6.167   9.986 -0.3023  0.0684 -0.3116
  496MOL0     C66839  -0.797   6.148  10.031  0.8280  0.3995  0.1020
  496MOL0     C66840  -0.848   6.274  10.115 -0.6816 -0.0928  0.3709
  496MOL0     C66841  -0.860   6.398  10.018  0.7880  0.5266 -0.0174
  496MOL0     N66842  -0.926   6.505  10.093 -0.3155 -0.9136  0.1736
  496MOL0     C66843  -1.063   6.533  10.065 -0.4421  0.2437 -0.0572
  496MOL0     C66844  -1.085   6.645  10.139  0.4031 -0.4947  0.3519
  496MOL0     C66845  -1.207   6.723  10.163  0.5130 -0.3003 -0.2373
  496MOL0     C66846  -1.281   6.768  10.042  0.2157 -0.5962 -0.7139
  496MOL0     C66847  -1.402   6.857  10.079  0.6771 -0.0936  0.0915
  496MOL0     C66848  -1.468   6.912   9.949 -0.7717  0.0128  0.1134
  496MOL0     O66849  -1.522   6.822   9.865  0.4497 -0.0339 -0.1419
  496MOL0     C66850  -1.659   6.825   9.850  0.8079  1.3717  0.1857
  496MOL0     C66851  -1.742   6.723   9.905 -0.0068  0.1205  0.6575
  496MOL0     C66852  -1.878   6.721   9.896 -0.0425  0.0123  0.3899
  496MOL0     C66853  -1.939   6.832   9.820  0.7551  0.2148  0.0988
  496MOL0     C66854  -2.090   6.835   9.809  0.4594 -1.0704 -0.2087
  496MOL0     O66855  -2.141   6.916   9.711 -0.0830 -0.2584 -0.5578
  496MOL0     C66856  -2.267   6.889   9.665 -0.2535 -0.4767  0.0712
  496MOL0     C66857  -2.303   6.783   9.583 -0.0794  0.1975 -0.1926
  496MOL0     C66858  -2.424   6.776   9.519  0.5918  0.0527  0.4451
  496MOL0     C66859  -2.523   6.858   9.559  0.3198 -0.7060  0.8977
  496MOL0     O66860  -2.655   6.822   9.529  0.1086 -0.9384 -0.7512
  496MOL0     C66861  -2.760   6.860   9.620  0.1252  0.7191  0.4496
  496MOL0     C66862  -2.859   6.747   9.628 -0.3521  1.1363 -0.4894
  496MOL0     C66863  -2.781   6.623   9.684 -0.5539  0.6592 -0.6716
  496MOL0     C66864  -2.875   6.503   9.667  0.2990 -0.4953 -0.4509
  496MOL0     C66865  -2.841   6.383   9.761  0.2812 -0.9185 -1.1213
  496MOL0     C66866  -2.709   6.317   9.717 -0.0170  0.0363  0.2398
  496MOL0     C66867  -2.703   6.255   9.576  0.7808 -0.1126 -0.4866
  496MOL0     C66868  -2.571   6.196   9.548 -0.2753  0.9683  0.2274
  496MOL0    Cl66869  -2.434   6.317   9.560  0.1084 -0.3002  0.1372
  496MOL0     C66870  -2.492   6.969   9.638 -0.3350 -0.8930  0.6923
  496MOL0     C66871  -2.364   6.991   9.690 -0.1834 -0.2239  0.4064
  496MOL0     O66872  -2.154   6.756   9.876 -0.0874 -0.4167  0.0443
  496MOL0     C66873  -1.859   6.923   9.753 -0.1443  0.0679  0.2780
  496MOL0     C66874  -1.723   6.918   9.769 -0.5050 -1.0688  0.0465
  496MOL0     N66875  -0.966   6.681  10.200 -0.0723  0.2229 -0.7485
  496MOL0     N66876  -0.872   6.598  10.169  0.0216  0.0074  0.1310
  496MOL0     C66877   0.025   6.307   9.681  0.6495  0.4414 -0.1415
  496MOL0     C66878   0.113   6.403   9.628  0.0876  0.6483  0.3917
  496MOL0     C66879   0.286   6.787   9.601  0.3382  0.0466 -0.4023
  496MOL0     C66880   0.403   6.714   9.580 -0.4613  1.7174 -0.2831
  496MOL0     C66881   0.527   6.769   9.561  0.0889 -0.1303  0.3457
  496MOL0     C66882   0.550   6.901   9.575  0.1174 -0.5050 -0.4334
  496MOL0     O66883   0.674   6.968   9.565 -0.5385 -0.3531 -0.0239
  496MOL0     C66884   0.778   6.899   9.506  0.3911 -0.0507  0.4414
  496MOL0     C66885   0.902   6.985   9.515  0.0703  0.4888 -0.4693
  496MOL0     C66886   0.901   7.121   9.461  0.4627  0.5392 -0.4719
  496MOL0     C66887   1.021   7.198   9.518 -0.3636  0.1023 -0.1079
  496MOL0     C66888   1.034   7.218   9.665 -0.3102  0.6017  0.5214
  496MOL0     C66889   1.036   7.236   9.783  0.6309  0.4831  0.4928
  496MOL0     C66890   0.439   6.977   9.614  0.1183  0.3169 -0.3374
  496MOL0     C66891   0.313   6.919   9.630  0.8509 -1.0974  0.1911
  496MOL0     C66892   0.210   7.024   9.676  1.3459 -0.2620 -0.0786
  496MOL0     H66893  -0.104   6.623   9.481 -1.2224 -1.3115 -0.5613
  496MOL0     H66894  -0.261   6.457   9.572 -0.0864  0.5428 -0.2393
  496MOL0     H66895  -0.361   6.328   9.713 -0.2490 -0.4862 -0.8443
  496MOL0     H66896  -0.340   6.210   9.584 -0.0954  5.1523 -1.3858
  496MOL0     H66897  -0.383   6.158   9.890 -1.6260 -0.1695  0.3923
  496MOL0     H66898  -0.340   6.029   9.779  1.3179  0.1526  2.7526
  496MOL0     H66899  -0.540   6.017   9.689  0.1656 -0.0905  1.0199
  496MOL0     H66900  -0.585   6.192   9.734  0.5857  1.2410  2.1994
  496MOL0     H66901  -0.688   5.990   9.876 -1.6379  1.8309 -2.8248
  496MOL0     H66902  -0.528   5.992   9.955 -2.7431 -0.9866  1.1621
  496MOL0     H66903  -0.588   6.171  10.076  1.3307 -0.7405 -1.3769
  496MOL0     H66904  -0.637   6.263   9.937 -1.7820  1.2133  1.3623
  496MOL0     H66905  -0.865   6.135   9.946 -1.8084  2.2726  1.7636
  496MOL0     H66906  -0.798   6.059  10.094  0.8126  0.5560  0.3261
  496MOL0     H66907  -0.786   6.302  10.201 -0.5678 -0.3643  0.3788
  496MOL0     H66908  -0.944   6.243  10.158  0.3864 -2.7727  1.0666
  496MOL0     H66909  -0.765   6.427   9.975  2.3080 -0.1608  2.6331
  496MOL0     H66910  -0.916   6.364   9.930 -1.8415 -2.7764  2.5871
  496MOL0     H66911  -1.134   6.488   9.998 -0.6559  2.1926 -1.2327
  496MOL0     H66912  -1.266   6.664  10.233  2.1316 -0.9050  0.6820
  496MOL0     H66913  -1.165   6.818  10.199  1.6924 -0.2228 -1.7032
  496MOL0     H66914  -1.210   6.823   9.979 -0.3109  2.8457  1.4574
  496MOL0     H66915  -1.326   6.684   9.989 -0.0320 -0.2126 -1.1264
  496MOL0     H66916  -1.368   6.935  10.147  1.3479  0.0076 -0.3455
  496MOL0     H66917  -1.478   6.792  10.124  0.2529  1.3085  1.4812
  496MOL0     H66918  -1.392   6.974   9.900 -0.1247 -1.3924 -0.7163
  496MOL0     H66919  -1.536   6.997   9.958 -0.5398  0.5917 -2.6162
  496MOL0     H66920  -1.685   6.641   9.947 -1.1730 -0.2850  1.4963
  496MOL0     H66921  -1.938   6.643   9.941 -1.0052 -0.0619 -0.9528
  496MOL0     H66922  -2.235   6.699   9.579  1.7223  1.6277 -1.5365
  496MOL0     H66923  -2.448   6.688   9.459 -0.4724  1.1522 -0.8029
  496MOL0     H66924  -2.727   6.887   9.720 -0.0644 -2.6100  1.5345
  496MOL0     H66925  -2.821   6.940   9.577 -1.5446 -0.6376  0.1991
  496MOL0     H66926  -2.932   6.775   9.704  0.4191  3.3974 -0.5324
  496MOL0     H66927  -2.908   6.722   9.533 -1.1750  0.6957  0.0312
  496MOL0     H66928  -2.690   6.597   9.630  0.6159  0.6048  1.2159
  496MOL0     H66929  -2.745   6.636   9.787  5.8761  1.6541 -2.6270
  496MOL0     H66930  -2.875   6.474   9.562  0.6350 -4.6637  0.5254
  496MOL0     H66931  -2.974   6.532   9.706  0.1116  1.2982 -2.1326
  496MOL0     H66932  -2.912   6.301   9.773 -0.9787  0.5229  2.3055
  496MOL0     H66933  -2.844   6.427   9.861 -2.4811  0.7486 -1.8405
  496MOL0     H66934  -2.624   6.384   9.729 -0.4632  1.0019 -1.6592
  496MOL0     H66935  -2.698   6.228   9.780 -0.5506 -0.1515  0.0720
  496MOL0     H66936  -2.728   6.331   9.501  2.8848 -0.3958 -1.5624
  496MOL0     H66937  -2.781   6.179   9.568 -0.5635  1.2387 -0.5382
  496MOL0     H66938  -2.553   6.104   9.603  3.3531 -1.4258 -4.2316
  496MOL0     H66939  -2.574   6.161   9.444 -1.5039 -0.3850  0.6987
  496MOL0     H66940  -2.556   7.053   9.664 -0.9029 -0.5438 -1.6399
  496MOL0     H66941  -2.323   7.066   9.757  1.0434  0.2675 -0.8542
  496MOL0     H66942  -1.911   6.992   9.688 -1.1714 -2.1542 -1.4047
  496MOL0     H66943  -1.658   6.992   9.722  0.2038 -1.3606  0.5630
  496MOL0     H66944   0.068   6.231   9.745  1.6321  0.9180 -0.2194
  496MOL0     H66945   0.219   6.394   9.651  0.6901  0.3516 -2.1978
  496MOL0     H66946   0.401   6.607   9.561  2.4334  1.5183  0.0835
  496MOL0     H66947   0.605   6.697   9.539  1.8857  0.9989  2.6164
  496MOL0     H66948   0.742   6.874   9.406  1.5020 -0.5434  0.1531
  496MOL0     H66949   0.785   6.793   9.535 -1.1511 -0.6696 -1.2977
  496MOL0     H66950   0.984   6.931   9.468  2.6527  2.3024  1.6440
  496MOL0     H66951   0.928   6.992   9.621 -1.7414  0.5671  0.0027
  496MOL0     H66952   0.808   7.178   9.469  0.5764  0.6869 -0.2010
  496MOL0     H66953   0.918   7.121   9.353 -1.8141  2.1711 -0.9301
  496MOL0     H66954   1.102   7.146   9.467  0.7448  1.2093  0.4663
  496MOL0     H66955   1.013   7.296   9.472  0.4200 -0.7311 -2.1288
  496MOL0     H66956   1.007   7.247   9.886 -0.2844 -1.9622  0.5470
  496MOL0     H66957   0.442   7.080   9.649 -0.7052  0.8127 -1.6621
  496MOL0     H66958   0.114   7.017   9.624  1.4152 -2.5250 -0.0032
  496MOL0     H66959   0.176   6.994   9.775 -2.4515 -2.1407 -1.7453
  496MOL0     H66960   0.246   7.126   9.687  1.1856 -0.2090 -0.0451
  497MOL0     O66961   6.621   3.111   3.025 -0.1675  0.4702  0.0940
  497MOL0     C66962   6.726   3.042   3.031 -0.5492  0.2641  0.6021
  497MOL0     O66963   6.824   3.067   3.119 -0.1067 -0.4212  0.4991
  497MOL0     C66964   6.783   3.154   3.217 -0.2558 -0.0138  0.2169
  497MOL0     C66965   6.779   3.110   3.353 -0.1833 -0.3184  0.8147
  497MOL0     C66966   6.743   3.196   3.449 -0.4703 -0.5989 -0.7456
  497MOL0     C66967   6.707   3.325   3.425  0.3246 -0.5678 -0.7313
  497MOL0     O66968   6.683   3.425   3.513 -0.0933 -0.3893 -0.0318
  497MOL0     C66969   6.726   3.402   3.648 -0.8286  0.0903 -0.2464
  497MOL0     C66970   6.708   3.526   3.729 -0.4625 -0.4145 -1.0888
  497MOL0     C66971   6.777   3.514   3.861 -0.3870 -0.5920 -0.9661
  497MOL0     C66972   6.755   3.635   3.944  0.1365 -1.2008  0.1053
  497MOL0     C66973   6.842   3.635   4.072  0.3921  1.2985  0.9796
  497MOL0     C66974   6.837   3.771   4.142 -0.2192 -0.0961  0.4880
  497MOL0     C66975   6.727   3.779   4.245 -0.5125 -0.0351  0.5930
  497MOL0     C66976   6.774   3.761   4.388  0.8531  0.1348  0.2007
  497MOL0     N66977   6.887   3.853   4.417  0.0228 -0.0109 -0.2284
  497MOL0     C66978   6.905   3.988   4.383 -0.5202  0.8560 -0.1617
  497MOL0     C66979   7.027   4.023   4.429  0.2599  1.1203  0.0453
  497MOL0     C66980   7.098   4.150   4.419 -0.3574 -1.3128 -0.1185
  497MOL0     C66981   7.005   4.271   4.425 -0.5893  0.5681 -0.1194
  497MOL0     C66982   7.085   4.399   4.431 -0.9405  0.9006 -0.2791
  497MOL0     C66983   7.167   4.426   4.302 -0.3234 -0.1135 -0.0437
  497MOL0     O66984   7.081   4.430   4.187 -0.1500  1.0616 -0.4624
  497MOL0     C66985   7.068   4.316   4.115  0.1345  0.9175  0.0115
  497MOL0     C66986   6.944   4.274   4.062  0.7687 -0.0378  0.0727
  497MOL0     C66987   6.918   4.175   3.960  0.3433  0.5491  1.2056
  497MOL0     C66988   7.026   4.092   3.920  0.3057 -0.8671  0.2852
  497MOL0     C66989   6.996   3.981   3.829 -0.0687 -0.1799  0.4802
  497MOL0     O66990   7.094   3.896   3.825  0.2410 -0.7289  0.2756
  497MOL0     C66991   7.107   3.794   3.733  0.2054  0.4670 -0.3075
  497MOL0     C66992   7.196   3.692   3.768 -0.0351  0.4817 -0.1986
  497MOL0     C66993   7.230   3.590   3.678 -0.4705 -0.1442 -0.5273
  497MOL0     C66994   7.176   3.580   3.561 -0.4157  0.3665  0.4295
  497MOL0     O66995   7.203   3.461   3.496 -0.4841 -0.2865 -0.1294
  497MOL0     C66996   7.138   3.442   3.363 -0.4587  0.0893  0.4363
  497MOL0     C66997   7.206   3.317   3.296 -0.4239 -0.0470 -0.9947
  497MOL0     C66998   7.168   3.188   3.357  0.1628  0.4182  0.4952
  497MOL0     C66999   7.263   3.146   3.468  0.2181 -0.8142 -0.0198
  497MOL0     C67000   7.244   2.995   3.505 -0.0650  0.5924 -0.6354
  497MOL0     C67001   7.325   2.946   3.633  0.2993  0.5171 -0.1613
  497MOL0     C67002   7.286   2.808   3.680  0.0830 -0.6515 -0.4634
  497MOL0     C67003   7.366   2.743   3.795 -0.2524  0.2517  0.0257
  497MOL0    Cl67004   7.533   2.705   3.742  0.4684  0.6194  0.3881
  497MOL0     C67005   7.085   3.684   3.517 -1.2343 -0.4430  0.5254
  497MOL0     C67006   7.056   3.788   3.606  0.0342 -0.4627  0.0594
  497MOL0     O67007   6.899   3.977   3.755  0.2445 -0.3982  0.0103
  497MOL0     C67008   7.155   4.124   3.977  0.2192  0.0331  0.0681
  497MOL0     C67009   7.169   4.233   4.062  0.0111 -0.1329 -1.7057
  497MOL0     N67010   7.073   3.911   4.505  0.3248  0.7920  0.5606
  497MOL0     N67011   6.993   3.809   4.492  0.4071 -0.5832 -0.1779
  497MOL0     C67012   6.719   3.373   3.292 -0.6386  0.4533  0.1552
  497MOL0     C67013   6.771   3.290   3.194  0.5553  0.6364  0.4458
  497MOL0     C67014   6.762   2.964   2.916  0.9808  0.2352  0.1427
  497MOL0     C67015   6.898   2.938   2.883 -0.1074  0.5623  0.1559
  497MOL0     C67016   6.936   2.861   2.776  0.3946 -0.1545  0.0586
  497MOL0     C67017   6.856   2.793   2.697  0.1588  0.5131 -0.2032
  497MOL0     O67018   6.918   2.718   2.600  0.2744 -0.2789  0.5801
  497MOL0     C67019   6.829   2.624   2.528  0.5910 -1.2303 -0.5412
  497MOL0     C67020   6.908   2.530   2.433  0.2829 -0.1232 -1.0603
  497MOL0     C67021   6.930   2.604   2.304 -0.2669 -0.3832 -0.4449
  497MOL0     C67022   7.054   2.546   2.236 -0.2338  0.6372 -0.3944
  497MOL0     C67023   7.145   2.654   2.196 -0.1412  0.8022 -0.2641
  497MOL0     C67024   7.232   2.742   2.181  0.9547  0.0850 -0.2263
  497MOL0     C67025   6.720   2.813   2.714  0.2780 -0.0770  0.1826
  497MOL0     C67026   6.670   2.896   2.823 -0.0077 -0.3483 -0.2277
  497MOL0     C67027   6.524   2.920   2.835 -0.5388 -0.2776 -0.1144
  497MOL0     H67028   6.793   3.005   3.378 -1.6117 -0.6600  0.2970
  497MOL0     H67029   6.750   3.162   3.552 -0.7496 -1.1570 -0.9055
  497MOL0     H67030   6.675   3.321   3.700  1.2870  0.2360  2.2269
  497MOL0     H67031   6.829   3.365   3.642 -2.3441 -4.5491 -3.1111
  497MOL0     H67032   6.602   3.550   3.738 -0.2249 -0.1095  1.9702
  497MOL0     H67033   6.764   3.600   3.671  1.3740 -3.3022 -3.3287
  497MOL0     H67034   6.885   3.519   3.846 -0.1693  2.5396  0.7560
  497MOL0     H67035   6.738   3.423   3.907 -1.0680  0.4029  0.5330
  497MOL0     H67036   6.783   3.715   3.875 -1.8602 -2.6637 -2.6202
  497MOL0     H67037   6.649   3.643   3.969  0.6884  0.3196  2.1880
  497MOL0     H67038   6.814   3.551   4.136  1.6882  0.4012  0.4205
  497MOL0     H67039   6.947   3.621   4.044 -0.3207 -0.6401 -1.0978
  497MOL0     H67040   6.933   3.792   4.190  1.1155 -1.3680 -1.4751
  497MOL0     H67041   6.831   3.842   4.060 -1.5730 -1.4788 -0.6596
  497MOL0     H67042   6.649   3.709   4.212  1.1838 -0.2903 -3.5800
  497MOL0     H67043   6.692   3.881   4.232  5.1144  2.0949 -0.8255
  497MOL0     H67044   6.694   3.794   4.455  1.3007  3.9271 -0.8803
  497MOL0     H67045   6.794   3.657   4.415 -0.7391 -0.5621 -1.1247
  497MOL0     H67046   6.841   4.058   4.330 -1.0868 -1.4227 -2.7262
  497MOL0     H67047   7.171   4.166   4.499  0.3372 -3.6108 -0.2081
  497MOL0     H67048   7.158   4.150   4.328 -0.5094 -1.8071 -0.2226
  497MOL0     H67049   6.951   4.280   4.330 -0.4400 -1.5823 -0.4733
  497MOL0     H67050   6.934   4.254   4.507 -1.4015  0.8749 -0.7453
  497MOL0     H67051   7.158   4.388   4.512 -2.0035 -2.8964  0.3342
  497MOL0     H67052   7.013   4.479   4.450 -2.8933 -1.1035  1.2629
  497MOL0     H67053   7.249   4.355   4.284  0.0848  1.1082 -4.0411
  497MOL0     H67054   7.222   4.520   4.308 -0.7277  0.1619 -0.5722
  497MOL0     H67055   6.859   4.334   4.093  1.6652  4.2007 -4.4581
  497MOL0     H67056   6.823   4.180   3.908  1.9145  2.5019 -1.7955
  497MOL0     H67057   7.233   3.685   3.870 -1.1289 -0.3214  0.1625
  497MOL0     H67058   7.282   3.505   3.721  0.3333  1.0382  0.9539
  497MOL0     H67059   7.033   3.416   3.382 -0.4502 -0.6646 -0.5373
  497MOL0     H67060   7.168   3.528   3.303 -0.6040 -1.0583 -1.3249
  497MOL0     H67061   7.180   3.309   3.191  0.7223 -0.8618 -1.2412
  497MOL0     H67062   7.312   3.339   3.312 -0.6889 -0.5297  2.0275
  497MOL0     H67063   7.061   3.184   3.381 -0.0111 -0.4460 -0.3680
  497MOL0     H67064   7.174   3.109   3.282 -2.5625  0.6939 -0.1309
  497MOL0     H67065   7.236   3.211   3.552 -0.4594  1.8114 -2.1396
  497MOL0     H67066   7.365   3.177   3.444 -1.1285  0.5639 -5.3653
  497MOL0     H67067   7.281   2.945   3.414  1.9089  1.9704 -0.6362
  497MOL0     H67068   7.140   2.976   3.534 -0.4566  4.0197  0.6082
  497MOL0     H67069   7.433   2.949   3.614  0.3954  1.1997  0.4539
  497MOL0     H67070   7.305   3.020   3.710  3.1027 -2.0145  3.3679
  497MOL0     H67071   7.273   2.741   3.595 -2.1398 -0.3586 -0.4143
  497MOL0     H67072   7.182   2.817   3.711 -0.7372  3.8047 -3.6041
  497MOL0     H67073   7.377   2.807   3.884  0.8975 -0.6790  0.5849
  497MOL0     H67074   7.323   2.650   3.832  1.5873 -0.6554  0.0248
  497MOL0     H67075   7.035   3.676   3.421  0.2655  1.2048 -0.4463
  497MOL0     H67076   6.982   3.857   3.566 -2.2014 -0.3492  3.8772
  497MOL0     H67077   7.245   4.067   3.956  2.5046  2.9619  1.2466
  497MOL0     H67078   7.269   4.263   4.091 -1.3049  2.0179  1.0252
  497MOL0     H67079   6.683   3.469   3.256  1.6782  0.9963 -0.9186
  497MOL0     H67080   6.776   3.334   3.095 -2.8769 -0.3257 -0.2912
  497MOL0     H67081   6.974   2.979   2.948 -0.2703 -0.9817  1.3879
  497MOL0     H67082   7.043   2.858   2.760  0.7808  2.7497  1.3546
  497MOL0     H67083   6.751   2.683   2.480  2.0285 -0.1312 -1.6466
  497MOL0     H67084   6.779   2.571   2.609 -0.1698 -0.5404 -0.5406
  497MOL0     H67085   6.845   2.440   2.429 -0.8119  0.3654  1.9855
  497MOL0     H67086   7.004   2.503   2.477  0.5865  0.3625 -1.4246
  497MOL0     H67087   6.953   2.708   2.328 -0.3882  0.1579 -2.4650
  497MOL0     H67088   6.847   2.618   2.233 -2.0261 -2.8623  0.9962
  497MOL0     H67089   7.112   2.481   2.302 -2.5588 -0.5949  0.5917
  497MOL0     H67090   7.016   2.486   2.153 -0.8693  2.1346 -1.2341
  497MOL0     H67091   7.296   2.827   2.167  0.0282  0.3986 -3.0071
  497MOL0     H67092   6.648   2.773   2.643 -4.5925  1.7199  3.5699
  497MOL0     H67093   6.499   2.912   2.941  0.7208  0.6383  0.2644
  497MOL0     H67094   6.508   3.021   2.796  1.1071 -0.7392 -2.1833
  497MOL0     H67095   6.466   2.843   2.783  2.0593 -1.9527 -0.7143
  498MOL0     O67096   4.472   1.783   5.976  0.2186 -0.1014  0.0826
  498MOL0     C67097   4.455   1.675   5.916 -0.1249 -0.3277 -1.0438
  498MOL0     O67098   4.388   1.567   5.965 -0.0675  0.3851 -0.3108
  498MOL0     C67099   4.359   1.557   6.095  2.0393 -0.2593  0.0596
  498MOL0     C67100   4.463   1.566   6.185 -0.4861  0.5638 -0.2385
  498MOL0     C67101   4.436   1.524   6.313  0.3117  0.6414 -0.2731
  498MOL0     C67102   4.295   1.485   6.346 -0.2602 -0.0037 -0.1724
  498MOL0     O67103   4.253   1.462   6.481 -0.3145 -0.2263  0.3386
  498MOL0     C67104   4.339   1.414   6.581 -0.6999  0.1472  0.2801
  498MOL0     C67105   4.259   1.384   6.712  0.2114 -0.5645  0.2738
  498MOL0     C67106   4.160   1.273   6.688 -0.0288  1.0999  0.4182
  498MOL0     C67107   4.249   1.144   6.678  0.6381 -1.2883  0.5662
  498MOL0     C67108   4.160   1.026   6.647 -0.2425  0.4047  0.3867
  498MOL0     C67109   4.237   0.921   6.563 -1.0478 -0.7247 -0.2347
  498MOL0     C67110   4.145   0.809   6.531 -0.5498  0.1667  0.2697
  498MOL0     C67111   4.202   0.724   6.412 -0.1132 -0.1931 -0.5311
  498MOL0     N67112   4.117   0.611   6.382 -0.8404  0.1072  1.0940
  498MOL0     C67113   4.084   0.584   6.252 -0.0738 -0.7825 -0.0368
  498MOL0     C67114   4.030   0.458   6.252 -0.1868 -0.2545 -0.3467
  498MOL0     C67115   3.981   0.401   6.129  1.0150  0.0363  0.0916
  498MOL0     C67116   3.826   0.403   6.126  0.2476  0.2393  0.2223
  498MOL0     C67117   3.767   0.374   5.985  0.6415 -0.4170  0.4448
  498MOL0     C67118   3.830   0.255   5.920 -0.2388 -0.1626  0.2409
  498MOL0     O67119   3.767   0.254   5.789  0.4331 -0.0908 -0.0126
  498MOL0     C67120   3.795   0.145   5.713 -0.9138  0.3235 -0.3740
  498MOL0     C67121   3.912   0.062   5.716  0.0268 -0.7698  0.5018
  498MOL0     C67122   3.915  -0.058   5.649 -0.3806 -0.1637  0.4748
  498MOL0     C67123   3.803  -0.105   5.569 -0.0568 -0.6404 -0.6692
  498MOL0     C67124   3.814  -0.225   5.488 -0.1212 -0.1905  0.4902
  498MOL0     O67125   3.701  -0.264   5.414  0.3637 -0.2069  0.1261
  498MOL0     C67126   3.722  -0.382   5.348 -0.1918 -0.0279 -0.4018
  498MOL0     C67127   3.789  -0.392   5.226  0.3967  0.4294  0.3737
  498MOL0     C67128   3.796  -0.518   5.156  0.0538  0.7929 -0.0481
  498MOL0     C67129   3.751  -0.635   5.212 -0.7010  0.4034 -0.4802
  498MOL0     O67130   3.783  -0.755   5.156  0.2840 -0.2633  0.2487
  498MOL0     C67131   3.663  -0.834   5.148  0.0774 -1.1132 -0.3418
  498MOL0     C67132   3.703  -0.948   5.050 -1.2453  0.0039 -0.3036
  498MOL0     C67133   3.621  -1.065   5.089  0.0491 -0.2453  0.4129
  498MOL0     C67134   3.641  -1.182   4.986  0.1648 -1.0219  0.8117
  498MOL0     C67135   3.584  -1.310   5.054  0.1242  0.1082 -0.2972
  498MOL0     C67136   3.614  -1.436   4.968  0.4694 -0.4346  0.3482
  498MOL0     C67137   3.505  -1.476   4.863  0.5311 -1.2660 -0.3207
  498MOL0     C67138   3.549  -1.600   4.792  0.4020  0.6868 -0.2020
  498MOL0    Cl67139   3.605  -1.532   4.639 -0.3080 -0.1842  0.0591
  498MOL0     C67140   3.689  -0.626   5.335 -0.0942 -0.1455 -0.0410
  498MOL0     C67141   3.666  -0.500   5.398 -0.0682 -0.0733 -0.6068
  498MOL0     O67142   3.920  -0.284   5.495  0.0517  0.1388  0.8759
  498MOL0     C67143   3.688  -0.022   5.572  0.3513 -0.2717 -0.4806
  498MOL0     C67144   3.682   0.095   5.644  0.0467  0.0729 -0.5074
  498MOL0     N67145   4.031   0.407   6.382  0.2631  0.5387  0.7074
  498MOL0     N67146   4.089   0.501   6.450  0.4430  0.6669  0.3516
  498MOL0     C67147   4.198   1.481   6.252  0.0390  0.0053  0.0521
  498MOL0     C67148   4.232   1.506   6.119 -0.8651 -0.3232 -0.0542
  498MOL0     C67149   4.514   1.658   5.783 -0.4754  0.2886 -0.2192
  498MOL0     C67150   4.621   1.741   5.745  0.0159  0.6027  0.4830
  498MOL0     C67151   4.667   1.747   5.608  0.1266 -0.3689 -0.2451
  498MOL0     C67152   4.617   1.661   5.506  0.3785 -0.2754 -0.6251
  498MOL0     O67153   4.676   1.639   5.384  0.0021  0.9051  0.0925
  498MOL0     C67154   4.778   1.726   5.332 -0.3799 -0.8217  1.2046
  498MOL0     C67155   4.910   1.676   5.378 -1.3054  0.3962 -0.1957
  498MOL0     C67156   4.968   1.551   5.301 -0.2819 -0.8697  0.0858
  498MOL0     C67157   5.121   1.574   5.296 -0.2932 -0.7242 -0.1978
  498MOL0     C67158   5.189   1.468   5.221 -0.5202  0.4213 -1.6026
  498MOL0     C67159   5.257   1.385   5.159 -0.1537 -0.7736  0.2648
  498MOL0     C67160   4.502   1.587   5.545 -0.1396 -0.2175  1.0272
  498MOL0     C67161   4.449   1.583   5.676  0.1636  0.6220 -0.4667
  498MOL0     C67162   4.323   1.519   5.701  0.4242  0.2725  0.3916
  498MOL0     H67163   4.562   1.594   6.152  0.3892  1.2723  2.7165
  498MOL0     H67164   4.498   1.534   6.401 -0.6940 -0.3829  0.5833
  498MOL0     H67165   4.390   1.327   6.538 -3.0678 -1.3987  0.4316
  498MOL0     H67166   4.412   1.495   6.597 -1.0848  0.6057 -0.2578
  498MOL0     H67167   4.204   1.471   6.750 -2.2082 -1.5708 -0.7089
  498MOL0     H67168   4.318   1.350   6.797  2.7362 -1.4401 -1.6899
  498MOL0     H67169   4.095   1.290   6.602  1.6958  0.3487 -1.0997
  498MOL0     H67170   4.093   1.252   6.772 -1.9075  1.4300 -0.9385
  498MOL0     H67171   4.320   1.166   6.597  0.8295  0.9777  1.2775
  498MOL0     H67172   4.294   1.145   6.778 -0.1174  1.3307  0.9634
  498MOL0     H67173   4.127   0.992   6.745 -1.3801  1.8576  0.5358
  498MOL0     H67174   4.073   1.060   6.590  0.2155  0.9918  0.0184
  498MOL0     H67175   4.279   0.976   6.478  0.9216 -0.1891  1.0149
  498MOL0     H67176   4.327   0.892   6.618  0.1569 -0.3326 -1.9017
  498MOL0     H67177   4.052   0.843   6.486  1.4935 -1.1078 -5.9119
  498MOL0     H67178   4.136   0.745   6.619  1.9530  1.8843  1.9168
  498MOL0     H67179   4.212   0.791   6.325  0.2368  1.4933  0.7631
  498MOL0     H67180   4.299   0.687   6.446 -0.6807  0.6841  2.2494
  498MOL0     H67181   4.092   0.647   6.164  0.7660 -0.0530  0.5399
  498MOL0     H67182   4.030   0.445   6.042 -0.2275 -2.0646 -1.7520
  498MOL0     H67183   4.004   0.295   6.121 -2.2494 -0.7388 -0.2653
  498MOL0     H67184   3.800   0.328   6.201 -0.0697  0.6621  0.5376
  498MOL0     H67185   3.781   0.495   6.164 -2.5311 -0.4547 -1.1456
  498MOL0     H67186   3.791   0.461   5.924  3.5838 -1.8961 -0.7570
  498MOL0     H67187   3.660   0.356   5.987  0.0415  2.4977 -0.8962
  498MOL0     H67188   3.792   0.172   5.980  1.7492 -1.5569 -0.3432
  498MOL0     H67189   3.938   0.243   5.917 -0.5199 -3.2240 -1.6929
  498MOL0     H67190   4.005   0.093   5.762 -0.3044  1.8889 -0.4608
  498MOL0     H67191   4.015  -0.100   5.648  0.2941  1.2614 -1.7204
  498MOL0     H67192   3.825  -0.302   5.178 -0.5054  0.0996 -0.9438
  498MOL0     H67193   3.847  -0.521   5.061 -1.6877 -5.6788 -1.2371
  498MOL0     H67194   3.640  -0.886   5.241  1.3202  1.2699  1.3989
  498MOL0     H67195   3.577  -0.783   5.104  0.4266 -1.1255 -1.0607
  498MOL0     H67196   3.671  -0.930   4.947 -1.5079 -1.9186 -0.6082
  498MOL0     H67197   3.809  -0.973   5.057 -1.5694 -1.1321  1.0549
  498MOL0     H67198   3.648  -1.099   5.189  0.3647  1.1054  0.7990
  498MOL0     H67199   3.516  -1.039   5.107  0.5911  0.3991  2.9928
  498MOL0     H67200   3.748  -1.186   4.965  0.0146 -0.0432 -0.2561
  498MOL0     H67201   3.592  -1.156   4.892  1.9767  0.8824  0.3087
  498MOL0     H67202   3.478  -1.283   5.054  0.1342  0.4829  2.3616
  498MOL0     H67203   3.614  -1.328   5.158 -2.0423 -0.2061  0.3141
  498MOL0     H67204   3.705  -1.418   4.910 -1.7038  0.8322 -2.9432
  498MOL0     H67205   3.629  -1.520   5.036 -0.9345 -0.5208  0.5951
  498MOL0     H67206   3.477  -1.387   4.806  0.4505  0.5669  2.3926
  498MOL0     H67207   3.409  -1.502   4.910 -2.4439  2.3234 -3.8181
  498MOL0     H67208   3.632  -1.659   4.832 -1.0151 -0.3216  1.3946
  498MOL0     H67209   3.462  -1.662   4.768  0.4936  0.7420 -0.6755
  498MOL0     H67210   3.658  -0.714   5.391 -0.2173  2.5108  4.5706
  498MOL0     H67211   3.611  -0.496   5.492 -2.1402 -2.3283 -1.6197
  498MOL0     H67212   3.597  -0.050   5.519 -0.3318  3.0209 -1.2700
  498MOL0     H67213   3.593   0.157   5.637  1.4199  2.2667  0.5353
  498MOL0     H67214   4.100   1.443   6.279  1.1157 -1.6157  1.9896
  498MOL0     H67215   4.154   1.495   6.044 -0.5163 -1.8719 -0.2322
  498MOL0     H67216   4.663   1.815   5.813  3.5503 -2.4917  1.9921
  498MOL0     H67217   4.747   1.818   5.589  0.6596 -1.4553 -2.3479
  498MOL0     H67218   4.765   1.831   5.362  0.9662  0.3076 -1.6891
  498MOL0     H67219   4.780   1.727   5.223  1.1200 -0.4075  1.2193
  498MOL0     H67220   4.927   1.656   5.485 -2.6529 -0.6557 -0.1567
  498MOL0     H67221   4.980   1.758   5.363  1.5018 -1.5232  1.3231
  498MOL0     H67222   4.929   1.535   5.200 -2.0086  1.6970  0.2637
  498MOL0     H67223   4.952   1.461   5.361  1.8661 -4.1399 -3.7073
  498MOL0     H67224   5.142   1.668   5.243 -0.0449 -1.9381 -2.3728
  498MOL0     H67225   5.165   1.576   5.396  0.4782 -0.8729 -0.5226
  498MOL0     H67226   5.308   1.306   5.109  0.3129 -0.5664  0.4107
  498MOL0     H67227   4.464   1.523   5.466  1.9329  0.0556 -0.2739
  498MOL0     H67228   4.258   1.569   5.773 -0.9852  0.7067 -1.1164
  498MOL0     H67229   4.279   1.539   5.603  2.4164 -1.9960 -1.0850
  498MOL0     H67230   4.338   1.413   5.725  1.0143  0.3293  0.2907
  499MOL0     O67231   6.734   7.587   7.244  0.0717  0.6554 -0.0155
  499MOL0     C67232   6.773   7.467   7.243 -0.7086 -0.2457  0.0021
  499MOL0     O67233   6.687   7.365   7.198 -0.5220 -0.3300  0.6805
  499MOL0     C67234   6.573   7.407   7.129 -0.3250 -0.4285  0.2026
  499MOL0     C67235   6.451   7.419   7.200  0.1603 -0.0438 -0.7226
  499MOL0     C67236   6.335   7.459   7.137 -0.4344  0.6403 -0.5030
  499MOL0     C67237   6.334   7.497   7.006  0.3732 -0.8197 -0.3047
  499MOL0     O67238   6.215   7.544   6.953 -0.2220  0.6629 -0.6902
  499MOL0     C67239   6.222   7.659   6.871  0.3094  0.3355 -0.4182
  499MOL0     C67240   6.225   7.781   6.964 -0.7141 -0.4886 -0.1378
  499MOL0     C67241   6.082   7.839   6.989 -0.1287  0.4556 -1.0373
  499MOL0     C67242   5.973   7.731   7.031  0.9013 -0.3869  0.7330
  499MOL0     C67243   5.863   7.789   7.115  0.6975  0.3205  0.3996
  499MOL0     C67244   5.770   7.896   7.061  0.3609 -1.3826 -0.6364
  499MOL0     C67245   5.688   7.841   6.942 -0.5025 -0.3945  0.6068
  499MOL0     C67246   5.580   7.747   6.998  0.3695  0.0609  0.5315
  499MOL0     N67247   5.485   7.688   6.908  0.4663  0.7451  0.5102
  499MOL0     C67248   5.361   7.725   6.865 -0.0152  0.4519  0.1320
  499MOL0     C67249   5.323   7.619   6.791 -0.1809 -0.6950 -0.2912
  499MOL0     C67250   5.184   7.620   6.736 -0.6978 -0.1845  0.1976
  499MOL0     C67251   5.093   7.522   6.804  0.0335  0.6779 -0.6330
  499MOL0     C67252   4.950   7.568   6.772  0.9991 -0.0663  0.5469
  499MOL0     C67253   4.846   7.463   6.830 -0.4385 -0.1109 -0.6550
  499MOL0     O67254   4.898   7.329   6.832  0.0133 -1.0495  0.1736
  499MOL0     C67255   4.819   7.217   6.832 -0.8147 -0.0721 -0.5529
  499MOL0     C67256   4.686   7.212   6.885 -1.6380 -0.0262  0.7529
  499MOL0     C67257   4.597   7.099   6.871 -0.1943  0.8506 -0.1070
  499MOL0     C67258   4.665   6.984   6.815  1.3369 -0.6658  0.8579
  499MOL0     C67259   4.595   6.862   6.803  1.1890  1.1900  0.2115
  499MOL0     O67260   4.638   6.777   6.697  0.3937 -1.0191 -0.4327
  499MOL0     C67261   4.574   6.652   6.687  0.1124 -1.1381  0.2179
  499MOL0     C67262   4.654   6.543   6.684 -0.6361 -0.9089 -0.5772
  499MOL0     C67263   4.611   6.413   6.665 -0.3401  0.2962 -0.1856
  499MOL0     C67264   4.475   6.385   6.660  0.4472  0.0600  0.3461
  499MOL0     O67265   4.413   6.260   6.637 -0.8401  0.0722  1.0144
  499MOL0     C67266   4.489   6.141   6.687  0.4151  0.2671  0.1291
  499MOL0     C67267   4.409   6.012   6.667  1.1889 -0.3720  0.3120
  499MOL0     C67268   4.278   6.028   6.749  0.9900  0.0026 -0.2923
  499MOL0     C67269   4.188   5.904   6.753  1.1663  0.4469 -0.0653
  499MOL0     C67270   4.050   5.924   6.817  0.1091  0.5382  0.3719
  499MOL0     C67271   4.068   5.965   6.969 -0.2976 -0.5183  0.5903
  499MOL0     C67272   3.927   6.006   7.007  0.8849 -0.7497  0.5354
  499MOL0     C67273   3.925   6.079   7.144 -0.6304  0.4753  0.2093
  499MOL0    Cl67274   4.005   5.982   7.279  0.5093  0.2738  0.1532
  499MOL0     C67275   4.384   6.500   6.665  0.1666  0.4035 -0.7526
  499MOL0     C67276   4.435   6.626   6.675  0.1829 -0.9047  0.6785
  499MOL0     O67277   4.475   6.857   6.844  0.4766  0.0139  0.0563
  499MOL0     C67278   4.793   6.995   6.765  0.5825  0.6528  0.7271
  499MOL0     C67279   4.873   7.107   6.771  0.4296  1.2504 -0.1542
  499MOL0     N67280   5.423   7.525   6.780 -0.2858 -0.0245  0.6325
  499MOL0     N67281   5.520   7.566   6.855 -0.0598 -0.0749  0.6122
  499MOL0     C67282   6.448   7.477   6.924  0.8148  0.2291 -0.5796
  499MOL0     C67283   6.562   7.430   6.987 -0.6593 -0.4904  0.4469
  499MOL0     C67284   6.905   7.435   7.306  0.7216 -0.4559 -0.6715
  499MOL0     C67285   6.922   7.299   7.332  0.1196  0.0935  0.8511
  499MOL0     C67286   7.030   7.244   7.419 -0.4681 -0.6094  0.2360
  499MOL0     C67287   7.135   7.337   7.448  0.5973 -0.7295  0.2575
  499MOL0     O67288   7.242   7.312   7.524 -0.0993 -0.2419 -0.0649
  499MOL0     C67289   7.358   7.303   7.439  0.1037 -0.8735 -0.3424
  499MOL0     C67290   7.472   7.261   7.521  0.2992 -0.1169 -0.2222
  499MOL0     C67291   7.500   7.354   7.646  0.3667 -0.2990  0.9207
  499MOL0     C67292   7.529   7.508   7.601  0.3512 -0.1387  0.3669
  499MOL0     C67293   7.577   7.597   7.705 -0.0392  0.8486  0.7727
  499MOL0     C67294   7.621   7.691   7.770  0.3911 -0.1951  0.7879
  499MOL0     C67295   7.111   7.469   7.426 -1.4591 -0.3876 -0.9958
  499MOL0     C67296   7.004   7.526   7.349  0.4344  0.5857 -0.1728
  499MOL0     C67297   6.975   7.670   7.360 -0.4596 -0.3827 -0.5956
  499MOL0     H67298   6.443   7.382   7.301 -2.9674 -3.3745 -1.9373
  499MOL0     H67299   6.243   7.452   7.194  0.7709 -2.7989  1.3458
  499MOL0     H67300   6.310   7.642   6.808  0.9718 -1.4011  0.9114
  499MOL0     H67301   6.133   7.661   6.807 -0.8905 -0.9777  1.1313
  499MOL0     H67302   6.277   7.859   6.909 -3.5831  0.9127 -1.0677
  499MOL0     H67303   6.281   7.767   7.057 -0.2296  0.4163 -0.2888
  499MOL0     H67304   6.050   7.894   6.900 -1.0245 -0.5790 -1.3798
  499MOL0     H67305   6.083   7.909   7.074  1.6032 -0.0039 -0.6350
  499MOL0     H67306   5.924   7.681   6.948  1.8946  3.0960 -2.2026
  499MOL0     H67307   6.026   7.653   7.087 -1.3205 -0.9488  2.1747
  499MOL0     H67308   5.801   7.706   7.149  1.2077 -0.0077  0.5538
  499MOL0     H67309   5.904   7.825   7.210 -2.9789  2.5634  1.2889
  499MOL0     H67310   5.700   7.934   7.135 -0.2073 -0.4435 -1.6199
  499MOL0     H67311   5.832   7.981   7.030  0.0246 -1.8472 -2.7725
  499MOL0     H67312   5.751   7.786   6.872 -0.9204  0.7326 -0.7035
  499MOL0     H67313   5.644   7.922   6.882 -2.0551 -2.3647 -1.0483
  499MOL0     H67314   5.626   7.665   7.053 -1.4383 -0.3811  1.4717
  499MOL0     H67315   5.533   7.803   7.080 -0.2276 -1.3975  1.2162
  499MOL0     H67316   5.298   7.809   6.893  1.3316  2.1000 -1.5803
  499MOL0     H67317   5.153   7.724   6.725  1.0155  0.1290 -2.7781
  499MOL0     H67318   5.181   7.597   6.629 -0.7549  2.8100 -0.5247
  499MOL0     H67319   5.122   7.426   6.761  1.6086  1.1670 -0.7414
  499MOL0     H67320   5.119   7.517   6.910 -0.5011 -0.9965 -0.5416
  499MOL0     H67321   4.947   7.569   6.663 -0.5937 -1.6109  0.5275
  499MOL0     H67322   4.914   7.660   6.819 -5.8266 -0.3711 -2.8241
  499MOL0     H67323   4.757   7.474   6.767 -0.8916  3.3085  0.3801
  499MOL0     H67324   4.837   7.504   6.931  0.5321 -1.3429 -0.0449
  499MOL0     H67325   4.647   7.305   6.924 -2.8599  1.0559 -2.7249
  499MOL0     H67326   4.490   7.086   6.885 -0.1858  0.7516 -0.1311
  499MOL0     H67327   4.761   6.561   6.680 -0.9152  1.2926  0.1752
  499MOL0     H67328   4.693   6.342   6.656  1.2582  2.0510  0.0876
  499MOL0     H67329   4.588   6.142   6.641 -0.4716  3.2170 -2.1204
  499MOL0     H67330   4.501   6.152   6.795 -3.5419 -2.6748  1.1036
  499MOL0     H67331   4.377   6.016   6.562  2.5779 -3.2527 -0.3180
  499MOL0     H67332   4.458   5.918   6.695 -0.8919 -0.7211  3.4021
  499MOL0     H67333   4.298   6.050   6.854 -1.5999  0.7954  0.0958
  499MOL0     H67334   4.211   6.103   6.706 -0.9983 -3.4471 -3.8587
  499MOL0     H67335   4.250   5.826   6.799  3.0639  2.0193  0.1773
  499MOL0     H67336   4.169   5.875   6.649  1.9282  0.2913 -0.1677
  499MOL0     H67337   3.996   5.829   6.818  1.4727 -0.2982 -0.9325
  499MOL0     H67338   3.986   5.998   6.770 -0.7091 -1.1768 -1.3589
  499MOL0     H67339   4.095   5.877   7.028  2.0420  0.1618  0.6268
  499MOL0     H67340   4.141   6.046   6.978  1.9967 -2.3166 -0.7077
  499MOL0     H67341   3.851   5.928   6.995 -2.0004  2.1985 -2.7584
  499MOL0     H67342   3.884   6.085   6.945 -0.0023 -1.4928  0.1837
  499MOL0     H67343   3.984   6.170   7.127  1.7305 -0.6213  1.9144
  499MOL0     H67344   3.823   6.102   7.176 -0.4909  1.1036  0.2080
  499MOL0     H67345   4.277   6.486   6.654  0.0943 -0.1099  0.4804
  499MOL0     H67346   4.369   6.711   6.660  0.0492 -1.1933 -0.4398
  499MOL0     H67347   4.855   6.919   6.720 -1.1373  0.9615 -2.4499
  499MOL0     H67348   4.975   7.118   6.736 -0.3854  1.9250 -2.5200
  499MOL0     H67349   6.445   7.482   6.816  0.6304  0.4917 -0.5621
  499MOL0     H67350   6.651   7.411   6.927 -0.5692 -1.5534  0.9018
  499MOL0     H67351   6.858   7.217   7.301 -2.7970  2.2135  0.8491
  499MOL0     H67352   7.045   7.143   7.454  0.3419  0.5507  3.6552
  499MOL0     H67353   7.375   7.401   7.392  0.4211 -0.4991  0.5238
  499MOL0     H67354   7.340   7.222   7.369 -0.1797  0.3906 -1.7860
  499MOL0     H67355   7.562   7.239   7.463 -0.5756 -2.7165 -0.7256
  499MOL0     H67356   7.449   7.161   7.560  0.5267  0.9421  2.9198
  499MOL0     H67357   7.585   7.303   7.693  0.7342  1.1705  1.9202
  499MOL0     H67358   7.417   7.348   7.717  0.5463 -1.7081  1.0483
  499MOL0     H67359   7.607   7.502   7.524  0.0523  1.1042 -0.0560
  499MOL0     H67360   7.436   7.549   7.560  0.1264 -1.7047 -0.8113
  499MOL0     H67361   7.671   7.776   7.810 -0.7579  3.0537 -3.8278
  499MOL0     H67362   7.180   7.540   7.470  0.3429  0.2731 -4.5111
  499MOL0     H67363   7.065   7.721   7.394 -1.1522  0.7380 -0.3713
  499MOL0     H67364   6.968   7.709   7.258  2.0820  0.3631 -0.5383
  499MOL0     H67365   6.896   7.689   7.434  0.8188  1.0670  0.4585
  500MOL0     O67366   3.777   3.593   6.320  0.6751 -0.4633  0.1033
  500MOL0     C67367   3.860   3.543   6.241 -0.2181 -0.1728  0.4031
  500MOL0     O67368   3.827   3.486   6.131  0.4538  0.4994  0.5190
  500MOL0     C67369   3.701   3.482   6.083  0.5868  0.7958  0.8851
  500MOL0     C67370   3.646   3.357   6.053 -0.5823 -0.1585  0.8151
  500MOL0     C67371   3.522   3.348   6.000 -0.4569 -0.3703 -0.0986
  500MOL0     C67372   3.448   3.456   5.973 -0.4445 -0.3976  0.2251
  500MOL0     O67373   3.321   3.427   5.922  0.0992  0.1191  0.1478
  500MOL0     C67374   3.242   3.522   5.852 -0.6288  0.2384 -0.6100
  500MOL0     C67375   3.153   3.449   5.759 -0.4051 -0.4016  0.8477
  500MOL0     C67376   3.051   3.360   5.838  0.6047  0.0755  0.1402
  500MOL0     C67377   2.912   3.358   5.778  0.4176 -0.5310  0.1082
  500MOL0     C67378   2.818   3.265   5.870  0.4277  0.4718  0.1496
  500MOL0     C67379   2.669   3.291   5.850  0.1954  0.7556 -0.5866
  500MOL0     C67380   2.580   3.188   5.926  0.1167  0.0999  0.8281
  500MOL0     C67381   2.479   3.114   5.835  0.1556 -0.6235  0.4738
  500MOL0     N67382   2.365   3.044   5.915  0.3935 -0.3148  0.6001
  500MOL0     C67383   2.373   2.956   6.021  0.4911 -0.0730 -0.4749
  500MOL0     C67384   2.243   2.918   6.042  0.4892  0.8419  0.7745
  500MOL0     C67385   2.219   2.806   6.138  1.0836  0.5369  0.4588
  500MOL0     C67386   2.222   2.843   6.290  0.8108  0.6036  0.6765
  500MOL0     C67387   2.174   2.984   6.329  0.3291  0.5407  0.7507
  500MOL0     C67388   2.265   3.107   6.314  0.5010  0.2713 -0.5043
  500MOL0     O67389   2.401   3.052   6.313  0.6412 -0.0935 -0.3307
  500MOL0     C67390   2.514   3.133   6.287  0.1302  1.5734  0.3962
  500MOL0     C67391   2.519   3.269   6.303  0.4275  0.3513 -0.3929
  500MOL0     C67392   2.645   3.332   6.290 -0.1751 -1.2570  1.2076
  500MOL0     C67393   2.772   3.259   6.276  0.1546 -1.0926 -0.2232
  500MOL0     C67394   2.897   3.330   6.291  0.2667 -0.5078  0.4560
  500MOL0     O67395   2.899   3.472   6.273 -0.5051 -0.4909  0.1068
  500MOL0     C67396   3.023   3.541   6.298  0.0010 -0.3668 -0.8713
  500MOL0     C67397   3.012   3.686   6.291 -0.0095  0.6446  0.2066
  500MOL0     C67398   3.121   3.769   6.312 -0.3706 -0.4579  0.7181
  500MOL0     C67399   3.250   3.716   6.331 -0.1548 -0.2984  0.1801
  500MOL0     O67400   3.358   3.802   6.305  0.2719 -0.4404  1.1519
  500MOL0     C67401   3.443   3.838   6.420 -0.1330  0.2553  0.2074
  500MOL0     C67402   3.562   3.936   6.398  1.0886  0.0122  0.6169
  500MOL0     C67403   3.653   3.937   6.517  0.5875  0.0381 -0.3027
  500MOL0     C67404   3.770   4.038   6.509  0.2822 -0.3527  0.4799
  500MOL0     C67405   3.876   4.025   6.616  0.3927 -0.0144 -0.5567
  500MOL0     C67406   3.948   4.160   6.641 -0.2604 -1.0090 -0.0684
  500MOL0     C67407   4.056   4.167   6.753  0.8384  0.2058  0.2971
  500MOL0     C67408   4.078   4.296   6.823 -0.3501 -0.4347 -0.4914
  500MOL0    Cl67409   4.182   4.273   6.969  0.8540 -0.1747  0.6698
  500MOL0     C67410   3.262   3.580   6.347 -0.0973  0.1084 -0.5263
  500MOL0     C67411   3.153   3.491   6.330  0.0225  0.1807 -0.2572
  500MOL0     O67412   2.987   3.258   6.316  0.5874  0.4463 -0.2983
  500MOL0     C67413   2.759   3.120   6.263  0.7471  0.0823 -0.4456
  500MOL0     C67414   2.635   3.059   6.271 -0.0009 -0.5170  0.6002
  500MOL0     N67415   2.159   2.979   5.942  0.4173  0.7432 -0.1239
  500MOL0     N67416   2.230   3.054   5.872  0.0095  0.0422 -0.5596
  500MOL0     C67417   3.492   3.580   6.011  0.1380 -1.5037  0.4761
  500MOL0     C67418   3.617   3.595   6.071 -0.9667 -0.0217 -0.3965
  500MOL0     C67419   3.998   3.521   6.282  0.5606 -0.1030  0.8911
  500MOL0     C67420   4.055   3.392   6.265  0.7471  0.3404  0.3423
  500MOL0     C67421   4.182   3.351   6.317 -0.9478  1.0334 -0.7688
  500MOL0     C67422   4.250   3.438   6.397 -0.3995 -1.0243  0.5546
  500MOL0     O67423   4.358   3.380   6.461  0.0555  0.4810  0.0185
  500MOL0     C67424   4.401   3.446   6.578  0.8995 -0.6286 -0.4649
  500MOL0     C67425   4.506   3.364   6.675  0.4909  0.0989 -0.6375
  500MOL0     C67426   4.564   3.471   6.772 -0.1995  0.4398 -0.8836
  500MOL0     C67427   4.670   3.422   6.873 -1.4538  0.6440 -0.1918
  500MOL0     C67428   4.780   3.377   6.793 -0.7875  0.0434 -0.7302
  500MOL0     C67429   4.867   3.343   6.722 -0.7052 -0.0320 -0.4859
  500MOL0     C67430   4.195   3.569   6.422  0.0353 -0.9453 -0.3836
  500MOL0     C67431   4.069   3.603   6.364  0.3203 -0.9232 -0.1419
  500MOL0     C67432   4.013   3.745   6.389 -0.0767 -0.0126 -0.4078
  500MOL0     H67433   3.712   3.271   6.062 -1.0692 -0.4153  2.0938
  500MOL0     H67434   3.480   3.252   5.972  1.7013 -1.5408  0.4419
  500MOL0     H67435   3.181   3.587   5.917 -0.3571 -1.2339  1.2128
  500MOL0     H67436   3.301   3.586   5.786  3.6972 -0.9638  1.7301
  500MOL0     H67437   3.215   3.387   5.694 -0.5691 -1.7564  1.9358
  500MOL0     H67438   3.114   3.528   5.694 -0.0447 -1.4532 -0.7036
  500MOL0     H67439   3.035   3.397   5.940 -2.1035 -0.4237 -0.0447
  500MOL0     H67440   3.080   3.255   5.827  0.0748  0.0239 -0.8735
  500MOL0     H67441   2.868   3.458   5.774 -0.5804 -0.9737 -0.7369
  500MOL0     H67442   2.917   3.327   5.673  0.9984  2.7818 -0.9681
  500MOL0     H67443   2.855   3.165   5.847  1.3738  1.2522 -2.0675
  500MOL0     H67444   2.830   3.279   5.978  0.1183 -0.2233  0.2775
  500MOL0     H67445   2.656   3.385   5.903  0.9207 -0.0946  1.1903
  500MOL0     H67446   2.641   3.300   5.745  0.4599  4.0583 -0.4683
  500MOL0     H67447   2.511   3.235   5.997 -1.2784 -0.6997  0.0372
  500MOL0     H67448   2.658   3.135   5.982  1.2647  2.0214  1.1252
  500MOL0     H67449   2.427   3.184   5.769  1.2377  0.1968  0.4664
  500MOL0     H67450   2.531   3.041   5.773  0.6505 -0.2870  0.4932
  500MOL0     H67451   2.462   2.920   6.071  1.4290  1.8855 -0.6170
  500MOL0     H67452   2.122   2.765   6.107  2.0111  0.2125 -2.3417
  500MOL0     H67453   2.289   2.723   6.132 -1.1697 -1.3910 -0.7297
  500MOL0     H67454   2.166   2.762   6.336 -2.6415  0.2299 -3.5485
  500MOL0     H67455   2.324   2.839   6.329  1.0372  0.1774  0.0550
  500MOL0     H67456   2.135   2.979   6.431 -2.6875 -1.1753 -0.3555
  500MOL0     H67457   2.092   3.011   6.261  1.0841  0.7958 -0.0737
  500MOL0     H67458   2.246   3.173   6.399  0.0726 -0.2797 -0.1678
  500MOL0     H67459   2.241   3.160   6.221 -3.6511 -1.1935 -0.4385
  500MOL0     H67460   2.436   3.331   6.335  0.4292  1.1153 -1.7941
  500MOL0     H67461   2.652   3.434   6.326 -1.0737 -0.4763 -0.7004
  500MOL0     H67462   2.918   3.737   6.271 -1.7239 -0.7270  3.8450
  500MOL0     H67463   3.102   3.875   6.306  1.8182  0.1627  2.9825
  500MOL0     H67464   3.374   3.893   6.484 -0.3008 -0.0666  0.3047
  500MOL0     H67465   3.470   3.737   6.452 -0.4308  0.2197  0.3436
  500MOL0     H67466   3.633   3.901   6.322  2.2792 -1.2013  2.2175
  500MOL0     H67467   3.528   4.037   6.375  2.4172  0.4520  0.5177
  500MOL0     H67468   3.586   3.964   6.599 -1.4656  0.0627 -1.8828
  500MOL0     H67469   3.684   3.836   6.541 -0.5298 -0.1586  0.3655
  500MOL0     H67470   3.715   4.133   6.511  0.8719  0.0489 -0.7483
  500MOL0     H67471   3.823   4.034   6.413  2.5864  1.1272  1.5811
  500MOL0     H67472   3.944   3.943   6.592 -2.0268 -2.6386  1.0163
  500MOL0     H67473   3.821   3.995   6.705 -0.0913 -0.9319 -1.1505
  500MOL0     H67474   3.999   4.197   6.552 -1.2251  3.2725  0.9075
  500MOL0     H67475   3.873   4.239   6.653 -1.1394 -1.2681 -3.0085
  500MOL0     H67476   4.152   4.124   6.722  2.4421  1.3823  3.3067
  500MOL0     H67477   4.017   4.094   6.825 -1.3635  1.5479  0.5318
  500MOL0     H67478   4.115   4.371   6.752 -2.8033 -0.1310 -1.5156
  500MOL0     H67479   3.986   4.340   6.863 -0.6571 -1.3126 -0.2127
  500MOL0     H67480   3.357   3.529   6.349  1.1442  2.2991  1.8516
  500MOL0     H67481   3.177   3.385   6.338 -0.7517  0.0997  1.6053
  500MOL0     H67482   2.842   3.051   6.250  0.5698 -0.1108 -0.5513
  500MOL0     H67483   2.626   2.951   6.275 -3.1491 -0.4580 -1.3041
  500MOL0     H67484   3.430   3.667   5.998  1.2992 -0.2383  2.7711
  500MOL0     H67485   3.651   3.695   6.096 -0.1788  0.0021 -1.5383
  500MOL0     H67486   3.993   3.322   6.212 -0.2878  2.5928 -1.6015
  500MOL0     H67487   4.208   3.246   6.307  0.3036  1.3131 -0.6722
  500MOL0     H67488   4.315   3.487   6.632 -0.9492 -0.3295 -3.3648
  500MOL0     H67489   4.456   3.537   6.552  1.3136  0.4688  3.5949
  500MOL0     H67490   4.584   3.313   6.617  0.7881 -1.3299  0.9485
  500MOL0     H67491   4.442   3.295   6.731  2.3335 -1.8212 -0.8056
  500MOL0     H67492   4.486   3.519   6.832  2.5270  2.5385  1.2980
  500MOL0     H67493   4.620   3.554   6.727  0.9664  0.6296  0.7782
  500MOL0     H67494   4.702   3.495   6.949  0.1801 -0.0935 -0.1360
  500MOL0     H67495   4.629   3.338   6.929 -0.3509 -0.9605 -1.7133
  500MOL0     H67496   4.930   3.302   6.646 -3.3465 -1.5668 -2.0236
  500MOL0     H67497   4.244   3.643   6.485 -0.2702 -1.4666  0.4944
  500MOL0     H67498   4.074   3.811   6.452  0.6085  1.5752 -2.6299
  500MOL0     H67499   4.002   3.796   6.293  1.0518  1.3092  0.1213
  500MOL0     H67500   3.917   3.740   6.441 -1.1979  0.9504 -2.2637
  501MOL0     O67501   7.924  10.076   6.771 -0.4342  0.4024  1.0358
  501MOL0     C67502   7.902  10.181   6.705  0.2722 -0.0032  0.3498
  501MOL0     O67503   7.960  10.218   6.593 -0.5046  0.5430  0.5412
  501MOL0     C67504   8.051  10.132   6.529  0.1297 -1.0051 -0.3783
  501MOL0     C67505   8.176  10.188   6.502  0.3592  0.2978  0.0410
  501MOL0     C67506   8.283  10.111   6.460 -0.8801  0.0572 -0.2427
  501MOL0     C67507   8.274   9.973   6.437  0.3919 -0.2654 -0.4585
  501MOL0     O67508   8.379   9.887   6.396  0.2109 -0.2037  0.1449
  501MOL0     C67509   8.507   9.919   6.446  0.0346 -0.5230 -0.4173
  501MOL0     C67510   8.597   9.803   6.453 -0.7423  0.4689  0.5322
  501MOL0     C67511   8.667   9.794   6.323  0.2544  0.0998  0.2805
  501MOL0     C67512   8.787   9.686   6.328 -0.1619 -0.3624  0.2019
  501MOL0     C67513   8.831   9.645   6.188  1.1463  0.1484  0.1145
  501MOL0     C67514   8.927   9.527   6.177 -0.5019 -0.2014  0.2811
  501MOL0     C67515   8.853   9.406   6.238 -0.2906  0.4438 -0.0009
  501MOL0     C67516   8.908   9.265   6.198  0.5050  0.3171 -0.8076
  501MOL0     N67517   9.044   9.230   6.239 -0.3100  0.1876  0.1699
  501MOL0     C67518   9.163   9.272   6.183  0.0327 -0.1702  0.1260
  501MOL0     C67519   9.259   9.265   6.272  0.5276 -0.0131 -0.4697
  501MOL0     C67520   9.403   9.297   6.265  0.0312  0.0870 -0.8173
  501MOL0     C67521   9.490   9.182   6.219  0.3637  0.2918 -0.1379
  501MOL0     C67522   9.494   9.071   6.324  0.0997 -1.1310  0.5398
  501MOL0     C67523   9.592   8.960   6.286  0.2049  0.1035  0.0018
  501MOL0     O67524   9.539   8.875   6.185  0.0015  0.5649 -0.3468
  501MOL0     C67525   9.616   8.770   6.126  0.1937  0.3740  0.0603
  501MOL0     C67526   9.553   8.698   6.020  0.5608 -0.7443 -0.3973
  501MOL0     C67527   9.634   8.608   5.933 -0.4382 -0.8140 -0.2340
  501MOL0     C67528   9.769   8.591   5.961  0.5943  0.3793 -0.2044
  501MOL0     C67529   9.856   8.527   5.859  0.1927 -0.1368  0.0898
  501MOL0     O67530   9.978   8.575   5.857  0.3033  0.0376 -0.1826
  501MOL0     C67531  10.079   8.506   5.787 -0.6223 -0.8472 -0.4728
  501MOL0     C67532  10.102   8.366   5.782 -0.0459 -0.0927  0.5597
  501MOL0     C67533  10.211   8.311   5.721 -0.5119 -0.2245  0.0346
  501MOL0     C67534  10.308   8.396   5.671  0.2429  0.0340 -0.4203
  501MOL0     O67535  10.417   8.346   5.613  0.5411  0.2059  0.1394
  501MOL0     C67536  10.512   8.311   5.714  0.6797 -0.0190 -0.0404
  501MOL0     C67537  10.656   8.302   5.674  0.1859  0.3566 -0.0412
  501MOL0     C67538  10.716   8.439   5.639 -0.6594  0.4826 -0.2292
  501MOL0     C67539  10.871   8.435   5.606  0.2200  0.9268 -0.1160
  501MOL0     C67540  10.950   8.567   5.619 -0.3160  0.1192  0.1929
  501MOL0     C67541  11.098   8.542   5.615 -0.1700 -0.7594 -0.4782
  501MOL0     C67542  11.182   8.671   5.638  0.0603 -0.6848  0.4262
  501MOL0     C67543  11.329   8.659   5.643  0.1529 -0.4447 -1.4060
  501MOL0    Cl67544  11.386   8.648   5.468 -0.0157 -0.1285  0.2804
  501MOL0     C67545  10.293   8.537   5.673  0.5964 -0.1059  0.9450
  501MOL0     C67546  10.187   8.588   5.738  0.2191  0.9255 -0.4868
  501MOL0     O67547   9.816   8.428   5.804  0.2705 -0.4445 -0.2528
  501MOL0     C67548   9.814   8.659   6.063 -0.3890 -0.1389 -1.5041
  501MOL0     C67549   9.747   8.748   6.149 -0.9585  0.6368 -0.7521
  501MOL0     N67550   9.198   9.227   6.388 -0.5165  0.5287  0.2780
  501MOL0     N67551   9.077   9.214   6.368  1.3318  0.6435  0.0642
  501MOL0     C67552   8.146   9.914   6.469 -0.4477  0.4489  0.4206
  501MOL0     C67553   8.037   9.995   6.512  0.1261 -0.1957 -1.1908
  501MOL0     C67554   7.784  10.252   6.756  0.6523 -0.2636 -0.5370
  501MOL0     C67555   7.677  10.282   6.669  0.4600 -0.4918  1.3604
  501MOL0     C67556   7.565  10.362   6.706 -0.3310  0.1202 -0.2723
  501MOL0     C67557   7.561  10.412   6.833 -0.2708 -0.6433  0.7981
  501MOL0     O67558   7.461  10.493   6.871 -0.3738 -0.1738 -0.0970
  501MOL0     C67559   7.435  10.519   7.005 -0.0037 -0.6747 -0.0714
  501MOL0     C67560   7.353  10.407   7.070  0.9835 -0.0551 -0.2001
  501MOL0     C67561   7.202  10.422   7.030 -0.5537 -0.3214 -0.2920
  501MOL0     C67562   7.123  10.327   7.122 -0.4931 -0.0017 -0.0173
  501MOL0     C67563   6.978  10.366   7.094  0.5359 -0.5574  0.1861
  501MOL0     C67564   6.862  10.391   7.085  0.3378  0.7663  0.0954
  501MOL0     C67565   7.672  10.385   6.925 -0.7035 -0.4081  0.3110
  501MOL0     C67566   7.778  10.298   6.895  1.1110  0.0944 -0.1095
  501MOL0     C67567   7.892  10.274   6.994  0.2728  0.1148 -0.8522
  501MOL0     H67568   8.195  10.293   6.524  0.7413  0.7961 -2.3074
  501MOL0     H67569   8.383  10.154   6.455 -1.0005  0.1549 -3.1237
  501MOL0     H67570   8.550  10.011   6.405 -1.6369  1.3665  1.8129
  501MOL0     H67571   8.506   9.970   6.543  2.5270  3.0749 -2.0376
  501MOL0     H67572   8.526   9.722   6.473 -1.2372  1.3493  2.6723
  501MOL0     H67573   8.666   9.800   6.538  1.9300 -0.3701 -1.5467
  501MOL0     H67574   8.701   9.894   6.295 -2.4571  0.5334 -1.9956
  501MOL0     H67575   8.600   9.766   6.241  0.0987 -0.8037  0.6926
  501MOL0     H67576   8.859   9.730   6.397 -0.3085  1.9416 -1.0005
  501MOL0     H67577   8.755   9.598   6.384 -3.0965 -1.0609 -2.2843
  501MOL0     H67578   8.741   9.610   6.136  1.5614  0.8630 -1.1269
  501MOL0     H67579   8.869   9.723   6.121  1.8848 -2.5416 -2.9150
  501MOL0     H67580   8.953   9.505   6.073 -4.0120 -0.6384 -0.6330
  501MOL0     H67581   9.016   9.548   6.238 -0.8859  4.4987 -0.3876
  501MOL0     H67582   8.749   9.405   6.205  0.4458 -0.6340 -2.4734
  501MOL0     H67583   8.859   9.429   6.345 -2.1649 -1.5113  0.6030
  501MOL0     H67584   8.845   9.186   6.240 -0.5638  0.5417 -1.9366
  501MOL0     H67585   8.896   9.265   6.090  0.5912  1.1785 -0.8282
  501MOL0     H67586   9.174   9.290   6.077  4.0005 -3.0974 -0.1862
  501MOL0     H67587   9.430   9.378   6.197  0.6151  1.1574  0.6327
  501MOL0     H67588   9.428   9.323   6.369 -3.3906  0.8693 -0.0663
  501MOL0     H67589   9.450   9.137   6.128 -2.6825 -0.9764  1.6600
  501MOL0     H67590   9.585   9.217   6.178  0.8594 -1.9559 -1.0350
  501MOL0     H67591   9.392   9.031   6.328  0.2187 -1.3442  2.1509
  501MOL0     H67592   9.517   9.126   6.415 -0.4259  1.7220 -0.9193
  501MOL0     H67593   9.609   8.886   6.364 -0.7198 -0.2903 -0.1620
  501MOL0     H67594   9.689   9.002   6.255 -0.7909  2.5930  0.0067
  501MOL0     H67595   9.449   8.722   6.003  0.4461 -1.6217 -0.9794
  501MOL0     H67596   9.586   8.564   5.846  0.2871 -1.0292 -0.5375
  501MOL0     H67597  10.025   8.311   5.834  0.4099  0.7756  2.2313
  501MOL0     H67598  10.224   8.203   5.720 -2.0074 -0.4324  0.3012
  501MOL0     H67599  10.499   8.398   5.779 -0.5402 -0.8144  0.8442
  501MOL0     H67600  10.485   8.228   5.781 -1.9787  1.4663  0.9095
  501MOL0     H67601  10.686   8.276   5.776 -0.3645  2.2496  0.6449
  501MOL0     H67602  10.689   8.222   5.608 -0.4573  0.7604 -0.8767
  501MOL0     H67603  10.651   8.466   5.555  0.2666  0.4387 -0.9702
  501MOL0     H67604  10.687   8.514   5.714 -2.3791  0.0946 -0.4581
  501MOL0     H67605  10.891   8.409   5.502  1.6140  3.0373 -0.4529
  501MOL0     H67606  10.921   8.366   5.674  0.2807 -0.2185 -1.2902
  501MOL0     H67607  10.927   8.617   5.713  3.5241  2.2688  0.1737
  501MOL0     H67608  10.930   8.643   5.542 -1.1760 -3.1799 -3.1583
  501MOL0     H67609  11.126   8.471   5.693 -1.2150 -0.5269  0.1222
  501MOL0     H67610  11.126   8.517   5.512 -0.5946  3.5336 -1.8241
  501MOL0     H67611  11.136   8.731   5.717 -1.7024 -0.5217 -0.6748
  501MOL0     H67612  11.154   8.734   5.554  1.7519  0.2442  0.5156
  501MOL0     H67613  11.375   8.747   5.688  2.6018 -1.6705 -1.3431
  501MOL0     H67614  11.358   8.566   5.692 -0.2991 -0.3261 -0.9001
  501MOL0     H67615  10.370   8.604   5.636  0.6168 -1.1798 -1.1328
  501MOL0     H67616  10.189   8.696   5.744  1.2188  0.8704  0.6452
  501MOL0     H67617   9.921   8.648   6.081 -0.6844  1.6762  2.3417
  501MOL0     H67618   9.808   8.794   6.226 -1.3187  1.7198 -1.0967
  501MOL0     H67619   8.141   9.806   6.458  0.8237  0.4276 -0.1903
  501MOL0     H67620   7.948   9.942   6.544  0.2980 -0.4690 -1.1672
  501MOL0     H67621   7.684  10.241   6.569  1.1392  2.2339  0.2028
  501MOL0     H67622   7.486  10.395   6.638  0.1257  0.8772 -0.4464
  501MOL0     H67623   7.369  10.606   7.007 -0.0083 -0.3175 -4.9039
  501MOL0     H67624   7.519  10.541   7.072  0.2934  0.9746 -0.9315
  501MOL0     H67625   7.361  10.401   7.179  0.0215 -1.5299 -0.1856
  501MOL0     H67626   7.376  10.309   7.028 -0.5392 -0.6478  0.2694
  501MOL0     H67627   7.197  10.384   6.927  1.0942 -3.9730  0.8257
  501MOL0     H67628   7.165  10.525   7.030 -1.7696 -0.7397  0.0198
  501MOL0     H67629   7.144  10.224   7.092  2.8214  0.9928 -1.5627
  501MOL0     H67630   7.140  10.332   7.230  0.8203 -2.1327 -0.0590
  501MOL0     H67631   6.771  10.443   7.062  1.2605  1.7038 -1.6344
  501MOL0     H67632   7.674  10.442   7.018 -2.3764 -1.3101  0.9445
  501MOL0     H67633   7.902  10.353   7.069  0.0884 -1.5727  1.0320
  501MOL0     H67634   7.899  10.177   7.044 -1.0825  0.0608 -0.7277
  501MOL0     H67635   7.975  10.298   6.928  1.5393  1.0632  0.9903
  502MOL0     O67636   5.247   0.820   8.041 -0.4890 -0.3894  0.4906
  502MOL0     C67637   5.135   0.862   8.055  0.0923 -0.0257 -0.2671
  502MOL0     O67638   5.033   0.838   7.957 -0.1158  0.6451 -0.9653
  502MOL0     C67639   5.070   0.735   7.872 -0.2250 -0.3051 -0.3517
  502MOL0     C67640   5.011   0.611   7.884  0.4886  0.7674  0.0096
  502MOL0     C67641   5.037   0.508   7.788 -0.0586 -0.0047 -0.6748
  502MOL0     C67642   5.108   0.533   7.672  0.7906 -0.3961 -0.3177
  502MOL0     O67643   5.141   0.449   7.575 -0.7973  0.0423  0.3155
  502MOL0     C67644   5.110   0.308   7.580  0.0637  0.3772  0.0232
  502MOL0     C67645   5.169   0.240   7.456  0.1561  0.3367 -0.6233
  502MOL0     C67646   5.090   0.260   7.326  0.0784 -0.3075 -0.6038
  502MOL0     C67647   5.172   0.206   7.207 -0.2622 -0.3096 -0.2933
  502MOL0     C67648   5.299   0.288   7.174 -0.0217  0.8428 -0.2588
  502MOL0     C67649   5.425   0.207   7.162  0.1563 -0.5287  0.5258
  502MOL0     C67650   5.451   0.138   7.035  0.2098  0.3704 -0.4043
  502MOL0     C67651   5.392  -0.004   7.025  0.2338  0.1012 -0.2563
  502MOL0     N67652   5.431  -0.063   6.893  0.3387  0.8933  0.1882
  502MOL0     C67653   5.417  -0.017   6.768 -0.2272  0.2200  0.8761
  502MOL0     C67654   5.455  -0.113   6.687 -0.0464  1.5370  0.8300
  502MOL0     C67655   5.448  -0.119   6.536  0.1941 -0.7670 -0.4079
  502MOL0     C67656   5.341  -0.018   6.487  0.2217 -1.1621  0.3814
  502MOL0     C67657   5.295  -0.056   6.355 -0.0147 -0.2690 -0.1284
  502MOL0     C67658   5.201   0.034   6.282 -0.0129 -0.3425 -0.9084
  502MOL0     O67659   5.264   0.167   6.270 -0.6006  0.0986  0.4283
  502MOL0     C67660   5.361   0.185   6.175 -0.3352  0.8974  0.5594
  502MOL0     C67661   5.447   0.290   6.192 -0.6490 -1.0659 -0.2810
  502MOL0     C67662   5.547   0.319   6.101 -0.3634  0.0453  0.6149
  502MOL0     C67663   5.567   0.232   5.989  0.3010 -0.1202 -0.4627
  502MOL0     C67664   5.684   0.267   5.906  0.2911  0.0609  0.1984
  502MOL0     O67665   5.762   0.379   5.937  0.3645 -0.0624 -0.6746
  502MOL0     C67666   5.871   0.412   5.860  0.0415  0.7785 -0.4726
  502MOL0     C67667   5.857   0.462   5.727  0.6679  0.5897 -0.2520
  502MOL0     C67668   5.974   0.503   5.660 -0.7807 -0.2879 -0.1830
  502MOL0     C67669   6.106   0.500   5.726  0.7184 -0.1047  0.1329
  502MOL0     O67670   6.228   0.531   5.669  0.3111  0.0913  0.3945
  502MOL0     C67671   6.248   0.481   5.537  0.0195  0.1493  0.4182
  502MOL0     C67672   6.403   0.477   5.512  0.2206 -0.3711 -0.2167
  502MOL0     C67673   6.471   0.620   5.497 -0.1542  0.4001 -1.0301
  502MOL0     C67674   6.436   0.689   5.360 -0.4827 -0.6773  0.0426
  502MOL0     C67675   6.493   0.833   5.370  0.5745 -0.9466  1.2875
  502MOL0     C67676   6.478   0.909   5.229  0.1117  0.0466  0.6308
  502MOL0     C67677   6.486   1.061   5.246  0.1582 -0.4154 -0.1072
  502MOL0     C67678   6.486   1.136   5.106 -0.1617 -0.0999 -0.6126
  502MOL0    Cl67679   6.497   1.312   5.148  0.0409  0.1304  0.0625
  502MOL0     C67680   6.110   0.453   5.853  0.0877 -0.5735 -0.5889
  502MOL0     C67681   5.995   0.412   5.922  0.3254 -1.3968 -0.4333
  502MOL0     O67682   5.708   0.185   5.814 -0.2451  0.3236 -0.0398
  502MOL0     C67683   5.482   0.120   5.970  0.1030  0.6533 -0.9606
  502MOL0     C67684   5.376   0.102   6.059  0.5049  0.4033  0.0561
  502MOL0     N67685   5.487  -0.218   6.759 -0.1102  0.7204 -0.3087
  502MOL0     N67686   5.479  -0.193   6.884  0.8386 -0.4523 -0.9175
  502MOL0     C67687   5.155   0.665   7.664 -0.3952  0.0870  0.6926
  502MOL0     C67688   5.142   0.761   7.757  0.6527 -0.7202 -0.9117
  502MOL0     C67689   5.093   0.974   8.156  0.2670  0.3249  0.6376
  502MOL0     C67690   4.973   1.031   8.173 -0.3945 -0.1964  0.3963
  502MOL0     C67691   4.940   1.124   8.268 -0.3378  0.9865  0.8188
  502MOL0     C67692   5.041   1.173   8.357 -0.4409  0.5327 -0.1626
  502MOL0     O67693   5.025   1.288   8.435  0.3128 -0.5888 -0.8563
  502MOL0     C67694   4.895   1.344   8.457 -0.5117 -0.4532 -0.7307
  502MOL0     C67695   4.803   1.258   8.549 -0.2984  0.9497  0.1136
  502MOL0     C67696   4.652   1.279   8.515 -0.0419  0.9495  0.1840
  502MOL0     C67697   4.553   1.179   8.581 -0.3470  0.0166 -0.4158
  502MOL0     C67698   4.534   1.217   8.727  0.4080  0.4581  0.3981
  502MOL0     C67699   4.512   1.237   8.847  0.5112  0.2727 -0.3009
  502MOL0     C67700   5.159   1.112   8.352 -0.2626 -0.0084 -0.6324
  502MOL0     C67701   5.192   1.010   8.258  0.5611 -0.7125  0.2578
  502MOL0     C67702   5.323   0.944   8.290  0.1628 -1.0629 -0.1969
  502MOL0     H67703   4.939   0.593   7.963 -1.3378  1.1869 -1.4882
  502MOL0     H67704   4.995   0.408   7.801  2.6128 -1.4215 -2.0832
  502MOL0     H67705   5.161   0.271   7.670  1.3465  1.6639 -0.1477
  502MOL0     H67706   5.005   0.278   7.579  0.2217 -0.2114 -1.9919
  502MOL0     H67707   5.153   0.134   7.479 -1.8976  0.6471 -0.4310
  502MOL0     H67708   5.276   0.263   7.452  0.7437 -1.9552  0.1141
  502MOL0     H67709   5.069   0.365   7.304  0.8843 -0.2980 -1.3666
  502MOL0     H67710   4.995   0.205   7.322 -0.9485  1.2569  1.0799
  502MOL0     H67711   5.198   0.102   7.227 -0.6179 -0.6814 -1.6258
  502MOL0     H67712   5.111   0.206   7.116  0.8077  0.6330 -1.0435
  502MOL0     H67713   5.266   0.330   7.079 -2.7036 -0.4142  0.0212
  502MOL0     H67714   5.314   0.360   7.255  1.1848  0.6602 -0.3017
  502MOL0     H67715   5.504   0.282   7.175  1.4870 -1.6333 -0.7923
  502MOL0     H67716   5.438   0.132   7.240 -2.1872 -1.0516  0.4692
  502MOL0     H67717   5.558   0.122   7.021  0.3528 -0.3480  1.3045
  502MOL0     H67718   5.418   0.203   6.953  2.2743  0.0145 -1.6031
  502MOL0     H67719   5.427  -0.067   7.107 -1.7509 -1.1361 -0.3069
  502MOL0     H67720   5.284   0.001   7.040  0.0296 -0.0024 -1.5694
  502MOL0     H67721   5.372   0.078   6.743 -2.6304 -0.9674  0.3508
  502MOL0     H67722   5.540  -0.098   6.481  0.5275 -0.0853  0.3849
  502MOL0     H67723   5.422  -0.222   6.508 -1.8121  0.0772 -1.8810
  502MOL0     H67724   5.251  -0.015   6.549  1.8643  0.2327  2.8780
  502MOL0     H67725   5.392   0.078   6.491  0.6683 -1.4044  0.6899
  502MOL0     H67726   5.239  -0.149   6.361  0.9925 -0.9280 -0.6867
  502MOL0     H67727   5.385  -0.067   6.294 -1.8600 -2.8935 -2.6274
  502MOL0     H67728   5.109   0.047   6.339  0.8384 -2.0421  0.9741
  502MOL0     H67729   5.172  -0.009   6.186  2.4349 -1.3238 -1.2805
  502MOL0     H67730   5.439   0.354   6.279  1.3700 -2.4720  1.0347
  502MOL0     H67731   5.618   0.398   6.124  1.3749 -1.2038 -0.2228
  502MOL0     H67732   5.759   0.472   5.681 -0.5432 -1.6905  1.6466
  502MOL0     H67733   5.966   0.526   5.554 -0.3604 -4.4299 -1.3203
  502MOL0     H67734   6.210   0.378   5.537  0.4728 -0.0470 -1.4471
  502MOL0     H67735   6.194   0.543   5.465 -2.4812  1.5499  3.2454
  502MOL0     H67736   6.460   0.424   5.588  0.4913  0.1323 -0.0648
  502MOL0     H67737   6.413   0.447   5.407 -1.7485 -2.9258  0.2226
  502MOL0     H67738   6.438   0.686   5.577  2.9022 -0.0424  0.7589
  502MOL0     H67739   6.577   0.608   5.522 -0.4251  1.1357  0.5827
  502MOL0     H67740   6.329   0.676   5.346 -0.9976 -1.6866  3.8326
  502MOL0     H67741   6.479   0.634   5.275  1.2322 -1.9366  1.6318
  502MOL0     H67742   6.599   0.837   5.397  1.1155 -0.8349 -0.7205
  502MOL0     H67743   6.431   0.883   5.446  0.0587 -2.0639  1.6175
  502MOL0     H67744   6.555   0.868   5.163  0.9068  0.9252  0.9994
  502MOL0     H67745   6.381   0.892   5.182 -0.3181  1.5015  0.9297
  502MOL0     H67746   6.577   1.078   5.305 -0.0320  0.0232  0.0605
  502MOL0     H67747   6.411   1.089   5.321  0.2230 -2.3393  0.7442
  502MOL0     H67748   6.565   1.097   5.040 -1.5741  2.1878 -3.9162
  502MOL0     H67749   6.392   1.114   5.056 -0.1578  3.1304 -2.3254
  502MOL0     H67750   6.198   0.461   5.917 -1.2493 -1.8043  1.5268
  502MOL0     H67751   6.001   0.373   6.023  1.1912  0.0493  0.1093
  502MOL0     H67752   5.482   0.047   5.890 -1.4174 -0.5418  0.0733
  502MOL0     H67753   5.321   0.012   6.033  1.1961 -0.4033  1.2944
  502MOL0     H67754   5.220   0.696   7.583 -0.6834  1.4052  0.9464
  502MOL0     H67755   5.190   0.857   7.743 -0.5673 -0.0093 -0.4315
  502MOL0     H67756   4.886   0.998   8.116 -1.6086 -0.7652  2.4573
  502MOL0     H67757   4.844   1.174   8.269 -0.4417  0.7891  1.2578
  502MOL0     H67758   4.853   1.364   8.358  0.0913 -0.7356 -1.0441
  502MOL0     H67759   4.912   1.445   8.497  2.0581 -0.4640 -1.6076
  502MOL0     H67760   4.825   1.282   8.653  0.9910 -3.1315  0.9711
  502MOL0     H67761   4.822   1.151   8.534  0.6353  0.5407  3.4166
  502MOL0     H67762   4.631   1.267   8.409 -1.8804 -0.4319  0.6444
  502MOL0     H67763   4.620   1.382   8.531  1.3557  1.6357 -1.1641
  502MOL0     H67764   4.456   1.190   8.531  0.5903 -3.0715 -3.2608
  502MOL0     H67765   4.580   1.075   8.560 -1.7112 -0.3837 -0.3294
  502MOL0     H67766   4.472   1.252   8.945 -2.1709 -0.2309 -1.2455
  502MOL0     H67767   5.218   1.121   8.442 -0.9924  1.2432 -0.2505
  502MOL0     H67768   5.403   0.960   8.217  1.4175 -2.5784  0.7921
  502MOL0     H67769   5.359   0.979   8.388 -0.0206  3.0073 -1.3989
  502MOL0     H67770   5.292   0.840   8.305 -1.7849 -0.5792 -0.5671
  503MOL0     O67771   7.440   4.064   4.120  0.3356  0.5589  0.6057
  503MOL0     C67772   7.530   3.992   4.074 -1.0415  1.0720 -0.2304
  503MOL0     O67773   7.657   4.028   4.034 -0.0259  0.7658  0.1824
  503MOL0     C67774   7.680   4.157   3.984 -0.7561  1.7086  0.0554
  503MOL0     C67775   7.602   4.272   3.973 -0.5373 -0.1642 -0.9218
  503MOL0     C67776   7.648   4.382   3.907 -0.2461 -1.1139  0.5030
  503MOL0     C67777   7.786   4.395   3.880  0.4419 -0.7032 -0.1109
  503MOL0     O67778   7.821   4.515   3.835  0.8239  0.0400  1.2229
  503MOL0     C67779   7.908   4.506   3.722  0.1396  0.1612 -0.0495
  503MOL0     C67780   7.931   4.652   3.680  0.7861 -0.4230  1.5528
  503MOL0     C67781   7.993   4.663   3.542 -1.2616  0.6693  0.7331
  503MOL0     C67782   8.154   4.659   3.543  0.2683  0.3283 -0.7583
  503MOL0     C67783   8.222   4.713   3.418 -0.2347 -0.4249 -0.0091
  503MOL0     C67784   8.380   4.724   3.439  0.1265 -0.9151 -0.2177
  503MOL0     C67785   8.450   4.786   3.309  1.0078 -0.3245  0.7862
  503MOL0     C67786   8.601   4.781   3.313 -0.1332 -0.2502  0.1344
  503MOL0     N67787   8.650   4.646   3.312  0.2957  0.5582 -0.8895
  503MOL0     C67788   8.655   4.555   3.204  0.9292 -0.4359  0.0834
  503MOL0     C67789   8.694   4.435   3.250  0.3366  0.4955 -0.8693
  503MOL0     C67790   8.707   4.310   3.169 -0.2722 -0.2090 -0.6200
  503MOL0     C67791   8.825   4.216   3.216 -0.4669  0.1809  0.4885
  503MOL0     C67792   8.808   4.078   3.146  0.0938 -0.8272  0.9134
  503MOL0     C67793   8.866   3.963   3.235 -0.2357 -0.1057 -0.5258
  503MOL0     O67794   8.819   3.840   3.187 -0.0730 -0.3400 -0.2128
  503MOL0     C67795   8.796   3.741   3.279 -0.5100  1.0228  0.0917
  503MOL0     C67796   8.872   3.726   3.402  0.9479 -0.6526  0.2073
  503MOL0     C67797   8.848   3.624   3.494 -0.3080  0.0327 -0.0401
  503MOL0     C67798   8.747   3.532   3.463  0.0686  0.0036 -0.8270
  503MOL0     C67799   8.708   3.424   3.557 -0.0158  0.1561  0.2944
  503MOL0     O67800   8.780   3.410   3.667  0.1122  0.4054 -0.0016
  503MOL0     C67801   8.763   3.295   3.748 -0.5367 -0.4121 -0.0902
  503MOL0     C67802   8.874   3.205   3.752 -0.5131  0.6290  0.4671
  503MOL0     C67803   8.862   3.095   3.838  0.4511  0.0480  0.3387
  503MOL0     C67804   8.753   3.080   3.930 -0.5215 -0.6556  0.5841
  503MOL0     O67805   8.740   2.965   4.003  0.2795  0.5045 -0.1398
  503MOL0     C67806   8.799   2.968   4.136 -0.2372  0.6225  0.6683
  503MOL0     C67807   8.730   3.069   4.230  0.3471  0.2563  0.0934
  503MOL0     C67808   8.778   3.041   4.381 -0.1212 -0.3644 -0.1049
  503MOL0     C67809   8.661   2.975   4.455  0.2979 -0.3824  0.0900
  503MOL0     C67810   8.716   2.951   4.593 -0.2757  0.2510  0.3386
  503MOL0     C67811   8.724   3.077   4.678 -0.4741  0.7108 -1.1006
  503MOL0     C67812   8.797   3.038   4.801 -0.0136  0.6469 -0.0839
  503MOL0     C67813   8.798   3.144   4.904 -0.1810  0.3651 -0.6105
  503MOL0    Cl67814   8.912   3.111   5.054 -0.0877 -0.5327  0.0654
  503MOL0     C67815   8.644   3.171   3.923  0.1792  0.7134 -0.1773
  503MOL0     C67816   8.648   3.268   3.828 -0.4888  0.0814 -0.0212
  503MOL0     O67817   8.611   3.354   3.534 -0.3711  0.2685 -0.1037
  503MOL0     C67818   8.684   3.532   3.335 -0.3233 -1.0938  0.0406
  503MOL0     C67819   8.705   3.641   3.246  0.0237  0.6283  0.0806
  503MOL0     N67820   8.716   4.455   3.389  0.9457  0.3464 -0.1543
  503MOL0     N67821   8.689   4.575   3.422 -0.0365 -1.0695  0.1574
  503MOL0     C67822   7.870   4.284   3.894 -0.1805 -0.8114  0.8281
  503MOL0     C67823   7.814   4.170   3.938 -0.0465 -0.2265 -0.3537
  503MOL0     C67824   7.512   3.844   4.069  0.4103 -0.0180  0.5771
  503MOL0     C67825   7.586   3.772   3.971 -0.4625 -0.3382  0.0465
  503MOL0     C67826   7.558   3.636   3.943  0.0289  0.0462 -0.1707
  503MOL0     C67827   7.446   3.565   4.006 -0.2208 -0.9082 -0.2369
  503MOL0     O67828   7.426   3.435   3.968 -1.0517  0.1065 -0.0971
  503MOL0     C67829   7.315   3.369   4.021  0.5504  0.1687  0.0533
  503MOL0     C67830   7.324   3.233   3.942 -0.0646  0.8403  0.5793
  503MOL0     C67831   7.208   3.141   3.986  0.0590 -0.3773  0.9954
  503MOL0     C67832   7.060   3.183   3.960  0.5985 -0.7040 -0.2827
  503MOL0     C67833   7.037   3.193   3.813 -0.6347  0.7280 -0.2336
  503MOL0     C67834   7.013   3.193   3.693 -0.4191 -0.6214 -0.3648
  503MOL0     C67835   7.380   3.634   4.104  0.1890  0.1911  0.3544
  503MOL0     C67836   7.407   3.766   4.130 -0.3435  0.2572 -0.2602
  503MOL0     C67837   7.349   3.816   4.263 -0.2142 -0.4139 -0.1518
  503MOL0     H67838   7.499   4.264   4.006 -0.2825  3.3021  1.2127
  503MOL0     H67839   7.580   4.464   3.883 -1.2253 -2.4241 -1.4369
  503MOL0     H67840   8.008   4.465   3.745  1.5261  1.5964 -2.9830
  503MOL0     H67841   7.870   4.445   3.639 -0.1212  0.1117  0.1070
  503MOL0     H67842   7.985   4.712   3.753  1.7696 -0.4166  0.8322
  503MOL0     H67843   7.833   4.701   3.683  2.0513  2.2063  3.2016
  503MOL0     H67844   7.966   4.757   3.493 -1.8345  1.4281  2.4248
  503MOL0     H67845   7.957   4.582   3.478 -0.0757  0.5138  0.2448
  503MOL0     H67846   8.205   4.722   3.616  1.3213  1.5512 -2.4790
  503MOL0     H67847   8.182   4.556   3.567 -2.2378  0.1440  1.9312
  503MOL0     H67848   8.215   4.647   3.330  1.7407  1.4078 -1.6395
  503MOL0     H67849   8.193   4.816   3.399  0.4023 -0.3829 -0.8199
  503MOL0     H67850   8.412   4.772   3.532  1.3763 -1.4250 -0.3580
  503MOL0     H67851   8.399   4.618   3.457 -2.8085 -1.5418 -0.3662
  503MOL0     H67852   8.423   4.892   3.306 -2.0184 -0.9983 -0.6807
  503MOL0     H67853   8.409   4.749   3.214  1.2564  1.0329  0.1185
  503MOL0     H67854   8.645   4.823   3.222  1.5886 -1.7803  0.2050
  503MOL0     H67855   8.633   4.834   3.403 -2.5355 -0.6097  1.2968
  503MOL0     H67856   8.612   4.567   3.105  1.8803 -0.8191 -0.3973
  503MOL0     H67857   8.616   4.250   3.182  0.0097 -0.5758 -0.2959
  503MOL0     H67858   8.719   4.340   3.065  0.8906  0.3976 -0.3281
  503MOL0     H67859   8.923   4.246   3.176 -2.2841  3.7529 -1.8260
  503MOL0     H67860   8.827   4.201   3.324  2.2563 -1.5341  0.2952
  503MOL0     H67861   8.864   4.077   3.052 -0.6413 -2.9229  0.4377
  503MOL0     H67862   8.701   4.054   3.135 -0.0896 -1.0213  2.7774
  503MOL0     H67863   8.840   3.975   3.341 -0.6801 -1.0575 -0.5232
  503MOL0     H67864   8.975   3.967   3.243 -0.3729  2.4228  1.4555
  503MOL0     H67865   8.958   3.789   3.422  1.0038 -0.0072 -1.8255
  503MOL0     H67866   8.900   3.627   3.589 -1.8039  2.1366  0.7890
  503MOL0     H67867   8.966   3.241   3.708 -1.3939 -1.4267 -3.4043
  503MOL0     H67868   8.939   3.019   3.846 -0.2181 -0.6581  0.1916
  503MOL0     H67869   8.766   2.872   4.175  0.2465  0.5119  0.8054
  503MOL0     H67870   8.907   2.982   4.136 -0.3121  1.2770  0.4615
  503MOL0     H67871   8.757   3.168   4.195  1.0269 -0.4672 -1.5131
  503MOL0     H67872   8.621   3.056   4.222  0.0956  0.8289  2.0740
  503MOL0     H67873   8.867   2.978   4.382 -0.7450 -1.2686 -0.4002
  503MOL0     H67874   8.807   3.132   4.434 -1.9743 -0.1454  0.6080
  503MOL0     H67875   8.626   2.886   4.402 -2.3411  1.2333 -1.0351
  503MOL0     H67876   8.579   3.047   4.457 -0.5606 -1.3535  0.1130
  503MOL0     H67877   8.811   2.897   4.594  0.0844  0.5843 -3.2217
  503MOL0     H67878   8.643   2.885   4.642  1.3917 -1.4653  0.6485
  503MOL0     H67879   8.776   3.163   4.633  0.8054 -1.3460 -3.8708
  503MOL0     H67880   8.624   3.097   4.717 -0.1529 -0.4746  0.3958
  503MOL0     H67881   8.904   3.032   4.779  0.0912  1.0015  0.3255
  503MOL0     H67882   8.769   2.936   4.829  0.3057  0.6581  0.2893
  503MOL0     H67883   8.838   3.232   4.853  0.6844 -1.8841 -4.1595
  503MOL0     H67884   8.701   3.171   4.949  0.6734  1.0255  0.9086
  503MOL0     H67885   8.561   3.159   3.992 -0.0256 -2.3381 -0.7981
  503MOL0     H67886   8.562   3.333   3.819  0.7436  1.7553 -0.1922
  503MOL0     H67887   8.610   3.455   3.316 -0.5398 -0.3651 -2.4817
  503MOL0     H67888   8.642   3.637   3.158 -2.8050  1.5292  1.8913
  503MOL0     H67889   7.976   4.283   3.874 -0.5096  0.0926 -1.2678
  503MOL0     H67890   7.884   4.087   3.942  0.8716  0.5842  1.1688
  503MOL0     H67891   7.657   3.833   3.918 -2.2308  3.0786  1.3212
  503MOL0     H67892   7.606   3.591   3.857  0.4742  0.7939 -0.3275
  503MOL0     H67893   7.218   3.415   4.000  0.2470 -0.6572 -0.3843
  503MOL0     H67894   7.322   3.348   4.128  4.1677 -0.9112 -0.2441
  503MOL0     H67895   7.420   3.187   3.963  0.4010  2.2977  1.7726
  503MOL0     H67896   7.317   3.258   3.835  0.2868  2.5445  0.9305
  503MOL0     H67897   7.220   3.134   4.094  2.6083  0.2924  0.8161
  503MOL0     H67898   7.226   3.045   3.936 -0.0669 -0.0103  0.2347
  503MOL0     H67899   6.988   3.112   4.001  3.6607 -4.8945 -1.5109
  503MOL0     H67900   7.041   3.287   3.990 -1.3791 -0.7668 -1.1452
  503MOL0     H67901   7.001   3.202   3.586  1.3280  0.1689 -0.5199
  503MOL0     H67902   7.311   3.582   4.169  0.1439  1.7146  1.5888
  503MOL0     H67903   7.257   3.867   4.234 -0.2199 -0.4248 -0.1525
  503MOL0     H67904   7.325   3.745   4.343 -2.7413  1.7023  1.1283
  503MOL0     H67905   7.418   3.891   4.303  0.7435 -1.0269 -0.6303
  504MOL0     O67906   4.462   7.351   6.067 -0.2049 -0.0425 -0.9702
  504MOL0     C67907   4.418   7.462   6.047  0.5637  0.8109 -0.2772
  504MOL0     O67908   4.464   7.541   5.947  0.0726  0.2142 -0.4337
  504MOL0     C67909   4.579   7.502   5.882 -0.5000 -0.9920  0.1859
  504MOL0     C67910   4.706   7.559   5.904  0.9916 -0.4726 -0.7673
  504MOL0     C67911   4.810   7.536   5.817  0.4464  0.2048 -0.1302
  504MOL0     C67912   4.791   7.464   5.699  0.5018 -1.0318 -0.4270
  504MOL0     O67913   4.890   7.475   5.611  0.4883 -0.3391 -0.0321
  504MOL0     C67914   4.904   7.363   5.515  0.3686 -1.2534 -1.1864
  504MOL0     C67915   4.938   7.230   5.591 -0.1241  0.7962  0.3576
  504MOL0     C67916   4.951   7.112   5.493  0.0796  0.0041  0.7313
  504MOL0     C67917   4.949   6.974   5.558 -0.3549  0.0910 -0.6483
  504MOL0     C67918   4.982   6.874   5.448 -0.3195  0.0528 -0.5175
  504MOL0     C67919   4.922   6.741   5.480  1.3264  0.1115  0.6283
  504MOL0     C67920   4.799   6.708   5.393 -0.4824 -0.7830 -0.2561
  504MOL0     C67921   4.751   6.566   5.429 -0.0270 -0.7469  0.4503
  504MOL0     N67922   4.686   6.584   5.558 -0.1027 -0.7969  0.4822
  504MOL0     C67923   4.574   6.665   5.585  0.4139 -0.1401  0.0760
  504MOL0     C67924   4.539   6.642   5.709  0.1091  0.2060  0.7003
  504MOL0     C67925   4.422   6.707   5.778  0.3081 -0.6376  0.5267
  504MOL0     C67926   4.447   6.838   5.852  0.7326 -0.3758  0.0021
  504MOL0     C67927   4.521   6.950   5.767 -0.1500  0.1421  0.1842
  504MOL0     C67928   4.576   7.054   5.861 -0.1899 -0.1230 -0.9040
  504MOL0     O67929   4.686   6.986   5.926  0.5781  0.2758 -0.2780
  504MOL0     C67930   4.796   7.068   5.947 -0.2649  0.2194  0.7487
  504MOL0     C67931   4.922   7.002   5.935 -0.6054  0.1723  0.0832
  504MOL0     C67932   5.043   7.060   5.964  0.0491 -0.6201 -0.4795
  504MOL0     C67933   5.042   7.197   5.983 -0.0985 -0.3291 -0.6035
  504MOL0     C67934   5.170   7.269   6.000  0.0451  0.6062 -0.4636
  504MOL0     O67935   5.287   7.214   5.937 -0.2884 -0.2908  0.9438
  504MOL0     C67936   5.392   7.291   5.968  0.2821 -0.4731  0.2094
  504MOL0     C67937   5.488   7.265   6.066 -0.0767 -0.1082  1.1323
  504MOL0     C67938   5.611   7.334   6.078  1.0762  0.1286 -0.1176
  504MOL0     C67939   5.640   7.427   5.982  0.6130 -0.5317 -0.1011
  504MOL0     O67940   5.748   7.511   5.984 -0.5403 -0.0605  0.0897
  504MOL0     C67941   5.842   7.510   6.096  0.4526  0.8946 -0.4998
  504MOL0     C67942   5.941   7.623   6.066 -0.1607 -0.7178 -0.3885
  504MOL0     C67943   6.037   7.679   6.175  1.8855 -0.1430  0.4213
  504MOL0     C67944   6.125   7.792   6.125 -1.1064  0.0285 -0.3430
  504MOL0     C67945   6.231   7.825   6.236  0.2122 -0.3819  0.9978
  504MOL0     C67946   6.342   7.925   6.187  0.2962  0.2572 -1.0308
  504MOL0     C67947   6.304   8.064   6.152  0.2589 -0.2100  0.7181
  504MOL0     C67948   6.191   8.115   6.234 -0.3160  0.4622  0.1691
  504MOL0    Cl67949   6.182   8.281   6.252  0.1071 -0.1236 -0.2469
  504MOL0     C67950   5.552   7.447   5.875 -0.8328  0.0193  0.1622
  504MOL0     C67951   5.428   7.392   5.876  0.2429  0.9167  0.0284
  504MOL0     O67952   5.166   7.379   6.058  0.0459 -0.2301 -0.7148
  504MOL0     C67953   4.925   7.269   5.976 -0.1797 -0.9241  1.1783
  504MOL0     C67954   4.799   7.207   5.969 -0.1310  0.0158  0.6852
  504MOL0     N67955   4.624   6.551   5.760 -0.5441 -0.8438  0.8840
  504MOL0     N67956   4.715   6.521   5.676 -0.8154  0.9201 -0.7826
  504MOL0     C67957   4.662   7.406   5.669 -0.1135 -0.7358  0.0452
  504MOL0     C67958   4.562   7.417   5.771  0.0835  0.8052  1.0077
  504MOL0     C67959   4.281   7.498   6.094 -0.1752 -0.0135  0.1052
  504MOL0     C67960   4.206   7.601   6.036 -0.3826  0.0297  0.6539
  504MOL0     C67961   4.075   7.636   6.063  0.2028  0.6299  0.1799
  504MOL0     C67962   4.023   7.577   6.174 -0.0589  0.3369  0.6303
  504MOL0     O67963   3.907   7.646   6.210  0.3110  0.0739  0.0267
  504MOL0     C67964   3.835   7.610   6.323 -0.1662 -0.3342 -0.6748
  504MOL0     C67965   3.750   7.491   6.297  0.5659  0.7541 -0.1109
  504MOL0     C67966   3.652   7.446   6.404  0.3725  1.3301 -0.3194
  504MOL0     C67967   3.546   7.555   6.413 -0.2492  0.7961 -0.9221
  504MOL0     C67968   3.431   7.501   6.497 -0.7541 -0.2954 -0.7661
  504MOL0     C67969   3.335   7.465   6.570 -0.6356 -0.3403  0.5618
  504MOL0     C67970   4.091   7.478   6.250 -1.0016 -0.7216  0.4481
  504MOL0     C67971   4.216   7.440   6.205 -0.3214  0.3612 -0.1085
  504MOL0     C67972   4.270   7.328   6.297  0.4775 -0.4752 -0.3820
  504MOL0     H67973   4.721   7.619   5.993 -0.9106 -0.2644 -0.5404
  504MOL0     H67974   4.911   7.568   5.840  0.3097  0.3961  0.2074
  504MOL0     H67975   4.808   7.359   5.462  0.0151  4.6663 -1.6010
  504MOL0     H67976   4.988   7.382   5.447  0.3855  1.2380 -0.5434
  504MOL0     H67977   4.856   7.214   5.661 -1.9317  2.8931 -1.1343
  504MOL0     H67978   5.032   7.245   5.645 -0.4822 -1.1294  1.6036
  504MOL0     H67979   5.037   7.133   5.428 -2.1440  5.8273 -1.0064
  504MOL0     H67980   4.865   7.100   5.425  0.8711 -2.3573  0.0661
  504MOL0     H67981   5.031   6.967   5.630 -0.2223 -1.4852 -0.9246
  504MOL0     H67982   4.853   6.957   5.608  0.7569 -1.7413  0.9587
  504MOL0     H67983   4.952   6.911   5.350  0.7631 -0.1524 -0.9395
  504MOL0     H67984   5.091   6.867   5.443 -0.4325 -4.0078 -0.4388
  504MOL0     H67985   5.009   6.676   5.465 -0.3668 -3.2121  3.6477
  504MOL0     H67986   4.895   6.731   5.585 -0.5705 -0.0338  0.1685
  504MOL0     H67987   4.832   6.711   5.289  0.8527  1.2706  0.1663
  504MOL0     H67988   4.715   6.773   5.420 -0.8237 -2.4623  3.2718
  504MOL0     H67989   4.681   6.525   5.356  0.5758 -4.3507  1.6726
  504MOL0     H67990   4.832   6.496   5.453  0.3669  0.2100  2.1231
  504MOL0     H67991   4.534   6.744   5.522 -0.8014  1.3871  2.5980
  504MOL0     H67992   4.346   6.732   5.703  0.3804  1.5859  1.1105
  504MOL0     H67993   4.372   6.643   5.851  1.4429 -0.6257  1.3337
  504MOL0     H67994   4.347   6.876   5.876 -0.1257 -1.0187 -2.2949
  504MOL0     H67995   4.506   6.821   5.943 -0.7822  2.2162  1.6120
  504MOL0     H67996   4.454   6.995   5.692 -0.4515  0.4393  0.6323
  504MOL0     H67997   4.598   6.896   5.711  0.6851  0.6946  0.7879
  504MOL0     H67998   4.509   7.087   5.940  4.1837  3.2590  1.8310
  504MOL0     H67999   4.600   7.150   5.813 -2.6681  1.3454  0.6085
  504MOL0     H68000   4.925   6.894   5.920 -3.1994  0.1243 -0.5464
  504MOL0     H68001   5.137   7.006   5.966 -0.0291 -0.7650  1.3351
  504MOL0     H68002   5.475   7.177   6.128 -0.6544  0.0617  1.2568
  504MOL0     H68003   5.673   7.306   6.162  0.2033 -2.2705 -0.1785
  504MOL0     H68004   5.787   7.534   6.187  1.8838  1.9230  0.1268
  504MOL0     H68005   5.895   7.415   6.100  1.7792  1.5842 -1.0291
  504MOL0     H68006   5.995   7.587   5.978 -1.7977 -0.8726 -1.3908
  504MOL0     H68007   5.880   7.706   6.029 -0.5884 -0.9536 -0.2307
  504MOL0     H68008   5.976   7.723   6.254  1.5229  0.0544  0.0348
  504MOL0     H68009   6.095   7.591   6.203  3.0064  0.4430  0.0293
  504MOL0     H68010   6.064   7.879   6.098  2.5197  2.3431 -2.0780
  504MOL0     H68011   6.177   7.769   6.031  0.0725  3.0240 -0.5563
  504MOL0     H68012   6.280   7.734   6.272  0.8031 -0.6226 -0.3529
  504MOL0     H68013   6.183   7.872   6.322 -0.2248 -1.3873  1.3152
  504MOL0     H68014   6.417   7.933   6.267 -1.1561 -3.4078  0.9943
  504MOL0     H68015   6.404   7.884   6.107 -1.7598 -3.0427 -1.1194
  504MOL0     H68016   6.269   8.074   6.048  1.7827  1.4222  0.3239
  504MOL0     H68017   6.392   8.129   6.155 -1.3082  2.0129  3.7568
  504MOL0     H68018   6.100   8.077   6.187  0.9785 -0.4574 -1.7007
  504MOL0     H68019   6.190   8.084   6.339 -0.3376  0.1724  0.0832
  504MOL0     H68020   5.581   7.506   5.788 -1.4680  0.3852  0.1934
  504MOL0     H68021   5.364   7.392   5.788 -0.5906 -0.6827  0.5860
  504MOL0     H68022   4.935   7.377   5.985 -0.5713 -1.0411  4.2049
  504MOL0     H68023   4.701   7.251   5.987  1.2516  3.5407  0.3978
  504MOL0     H68024   4.628   7.358   5.578 -2.2971 -2.0476  1.4805
  504MOL0     H68025   4.463   7.386   5.740  1.1690  0.3206 -2.4095
  504MOL0     H68026   4.242   7.652   5.947  0.3639  1.0731  1.5304
  504MOL0     H68027   4.030   7.730   6.031  2.5045  0.8900 -2.7395
  504MOL0     H68028   3.770   7.696   6.344 -0.2825 -0.4694 -0.4745
  504MOL0     H68029   3.906   7.600   6.405  1.5299  1.2459 -1.8633
  504MOL0     H68030   3.818   7.408   6.274 -0.6733 -1.0070  2.1462
  504MOL0     H68031   3.688   7.506   6.209 -1.7575 -0.2201  1.2745
  504MOL0     H68032   3.703   7.420   6.498  1.7094 -0.0595 -1.3836
  504MOL0     H68033   3.608   7.352   6.371  3.9957 -0.4836 -0.5348
  504MOL0     H68034   3.591   7.635   6.472  1.0015 -1.0550  0.7469
  504MOL0     H68035   3.514   7.591   6.315 -3.7500 -0.3559 -0.3364
  504MOL0     H68036   3.269   7.410   6.634  0.7839 -3.1945 -0.2428
  504MOL0     H68037   4.051   7.443   6.345  0.6410  1.1102  1.8963
  504MOL0     H68038   4.303   7.248   6.231 -1.0266 -0.1089 -1.6240
  504MOL0     H68039   4.358   7.373   6.344  2.3923 -2.2601 -2.0604
  504MOL0     H68040   4.197   7.290   6.369 -2.0550  2.5047 -1.1735
  505MOL0     O68041   8.826   2.382  11.370  0.2300  0.2045  0.7309
  505MOL0     C68042   8.894   2.470  11.325 -0.1016 -0.9926 -0.1223
  505MOL0     O68043   9.021   2.451  11.259 -0.2486  0.1846 -0.6443
  505MOL0     C68044   9.088   2.333  11.287 -0.7097 -0.4458  0.1541
  505MOL0     C68045   9.096   2.232  11.188  0.0760 -0.3527  0.1833
  505MOL0     C68046   9.172   2.119  11.230  0.2647 -0.4975  0.3026
  505MOL0     C68047   9.234   2.110  11.354  0.6131  0.3689 -0.1970
  505MOL0     O68048   9.303   1.988  11.382  0.3411 -0.1683  0.3653
  505MOL0     C68049   9.329   1.943  11.517  0.7167  0.1589 -0.2029
  505MOL0     C68050   9.476   1.938  11.557  0.2519 -0.0135  0.7437
  505MOL0     C68051   9.555   1.832  11.480 -0.5453 -0.3614  0.3487
  505MOL0     C68052   9.533   1.696  11.551  0.5794  0.0903 -0.3422
  505MOL0     C68053   9.586   1.585  11.468  0.2212 -0.6676 -0.0751
  505MOL0     C68054   9.620   1.461  11.559 -0.7070  0.6304  0.6586
  505MOL0     C68055   9.491   1.384  11.574 -0.8381 -0.1546  0.0139
  505MOL0     C68056   9.519   1.242  11.641  0.1820  0.5468  0.1129
  505MOL0     N68057   9.566   1.256  11.781 -0.4934  0.1414  0.2938
  505MOL0     C68058   9.614   1.152  11.861  0.9121  0.2877 -0.6208
  505MOL0     C68059   9.618   1.196  11.986 -0.0047 -0.2860  0.1523
  505MOL0     C68060   9.661   1.120  12.108 -0.2709  0.0044 -0.1808
  505MOL0     C68061   9.808   1.091  12.121 -1.2552  0.7582  0.2647
  505MOL0     C68062   9.889   1.202  12.198  0.2060 -0.0002  0.3285
  505MOL0     C68063  10.031   1.147  12.217  0.4935  0.6541  0.3489
  505MOL0     O68064  10.121   1.226  12.291 -0.3760 -0.3322 -0.3537
  505MOL0     C68065  10.250   1.176  12.286  0.1601 -0.2100  0.8110
  505MOL0     C68066  10.355   1.253  12.340  0.1534 -0.4224 -0.6056
  505MOL0     C68067  10.495   1.220  12.324 -0.0010 -0.4383  0.6822
  505MOL0     C68068  10.526   1.097  12.261 -0.6907 -0.0416  0.1682
  505MOL0     C68069  10.662   1.056  12.238 -0.8578  0.0064 -0.9100
  505MOL0     O68070  10.754   1.118  12.321  0.7136 -0.3491  0.0592
  505MOL0     C68071  10.887   1.119  12.307 -0.3073 -0.0664 -0.0551
  505MOL0     C68072  10.963   1.209  12.388  0.1703  0.6605  0.0145
  505MOL0     C68073  11.103   1.206  12.391  0.2147 -0.0681  0.6489
  505MOL0     C68074  11.174   1.115  12.314 -0.7156  0.1653  0.4686
  505MOL0     O68075  11.310   1.099  12.308  0.7688  0.2585 -0.1208
  505MOL0     C68076  11.380   1.132  12.429 -0.1108 -0.7572  0.8766
  505MOL0     C68077  11.537   1.118  12.394  0.2230 -0.1595 -0.5505
  505MOL0     C68078  11.580   1.224  12.289 -0.3427  1.0609 -0.3458
  505MOL0     C68079  11.729   1.219  12.276 -0.1893  0.4885  0.6802
  505MOL0     C68080  11.773   1.342  12.200 -0.4561 -0.3865 -0.1024
  505MOL0     C68081  11.920   1.324  12.143  0.0305  0.3676 -0.5842
  505MOL0     C68082  11.991   1.452  12.111 -0.4224  0.2992  0.7299
  505MOL0     C68083  12.111   1.445  12.013 -0.3514  0.5170  0.0464
  505MOL0    Cl68084  12.051   1.352  11.862  0.1277  0.6200  0.3717
  505MOL0     C68085  11.108   1.040  12.220  0.5389 -0.1489  0.1657
  505MOL0     C68086  10.961   1.035  12.220 -1.4815  0.1498  0.1710
  505MOL0     O68087  10.681   0.979  12.144 -0.7794 -0.5120  0.0035
  505MOL0     C68088  10.418   1.026  12.207  0.0309  0.4499  0.4775
  505MOL0     C68089  10.283   1.056  12.226 -0.1855 -0.2302 -0.3047
  505MOL0     N68090   9.563   1.323  11.987 -0.8962 -0.5829  1.0687
  505MOL0     N68091   9.544   1.357  11.865 -0.1702 -1.2172 -0.3271
  505MOL0     C68092   9.218   2.207  11.451  0.4672 -0.6856  0.0947
  505MOL0     C68093   9.137   2.314  11.415  0.3594 -0.3039  0.4603
  505MOL0     C68094   8.827   2.609  11.322  0.3373 -0.0471  0.7778
  505MOL0     C68095   8.909   2.724  11.352 -0.0773  1.1969 -0.0436
  505MOL0     C68096   8.853   2.855  11.354 -0.1377 -0.2261 -0.1327
  505MOL0     C68097   8.725   2.873  11.316 -0.7445  0.2628  0.6743
  505MOL0     O68098   8.671   3.002  11.310 -0.0653  0.6581  0.6143
  505MOL0     C68099   8.566   3.026  11.408  0.0807  0.4627 -0.7493
  505MOL0     C68100   8.520   3.176  11.419  0.1921  0.4045 -0.0025
  505MOL0     C68101   8.414   3.216  11.315  0.2731  0.5706  0.3356
  505MOL0     C68102   8.337   3.343  11.356 -0.6114 -0.5812  0.7232
  505MOL0     C68103   8.241   3.394  11.254  0.7868  0.2917 -0.7345
  505MOL0     C68104   8.168   3.427  11.172 -1.7871  0.1332 -0.3718
  505MOL0     C68105   8.652   2.758  11.274  0.2455 -0.1629  0.7607
  505MOL0     C68106   8.701   2.629  11.271  0.5725 -0.2696  0.2944
  505MOL0     C68107   8.620   2.521  11.199  0.5465 -0.0208 -0.6196
  505MOL0     H68108   9.059   2.241  11.086 -0.4971  0.3482  0.4470
  505MOL0     H68109   9.176   2.026  11.173 -0.5981  1.4424 -3.2121
  505MOL0     H68110   9.277   1.997  11.597 -0.5762  0.9097 -1.5044
  505MOL0     H68111   9.288   1.842  11.525 -1.9728  1.1956  0.2208
  505MOL0     H68112   9.473   1.914  11.664  1.0298  1.4953  1.1335
  505MOL0     H68113   9.528   2.032  11.538  2.1096 -1.5549 -2.7750
  505MOL0     H68114   9.656   1.871  11.467 -0.1614 -1.2506  0.5512
  505MOL0     H68115   9.508   1.834  11.382 -1.7183 -1.3060  0.8619
  505MOL0     H68116   9.604   1.709  11.634 -0.3136 -2.5623  0.9554
  505MOL0     H68117   9.434   1.681  11.596  0.6858  0.0543 -0.1202
  505MOL0     H68118   9.512   1.559  11.392  1.7488 -0.9516 -1.5369
  505MOL0     H68119   9.675   1.618  11.413 -1.8874  2.0295 -2.1617
  505MOL0     H68120   9.694   1.405  11.501 -2.3815  1.2598 -2.3091
  505MOL0     H68121   9.660   1.494  11.655 -0.9612 -0.8186  1.2925
  505MOL0     H68122   9.445   1.366  11.476 -1.2150 -0.5072  0.2500
  505MOL0     H68123   9.415   1.440  11.630  0.2035  2.1124 -0.7427
  505MOL0     H68124   9.426   1.185  11.634  0.8908 -0.5309 -0.6659
  505MOL0     H68125   9.585   1.178  11.583 -4.2375 -3.0940 -1.4784
  505MOL0     H68126   9.647   1.056  11.824  1.5841  0.7114 -1.1569
  505MOL0     H68127   9.627   1.173  12.198  0.1809  0.6888 -0.4138
  505MOL0     H68128   9.603   1.028  12.117 -0.3151 -0.0586 -1.0360
  505MOL0     H68129   9.818   0.992  12.165  1.9705  0.5927 -0.6071
  505MOL0     H68130   9.855   1.085  12.022  1.1989  0.1579  1.3877
  505MOL0     H68131   9.846   1.222  12.296  5.7209 -0.4016  3.2357
  505MOL0     H68132   9.893   1.293  12.137 -1.0120 -0.5877 -0.6890
  505MOL0     H68133  10.063   1.117  12.117 -0.8872  0.9195 -0.1979
  505MOL0     H68134  10.023   1.050  12.267  0.9991  1.5078  2.1551
  505MOL0     H68135  10.327   1.348  12.385  1.6688 -0.7630  1.2276
  505MOL0     H68136  10.574   1.283  12.364 -0.6246  0.5765  0.3404
  505MOL0     H68137  10.912   1.282  12.450 -0.2602  0.8679 -0.5742
  505MOL0     H68138  11.154   1.275  12.457  0.8644 -0.8437  0.9799
  505MOL0     H68139  11.370   1.237  12.458  2.5135 -0.7549  2.0021
  505MOL0     H68140  11.349   1.064  12.508 -0.4931 -3.3562 -1.3806
  505MOL0     H68141  11.590   1.139  12.487 -1.0763  0.1388  0.1353
  505MOL0     H68142  11.553   1.014  12.362 -0.4537 -0.0949 -1.1356
  505MOL0     H68143  11.531   1.206  12.193  1.4031  1.5097 -1.3555
  505MOL0     H68144  11.545   1.320  12.329 -1.0989 -0.6705  3.6946
  505MOL0     H68145  11.759   1.131  12.217 -2.2550  1.4939 -2.1509
  505MOL0     H68146  11.789   1.217  12.367  0.9909  0.7126 -0.0733
  505MOL0     H68147  11.749   1.428  12.263 -1.3035 -0.6645 -0.0352
  505MOL0     H68148  11.703   1.354  12.116 -0.2263 -0.8205 -0.3620
  505MOL0     H68149  11.977   1.267  12.217  1.6081 -1.1318 -2.8115
  505MOL0     H68150  11.918   1.259  12.054 -0.9820 -0.8430  0.2851
  505MOL0     H68151  12.034   1.499  12.201 -1.3057  0.7177  0.9452
  505MOL0     H68152  11.914   1.516  12.066 -1.1238 -1.5447 -0.8179
  505MOL0     H68153  12.156   1.536  11.973  3.2164 -2.1620 -2.8034
  505MOL0     H68154  12.193   1.401  12.071  2.3443  2.6995 -1.8927
  505MOL0     H68155  11.141   0.967  12.147 -0.7837  0.0356 -0.6684
  505MOL0     H68156  10.921   0.964  12.148 -1.5600  0.5142 -0.1501
  505MOL0     H68157  10.433   0.933  12.153 -2.8030 -0.4304  1.0170
  505MOL0     H68158  10.219   0.980  12.182 -0.9385  0.2540 -0.0624
  505MOL0     H68159   9.257   2.201  11.553 -2.0234 -0.8255  1.1225
  505MOL0     H68160   9.107   2.393  11.483 -1.1640 -0.6582  0.2411
  505MOL0     H68161   9.014   2.726  11.379 -0.0892  2.0372 -0.0214
  505MOL0     H68162   8.911   2.945  11.373  0.3299  0.0689 -2.6120
  505MOL0     H68163   8.604   2.993  11.505  0.6857  3.0092 -0.0261
  505MOL0     H68164   8.480   2.967  11.376 -0.0462  1.3729 -2.1892
  505MOL0     H68165   8.610   3.238  11.414  1.4194 -1.3647 -0.9952
  505MOL0     H68166   8.476   3.185  11.518  4.0149 -1.2010  2.0300
  505MOL0     H68167   8.339   3.136  11.309  0.9525 -0.0512  0.0758
  505MOL0     H68168   8.464   3.230  11.219  2.6936 -2.2616  1.0489
  505MOL0     H68169   8.291   3.315  11.452  1.6950 -3.8858  1.0252
  505MOL0     H68170   8.399   3.427  11.390  0.3260 -0.9072 -0.1366
  505MOL0     H68171   8.104   3.452  11.089 -0.3653  0.6187 -1.3570
  505MOL0     H68172   8.550   2.753  11.238  0.3318 -3.1688  0.7296
  505MOL0     H68173   8.516   2.553  11.193  1.3416  3.1471  0.5881
  505MOL0     H68174   8.672   2.514  11.103  1.1661  1.6868 -0.4425
  505MOL0     H68175   8.608   2.431  11.260 -1.9620  0.6821  0.0426
  506MOL0     O68176   4.589   9.427  10.154  0.0306  0.1610 -0.0720
  506MOL0     C68177   4.644   9.371  10.247 -0.1279 -0.3110 -0.7140
  506MOL0     O68178   4.776   9.330  10.243 -0.2887  0.5483  0.9512
  506MOL0     C68179   4.838   9.321  10.117 -0.4502  0.1384 -0.1211
  506MOL0     C68180   4.780   9.245  10.013 -0.4590 -0.0812  0.2089
  506MOL0     C68181   4.854   9.211   9.893 -0.3931 -0.5989  0.5836
  506MOL0     C68182   4.976   9.271   9.874  0.9237  0.0391 -0.3462
  506MOL0     O68183   5.049   9.228   9.764 -0.3103 -0.4187  0.3547
  506MOL0     C68184   5.138   9.329   9.707 -0.6299 -0.5003  0.6804
  506MOL0     C68185   5.159   9.294   9.561  0.5879  0.8648 -0.3286
  506MOL0     C68186   5.273   9.379   9.493  0.9675  0.5230 -0.2377
  506MOL0     C68187   5.258   9.383   9.338 -0.0793  0.2075 -0.0267
  506MOL0     C68188   5.361   9.470   9.267  0.4804 -0.4129  0.6761
  506MOL0     C68189   5.497   9.387   9.262  0.4647 -0.4720 -0.5209
  506MOL0     C68190   5.607   9.490   9.221  0.4926  0.4398 -0.3527
  506MOL0     C68191   5.608   9.532   9.073 -0.6127  0.2470 -0.1012
  506MOL0     N68192   5.701   9.441   9.006  0.1765  0.4580  0.1691
  506MOL0     C68193   5.686   9.312   8.967  0.6257  0.1163  0.6866
  506MOL0     C68194   5.806   9.264   8.931  0.4073 -1.3029 -0.2258
  506MOL0     C68195   5.852   9.125   8.880  0.7453 -0.0367 -0.7989
  506MOL0     C68196   5.721   9.044   8.865 -0.4282  0.4348  0.8394
  506MOL0     C68197   5.747   8.898   8.814 -0.8968  0.7499  0.7974
  506MOL0     C68198   5.822   8.898   8.686  0.8983  0.3962  0.1309
  506MOL0     O68199   5.962   8.901   8.709 -0.5395  1.0192 -0.6816
  506MOL0     C68200   6.061   8.914   8.621 -0.3813 -0.2160 -0.0693
  506MOL0     C68201   6.050   8.952   8.489 -0.3020  0.7259 -0.7316
  506MOL0     C68202   6.163   8.950   8.400  0.1274 -0.3437  0.6175
  506MOL0     C68203   6.289   8.927   8.447 -0.1116  0.6640 -0.9311
  506MOL0     C68204   6.404   8.945   8.358 -0.7435  0.5770 -0.7782
  506MOL0     O68205   6.532   8.930   8.408  0.0701 -0.0178 -0.7661
  506MOL0     C68206   6.647   8.966   8.342 -0.3952 -0.4429 -0.7313
  506MOL0     C68207   6.759   8.925   8.420 -0.6348  0.7921  0.5509
  506MOL0     C68208   6.892   8.939   8.370  0.0564  0.1910 -0.2672
  506MOL0     C68209   6.908   9.007   8.248 -0.5567 -0.2658  0.6155
  506MOL0     O68210   7.038   9.027   8.193  0.2019 -0.1280 -0.3696
  506MOL0     C68211   7.125   9.105   8.279  0.3908  0.2753  1.1734
  506MOL0     C68212   7.202   9.204   8.194 -0.2216 -0.4098 -0.4755
  506MOL0     C68213   7.119   9.326   8.157 -0.4258 -0.5340 -1.1124
  506MOL0     C68214   7.177   9.401   8.043 -0.4787 -0.6859  0.3263
  506MOL0     C68215   7.094   9.509   7.988 -0.0537 -0.2065  0.3607
  506MOL0     C68216   7.191   9.594   7.899 -0.0316 -0.2132 -0.0265
  506MOL0     C68217   7.120   9.716   7.829 -0.2182  0.8195  0.7741
  506MOL0     C68218   7.218   9.817   7.768 -0.9486 -0.8576 -0.1749
  506MOL0    Cl68219   7.332   9.741   7.650 -0.0651 -0.5392 -0.0926
  506MOL0     C68220   6.797   9.059   8.178 -0.3058  0.5118 -0.4132
  506MOL0     C68221   6.667   9.035   8.215  0.3160  0.5526 -0.1801
  506MOL0     O68222   6.383   8.983   8.245  0.6242  0.5981  0.2659
  506MOL0     C68223   6.304   8.895   8.584 -0.0686 -0.7826 -0.4911
  506MOL0     C68224   6.190   8.887   8.670  0.6715 -0.0760  0.4172
  506MOL0     N68225   5.895   9.362   8.955 -0.1222 -0.7051  0.0517
  506MOL0     N68226   5.835   9.464   8.997 -0.3478 -0.1604 -0.0183
  506MOL0     C68227   5.031   9.360   9.969 -0.3946 -0.0730  0.1643
  506MOL0     C68228   4.960   9.384  10.087 -0.1583  0.2539 -0.2391
  506MOL0     C68229   4.563   9.354  10.366 -0.1398 -0.2373  0.3382
  506MOL0     C68230   4.434   9.423  10.368  0.3292  0.2161 -0.6612
  506MOL0     C68231   4.369   9.450  10.489  0.7498 -0.1096 -0.0831
  506MOL0     C68232   4.420   9.406  10.610  0.1930  0.9032 -0.2856
  506MOL0     O68233   4.341   9.429  10.716  0.3367 -0.5225  0.4388
  506MOL0     C68234   4.397   9.452  10.845  0.1484 -0.5563  0.1792
  506MOL0     C68235   4.495   9.568  10.864 -0.4866 -0.6429 -0.0095
  506MOL0     C68236   4.449   9.718  10.850 -0.1385  0.5873 -1.3321
  506MOL0     C68237   4.389   9.761  10.986 -0.3028 -0.9423 -0.3268
  506MOL0     C68238   4.252   9.714  11.011 -1.5005 -0.2483 -0.7470
  506MOL0     C68239   4.137   9.689  11.016 -0.6101 -0.1484 -0.6018
  506MOL0     C68240   4.539   9.326  10.609 -0.4639 -0.6416 -0.4201
  506MOL0     C68241   4.613   9.300  10.491  0.0769 -0.4173  0.3711
  506MOL0     C68242   4.735   9.204  10.493  0.6607 -0.1991 -0.2377
  506MOL0     H68243   4.674   9.222  10.026 -0.4703  1.0076  2.6843
  506MOL0     H68244   4.815   9.157   9.808  2.2975 -0.2813 -0.9601
  506MOL0     H68245   5.102   9.433   9.707  1.6157  0.3276  0.1405
  506MOL0     H68246   5.232   9.329   9.763  0.0282 -0.0226 -0.3918
  506MOL0     H68247   5.067   9.315   9.506 -0.0918  2.0475  1.1871
  506MOL0     H68248   5.170   9.188   9.536 -0.5950  0.6876 -0.1345
  506MOL0     H68249   5.362   9.346   9.547 -0.0809 -1.3705  0.4365
  506MOL0     H68250   5.255   9.481   9.530 -2.1948 -0.2879  0.7076
  506MOL0     H68251   5.271   9.283   9.297 -0.6688 -0.0908  0.4922
  506MOL0     H68252   5.158   9.414   9.305  0.5298 -0.0444 -2.2613
  506MOL0     H68253   5.333   9.502   9.166  1.8252 -0.5724  0.2311
  506MOL0     H68254   5.375   9.559   9.329  2.7293 -0.3251  0.1026
  506MOL0     H68255   5.529   9.349   9.360  1.0021 -2.4899 -1.4213
  506MOL0     H68256   5.503   9.294   9.205  1.0024 -0.8519  0.1258
  506MOL0     H68257   5.703   9.450   9.253 -0.1569 -1.4334 -0.6085
  506MOL0     H68258   5.588   9.580   9.282 -1.6113  2.1803 -3.2945
  506MOL0     H68259   5.508   9.526   9.028 -0.8727  1.9275  0.1746
  506MOL0     H68260   5.626   9.640   9.072  0.5686  0.0597 -0.5497
  506MOL0     H68261   5.587   9.267   8.965  0.0817  1.2398 -1.9318
  506MOL0     H68262   5.912   9.132   8.789 -1.1883 -0.6629 -2.1908
  506MOL0     H68263   5.909   9.078   8.961 -0.7465 -1.2012 -0.3741
  506MOL0     H68264   5.653   9.034   8.950  1.4553 -0.3791  2.3325
  506MOL0     H68265   5.673   9.101   8.785 -2.9456 -1.5460  0.8141
  506MOL0     H68266   5.652   8.844   8.810 -0.7848  0.5852  0.1618
  506MOL0     H68267   5.802   8.843   8.890  1.6570  0.4258 -1.1244
  506MOL0     H68268   5.788   8.973   8.614  1.2030 -0.2948 -0.7462
  506MOL0     H68269   5.789   8.800   8.650 -1.5296  1.0231  0.4810
  506MOL0     H68270   5.957   8.981   8.440 -0.3298  2.0299  0.0484
  506MOL0     H68271   6.149   8.968   8.294  2.1060  0.4445  0.4623
  506MOL0     H68272   6.741   8.886   8.520 -0.5763  2.5269  1.2783
  506MOL0     H68273   6.978   8.915   8.431 -0.3110  6.2578  3.4985
  506MOL0     H68274   7.071   9.162   8.355 -0.2070 -0.1730  1.0893
  506MOL0     H68275   7.200   9.039   8.322  0.5556 -1.9231 -2.0981
  506MOL0     H68276   7.293   9.232   8.248  0.6990 -2.5031 -0.8769
  506MOL0     H68277   7.231   9.144   8.108 -2.0711  0.0954 -1.5040
  506MOL0     H68278   7.021   9.282   8.136 -0.7990 -0.2271 -0.0685
  506MOL0     H68279   7.115   9.394   8.242 -0.6364 -0.3981 -1.2310
  506MOL0     H68280   7.221   9.336   7.966 -0.2275 -1.5928  1.2207
  506MOL0     H68281   7.263   9.449   8.091 -0.4134  0.6292 -1.0210
  506MOL0     H68282   7.061   9.570   8.072  1.4373  2.2541 -0.7216
  506MOL0     H68283   7.007   9.468   7.936 -0.6401  0.3411  0.9094
  506MOL0     H68284   7.276   9.627   7.960 -1.9546 -1.4430  3.6282
  506MOL0     H68285   7.227   9.531   7.817  3.3802 -0.0962  1.2093
  506MOL0     H68286   7.059   9.769   7.904 -3.0432 -1.7260  0.4598
  506MOL0     H68287   7.066   9.664   7.749  0.2193  2.2033 -0.4656
  506MOL0     H68288   7.164   9.898   7.720  0.8041 -1.3800 -3.3193
  506MOL0     H68289   7.257   9.863   7.859 -2.2160 -0.7290  0.3301
  506MOL0     H68290   6.815   9.113   8.085 -1.2025 -0.4887 -1.1939
  506MOL0     H68291   6.588   9.076   8.152  0.7526  2.6781  0.5767
  506MOL0     H68292   6.404   8.888   8.626  0.0555  3.6851  0.4951
  506MOL0     H68293   6.204   8.868   8.776 -2.5438 -1.1580  0.7427
  506MOL0     H68294   5.128   9.405   9.952  1.4992 -4.3381 -1.8730
  506MOL0     H68295   5.014   9.449  10.155 -1.6291  1.7672 -0.4607
  506MOL0     H68296   4.384   9.478  10.289 -1.6218  3.4889  2.5569
  506MOL0     H68297   4.277   9.508  10.488 -0.7080 -2.3111  0.6502
  506MOL0     H68298   4.444   9.362  10.884 -0.3541 -1.7930 -1.9130
  506MOL0     H68299   4.316   9.470  10.917 -1.0400  0.8685 -1.4080
  506MOL0     H68300   4.572   9.550  10.789  0.6137 -0.2491  0.9917
  506MOL0     H68301   4.555   9.556  10.954  1.2957  0.6921 -0.9516
  506MOL0     H68302   4.383   9.738  10.765  1.0402  0.2046 -2.3731
  506MOL0     H68303   4.539   9.773  10.822  0.4040  0.2459 -0.3174
  506MOL0     H68304   4.462   9.742  11.065  0.6603  4.9749  0.7310
  506MOL0     H68305   4.372   9.869  10.988 -2.8228 -1.2692 -0.7811
  506MOL0     H68306   4.033   9.666  11.027  0.1220 -3.3136  1.0978
  506MOL0     H68307   4.570   9.280  10.702 -0.5587  0.1551  0.0171
  506MOL0     H68308   4.731   9.147  10.586  3.8196  2.8261  2.0573
  506MOL0     H68309   4.740   9.137  10.406  2.4145  1.3536 -1.4388
  506MOL0     H68310   4.834   9.250  10.506 -0.2956  1.9503 -0.2162
  507MOL0     O68311   0.074   5.458   7.011  0.0067 -0.2502  0.1364
  507MOL0     C68312  -0.013   5.388   7.058 -0.2151 -0.0050  0.4819
  507MOL0     O68313   0.013   5.281   7.144 -0.2570  0.5836  0.2586
  507MOL0     C68314   0.149   5.257   7.170  1.0047 -0.0691  0.8409
  507MOL0     C68315   0.194   5.248   7.298  0.5252 -0.7459 -0.7981
  507MOL0     C68316   0.328   5.228   7.336 -0.4666  0.8260  0.4995
  507MOL0     C68317   0.422   5.200   7.234  0.0283  1.5219 -0.7912
  507MOL0     O68318   0.557   5.167   7.262  0.2118  0.1082  0.5665
  507MOL0     C68319   0.588   5.078   7.375 -0.6658 -0.2317 -0.1870
  507MOL0     C68320   0.646   4.965   7.298 -0.7422  1.0229 -0.1815
  507MOL0     C68321   0.679   4.839   7.383  0.2974 -0.0160 -0.1331
  507MOL0     C68322   0.781   4.876   7.495  0.2989 -0.7643 -0.7909
  507MOL0     C68323   0.850   4.757   7.547 -0.3173  0.1248 -0.4175
  507MOL0     C68324   0.974   4.801   7.625 -0.2897 -0.3364 -0.5960
  507MOL0     C68325   1.067   4.688   7.673 -0.2669 -0.0999  0.0724
  507MOL0     C68326   1.163   4.655   7.558  1.5514 -0.5778 -0.6065
  507MOL0     N68327   1.274   4.582   7.616  0.2123  0.0322  0.0383
  507MOL0     C68328   1.303   4.450   7.615 -0.4876 -0.0240  0.0364
  507MOL0     C68329   1.419   4.423   7.659  0.6082  0.0380 -0.6005
  507MOL0     C68330   1.476   4.278   7.680 -0.0761 -0.5751 -0.7030
  507MOL0     C68331   1.495   4.195   7.558 -1.0649  0.8851  0.2666
  507MOL0     C68332   1.563   4.051   7.579  0.2811  0.3398  0.1105
  507MOL0     C68333   1.519   3.959   7.470 -0.3701 -0.1473  0.5419
  507MOL0     O68334   1.575   3.833   7.504 -0.6291  0.1908  0.4188
  507MOL0     C68335   1.695   3.797   7.451 -0.2927 -0.0998  0.5998
  507MOL0     C68336   1.794   3.888   7.392  0.4202  0.2072 -0.3578
  507MOL0     C68337   1.901   3.841   7.322 -0.5419 -0.0794  1.2882
  507MOL0     C68338   1.921   3.702   7.303  0.8615 -0.1818 -0.8761
  507MOL0     C68339   2.032   3.647   7.219 -0.5359  0.5138  0.0649
  507MOL0     O68340   2.096   3.729   7.141 -0.3394  0.8225 -0.6624
  507MOL0     C68341   2.201   3.686   7.062 -0.7112  0.8007 -0.5870
  507MOL0     C68342   2.224   3.773   6.956 -0.3426 -0.6257  0.1714
  507MOL0     C68343   2.326   3.741   6.867 -0.7634  0.8338  0.2097
  507MOL0     C68344   2.427   3.647   6.892 -0.1508  1.3374 -0.4771
  507MOL0     O68345   2.525   3.630   6.799  0.5841 -0.1465 -0.2014
  507MOL0     C68346   2.593   3.505   6.823  0.1709  0.0407 -0.4020
  507MOL0     C68347   2.690   3.478   6.711  0.5204  0.4575  1.1710
  507MOL0     C68348   2.821   3.570   6.710 -0.0064 -0.6343  0.3403
  507MOL0     C68349   2.921   3.575   6.833 -0.4015  0.3196 -0.0310
  507MOL0     C68350   3.046   3.661   6.810 -0.3300  0.4254  0.2050
  507MOL0     C68351   3.181   3.613   6.868 -0.7973 -0.3263 -0.3145
  507MOL0     C68352   3.195   3.592   7.019 -0.0798 -0.4581  0.0523
  507MOL0     C68353   3.140   3.706   7.096 -0.0340  0.3225 -0.5729
  507MOL0    Cl68354   3.242   3.854   7.069  0.0533  0.2635  0.1978
  507MOL0     C68355   2.399   3.568   7.008  0.0485  0.6757  0.0283
  507MOL0     C68356   2.287   3.583   7.086  0.2031  1.0947 -0.1627
  507MOL0     O68357   2.043   3.526   7.220 -0.1073  0.1607  0.2110
  507MOL0     C68358   1.827   3.618   7.363 -0.1845  0.6070 -0.5229
  507MOL0     C68359   1.718   3.668   7.437  0.0897  1.0826 -0.1164
  507MOL0     N68360   1.463   4.545   7.704  0.6968 -0.0184  0.4740
  507MOL0     N68361   1.383   4.637   7.673 -0.4055  0.6438  0.0660
  507MOL0     C68362   0.376   5.207   7.101 -0.1889 -0.8830 -0.2159
  507MOL0     C68363   0.240   5.234   7.070 -0.3093 -0.2896  0.3305
  507MOL0     C68364  -0.153   5.421   7.009  0.0855  0.1310  0.8088
  507MOL0     C68365  -0.174   5.522   6.906  0.0199  0.5675  0.1278
  507MOL0     C68366  -0.310   5.544   6.863  0.1942 -0.5888 -0.0567
  507MOL0     C68367  -0.419   5.486   6.919  0.0063 -0.0039  0.0481
  507MOL0     O68368  -0.535   5.549   6.880  0.1439  0.1045 -0.2839
  507MOL0     C68369  -0.666   5.502   6.918 -0.7264 -0.2700  0.3134
  507MOL0     C68370  -0.698   5.371   6.838 -0.7041  0.0695  0.1997
  507MOL0     C68371  -0.725   5.407   6.697 -0.2842 -0.5467  0.6009
  507MOL0     C68372  -0.737   5.286   6.602 -0.3707 -0.3359  0.0382
  507MOL0     C68373  -0.855   5.210   6.634 -0.4199 -0.4439 -0.0424
  507MOL0     C68374  -0.969   5.176   6.651  0.8530  0.8222  0.4093
  507MOL0     C68375  -0.402   5.384   7.013  0.6252 -0.0835  0.4713
  507MOL0     C68376  -0.269   5.347   7.051  0.6593 -0.6537  0.2518
  507MOL0     C68377  -0.269   5.218   7.136  1.0818  0.1641  0.1203
  507MOL0     H68378   0.130   5.269   7.384  1.6747  1.3079 -0.3683
  507MOL0     H68379   0.360   5.226   7.440  1.3058 -0.1576 -0.0246
  507MOL0     H68380   0.653   5.129   7.447 -2.2391  4.6884 -1.7925
  507MOL0     H68381   0.497   5.046   7.426  0.6898 -1.8310  1.3670
  507MOL0     H68382   0.733   4.995   7.238  0.4491  2.6914  2.2099
  507MOL0     H68383   0.557   4.932   7.244 -1.9270 -0.0460  2.2784
  507MOL0     H68384   0.722   4.762   7.319 -0.5953 -0.1159 -0.6283
  507MOL0     H68385   0.589   4.799   7.431  2.5325 -1.6114  3.1327
  507MOL0     H68386   0.860   4.930   7.442 -2.8329  0.6404 -4.4778
  507MOL0     H68387   0.741   4.938   7.576 -0.4891 -1.7539 -0.3963
  507MOL0     H68388   0.784   4.709   7.620 -0.6499  0.9638 -0.1494
  507MOL0     H68389   0.878   4.686   7.469 -1.8129 -0.2760 -0.6124
  507MOL0     H68390   1.030   4.872   7.563 -1.6708  0.0016 -1.4911
  507MOL0     H68391   0.943   4.865   7.708 -1.2857  2.5389 -3.0209
  507MOL0     H68392   1.018   4.594   7.698  2.4655 -1.7109 -0.1766
  507MOL0     H68393   1.126   4.716   7.761  2.3237  2.0312 -2.1473
  507MOL0     H68394   1.114   4.608   7.472 -1.1046  0.5503  0.1927
  507MOL0     H68395   1.207   4.749   7.521  1.1824  1.2634  3.1568
  507MOL0     H68396   1.230   4.380   7.574 -2.2946  0.1588  2.6393
  507MOL0     H68397   1.560   4.276   7.749 -0.6146 -0.9944 -0.0408
  507MOL0     H68398   1.394   4.223   7.729  0.5384 -2.4824 -1.7055
  507MOL0     H68399   1.395   4.185   7.515 -0.9763  1.7450 -0.1783
  507MOL0     H68400   1.560   4.255   7.492  1.6643 -1.5836  0.5007
  507MOL0     H68401   1.527   3.990   7.662  0.3056 -1.8237 -1.3934
  507MOL0     H68402   1.671   4.069   7.590  0.3609 -0.1036  0.0566
  507MOL0     H68403   1.548   4.002   7.374  3.0688 -1.7152  0.7288
  507MOL0     H68404   1.410   3.962   7.475 -0.3116  1.6159  2.2396
  507MOL0     H68405   1.794   3.996   7.404  1.4714  0.3576 -1.4625
  507MOL0     H68406   1.973   3.906   7.274 -2.9499  1.0888 -1.0446
  507MOL0     H68407   2.157   3.855   6.933  0.6375 -0.5101 -2.6604
  507MOL0     H68408   2.333   3.803   6.778 -5.6216 -0.7069 -1.5859
  507MOL0     H68409   2.647   3.504   6.918 -1.5716  1.7619  0.6954
  507MOL0     H68410   2.528   3.417   6.829  1.7412 -1.2275 -1.2754
  507MOL0     H68411   2.733   3.381   6.734 -0.6648 -0.5042 -0.4960
  507MOL0     H68412   2.634   3.473   6.618 -1.5372 -0.2376  2.3708
  507MOL0     H68413   2.884   3.544   6.625  1.0902 -1.4692  1.3699
  507MOL0     H68414   2.784   3.670   6.686  0.2527 -0.4593  0.6572
  507MOL0     H68415   2.964   3.475   6.850  0.5177  0.4426 -1.4468
  507MOL0     H68416   2.869   3.605   6.925 -0.4615 -2.4464  0.9536
  507MOL0     H68417   3.020   3.766   6.823  0.0028  0.5678 -0.2334
  507MOL0     H68418   3.047   3.661   6.700  0.6514 -0.3495  0.2040
  507MOL0     H68419   3.192   3.515   6.820 -1.6071 -0.8696  0.5781
  507MOL0     H68420   3.261   3.673   6.823 -1.8269  1.7607  0.5026
  507MOL0     H68421   3.301   3.572   7.033 -0.2980 -2.2329 -0.6012
  507MOL0     H68422   3.131   3.504   7.033  1.3477 -2.4920 -4.4218
  507MOL0     H68423   3.037   3.727   7.066  0.2143  0.5802 -1.2583
  507MOL0     H68424   3.141   3.686   7.204  3.2886  1.1626 -0.3334
  507MOL0     H68425   2.470   3.494   7.043  0.8318  1.0039 -0.8215
  507MOL0     H68426   2.281   3.530   7.181 -2.5077  3.0777  0.9182
  507MOL0     H68427   1.841   3.510   7.367  0.2137  0.6788  0.2204
  507MOL0     H68428   1.641   3.608   7.486  1.7351 -2.0073 -1.0289
  507MOL0     H68429   0.448   5.189   7.022 -0.5434  2.5446 -1.4819
  507MOL0     H68430   0.204   5.243   6.968  0.1469  3.1365  0.3701
  507MOL0     H68431  -0.103   5.590   6.861 -1.3391  2.2519  0.4068
  507MOL0     H68432  -0.323   5.616   6.784  1.0772  0.3761  0.6544
  507MOL0     H68433  -0.743   5.577   6.898 -0.6623 -0.6277 -1.4045
  507MOL0     H68434  -0.674   5.483   7.026 -1.0531 -0.0312  0.3320
  507MOL0     H68435  -0.785   5.325   6.886  0.4103 -3.0768 -0.6112
  507MOL0     H68436  -0.620   5.295   6.846 -0.6032  0.2092  0.5670
  507MOL0     H68437  -0.640   5.459   6.654  0.4925 -1.0874  1.4422
  507MOL0     H68438  -0.814   5.470   6.686  0.7094  0.5593 -1.8086
  507MOL0     H68439  -0.761   5.335   6.507  1.2370  0.6273  0.0941
  507MOL0     H68440  -0.644   5.227   6.598 -0.0033  0.1108  1.5335
  507MOL0     H68441  -1.075   5.180   6.662  0.9631  0.3907  1.8046
  507MOL0     H68442  -0.489   5.331   7.051  0.5759  0.7215  1.5299
  507MOL0     H68443  -0.188   5.156   7.097  2.1727  1.7589 -0.2623
  507MOL0     H68444  -0.249   5.234   7.243 -2.2808  2.5048  0.5388
  507MOL0     H68445  -0.361   5.160   7.125  2.2823 -1.8192 -0.0537
  508MOL0     O68446  10.934   5.298   4.431  0.3924  0.2919  0.0379
  508MOL0     C68447  10.976   5.368   4.341  0.1394 -0.3048  0.4781
  508MOL0     O68448  11.100   5.397   4.331 -0.3542  0.0274 -0.0243
  508MOL0     C68449  11.202   5.312   4.379  0.5316 -0.0356 -0.5144
  508MOL0     C68450  11.197   5.177   4.427  0.2971 -0.2151 -0.4050
  508MOL0     C68451  11.309   5.113   4.474  0.5146  0.4139  0.8213
  508MOL0     C68452  11.430   5.176   4.484  0.1818 -0.6942 -1.0198
  508MOL0     O68453  11.530   5.113   4.559  0.9719 -0.3066 -0.3068
  508MOL0     C68454  11.494   5.007   4.650 -0.2362  0.0858  0.9546
  508MOL0     C68455  11.602   4.982   4.751  0.5436  0.4755  0.4222
  508MOL0     C68456  11.618   5.105   4.826  0.2164 -0.5643  0.3074
  508MOL0     C68457  11.720   5.089   4.945 -0.1756  0.0460  0.1725
  508MOL0     C68458  11.726   5.213   5.031 -0.3276 -0.2918  0.6040
  508MOL0     C68459  11.839   5.186   5.135  0.5403 -0.6275 -0.1272
  508MOL0     C68460  11.867   5.304   5.226  0.3128 -0.0650  0.1636
  508MOL0     C68461  11.999   5.280   5.301  0.4385 -0.2759  0.2471
  508MOL0     N68462  11.999   5.344   5.426  0.1178 -0.7609  0.0090
  508MOL0     C68463  11.942   5.304   5.545  0.0370 -0.6813 -0.6605
  508MOL0     C68464  11.935   5.416   5.628 -0.9555  0.9618  0.0170
  508MOL0     C68465  11.854   5.430   5.759  0.2491  0.1407 -0.2342
  508MOL0     C68466  11.703   5.473   5.747  0.5305  0.2012 -0.1321
  508MOL0     C68467  11.611   5.384   5.674  0.1687  0.3738 -0.0120
  508MOL0     C68468  11.493   5.480   5.630  0.1743  0.0864 -0.0651
  508MOL0     O68469  11.396   5.398   5.568  0.5468 -0.6046  0.3316
  508MOL0     C68470  11.257   5.415   5.595 -0.0603  0.5624 -0.7268
  508MOL0     C68471  11.171   5.307   5.558 -0.4822 -0.5194  0.4203
  508MOL0     C68472  11.032   5.324   5.552  0.4577 -0.5903  0.0845
  508MOL0     C68473  10.973   5.433   5.623 -0.3101  0.2205 -0.5019
  508MOL0     C68474  10.830   5.453   5.628 -0.2016  0.3065  0.6180
  508MOL0     O68475  10.779   5.573   5.660 -0.6365  0.2098 -0.0212
  508MOL0     C68476  10.654   5.614   5.614  1.1189  0.8637 -0.6186
  508MOL0     C68477  10.542   5.544   5.656 -0.3001 -0.8144 -1.5719
  508MOL0     C68478  10.423   5.559   5.593  0.5430  0.5533  0.1246
  508MOL0     C68479  10.404   5.659   5.500  0.0324  0.4181  0.7422
  508MOL0     O68480  10.274   5.677   5.459  0.0226 -0.0620  0.2340
  508MOL0     C68481  10.256   5.688   5.319  0.0615 -0.4341 -0.3174
  508MOL0     C68482  10.107   5.670   5.282 -1.1551 -1.1252  0.9720
  508MOL0     C68483  10.063   5.524   5.304 -0.2627  1.0443 -0.1220
  508MOL0     C68484   9.932   5.486   5.227  0.0230  0.7318 -1.0752
  508MOL0     C68485   9.943   5.346   5.175 -0.1446  0.5305 -0.3966
  508MOL0     C68486  10.032   5.340   5.052 -0.2373  0.4139  0.2962
  508MOL0     C68487   9.971   5.420   4.932 -0.5315  0.2636 -0.3740
  508MOL0     C68488  10.056   5.382   4.807  0.5430  0.0676  0.2296
  508MOL0    Cl68489  10.018   5.494   4.685 -0.1471 -0.3044  0.3586
  508MOL0     C68490  10.504   5.750   5.469  0.8325 -0.2958  0.1369
  508MOL0     C68491  10.637   5.714   5.523  0.1650 -0.0147 -0.0322
  508MOL0     O68492  10.766   5.356   5.585  0.0250  1.0557  0.4057
  508MOL0     C68493  11.057   5.527   5.672  0.1811  0.6289  0.3656
  508MOL0     C68494  11.195   5.519   5.661  0.7461 -0.3309 -0.4683
  508MOL0     N68495  11.977   5.527   5.554 -0.0459  0.7154  0.8360
  508MOL0     N68496  12.027   5.482   5.439 -0.3797  0.3344  1.3235
  508MOL0     C68497  11.450   5.304   4.443  0.5059 -0.8056 -0.2774
  508MOL0     C68498  11.333   5.373   4.394 -0.0978  0.6060 -0.3514
  508MOL0     C68499  10.882   5.429   4.250 -0.0154 -0.2227  0.2296
  508MOL0     C68500  10.755   5.470   4.304  0.6048  0.0238  0.5408
  508MOL0     C68501  10.655   5.525   4.226  0.3376 -0.3831  0.5361
  508MOL0     C68502  10.676   5.525   4.090  1.2233  0.3174 -0.3283
  508MOL0     O68503  10.571   5.573   4.011  1.4901  0.2689  0.5466
  508MOL0     C68504  10.466   5.481   3.985 -0.8867  0.4405  0.6518
  508MOL0     C68505  10.469   5.435   3.840 -0.8015  1.2249 -0.4798
  508MOL0     C68506  10.602   5.396   3.775  0.1973  0.8469 -0.5923
  508MOL0     C68507  10.590   5.300   3.646 -0.7836 -0.3787 -0.0540
  508MOL0     C68508  10.575   5.389   3.530 -0.0848 -0.1695 -0.7631
  508MOL0     C68509  10.570   5.476   3.448  0.6786 -0.1505  0.1852
  508MOL0     C68510  10.796   5.488   4.034 -1.1037 -0.2432  0.1468
  508MOL0     C68511  10.910   5.450   4.109  0.6531 -0.2679  0.2013
  508MOL0     C68512  11.038   5.400   4.045  0.2308 -0.3715 -0.2930
  508MOL0     H68513  11.100   5.127   4.425 -0.8971  1.9547 -0.1280
  508MOL0     H68514  11.286   5.011   4.505  3.4383 -1.1582 -1.6457
  508MOL0     H68515  11.402   5.040   4.699 -0.7148 -0.0282  0.1515
  508MOL0     H68516  11.478   4.911   4.601 -1.1984 -0.2844  1.9489
  508MOL0     H68517  11.691   4.948   4.697  0.8428  0.1983  1.0828
  508MOL0     H68518  11.569   4.901   4.816 -0.2450 -0.4570 -1.0925
  508MOL0     H68519  11.519   5.138   4.860  0.3601  1.6021 -1.1745
  508MOL0     H68520  11.653   5.182   4.756  0.4513 -1.1117 -0.1825
  508MOL0     H68521  11.685   5.006   5.006 -1.1911  2.8227  3.6936
  508MOL0     H68522  11.822   5.067   4.909 -0.2932  1.3718 -1.0651
  508MOL0     H68523  11.741   5.302   4.968  1.5008 -1.4804 -0.7265
  508MOL0     H68524  11.633   5.222   5.088 -0.1352  0.1694  0.8558
  508MOL0     H68525  11.835   5.095   5.196 -0.3991  0.3743  1.3550
  508MOL0     H68526  11.928   5.179   5.072  0.5464 -1.4642 -0.0350
  508MOL0     H68527  11.788   5.313   5.301  3.2768 -0.9805  3.6879
  508MOL0     H68528  11.880   5.398   5.170  0.4953 -0.3845 -0.3415
  508MOL0     H68529  12.000   5.173   5.326  1.1021  0.1079  1.9913
  508MOL0     H68530  12.093   5.303   5.249  1.2881 -1.1328  1.3479
  508MOL0     H68531  11.909   5.202   5.565 -2.3597  0.0381 -0.6650
  508MOL0     H68532  11.855   5.330   5.805 -2.3941 -0.1792 -0.7269
  508MOL0     H68533  11.917   5.497   5.818 -0.6686  1.1250 -0.3550
  508MOL0     H68534  11.675   5.503   5.848  0.1606  1.2148 -0.5228
  508MOL0     H68535  11.699   5.573   5.703  0.0916  0.7738  1.1678
  508MOL0     H68536  11.570   5.308   5.743  0.6524  0.9914  0.9832
  508MOL0     H68537  11.657   5.328   5.593  0.6209 -0.0591  0.5354
  508MOL0     H68538  11.525   5.562   5.566  2.3474 -0.2203  0.5655
  508MOL0     H68539  11.453   5.536   5.715 -1.0465 -0.3540 -0.3265
  508MOL0     H68540  11.224   5.226   5.508 -0.0728  0.0158 -0.0114
  508MOL0     H68541  10.967   5.255   5.498 -3.1958  1.7030  1.1856
  508MOL0     H68542  10.541   5.485   5.747  1.1033  3.7731  1.8034
  508MOL0     H68543  10.336   5.500   5.620  1.8581 -1.5681 -0.0292
  508MOL0     H68544  10.289   5.783   5.277  0.5508  0.3075  1.6241
  508MOL0     H68545  10.316   5.615   5.264  3.1602  0.0960  2.1347
  508MOL0     H68546  10.060   5.754   5.333 -1.2289  0.6369 -1.7702
  508MOL0     H68547  10.112   5.694   5.175  0.9040  0.7241  1.3934
  508MOL0     H68548  10.149   5.472   5.261 -2.2646 -3.7410  1.0228
  508MOL0     H68549  10.069   5.487   5.407  1.9848 -4.5012 -1.8333
  508MOL0     H68550   9.918   5.552   5.141  1.8638  1.0329 -1.1989
  508MOL0     H68551   9.840   5.486   5.285 -0.3714  0.2404 -1.6901
  508MOL0     H68552   9.838   5.330   5.149 -0.8357  3.0722  0.5386
  508MOL0     H68553   9.979   5.269   5.243 -1.0833 -0.3317 -0.8608
  508MOL0     H68554  10.134   5.374   5.072 -0.8861  3.2152 -0.7196
  508MOL0     H68555  10.028   5.235   5.019 -0.3776  0.7032 -0.6454
  508MOL0     H68556   9.981   5.527   4.951  0.0673 -0.0348  1.1309
  508MOL0     H68557   9.864   5.405   4.915 -0.9080  0.1916  1.8128
  508MOL0     H68558  10.162   5.400   4.828  0.3451  2.6806 -0.6068
  508MOL0     H68559  10.036   5.279   4.778 -1.0196 -0.0691  1.6329
  508MOL0     H68560  10.500   5.833   5.398 -0.2004  0.8368  1.4658
  508MOL0     H68561  10.717   5.779   5.487 -0.3623  0.3932 -0.4945
  508MOL0     H68562  11.022   5.616   5.724  0.1735  0.3895  0.7826
  508MOL0     H68563  11.248   5.610   5.689  0.6535 -1.0434  2.3656
  508MOL0     H68564  11.538   5.362   4.466 -1.4417  3.4231 -2.4012
  508MOL0     H68565  11.341   5.480   4.375  0.7052  0.3327 -1.7194
  508MOL0     H68566  10.742   5.459   4.411  2.3796 -1.6070  0.6444
  508MOL0     H68567  10.569   5.557   4.285  2.4241  2.7366  2.1981
  508MOL0     H68568  10.373   5.532   4.010 -0.2105  1.5699  0.9665
  508MOL0     H68569  10.476   5.394   4.051 -1.2726  1.1341  1.6555
  508MOL0     H68570  10.434   5.522   3.784  0.5252  0.7153 -2.1777
  508MOL0     H68571  10.399   5.352   3.826  1.5868 -1.4238  1.8762
  508MOL0     H68572  10.658   5.337   3.850 -0.3381 -0.8278 -1.4644
  508MOL0     H68573  10.647   5.494   3.758 -1.7244  1.7699 -0.5316
  508MOL0     H68574  10.682   5.242   3.631 -0.8739 -0.0603 -2.1124
  508MOL0     H68575  10.499   5.242   3.660 -1.6922  1.0051 -0.0511
  508MOL0     H68576  10.583   5.559   3.382  0.4869  0.2111  0.5981
  508MOL0     H68577  10.786   5.516   3.929  0.6504  0.7153  0.1960
  508MOL0     H68578  11.133   5.430   4.092  1.0173 -1.6021 -1.0474
  508MOL0     H68579  11.039   5.291   4.037  0.2335 -0.2941 -1.4075
  508MOL0     H68580  11.043   5.430   3.940  0.8212 -2.9720 -1.0733
  509MOL0     O68581   5.141   9.745   0.150 -0.4985 -0.1617  0.1920
  509MOL0     C68582   5.114   9.627   0.137  0.4326  0.4877 -0.1384
  509MOL0     O68583   5.057   9.545   0.237  0.1875 -0.4612  0.7901
  509MOL0     C68584   5.078   9.604   0.366 -0.0445 -0.5614  1.0071
  509MOL0     C68585   5.188   9.585   0.442 -0.8880 -0.0335 -0.8328
  509MOL0     C68586   5.208   9.629   0.580  0.0660  0.5973  0.7730
  509MOL0     C68587   5.114   9.711   0.634  0.1566  0.1176 -0.3751
  509MOL0     O68588   5.140   9.782   0.754 -0.0662 -0.6319  0.0638
  509MOL0     C68589   5.087   9.916   0.777  0.1885 -0.2275  0.6007
  509MOL0     C68590   5.185  10.000   0.864  0.0802 -0.1572 -0.0645
  509MOL0     C68591   5.324  10.002   0.800  0.1281  0.4223  0.2689
  509MOL0     C68592   5.381  10.144   0.800 -0.7378  0.2097 -1.0655
  509MOL0     C68593   5.536  10.145   0.793 -0.5102  0.0915  0.2607
  509MOL0     C68594   5.584  10.287   0.750  0.7592  0.2108  0.1036
  509MOL0     C68595   5.742  10.296   0.763 -1.1124  0.3668  0.2982
  509MOL0     C68596   5.791  10.436   0.747  0.0877 -0.5312  0.3061
  509MOL0     N68597   5.785  10.521   0.872  0.0198 -0.2064 -0.6312
  509MOL0     C68598   5.814  10.477   1.000  0.0174  0.8242  0.5286
  509MOL0     C68599   5.754  10.562   1.079 -0.1459 -1.3309 -0.3226
  509MOL0     C68600   5.751  10.540   1.229 -0.9255  0.3291  0.5803
  509MOL0     C68601   5.676  10.654   1.293 -0.7045  0.2208  0.3674
  509MOL0     C68602   5.655  10.646   1.448 -0.1915 -0.1121  0.3583
  509MOL0     C68603   5.562  10.515   1.476 -0.2895  0.1830 -0.1333
  509MOL0     O68604   5.424  10.562   1.476  0.9518 -0.2242 -0.2432
  509MOL0     C68605   5.320  10.489   1.546 -0.1514  0.6173  0.4798
  509MOL0     C68606   5.337  10.378   1.635  0.0927  0.0344  0.0486
  509MOL0     C68607   5.227  10.308   1.685  0.6334 -0.3242  0.6606
  509MOL0     C68608   5.098  10.351   1.652  0.0505  0.3278 -0.6120
  509MOL0     C68609   4.984  10.269   1.697  1.0163  0.1332 -0.0208
  509MOL0     O68610   5.000  10.181   1.803 -0.4607 -0.1445 -0.3218
  509MOL0     C68611   4.893  10.103   1.838 -0.4023  0.8128  0.1685
  509MOL0     C68612   4.825  10.125   1.949 -0.0772 -0.7861 -0.2089
  509MOL0     C68613   4.727  10.044   1.986  0.0305  0.9900 -0.4177
  509MOL0     C68614   4.709   9.917   1.935 -0.7333 -0.1558  0.3343
  509MOL0     O68615   4.612   9.838   1.998  0.1878 -0.7144  0.0461
  509MOL0     C68616   4.639   9.694   1.991  0.2492 -0.8535 -0.1635
  509MOL0     C68617   4.567   9.620   2.105 -0.5523  0.5053  0.1556
  509MOL0     C68618   4.410   9.626   2.069 -0.4407  1.2272 -0.2495
  509MOL0     C68619   4.326   9.543   2.166  0.0743  0.4171 -0.0764
  509MOL0     C68620   4.306   9.609   2.295  0.0148 -1.2294  0.4835
  509MOL0     C68621   4.297   9.503   2.404 -0.6879  0.3423  0.2307
  509MOL0     C68622   4.294   9.559   2.547  0.6120  0.4365 -0.3733
  509MOL0     C68623   4.328   9.447   2.649 -0.6879  0.4823 -0.9472
  509MOL0    Cl68624   4.371   9.513   2.813 -0.0764 -0.0868 -0.2518
  509MOL0     C68625   4.786   9.884   1.821 -0.1406 -0.1741  0.7598
  509MOL0     C68626   4.868   9.979   1.768 -0.5435 -0.8458  0.3294
  509MOL0     O68627   4.881  10.281   1.626  0.1081 -1.0121  0.0670
  509MOL0     C68628   5.084  10.470   1.578  0.3607 -0.2490 -0.6923
  509MOL0     C68629   5.193  10.538   1.519 -0.3021 -0.3797 -0.6228
  509MOL0     N68630   5.714  10.671   0.995  0.3113 -0.3257 -0.5382
  509MOL0     N68631   5.731  10.642   0.869  0.1657 -0.3814 -0.2339
  509MOL0     C68632   4.996   9.744   0.552  0.0354 -0.6582 -0.3143
  509MOL0     C68633   4.982   9.689   0.423 -0.9254  0.2418  0.1834
  509MOL0     C68634   5.121   9.550   0.010  0.2552 -0.4798  0.4628
  509MOL0     C68635   5.122   9.412   0.006  0.1218  0.6117  0.2274
  509MOL0     C68636   5.147   9.342  -0.109  0.1314  0.5677  0.1552
  509MOL0     C68637   5.166   9.406  -0.224  0.9546 -0.3452  0.1525
  509MOL0     O68638   5.172   9.326  -0.331 -0.6615 -0.6530 -0.7106
  509MOL0     C68639   5.215   9.372  -0.465  0.0535  0.7476  0.5729
  509MOL0     C68640   5.290   9.255  -0.526  0.4158  0.5848  0.3430
  509MOL0     C68641   5.414   9.214  -0.437 -0.4055  0.3425  0.1056
  509MOL0     C68642   5.516   9.133  -0.512 -0.7621 -0.3872 -0.1921
  509MOL0     C68643   5.486   8.995  -0.512  0.7739 -0.7438 -0.0988
  509MOL0     C68644   5.447   8.878  -0.499  0.0087  0.1046  0.2057
  509MOL0     C68645   5.168   9.551  -0.224  0.3812  1.1833  1.4566
  509MOL0     C68646   5.140   9.623  -0.112 -0.1955  0.2346  0.0814
  509MOL0     C68647   5.143   9.777  -0.115  0.2084 -0.1245  1.0299
  509MOL0     H68648   5.275   9.544   0.394  1.6737  2.8663  0.9400
  509MOL0     H68649   5.300   9.610   0.633  0.6006  2.1830  0.4812
  509MOL0     H68650   5.072   9.971   0.683  2.2076 -1.9639 -0.8315
  509MOL0     H68651   4.999   9.911   0.841  0.3135  1.5510  0.9768
  509MOL0     H68652   5.193   9.963   0.967 -1.0771  1.3244  0.5939
  509MOL0     H68653   5.135  10.097   0.877 -0.3741 -0.2066 -1.3504
  509MOL0     H68654   5.325   9.961   0.698 -2.2275 -0.2034  0.4308
  509MOL0     H68655   5.398   9.939   0.850  1.6622  0.5118 -1.7343
  509MOL0     H68656   5.344  10.187   0.707 -2.4615  0.2840 -0.3844
  509MOL0     H68657   5.348  10.194   0.891 -2.6765 -2.3343 -0.2333
  509MOL0     H68658   5.573  10.129   0.895  0.5287  0.4488 -0.0512
  509MOL0     H68659   5.571  10.071   0.721  0.9073 -0.2148  1.2315
  509MOL0     H68660   5.568  10.308   0.643  1.2996 -1.5990 -0.3644
  509MOL0     H68661   5.530  10.358   0.814  1.5564  0.2878  0.6952
  509MOL0     H68662   5.793  10.227   0.696  0.9457  1.1959  0.9382
  509MOL0     H68663   5.768  10.269   0.866  0.8271  0.5956 -0.1035
  509MOL0     H68664   5.895  10.433   0.715  0.1770 -1.5482  0.6518
  509MOL0     H68665   5.727  10.479   0.669  0.2825  1.0552  0.9863
  509MOL0     H68666   5.863  10.384   1.027  0.1704  0.9508  0.6831
  509MOL0     H68667   5.720  10.438   1.254  1.4465 -0.3699  0.9486
  509MOL0     H68668   5.854  10.547   1.265 -1.2327  1.0527  1.3553
  509MOL0     H68669   5.730  10.747   1.273 -0.8940  0.7678  2.2224
  509MOL0     H68670   5.575  10.664   1.253 -0.7301  2.0957  0.7810
  509MOL0     H68671   5.621  10.740   1.492  0.8172  0.9134 -0.9876
  509MOL0     H68672   5.754  10.633   1.495  1.4193  3.7331 -1.5294
  509MOL0     H68673   5.589  10.485   1.578 -1.1289  3.5030  1.2013
  509MOL0     H68674   5.570  10.427   1.411  0.7111 -1.4817  2.1076
  509MOL0     H68675   5.437  10.342   1.659 -0.2905 -0.5633  0.7910
  509MOL0     H68676   5.242  10.237   1.766 -0.2571 -0.0445  1.0850
  509MOL0     H68677   4.859  10.209   2.008  0.8402  0.0497 -1.8523
  509MOL0     H68678   4.670  10.052   2.079  2.1299  0.1077  1.0021
  509MOL0     H68679   4.599   9.660   1.895 -0.7713 -1.5319  0.4930
  509MOL0     H68680   4.745   9.669   2.004  1.6768  3.7605 -1.0199
  509MOL0     H68681   4.595   9.515   2.099  0.4003  0.8341 -3.2358
  509MOL0     H68682   4.586   9.658   2.206  0.5415 -0.2927  0.2608
  509MOL0     H68683   4.364   9.724   2.078 -2.2120  0.4953 -0.9693
  509MOL0     H68684   4.398   9.595   1.965 -0.4320  1.4045 -0.3051
  509MOL0     H68685   4.387   9.452   2.165 -0.7062 -0.1478  1.1638
  509MOL0     H68686   4.222   9.522   2.138 -1.6108  6.0120  0.8024
  509MOL0     H68687   4.218   9.674   2.290  1.2029  0.3657 -0.5063
  509MOL0     H68688   4.388   9.680   2.314 -0.5267 -0.5859  0.4737
  509MOL0     H68689   4.194   9.466   2.391 -2.0127  3.0879  1.8902
  509MOL0     H68690   4.371   9.423   2.403 -1.4054 -0.7558  5.4991
  509MOL0     H68691   4.194   9.603   2.554  0.0107 -0.9588  0.0701
  509MOL0     H68692   4.348   9.652   2.567 -0.6245  0.7915  1.6450
  509MOL0     H68693   4.251   9.371   2.664  0.0711 -0.2443 -0.6520
  509MOL0     H68694   4.416   9.400   2.605  0.5430  1.7850  0.0174
  509MOL0     H68695   4.783   9.786   1.775 -0.9062  0.4167 -0.5136
  509MOL0     H68696   4.919   9.949   1.678  0.4834 -0.5414  0.7977
  509MOL0     H68697   4.981  10.504   1.568  0.4444  0.0575 -0.5084
  509MOL0     H68698   5.171  10.612   1.442 -1.1067 -0.3861 -0.4128
  509MOL0     H68699   4.911   9.800   0.589  0.5339 -0.5124  0.6153
  509MOL0     H68700   4.891   9.698   0.364 -1.3823 -2.9993  0.2224
  509MOL0     H68701   5.096   9.359   0.097  2.2278 -1.7975 -0.4544
  509MOL0     H68702   5.135   9.235  -0.104  0.2713  0.4391 -1.5386
  509MOL0     H68703   5.275   9.463  -0.465  2.0513 -0.4872 -0.5854
  509MOL0     H68704   5.133   9.393  -0.534  0.2949  2.0095  0.6521
  509MOL0     H68705   5.320   9.279  -0.629 -1.4501 -1.0568 -0.6816
  509MOL0     H68706   5.227   9.165  -0.523  0.8708  0.2852  1.4826
  509MOL0     H68707   5.379   9.154  -0.352 -1.2999 -0.0520 -0.5294
  509MOL0     H68708   5.460   9.306  -0.399 -0.4747  1.0014 -1.3551
  509MOL0     H68709   5.523   9.163  -0.617  0.3999 -1.9147 -0.5817
  509MOL0     H68710   5.611   9.148  -0.461 -1.0070 -1.4880  0.6196
  509MOL0     H68711   5.389   8.788  -0.497 -3.0094  1.7933 -2.0118
  509MOL0     H68712   5.190   9.597  -0.320 -4.3136 -0.3831 -0.6288
  509MOL0     H68713   5.242   9.810  -0.081  0.8774 -1.5146  0.4917
  509MOL0     H68714   5.109   9.803  -0.215 -2.5637 -0.0008  1.9170
  509MOL0     H68715   5.068   9.824  -0.050 -0.5006  0.8240 -0.4346
  510MOL0     O68716   8.792  10.852   7.643  0.7621 -0.5527  1.7204
  510MOL0     C68717   8.889  10.902   7.585 -0.6576  0.3209  0.7535
  510MOL0     O68718   8.892  11.029   7.529  0.4872  0.3390 -0.2589
  510MOL0     C68719   8.762  11.084   7.521  0.1443 -0.3454 -0.0925
  510MOL0     C68720   8.719  11.176   7.617 -0.0150  0.2314 -0.0472
  510MOL0     C68721   8.587  11.232   7.603 -0.1118  0.0595 -0.2424
  510MOL0     C68722   8.488  11.177   7.518  0.8864  0.4454  0.5779
  510MOL0     O68723   8.358  11.228   7.508  0.2331 -0.9074  0.0586
  510MOL0     C68724   8.306  11.310   7.606 -0.8818 -0.2687 -0.0075
  510MOL0     C68725   8.153  11.286   7.607  0.1698 -1.1554 -0.4153
  510MOL0     C68726   8.082  11.392   7.690 -0.0560 -0.2182  0.0324
  510MOL0     C68727   7.930  11.389   7.670  0.6827 -0.5576 -0.2865
  510MOL0     C68728   7.864  11.482   7.774 -0.1452  0.2444 -0.1738
  510MOL0     C68729   7.720  11.510   7.726 -0.6813 -0.8403  0.4320
  510MOL0     C68730   7.669  11.607   7.828  0.9874  0.0710  0.3132
  510MOL0     C68731   7.553  11.686   7.768  0.0934 -0.9958  0.5948
  510MOL0     N68732   7.471  11.765   7.865 -0.0332  0.2231  1.1763
  510MOL0     C68733   7.358  11.831   7.829  0.1597  0.0769  0.6293
  510MOL0     C68734   7.327  11.915   7.925  0.5377  0.0913  0.1044
  510MOL0     C68735   7.218  12.013   7.933  0.0168  0.5128  0.0020
  510MOL0     C68736   7.091  11.961   7.983 -0.4710 -0.0506 -0.2027
  510MOL0     C68737   7.011  11.882   7.879  0.1079  0.1095 -1.1424
  510MOL0     C68738   6.893  11.810   7.940 -0.0232 -0.5459 -1.3556
  510MOL0     O68739   6.793  11.919   7.951  0.0972 -0.4592 -0.8031
  510MOL0     C68740   6.666  11.877   7.966 -0.1607 -0.0777  0.6513
  510MOL0     C68741   6.568  11.952   7.915 -0.2088 -0.2052  0.8047
  510MOL0     C68742   6.438  11.925   7.939  0.5871  0.2500 -1.1193
  510MOL0     C68743   6.397  11.804   8.005 -0.1254  0.2924  0.4088
  510MOL0     C68744   6.244  11.778   8.018 -0.8448  0.1199 -0.4537
  510MOL0     O68745   6.167  11.888   8.000 -0.3764  0.4560 -0.0355
  510MOL0     C68746   6.037  11.897   8.040 -0.1829  0.2687 -0.4568
  510MOL0     C68747   5.974  12.022   8.016  0.5321  0.2847  0.7189
  510MOL0     C68748   5.834  12.044   8.028  0.4201  0.6596  0.0709
  510MOL0     C68749   5.767  11.953   8.111 -0.3510  0.3158  0.3749
  510MOL0     O68750   5.638  11.982   8.151  0.9734 -0.5734 -0.0250
  510MOL0     C68751   5.599  11.931   8.281 -0.5382  0.0202  0.1370
  510MOL0     C68752   5.476  12.008   8.327  1.6085  0.0425  0.5070
  510MOL0     C68753   5.360  11.971   8.235 -0.6759  0.0292  0.6071
  510MOL0     C68754   5.211  12.011   8.281  0.1608  0.4006 -0.4988
  510MOL0     C68755   5.110  11.939   8.198 -0.2176  0.0118 -0.8627
  510MOL0     C68756   5.056  11.814   8.272  0.6915 -0.6129  0.3540
  510MOL0     C68757   4.982  11.720   8.170  0.1860 -0.5705  0.9775
  510MOL0     C68758   5.042  11.589   8.181 -0.2435  0.3665 -0.3018
  510MOL0    Cl68759   4.950  11.455   8.109  0.1898  0.0567  0.7974
  510MOL0     C68760   5.829  11.830   8.147  0.7881  0.6997 -0.1983
  510MOL0     C68761   5.962  11.804   8.117 -0.1052  0.1836  0.4767
  510MOL0     O68762   6.213  11.665   8.058 -0.0921 -0.1538 -0.2165
  510MOL0     C68763   6.505  11.716   8.051 -0.0413 -0.3334 -0.8454
  510MOL0     C68764   6.637  11.761   8.038 -0.1451  0.2140  0.1008
  510MOL0     N68765   7.418  11.886   8.021  0.2116 -0.4212 -0.6735
  510MOL0     N68766   7.506  11.810   7.986 -0.7514 -0.1483  1.0017
  510MOL0     C68767   8.535  11.086   7.425 -0.1336 -0.2539  0.4689
  510MOL0     C68768   8.666  11.032   7.427  0.1738 -0.9473 -1.0755
  510MOL0     C68769   9.011  10.822   7.547  0.2433  0.4029  0.8124
  510MOL0     C68770   8.986  10.685   7.536 -0.0715 -0.2358 -0.2202
  510MOL0     C68771   9.083  10.590   7.511  0.2784  0.2761 -0.0758
  510MOL0     C68772   9.219  10.633   7.513 -0.1949 -0.3204 -0.0365
  510MOL0     O68773   9.314  10.529   7.486 -0.1097 -0.2744  0.2090
  510MOL0     C68774   9.444  10.571   7.434 -0.0130  0.1369  0.6463
  510MOL0     C68775   9.521  10.448   7.382 -0.5304 -0.0433 -0.4407
  510MOL0     C68776   9.422  10.390   7.276 -0.4288 -0.2947  0.3823
  510MOL0     C68777   9.477  10.258   7.227  0.0214 -0.4850  1.2642
  510MOL0     C68778   9.602  10.277   7.153 -1.3742 -0.0154 -0.5474
  510MOL0     C68779   9.702  10.279   7.081  0.2031 -0.0574 -0.1051
  510MOL0     C68780   9.254  10.772   7.532  0.7378 -0.6985 -0.6835
  510MOL0     C68781   9.149  10.865   7.547  1.2006 -0.4447  0.3892
  510MOL0     C68782   9.181  11.006   7.570 -0.2958  0.3165  0.8198
  510MOL0     H68783   8.789  11.219   7.687 -0.0686 -0.6168  0.5402
  510MOL0     H68784   8.574  11.316   7.670  1.3087 -0.3093  0.5337
  510MOL0     H68785   8.337  11.268   7.703 -1.7551 -0.4964  0.1825
  510MOL0     H68786   8.333  11.413   7.582  0.5513 -0.4955  0.5003
  510MOL0     H68787   8.135  11.192   7.660 -0.4794 -0.1007  1.3286
  510MOL0     H68788   8.108  11.283   7.507  2.1181  0.5947 -1.4240
  510MOL0     H68789   8.117  11.490   7.656 -0.7081 -0.2647 -0.8151
  510MOL0     H68790   8.107  11.383   7.796  1.4194  1.2225 -0.1495
  510MOL0     H68791   7.920  11.421   7.567  1.6561 -0.1750 -0.2760
  510MOL0     H68792   7.891  11.287   7.682 -0.6586 -0.1598 -1.0802
  510MOL0     H68793   7.867  11.426   7.869  1.5124 -1.3224 -1.0725
  510MOL0     H68794   7.920  11.574   7.791  4.1017 -1.8702 -1.1984
  510MOL0     H68795   7.714  11.558   7.628 -2.8119  0.9742  1.3580
  510MOL0     H68796   7.651  11.425   7.725  0.2503 -1.6116  0.8961
  510MOL0     H68797   7.744  11.686   7.840 -1.1643  2.2768  0.0602
  510MOL0     H68798   7.641  11.555   7.919 -4.4899 -1.4859 -1.8572
  510MOL0     H68799   7.604  11.757   7.702  1.4210 -1.2420  1.3212
  510MOL0     H68800   7.488  11.625   7.704  0.4696 -4.2119  2.9948
  510MOL0     H68801   7.313  11.814   7.731 -3.6104  0.2049  2.1910
  510MOL0     H68802   7.245  12.099   7.994 -0.2377 -0.6945  1.9106
  510MOL0     H68803   7.201  12.053   7.832  0.0081 -0.5035 -0.4115
  510MOL0     H68804   7.112  11.899   8.071  3.6532  2.5836  0.9721
  510MOL0     H68805   7.030  12.045   8.017  0.7850  0.8385 -0.0996
  510MOL0     H68806   7.077  11.808   7.832  3.6648  0.8038  2.2533
  510MOL0     H68807   6.985  11.946   7.793 -1.4293  0.8272 -0.1846
  510MOL0     H68808   6.924  11.765   8.035 -0.6081 -2.8162 -2.1790
  510MOL0     H68809   6.860  11.730   7.874  4.6375 -2.0384 -2.2578
  510MOL0     H68810   6.588  12.048   7.869 -1.8025  0.8934  2.2876
  510MOL0     H68811   6.374  12.002   7.898  1.2182  2.9814  2.5161
  510MOL0     H68812   6.037  12.097   7.971  1.5454 -1.9519 -1.9021
  510MOL0     H68813   5.795  12.139   7.992 -2.0793 -0.5426 -0.6240
  510MOL0     H68814   5.574  11.825   8.284 -0.4260 -0.0879 -1.5363
  510MOL0     H68815   5.676  11.955   8.354  0.4871  0.9536 -1.1959
  510MOL0     H68816   5.445  11.983   8.429 -0.5301  0.8500  0.1133
  510MOL0     H68817   5.496  12.113   8.305 -1.6316  0.5319 -0.7927
  510MOL0     H68818   5.393  12.029   8.148  1.5294 -2.9440 -0.7063
  510MOL0     H68819   5.368  11.866   8.205 -1.9686 -0.3632  1.5218
  510MOL0     H68820   5.189  12.118   8.281  0.6015  0.5096 -2.0051
  510MOL0     H68821   5.201  11.975   8.384 -2.9233  0.0343 -0.8309
  510MOL0     H68822   5.151  11.896   8.106  0.4929 -3.1081  0.7492
  510MOL0     H68823   5.028  12.007   8.174  1.0655  2.1495  0.4685
  510MOL0     H68824   5.137  11.753   8.314  1.0103 -0.7727 -0.4585
  510MOL0     H68825   4.988  11.842   8.353  0.2595  0.1944 -0.2702
  510MOL0     H68826   5.003  11.759   8.069  1.6439  1.0658  1.8410
  510MOL0     H68827   4.875  11.706   8.185 -0.4325  4.0042  2.5358
  510MOL0     H68828   5.144  11.594   8.143  1.3305 -0.3890  3.3655
  510MOL0     H68829   5.048  11.554   8.285  0.6834 -0.5580 -0.6538
  510MOL0     H68830   5.771  11.759   8.206  0.0696  0.3584 -1.2907
  510MOL0     H68831   5.997  11.703   8.135  1.0014  0.3464 -0.6104
  510MOL0     H68832   6.486  11.627   8.109 -1.3476  0.3461 -0.1937
  510MOL0     H68833   6.715  11.716   8.099  1.3320  2.2924 -0.1492
  510MOL0     H68834   8.462  11.054   7.351  1.3214 -0.3525 -0.9872
  510MOL0     H68835   8.691  10.947   7.363 -0.8370  0.7925 -3.9749
  510MOL0     H68836   8.883  10.649   7.540 -0.0377 -0.2135  1.4122
  510MOL0     H68837   9.059  10.485   7.506  2.4885 -0.2942  0.1997
  510MOL0     H68838   9.509  10.626   7.503  1.5606 -1.7117  0.7068
  510MOL0     H68839   9.423  10.634   7.347 -2.0624  0.8155  1.5684
  510MOL0     H68840   9.540  10.374   7.460  0.0482 -1.2281 -1.6645
  510MOL0     H68841   9.612  10.465   7.323 -0.2098 -2.6170 -0.8169
  510MOL0     H68842   9.419  10.457   7.189  3.1559 -1.1046 -0.5211
  510MOL0     H68843   9.323  10.365   7.315  0.5634 -2.5446  1.6356
  510MOL0     H68844   9.494  10.186   7.308  1.7868 -0.5358  0.8765
  510MOL0     H68845   9.405  10.213   7.157 -0.0610  0.6021  0.6268
  510MOL0     H68846   9.797  10.284   7.032 -1.0297 -0.8524 -2.7967
  510MOL0     H68847   9.358  10.802   7.531  0.7506 -0.7449 -1.4323
  510MOL0     H68848   9.139  11.075   7.497  0.0294  1.8904  2.0478
  510MOL0     H68849   9.134  11.029   7.666 -2.2206 -1.9655  0.5067
  510MOL0     H68850   9.290  11.011   7.584 -0.0184 -1.8654 -0.1903
  511MOL0     O68851   8.438   7.667   7.606 -0.3497  0.0007 -0.5877
  511MOL0     C68852   8.414   7.729   7.502  0.0981  0.1406 -0.3254
  511MOL0     O68853   8.377   7.859   7.496  0.4158  0.0010 -1.1118
  511MOL0     C68854   8.337   7.917   7.608 -0.2391 -0.4954 -0.3092
  511MOL0     C68855   8.389   8.047   7.629  0.0414 -0.7151  0.1527
  511MOL0     C68856   8.337   8.128   7.725  0.4033 -0.1836  0.0434
  511MOL0     C68857   8.240   8.075   7.813  0.2183 -0.1164 -0.2316
  511MOL0     O68858   8.187   8.157   7.911  0.4437  0.3281  0.4842
  511MOL0     C68859   8.066   8.132   7.993 -0.0787 -0.6375 -0.3105
  511MOL0     C68860   8.026   8.251   8.073 -0.7804  0.0517 -0.4758
  511MOL0     C68861   8.021   8.376   7.987  0.9258  0.2682  0.5316
  511MOL0     C68862   7.893   8.455   8.029  0.2118 -0.3262  0.2355
  511MOL0     C68863   7.897   8.595   7.974  0.3321  0.7128  0.0914
  511MOL0     C68864   7.809   8.691   8.057  0.8287  0.4546  0.0182
  511MOL0     C68865   7.819   8.834   8.000 -0.1978  0.1669  0.4917
  511MOL0     C68866   7.961   8.906   8.009  0.1832 -0.3405  0.4773
  511MOL0     N68867   7.943   9.038   7.972  0.5157 -0.0659 -0.0886
  511MOL0     C68868   7.965   9.090   7.845 -0.8881  0.5053 -0.5899
  511MOL0     C68869   7.977   9.221   7.864 -0.1966  0.1704  0.0784
  511MOL0     C68870   8.012   9.327   7.757 -0.1191 -0.6481  0.8440
  511MOL0     C68871   8.149   9.309   7.679  0.0647 -0.1186 -0.0799
  511MOL0     C68872   8.272   9.344   7.765 -0.6792  0.6594 -0.3397
  511MOL0     C68873   8.398   9.268   7.737  0.4786 -0.0395 -0.4722
  511MOL0     O68874   8.415   9.248   7.597 -0.2672  0.3155 -0.3042
  511MOL0     C68875   8.502   9.155   7.549 -0.9791 -0.1247 -1.0914
  511MOL0     C68876   8.454   9.068   7.463  0.0505  0.6256 -0.0189
  511MOL0     C68877   8.539   8.973   7.403 -0.0397 -0.6943 -0.2487
  511MOL0     C68878   8.680   8.983   7.412 -0.1753 -0.1679 -0.3083
  511MOL0     C68879   8.764   8.885   7.350  0.2440  0.4534 -0.1002
  511MOL0     O68880   8.727   8.840   7.222  0.2075 -0.1230  0.2246
  511MOL0     C68881   8.787   8.739   7.158 -0.4049  0.8149  0.2888
  511MOL0     C68882   8.700   8.655   7.082 -0.4647  0.3612  0.3648
  511MOL0     C68883   8.754   8.563   6.983  1.4272 -0.0476 -0.3134
  511MOL0     C68884   8.896   8.563   6.974  0.0688  0.1805 -0.2855
  511MOL0     O68885   8.940   8.473   6.882  0.1056  0.9025 -0.9228
  511MOL0     C68886   9.033   8.514   6.782 -0.0146  0.0942  0.0019
  511MOL0     C68887   8.986   8.618   6.682  0.0973 -1.3398  0.2954
  511MOL0     C68888   9.095   8.636   6.578  0.0479  1.3854  0.0228
  511MOL0     C68889   9.067   8.756   6.491  0.0013 -1.0005  0.4082
  511MOL0     C68890   9.169   8.774   6.375 -0.6309 -0.5667 -0.7015
  511MOL0     C68891   9.112   8.884   6.273 -0.3858  0.8055 -0.0036
  511MOL0     C68892   8.972   8.868   6.215 -0.1748 -0.8587  0.3570
  511MOL0     C68893   8.963   8.746   6.122 -0.3189 -0.2171 -0.0941
  511MOL0    Cl68894   9.074   8.777   5.976  0.5695  0.2604  0.6724
  511MOL0     C68895   8.984   8.634   7.062 -0.5667  0.2096 -0.0199
  511MOL0     C68896   8.927   8.717   7.154  0.1611  0.2988  0.2583
  511MOL0     O68897   8.861   8.847   7.414 -0.2887  0.1956  0.1842
  511MOL0     C68898   8.730   9.091   7.490 -0.4308 -1.1355  1.0409
  511MOL0     C68899   8.645   9.173   7.564 -0.0455 -0.2964  0.5337
  511MOL0     N68900   7.963   9.249   8.000 -0.3673  0.4156 -0.1832
  511MOL0     N68901   7.949   9.143   8.067  0.4858  0.2550  0.2038
  511MOL0     C68902   8.197   7.940   7.801 -0.3232 -0.5768 -0.1728
  511MOL0     C68903   8.240   7.865   7.696 -0.4457 -0.3799  0.6201
  511MOL0     C68904   8.385   7.652   7.380  0.0225  0.2074 -0.1437
  511MOL0     C68905   8.266   7.697   7.308  0.1037  0.3752  0.2543
  511MOL0     C68906   8.232   7.636   7.183  0.2682  0.0612  0.4386
  511MOL0     C68907   8.313   7.528   7.136  0.1594  0.0425 -0.1660
  511MOL0     O68908   8.287   7.453   7.022 -0.2963  0.4985  0.8827
  511MOL0     C68909   8.174   7.494   6.948  0.2421 -0.7971  0.1625
  511MOL0     C68910   8.137   7.388   6.846 -0.1646  0.0471  0.7244
  511MOL0     C68911   8.249   7.304   6.783  0.1235 -0.2235 -0.4873
  511MOL0     C68912   8.209   7.189   6.685 -0.4746 -0.9657 -0.2212
  511MOL0     C68913   8.111   7.238   6.590 -0.4968  0.1038 -0.1034
  511MOL0     C68914   8.030   7.275   6.508 -0.2388  0.9697  0.8164
  511MOL0     C68915   8.431   7.495   7.209 -0.5854 -0.1548 -0.1591
  511MOL0     C68916   8.467   7.551   7.328 -0.0534  0.0399  0.6073
  511MOL0     C68917   8.594   7.509   7.406  0.0474 -0.3377  0.2983
  511MOL0     H68918   8.474   8.087   7.575 -1.0513 -1.2293 -2.0796
  511MOL0     H68919   8.383   8.222   7.754  3.4849 -0.7541 -2.4601
  511MOL0     H68920   7.981   8.121   7.926  0.3304 -2.9715 -0.5192
  511MOL0     H68921   8.089   8.050   8.062  1.8196  1.1699  1.3831
  511MOL0     H68922   8.097   8.274   8.153 -0.5559  1.6623 -1.0839
  511MOL0     H68923   7.922   8.247   8.109 -1.0600  3.0654 -0.6223
  511MOL0     H68924   8.023   8.348   7.881 -1.1260  2.8478 -0.3115
  511MOL0     H68925   8.113   8.433   8.006 -0.0624  1.4041  2.1523
  511MOL0     H68926   7.803   8.409   7.986  0.2765 -2.7000  2.4363
  511MOL0     H68927   7.878   8.451   8.137  4.6768  1.8936  1.1385
  511MOL0     H68928   7.999   8.632   7.958  0.6838  1.2852  3.0908
  511MOL0     H68929   7.849   8.586   7.876 -0.1990  0.7971  0.3424
  511MOL0     H68930   7.707   8.653   8.051  1.0600 -0.3324  0.8303
  511MOL0     H68931   7.838   8.690   8.162  2.0678 -3.6463 -0.1669
  511MOL0     H68932   7.748   8.908   8.037  0.6933  0.7066  1.1354
  511MOL0     H68933   7.795   8.833   7.893  0.3965  3.0350  0.2537
  511MOL0     H68934   8.007   8.899   8.108 -0.2217  0.7194  0.7503
  511MOL0     H68935   8.018   8.854   7.931  0.7166 -0.8075  1.1586
  511MOL0     H68936   7.975   9.038   7.751 -2.0980 -1.4668  0.3091
  511MOL0     H68937   7.933   9.315   7.682 -0.6156  0.2211  1.2196
  511MOL0     H68938   8.010   9.428   7.798 -2.6697  0.7552 -2.2615
  511MOL0     H68939   8.159   9.207   7.641 -1.9356 -1.3819  2.4511
  511MOL0     H68940   8.147   9.369   7.588  1.0309  0.5877  0.3408
  511MOL0     H68941   8.244   9.315   7.867 -1.4867 -0.1773 -0.7801
  511MOL0     H68942   8.285   9.452   7.770  2.9529  0.2811  2.0789
  511MOL0     H68943   8.388   9.173   7.790  4.1376 -1.2098 -1.6017
  511MOL0     H68944   8.486   9.325   7.768  0.2969 -0.8060  1.5822
  511MOL0     H68945   8.349   9.082   7.441  0.1482 -0.2342 -1.1377
  511MOL0     H68946   8.494   8.899   7.337 -0.4388 -2.4918  1.9451
  511MOL0     H68947   8.591   8.656   7.080 -0.5412 -1.8759  0.0933
  511MOL0     H68948   8.692   8.502   6.919  0.8691  0.1802  0.0027
  511MOL0     H68949   9.117   8.565   6.831  0.4376 -0.2187 -0.4265
  511MOL0     H68950   9.076   8.424   6.736 -0.6361 -1.4135  2.2540
  511MOL0     H68951   8.889   8.591   6.638  0.0369 -2.9365  1.3055
  511MOL0     H68952   8.974   8.717   6.726 -1.3708  0.1937 -3.1490
  511MOL0     H68953   9.197   8.636   6.617 -0.4092  1.9824  1.2719
  511MOL0     H68954   9.086   8.550   6.510 -0.8119  1.9476 -0.6010
  511MOL0     H68955   9.075   8.848   6.549  1.6918 -1.6083  1.1929
  511MOL0     H68956   8.963   8.747   6.460 -1.8029  0.0340  5.3331
  511MOL0     H68957   9.182   8.673   6.334 -0.3651 -1.2974  1.0640
  511MOL0     H68958   9.267   8.811   6.409  0.4366  0.0946 -4.1196
  511MOL0     H68959   9.120   8.976   6.332  1.1927  0.9405 -0.4012
  511MOL0     H68960   9.191   8.903   6.200 -0.6724 -1.9688 -1.1494
  511MOL0     H68961   8.965   8.961   6.158  3.2431 -0.4722  0.3836
  511MOL0     H68962   8.885   8.862   6.281  0.3435  2.6825  1.5447
  511MOL0     H68963   8.988   8.651   6.170  2.7652  1.2626  1.5130
  511MOL0     H68964   8.858   8.738   6.093 -0.9738  0.3948  1.9334
  511MOL0     H68965   9.090   8.618   7.052 -0.3392  0.8064  1.2581
  511MOL0     H68966   9.001   8.770   7.214 -1.4235  1.0439  1.6517
  511MOL0     H68967   8.836   9.113   7.491 -0.0553 -2.8116  1.3789
  511MOL0     H68968   8.690   9.258   7.614 -0.8374  0.5575 -0.1742
  511MOL0     H68969   8.119   7.898   7.863  0.0214  1.1092  1.4821
  511MOL0     H68970   8.208   7.762   7.680  2.7456 -1.6316  1.5978
  511MOL0     H68971   8.201   7.771   7.354 -1.2125  0.7562 -2.0799
  511MOL0     H68972   8.140   7.670   7.138  1.1181  1.2340 -0.4556
  511MOL0     H68973   8.194   7.587   6.894 -3.9951  1.1797  1.5857
  511MOL0     H68974   8.091   7.503   7.019  0.6583 -0.3036  0.5933
  511MOL0     H68975   8.081   7.432   6.763  2.1522  1.5391 -0.1534
  511MOL0     H68976   8.062   7.322   6.890  0.0652  0.0746  1.1544
  511MOL0     H68977   8.307   7.269   6.869 -3.8444 -2.3867  1.6349
  511MOL0     H68978   8.310   7.376   6.728 -0.7699 -0.4331 -1.8214
  511MOL0     H68979   8.301   7.166   6.631 -0.5815  0.7023 -1.1801
  511MOL0     H68980   8.162   7.104   6.736  0.0075 -0.4418  1.1515
  511MOL0     H68981   7.948   7.311   6.449 -2.0148 -1.6770  1.5287
  511MOL0     H68982   8.496   7.416   7.171  1.8556  1.0390  1.2670
  511MOL0     H68983   8.590   7.529   7.514  2.8531  2.2528  0.0684
  511MOL0     H68984   8.619   7.403   7.395  1.5911  0.0587 -0.3193
  511MOL0     H68985   8.683   7.561   7.368 -0.7547 -0.8476 -2.4718
  512MOL0     O68986  10.287   4.358  10.922 -0.6091  0.8465  0.2610
  512MOL0     C68987  10.239   4.270  10.843 -0.0382  0.5522 -0.5239
  512MOL0     O68988  10.313   4.162  10.790 -0.2265  0.7684  0.1952
  512MOL0     C68989  10.451   4.149  10.804 -0.3649 -0.6203 -0.4281
  512MOL0     C68990  10.529   4.203  10.906  0.0643  0.2909 -0.2542
  512MOL0     C68991  10.667   4.173  10.911 -0.1116 -0.0235  0.2444
  512MOL0     C68992  10.719   4.071  10.828 -0.4620 -1.4164 -0.2091
  512MOL0     O68993  10.856   4.054  10.831  0.6632  0.1188 -0.4831
  512MOL0     C68994  10.940   4.172  10.832  0.1828  0.1677  0.2859
  512MOL0     C68995  11.019   4.170  10.695 -0.3359 -1.2608 -1.2048
  512MOL0     C68996  11.099   4.031  10.679 -0.4516 -0.1023  0.4596
  512MOL0     C68997  11.189   4.030  10.558 -0.8136  0.6694  0.6885
  512MOL0     C68998  11.266   3.906  10.556 -0.5874  1.1553 -0.0356
  512MOL0     C68999  11.402   3.922  10.482  0.0221  0.1643  0.1972
  512MOL0     C69000  11.508   3.808  10.517  0.0350 -0.2095 -0.3200
  512MOL0     C69001  11.641   3.843  10.463 -1.0977  0.0045 -0.4916
  512MOL0     N69002  11.641   3.829  10.319  1.0984 -0.5199  0.8765
  512MOL0     C69003  11.708   3.735  10.244  0.0247 -0.3209  0.1665
  512MOL0     C69004  11.673   3.750  10.114 -0.3317  0.2100 -0.6060
  512MOL0     C69005  11.722   3.671   9.991 -0.1521  0.2538  0.6387
  512MOL0     C69006  11.828   3.565  10.033 -0.4798  0.2929  0.5653
  512MOL0     C69007  11.755   3.451  10.108 -0.4092  1.0049 -0.4182
  512MOL0     C69008  11.839   3.328  10.073 -0.1160  1.4296  0.1521
  512MOL0     O69009  11.805   3.273   9.946  0.0634 -0.5891 -0.2657
  512MOL0     C69010  11.806   3.136   9.951 -0.8046 -0.2577 -0.8273
  512MOL0     C69011  11.721   3.067  10.041  0.1279 -0.3710 -0.0609
  512MOL0     C69012  11.723   2.923  10.049  0.8697  0.2505 -0.3723
  512MOL0     C69013  11.795   2.848   9.950  0.1791 -0.8558 -0.9586
  512MOL0     C69014  11.778   2.701   9.931  0.0764  0.6096 -0.2746
  512MOL0     O69015  11.730   2.626  10.034 -0.3800  0.3295  0.0875
  512MOL0     C69016  11.766   2.494  10.019  0.1220 -0.7026 -0.6369
  512MOL0     C69017  11.863   2.434  10.099 -0.0989  0.2132  0.0668
  512MOL0     C69018  11.898   2.297  10.070  0.6587 -0.2215 -0.7242
  512MOL0     C69019  11.839   2.221   9.968  0.1098 -0.6321 -0.1946
  512MOL0     O69020  11.873   2.101   9.931 -0.3650  0.9011 -0.2705
  512MOL0     C69021  12.014   2.071   9.937  0.3306  0.4897  0.3191
  512MOL0     C69022  12.103   2.144   9.837 -0.3361 -0.3337 -0.2688
  512MOL0     C69023  12.174   2.059   9.730 -1.0348 -0.8755 -0.0198
  512MOL0     C69024  12.298   2.126   9.667 -0.9121  0.9034 -0.4200
  512MOL0     C69025  12.364   2.040   9.556  0.6298 -0.2289  0.2046
  512MOL0     C69026  12.490   2.095   9.501  0.0977  0.3243 -0.2837
  512MOL0     C69027  12.615   2.123   9.588 -1.2679 -0.0985  0.3722
  512MOL0     C69028  12.697   2.000   9.595 -0.1386  0.2951  0.1369
  512MOL0    Cl69029  12.634   1.891   9.727  0.2895  0.1495  0.0662
  512MOL0     C69030  11.734   2.278   9.904 -1.3902  0.0652  0.5407
  512MOL0     C69031  11.693   2.417   9.928 -0.2689 -0.7925  0.1246
  512MOL0     O69032  11.819   2.656   9.823  1.4609 -0.3371  0.3875
  512MOL0     C69033  11.876   2.922   9.867  0.0220  0.8530 -0.2863
  512MOL0     C69034  11.883   3.057   9.861 -1.5663 -0.8499 -0.5344
  512MOL0     N69035  11.590   3.858  10.114  0.6137  0.6028  0.3725
  512MOL0     N69036  11.571   3.903  10.229  0.3344 -0.1201  0.3548
  512MOL0     C69037  10.643   4.022  10.723  0.1793  0.0166  0.2354
  512MOL0     C69038  10.510   4.058  10.713 -0.5357  0.3950 -0.0179
  512MOL0     C69039  10.096   4.258  10.799 -0.4392 -0.3157 -0.0339
  512MOL0     C69040  10.068   4.232  10.664 -0.0764 -0.5083  0.2623
  512MOL0     C69041   9.935   4.224  10.618 -0.0428 -0.7679  0.0723
  512MOL0     C69042   9.837   4.245  10.707  0.2501  0.8448 -0.5149
  512MOL0     O69043   9.704   4.246  10.669 -0.1469 -0.8910 -0.5770
  512MOL0     C69044   9.681   4.345  10.573 -0.4585 -0.2997  0.1526
  512MOL0     C69045   9.547   4.416  10.585  0.1534  0.2299 -0.1477
  512MOL0     C69046   9.430   4.313  10.561 -0.2790  0.2483  0.0267
  512MOL0     C69047   9.297   4.379  10.543  0.3298 -0.6116  0.4355
  512MOL0     C69048   9.258   4.449  10.667  0.2443  1.4865 -0.3834
  512MOL0     C69049   9.226   4.502  10.774 -0.4323  0.1358 -0.1333
  512MOL0     C69050   9.860   4.264  10.846 -0.1641 -0.1491 -0.0870
  512MOL0     C69051   9.993   4.263  10.891 -0.5606 -0.2134  0.0559
  512MOL0     C69052  10.013   4.275  11.042  0.1348 -0.4633  0.0330
  512MOL0     H69053  10.492   4.272  10.981  0.4565  0.7653 -0.4885
  512MOL0     H69054  10.723   4.221  10.991 -2.2467 -0.6523  2.2202
  512MOL0     H69055  10.898   4.272  10.843  2.6089  1.1307  1.6869
  512MOL0     H69056  11.015   4.177  10.912  0.7185  2.3496 -0.3048
  512MOL0     H69057  11.098   4.246  10.697 -2.8332  1.5146  0.0938
  512MOL0     H69058  10.950   4.183  10.612 -2.7981 -3.0332  0.4289
  512MOL0     H69059  11.028   3.950  10.661 -1.5409  0.9920 -0.3108
  512MOL0     H69060  11.159   4.021  10.770 -0.3920  1.1572  0.5846
  512MOL0     H69061  11.131   4.050  10.467  2.3093  0.6330 -1.4753
  512MOL0     H69062  11.260   4.112  10.570  2.9743 -2.1539 -0.2810
  512MOL0     H69063  11.285   3.863  10.654  0.2078  1.1224 -0.1925
  512MOL0     H69064  11.211   3.829  10.502  1.9353  0.5991 -2.0202
  512MOL0     H69065  11.378   3.935  10.376 -1.7148  5.3884  0.9303
  512MOL0     H69066  11.443   4.018  10.515  0.7255  0.0314 -0.2486
  512MOL0     H69067  11.475   3.709  10.484  1.8886 -1.3519  1.0312
  512MOL0     H69068  11.503   3.805  10.627 -0.8934  0.6023 -0.3290
  512MOL0     H69069  11.672   3.945  10.485  0.3695 -0.8438  1.7115
  512MOL0     H69070  11.722   3.782  10.506 -0.0290  2.3125  1.0087
  512MOL0     H69071  11.766   3.659  10.296 -2.0772 -1.2963  1.2142
  512MOL0     H69072  11.643   3.624   9.932  0.0535  0.5421  0.1230
  512MOL0     H69073  11.765   3.745   9.922  2.6283 -0.2189  1.7337
  512MOL0     H69074  11.881   3.525   9.946 -1.3078 -2.7480  1.3323
  512MOL0     H69075  11.906   3.618  10.089  1.6570 -3.4246  1.4348
  512MOL0     H69076  11.650   3.444  10.077 -1.1216  2.2829  1.5519
  512MOL0     H69077  11.751   3.460  10.217 -3.3445  1.6634 -0.4906
  512MOL0     H69078  11.818   3.264  10.159  0.0207  2.8730  1.3005
  512MOL0     H69079  11.944   3.357  10.087  0.0851 -0.3460  3.3127
  512MOL0     H69080  11.649   3.114  10.107  0.0225  1.0204 -1.1273
  512MOL0     H69081  11.653   2.872  10.114  1.6590 -0.2576  0.0958
  512MOL0     H69082  11.902   2.483  10.188 -0.6755 -1.9662  1.6112
  512MOL0     H69083  11.986   2.264  10.125  0.8480 -0.3623 -1.1085
  512MOL0     H69084  12.044   2.081  10.042 -2.6809  1.2322  1.2155
  512MOL0     H69085  12.028   1.965   9.910  1.8497  0.2609  1.8257
  512MOL0     H69086  12.043   2.220   9.787 -0.0564 -0.0046 -0.1097
  512MOL0     H69087  12.184   2.195   9.891 -1.1878  2.0441 -1.1017
  512MOL0     H69088  12.198   1.972   9.791  1.3275  0.4502  1.0870
  512MOL0     H69089  12.096   2.034   9.658 -1.4376  0.0284  0.0896
  512MOL0     H69090  12.369   2.139   9.749 -2.3637  0.1046  1.0070
  512MOL0     H69091  12.265   2.225   9.635  2.2861  2.1315 -0.2684
  512MOL0     H69092  12.285   2.034   9.480  0.5980  0.9624  0.1217
  512MOL0     H69093  12.376   1.939   9.597  1.2973 -0.5124 -0.6622
  512MOL0     H69094  12.511   2.028   9.417 -1.1384 -0.3227 -0.0997
  512MOL0     H69095  12.469   2.192   9.455 -1.8581 -0.8044 -1.9645
  512MOL0     H69096  12.589   2.162   9.687  3.4319 -0.8511  2.1693
  512MOL0     H69097  12.678   2.193   9.531 -1.7182 -0.5899 -0.7461
  512MOL0     H69098  12.691   1.947   9.499 -0.4065 -2.6352  1.6368
  512MOL0     H69099  12.798   2.035   9.618 -0.3806  0.3947  1.0703
  512MOL0     H69100  11.679   2.224   9.827 -2.3607 -1.3297  2.1363
  512MOL0     H69101  11.617   2.459   9.863  1.2431 -1.8181 -2.4481
  512MOL0     H69102  11.929   2.867   9.791 -1.8316  0.7738 -1.5918
  512MOL0     H69103  11.944   3.104   9.784  0.2466 -0.3887  1.0935
  512MOL0     H69104  10.698   3.960  10.653 -0.3931 -1.7789  1.3005
  512MOL0     H69105  10.441   4.032  10.633 -2.5267  0.1738  1.6666
  512MOL0     H69106  10.146   4.228  10.588  0.9820 -1.2548  1.3389
  512MOL0     H69107   9.909   4.200  10.515 -5.0712  1.2770  0.5921
  512MOL0     H69108   9.697   4.305  10.472 -0.0605  0.5606 -0.1354
  512MOL0     H69109   9.754   4.426  10.580 -0.5467 -0.3115  1.5962
  512MOL0     H69110   9.557   4.501  10.517  3.1599 -2.1229 -2.9197
  512MOL0     H69111   9.524   4.456  10.685 -5.6034 -0.1226 -0.9668
  512MOL0     H69112   9.429   4.242  10.644 -4.0822 -2.0738 -1.7133
  512MOL0     H69113   9.457   4.256  10.471  0.9913  1.8689 -0.6558
  512MOL0     H69114   9.309   4.457  10.466 -1.1416  0.1442  0.9263
  512MOL0     H69115   9.219   4.313  10.503  2.4928 -2.1826 -1.4219
  512MOL0     H69116   9.185   4.547  10.862 -2.5573 -5.1365  1.9435
  512MOL0     H69117   9.774   4.275  10.910  0.8088 -0.7700  1.3835
  512MOL0     H69118   9.917   4.281  11.093 -0.9795 -1.5617 -1.8390
  512MOL0     H69119  10.061   4.181  11.072 -1.0607 -0.9078  0.6240
  512MOL0     H69120  10.084   4.354  11.071  0.9507 -2.0719  2.8555
  513MOL0     O69121  10.336   5.411  10.860  0.0922 -0.1969  0.1995
  513MOL0     C69122  10.323   5.291  10.877 -0.8185  0.5740 -0.0912
  513MOL0     O69123  10.415   5.192  10.885 -0.7024 -0.2096 -0.0537
  513MOL0     C69124  10.542   5.239  10.858 -0.1532 -0.4524 -0.5385
  513MOL0     C69125  10.610   5.324  10.947  0.9876  0.0073 -0.9741
  513MOL0     C69126  10.740   5.374  10.912  0.6487 -0.8654 -0.2894
  513MOL0     C69127  10.802   5.327  10.796  0.2078 -0.5108 -0.5537
  513MOL0     O69128  10.930   5.369  10.766  0.4006  0.2280  0.0489
  513MOL0     C69129  10.934   5.472  10.665 -0.4837  0.4417  0.2471
  513MOL0     C69130  11.068   5.456  10.582 -0.3498  0.4225  0.1075
  513MOL0     C69131  11.182   5.364  10.631  0.0493  0.7288 -0.4138
  513MOL0     C69132  11.318   5.397  10.578  0.1929  0.0725 -0.9222
  513MOL0     C69133  11.438   5.328  10.649 -1.0996  0.0975 -0.4201
  513MOL0     C69134  11.573   5.366  10.588 -1.4345 -1.2823 -0.2447
  513MOL0     C69135  11.574   5.330  10.440 -0.3588 -0.1747 -0.1578
  513MOL0     C69136  11.721   5.315  10.392  0.5649 -0.0799 -0.3470
  513MOL0     N69137  11.725   5.286  10.246  1.2942  0.1403  0.5206
  513MOL0     C69138  11.633   5.207  10.171 -0.5581  0.7216 -0.1648
  513MOL0     C69139  11.716   5.162  10.073 -0.7789  0.5222  0.0691
  513MOL0     C69140  11.690   5.068   9.966  0.2902  0.0725 -0.3820
  513MOL0     C69141  11.640   5.144   9.834 -0.7222  0.9868 -1.3894
  513MOL0     C69142  11.633   5.046   9.719  0.0714 -0.5567 -0.7359
  513MOL0     C69143  11.578   5.131   9.603 -0.6478 -0.5276 -0.0491
  513MOL0     O69144  11.552   5.036   9.497  0.2436  0.5287 -0.5119
  513MOL0     C69145  11.527   5.073   9.370  0.4178 -0.0984  0.5312
  513MOL0     C69146  11.473   4.984   9.272 -0.6507 -0.2372  0.1475
  513MOL0     C69147  11.450   5.008   9.140 -0.8545  0.3156  0.4235
  513MOL0     C69148  11.494   5.128   9.083  0.6753  0.6406 -0.6692
  513MOL0     C69149  11.470   5.163   8.940 -0.3084 -0.8805  0.4994
  513MOL0     O69150  11.449   5.069   8.841 -0.3374  0.3513  0.5365
  513MOL0     C69151  11.520   4.948   8.826 -0.0881 -0.1448 -0.3983
  513MOL0     C69152  11.651   4.922   8.855  0.7484  0.9529 -0.1798
  513MOL0     C69153  11.705   4.798   8.808 -0.5714 -0.2603 -0.1729
  513MOL0     C69154  11.626   4.705   8.729 -0.3601  0.0674 -0.0256
  513MOL0     O69155  11.664   4.573   8.705 -0.0659  0.4145  0.2343
  513MOL0     C69156  11.808   4.548   8.709  0.2240 -0.3475 -0.2952
  513MOL0     C69157  11.824   4.418   8.632  0.5689  0.5587 -0.0271
  513MOL0     C69158  11.823   4.442   8.479  0.5033  0.6256 -1.0921
  513MOL0     C69159  11.851   4.306   8.417 -0.3758  0.1619 -0.1917
  513MOL0     C69160  11.780   4.309   8.279 -0.3294  0.7597 -0.0039
  513MOL0     C69161  11.627   4.279   8.283 -0.0727  0.0688  0.9333
  513MOL0     C69162  11.566   4.253   8.151 -0.7827 -0.1804  0.4042
  513MOL0     C69163  11.413   4.255   8.145  0.3852 -0.7197 -0.1322
  513MOL0    Cl69164  11.351   4.408   8.195 -0.0040  0.3495  0.5685
  513MOL0     C69165  11.497   4.738   8.703 -0.0479  0.6838  0.4967
  513MOL0     C69166  11.451   4.862   8.752 -0.0085 -0.1663 -0.3210
  513MOL0     O69167  11.456   5.283   8.929  0.4878  0.0651 -0.6660
  513MOL0     C69168  11.543   5.225   9.177 -0.0166 -0.5000  0.4738
  513MOL0     C69169  11.551   5.197   9.316  0.3608  0.0039  0.6585
  513MOL0     N69170  11.830   5.238  10.068  0.3621  0.3731 -0.7026
  513MOL0     N69171  11.841   5.299  10.176  0.3255 -0.0424 -1.0391
  513MOL0     C69172  10.745   5.224  10.721  0.4134 -0.1313 -0.1352
  513MOL0     C69173  10.617   5.182  10.750 -0.4067 -0.1193  0.4655
  513MOL0     C69174  10.187   5.252  10.928 -0.0574  0.2895  0.0530
  513MOL0     C69175  10.181   5.187  11.052  0.2896 -0.1289  0.3153
  513MOL0     C69176  10.053   5.165  11.111  0.1608 -0.3770 -0.6822
  513MOL0     C69177   9.937   5.216  11.051  0.0685 -0.1461 -0.2885
  513MOL0     O69178   9.826   5.201  11.116  0.2272  1.0153 -0.6640
  513MOL0     C69179   9.706   5.271  11.078 -0.0309  0.1241  0.5026
  513MOL0     C69180   9.587   5.229  11.164 -0.8515  0.0095 -1.1673
  513MOL0     C69181   9.477   5.335  11.155 -0.1396  0.1586  0.4058
  513MOL0     C69182   9.482   5.435  11.272 -0.2105  0.3997 -0.3354
  513MOL0     C69183   9.438   5.364  11.390  0.3647 -0.2590  0.1785
  513MOL0     C69184   9.403   5.295  11.485 -0.2540 -0.4316 -0.5177
  513MOL0     C69185   9.953   5.277  10.921 -0.1072 -0.1486 -0.7368
  513MOL0     C69186  10.077   5.300  10.865 -0.4437 -0.4164  0.0071
  513MOL0     C69187  10.068   5.369  10.724 -0.1850  0.2372 -0.8944
  513MOL0     H69188  10.565   5.351  11.042 -1.2995 -2.5442 -1.2045
  513MOL0     H69189  10.794   5.429  10.988 -1.3975 -0.6468  1.0899
  513MOL0     H69190  10.853   5.460  10.592  0.0123  0.0919 -0.2533
  513MOL0     H69191  10.919   5.570  10.712  0.9553  1.8040 -1.9369
  513MOL0     H69192  11.111   5.555  10.563  0.2051  0.3538  0.9312
  513MOL0     H69193  11.028   5.415  10.489 -0.3465 -0.0979  0.3322
  513MOL0     H69194  11.159   5.257  10.622 -1.5585  1.1134 -1.3430
  513MOL0     H69195  11.183   5.387  10.737 -1.0293  1.3222 -0.5185
  513MOL0     H69196  11.320   5.365  10.473 -0.4942  0.6423 -1.1127
  513MOL0     H69197  11.341   5.504  10.577 -1.4751  0.5111  1.0758
  513MOL0     H69198  11.438   5.357  10.754  1.3774  1.2547 -0.6823
  513MOL0     H69199  11.411   5.222  10.660 -1.3565  0.2070  0.0114
  513MOL0     H69200  11.590   5.474  10.591 -0.9147 -1.3655  2.6594
  513MOL0     H69201  11.651   5.317  10.646  0.4203  2.5181  0.7802
  513MOL0     H69202  11.527   5.411  10.383  1.0706  1.1524  0.4749
  513MOL0     H69203  11.540   5.227  10.425  0.8620 -1.0394  2.3993
  513MOL0     H69204  11.764   5.415  10.404 -0.4511  0.9452 -4.0162
  513MOL0     H69205  11.776   5.235  10.442  0.2377 -0.0649  0.0434
  513MOL0     H69206  11.534   5.169  10.196 -0.1481 -0.3919 -0.1794
  513MOL0     H69207  11.792   5.035   9.942  0.3703 -1.4155  1.6855
  513MOL0     H69208  11.615   4.992   9.991  0.5958  0.1176  0.7570
  513MOL0     H69209  11.542   5.191   9.847 -0.6520  0.9675 -0.7886
  513MOL0     H69210  11.722   5.214   9.814  0.9955  0.4782  2.8818
  513MOL0     H69211  11.573   4.958   9.739  0.5384 -1.3820 -2.7499
  513MOL0     H69212  11.734   5.005   9.722 -0.0249 -0.7301  0.3064
  513MOL0     H69213  11.649   5.211   9.582 -0.3232 -0.9788 -0.6983
  513MOL0     H69214  11.478   5.172   9.622 -1.6140 -2.0779 -1.4892
  513MOL0     H69215  11.445   4.888   9.313  2.9747 -1.3642  0.3567
  513MOL0     H69216  11.409   4.928   9.080  3.5985 -1.7517 -0.3083
  513MOL0     H69217  11.709   4.994   8.911  4.1254 -0.4848 -1.5775
  513MOL0     H69218  11.805   4.764   8.835 -0.1876 -0.0119 -1.2418
  513MOL0     H69219  11.858   4.623   8.646 -2.7525 -0.7526 -3.4642
  513MOL0     H69220  11.844   4.535   8.811  2.6837  1.9398 -0.7603
  513MOL0     H69221  11.921   4.372   8.656  0.8545  1.9368  1.6327
  513MOL0     H69222  11.748   4.345   8.660  1.4486 -0.8771 -1.2539
  513MOL0     H69223  11.717   4.466   8.465  0.2182 -0.9645 -1.8369
  513MOL0     H69224  11.894   4.517   8.442  0.8020  0.6572 -0.4680
  513MOL0     H69225  11.823   4.213   8.467 -0.2504  0.1656 -0.1160
  513MOL0     H69226  11.960   4.309   8.410 -0.4920  0.2714 -2.6710
  513MOL0     H69227  11.833   4.238   8.215  0.8503  0.7222  0.9782
  513MOL0     H69228  11.790   4.404   8.226  1.2638 -1.0285 -3.2184
  513MOL0     H69229  11.604   4.201   8.356 -1.4206  3.9037  5.1428
  513MOL0     H69230  11.573   4.362   8.332  0.3681 -0.5841  2.5909
  513MOL0     H69231  11.607   4.161   8.108 -0.0765  0.0175  0.6356
  513MOL0     H69232  11.607   4.329   8.083 -0.2836 -1.4947 -0.8025
  513MOL0     H69233  11.386   4.225   8.043  0.6505 -2.7941  0.3565
  513MOL0     H69234  11.369   4.181   8.212  0.1331 -1.3866 -1.0195
  513MOL0     H69235  11.442   4.678   8.631 -1.1127  0.7843  1.1937
  513MOL0     H69236  11.354   4.878   8.705  0.1662 -1.8950 -1.3559
  513MOL0     H69237  11.577   5.318   9.133 -1.7624  0.2286  0.5965
  513MOL0     H69238  11.598   5.278   9.371  2.8646 -1.4729  0.8472
  513MOL0     H69239  10.797   5.191  10.632 -1.4532  1.7064 -2.0127
  513MOL0     H69240  10.561   5.113  10.686  3.1460 -3.0186  0.1432
  513MOL0     H69241  10.268   5.149  11.105  1.5456  0.1039 -1.4811
  513MOL0     H69242  10.030   5.113  11.203 -2.3159 -2.5831 -2.3706
  513MOL0     H69243   9.681   5.272  10.972 -0.9700  0.1719  0.7146
  513MOL0     H69244   9.737   5.371  11.107 -3.1302  0.5775  2.8584
  513MOL0     H69245   9.625   5.231  11.266 -2.1188 -0.5343 -0.6648
  513MOL0     H69246   9.563   5.127  11.132 -0.3197 -0.9928  1.4196
  513MOL0     H69247   9.385   5.276  11.142  0.8953 -1.1189 -1.8014
  513MOL0     H69248   9.483   5.389  11.060 -1.2624  0.2006  0.3458
  513MOL0     H69249   9.581   5.481  11.280 -1.2347  2.3935  2.3664
  513MOL0     H69250   9.419   5.519  11.244 -0.4539  2.2130  4.6411
  513MOL0     H69251   9.406   5.219  11.561  7.4177 -1.2255 -0.7754
  513MOL0     H69252   9.862   5.310  10.872 -0.8839  0.4004  0.9869
  513MOL0     H69253  10.015   5.464  10.734 -0.0271  0.0869  2.1350
  513MOL0     H69254  10.167   5.381  10.679  0.5478 -0.6560  0.4062
  513MOL0     H69255  10.019   5.290  10.666 -0.0178 -1.1131  0.7283
  514MOL0     O69256   1.367   1.066   4.838  0.0431  0.5089 -0.2498
  514MOL0     C69257   1.370   1.107   4.723 -0.3651 -0.5876  0.5426
  514MOL0     O69258   1.483   1.124   4.643  0.3813 -0.6094 -0.0183
  514MOL0     C69259   1.603   1.078   4.681  0.4112  0.3960 -0.7703
  514MOL0     C69260   1.704   1.159   4.641  0.5495  0.1921 -0.3208
  514MOL0     C69261   1.836   1.109   4.665 -0.7861 -0.2334  0.4290
  514MOL0     C69262   1.870   0.990   4.719  0.4899  0.1001  0.0763
  514MOL0     O69263   1.999   0.954   4.734 -0.4221 -0.2402  0.6380
  514MOL0     C69264   2.044   0.870   4.840 -0.2019 -0.6408  0.3291
  514MOL0     C69265   2.190   0.824   4.820  0.5894 -0.7872 -0.1324
  514MOL0     C69266   2.280   0.937   4.762 -0.4628 -0.7891 -0.4872
  514MOL0     C69267   2.420   0.932   4.806  0.5353 -0.4044 -0.7479
  514MOL0     C69268   2.514   1.015   4.708  0.4518  0.6179  0.3753
  514MOL0     C69269   2.666   1.030   4.759  0.7062  0.2239 -0.5751
  514MOL0     C69270   2.758   1.055   4.650 -0.7158 -0.2115 -0.0264
  514MOL0     C69271   2.904   1.021   4.685 -0.2705  0.5408 -0.5207
  514MOL0     N69272   2.962   1.093   4.807 -0.1526 -0.1669 -0.4829
  514MOL0     C69273   2.947   1.228   4.831 -0.2061 -0.1662  0.1757
  514MOL0     C69274   3.031   1.256   4.931 -0.4882  0.7801 -0.2908
  514MOL0     C69275   3.063   1.388   4.994  0.0671  0.7986  0.0331
  514MOL0     C69276   3.190   1.474   4.940  0.1284  0.3583 -0.6168
  514MOL0     C69277   3.183   1.483   4.790 -0.2523 -0.4463 -0.0768
  514MOL0     C69278   3.293   1.580   4.740 -0.4354  0.3219 -1.0100
  514MOL0     O69279   3.240   1.710   4.716  0.1683 -0.0782  0.4122
  514MOL0     C69280   3.330   1.815   4.675  0.6486  0.0855  0.3121
  514MOL0     C69281   3.462   1.782   4.643  0.1605  0.4588 -0.6036
  514MOL0     C69282   3.556   1.873   4.628 -0.0096  0.6399  0.1438
  514MOL0     C69283   3.537   2.011   4.644 -0.1863 -0.4003 -0.3696
  514MOL0     C69284   3.654   2.106   4.634  0.0787 -0.9713 -0.6910
  514MOL0     O69285   3.635   2.243   4.611 -0.2327  0.2812  0.2980
  514MOL0     C69286   3.747   2.321   4.593  0.1628  0.7081 -0.9393
  514MOL0     C69287   3.765   2.361   4.463 -0.3489  0.1598  0.7301
  514MOL0     C69288   3.869   2.450   4.427 -0.4484  0.4095  0.8987
  514MOL0     C69289   3.956   2.499   4.526 -0.6098  0.1956  0.5100
  514MOL0     O69290   4.058   2.585   4.497 -0.2732  0.4282  0.3928
  514MOL0     C69291   4.188   2.542   4.535  0.8058  0.5956  0.3966
  514MOL0     C69292   4.292   2.624   4.472 -1.3767  0.7253  0.4358
  514MOL0     C69293   4.425   2.585   4.538 -0.4585  0.6545 -0.5462
  514MOL0     C69294   4.554   2.651   4.482  0.2291 -0.0737 -0.0082
  514MOL0     C69295   4.558   2.645   4.324  0.9096 -0.9759  0.3440
  514MOL0     C69296   4.703   2.667   4.277  0.0888  0.6166 -0.3934
  514MOL0     C69297   4.699   2.659   4.120  0.7787 -0.6130 -0.4633
  514MOL0     C69298   4.829   2.721   4.065 -0.2113  0.6497 -0.3529
  514MOL0    Cl69299   4.980   2.626   4.110 -0.0855 -0.5641 -0.2059
  514MOL0     C69300   3.939   2.452   4.655  0.1443  0.2239 -0.2217
  514MOL0     C69301   3.834   2.363   4.686  0.6630  0.0589  0.3076
  514MOL0     O69302   3.765   2.059   4.646 -0.7170 -0.2717  0.6467
  514MOL0     C69303   3.397   2.051   4.650  0.7166  0.7333  0.1799
  514MOL0     C69304   3.298   1.951   4.665 -0.4587 -0.1712 -0.8890
  514MOL0     N69305   3.098   1.145   4.969 -0.3463 -0.7099 -0.3805
  514MOL0     N69306   3.058   1.048   4.895  0.2777  0.4971  0.1993
  514MOL0     C69307   1.758   0.908   4.757 -0.9259 -0.8790 -0.1091
  514MOL0     C69308   1.626   0.954   4.745  1.1052 -0.1958  0.1001
  514MOL0     C69309   1.245   1.165   4.659 -0.5525 -0.7811 -0.0321
  514MOL0     C69310   1.252   1.254   4.551 -0.3323  0.5703  0.4893
  514MOL0     C69311   1.148   1.328   4.496  0.0479 -0.2161  0.0631
  514MOL0     C69312   1.023   1.309   4.552  0.5517 -1.1387 -0.2352
  514MOL0     O69313   0.910   1.381   4.506 -0.1456 -0.2943 -0.1758
  514MOL0     C69314   0.893   1.405   4.365 -0.8017  0.6076  0.5677
  514MOL0     C69315   0.760   1.464   4.318 -0.5906 -0.2760 -0.2729
  514MOL0     C69316   0.652   1.390   4.383 -0.4655 -0.2356  0.2841
  514MOL0     C69317   0.516   1.465   4.368  0.2280  0.4779 -0.4692
  514MOL0     C69318   0.512   1.574   4.470  0.1734  0.2612 -0.3325
  514MOL0     C69319   0.516   1.654   4.566  0.3116  0.5147  0.4461
  514MOL0     C69320   1.005   1.224   4.664 -1.0322 -0.2320 -0.9363
  514MOL0     C69321   1.112   1.152   4.717 -0.9906  0.2874 -0.1309
  514MOL0     C69322   1.071   1.063   4.832 -1.0030  0.4872 -0.0749
  514MOL0     H69323   1.688   1.258   4.598 -0.9067  0.2645  0.3356
  514MOL0     H69324   1.918   1.168   4.626 -3.1584  1.6245 -2.1174
  514MOL0     H69325   2.038   0.933   4.929  0.9023  1.1441 -0.7850
  514MOL0     H69326   1.991   0.775   4.833  1.3275 -1.3934 -2.3833
  514MOL0     H69327   2.207   0.732   4.763  2.0049 -0.6334  0.0090
  514MOL0     H69328   2.231   0.803   4.919  0.6111  1.3608  0.3594
  514MOL0     H69329   2.245   1.037   4.790  0.2174 -0.8266  0.5992
  514MOL0     H69330   2.274   0.928   4.653 -1.0243 -0.2625 -0.5037
  514MOL0     H69331   2.421   0.971   4.908  1.7393 -0.5518 -0.6809
  514MOL0     H69332   2.456   0.829   4.805 -1.1957 -1.0268 -0.5093
  514MOL0     H69333   2.512   0.955   4.616 -1.8007  1.3628 -0.1249
  514MOL0     H69334   2.465   1.110   4.683 -1.2162 -0.6937 -1.7129
  514MOL0     H69335   2.670   1.108   4.835  0.4224  0.1812 -0.5131
  514MOL0     H69336   2.696   0.938   4.812 -1.6192  0.9637  2.2847
  514MOL0     H69337   2.761   1.160   4.618  1.1448 -0.0079  0.6849
  514MOL0     H69338   2.729   0.984   4.571 -3.3496 -0.4910  1.0978
  514MOL0     H69339   2.923   0.913   4.693  0.1749  0.4314 -2.4567
  514MOL0     H69340   2.963   1.052   4.598  1.9657  3.2252  1.7534
  514MOL0     H69341   2.877   1.300   4.790  2.2077  2.9317  1.1198
  514MOL0     H69342   2.967   1.440   5.004 -0.6261 -0.0652 -1.7138
  514MOL0     H69343   3.088   1.365   5.098  2.0076 -1.2321 -0.8217
  514MOL0     H69344   3.196   1.570   4.992  1.0382 -0.8690  1.6757
  514MOL0     H69345   3.278   1.420   4.975  0.6340  2.7627  2.1947
  514MOL0     H69346   3.083   1.525   4.774 -0.0581  0.1186  0.1552
  514MOL0     H69347   3.193   1.384   4.747 -2.1559 -0.2992 -0.9626
  514MOL0     H69348   3.326   1.540   4.644  2.2300  1.5174 -0.6747
  514MOL0     H69349   3.374   1.587   4.812 -0.7607 -1.2850 -0.4561
  514MOL0     H69350   3.504   1.682   4.650  0.7534  0.7918  0.9285
  514MOL0     H69351   3.656   1.831   4.619 -0.2720 -0.7400  2.6263
  514MOL0     H69352   3.703   2.345   4.376 -0.2021 -2.2811  1.0161
  514MOL0     H69353   3.880   2.480   4.323 -3.4057 -0.4673  0.2283
  514MOL0     H69354   4.197   2.545   4.644  0.7038  0.9323  0.3969
  514MOL0     H69355   4.193   2.435   4.511  0.3875 -0.3809  4.0295
  514MOL0     H69356   4.296   2.619   4.363  1.8012 -2.3848  0.5035
  514MOL0     H69357   4.266   2.727   4.499  0.4145  1.1074  0.8379
  514MOL0     H69358   4.419   2.626   4.639 -1.2993 -1.1995  0.1961
  514MOL0     H69359   4.437   2.476   4.535 -1.6762  0.5170 -0.7338
  514MOL0     H69360   4.643   2.600   4.522  0.6032 -0.3072 -1.1152
  514MOL0     H69361   4.561   2.757   4.508 -0.4686  0.4647 -1.8955
  514MOL0     H69362   4.504   2.733   4.288  5.6350  2.4547  0.7523
  514MOL0     H69363   4.513   2.553   4.285 -0.6607  0.1237 -0.5311
  514MOL0     H69364   4.738   2.769   4.298 -1.2348  0.7988  1.0650
  514MOL0     H69365   4.766   2.584   4.312 -2.1467 -1.8324 -1.8543
  514MOL0     H69366   4.614   2.715   4.079  0.2658  1.2708  2.8319
  514MOL0     H69367   4.692   2.555   4.086 -0.5497 -0.1742 -1.6416
  514MOL0     H69368   4.811   2.733   3.957  1.9461 -0.4464 -0.8862
  514MOL0     H69369   4.832   2.826   4.094  0.7904  0.4348  0.3593
  514MOL0     H69370   4.015   2.479   4.728  0.3391 -0.4317 -0.1776
  514MOL0     H69371   3.836   2.322   4.787  0.9791 -0.4535  0.0980
  514MOL0     H69372   3.365   2.155   4.643  0.0503  0.5029 -0.4008
  514MOL0     H69373   3.193   1.979   4.676 -0.0222  0.6338  2.2023
  514MOL0     H69374   1.773   0.816   4.813  1.3518 -0.8603 -0.5879
  514MOL0     H69375   1.545   0.894   4.785 -0.3510  0.5974 -1.4930
  514MOL0     H69376   1.340   1.283   4.495 -1.9113  0.2043 -2.3698
  514MOL0     H69377   1.161   1.392   4.409  4.5390  0.1472  0.7320
  514MOL0     H69378   0.912   1.314   4.306 -3.3153 -0.0228  0.6010
  514MOL0     H69379   0.968   1.476   4.331 -1.0998  1.0150  0.7446
  514MOL0     H69380   0.758   1.464   4.209 -1.3563 -1.1425 -0.2716
  514MOL0     H69381   0.757   1.566   4.358 -0.2224 -0.5718  0.5398
  514MOL0     H69382   0.665   1.368   4.489 -0.3862  0.9489  0.5249
  514MOL0     H69383   0.653   1.293   4.332 -0.1545 -0.3850  0.5722
  514MOL0     H69384   0.483   1.505   4.272 -2.4940  2.4107  1.0945
  514MOL0     H69385   0.440   1.391   4.395  0.6645  1.2425  3.5526
  514MOL0     H69386   0.505   1.736   4.635  1.6432 -0.4675  1.8913
  514MOL0     H69387   0.908   1.213   4.712 -2.2106 -0.4319 -3.2254
  514MOL0     H69388   1.075   0.959   4.800  0.2794  0.5063 -0.0273
  514MOL0     H69389   1.126   1.079   4.925 -2.2892 -3.3927  1.5338
  514MOL0     H69390   0.966   1.077   4.858 -0.9435 -1.8063  1.6877
  515MOL0     O69391   0.353   0.838   4.665 -0.3197 -0.1439 -0.1058
  515MOL0     C69392   0.452   0.859   4.595  0.1496  1.0084 -0.1010
  515MOL0     O69393   0.462   0.957   4.494  0.0381 -0.2569 -0.3930
  515MOL0     C69394   0.377   1.059   4.504 -0.3241  0.2941  0.0322
  515MOL0     C69395   0.280   1.085   4.417  0.0779 -0.3319 -0.8001
  515MOL0     C69396   0.206   1.203   4.430 -0.1325  0.1410 -0.2161
  515MOL0     C69397   0.235   1.298   4.532  1.1892  1.0795 -0.5329
  515MOL0     O69398   0.160   1.423   4.533 -0.6726 -0.7050 -0.4679
  515MOL0     C69399   0.186   1.518   4.638  0.4689 -0.8525  0.2662
  515MOL0     C69400   0.095   1.644   4.641 -0.7126 -0.6282  0.8174
  515MOL0     C69401   0.082   1.708   4.490  0.5015  0.1934 -0.2663
  515MOL0     C69402   0.015   1.845   4.496 -0.9697  0.4013 -1.3294
  515MOL0     C69403   0.021   1.915   4.356  0.4759  1.3688  0.0195
  515MOL0     C69404  -0.089   1.839   4.262 -0.4766 -0.0836 -0.5519
  515MOL0     C69405  -0.243   1.860   4.306  0.4348 -0.6320  0.7966
  515MOL0     C69406  -0.352   1.790   4.220  0.4460 -0.2102  0.9002
  515MOL0     N69407  -0.316   1.644   4.218 -0.6846  0.0862 -0.0830
  515MOL0     C69408  -0.335   1.556   4.319  0.3583  0.3400 -0.6328
  515MOL0     C69409  -0.300   1.433   4.267  0.2683 -0.8518  0.1511
  515MOL0     C69410  -0.301   1.307   4.331 -0.2112  0.4540 -0.6662
  515MOL0     C69411  -0.162   1.280   4.403  0.3785 -0.4609 -0.7768
  515MOL0     C69412  -0.164   1.168   4.516 -0.7340 -0.5139  0.9440
  515MOL0     C69413  -0.213   1.218   4.646  0.2870 -0.2584  0.0608
  515MOL0     O69414  -0.230   1.112   4.747  0.2925 -0.5895 -0.2350
  515MOL0     C69415  -0.263   1.153   4.876 -0.0839  0.4565 -0.0249
  515MOL0     C69416  -0.343   1.265   4.913 -0.1706  0.2337 -0.6526
  515MOL0     C69417  -0.394   1.291   5.048  0.5361 -0.6251  0.7080
  515MOL0     C69418  -0.358   1.211   5.158  0.0757  0.6497  0.8784
  515MOL0     C69419  -0.415   1.248   5.287  0.9729  0.2376  0.7064
  515MOL0     O69420  -0.532   1.307   5.291 -0.3231  0.6589 -0.6126
  515MOL0     C69421  -0.577   1.361   5.408 -0.0287 -0.1296 -0.3806
  515MOL0     C69422  -0.560   1.491   5.448  0.9987  0.5262  0.2314
  515MOL0     C69423  -0.602   1.540   5.568  0.2714  0.9944  0.2523
  515MOL0     C69424  -0.667   1.459   5.658  0.4501 -0.3584 -0.5434
  515MOL0     O69425  -0.699   1.520   5.776 -0.9274  0.5237 -0.3059
  515MOL0     C69426  -0.806   1.455   5.841  1.1710 -0.1546  0.0164
  515MOL0     C69427  -0.840   1.543   5.965 -1.9541  0.5900  0.8418
  515MOL0     C69428  -0.729   1.557   6.073  0.8584  0.5391  0.1492
  515MOL0     C69429  -0.782   1.590   6.215  0.0263  0.5413  0.1532
  515MOL0     C69430  -0.671   1.606   6.324 -0.2398 -0.5526  1.2038
  515MOL0     C69431  -0.596   1.469   6.341  0.2037 -0.3639 -0.1488
  515MOL0     C69432  -0.504   1.470   6.459  0.7186  0.0985  0.7399
  515MOL0     C69433  -0.409   1.349   6.455 -0.2871  0.5028 -1.0468
  515MOL0    Cl69434  -0.298   1.355   6.592  0.5041 -0.7980  0.4450
  515MOL0     C69435  -0.680   1.319   5.631 -0.0394 -0.4234 -0.4349
  515MOL0     C69436  -0.637   1.275   5.503  0.2800 -0.5955 -0.6985
  515MOL0     O69437  -0.358   1.212   5.391 -0.5615 -0.0022 -0.8329
  515MOL0     C69438  -0.283   1.102   5.123 -0.9513  0.3183 -0.5803
  515MOL0     C69439  -0.239   1.078   4.988  0.1401 -0.7863  0.2955
  515MOL0     N69440  -0.253   1.453   4.135 -0.2356  0.1520 -0.1437
  515MOL0     N69441  -0.266   1.580   4.110  0.2821  0.3294 -0.2489
  515MOL0     C69442   0.331   1.269   4.629 -0.1421  0.6841 -0.3906
  515MOL0     C69443   0.409   1.155   4.604  0.0647 -0.3095  0.2947
  515MOL0     C69444   0.574   0.774   4.629 -0.3725  1.5921 -0.0491
  515MOL0     C69445   0.560   0.637   4.680 -0.5189  0.3010 -0.5480
  515MOL0     C69446   0.659   0.560   4.735 -0.3865  0.4706  0.0977
  515MOL0     C69447   0.779   0.614   4.723 -0.6007  0.7542  0.2968
  515MOL0     O69448   0.881   0.528   4.754 -0.0697  0.4715 -0.2702
  515MOL0     C69449   0.991   0.592   4.823  0.3093  0.0403 -0.5044
  515MOL0     C69450   1.066   0.472   4.890 -0.1613  0.4198  0.8533
  515MOL0     C69451   1.141   0.390   4.781 -0.5642 -0.0698  0.8450
  515MOL0     C69452   1.270   0.330   4.833  1.2085 -1.0057 -0.5370
  515MOL0     C69453   1.237   0.233   4.943 -0.1352 -0.2578  0.2907
  515MOL0     C69454   1.188   0.157   5.021 -0.1513 -0.8212  0.3668
  515MOL0     C69455   0.812   0.733   4.671 -0.0751 -0.6008 -0.3598
  515MOL0     C69456   0.709   0.817   4.623  1.0553  0.4481  0.7209
  515MOL0     C69457   0.763   0.951   4.572  0.1783  0.2233  0.1081
  515MOL0     H69458   0.264   1.020   4.331  0.3266 -2.0923  0.4520
  515MOL0     H69459   0.131   1.226   4.354 -0.0891 -1.1450 -0.6800
  515MOL0     H69460   0.175   1.468   4.735 -1.2496 -0.6939  0.1751
  515MOL0     H69461   0.290   1.551   4.627  1.0913 -2.0883  1.9334
  515MOL0     H69462   0.133   1.718   4.712 -2.9845  1.1141  0.3174
  515MOL0     H69463  -0.007   1.614   4.667 -0.6699 -0.3936  1.2742
  515MOL0     H69464   0.013   1.637   4.444 -0.1362  0.2802  0.5243
  515MOL0     H69465   0.177   1.727   4.439 -0.0518  2.7166 -0.5302
  515MOL0     H69466  -0.086   1.850   4.539 -0.3368 -0.1497  0.3139
  515MOL0     H69467   0.083   1.893   4.568 -0.4062 -3.3843  0.9485
  515MOL0     H69468   0.002   2.023   4.362 -0.8084  1.0567  4.0112
  515MOL0     H69469   0.111   1.898   4.297 -0.6121  1.2187 -1.6839
  515MOL0     H69470  -0.074   1.897   4.171  2.6120  4.2002  2.2641
  515MOL0     H69471  -0.062   1.734   4.254  0.4308  0.0516  0.4899
  515MOL0     H69472  -0.250   1.969   4.297  5.6106 -0.2073 -3.1140
  515MOL0     H69473  -0.267   1.831   4.408  1.1970 -2.5790  0.4793
  515MOL0     H69474  -0.454   1.795   4.258  0.1694 -0.2341  0.1707
  515MOL0     H69475  -0.344   1.830   4.118 -0.4471 -0.9930  0.5058
  515MOL0     H69476  -0.353   1.571   4.425  0.2433 -3.6544  0.0876
  515MOL0     H69477  -0.388   1.301   4.397 -0.2542  2.1246 -0.5280
  515MOL0     H69478  -0.312   1.224   4.261 -0.3982 -3.1251  3.1668
  515MOL0     H69479  -0.101   1.252   4.317 -1.5503 -0.2965 -2.2935
  515MOL0     H69480  -0.147   1.378   4.449 -5.8694  1.7397 -2.2577
  515MOL0     H69481  -0.059   1.145   4.533 -0.5205  1.1427  2.1117
  515MOL0     H69482  -0.214   1.079   4.476 -1.7234  0.2573  0.4106
  515MOL0     H69483  -0.308   1.271   4.633  0.1426 -0.0598  1.6746
  515MOL0     H69484  -0.142   1.289   4.689 -1.4342 -0.4107  3.4744
  515MOL0     H69485  -0.365   1.342   4.840  1.0354  2.9910  1.7080
  515MOL0     H69486  -0.469   1.367   5.066  1.1328  0.1185  0.1797
  515MOL0     H69487  -0.502   1.555   5.382 -1.9369  1.6028 -1.4965
  515MOL0     H69488  -0.585   1.643   5.595  1.5992  0.8987 -0.1318
  515MOL0     H69489  -0.896   1.436   5.782  0.3656  1.8375  0.5219
  515MOL0     H69490  -0.779   1.360   5.888  2.4851 -0.2396 -0.8694
  515MOL0     H69491  -0.875   1.645   5.944 -0.9454  0.8653  0.4178
  515MOL0     H69492  -0.926   1.496   6.012 -2.3799 -0.9123 -1.2750
  515MOL0     H69493  -0.680   1.460   6.069  2.0549  1.1310  0.0179
  515MOL0     H69494  -0.657   1.636   6.049  0.4542  1.5635  2.1159
  515MOL0     H69495  -0.851   1.508   6.239 -0.1823  1.1830  1.8857
  515MOL0     H69496  -0.841   1.678   6.188 -2.4466 -2.0834 -4.2965
  515MOL0     H69497  -0.716   1.642   6.417  0.1632  1.3641  0.6926
  515MOL0     H69498  -0.603   1.689   6.302 -2.4603  1.5292  1.7165
  515MOL0     H69499  -0.671   1.391   6.356 -2.1032  2.1309  2.5874
  515MOL0     H69500  -0.539   1.441   6.252  2.0568  3.1172 -0.2245
  515MOL0     H69501  -0.568   1.460   6.547  0.8106  3.6577  1.3771
  515MOL0     H69502  -0.452   1.566   6.463 -2.5504  2.0628  0.3867
  515MOL0     H69503  -0.467   1.256   6.451 -0.1225  0.4404 -3.7371
  515MOL0     H69504  -0.351   1.353   6.362 -0.0917 -2.7232 -1.1719
  515MOL0     H69505  -0.725   1.242   5.692 -0.7281 -0.3488 -0.8455
  515MOL0     H69506  -0.632   1.169   5.479  1.5609 -0.5394 -0.7252
  515MOL0     H69507  -0.250   1.039   5.205 -2.2971 -1.4730 -1.3395
  515MOL0     H69508  -0.196   0.982   4.965 -1.5437 -2.2668  2.8210
  515MOL0     H69509   0.371   1.325   4.713  3.1387 -1.4143 -0.3905
  515MOL0     H69510   0.491   1.127   4.669 -1.0461  0.8907  2.3113
  515MOL0     H69511   0.463   0.588   4.680  1.3743 -3.9143  1.3501
  515MOL0     H69512   0.652   0.464   4.784 -0.0501  0.3143 -0.1497
  515MOL0     H69513   0.961   0.663   4.900 -0.6255 -1.6409  0.7587
  515MOL0     H69514   1.054   0.647   4.752  0.2679  2.3438  1.1505
  515MOL0     H69515   1.004   0.402   4.946 -1.4372  0.4310 -0.4629
  515MOL0     H69516   1.126   0.515   4.970 -2.8866  1.5405  2.4546
  515MOL0     H69517   1.157   0.460   4.698 -0.7034  0.9368  1.6356
  515MOL0     H69518   1.079   0.315   4.733  1.2996 -0.4956 -1.0129
  515MOL0     H69519   1.326   0.278   4.756  1.8250 -0.5709 -0.3938
  515MOL0     H69520   1.335   0.411   4.870  3.0866 -2.2043 -1.1065
  515MOL0     H69521   1.133   0.106   5.097 -4.6529  0.3357 -1.7339
  515MOL0     H69522   0.908   0.782   4.661 -2.0560  3.4532 -1.6532
  515MOL0     H69523   0.748   0.950   4.464 -5.2240  0.4097  0.5685
  515MOL0     H69524   0.711   1.036   4.616 -0.5448 -0.8360  1.3598
  515MOL0     H69525   0.864   0.976   4.607  1.8777 -3.5675 -1.5585
  516MOL0     O69526   8.595   8.942   2.559  0.1314  0.4758  0.1905
  516MOL0     C69527   8.633   9.048   2.607  0.0687 -0.2046 -0.2405
  516MOL0     O69528   8.734   9.123   2.565  0.0334 -0.5665 -1.0221
  516MOL0     C69529   8.808   9.076   2.458 -0.1058 -0.2748  0.1609
  516MOL0     C69530   8.919   8.995   2.480 -0.8767  0.2526 -0.1557
  516MOL0     C69531   8.993   8.945   2.371 -0.0567  0.2123  0.2667
  516MOL0     C69532   8.956   8.980   2.237 -0.0918  0.5596 -0.5365
  516MOL0     O69533   9.031   8.942   2.133  0.1100  0.4292 -0.9841
  516MOL0     C69534   9.173   8.930   2.136 -0.1359  0.2056  0.1453
  516MOL0     C69535   9.243   8.951   1.997 -0.1311 -0.1064 -0.3032
  516MOL0     C69536   9.390   8.929   2.013 -0.1466 -0.9075 -0.0418
  516MOL0     C69537   9.457   8.950   1.886 -0.9150  0.6257 -0.2195
  516MOL0     C69538   9.603   8.915   1.905  0.9978 -0.3552  0.7781
  516MOL0     C69539   9.709   8.938   1.797  0.1056  0.0026 -1.2009
  516MOL0     C69540   9.731   9.090   1.764  0.4295 -0.7499  1.1373
  516MOL0     C69541   9.733   9.179   1.885  0.0259  0.1424 -0.3691
  516MOL0     N69542   9.836   9.139   1.991  0.0856 -0.8015  0.7694
  516MOL0     C69543   9.964   9.116   1.955 -0.0260 -0.4770 -0.1903
  516MOL0     C69544  10.017   9.051   2.063 -0.2596 -1.4584 -0.4124
  516MOL0     C69545  10.143   8.983   2.083 -0.1735 -0.4118  0.5020
  516MOL0     C69546  10.267   9.067   2.041 -0.4758  0.2643 -0.7871
  516MOL0     C69547  10.401   9.022   2.100 -0.3448  0.1137 -0.6959
  516MOL0     C69548  10.425   9.068   2.248 -0.2504 -0.0571  0.5538
  516MOL0     O69549  10.419   9.214   2.242  0.4285  0.1548 -0.2236
  516MOL0     C69550  10.527   9.300   2.225 -0.5996  0.7306 -0.4207
  516MOL0     C69551  10.645   9.246   2.182 -0.8588  0.1518  0.0549
  516MOL0     C69552  10.767   9.324   2.170  0.7067 -0.7854 -0.7852
  516MOL0     C69553  10.752   9.466   2.181 -0.0270 -0.8684 -0.3985
  516MOL0     C69554  10.877   9.546   2.182 -0.2376  0.9188  0.1200
  516MOL0     O69555  10.994   9.480   2.143 -0.4453 -0.2670  0.0649
  516MOL0     C69556  11.120   9.540   2.136  0.0584  0.1588 -1.1460
  516MOL0     C69557  11.218   9.484   2.219  0.3012 -0.0238 -0.5082
  516MOL0     C69558  11.343   9.538   2.237 -0.1692  0.1171  0.1888
  516MOL0     C69559  11.386   9.650   2.161  0.0553 -0.7158 -0.2509
  516MOL0     O69560  11.508   9.721   2.178  0.1391 -0.1837 -0.5096
  516MOL0     C69561  11.622   9.652   2.233  0.4272  0.8756 -0.4493
  516MOL0     C69562  11.753   9.728   2.220  0.4867 -0.4394 -0.1068
  516MOL0     C69563  11.775   9.812   2.090 -1.1977 -0.4566  0.2985
  516MOL0     C69564  11.894   9.908   2.099  0.1934  0.5829 -0.2577
  516MOL0     C69565  11.900  10.008   1.981 -0.4522  0.4711 -0.1026
  516MOL0     C69566  11.960   9.942   1.851  0.3884 -0.2915 -0.0635
  516MOL0     C69567  12.028  10.045   1.760  0.1342  1.0552 -0.0088
  516MOL0     C69568  11.948  10.173   1.739 -0.7705  0.1991  0.0378
  516MOL0    Cl69569  11.993  10.252   1.584  0.1843 -0.2102 -0.1366
  516MOL0     C69570  11.296   9.699   2.069  1.0736 -0.1060  0.9141
  516MOL0     C69571  11.160   9.651   2.054  0.1866  0.9625 -0.4669
  516MOL0     O69572  10.867   9.662   2.225  0.0833 -0.0291 -0.1906
  516MOL0     C69573  10.624   9.520   2.219 -0.4147  0.2402  0.2741
  516MOL0     C69574  10.522   9.433   2.265  0.2465  0.9351 -0.0972
  516MOL0     N69575   9.926   9.060   2.167  0.4374 -0.0396  1.3781
  516MOL0     N69576   9.809   9.104   2.127 -0.2799  0.2443  0.0805
  516MOL0     C69577   8.848   9.064   2.220  0.4778 -0.0292 -0.2597
  516MOL0     C69578   8.767   9.106   2.326  0.0488  0.5471  0.4831
  516MOL0     C69579   8.555   9.118   2.707  0.9598 -0.0843  0.2103
  516MOL0     C69580   8.554   9.258   2.706  0.2770  0.4341 -0.3413
  516MOL0     C69581   8.488   9.321   2.807 -0.9772  0.2699  0.7646
  516MOL0     C69582   8.415   9.259   2.907  0.2446 -0.5575  0.0257
  516MOL0     O69583   8.337   9.323   2.997  0.5022  0.6711 -0.4239
  516MOL0     C69584   8.311   9.461   2.969  0.9811 -0.7975 -0.1647
  516MOL0     C69585   8.216   9.526   3.073  0.1224 -0.5416  0.0508
  516MOL0     C69586   8.259   9.536   3.222 -0.1637 -0.5332 -0.0312
  516MOL0     C69587   8.265   9.394   3.278  0.1679 -1.0038  0.3918
  516MOL0     C69588   8.287   9.403   3.420  0.3516  0.2477  0.0758
  516MOL0     C69589   8.301   9.398   3.543 -0.1340 -0.2541 -0.4838
  516MOL0     C69590   8.403   9.122   2.906  0.5658 -0.5315 -0.2174
  516MOL0     C69591   8.487   9.053   2.811  0.2227 -0.3055 -0.9324
  516MOL0     C69592   8.496   8.905   2.848  0.3905  0.3034  0.5493
  516MOL0     H69593   8.945   8.987   2.585 -2.3445 -0.8791  0.1428
  516MOL0     H69594   9.082   8.886   2.392  2.1134  3.8948  2.5178
  516MOL0     H69595   9.221   9.009   2.195  3.5255  1.5808 -4.0581
  516MOL0     H69596   9.185   8.831   2.181 -1.2245  0.5820  1.3419
  516MOL0     H69597   9.216   9.047   1.952 -3.1922 -0.9262 -0.4598
  516MOL0     H69598   9.215   8.867   1.933 -0.2295 -0.5743  0.3382
  516MOL0     H69599   9.417   8.831   2.054  3.2826 -0.6442 -1.3565
  516MOL0     H69600   9.428   9.005   2.082 -4.2667  1.2737  0.1251
  516MOL0     H69601   9.429   8.885   1.803  1.4721 -3.3169  1.7718
  516MOL0     H69602   9.449   9.053   1.851 -1.9287 -0.1376 -2.4290
  516MOL0     H69603   9.624   8.967   1.998  0.0962  0.0527  0.7679
  516MOL0     H69604   9.612   8.809   1.931  2.7804  0.0533  2.0002
  516MOL0     H69605   9.805   8.903   1.836  0.3420 -1.3408 -2.8788
  516MOL0     H69606   9.700   8.877   1.706  0.3835 -1.7966 -0.0703
  516MOL0     H69607   9.657   9.125   1.691  0.3774 -1.7573  0.6843
  516MOL0     H69608   9.828   9.092   1.713 -0.1854 -3.2224 -0.3124
  516MOL0     H69609   9.764   9.276   1.844  2.1289  0.6774  2.2211
  516MOL0     H69610   9.632   9.193   1.925  0.0666  0.4264 -0.3627
  516MOL0     H69611   9.999   9.108   1.852 -0.6756 -0.6961 -0.4014
  516MOL0     H69612  10.152   8.956   2.188 -2.4779  0.0160  0.8613
  516MOL0     H69613  10.144   8.896   2.016 -0.1890  0.7784 -1.1076
  516MOL0     H69614  10.265   9.057   1.932 -4.3689  0.1438 -0.8649
  516MOL0     H69615  10.262   9.176   2.043  2.8583  0.5819 -2.9512
  516MOL0     H69616  10.483   9.059   2.037 -0.1144 -0.9313 -1.0434
  516MOL0     H69617  10.398   8.913   2.084 -0.8538  0.4634 -3.3881
  516MOL0     H69618  10.526   9.051   2.288  0.9401  3.1821 -0.7911
  516MOL0     H69619  10.359   9.029   2.326  0.5263 -1.4303  0.5761
  516MOL0     H69620  10.659   9.145   2.144 -1.4077  1.2308 -3.3456
  516MOL0     H69621  10.864   9.286   2.141  1.4102  2.2807 -2.9185
  516MOL0     H69622  11.182   9.398   2.275  0.7463  2.8878  4.9095
  516MOL0     H69623  11.420   9.494   2.300  1.2585  1.0847 -0.8148
  516MOL0     H69624  11.607   9.632   2.340  0.9827  0.7248 -0.3970
  516MOL0     H69625  11.627   9.556   2.182  1.3726  0.9250 -0.4706
  516MOL0     H69626  11.756   9.791   2.310 -1.1364 -0.1460 -0.2352
  516MOL0     H69627  11.837   9.658   2.227 -1.2103 -2.6010  0.0178
  516MOL0     H69628  11.803   9.758   1.999 -0.9883 -1.7088  1.0802
  516MOL0     H69629  11.682   9.862   2.061 -2.2710 -1.5782  1.6648
  516MOL0     H69630  11.979   9.840   2.107 -0.2242  0.2278  1.5659
  516MOL0     H69631  11.887   9.973   2.187  0.0505 -1.0756  1.0123
  516MOL0     H69632  11.970  10.087   2.010 -2.3375  1.1442  3.1535
  516MOL0     H69633  11.803  10.049   1.953 -1.0559 -0.5966  0.3505
  516MOL0     H69634  12.038   9.869   1.876 -0.6074 -0.6309  2.2917
  516MOL0     H69635  11.877   9.890   1.803 -0.0360  0.5195 -0.2291
  516MOL0     H69636  12.041   9.995   1.663 -3.6900 -0.4984  0.0933
  516MOL0     H69637  12.125  10.059   1.807  0.9115 -0.2715 -1.1291
  516MOL0     H69638  11.840  10.157   1.727 -1.0887  1.6554  0.7190
  516MOL0     H69639  11.962  10.237   1.827 -1.2750  1.1724 -0.5661
  516MOL0     H69640  11.318   9.789   2.012 -0.3418 -0.4965 -0.3094
  516MOL0     H69641  11.082   9.682   1.986 -1.6185 -1.8726  0.1530
  516MOL0     H69642  10.604   9.624   2.245 -1.8559  0.1986 -0.5497
  516MOL0     H69643  10.426   9.472   2.299 -0.6740  1.9588 -3.4185
  516MOL0     H69644   8.818   9.098   2.121  0.0562  0.0325 -0.1150
  516MOL0     H69645   8.674   9.157   2.304 -2.1069 -1.6193  3.6489
  516MOL0     H69646   8.587   9.314   2.619 -2.2104  0.7079 -1.2047
  516MOL0     H69647   8.489   9.428   2.793  0.2416  0.1809  0.0431
  516MOL0     H69648   8.283   9.486   2.866 -2.7122  0.0312  0.8970
  516MOL0     H69649   8.401   9.520   2.990 -1.1660  1.5526  3.6451
  516MOL0     H69650   8.116   9.482   3.066 -0.3169  0.5377 -0.5576
  516MOL0     H69651   8.210   9.631   3.043 -0.9778 -1.4273 -3.2944
  516MOL0     H69652   8.182   9.594   3.272  0.3914 -0.8983  1.2846
  516MOL0     H69653   8.354   9.588   3.237 -0.0683 -0.7741  0.2065
  516MOL0     H69654   8.174   9.335   3.269 -1.2273  0.7729  1.9925
  516MOL0     H69655   8.356   9.361   3.226  1.2327  0.9394  0.9329
  516MOL0     H69656   8.311   9.370   3.646 -0.7058 -0.6717 -0.5400
  516MOL0     H69657   8.341   9.077   2.983  2.9043 -0.7750  1.6035
  516MOL0     H69658   8.593   8.878   2.889 -0.7467 -2.6377  1.5232
  516MOL0     H69659   8.421   8.867   2.917 -1.7798  0.9384 -1.3473
  516MOL0     H69660   8.481   8.849   2.755 -2.2313  0.4051  0.8391
  517MOL0     O69661   6.177   8.996  10.347 -0.0386 -0.3932 -0.7069
  517MOL0     C69662   6.125   8.963  10.240  0.9193 -0.3921  0.0797
  517MOL0     O69663   6.038   8.861  10.221  1.0358  1.0527  0.9261
  517MOL0     C69664   6.038   8.756  10.310 -0.0404  0.4325 -1.1327
  517MOL0     C69665   6.151   8.698  10.372 -0.5571 -0.1886 -0.2979
  517MOL0     C69666   6.125   8.580  10.450  0.1345 -0.3530  0.0343
  517MOL0     C69667   5.993   8.524  10.467 -0.6699 -1.1092  0.0219
  517MOL0     O69668   5.973   8.411  10.546  0.2544 -0.9476  0.2769
  517MOL0     C69669   5.845   8.412  10.619 -0.2877  0.1259  0.7443
  517MOL0     C69670   5.852   8.285  10.698  1.2300  0.0911 -0.5055
  517MOL0     C69671   5.865   8.159  10.606 -0.9129  1.2972  0.1388
  517MOL0     C69672   5.856   8.024  10.692  0.4311 -0.1804  0.3397
  517MOL0     C69673   5.718   7.967  10.672  0.3919  0.5317  0.1936
  517MOL0     C69674   5.659   7.928  10.530  0.7836 -0.4282 -0.2995
  517MOL0     C69675   5.563   7.806  10.544 -0.1581 -0.5722 -1.3793
  517MOL0     C69676   5.494   7.770  10.414 -0.2704 -1.1273  0.6924
  517MOL0     N69677   5.436   7.639  10.416 -0.2852  0.0553  0.6786
  517MOL0     C69678   5.440   7.563  10.299  0.1175  0.9950  0.2802
  517MOL0     C69679   5.358   7.459  10.340 -0.8400 -0.0779  0.2588
  517MOL0     C69680   5.329   7.332  10.257 -0.5550 -0.6282 -0.6815
  517MOL0     C69681   5.274   7.222  10.355 -0.9718 -0.2815  0.2134
  517MOL0     C69682   5.114   7.233  10.394 -0.0457  0.3681  1.0781
  517MOL0     C69683   5.067   7.131  10.496 -0.1363 -0.7715 -0.0320
  517MOL0     O69684   5.124   7.001  10.466  0.2656  0.1374  0.5763
  517MOL0     C69685   5.127   6.898  10.551  0.0434 -0.6234  0.0594
  517MOL0     C69686   5.065   6.905  10.678 -0.6023 -0.4643  0.1474
  517MOL0     C69687   5.048   6.792  10.753  0.4654  1.4412 -0.6951
  517MOL0     C69688   5.101   6.674  10.705  0.7749 -1.1704  0.1843
  517MOL0     C69689   5.083   6.549  10.778 -0.3883  0.3597  0.4528
  517MOL0     O69690   4.989   6.562  10.886  0.3673  0.7243 -0.4972
  517MOL0     C69691   4.951   6.441  10.937 -0.6391  0.7869 -0.1774
  517MOL0     C69692   5.045   6.349  10.993  0.0190  0.1030  0.3290
  517MOL0     C69693   4.987   6.229  11.051  0.7765 -0.8983  0.5402
  517MOL0     C69694   4.847   6.205  11.049  0.2075  0.1398  0.0043
  517MOL0     O69695   4.793   6.099  11.116  0.3652  0.0252  0.2314
  517MOL0     C69696   4.680   6.026  11.065 -0.0856 -0.2430 -0.1403
  517MOL0     C69697   4.633   5.909  11.148  0.5806  0.0457 -1.0726
  517MOL0     C69698   4.498   5.868  11.081 -0.5301  0.5328  0.0364
  517MOL0     C69699   4.436   5.738  11.151 -0.1220 -0.4633  0.4037
  517MOL0     C69700   4.486   5.615  11.078  0.0066 -0.0456  0.0086
  517MOL0     C69701   4.483   5.496  11.172  0.2907 -0.9815  0.5093
  517MOL0     C69702   4.450   5.371  11.090 -0.2843  0.2710  0.1053
  517MOL0     C69703   4.564   5.325  10.998 -0.4077 -0.4172  0.1423
  517MOL0    Cl69704   4.537   5.174  10.914 -0.3458  0.0509  0.0900
  517MOL0     C69705   4.764   6.301  11.001 -0.1779  0.5754  0.4412
  517MOL0     C69706   4.816   6.420  10.952 -0.3110 -0.4948 -0.4591
  517MOL0     O69707   5.143   6.449  10.750 -1.1072  0.2711 -0.9676
  517MOL0     C69708   5.193   6.672  10.596  0.0160  0.0884  0.2240
  517MOL0     C69709   5.196   6.784  10.517  0.1859 -0.2164  0.4069
  517MOL0     N69710   5.302   7.486  10.462 -0.3475 -0.0181 -0.1253
  517MOL0     N69711   5.353   7.586  10.508 -0.4307 -0.7131 -0.5985
  517MOL0     C69712   5.893   8.597  10.404  0.7530 -0.5860 -1.2857
  517MOL0     C69713   5.918   8.698  10.321 -0.9309  0.2156 -0.4763
  517MOL0     C69714   6.147   9.047  10.120  0.5684 -0.0066 -0.6251
  517MOL0     C69715   6.041   9.063  10.032 -0.3568  0.2601  0.5863
  517MOL0     C69716   6.056   9.113   9.899  0.0826 -0.5421 -0.3352
  517MOL0     C69717   6.181   9.157   9.865 -0.6557  0.7114  0.7679
  517MOL0     O69718   6.194   9.210   9.731 -0.2665  0.0396 -0.6209
  517MOL0     C69719   6.316   9.265   9.695 -0.0387 -0.4427 -0.2015
  517MOL0     C69720   6.316   9.347   9.566 -0.4871  0.0097  0.1163
  517MOL0     C69721   6.254   9.490   9.584 -1.1027 -0.1034  0.4615
  517MOL0     C69722   6.226   9.563   9.456  0.3547 -0.5467 -0.1885
  517MOL0     C69723   6.108   9.513   9.375  0.1745 -0.1454  0.0919
  517MOL0     C69724   6.014   9.475   9.316  0.5267  0.3081  0.0548
  517MOL0     C69725   6.288   9.135   9.955 -0.9920 -0.1399 -0.5270
  517MOL0     C69726   6.274   9.088  10.080  0.9248  0.8422  0.2060
  517MOL0     C69727   6.404   9.057  10.149  0.1139 -0.4254 -0.0360
  517MOL0     H69728   6.255   8.729  10.370 -1.1729  2.1702  0.6798
  517MOL0     H69729   6.203   8.515  10.490 -0.2578 -0.3500  0.8331
  517MOL0     H69730   5.829   8.499  10.683  0.3687  0.1237  0.9218
  517MOL0     H69731   5.751   8.403  10.564 -1.4488  2.7401  2.1346
  517MOL0     H69732   5.754   8.280  10.746  2.7529 -1.8119  2.7603
  517MOL0     H69733   5.926   8.283  10.778 -1.3287 -0.8623  2.0136
  517MOL0     H69734   5.970   8.147  10.582 -1.0054  0.4688  0.1184
  517MOL0     H69735   5.798   8.159  10.520 -1.7205  0.0120  0.7392
  517MOL0     H69736   5.937   7.954  10.668  0.3659 -0.4770  0.9822
  517MOL0     H69737   5.862   8.049  10.798 -0.1393  2.3338 -0.1530
  517MOL0     H69738   5.705   7.884  10.742 -1.8145  2.2982  2.0373
  517MOL0     H69739   5.647   8.042  10.707 -0.5926  1.5159 -3.4238
  517MOL0     H69740   5.591   8.005  10.493 -0.1314 -1.0930 -0.0468
  517MOL0     H69741   5.732   7.906  10.452  0.6639 -2.9322  0.2078
  517MOL0     H69742   5.483   7.815  10.618  2.5335 -0.0590  1.6549
  517MOL0     H69743   5.635   7.727  10.565  1.6822  1.1173 -1.0643
  517MOL0     H69744   5.419   7.847  10.396  0.3823 -0.8472 -1.0595
  517MOL0     H69745   5.576   7.775  10.341  2.8084 -2.0962  3.7678
  517MOL0     H69746   5.496   7.593  10.211 -1.4559  0.1870 -1.0514
  517MOL0     H69747   5.257   7.354  10.178 -0.3440 -2.5959 -1.4883
  517MOL0     H69748   5.428   7.299  10.222  0.0356 -0.2195  0.5407
  517MOL0     H69749   5.288   7.122  10.314  1.8496 -0.3759  1.1726
  517MOL0     H69750   5.332   7.223  10.448 -1.2908  2.9843  0.5164
  517MOL0     H69751   5.047   7.233  10.308 -0.2519  2.8571  1.1632
  517MOL0     H69752   5.098   7.332  10.438  1.1358  1.5829 -1.0740
  517MOL0     H69753   4.959   7.133  10.513 -0.1342  0.6632 -0.0938
  517MOL0     H69754   5.107   7.161  10.593  5.1831 -1.0077 -1.8242
  517MOL0     H69755   5.007   6.991  10.710  1.5942  1.8836 -1.7749
  517MOL0     H69756   4.987   6.808  10.841 -0.0498  1.5650 -1.0717
  517MOL0     H69757   5.148   6.374  10.975  0.9319 -3.4243 -0.1258
  517MOL0     H69758   5.053   6.157  11.099  0.3514 -1.5008  0.2483
  517MOL0     H69759   4.601   6.093  11.030  1.5951  1.2202 -1.3015
  517MOL0     H69760   4.728   5.978  10.979  1.2490 -0.1283  0.5021
  517MOL0     H69761   4.691   5.817  11.152 -0.6925 -0.9798  5.7814
  517MOL0     H69762   4.615   5.954  11.247  0.9752 -2.7596  0.3540
  517MOL0     H69763   4.430   5.954  11.085 -0.0571  0.8897  0.7743
  517MOL0     H69764   4.526   5.841  10.979  3.0260  0.3527  0.9109
  517MOL0     H69765   4.328   5.742  11.136  0.0084 -0.1464 -0.5337
  517MOL0     H69766   4.456   5.727  11.258 -2.3076  0.5372  0.9609
  517MOL0     H69767   4.587   5.619  11.037  0.0289  1.5427  0.1351
  517MOL0     H69768   4.409   5.597  11.002 -0.2846  0.3312  0.2122
  517MOL0     H69769   4.577   5.482  11.226  1.1113 -0.7921 -0.8445
  517MOL0     H69770   4.404   5.499  11.248  0.1867 -1.4850  0.4278
  517MOL0     H69771   4.355   5.380  11.036 -0.2666  1.1328  0.2125
  517MOL0     H69772   4.438   5.282  11.153 -0.3531  0.3218  0.1651
  517MOL0     H69773   4.595   5.401  10.926 -1.2471  1.5517  1.7431
  517MOL0     H69774   4.648   5.318  11.067 -2.1020  1.7573  2.6270
  517MOL0     H69775   4.656   6.300  10.995 -0.1396 -2.5302 -1.7137
  517MOL0     H69776   4.743   6.486  10.906 -0.6823 -0.9212 -0.4977
  517MOL0     H69777   5.248   6.582  10.571  0.7357  0.9348 -1.3567
  517MOL0     H69778   5.249   6.779  10.423  1.1555  1.2930  0.8435
  517MOL0     H69779   5.790   8.565  10.417 -0.2833  1.7666 -3.1111
  517MOL0     H69780   5.833   8.747  10.274  1.1501  0.9561 -3.7734
  517MOL0     H69781   5.944   9.035  10.071 -0.3363 -2.2075 -0.9086
  517MOL0     H69782   5.969   9.143   9.840  0.3258 -1.7484 -1.3369
  517MOL0     H69783   6.382   9.184   9.663  1.3163  1.3209 -2.2225
  517MOL0     H69784   6.361   9.323   9.776 -0.7161 -0.9827  0.5757
  517MOL0     H69785   6.255   9.301   9.487  0.5817 -0.4616 -0.4485
  517MOL0     H69786   6.416   9.347   9.521 -0.7086 -0.2980 -0.3822
  517MOL0     H69787   6.333   9.547   9.633  0.3630 -1.2894 -0.4303
  517MOL0     H69788   6.167   9.488   9.651 -1.9312  1.2691 -0.5206
  517MOL0     H69789   6.201   9.668   9.470  3.3996  0.1762  0.3868
  517MOL0     H69790   6.317   9.551   9.396  2.1127  0.1437  2.2112
  517MOL0     H69791   5.936   9.437   9.253  1.6434  2.1725 -2.6120
  517MOL0     H69792   6.391   9.153   9.926 -0.3213 -2.8867 -0.1254
  517MOL0     H69793   6.498   9.070  10.093  1.1841 -3.6263  0.7754
  517MOL0     H69794   6.397   9.122  10.237 -1.0239  1.1539 -1.2382
  517MOL0     H69795   6.400   8.954  10.186 -0.9494 -0.0953  0.8204
  518MOL0     O69796   8.185   3.999  10.688  0.3324 -0.2185  0.6000
  518MOL0     C69797   8.263   4.057  10.765 -0.7152  0.1765 -0.2716
  518MOL0     O69798   8.364   4.151  10.729  0.2201  0.0990 -0.6100
  518MOL0     C69799   8.393   4.151  10.597  0.0641 -1.2239  1.0902
  518MOL0     C69800   8.430   4.036  10.526 -0.7595 -0.0153  0.0246
  518MOL0     C69801   8.467   4.035  10.393  0.4422 -0.0454 -0.3722
  518MOL0     C69802   8.470   4.158  10.321 -0.4874 -0.2417  0.4814
  518MOL0     O69803   8.523   4.179  10.190  0.1248 -0.2617  0.5709
  518MOL0     C69804   8.573   4.058  10.124  0.5923 -0.5117 -0.0404
  518MOL0     C69805   8.616   4.094   9.982  0.2842  0.0170 -0.1117
  518MOL0     C69806   8.506   4.156   9.884 -0.3794  0.2584  0.0679
  518MOL0     C69807   8.399   4.033   9.857  0.2114 -0.7952 -1.1928
  518MOL0     C69808   8.287   4.076   9.768  0.2087 -0.1251  0.6585
  518MOL0     C69809   8.157   4.120   9.843 -0.0349 -0.6871  0.0800
  518MOL0     C69810   8.079   4.184   9.727 -0.0150 -0.5402 -0.5244
  518MOL0     C69811   7.940   4.196   9.771  0.6390  0.5190 -0.2794
  518MOL0     N69812   7.879   4.289   9.677 -0.5638 -0.2431 -0.2317
  518MOL0     C69813   7.781   4.253   9.592 -1.0929  0.9078  0.0800
  518MOL0     C69814   7.717   4.368   9.571 -0.0054 -0.7967  0.1454
  518MOL0     C69815   7.587   4.375   9.494 -0.3265  0.3666  0.3591
  518MOL0     C69816   7.576   4.253   9.393 -0.3230  0.1853 -0.7559
  518MOL0     C69817   7.480   4.296   9.274  1.0123  0.5758  0.2884
  518MOL0     C69818   7.443   4.166   9.189  0.7348 -0.6843 -0.3073
  518MOL0     O69819   7.360   4.198   9.072  0.0825  0.3116  0.1011
  518MOL0     C69820   7.229   4.159   9.058 -0.0631 -0.2462 -0.2757
  518MOL0     C69821   7.170   4.162   8.931  0.1238 -0.1335  0.0367
  518MOL0     C69822   7.034   4.124   8.913 -0.0354 -0.3034 -0.3726
  518MOL0     C69823   6.958   4.068   9.018  1.5391  0.0204  0.0190
  518MOL0     C69824   6.813   4.042   9.010 -0.5124  0.1859  0.5881
  518MOL0     O69825   6.739   4.109   8.913  0.5698  0.4127  0.1377
  518MOL0     C69826   6.614   4.060   8.876  0.1252 -0.3025 -0.2329
  518MOL0     C69827   6.597   4.068   8.736 -0.3253  0.0745 -0.1988
  518MOL0     C69828   6.475   4.024   8.679 -0.6594  0.5906 -0.2205
  518MOL0     C69829   6.368   3.987   8.762  0.5563 -0.7015  0.2221
  518MOL0     O69830   6.252   3.966   8.696  0.3453  0.2914  0.4776
  518MOL0     C69831   6.136   3.929   8.776 -0.8775  0.5446  0.2990
  518MOL0     C69832   6.128   3.769   8.809 -0.5891 -0.1685  0.2970
  518MOL0     C69833   5.998   3.729   8.880  0.2373 -0.2108  0.5856
  518MOL0     C69834   5.994   3.590   8.936 -0.9386 -0.0813  0.1291
  518MOL0     C69835   5.854   3.527   8.938 -0.0941 -0.5902  0.3885
  518MOL0     C69836   5.863   3.377   8.918  0.5001 -0.1147 -0.1789
  518MOL0     C69837   5.727   3.298   8.948 -0.5806 -0.5767  0.5226
  518MOL0     C69838   5.747   3.151   8.984  0.2839  0.4761 -0.5191
  518MOL0    Cl69839   5.861   3.073   8.859 -0.5066  0.0935  0.3405
  518MOL0     C69840   6.386   3.988   8.902  0.5000  0.0688  0.2035
  518MOL0     C69841   6.510   4.016   8.956 -0.5505 -0.4924 -0.9616
  518MOL0     O69842   6.761   3.967   9.096  0.6717 -0.7754 -0.0104
  518MOL0     C69843   7.012   4.075   9.142 -0.0729 -0.0637 -0.1240
  518MOL0     C69844   7.148   4.110   9.164 -0.6710  0.0928  0.5312
  518MOL0     N69845   7.784   4.480   9.626  0.6218  0.3181  0.1431
  518MOL0     N69846   7.882   4.427   9.691 -0.4194  0.6369 -0.5881
  518MOL0     C69847   8.436   4.278  10.389  0.0554  0.1571  0.5918
  518MOL0     C69848   8.397   4.273  10.522  0.6242  0.5119 -0.5086
  518MOL0     C69849   8.254   4.012  10.907  0.3753 -0.2024 -0.3696
  518MOL0     C69850   8.333   4.090  11.001 -0.6062  0.0540  0.6096
  518MOL0     C69851   8.309   4.061  11.136 -0.1655  0.0396 -0.2951
  518MOL0     C69852   8.223   3.957  11.180  0.3433  0.2466  0.2209
  518MOL0     O69853   8.199   3.964  11.310 -0.7080 -0.1702 -0.5734
  518MOL0     C69854   8.195   3.841  11.381 -0.0618  0.3472 -0.2919
  518MOL0     C69855   8.309   3.745  11.381  0.1593 -0.2077 -0.2350
  518MOL0     C69856   8.442   3.805  11.416  0.5018 -0.3203 -0.7915
  518MOL0     C69857   8.547   3.697  11.462  0.3194 -0.3937  0.5146
  518MOL0     C69858   8.667   3.774  11.479 -0.5188  0.8306 -0.4578
  518MOL0     C69859   8.772   3.825  11.477  0.3045 -1.5218 -0.4159
  518MOL0     C69860   8.165   3.872  11.091 -0.8912 -1.0685  0.4906
  518MOL0     C69861   8.174   3.897  10.956 -0.4616  0.6441 -0.2609
  518MOL0     C69862   8.106   3.789  10.869  0.0437  1.3541  0.3328
  518MOL0     H69863   8.437   3.950  10.591 -2.1655 -0.0343  0.1858
  518MOL0     H69864   8.493   3.942  10.343  1.9324 -1.1849  2.3525
  518MOL0     H69865   8.655   4.012  10.180 -1.4862 -2.1287  1.8609
  518MOL0     H69866   8.491   3.987  10.123  0.5230 -0.5112  1.9526
  518MOL0     H69867   8.647   4.001   9.935  0.7737  1.2805 -2.4070
  518MOL0     H69868   8.692   4.172   9.987 -1.6716  2.0576 -0.3510
  518MOL0     H69869   8.559   4.185   9.792  0.5555 -0.6769  0.2913
  518MOL0     H69870   8.471   4.250   9.928  2.6450  2.1122 -1.1677
  518MOL0     H69871   8.451   3.948   9.812 -2.2485 -1.6278 -2.6508
  518MOL0     H69872   8.362   3.996   9.953 -1.1366 -1.7239 -2.0378
  518MOL0     H69873   8.320   4.151   9.697  2.8190 -0.6786  1.1964
  518MOL0     H69874   8.269   3.980   9.717  2.7829 -0.8200  0.9100
  518MOL0     H69875   8.121   4.028   9.888 -1.2936 -1.3137 -2.0815
  518MOL0     H69876   8.183   4.191   9.923 -1.9832 -0.1352  0.2593
  518MOL0     H69877   8.093   4.126   9.635  3.6586 -1.2359  0.3048
  518MOL0     H69878   8.126   4.279   9.703  2.7388 -1.2008  1.6854
  518MOL0     H69879   7.895   4.096   9.761 -3.1470  1.9354  0.8211
  518MOL0     H69880   7.931   4.225   9.876 -1.3933 -3.5552  0.9026
  518MOL0     H69881   7.757   4.158   9.545  0.4440  0.3056  0.4658
  518MOL0     H69882   7.502   4.381   9.562 -0.8317  0.9686 -0.3152
  518MOL0     H69883   7.592   4.469   9.439  1.7072 -0.6462 -1.3254
  518MOL0     H69884   7.673   4.231   9.347 -0.8591  1.6454 -2.7546
  518MOL0     H69885   7.527   4.170   9.445 -0.4425  0.7151  0.0054
  518MOL0     H69886   7.545   4.353   9.207 -2.3698 -0.3998 -4.3453
  518MOL0     H69887   7.391   4.348   9.308 -0.0798  0.5887 -2.3551
  518MOL0     H69888   7.409   4.086   9.256  1.4250 -1.0926 -0.4339
  518MOL0     H69889   7.543   4.134   9.159  0.1467  0.0461 -3.3917
  518MOL0     H69890   7.241   4.202   8.860  0.9157 -2.2723 -0.4668
  518MOL0     H69891   6.983   4.142   8.819 -1.9638 -0.5166  0.5716
  518MOL0     H69892   6.676   4.089   8.665  0.5436  0.0009  0.7272
  518MOL0     H69893   6.459   4.024   8.572 -1.5379  0.3302 -0.0943
  518MOL0     H69894   6.125   3.997   8.861 -1.1555 -0.5445  1.1683
  518MOL0     H69895   6.051   3.961   8.715 -2.0705 -1.9047  0.5423
  518MOL0     H69896   6.144   3.709   8.719  4.3428  1.4891 -0.2070
  518MOL0     H69897   6.217   3.742   8.865  0.7742  2.0658 -0.6467
  518MOL0     H69898   5.990   3.797   8.965 -1.2129  1.1229 -0.5638
  518MOL0     H69899   5.925   3.754   8.802  0.9543  1.4394  0.4004
  518MOL0     H69900   6.041   3.565   9.032 -0.5274 -2.9037 -0.7023
  518MOL0     H69901   6.043   3.516   8.871 -3.8260  0.5233 -2.9678
  518MOL0     H69902   5.788   3.558   8.857  1.3812 -0.9667 -1.0005
  518MOL0     H69903   5.810   3.543   9.037 -2.1552 -3.1596 -0.0131
  518MOL0     H69904   5.888   3.365   8.812  0.2181  0.0757 -0.2676
  518MOL0     H69905   5.945   3.330   8.972 -1.3846 -0.6645  2.4111
  518MOL0     H69906   5.657   3.322   8.867 -2.5661 -0.8295  2.0592
  518MOL0     H69907   5.687   3.339   9.042  1.3839 -2.5580  2.3339
  518MOL0     H69908   5.793   3.136   9.083 -0.3610  0.4628 -0.2185
  518MOL0     H69909   5.650   3.101   8.981  0.7764 -0.7706  1.6811
  518MOL0     H69910   6.299   3.978   8.966 -1.5657 -2.9283 -2.7562
  518MOL0     H69911   6.516   4.005   9.064 -0.4518 -0.2271 -0.9406
  518MOL0     H69912   6.947   4.051   9.225 -1.1266 -0.7248 -1.1156
  518MOL0     H69913   7.187   4.107   9.265 -4.9459  0.9369  2.4082
  518MOL0     H69914   8.440   4.368  10.329  3.5359 -0.4034 -0.2723
  518MOL0     H69915   8.367   4.362  10.575 -2.7627 -2.1485  2.5485
  518MOL0     H69916   8.390   4.180  10.980  1.2479 -1.1909  0.0892
  518MOL0     H69917   8.350   4.124  11.214 -2.5124 -1.3670  2.2572
  518MOL0     H69918   8.108   3.782  11.349 -0.5354  1.6492 -1.5117
  518MOL0     H69919   8.189   3.871  11.486  1.1360 -1.3205  0.3058
  518MOL0     H69920   8.305   3.720  11.274 -2.9240  1.1577 -0.5392
  518MOL0     H69921   8.295   3.653  11.438 -1.3754 -2.2568 -3.5615
  518MOL0     H69922   8.426   3.880  11.493 -0.6436 -3.4491  2.3027
  518MOL0     H69923   8.481   3.867  11.335 -0.9479  4.1600  1.5977
  518MOL0     H69924   8.507   3.653  11.554 -0.4134  1.0569  0.9169
  518MOL0     H69925   8.568   3.622  11.384 -1.0823  0.0684 -0.3472
  518MOL0     H69926   8.872   3.863  11.472 -1.3198  3.2496 -1.1729
  518MOL0     H69927   8.090   3.801  11.125 -0.9608 -0.6375  1.2549
  518MOL0     H69928   8.169   3.772  10.782  0.6369  3.0188  0.4093
  518MOL0     H69929   8.099   3.699  10.932 -2.3578  2.2202  1.4302
  518MOL0     H69930   8.007   3.822  10.836 -0.5919  0.3985  1.2178
  519MOL0     O69931   9.995   4.983   7.681 -0.1784  0.2918  0.0976
  519MOL0     C69932  10.086   4.915   7.718  0.3156  1.0556  0.2460
  519MOL0     O69933  10.194   4.890   7.645 -0.0970 -0.5212  0.4329
  519MOL0     C69934  10.232   4.971   7.540 -0.1559  0.6251  0.1224
  519MOL0     C69935  10.275   5.107   7.565 -0.3369  0.3215 -0.3123
  519MOL0     C69936  10.328   5.184   7.462 -0.4066  1.0762 -1.1758
  519MOL0     C69937  10.341   5.131   7.336  0.9823  0.2496  0.4006
  519MOL0     O69938  10.376   5.228   7.241  0.2529 -0.4037 -0.3267
  519MOL0     C69939  10.344   5.194   7.105  0.1051 -0.4594 -0.5976
  519MOL0     C69940  10.383   5.317   7.014  0.3203  0.3252  0.0659
  519MOL0     C69941  10.329   5.454   7.054  0.1930 -0.7894 -0.0761
  519MOL0     C69942  10.173   5.450   7.063 -0.3459  0.4694  0.7220
  519MOL0     C69943  10.112   5.587   7.076 -0.1895  0.1561  0.1595
  519MOL0     C69944   9.976   5.588   7.005  0.6074  0.8899  0.1570
  519MOL0     C69945   9.890   5.715   6.961  0.0538  0.3427  0.4239
  519MOL0     C69946   9.868   5.811   7.074  0.5180 -0.3574  0.4349
  519MOL0     N69947   9.800   5.927   7.017 -0.1326  0.1078 -1.0467
  519MOL0     C69948   9.663   5.927   6.982  0.4236  0.1841 -0.2891
  519MOL0     C69949   9.647   6.037   6.908  0.1911 -0.7298  0.3380
  519MOL0     C69950   9.524   6.076   6.823 -0.0314 -0.3280  0.7254
  519MOL0     C69951   9.508   5.972   6.713 -0.0242 -0.0552  0.9074
  519MOL0     C69952   9.628   5.949   6.631 -0.3479  0.1783  0.1866
  519MOL0     C69953   9.609   5.823   6.544  0.5283 -0.0344 -0.7576
  519MOL0     O69954   9.622   5.698   6.619  0.2269 -0.0769  0.3990
  519MOL0     C69955   9.591   5.584   6.556  0.6780  0.0720  0.2440
  519MOL0     C69956   9.533   5.573   6.429  0.6869 -0.6558 -0.3555
  519MOL0     C69957   9.505   5.446   6.367 -0.1934 -0.8806 -0.7570
  519MOL0     C69958   9.540   5.327   6.438  0.4967 -0.8573 -0.3202
  519MOL0     C69959   9.521   5.198   6.375  0.7478  1.0145  0.0653
  519MOL0     O69960   9.579   5.088   6.426 -0.6319  0.9372  1.0168
  519MOL0     C69961   9.570   4.976   6.345  0.6256  0.0181 -0.2967
  519MOL0     C69962   9.452   4.895   6.330  0.2234  0.2551 -0.9029
  519MOL0     C69963   9.460   4.784   6.246  0.1249 -0.1863 -0.9632
  519MOL0     C69964   9.573   4.746   6.174  0.6748 -0.0250  0.9609
  519MOL0     O69965   9.560   4.643   6.083  0.2700 -0.3352  0.3184
  519MOL0     C69966   9.677   4.601   6.009 -0.1981  0.2107  0.1551
  519MOL0     C69967   9.625   4.514   5.889 -0.4157 -0.0869  0.6532
  519MOL0     C69968   9.605   4.374   5.929  0.5943 -0.1534 -0.1697
  519MOL0     C69969   9.517   4.342   6.054  0.0257  0.1106  0.0840
  519MOL0     C69970   9.509   4.192   6.071 -0.4771 -0.1371 -0.0679
  519MOL0     C69971   9.398   4.121   5.985  0.0463 -0.1275  0.0003
  519MOL0     C69972   9.390   3.974   6.033 -0.4149 -0.0844  0.3988
  519MOL0     C69973   9.283   3.890   5.973 -0.0304  0.4441  0.5551
  519MOL0    Cl69974   9.115   3.916   6.052 -0.0913  0.0928 -0.1435
  519MOL0     C69975   9.688   4.820   6.209 -0.6713  0.1848  0.4879
  519MOL0     C69976   9.686   4.925   6.300 -0.1762  0.0753 -0.4043
  519MOL0     O69977   9.443   5.198   6.277 -0.2346  0.5715 -0.3601
  519MOL0     C69978   9.606   5.341   6.559 -0.3079  0.1119  0.5422
  519MOL0     C69979   9.623   5.467   6.620  0.0720  0.2792  0.0911
  519MOL0     N69980   9.776   6.105   6.901 -0.5202 -0.3737  1.0114
  519MOL0     N69981   9.865   6.037   6.960 -0.2361  0.0836 -1.0466
  519MOL0     C69982  10.307   4.997   7.318  0.1742 -0.3154 -0.0373
  519MOL0     C69983  10.240   4.920   7.415  0.1384 -0.6717  0.5750
  519MOL0     C69984  10.064   4.817   7.833  0.2531 -0.3601 -0.7830
  519MOL0     C69985  10.011   4.865   7.950 -0.1127 -0.1509 -0.1561
  519MOL0     C69986   9.983   4.786   8.064 -0.0014  0.6533  0.2903
  519MOL0     C69987  10.027   4.651   8.060  0.0284 -1.0264  1.0541
  519MOL0     O69988  10.008   4.579   8.176  0.2389 -0.6625 -0.0498
  519MOL0     C69989  10.043   4.444   8.175  0.1787  0.4417 -0.8742
  519MOL0     C69990  10.015   4.368   8.299  0.6162  0.4901  0.1075
  519MOL0     C69991  10.050   4.446   8.435 -0.8176  0.5284  0.0485
  519MOL0     C69992   9.969   4.561   8.488  0.3665 -0.0509 -0.3433
  519MOL0     C69993   9.825   4.530   8.509 -0.7358  0.3175  0.2088
  519MOL0     C69994   9.704   4.510   8.495  0.0634  0.6917  1.0889
  519MOL0     C69995  10.058   4.596   7.935 -0.9529 -0.1173  0.0660
  519MOL0     C69996  10.083   4.678   7.821  0.3757  0.6728  0.5381
  519MOL0     C69997  10.097   4.601   7.690  0.1755  0.3450  0.1793
  519MOL0     H69998  10.263   5.131   7.670 -0.3941 -2.1526  0.3010
  519MOL0     H69999  10.350   5.285   7.496  1.2375  0.0116  1.2153
  519MOL0     H70000  10.405   5.111   7.068  0.0645  0.0655 -1.9075
  519MOL0     H70001  10.239   5.167   7.093  0.3270 -0.3197 -3.9137
  519MOL0     H70002  10.359   5.293   6.910  1.1646 -2.3809  0.4299
  519MOL0     H70003  10.492   5.323   7.016  0.4890 -1.9179 -0.4138
  519MOL0     H70004  10.353   5.526   6.975  0.9701 -1.7725 -0.7555
  519MOL0     H70005  10.378   5.486   7.147  0.4506  0.0388 -0.4923
  519MOL0     H70006  10.138   5.405   6.970  5.1423  1.1690 -2.0875
  519MOL0     H70007  10.137   5.393   7.150 -3.0971  2.3863  0.9552
  519MOL0     H70008  10.095   5.627   7.176  0.0280  5.0535 -1.4901
  519MOL0     H70009  10.169   5.664   7.023 -1.2180  1.2945  0.6441
  519MOL0     H70010   9.994   5.536   6.910  2.0533 -0.0150  0.8979
  519MOL0     H70011   9.909   5.532   7.070  0.7072  2.1634  1.3976
  519MOL0     H70012   9.792   5.684   6.924  1.4406 -1.4608 -2.0571
  519MOL0     H70013   9.943   5.770   6.883 -1.4207  1.0737 -0.1101
  519MOL0     H70014   9.800   5.759   7.143 -1.7754 -2.8966 -3.3846
  519MOL0     H70015   9.957   5.857   7.118 -1.8157  1.9287  3.1319
  519MOL0     H70016   9.584   5.859   7.011  0.5582  0.6824  1.3667
  519MOL0     H70017   9.432   6.058   6.880 -0.6835 -2.1272 -0.7747
  519MOL0     H70018   9.520   6.175   6.777  2.0927  0.4454  2.0724
  519MOL0     H70019   9.491   5.878   6.765  3.0029  0.5330  3.2334
  519MOL0     H70020   9.416   5.989   6.656  1.5891 -0.0517 -1.8626
  519MOL0     H70021   9.721   5.938   6.688 -0.5945  0.5994  0.6771
  519MOL0     H70022   9.645   6.039   6.571  4.0040  1.5398  2.9895
  519MOL0     H70023   9.683   5.826   6.464  2.8909 -0.2483  1.2936
  519MOL0     H70024   9.509   5.839   6.502 -1.1403  2.7365  3.5311
  519MOL0     H70025   9.509   5.660   6.368  2.2097  1.0218  1.2699
  519MOL0     H70026   9.467   5.439   6.266 -0.7740 -3.5519 -0.4264
  519MOL0     H70027   9.361   4.933   6.377 -0.2317 -2.8715  1.0368
  519MOL0     H70028   9.367   4.730   6.232  0.8961 -2.7260  2.3919
  519MOL0     H70029   9.734   4.687   5.971  0.7955 -0.9067 -0.9837
  519MOL0     H70030   9.738   4.537   6.073 -1.2778 -1.3510 -0.3333
  519MOL0     H70031   9.532   4.559   5.852 -0.8257 -1.0848  0.4246
  519MOL0     H70032   9.695   4.513   5.805 -2.7821 -2.4090 -1.4772
  519MOL0     H70033   9.555   4.321   5.847 -0.8373  0.0739  0.5332
  519MOL0     H70034   9.705   4.334   5.946  0.9923  2.1976  4.6518
  519MOL0     H70035   9.414   4.375   6.036  0.3921 -0.4293 -3.7216
  519MOL0     H70036   9.549   4.386   6.149  3.0576 -2.1558  0.2527
  519MOL0     H70037   9.484   4.174   6.176 -3.9239 -1.2199 -0.9288
  519MOL0     H70038   9.605   4.141   6.062  0.0059  0.4723  1.3285
  519MOL0     H70039   9.305   4.176   6.004 -0.5604 -1.4847  1.0947
  519MOL0     H70040   9.426   4.120   5.879 -0.3696 -2.6086 -0.1394
  519MOL0     H70041   9.391   3.986   6.141 -0.5992  2.0320  0.2157
  519MOL0     H70042   9.488   3.927   6.017  0.8601  2.6261 -0.3998
  519MOL0     H70043   9.269   3.909   5.866 -2.4735 -4.6850 -0.3639
  519MOL0     H70044   9.305   3.784   5.990 -1.2184  0.0266 -0.3296
  519MOL0     H70045   9.783   4.800   6.160 -0.9591  2.7495 -1.3244
  519MOL0     H70046   9.775   4.965   6.348 -1.7491  1.6835  1.3574
  519MOL0     H70047   9.643   5.254   6.612 -4.1049 -1.9367  0.1896
  519MOL0     H70048   9.676   5.482   6.714 -0.8888 -0.0839  0.7045
  519MOL0     H70049  10.317   4.958   7.217 -2.2836 -0.9533 -0.1066
  519MOL0     H70050  10.212   4.820   7.381 -0.6267 -1.1163  2.4140
  519MOL0     H70051   9.980   4.968   7.967 -1.5504 -0.8925  2.4011
  519MOL0     H70052   9.937   4.831   8.151  0.5348 -0.2824  1.0685
  519MOL0     H70053  10.148   4.430   8.146  0.1950  0.6745 -0.9360
  519MOL0     H70054   9.983   4.391   8.101  0.5055 -3.0964  1.1793
  519MOL0     H70055  10.083   4.283   8.302 -1.6914 -1.4183  1.4448
  519MOL0     H70056   9.911   4.337   8.294  0.9887 -1.1287  1.4532
  519MOL0     H70057  10.149   4.492   8.419  1.1932 -2.1231  3.5601
  519MOL0     H70058  10.083   4.379   8.514  0.4198  0.5078 -0.4523
  519MOL0     H70059  10.015   4.582   8.585  0.2387 -1.0907 -0.0410
  519MOL0     H70060   9.976   4.653   8.429 -2.7372  1.7845  1.8451
  519MOL0     H70061   9.599   4.492   8.485  0.4672 -2.0449  0.9838
  519MOL0     H70062  10.075   4.489   7.933 -0.7683 -0.0950 -1.8502
  519MOL0     H70063  10.031   4.632   7.608  1.3568 -2.5712 -2.0354
  519MOL0     H70064  10.201   4.605   7.657 -0.5358  4.1802 -2.2208
  519MOL0     H70065  10.060   4.499   7.698  1.2084 -0.0439  0.0896
  520MOL0     O70066   5.691   6.577   8.218  0.1209  0.1874 -0.7600
  520MOL0     C70067   5.703   6.455   8.220  0.1916  0.1784  0.1130
  520MOL0     O70068   5.608   6.375   8.267  0.1266 -0.0560  0.5085
  520MOL0     C70069   5.484   6.421   8.296  0.6318 -0.7611  0.7215
  520MOL0     C70070   5.369   6.404   8.215 -0.7247  0.0701  0.3233
  520MOL0     C70071   5.244   6.453   8.249  0.0879 -0.4926 -0.1823
  520MOL0     C70072   5.219   6.502   8.380  0.6019 -0.2699  0.2982
  520MOL0     O70073   5.087   6.519   8.426 -0.0808 -0.3146  0.3103
  520MOL0     C70074   5.053   6.645   8.492  0.5071 -0.6981  0.0916
  520MOL0     C70075   5.053   6.628   8.634  0.1899 -1.6985 -1.4757
  520MOL0     C70076   4.993   6.756   8.710  1.0699 -0.7624  0.0880
  520MOL0     C70077   4.919   6.706   8.838  0.1893  0.6346 -0.3320
  520MOL0     C70078   4.873   6.823   8.927 -0.2421  0.2234 -0.0302
  520MOL0     C70079   4.833   6.754   9.067  0.1888 -0.3045  0.2416
  520MOL0     C70080   4.694   6.696   9.073  0.6162 -1.0701 -0.1694
  520MOL0     C70081   4.640   6.673   9.220 -0.9367  0.0936  0.0284
  520MOL0     N70082   4.725   6.579   9.302  0.6868  0.4196 -0.1597
  520MOL0     C70083   4.673   6.498   9.404  0.3158 -0.5422 -0.3522
  520MOL0     C70084   4.775   6.463   9.481  0.2479 -0.0932  0.1478
  520MOL0     C70085   4.785   6.378   9.609 -0.6916  0.3977 -0.2139
  520MOL0     C70086   4.932   6.338   9.655  0.2139  0.5956 -0.4664
  520MOL0     C70087   4.976   6.206   9.594 -0.0081 -0.3005  0.7906
  520MOL0     C70088   5.001   6.208   9.442  0.1019 -0.4835 -1.0388
  520MOL0     O70089   5.020   6.070   9.404 -0.5559  0.6220  1.1867
  520MOL0     C70090   5.147   6.021   9.381 -0.6078 -0.5716  0.2670
  520MOL0     C70091   5.155   5.885   9.367  1.3325 -0.4803  0.7789
  520MOL0     C70092   5.280   5.826   9.342 -0.1083  0.0808  0.7541
  520MOL0     C70093   5.398   5.908   9.338  0.2199  1.3078  1.0566
  520MOL0     C70094   5.534   5.854   9.313  0.4363 -0.1141  0.2599
  520MOL0     O70095   5.643   5.925   9.349 -0.5196 -0.5143 -1.0207
  520MOL0     C70096   5.776   5.875   9.352  0.2692  0.0031 -0.8778
  520MOL0     C70097   5.811   5.746   9.383 -0.3824  0.8435 -0.3862
  520MOL0     C70098   5.944   5.714   9.397 -1.4952 -0.8523  0.4946
  520MOL0     C70099   6.040   5.807   9.357  0.7150 -0.3653  0.1511
  520MOL0     O70100   6.176   5.778   9.334  0.4180 -0.2899  0.9467
  520MOL0     C70101   6.226   5.646   9.356  0.3111 -1.0374  0.0107
  520MOL0     C70102   6.375   5.684   9.358  0.3796 -0.4485 -0.4017
  520MOL0     C70103   6.459   5.559   9.395 -0.6317  0.0105  0.9457
  520MOL0     C70104   6.610   5.577   9.348 -0.1484  0.3789 -0.4791
  520MOL0     C70105   6.684   5.435   9.357  0.3096 -0.5623 -0.6628
  520MOL0     C70106   6.821   5.443   9.290 -0.1447 -0.9259  0.4112
  520MOL0     C70107   6.797   5.436   9.144  0.7126  0.4697 -0.7309
  520MOL0     C70108   6.921   5.438   9.062 -0.3131 -0.8126 -0.4774
  520MOL0    Cl70109   7.022   5.300   9.110  0.0292 -0.2786 -0.0369
  520MOL0     C70110   6.001   5.936   9.330 -0.2402 -0.6475 -0.7527
  520MOL0     C70111   5.867   5.969   9.314  0.0491  1.1557 -0.4071
  520MOL0     O70112   5.539   5.740   9.264  0.1075  0.1186 -0.2820
  520MOL0     C70113   5.381   6.040   9.356 -0.8178  0.9889  0.7127
  520MOL0     C70114   5.267   6.094   9.385  0.9275 -0.7413 -0.4316
  520MOL0     N70115   4.892   6.523   9.420 -0.1506  0.2476 -0.2984
  520MOL0     N70116   4.857   6.590   9.316  0.2562 -0.5683 -0.3972
  520MOL0     C70117   5.343   6.532   8.455 -0.0848  0.0360 -0.9836
  520MOL0     C70118   5.468   6.488   8.415  0.3729  0.7065  0.8140
  520MOL0     C70119   5.827   6.391   8.165 -0.3347 -0.8696 -0.0463
  520MOL0     C70120   5.868   6.270   8.215  1.3957 -0.1983 -0.3460
  520MOL0     C70121   5.985   6.203   8.184 -0.0692 -0.5316  0.0557
  520MOL0     C70122   6.068   6.263   8.091 -0.2749 -0.3009  0.2926
  520MOL0     O70123   6.191   6.214   8.056  0.0190  0.3079 -0.4667
  520MOL0     C70124   6.293   6.209   8.157 -0.0568 -0.5825  0.3310
  520MOL0     C70125   6.429   6.180   8.096  0.2423  0.4433 -0.0835
  520MOL0     C70126   6.461   6.296   7.997  0.7219  0.3738  0.3290
  520MOL0     C70127   6.595   6.277   7.927  0.0434 -0.0120 -0.4402
  520MOL0     C70128   6.608   6.167   7.836  0.0871 -0.0736 -0.7545
  520MOL0     C70129   6.609   6.071   7.766 -0.9193  0.7892  0.4407
  520MOL0     C70130   6.039   6.385   8.033 -0.1674 -0.2299  0.4639
  520MOL0     C70131   5.915   6.443   8.070 -1.0615 -0.7823 -0.0068
  520MOL0     C70132   5.884   6.569   7.977  0.0607 -0.4329 -1.1562
  520MOL0     H70133   5.387   6.353   8.121  0.9738  0.4433  0.4271
  520MOL0     H70134   5.173   6.432   8.170  2.0632 -0.5036 -2.0816
  520MOL0     H70135   5.111   6.726   8.448  2.2758 -1.1360  1.5202
  520MOL0     H70136   4.958   6.664   8.440  0.3114 -4.3130 -1.1852
  520MOL0     H70137   5.154   6.621   8.677 -1.0316 -1.1665  1.7673
  520MOL0     H70138   4.989   6.544   8.663  0.2316 -1.4816 -0.7199
  520MOL0     H70139   4.923   6.808   8.644  2.0679  0.2433 -0.2124
  520MOL0     H70140   5.074   6.823   8.740 -0.6337  0.7291  1.6223
  520MOL0     H70141   4.836   6.636   8.823 -1.5823  2.4005  0.7745
  520MOL0     H70142   4.988   6.642   8.893 -0.5010 -2.0696 -2.4121
  520MOL0     H70143   4.952   6.898   8.941 -3.4585  3.9372  0.1422
  520MOL0     H70144   4.788   6.877   8.885 -0.5554 -1.1404 -1.2245
  520MOL0     H70145   4.898   6.673   9.103 -0.4013 -0.5847  0.6905
  520MOL0     H70146   4.846   6.839   9.135  1.1029  0.6028 -1.0390
  520MOL0     H70147   4.697   6.598   9.026 -0.7940 -0.4230 -1.7354
  520MOL0     H70148   4.619   6.763   9.029 -0.7661  0.0568  3.5080
  520MOL0     H70149   4.637   6.773   9.263 -1.2465 -0.1999  0.7056
  520MOL0     H70150   4.537   6.635   9.217 -0.9808  0.0953 -3.5896
  520MOL0     H70151   4.574   6.454   9.411  0.4103 -0.7762 -0.4503
  520MOL0     H70152   4.747   6.436   9.693 -0.6488 -3.2675  2.5994
  520MOL0     H70153   4.722   6.289   9.610  0.0937 -0.1714  0.5678
  520MOL0     H70154   4.998   6.423   9.635 -0.7449  0.9133 -2.4833
  520MOL0     H70155   4.924   6.332   9.764  1.0785 -0.3490 -0.4420
  520MOL0     H70156   4.914   6.121   9.624  1.4228 -1.2305  1.2271
  520MOL0     H70157   5.076   6.186   9.635  0.4372  0.7911  0.2783
  520MOL0     H70158   5.077   6.275   9.400  1.2913 -1.4236 -0.4426
  520MOL0     H70159   4.907   6.238   9.395  0.0535  1.7286  0.3221
  520MOL0     H70160   5.059   5.833   9.372  1.0806  0.0929  4.0751
  520MOL0     H70161   5.296   5.722   9.319  2.3598  0.1304  1.8805
  520MOL0     H70162   5.739   5.675   9.420 -0.2151  1.5369  1.3767
  520MOL0     H70163   5.980   5.614   9.422  0.5700  0.6937  4.6872
  520MOL0     H70164   6.198   5.606   9.454 -0.3062  3.9210  2.1301
  520MOL0     H70165   6.205   5.567   9.284 -1.8498 -0.8541  0.3706
  520MOL0     H70166   6.398   5.712   9.255 -3.8913 -0.8112 -1.6259
  520MOL0     H70167   6.381   5.769   9.426 -0.5543 -1.3928  0.9283
  520MOL0     H70168   6.463   5.547   9.503  1.2010 -1.8535  0.7474
  520MOL0     H70169   6.407   5.475   9.349 -1.0632  0.2028  1.0829
  520MOL0     H70170   6.660   5.657   9.404 -1.0096  0.9315 -0.4717
  520MOL0     H70171   6.606   5.602   9.242  0.1543 -3.2732 -1.4677
  520MOL0     H70172   6.621   5.358   9.310 -1.4294  0.7369 -0.5438
  520MOL0     H70173   6.707   5.419   9.462 -1.7386  3.8555  0.6842
  520MOL0     H70174   6.877   5.531   9.323 -1.7895  0.0524  0.7500
  520MOL0     H70175   6.879   5.356   9.320  2.9172 -0.9496 -4.4892
  520MOL0     H70176   6.730   5.515   9.109 -2.9523 -1.5847  1.0037
  520MOL0     H70177   6.750   5.342   9.114  0.2304  0.8132 -1.0630
  520MOL0     H70178   6.892   5.435   8.956 -0.3274  0.6622 -0.5422
  520MOL0     H70179   6.968   5.537   9.070  0.4771 -0.9487 -2.6043
  520MOL0     H70180   6.088   5.998   9.311  1.4290 -2.6968 -0.1275
  520MOL0     H70181   5.841   6.072   9.289  0.8647  1.0073 -1.9726
  520MOL0     H70182   5.475   6.095   9.357  0.4855 -0.9664  4.0341
  520MOL0     H70183   5.259   6.198   9.416  0.0988 -0.6416 -0.9239
  520MOL0     H70184   5.337   6.570   8.556  0.2033 -1.4339 -0.3835
  520MOL0     H70185   5.551   6.507   8.483 -1.4862  1.8705  2.8934
  520MOL0     H70186   5.795   6.218   8.277 -1.6485  2.6596 -1.2619
  520MOL0     H70187   6.015   6.103   8.212  0.3161 -0.8327 -1.3464
  520MOL0     H70188   6.272   6.127   8.226  1.1244 -0.5119  0.8109
  520MOL0     H70189   6.308   6.299   8.217 -1.6976 -0.3093  0.3682
  520MOL0     H70190   6.423   6.080   8.051  0.4880 -0.0067  0.8552
  520MOL0     H70191   6.512   6.177   8.167  0.0934  0.5141  0.0951
  520MOL0     H70192   6.456   6.390   8.054  3.7252  1.6718 -1.2925
  520MOL0     H70193   6.383   6.314   7.923  1.0324  4.1270  0.6990
  520MOL0     H70194   6.625   6.371   7.881 -1.9398  1.9535  1.9944
  520MOL0     H70195   6.677   6.267   7.998  2.4981  0.0317 -3.0929
  520MOL0     H70196   6.599   5.983   7.705  0.0070 -0.3815  1.9083
  520MOL0     H70197   6.104   6.420   7.953 -0.5462 -1.3572 -0.3470
  520MOL0     H70198   5.961   6.592   7.903 -0.7220  2.6636 -1.1536
  520MOL0     H70199   5.786   6.566   7.928 -1.3752  3.1747  1.0659
  520MOL0     H70200   5.878   6.657   8.042  0.4619 -1.3061  0.0800
  521MOL0     O70201  10.132   9.014   5.064  0.1877 -0.4881  0.3228
  521MOL0     C70202  10.222   9.041   5.152  0.0732 -0.3261 -0.6645
  521MOL0     O70203  10.205   9.137   5.255 -0.1098 -0.2962 -0.5973
  521MOL0     C70204  10.081   9.198   5.278 -0.2482  0.4495 -1.4289
  521MOL0     C70205   9.966   9.124   5.302 -0.3024 -0.1970 -0.1227
  521MOL0     C70206   9.844   9.185   5.308  0.2369 -0.4625  0.2892
  521MOL0     C70207   9.837   9.323   5.285  0.9518 -0.1539 -0.6478
  521MOL0     O70208   9.710   9.374   5.280  0.3144  0.6119 -0.2618
  521MOL0     C70209   9.679   9.510   5.284 -0.8025 -0.1640 -0.5359
  521MOL0     C70210   9.543   9.535   5.343 -0.5289 -0.2094 -0.2395
  521MOL0     C70211   9.432   9.448   5.270 -0.6187  0.1275 -0.7553
  521MOL0     C70212   9.296   9.493   5.318  0.1955 -0.1539 -0.0988
  521MOL0     C70213   9.188   9.389   5.292  0.7461 -0.3378 -0.7413
  521MOL0     C70214   9.047   9.447   5.298  0.7353  0.1904  0.4620
  521MOL0     C70215   8.945   9.338   5.278 -0.1472  1.0040  0.4141
  521MOL0     C70216   8.802   9.400   5.275  0.7444 -0.4640  0.7156
  521MOL0     N70217   8.710   9.290   5.282  0.2626 -0.1467  1.0296
  521MOL0     C70218   8.648   9.234   5.388 -1.0963  0.4064  0.4785
  521MOL0     C70219   8.557   9.135   5.340  0.1363  0.0396 -0.7739
  521MOL0     C70220   8.454   9.085   5.437 -0.3792  0.3650  0.7719
  521MOL0     C70221   8.485   8.946   5.496  0.7254  0.4540  0.0188
  521MOL0     C70222   8.369   8.890   5.573  0.5322 -0.6457 -0.0709
  521MOL0     C70223   8.424   8.767   5.637 -0.6538  1.2776 -0.1487
  521MOL0     O70224   8.429   8.668   5.536 -0.4199 -0.2090  0.0840
  521MOL0     C70225   8.502   8.555   5.549  0.5396 -0.2303  0.2261
  521MOL0     C70226   8.540   8.494   5.431 -0.0208  1.1484  0.4840
  521MOL0     C70227   8.603   8.368   5.437  0.1656 -0.9569 -1.0025
  521MOL0     C70228   8.641   8.307   5.561 -0.2613  0.5618 -0.6413
  521MOL0     C70229   8.725   8.181   5.567 -0.1106 -0.6503  1.2278
  521MOL0     O70230   8.772   8.124   5.438 -0.1240 -0.4479 -1.1998
  521MOL0     C70231   8.809   7.992   5.448 -0.1370  1.0453  0.4771
  521MOL0     C70232   8.915   7.938   5.530  0.0651 -0.1007 -0.7546
  521MOL0     C70233   8.936   7.801   5.527  0.2309 -0.8144  0.1619
  521MOL0     C70234   8.873   7.715   5.438 -0.3517  0.1855 -0.4561
  521MOL0     O70235   8.915   7.589   5.411  0.7751  0.0883 -0.4802
  521MOL0     C70236   9.012   7.526   5.491 -0.3261 -0.3827 -0.0675
  521MOL0     C70237   9.045   7.397   5.419  0.1641 -0.5883  0.1209
  521MOL0     C70238   9.146   7.316   5.490 -0.5684  0.1517 -0.1498
  521MOL0     C70239   9.121   7.167   5.456 -0.1777 -0.7448  0.2676
  521MOL0     C70240   9.223   7.066   5.497 -0.0325 -0.0101  0.2556
  521MOL0     C70241   9.362   7.102   5.434  0.2624 -0.5430 -0.0481
  521MOL0     C70242   9.413   6.975   5.361  1.2896 -0.6403 -0.1506
  521MOL0     C70243   9.546   7.020   5.315 -0.6620 -0.1872 -0.1030
  521MOL0    Cl70244   9.606   6.875   5.212 -0.3359 -0.0782  0.0205
  521MOL0     C70245   8.773   7.767   5.359  0.3907  0.1245 -0.2817
  521MOL0     C70246   8.737   7.900   5.365 -0.3537 -0.3376 -0.0665
  521MOL0     O70247   8.722   8.119   5.678  1.0646 -0.3378  0.5006
  521MOL0     C70248   8.589   8.362   5.675 -0.9531 -0.1267  0.0770
  521MOL0     C70249   8.519   8.483   5.670  0.7165 -0.4901  0.6953
  521MOL0     N70250   8.576   9.124   5.204 -0.3621  0.0330 -0.2384
  521MOL0     N70251   8.670   9.217   5.170 -0.2216  0.0736  0.4059
  521MOL0     C70252   9.953   9.398   5.264 -0.3175 -0.2775 -0.9597
  521MOL0     C70253  10.073   9.335   5.254 -0.4408  0.1282  1.1264
  521MOL0     C70254  10.361   8.980   5.131 -0.4684  0.5108 -0.9918
  521MOL0     C70255  10.378   8.848   5.077  0.1060 -0.0816 -0.5794
  521MOL0     C70256  10.496   8.786   5.055 -0.3215 -0.1697 -0.0472
  521MOL0     C70257  10.608   8.858   5.088 -0.8939 -1.5802 -0.6238
  521MOL0     O70258  10.737   8.815   5.099 -0.5249  0.3042  0.8199
  521MOL0     C70259  10.763   8.670   5.093 -0.3291 -0.3482  0.1919
  521MOL0     C70260  10.894   8.622   5.166  0.3480 -0.1924 -0.4270
  521MOL0     C70261  11.011   8.704   5.109  0.6627  1.0347 -0.2290
  521MOL0     C70262  11.135   8.633   5.163 -0.2978 -0.0149 -0.5544
  521MOL0     C70263  11.258   8.694   5.106  1.3542 -0.8301 -0.3796
  521MOL0     C70264  11.367   8.728   5.064 -0.7473 -1.0882  0.6257
  521MOL0     C70265  10.604   8.990   5.135  0.3729  0.1885  0.3207
  521MOL0     C70266  10.480   9.049   5.157 -0.1320  0.0244 -0.4333
  521MOL0     C70267  10.488   9.196   5.202  0.3315  0.2618 -0.3015
  521MOL0     H70268   9.968   9.017   5.321  0.1622 -0.2600 -0.5158
  521MOL0     H70269   9.746   9.140   5.320 -0.3086  1.2013  2.9906
  521MOL0     H70270   9.744   9.571   5.347 -3.1117  2.5815 -0.5872
  521MOL0     H70271   9.681   9.548   5.181  0.2263  0.4236 -0.3045
  521MOL0     H70272   9.521   9.641   5.327 -0.7335  0.0644  1.6142
  521MOL0     H70273   9.555   9.522   5.451  0.9726  3.9298  0.3099
  521MOL0     H70274   9.458   9.343   5.285  0.2609 -0.1672 -3.6342
  521MOL0     H70275   9.439   9.453   5.161  2.0735  0.8451 -0.6297
  521MOL0     H70276   9.299   9.523   5.423  1.9688 -0.1794 -0.1253
  521MOL0     H70277   9.268   9.586   5.268  2.6911  2.5589  3.1067
  521MOL0     H70278   9.216   9.348   5.194 -0.1183 -0.6109 -0.8797
  521MOL0     H70279   9.190   9.300   5.355 -1.4748 -1.3972 -2.0731
  521MOL0     H70280   9.028   9.511   5.385  1.6684  0.0679  0.7666
  521MOL0     H70281   9.037   9.508   5.208 -0.3905 -0.9352 -0.2017
  521MOL0     H70282   8.933   9.275   5.366 -0.5963  1.0264  0.3742
  521MOL0     H70283   8.968   9.270   5.195  1.2852 -1.1889  2.4876
  521MOL0     H70284   8.785   9.474   5.354 -0.9032  0.1770 -0.1947
  521MOL0     H70285   8.784   9.452   5.180  2.2696 -1.6173 -0.2566
  521MOL0     H70286   8.672   9.271   5.487  1.7894 -0.6076  0.2442
  521MOL0     H70287   8.445   9.158   5.517 -1.6568  1.5551 -0.4128
  521MOL0     H70288   8.366   9.071   5.374  0.4737  2.9821 -1.1570
  521MOL0     H70289   8.505   8.889   5.405 -1.8884  0.8012 -0.8599
  521MOL0     H70290   8.571   8.945   5.562  2.2623 -2.0314 -1.8553
  521MOL0     H70291   8.289   8.865   5.503  1.2417  1.5333 -1.7815
  521MOL0     H70292   8.325   8.955   5.650 -0.7680 -1.3538 -0.1800
  521MOL0     H70293   8.355   8.744   5.719  0.2755  1.5240  0.7284
  521MOL0     H70294   8.523   8.783   5.681 -1.2083 -0.1415  1.7403
  521MOL0     H70295   8.518   8.550   5.340 -3.1155  1.5298  1.3582
  521MOL0     H70296   8.646   8.329   5.346 -0.6280  0.3923 -1.9848
  521MOL0     H70297   8.977   8.006   5.587 -0.7568  0.2175 -0.2262
  521MOL0     H70298   9.024   7.766   5.581  1.2926  2.1782  0.5722
  521MOL0     H70299   9.101   7.588   5.475  0.4661 -1.9879 -2.4438
  521MOL0     H70300   8.989   7.515   5.597 -0.2325  3.2254  0.4765
  521MOL0     H70301   8.958   7.331   5.419  1.1397 -1.9901  2.1976
  521MOL0     H70302   9.078   7.400   5.315  0.6759 -0.2793  0.2855
  521MOL0     H70303   9.242   7.340   5.442 -0.9539  1.8675 -0.1089
  521MOL0     H70304   9.154   7.336   5.597  0.5829  1.3624 -0.4387
  521MOL0     H70305   9.105   7.151   5.349  0.3467  2.1051 -0.3082
  521MOL0     H70306   9.024   7.134   5.495 -1.9442  1.3081 -2.0601
  521MOL0     H70307   9.187   6.966   5.470 -1.4658 -0.1382  2.3979
  521MOL0     H70308   9.238   7.057   5.605  3.0220 -0.0539 -0.0890
  521MOL0     H70309   9.357   7.182   5.360 -1.1066 -1.4347 -0.9759
  521MOL0     H70310   9.428   7.145   5.510 -1.7611 -1.0765  2.1509
  521MOL0     H70311   9.354   6.955   5.272 -0.4058 -1.0782  1.0250
  521MOL0     H70312   9.423   6.888   5.427  3.6699  2.3617  3.9331
  521MOL0     H70313   9.536   7.113   5.257  1.0656  0.7852  1.0794
  521MOL0     H70314   9.618   7.043   5.394  0.3174  0.1304 -1.0564
  521MOL0     H70315   8.720   7.709   5.284 -2.7861  0.5525  1.4965
  521MOL0     H70316   8.654   7.946   5.314  1.1710  2.7937  0.0567
  521MOL0     H70317   8.615   8.314   5.769 -0.2668  2.4632  1.2860
  521MOL0     H70318   8.470   8.538   5.749 -0.8471  2.2946 -2.0063
  521MOL0     H70319   9.946   9.502   5.233 -0.1799  0.7504  2.1042
  521MOL0     H70320  10.165   9.385   5.226  0.3464 -2.7882 -2.2111
  521MOL0     H70321  10.292   8.787   5.051 -0.2659  0.6262 -1.0634
  521MOL0     H70322  10.516   8.689   5.009  0.2682 -1.1859  2.1882
  521MOL0     H70323  10.764   8.636   4.990 -2.1239  1.8050 -0.6315
  521MOL0     H70324  10.678   8.621   5.143  0.5382 -0.2379  1.8582
  521MOL0     H70325  10.900   8.513   5.162 -2.3696 -0.4387  0.3157
  521MOL0     H70326  10.873   8.640   5.272 -2.8181  1.4833 -1.2131
  521MOL0     H70327  11.002   8.812   5.123 -0.7458  0.7849  1.0172
  521MOL0     H70328  11.009   8.685   5.001 -0.5812  0.8825 -0.1871
  521MOL0     H70329  11.142   8.634   5.272 -0.5431  0.9739 -0.5374
  521MOL0     H70330  11.130   8.525   5.144  0.0194 -0.9896  3.8131
  521MOL0     H70331  11.459   8.761   5.021 -0.9619  2.2127  2.3638
  521MOL0     H70332  10.703   9.033   5.143  0.7481 -0.9315  2.3874
  521MOL0     H70333  10.585   9.244   5.192  0.1506  0.1864 -3.2889
  521MOL0     H70334  10.414   9.254   5.146 -0.2182  0.3723  0.5122
  521MOL0     H70335  10.467   9.196   5.310 -1.7126  0.8897 -0.6544
  522MOL0     O70336   7.191   2.396   9.039  0.6429 -0.4759  0.2714
  522MOL0     C70337   7.102   2.426   8.959 -0.3331  0.1769  0.3789
  522MOL0     O70338   7.127   2.443   8.827 -1.5051 -0.3423  0.5967
  522MOL0     C70339   7.255   2.422   8.770 -0.5947  0.4089 -0.5817
  522MOL0     C70340   7.366   2.488   8.822  0.8405 -0.0336 -0.1679
  522MOL0     C70341   7.492   2.475   8.764 -0.3376 -0.2139  0.3450
  522MOL0     C70342   7.520   2.395   8.656 -0.2867  0.0638  0.2291
  522MOL0     O70343   7.648   2.386   8.609  0.2761 -1.0298  0.0395
  522MOL0     C70344   7.659   2.353   8.465 -0.7373  0.0956 -0.6058
  522MOL0     C70345   7.806   2.363   8.420 -0.4944 -0.3596 -0.4182
  522MOL0     C70346   7.884   2.480   8.479  0.5085 -0.4425  0.1156
  522MOL0     C70347   8.029   2.508   8.438  1.0415 -0.3668  0.3128
  522MOL0     C70348   8.075   2.639   8.506  0.7158  0.5275 -0.5545
  522MOL0     C70349   8.217   2.663   8.460 -0.1449 -0.3912  0.2105
  522MOL0     C70350   8.287   2.792   8.513 -0.1738  0.1070 -1.4871
  522MOL0     C70351   8.425   2.812   8.459 -0.7592 -0.0960 -0.1079
  522MOL0     N70352   8.480   2.938   8.489 -0.7180  0.2868 -0.3404
  522MOL0     C70353   8.484   3.013   8.609 -0.9436 -0.4729 -0.7513
  522MOL0     C70354   8.565   3.120   8.574 -1.3199  1.3377  0.0974
  522MOL0     C70355   8.593   3.240   8.656  0.3806  0.0500 -0.4008
  522MOL0     C70356   8.485   3.341   8.616  0.0233 -0.5050  0.0286
  522MOL0     C70357   8.493   3.477   8.691  1.0559  1.1649 -0.1182
  522MOL0     C70358   8.379   3.560   8.650 -0.1262 -0.3415  0.0814
  522MOL0     O70359   8.360   3.669   8.739  0.3620 -0.4141 -0.8158
  522MOL0     C70360   8.456   3.772   8.753 -0.0141 -0.1477 -0.6181
  522MOL0     C70361   8.446   3.842   8.868  0.1645  0.3087 -0.7977
  522MOL0     C70362   8.515   3.966   8.887 -0.8428  0.5871 -0.0663
  522MOL0     C70363   8.612   4.007   8.790 -0.4303 -0.0221  0.6709
  522MOL0     C70364   8.689   4.131   8.811 -0.1750  0.1352 -0.5129
  522MOL0     O70365   8.667   4.208   8.927 -0.1996  0.1969 -0.0569
  522MOL0     C70366   8.736   4.328   8.965 -0.3645 -0.0785  0.1476
  522MOL0     C70367   8.871   4.328   8.980  0.5160  0.2154  0.4155
  522MOL0     C70368   8.936   4.441   9.027 -0.0249  0.0286  0.5100
  522MOL0     C70369   8.858   4.555   9.068 -0.2175 -0.3979 -0.3063
  522MOL0     O70370   8.909   4.664   9.139  0.1797  0.1206  0.5329
  522MOL0     C70371   9.052   4.673   9.164 -0.9089 -0.1627  0.6631
  522MOL0     C70372   9.100   4.586   9.288  0.2239  0.0338  0.9307
  522MOL0     C70373   9.228   4.643   9.335  0.0797 -0.7042  0.0332
  522MOL0     C70374   9.235   4.785   9.398 -0.8016 -0.1210  1.0742
  522MOL0     C70375   9.370   4.787   9.483 -0.4063 -0.6592  0.7640
  522MOL0     C70376   9.394   4.924   9.538 -0.4113  0.8929 -0.2074
  522MOL0     C70377   9.528   4.937   9.607 -0.2406  0.2285  0.1386
  522MOL0     C70378   9.538   5.081   9.663  0.5252 -0.1341  0.2721
  522MOL0    Cl70379   9.411   5.086   9.796  0.0111  0.5706 -0.1939
  522MOL0     C70380   8.716   4.556   9.056 -0.1109 -0.0822 -0.4231
  522MOL0     C70381   8.656   4.443   8.993  0.1814 -0.5684 -0.6765
  522MOL0     O70382   8.775   4.159   8.727  0.7470  0.0906 -0.0133
  522MOL0     C70383   8.623   3.926   8.672 -0.1745  0.5355 -0.3532
  522MOL0     C70384   8.548   3.813   8.654 -0.5958  0.4888 -0.6210
  522MOL0     N70385   8.618   3.102   8.450  0.1791 -0.4681  0.7307
  522MOL0     N70386   8.553   3.014   8.395  0.4561  0.1527 -0.3827
  522MOL0     C70387   7.411   2.320   8.612 -0.8437  0.6672  0.3821
  522MOL0     C70388   7.277   2.336   8.664 -0.9095  0.2909  0.7049
  522MOL0     C70389   6.968   2.441   9.021  0.0381 -0.2077  0.2594
  522MOL0     C70390   6.871   2.479   8.932  0.2768 -0.4363 -0.3583
  522MOL0     C70391   6.745   2.520   8.965 -0.2753  0.5873 -0.0126
  522MOL0     C70392   6.712   2.514   9.106  0.7746 -0.2588  0.1628
  522MOL0     O70393   6.595   2.539   9.169  0.1419 -0.6337  0.4936
  522MOL0     C70394   6.471   2.552   9.092  0.1071 -0.3701 -0.2909
  522MOL0     C70395   6.364   2.447   9.137  0.4177 -0.0995  0.3612
  522MOL0     C70396   6.416   2.304   9.117 -0.0253 -0.3303  0.1512
  522MOL0     C70397   6.360   2.212   9.224  0.1176 -0.0388  0.6288
  522MOL0     C70398   6.215   2.227   9.232 -0.9651 -0.4593  0.0058
  522MOL0     C70399   6.094   2.253   9.241 -0.5100  0.3551  0.4895
  522MOL0     C70400   6.801   2.464   9.202  0.0665  0.1625 -0.0010
  522MOL0     C70401   6.933   2.432   9.164 -0.1693 -0.5902  0.3928
  522MOL0     C70402   7.015   2.382   9.269 -0.2511  0.1466 -0.4421
  522MOL0     H70403   7.347   2.556   8.904  3.7954 -0.9694  1.4718
  522MOL0     H70404   7.581   2.534   8.786  0.2740 -1.0875  0.2530
  522MOL0     H70405   7.631   2.250   8.439  3.0916 -1.3058  0.2452
  522MOL0     H70406   7.597   2.419   8.404 -0.3413 -0.7277 -1.9349
  522MOL0     H70407   7.801   2.354   8.311 -0.0969 -0.5275 -0.4236
  522MOL0     H70408   7.855   2.270   8.449 -0.2532 -0.4760 -1.1823
  522MOL0     H70409   7.894   2.465   8.587  2.7593  2.4638  0.4243
  522MOL0     H70410   7.824   2.571   8.467 -0.2847 -0.9668 -0.0048
  522MOL0     H70411   8.090   2.423   8.471 -0.8684 -0.7348  3.2580
  522MOL0     H70412   8.030   2.521   8.329 -4.7452  1.3267  0.1054
  522MOL0     H70413   8.005   2.722   8.495 -2.8395 -2.2230 -0.3308
  522MOL0     H70414   8.073   2.637   8.615 -1.6507 -0.0059 -0.5503
  522MOL0     H70415   8.271   2.579   8.505 -0.4995 -1.0430 -0.5440
  522MOL0     H70416   8.220   2.662   8.351 -1.6138  0.1239  0.1491
  522MOL0     H70417   8.298   2.782   8.621  3.2438 -1.8999 -1.8668
  522MOL0     H70418   8.225   2.874   8.476 -0.0732 -1.1493 -4.7800
  522MOL0     H70419   8.504   2.741   8.487 -0.4112  0.4674  0.3441
  522MOL0     H70420   8.432   2.800   8.350  1.3717 -2.9362  0.2079
  522MOL0     H70421   8.448   2.991   8.709  2.1717  2.7119  1.3154
  522MOL0     H70422   8.579   3.199   8.757  0.1813 -1.4622 -1.0151
  522MOL0     H70423   8.691   3.279   8.629  0.4085 -0.4267 -0.9990
  522MOL0     H70424   8.496   3.363   8.510 -2.0668  0.8599  0.0434
  522MOL0     H70425   8.386   3.292   8.620  1.6169 -4.0051  0.6537
  522MOL0     H70426   8.592   3.509   8.659  1.8972 -1.0079  0.1390
  522MOL0     H70427   8.493   3.468   8.800 -0.1000  2.4813  0.0213
  522MOL0     H70428   8.285   3.505   8.642 -1.3585  1.7906 -1.0741
  522MOL0     H70429   8.392   3.595   8.547 -0.1842  0.0433  0.1999
  522MOL0     H70430   8.376   3.809   8.944 -1.2383 -0.4538 -2.3235
  522MOL0     H70431   8.496   4.029   8.973 -0.1712  0.0470  0.4851
  522MOL0     H70432   8.935   4.245   8.953 -0.9399 -0.7440 -0.1414
  522MOL0     H70433   9.043   4.425   9.022 -0.0068  0.5406 -1.9204
  522MOL0     H70434   9.111   4.644   9.076 -1.4469  4.4399 -1.4840
  522MOL0     H70435   9.073   4.777   9.190  0.2624 -0.5479  1.3161
  522MOL0     H70436   9.026   4.577   9.368 -1.3561  2.1253 -0.1948
  522MOL0     H70437   9.124   4.484   9.256 -2.9549 -0.7779  0.8244
  522MOL0     H70438   9.262   4.560   9.398  1.1516 -0.6605 -0.4546
  522MOL0     H70439   9.300   4.646   9.252 -0.9404 -2.1264 -0.9331
  522MOL0     H70440   9.155   4.797   9.472 -0.5045  1.0760  1.2241
  522MOL0     H70441   9.219   4.867   9.327 -0.5720 -0.6554  0.3882
  522MOL0     H70442   9.458   4.764   9.421  0.3449  2.8800  0.2545
  522MOL0     H70443   9.365   4.722   9.571 -2.7758  0.4670  1.5442
  522MOL0     H70444   9.383   5.001   9.461  0.3455  1.3469  0.1215
  522MOL0     H70445   9.321   4.950   9.614  1.1658 -1.9308  2.5081
  522MOL0     H70446   9.606   4.918   9.533 -0.7704  0.5446 -0.5126
  522MOL0     H70447   9.538   4.869   9.692  2.5031  1.9532  1.3425
  522MOL0     H70448   9.639   5.095   9.703  0.1288  0.7869  1.0012
  522MOL0     H70449   9.520   5.152   9.582  0.8525 -2.1536 -1.6455
  522MOL0     H70450   8.651   4.634   9.093  1.1824 -0.4413  2.9861
  522MOL0     H70451   8.549   4.427   8.992  0.2312 -0.8977 -1.6437
  522MOL0     H70452   8.695   3.955   8.596 -1.3050 -0.0300 -1.6630
  522MOL0     H70453   8.547   3.751   8.565  0.1350 -0.6927  0.1590
  522MOL0     H70454   7.430   2.241   8.540  1.9181 -0.8676  2.5795
  522MOL0     H70455   7.193   2.280   8.627  0.2765  0.6885 -2.9394
  522MOL0     H70456   6.894   2.498   8.828 -1.0681  1.0483 -0.4264
  522MOL0     H70457   6.683   2.559   8.885  1.6974  2.3005 -0.8127
  522MOL0     H70458   6.483   2.536   8.984 -0.9473 -0.2619 -0.4304
  522MOL0     H70459   6.445   2.656   9.112  1.7750 -0.1544  0.9414
  522MOL0     H70460   6.272   2.450   9.078  0.8620  0.1842 -0.3311
  522MOL0     H70461   6.332   2.480   9.237 -0.8883  3.3258 -1.0203
  522MOL0     H70462   6.524   2.295   9.100 -0.1622  0.7060 -1.3958
  522MOL0     H70463   6.374   2.270   9.022 -3.1069  3.7895 -0.2347
  522MOL0     H70464   6.374   2.105   9.207 -0.9575 -0.5243  2.5357
  522MOL0     H70465   6.400   2.240   9.322  0.1201  0.6243  0.4468
  522MOL0     H70466   5.990   2.270   9.259 -0.4299  1.7941 -0.3112
  522MOL0     H70467   6.765   2.448   9.303 -1.5340 -2.1000 -0.8668
  522MOL0     H70468   7.093   2.452   9.301 -0.7550  0.3083  0.4709
  522MOL0     H70469   6.961   2.344   9.356  3.0662  0.7996  2.1039
  522MOL0     H70470   7.056   2.292   9.222 -2.2245 -1.1440  0.1857
  523MOL0     O70471  10.323   7.172   4.189 -0.4125 -0.3892 -0.5898
  523MOL0     C70472  10.404   7.128   4.114 -0.6698  0.4287 -0.4116
  523MOL0     O70473  10.528   7.175   4.095 -1.5435 -0.2481  0.3838
  523MOL0     C70474  10.596   7.258   4.177  0.7214 -0.0360  0.0367
  523MOL0     C70475  10.569   7.286   4.316  0.1166  0.5264 -0.1935
  523MOL0     C70476  10.667   7.344   4.400  0.2270  0.5060  0.8196
  523MOL0     C70477  10.790   7.378   4.345 -0.2242 -0.2271  0.9118
  523MOL0     O70478  10.883   7.444   4.423 -0.9529 -0.7440 -0.5303
  523MOL0     C70479  10.952   7.353   4.512  0.1208  0.5055 -0.2517
  523MOL0     C70480  11.052   7.430   4.589  0.1832  0.1603 -0.2557
  523MOL0     C70481  11.184   7.457   4.505 -0.1744  0.4591  0.0028
  523MOL0     C70482  11.270   7.577   4.551 -0.0337  1.1798 -0.8088
  523MOL0     C70483  11.335   7.526   4.686 -0.5872 -0.5056 -0.5301
  523MOL0     C70484  11.411   7.643   4.748  0.0800  0.1345  0.5813
  523MOL0     C70485  11.496   7.606   4.873  0.1494  1.3138  0.0822
  523MOL0     C70486  11.511   7.739   4.944 -0.1753 -0.5463  0.0788
  523MOL0     N70487  11.573   7.717   5.077  0.3235  0.6187  0.3298
  523MOL0     C70488  11.537   7.616   5.162  0.7242 -0.6478 -0.2851
  523MOL0     C70489  11.604   7.641   5.274 -0.0881  0.1615  0.3841
  523MOL0     C70490  11.582   7.580   5.413  0.2505 -0.3872 -0.2767
  523MOL0     C70491  11.583   7.694   5.526  0.6318  0.1732  0.2848
  523MOL0     C70492  11.511   7.825   5.499 -1.0250 -0.3240 -0.2518
  523MOL0     C70493  11.373   7.806   5.459  0.5744  0.4643  0.8034
  523MOL0     O70494  11.306   7.930   5.475 -0.2277 -0.2139  0.5413
  523MOL0     C70495  11.186   7.961   5.421 -1.0904 -0.0119 -0.7185
  523MOL0     C70496  11.125   8.076   5.466  0.5662  0.1479 -1.5368
  523MOL0     C70497  11.009   8.120   5.397  0.7818  1.4566  0.2288
  523MOL0     C70498  10.956   8.045   5.288  0.1193 -0.1285 -0.0741
  523MOL0     C70499  10.842   8.112   5.211 -0.6760 -0.8929 -0.8568
  523MOL0     O70500  10.780   8.218   5.280 -0.3268 -0.0646  0.4102
  523MOL0     C70501  10.667   8.270   5.224 -0.7140 -0.8941 -0.3297
  523MOL0     C70502  10.555   8.288   5.301  0.7284 -0.9430  0.6238
  523MOL0     C70503  10.433   8.351   5.253  0.3801  0.4197 -0.0625
  523MOL0     C70504  10.426   8.392   5.120 -0.9623 -0.6535 -0.2176
  523MOL0     O70505  10.309   8.453   5.081 -0.0921 -0.3522  0.2176
  523MOL0     C70506  10.288   8.458   4.935  0.7269  0.6089 -0.5290
  523MOL0     C70507  10.132   8.449   4.900 -1.5321  0.1339  0.1851
  523MOL0     C70508  10.110   8.474   4.758 -0.1561  0.3296 -0.7062
  523MOL0     C70509   9.965   8.463   4.718 -0.3471 -0.6077  0.7231
  523MOL0     C70510   9.964   8.495   4.567 -0.5790 -0.3061  0.7076
  523MOL0     C70511   9.976   8.645   4.527 -0.2008 -0.0852  0.3683
  523MOL0     C70512   9.935   8.688   4.389  0.6032  0.1854 -0.0398
  523MOL0     C70513   9.953   8.833   4.379  0.3654 -0.7195 -0.4298
  523MOL0    Cl70514  10.126   8.881   4.380  0.2594 -0.1211  0.4782
  523MOL0     C70515  10.547   8.372   5.046  0.4089 -1.9842  0.3004
  523MOL0     C70516  10.665   8.320   5.099 -0.4208 -0.8807 -1.1223
  523MOL0     O70517  10.809   8.067   5.104 -0.5235 -0.0427 -0.5777
  523MOL0     C70518  11.019   7.923   5.259  0.3460  0.0622 -0.0670
  523MOL0     C70519  11.133   7.884   5.323 -0.6397 -0.7315  1.1764
  523MOL0     N70520  11.693   7.743   5.256 -0.1703 -0.4255  1.0635
  523MOL0     N70521  11.672   7.792   5.137  0.1994 -0.2340 -0.0327
  523MOL0     C70522  10.815   7.366   4.210 -0.4489  0.4477 -0.7173
  523MOL0     C70523  10.718   7.313   4.128 -0.0172 -0.6894  0.1041
  523MOL0     C70524  10.370   7.010   4.021 -0.2322 -0.4982  0.5868
  523MOL0     C70525  10.436   7.013   3.890  0.2996  0.1715  0.2247
  523MOL0     C70526  10.405   6.918   3.792 -0.8874  0.5398  0.1851
  523MOL0     C70527  10.321   6.812   3.819  0.4228  1.2902 -0.2491
  523MOL0     O70528  10.287   6.699   3.743 -0.7888 -0.3048 -0.9143
  523MOL0     C70529  10.322   6.703   3.604  0.5344  0.7195 -0.1670
  523MOL0     C70530  10.267   6.569   3.539 -0.1246 -0.1920 -0.1067
  523MOL0     C70531  10.263   6.577   3.387  0.6106 -0.3626 -0.5358
  523MOL0     C70532  10.232   6.442   3.318 -0.0189 -0.4430 -0.2107
  523MOL0     C70533  10.096   6.398   3.343  0.4957  0.4024 -0.7274
  523MOL0     C70534   9.976   6.383   3.366  0.1696  0.1915  0.0741
  523MOL0     C70535  10.258   6.814   3.943  0.2395 -0.3891 -0.4868
  523MOL0     C70536  10.285   6.906   4.044 -0.5666 -0.3830  0.1994
  523MOL0     C70537  10.210   6.900   4.170  0.2477 -0.0112  0.0354
  523MOL0     H70538  10.475   7.252   4.359 -0.2029 -1.0923 -2.0180
  523MOL0     H70539  10.657   7.368   4.506  2.5810  2.2183  0.7445
  523MOL0     H70540  10.878   7.314   4.583  2.0128 -1.1971  0.9017
  523MOL0     H70541  10.994   7.266   4.460 -0.9923  0.6882 -1.5268
  523MOL0     H70542  11.073   7.370   4.678 -0.0863  1.6228  0.8307
  523MOL0     H70543  11.005   7.524   4.619 -1.4623 -0.5946 -0.4123
  523MOL0     H70544  11.149   7.465   4.401 -1.8523 -6.3833 -0.4703
  523MOL0     H70545  11.238   7.362   4.499 -0.3124  0.4595 -1.6054
  523MOL0     H70546  11.358   7.591   4.488  2.5988  0.7946  2.4864
  523MOL0     H70547  11.215   7.671   4.561 -1.2421  0.4420 -0.2709
  523MOL0     H70548  11.267   7.487   4.762 -0.0007 -0.7352 -0.1174
  523MOL0     H70549  11.411   7.454   4.654  0.5023  0.6404 -0.5845
  523MOL0     H70550  11.466   7.701   4.673 -1.9537 -0.9755 -1.9055
  523MOL0     H70551  11.336   7.713   4.783  0.3040  1.1284 -0.8180
  523MOL0     H70552  11.590   7.555   4.854 -1.5039 -2.1117  0.2516
  523MOL0     H70553  11.430   7.535   4.925  0.4571 -0.1148 -1.3893
  523MOL0     H70554  11.572   7.813   4.891 -0.8037  0.6645  1.0048
  523MOL0     H70555  11.416   7.788   4.966 -0.5568 -0.5943 -1.3353
  523MOL0     H70556  11.449   7.552   5.157 -1.0571  1.4831  1.5901
  523MOL0     H70557  11.486   7.527   5.410 -0.1134  0.1245  1.5024
  523MOL0     H70558  11.659   7.505   5.435 -2.5741 -3.1026  1.1789
  523MOL0     H70559  11.535   7.645   5.611  0.0410 -0.4258 -0.3873
  523MOL0     H70560  11.680   7.721   5.570  0.0666  0.6764  1.2761
  523MOL0     H70561  11.569   7.888   5.431 -2.5520  1.0433 -0.3380
  523MOL0     H70562  11.511   7.883   5.592 -1.0051 -2.0726  0.8893
  523MOL0     H70563  11.309   7.729   5.504 -0.9946 -1.1906 -3.6912
  523MOL0     H70564  11.371   7.785   5.352  0.9118  0.6774  0.7576
  523MOL0     H70565  11.169   8.130   5.550  0.0076  1.2988 -1.9734
  523MOL0     H70566  10.961   8.213   5.425 -0.3653  0.6844  0.8915
  523MOL0     H70567  10.560   8.252   5.403 -0.5304 -0.1621  0.9883
  523MOL0     H70568  10.356   8.352   5.329  1.6111 -1.6960  1.3163
  523MOL0     H70569  10.325   8.551   4.890 -3.6251  2.5858 -0.5067
  523MOL0     H70570  10.333   8.367   4.896  1.4434 -0.3915  2.3433
  523MOL0     H70571  10.099   8.347   4.921  0.1905 -0.2277  1.3353
  523MOL0     H70572  10.072   8.518   4.961 -0.2058  2.5882 -1.1169
  523MOL0     H70573  10.151   8.575   4.746  0.3002  0.2969  0.4327
  523MOL0     H70574  10.160   8.389   4.710 -1.4642 -1.1985  0.5327
  523MOL0     H70575   9.899   8.528   4.775 -2.4767 -1.8484 -0.2148
  523MOL0     H70576   9.927   8.361   4.729 -0.9270 -0.3716  0.8966
  523MOL0     H70577   9.864   8.470   4.531 -1.5238  2.2258  1.3631
  523MOL0     H70578  10.040   8.443   4.507  1.3908  2.0267  1.0270
  523MOL0     H70579   9.913   8.702   4.596 -3.1208  0.0586 -2.1920
  523MOL0     H70580  10.080   8.673   4.543 -0.2755  0.8228 -0.6558
  523MOL0     H70581   9.826   8.677   4.387  0.3614  1.2583  3.0083
  523MOL0     H70582   9.988   8.635   4.309  2.7513  1.2544  0.6173
  523MOL0     H70583   9.908   8.874   4.288  1.2774  1.3689  0.0056
  523MOL0     H70584   9.903   8.883   4.462 -1.9317 -0.2342 -2.0258
  523MOL0     H70585  10.534   8.417   4.949  0.4459  0.3434  1.3227
  523MOL0     H70586  10.754   8.308   5.037 -2.2260  0.9864 -4.3201
  523MOL0     H70587  10.978   7.867   5.176 -1.4331  4.0057 -2.1357
  523MOL0     H70588  11.177   7.790   5.291  1.1159  0.3474  0.2687
  523MOL0     H70589  10.909   7.401   4.168 -0.4186  0.6350 -0.4936
  523MOL0     H70590  10.748   7.301   4.025  0.4117  1.4387 -0.0621
  523MOL0     H70591  10.506   7.093   3.869 -0.7365  0.8017 -1.0027
  523MOL0     H70592  10.469   6.902   3.706 -0.2766 -1.8536  1.0153
  523MOL0     H70593  10.431   6.702   3.589  0.8574 -1.4692  1.8035
  523MOL0     H70594  10.286   6.794   3.554  1.6103  1.1875 -0.1260
  523MOL0     H70595  10.171   6.534   3.577  0.5734  0.4016  2.4250
  523MOL0     H70596  10.336   6.487   3.562 -0.1865  0.2131  1.6542
  523MOL0     H70597  10.365   6.598   3.355  0.8358  0.1891  0.5015
  523MOL0     H70598  10.185   6.651   3.368  0.8600 -0.0748 -0.4365
  523MOL0     H70599  10.248   6.465   3.212 -4.2272  2.1975 -0.4957
  523MOL0     H70600  10.304   6.366   3.349 -0.6840 -1.7114 -1.6439
  523MOL0     H70601   9.871   6.372   3.386 -0.5190  3.7604 -0.8224
  523MOL0     H70602  10.197   6.734   3.983  1.9327 -0.3820  2.3567
  523MOL0     H70603  10.267   6.926   4.259  0.5448 -2.8291  0.7509
  523MOL0     H70604  10.115   6.956   4.174 -0.8613 -1.5185 -2.4622
  523MOL0     H70605  10.188   6.795   4.189  2.2856 -0.0265  2.9810
  524MOL0     O70606   4.422   4.796   3.172  0.1107  0.2692 -0.1329
  524MOL0     C70607   4.488   4.691   3.177  0.1676 -0.9128 -0.3315
  524MOL0     O70608   4.481   4.585   3.089 -0.1051 -0.2825 -0.2835
  524MOL0     C70609   4.383   4.590   2.994  0.4526  0.0027  0.2237
  524MOL0     C70610   4.410   4.541   2.860  0.3934  0.2069  0.0765
  524MOL0     C70611   4.308   4.523   2.766  0.2472  0.7861  0.7088
  524MOL0     C70612   4.172   4.535   2.809 -0.6519 -1.1335  0.1126
  524MOL0     O70613   4.062   4.507   2.724 -0.9789  0.1133  0.2448
  524MOL0     C70614   4.091   4.431   2.607 -0.4853  0.1125 -0.1546
  524MOL0     C70615   3.946   4.387   2.549 -0.3629  0.3523  0.6461
  524MOL0     C70616   3.903   4.262   2.620  0.7278  0.0147 -0.2981
  524MOL0     C70617   3.765   4.212   2.577 -0.8904 -0.3387 -0.0765
  524MOL0     C70618   3.731   4.097   2.671 -0.2486 -0.2714 -0.5360
  524MOL0     C70619   3.600   4.023   2.627 -0.4483 -0.0405  0.4697
  524MOL0     C70620   3.563   3.914   2.731 -0.7160 -0.0135  0.1245
  524MOL0     C70621   3.486   3.956   2.854 -0.2614 -0.0294  0.7499
  524MOL0     N70622   3.574   3.994   2.961 -0.8421  0.3528  0.4472
  524MOL0     C70623   3.557   4.114   3.026  0.5594  0.0477  1.1126
  524MOL0     C70624   3.668   4.124   3.102 -0.5902  0.6393 -0.1816
  524MOL0     C70625   3.712   4.253   3.184  0.4774 -0.1567 -0.0626
  524MOL0     C70626   3.676   4.234   3.334 -0.5534 -0.1423  0.8177
  524MOL0     C70627   3.702   4.093   3.399 -0.9961 -0.0703  0.7337
  524MOL0     C70628   3.617   4.075   3.520  0.5355 -0.6095 -0.3761
  524MOL0     O70629   3.646   3.945   3.586 -0.1843 -0.1976  0.4717
  524MOL0     C70630   3.601   3.907   3.706  0.9257  0.0271 -0.2338
  524MOL0     C70631   3.516   3.992   3.779 -0.2848  0.1073 -0.5313
  524MOL0     C70632   3.469   3.959   3.913  0.4791  0.5508  0.3167
  524MOL0     C70633   3.511   3.844   3.977 -0.3745 -0.7854 -0.0824
  524MOL0     C70634   3.449   3.792   4.098  0.3836  0.0044 -0.2580
  524MOL0     O70635   3.397   3.882   4.180  0.5699 -0.5146  1.4797
  524MOL0     C70636   3.334   3.836   4.290  0.4618  0.1350 -0.3499
  524MOL0     C70637   3.207   3.787   4.271 -0.5074 -0.3730  0.7956
  524MOL0     C70638   3.131   3.755   4.378 -0.0629  1.2697  0.0750
  524MOL0     C70639   3.180   3.744   4.508 -0.3426 -0.0340  0.3667
  524MOL0     O70640   3.094   3.692   4.598 -0.6156  0.5575  0.3879
  524MOL0     C70641   3.139   3.673   4.734 -0.8454 -0.4906 -0.5504
  524MOL0     C70642   3.021   3.605   4.798  0.9320  1.1269  0.2764
  524MOL0     C70643   3.043   3.602   4.951  0.1580 -0.4776 -0.2059
  524MOL0     C70644   2.992   3.730   5.021 -0.4764 -0.3806  0.0029
  524MOL0     C70645   2.840   3.749   5.030 -1.2739  0.7292  0.3942
  524MOL0     C70646   2.810   3.879   5.109  0.0650  0.0044  0.9693
  524MOL0     C70647   2.665   3.911   5.093 -0.1007  0.3091 -0.0995
  524MOL0     C70648   2.582   3.838   5.197  0.0008  0.0793  0.5732
  524MOL0    Cl70649   2.408   3.877   5.188 -0.0475 -0.0638  0.0341
  524MOL0     C70650   3.315   3.785   4.531  0.7181 -0.2988  0.2060
  524MOL0     C70651   3.387   3.829   4.421 -0.9895 -0.9766  0.1143
  524MOL0     O70652   3.451   3.670   4.115 -0.3776 -0.3009  0.0082
  524MOL0     C70653   3.596   3.757   3.900  0.3126 -0.0528  0.4756
  524MOL0     C70654   3.643   3.791   3.768 -0.5808  0.4876  0.8859
  524MOL0     N70655   3.752   4.009   3.087 -0.2482  0.7911 -0.9382
  524MOL0     N70656   3.691   3.933   3.007  0.7256  0.6248 -0.1146
  524MOL0     C70657   4.149   4.595   2.927 -0.9510 -0.3426 -0.5397
  524MOL0     C70658   4.255   4.618   3.021 -0.3521 -0.2771 -0.3679
  524MOL0     C70659   4.608   4.698   3.265 -0.6683  0.8091  0.2061
  524MOL0     C70660   4.692   4.583   3.274  0.2684 -0.3824 -0.3388
  524MOL0     C70661   4.812   4.577   3.342 -0.0908  0.0511 -0.0790
  524MOL0     C70662   4.856   4.682   3.420 -0.2573 -1.0557  0.2022
  524MOL0     O70663   4.969   4.672   3.483  0.1500  0.3058  0.1124
  524MOL0     C70664   5.016   4.773   3.581  0.5429 -0.1104 -0.0965
  524MOL0     C70665   5.154   4.734   3.636  0.0188  1.2962 -0.3346
  524MOL0     C70666   5.288   4.780   3.562  0.9653  0.8242 -0.0533
  524MOL0     C70667   5.305   4.716   3.420 -0.2102  0.3703  0.2929
  524MOL0     C70668   5.443   4.741   3.376  0.2350  0.9534 -0.6749
  524MOL0     C70669   5.561   4.756   3.351 -0.6041  0.1314  0.3530
  524MOL0     C70670   4.766   4.795   3.431  0.4589  0.8657 -0.4958
  524MOL0     C70671   4.655   4.802   3.351  0.6020 -0.3441 -0.2202
  524MOL0     C70672   4.572   4.925   3.366  0.4978 -0.4538  0.3385
  524MOL0     H70673   4.513   4.533   2.826  0.9307  3.8087  0.4930
  524MOL0     H70674   4.334   4.482   2.669 -1.4847 -1.0570  0.9535
  524MOL0     H70675   4.161   4.487   2.544  1.8219  0.0119  2.1738
  524MOL0     H70676   4.147   4.346   2.647 -1.1241  0.3602  1.3445
  524MOL0     H70677   3.951   4.355   2.445  1.0611 -0.5818  0.9686
  524MOL0     H70678   3.871   4.465   2.558 -2.0707 -0.8713 -1.8515
  524MOL0     H70679   3.902   4.292   2.725  1.3287  0.2437 -0.3540
  524MOL0     H70680   3.973   4.179   2.607  1.2416  0.2729  0.7543
  524MOL0     H70681   3.684   4.286   2.576  0.3030  1.0093 -0.7354
  524MOL0     H70682   3.778   4.179   2.474 -0.3456  1.2291 -0.5526
  524MOL0     H70683   3.810   4.022   2.665 -0.9705 -1.2612  1.5295
  524MOL0     H70684   3.727   4.130   2.775  2.2524  0.4313 -0.5855
  524MOL0     H70685   3.514   4.089   2.613 -0.4494 -0.1820 -0.2663
  524MOL0     H70686   3.631   3.977   2.532  1.5900 -0.6498  1.3699
  524MOL0     H70687   3.645   3.842   2.742 -1.9687 -1.7831 -1.4322
  524MOL0     H70688   3.493   3.847   2.679  1.6813 -2.7182  0.1024
  524MOL0     H70689   3.422   4.039   2.824  0.2608  0.6970  1.5967
  524MOL0     H70690   3.410   3.883   2.884 -1.5769  1.4933  1.2777
  524MOL0     H70691   3.477   4.188   3.023  0.7946  0.3068 -1.9299
  524MOL0     H70692   3.820   4.266   3.178  0.3275  0.9936 -0.6541
  524MOL0     H70693   3.656   4.344   3.157 -1.9892  0.6867  6.1280
  524MOL0     H70694   3.734   4.293   3.405 -0.7512 -0.7812  1.5226
  524MOL0     H70695   3.569   4.257   3.334 -0.3207  1.7908 -3.0371
  524MOL0     H70696   3.808   4.088   3.426 -0.7581 -1.5788 -0.3239
  524MOL0     H70697   3.667   4.011   3.335 -1.1096 -0.5968  1.4577
  524MOL0     H70698   3.509   4.071   3.498  0.5501  2.3448 -1.3636
  524MOL0     H70699   3.625   4.157   3.591 -0.3204 -0.0554 -0.9024
  524MOL0     H70700   3.480   4.091   3.754 -2.1927  0.6587  3.6090
  524MOL0     H70701   3.385   4.013   3.956 -0.3339 -2.1827  2.5144
  524MOL0     H70702   3.156   3.797   4.175 -0.2574 -3.3735  0.2490
  524MOL0     H70703   3.033   3.713   4.358 -0.1515  0.3216  2.2563
  524MOL0     H70704   3.223   3.604   4.733 -0.8827 -0.6770  1.9605
  524MOL0     H70705   3.167   3.765   4.787  1.9165 -0.8516 -1.2268
  524MOL0     H70706   2.922   3.647   4.779  1.7585  2.7696 -0.5412
  524MOL0     H70707   3.021   3.502   4.761  1.2162  0.7183  1.3688
  524MOL0     H70708   3.003   3.510   4.995  1.4640 -2.2363 -2.4481
  524MOL0     H70709   3.151   3.617   4.966  0.2260  2.9900 -2.9922
  524MOL0     H70710   3.041   3.815   4.974 -0.2437  0.2148  1.2976
  524MOL0     H70711   3.025   3.727   5.125  1.4518 -0.8241 -0.5807
  524MOL0     H70712   2.799   3.660   5.077 -1.0123  1.7003  2.6055
  524MOL0     H70713   2.800   3.745   4.928  0.4978  1.1467 -0.3662
  524MOL0     H70714   2.848   3.882   5.212  2.3265 -3.9412  0.4680
  524MOL0     H70715   2.870   3.959   5.065 -1.5751 -0.1565 -1.7414
  524MOL0     H70716   2.626   3.882   4.995  0.3900  3.3676 -1.3063
  524MOL0     H70717   2.650   4.019   5.099  3.1280  0.9535 -1.4365
  524MOL0     H70718   2.576   3.731   5.172  0.8889 -0.0323  0.8194
  524MOL0     H70719   2.620   3.850   5.299  0.6181 -1.1771  0.5194
  524MOL0     H70720   3.352   3.769   4.632  0.8504 -1.0430  0.0473
  524MOL0     H70721   3.491   3.859   4.433 -1.1552  0.7236 -1.9643
  524MOL0     H70722   3.626   3.664   3.948  0.2411  1.2315  3.1747
  524MOL0     H70723   3.713   3.715   3.734 -2.1842  0.4316 -2.8168
  524MOL0     H70724   4.044   4.603   2.951 -1.6061  0.9535 -3.4601
  524MOL0     H70725   4.230   4.654   3.120  2.0980 -0.4812  0.4112
  524MOL0     H70726   4.655   4.493   3.226 -1.9760  0.9733 -1.3333
  524MOL0     H70727   4.872   4.487   3.340  0.2157  0.2642 -1.5372
  524MOL0     H70728   4.947   4.761   3.665  0.2139 -1.9442 -0.5932
  524MOL0     H70729   5.013   4.877   3.548  0.1242 -0.6173 -1.7632
  524MOL0     H70730   5.155   4.625   3.639 -0.1655  1.2802 -0.7826
  524MOL0     H70731   5.162   4.783   3.734 -1.3032  4.4968 -1.7111
  524MOL0     H70732   5.366   4.734   3.623  1.3987 -1.6451 -2.2800
  524MOL0     H70733   5.308   4.887   3.565  3.0590  0.7953 -4.6473
  524MOL0     H70734   5.273   4.612   3.422 -0.0334  0.3235  0.7286
  524MOL0     H70735   5.242   4.768   3.348 -1.4880 -0.6801  0.6179
  524MOL0     H70736   5.668   4.758   3.338 -0.4520  3.5126  1.1983
  524MOL0     H70737   4.786   4.884   3.490 -3.1568  1.5714 -0.1100
  524MOL0     H70738   4.470   4.894   3.390  0.6395 -0.6838  0.6635
  524MOL0     H70739   4.610   4.985   3.449  0.6124  2.5883 -1.7689
  524MOL0     H70740   4.577   4.979   3.271 -1.8054  1.8633  1.4269
  525MOL0     O70741   2.679   7.220   1.138 -0.0828  0.0769 -0.7397
  525MOL0     C70742   2.591   7.163   1.080 -0.4417 -0.6310  0.4793
  525MOL0     O70743   2.529   7.052   1.132  0.5881  0.3170  0.6222
  525MOL0     C70744   2.469   7.056   1.249 -0.4611 -0.3437 -0.4987
  525MOL0     C70745   2.549   7.063   1.365  0.0663  1.4695  1.0312
  525MOL0     C70746   2.496   7.067   1.494  0.4073  0.1977  0.6654
  525MOL0     C70747   2.357   7.068   1.510 -0.0063  0.0637 -0.5782
  525MOL0     O70748   2.300   7.070   1.633 -0.7643 -0.4493 -0.5536
  525MOL0     C70749   2.348   6.965   1.711 -0.2832  0.1201  0.4719
  525MOL0     C70750   2.276   6.960   1.845 -0.7358  0.0428  0.1590
  525MOL0     C70751   2.125   7.009   1.845  0.6410 -1.0576 -0.4140
  525MOL0     C70752   2.080   7.008   1.993 -0.6195 -0.9398 -0.5426
  525MOL0     C70753   1.931   7.015   2.010  1.2757 -0.0058 -0.8021
  525MOL0     C70754   1.843   6.907   1.939  0.0896  0.4107  0.4151
  525MOL0     C70755   1.697   6.932   1.964 -0.0052 -0.5216  0.8056
  525MOL0     C70756   1.645   7.051   1.881 -0.3951 -0.1262  0.3178
  525MOL0     N70757   1.503   7.044   1.880 -1.0237  0.4550 -1.1314
  525MOL0     C70758   1.420   6.959   1.807  0.1923  0.0355 -0.8591
  525MOL0     C70759   1.297   7.013   1.839 -0.3029  0.0844  0.3747
  525MOL0     C70760   1.169   6.964   1.776  0.8208  0.3716 -0.6425
  525MOL0     C70761   1.165   6.984   1.624  1.5882 -1.2320  0.7557
  525MOL0     C70762   1.021   6.978   1.566 -0.1003  0.7289 -0.3016
  525MOL0     C70763   0.962   6.841   1.531  0.8445 -0.0093 -0.6672
  525MOL0     O70764   0.951   6.767   1.649 -0.0210 -0.1623 -1.0915
  525MOL0     C70765   0.915   6.634   1.636  0.0786 -0.3883  0.6064
  525MOL0     C70766   0.975   6.532   1.707 -0.4862 -0.0212 -0.3977
  525MOL0     C70767   0.952   6.399   1.682  0.8943  0.0232  0.6228
  525MOL0     C70768   0.844   6.353   1.591 -0.4392 -0.4678 -1.0461
  525MOL0     C70769   0.824   6.211   1.554 -0.4849 -0.0421 -0.0576
  525MOL0     O70770   0.737   6.188   1.459  0.0625 -0.3469 -0.0674
  525MOL0     C70771   0.722   6.074   1.391 -0.1980  0.6845  0.0237
  525MOL0     C70772   0.609   6.063   1.315  0.1045 -0.0743 -0.3019
  525MOL0     C70773   0.579   5.957   1.230  0.2793 -1.1321 -0.5882
  525MOL0     C70774   0.678   5.851   1.221 -0.1102 -0.5061  0.2286
  525MOL0     O70775   0.650   5.729   1.165 -0.4385  0.0205  0.5451
  525MOL0     C70776   0.520   5.683   1.130  0.1426 -0.2151  0.0886
  525MOL0     C70777   0.531   5.535   1.092 -0.0677  0.0984  0.1831
  525MOL0     C70778   0.614   5.530   0.962  0.5597  1.1698  1.1080
  525MOL0     C70779   0.624   5.387   0.904  0.5974 -0.0793 -0.4704
  525MOL0     C70780   0.684   5.376   0.756  0.0100  0.3462  1.3757
  525MOL0     C70781   0.684   5.244   0.700 -0.3344  0.0906 -1.2600
  525MOL0     C70782   0.554   5.155   0.716 -0.3068  0.0582 -0.1131
  525MOL0     C70783   0.577   5.015   0.651  0.8262  0.1574 -0.6128
  525MOL0    Cl70784   0.461   4.891   0.727  0.3056  0.3576 -0.2392
  525MOL0     C70785   0.790   5.864   1.298  0.0101  0.1578 -0.6186
  525MOL0     C70786   0.823   5.979   1.376  0.6032  0.6699 -0.4525
  525MOL0     O70787   0.893   6.124   1.608 -0.3255  0.2933  0.4554
  525MOL0     C70788   0.773   6.460   1.531 -0.5074  0.0527 -0.4697
  525MOL0     C70789   0.807   6.592   1.553 -0.1171  0.6520 -0.2401
  525MOL0     N70790   1.309   7.113   1.940 -0.4110  0.2315 -0.8638
  525MOL0     N70791   1.429   7.124   1.964 -0.2454 -0.0630 -0.1423
  525MOL0     C70792   2.271   7.067   1.396 -0.8932 -0.0266  0.8227
  525MOL0     C70793   2.333   7.057   1.259  0.7038  0.6112 -1.3015
  525MOL0     C70794   2.583   7.195   0.931 -0.0826  0.2701  0.0170
  525MOL0     C70795   2.690   7.267   0.870  0.7372  0.4897  0.1154
  525MOL0     C70796   2.679   7.301   0.739 -0.2965  0.3278  0.3245
  525MOL0     C70797   2.563   7.276   0.666  0.0421 -0.6617  0.7049
  525MOL0     O70798   2.545   7.339   0.548  0.4541 -1.2141  0.8034
  525MOL0     C70799   2.425   7.416   0.531 -0.4529 -1.2241  0.2148
  525MOL0     C70800   2.447   7.565   0.499 -0.6509  0.8722 -0.5187
  525MOL0     C70801   2.345   7.655   0.562  0.2626 -0.5143 -0.5246
  525MOL0     C70802   2.206   7.669   0.487 -0.7019  1.5567 -0.4116
  525MOL0     C70803   2.227   7.672   0.346  0.2821 -0.0576  0.0814
  525MOL0     C70804   2.252   7.677   0.231 -0.3311  0.5998  0.3371
  525MOL0     C70805   2.469   7.190   0.720  1.0457 -0.5783 -0.2743
  525MOL0     C70806   2.473   7.153   0.857 -0.1481  0.2177  1.3222
  525MOL0     C70807   2.355   7.076   0.893  0.0519 -0.3377  0.0677
  525MOL0     H70808   2.653   7.034   1.360 -0.0400  1.1083  0.9013
  525MOL0     H70809   2.565   7.081   1.577  0.3062  1.4838  0.5528
  525MOL0     H70810   2.335   6.867   1.665  0.3299  0.2983 -0.0817
  525MOL0     H70811   2.453   6.985   1.731 -0.1920  4.3695 -2.7523
  525MOL0     H70812   2.329   7.034   1.906 -0.9120  0.8694 -0.6785
  525MOL0     H70813   2.291   6.858   1.883  0.7245 -1.0038 -2.9159
  525MOL0     H70814   2.057   6.954   1.778 -1.3904 -1.9119  2.1716
  525MOL0     H70815   2.119   7.116   1.824 -3.5412 -0.9270  0.5634
  525MOL0     H70816   2.125   6.916   2.032 -0.9258 -0.9780 -0.2762
  525MOL0     H70817   2.134   7.088   2.045  1.8911 -0.7864 -3.1208
  525MOL0     H70818   1.901   7.005   2.115 -2.0720 -0.6161 -1.7245
  525MOL0     H70819   1.901   7.114   1.977  3.0252  1.4604  1.6120
  525MOL0     H70820   1.853   6.903   1.830 -0.7340 -1.1146  0.3727
  525MOL0     H70821   1.868   6.807   1.975 -1.1931  0.5067  1.6641
  525MOL0     H70822   1.683   6.963   2.067 -3.6526  3.1061 -0.4895
  525MOL0     H70823   1.629   6.851   1.936 -0.1292  0.3860 -1.7856
  525MOL0     H70824   1.689   7.145   1.916 -1.5384  0.6448 -0.2442
  525MOL0     H70825   1.673   7.043   1.776 -3.0444  1.4260 -0.5987
  525MOL0     H70826   1.446   6.878   1.740  0.9884 -0.8761  0.5136
  525MOL0     H70827   1.150   6.860   1.803  0.1745 -0.5600 -4.2145
  525MOL0     H70828   1.085   7.018   1.821 -0.3416 -0.9048 -1.2269
  525MOL0     H70829   1.196   7.086   1.597 -1.6523 -0.6281 -1.2458
  525MOL0     H70830   1.236   6.920   1.569  1.0911 -0.0091 -1.4401
  525MOL0     H70831   1.013   7.048   1.483 -1.3418  0.3792 -0.5051
  525MOL0     H70832   0.955   7.020   1.642 -1.4395 -1.7878  0.0582
  525MOL0     H70833   1.023   6.791   1.456 -0.4962 -1.6197 -0.7497
  525MOL0     H70834   0.859   6.858   1.499  1.4944  2.0541 -1.8985
  525MOL0     H70835   1.052   6.549   1.781 -0.0213 -1.7519 -0.4271
  525MOL0     H70836   1.010   6.329   1.740 -1.3572 -2.6690 -0.1472
  525MOL0     H70837   0.539   6.145   1.321  1.3976  0.9319  2.6103
  525MOL0     H70838   0.481   5.958   1.182  0.5388 -1.9958 -1.1698
  525MOL0     H70839   0.465   5.704   1.223  0.3139  0.3929  0.0595
  525MOL0     H70840   0.468   5.739   1.051 -0.1644  0.2720  0.6263
  525MOL0     H70841   0.571   5.480   1.179 -2.6900  1.1657  2.2068
  525MOL0     H70842   0.431   5.492   1.081 -0.3927  0.5478  1.1918
  525MOL0     H70843   0.573   5.587   0.878 -0.9747 -2.1364 -0.6115
  525MOL0     H70844   0.717   5.555   0.988  1.2960  1.6398 -1.9147
  525MOL0     H70845   0.522   5.349   0.902  0.6706 -0.2734 -0.5363
  525MOL0     H70846   0.693   5.334   0.969  1.0921  2.9771  1.7047
  525MOL0     H70847   0.790   5.402   0.749  0.5380 -1.0463  3.5924
  525MOL0     H70848   0.617   5.424   0.684  0.5640 -1.8892 -0.7701
  525MOL0     H70849   0.698   5.248   0.591  2.3317  0.0601 -0.9860
  525MOL0     H70850   0.765   5.184   0.741 -2.9623 -3.2393 -0.4710
  525MOL0     H70851   0.465   5.193   0.666 -1.3883 -2.2559 -0.0954
  525MOL0     H70852   0.537   5.138   0.823  1.4833  1.8470  0.5177
  525MOL0     H70853   0.560   5.016   0.543  1.4380  0.7827 -0.7154
  525MOL0     H70854   0.677   4.988   0.686  0.5030 -1.6744 -1.0197
  525MOL0     H70855   0.855   5.777   1.303 -0.8526 -0.5513 -1.4146
  525MOL0     H70856   0.921   5.982   1.423  1.7801 -1.3641 -2.5650
  525MOL0     H70857   0.687   6.445   1.466 -0.2585  2.4766 -1.4724
  525MOL0     H70858   0.736   6.649   1.494  0.5747 -0.5131 -2.3268
  525MOL0     H70859   2.164   7.086   1.404 -1.1679 -0.1193 -1.6597
  525MOL0     H70860   2.259   7.062   1.179  1.5247 -0.8883 -2.1986
  525MOL0     H70861   2.786   7.291   0.916  0.8286 -1.0080  0.7904
  525MOL0     H70862   2.754   7.362   0.690 -0.9006 -1.2562 -2.8675
  525MOL0     H70863   2.359   7.403   0.618 -0.7778 -2.0039 -0.1363
  525MOL0     H70864   2.388   7.371   0.439 -0.6717  0.5154 -0.5760
  525MOL0     H70865   2.453   7.584   0.391  0.4291  1.6749 -0.3393
  525MOL0     H70866   2.544   7.591   0.542 -0.3134 -1.7835  0.5136
  525MOL0     H70867   2.382   7.758   0.555  2.9527 -1.3431  0.2581
  525MOL0     H70868   2.329   7.632   0.668 -0.9042  0.3514 -0.4950
  525MOL0     H70869   2.140   7.586   0.513  1.7687  0.4364  2.9126
  525MOL0     H70870   2.145   7.754   0.517 -0.5125  1.9599 -1.1173
  525MOL0     H70871   2.280   7.694   0.129 -0.5433  0.2026  0.2094
  525MOL0     H70872   2.392   7.155   0.653  0.3859 -2.9310  1.5514
  525MOL0     H70873   2.303   7.143   0.962  1.8592  1.5542 -0.3169
  525MOL0     H70874   2.272   7.051   0.826 -1.2206 -0.5600  1.6711
  525MOL0     H70875   2.396   6.986   0.939  1.6809  1.4408  2.2800
  526MOL0     O70876   7.031   6.662  10.023 -0.0957 -0.5892  0.3637
  526MOL0     C70877   6.996   6.685   9.907  0.6068  0.1176 -0.7134
  526MOL0     O70878   7.077   6.685   9.798 -0.1929 -0.1865  0.0410
  526MOL0     C70879   7.198   6.749   9.802 -0.7656 -0.4007  0.7789
  526MOL0     C70880   7.281   6.726   9.683  0.1457  0.3665 -0.3929
  526MOL0     C70881   7.414   6.774   9.684 -0.5279 -0.1945  0.7550
  526MOL0     C70882   7.461   6.857   9.793  0.8481 -0.6379  0.5796
  526MOL0     O70883   7.591   6.906   9.812 -0.4624 -0.3438  0.8185
  526MOL0     C70884   7.681   6.797   9.777 -0.3470  0.5202 -0.0711
  526MOL0     C70885   7.800   6.803   9.870  0.4855  0.5608  0.8494
  526MOL0     C70886   7.878   6.942   9.871 -0.3530  0.3565 -0.4107
  526MOL0     C70887   7.997   6.906   9.949  0.3355 -0.2405 -0.0646
  526MOL0     C70888   8.094   7.025   9.952 -0.0498  0.4542  0.4399
  526MOL0     C70889   8.235   6.981   9.987  0.1917 -0.6451  0.7443
  526MOL0     C70890   8.348   7.082   9.966 -0.5975 -0.5220  0.5863
  526MOL0     C70891   8.420   7.068   9.830  1.0062  0.5603  0.3203
  526MOL0     N70892   8.535   7.153   9.818 -0.2888 -0.9422  0.1571
  526MOL0     C70893   8.545   7.285   9.788  0.4977  0.0839 -0.4272
  526MOL0     C70894   8.672   7.317   9.790  0.2281 -0.3124 -0.2678
  526MOL0     C70895   8.724   7.464   9.775 -0.2972 -0.6080  0.5481
  526MOL0     C70896   8.744   7.508   9.630 -0.3483 -0.4940 -0.2873
  526MOL0     C70897   8.612   7.541   9.561  0.8270 -0.0304 -0.3880
  526MOL0     C70898   8.552   7.665   9.603  0.0629  0.0724 -0.0087
  526MOL0     O70899   8.448   7.705   9.510 -0.0250  0.2113  0.2381
  526MOL0     C70900   8.390   7.817   9.543  0.5779  0.2954  0.0549
  526MOL0     C70901   8.284   7.816   9.632  1.1894  0.0640 -0.7273
  526MOL0     C70902   8.213   7.936   9.649  0.1280 -0.0487  0.3064
  526MOL0     C70903   8.258   8.059   9.592  0.8647 -0.0910 -0.5977
  526MOL0     C70904   8.178   8.182   9.619  0.3984  0.0275 -0.3038
  526MOL0     O70905   8.066   8.176   9.697  0.0993  1.0165  0.2623
  526MOL0     C70906   7.991   8.289   9.733 -0.2097  0.4882 -0.0233
  526MOL0     C70907   8.053   8.404   9.767  0.0398 -0.4284 -0.4905
  526MOL0     C70908   7.987   8.523   9.797 -0.7028  0.4955 -0.1230
  526MOL0     C70909   7.852   8.528   9.820  0.3073  0.1397  0.3264
  526MOL0     O70910   7.795   8.636   9.881  0.0879  0.9813 -0.7081
  526MOL0     C70911   7.658   8.666   9.841  0.2480 -0.6361 -0.6580
  526MOL0     C70912   7.637   8.817   9.852 -0.3350  0.3317  0.0679
  526MOL0     C70913   7.497   8.863   9.807  0.2727  0.0042 -1.0778
  526MOL0     C70914   7.488   9.016   9.813  0.1172  0.5081  0.6633
  526MOL0     C70915   7.549   9.082   9.931 -1.0246  0.4785  0.1440
  526MOL0     C70916   7.542   9.232   9.942 -0.5521 -0.1499 -0.1343
  526MOL0     C70917   7.648   9.304  10.030 -0.3451 -0.3296  1.0661
  526MOL0     C70918   7.683   9.435   9.969 -0.5400 -0.0373  0.7758
  526MOL0    Cl70919   7.553   9.547   9.993  0.0341 -0.0287  0.3691
  526MOL0     C70920   7.786   8.407   9.786  0.5072  0.0270  0.1291
  526MOL0     C70921   7.854   8.293   9.751 -0.3700  0.4394  0.6621
  526MOL0     O70922   8.220   8.281   9.557 -0.4189 -0.3035 -0.6884
  526MOL0     C70923   8.373   8.052   9.508 -0.1624 -0.5611  0.2649
  526MOL0     C70924   8.443   7.937   9.493  0.0321  0.9136  1.2570
  526MOL0     N70925   8.739   7.204   9.827 -0.7965 -0.8040 -0.3084
  526MOL0     N70926   8.655   7.115   9.849  1.0921  0.5755 -0.4910
  526MOL0     C70927   7.369   6.890   9.895 -0.8682  0.0988  0.6345
  526MOL0     C70928   7.249   6.833   9.905 -1.0788 -0.3125 -0.4951
  526MOL0     C70929   6.850   6.697   9.885  0.0860 -0.1459 -0.2608
  526MOL0     C70930   6.764   6.614   9.941  0.8261  0.4207  0.6956
  526MOL0     C70931   6.630   6.630   9.919  0.2820 -0.1246  0.6532
  526MOL0     C70932   6.573   6.728   9.832 -0.3381 -0.1215 -0.2397
  526MOL0     O70933   6.438   6.760   9.825  0.0149 -0.3407  0.5246
  526MOL0     C70934   6.345   6.688   9.902 -0.3726 -0.1454  0.7331
  526MOL0     C70935   6.207   6.741   9.869 -0.5648 -0.4348 -0.7671
  526MOL0     C70936   6.215   6.905   9.861 -0.5646 -0.6789  0.2687
  526MOL0     C70937   6.098   6.972   9.938  0.4291  0.1925 -0.8604
  526MOL0     C70938   6.111   7.118   9.943 -0.1760 -0.2901 -0.6306
  526MOL0     C70939   6.111   7.241   9.946  0.1235 -0.0447  0.2660
  526MOL0     C70940   6.669   6.811   9.766  1.6754 -0.0277 -0.2128
  526MOL0     C70941   6.802   6.798   9.788  0.6141  0.2227 -0.4942
  526MOL0     C70942   6.888   6.902   9.722  0.2700 -0.3616 -0.0478
  526MOL0     H70943   7.243   6.677   9.594 -1.8961  1.3168 -0.1103
  526MOL0     H70944   7.473   6.749   9.596 -0.7974 -1.9379  1.0198
  526MOL0     H70945   7.644   6.695   9.793  2.9749 -0.9611 -0.9607
  526MOL0     H70946   7.702   6.804   9.670 -1.6434  1.9475 -0.2687
  526MOL0     H70947   7.868   6.725   9.833 -0.0377  0.2982  0.4239
  526MOL0     H70948   7.767   6.776   9.971 -3.0668  1.6778  0.1392
  526MOL0     H70949   7.814   7.016   9.919 -0.1298  0.9030 -0.9425
  526MOL0     H70950   7.904   6.979   9.771 -0.5233 -3.5239 -2.1053
  526MOL0     H70951   7.965   6.881  10.050  1.9331  0.4415  0.6515
  526MOL0     H70952   8.048   6.816   9.914  2.0333  1.1952 -1.5131
  526MOL0     H70953   8.077   7.079   9.859 -0.8713 -2.3098 -1.1172
  526MOL0     H70954   8.048   7.093  10.024 -2.2694 -0.6979  0.1990
  526MOL0     H70955   8.231   6.957  10.094 -1.5004 -0.0237  0.8438
  526MOL0     H70956   8.268   6.898   9.925  5.1602  0.6198  1.2597
  526MOL0     H70957   8.429   7.069  10.038 -1.7230 -0.2506  1.9417
  526MOL0     H70958   8.311   7.179  10.001  0.2255 -0.1109  0.3319
  526MOL0     H70959   8.438   6.961   9.817 -1.6764  0.1364 -0.4840
  526MOL0     H70960   8.353   7.102   9.750  1.2324 -0.7656 -0.4747
  526MOL0     H70961   8.462   7.356   9.789 -1.1940 -1.7832  0.8881
  526MOL0     H70962   8.659   7.533   9.828  0.7025  1.4222 -0.7329
  526MOL0     H70963   8.819   7.475   9.829  1.3849 -0.3965 -2.2210
  526MOL0     H70964   8.818   7.588   9.626 -0.7903 -0.1040 -0.7379
  526MOL0     H70965   8.794   7.424   9.582  0.7042 -1.2653  2.0210
  526MOL0     H70966   8.536   7.466   9.584 -0.1215  1.5296  1.8746
  526MOL0     H70967   8.645   7.543   9.456  3.2900  1.0085  0.3392
  526MOL0     H70968   8.629   7.742   9.609  1.3176 -1.2911  2.3974
  526MOL0     H70969   8.516   7.654   9.705 -1.0185  2.5401 -0.0341
  526MOL0     H70970   8.247   7.719   9.663  1.3567 -0.1986 -1.3235
  526MOL0     H70971   8.116   7.930   9.698 -0.8753  1.7117 -1.3054
  526MOL0     H70972   8.161   8.406   9.783 -0.2338 -2.0107  2.3295
  526MOL0     H70973   8.036   8.619   9.814 -0.7172  0.0466  2.9966
  526MOL0     H70974   7.643   8.630   9.739  0.7392 -1.4354 -0.4584
  526MOL0     H70975   7.590   8.624   9.915  0.7142  1.6203  1.1661
  526MOL0     H70976   7.654   8.836   9.958 -0.9819 -1.8267  0.5913
  526MOL0     H70977   7.703   8.873   9.785 -3.5917  3.0324 -1.2032
  526MOL0     H70978   7.468   8.821   9.710  0.2407  1.9343 -1.9588
  526MOL0     H70979   7.432   8.827   9.887 -0.6683 -0.6682 -2.1142
  526MOL0     H70980   7.383   9.047   9.819 -0.8089 -2.2296 -0.1175
  526MOL0     H70981   7.530   9.064   9.724  1.2283  0.2105  1.0110
  526MOL0     H70982   7.652   9.047   9.940 -1.4055 -0.5630  0.5502
  526MOL0     H70983   7.505   9.052  10.026 -0.2210  0.8298  0.6362
  526MOL0     H70984   7.568   9.265   9.840  2.1572  0.1723  0.5827
  526MOL0     H70985   7.442   9.269   9.966 -1.3013 -1.0936 -1.6487
  526MOL0     H70986   7.733   9.238  10.045  0.6411  0.4997 -0.5240
  526MOL0     H70987   7.618   9.309  10.135 -2.3986 -1.8523  0.6103
  526MOL0     H70988   7.775   9.474  10.016  0.9118 -1.0179 -1.1160
  526MOL0     H70989   7.707   9.426   9.863 -1.4403  2.8561  0.2555
  526MOL0     H70990   7.680   8.400   9.808  0.0548 -0.5198 -2.0158
  526MOL0     H70991   7.794   8.202   9.743  0.6490 -0.0863 -2.4268
  526MOL0     H70992   8.410   8.139   9.455 -0.1314  0.7549  2.3369
  526MOL0     H70993   8.517   7.950   9.414 -2.3804 -0.6120 -1.4223
  526MOL0     H70994   7.412   6.967   9.957  2.8193 -0.8409 -0.5352
  526MOL0     H70995   7.191   6.864   9.991  2.2139  0.0182  1.7816
  526MOL0     H70996   6.803   6.534  10.002  0.2768 -1.3978 -1.2398
  526MOL0     H70997   6.572   6.560   9.978 -3.4947  3.8622  2.2937
  526MOL0     H70998   6.355   6.723  10.005  2.4033  2.2949 -0.2150
  526MOL0     H70999   6.351   6.579   9.892  2.0703  0.0860 -1.0118
  526MOL0     H71000   6.142   6.715   9.953  1.1229 -1.1626  0.3552
  526MOL0     H71001   6.172   6.692   9.778  1.1801 -5.6845  1.0186
  526MOL0     H71002   6.229   6.938   9.758  1.4625  1.3102  1.0856
  526MOL0     H71003   6.304   6.938   9.917  0.2938  0.9878 -1.9360
  526MOL0     H71004   6.004   6.938   9.893  2.1099 -0.7957 -3.9727
  526MOL0     H71005   6.108   6.935  10.040  0.1738  4.8871  1.1193
  526MOL0     H71006   6.118   7.347   9.957 -0.6872  0.0653 -0.1322
  526MOL0     H71007   6.624   6.899   9.721 -0.4322 -1.4184 -0.9403
  526MOL0     H71008   6.934   6.844   9.642 -0.5334  0.4928 -1.1445
  526MOL0     H71009   6.836   6.980   9.666  1.1890 -0.9245 -1.7433
  526MOL0     H71010   6.960   6.944   9.793 -1.1244  1.2405  0.4850
  527MOL0     O71011   7.613   1.005   4.484 -0.2956  1.5248  0.2014
  527MOL0     C71012   7.599   0.901   4.542 -0.3064  0.4847  0.0846
  527MOL0     O71013   7.673   0.784   4.531 -0.4602  0.0986  0.2285
  527MOL0     C71014   7.784   0.763   4.458 -0.3941  0.8109  0.1567
  527MOL0     C71015   7.847   0.862   4.381 -0.7002  0.1247 -0.6139
  527MOL0     C71016   7.967   0.830   4.310  0.4011 -0.6643  0.1965
  527MOL0     C71017   8.027   0.707   4.329 -0.0290  0.0819  0.3362
  527MOL0     O71018   8.143   0.679   4.257  0.0509 -0.1178 -0.1758
  527MOL0     C71019   8.225   0.577   4.320  0.3716  1.4422 -0.3342
  527MOL0     C71020   8.363   0.611   4.288  0.3865 -0.2474  0.4318
  527MOL0     C71021   8.405   0.571   4.145  0.2030  0.0306  0.1418
  527MOL0     C71022   8.487   0.448   4.149 -1.4042  0.6592  0.6425
  527MOL0     C71023   8.615   0.461   4.062 -0.3709 -0.7667 -0.6873
  527MOL0     C71024   8.578   0.481   3.911  0.4105 -0.2904  0.4738
  527MOL0     C71025   8.701   0.490   3.829  0.2826 -0.0729 -0.2079
  527MOL0     C71026   8.747   0.630   3.802  0.3815 -0.5348  1.2271
  527MOL0     N71027   8.784   0.712   3.918  0.1307 -0.2567 -0.0988
  527MOL0     C71028   8.712   0.816   3.966  0.3609 -0.0349  0.8199
  527MOL0     C71029   8.775   0.858   4.073 -0.1299 -0.3350  0.4163
  527MOL0     C71030   8.733   0.965   4.174 -0.0567 -0.9189 -0.0640
  527MOL0     C71031   8.599   0.952   4.244 -0.1283  0.3406  0.3956
  527MOL0     C71032   8.598   1.062   4.351  0.2314  0.6421 -0.2254
  527MOL0     C71033   8.480   1.067   4.443  0.3257  1.3479 -0.1998
  527MOL0     O71034   8.461   0.935   4.487 -0.9965  0.1833 -0.0870
  527MOL0     C71035   8.360   0.915   4.573  0.3102 -0.8512 -0.6986
  527MOL0     C71036   8.228   0.913   4.528 -0.2102  0.2363  0.2858
  527MOL0     C71037   8.127   0.895   4.624 -0.1336  0.3108 -0.1946
  527MOL0     C71038   8.154   0.897   4.762  0.2769 -0.5289 -0.6986
  527MOL0     C71039   8.036   0.888   4.855  0.1179  0.6506  1.1243
  527MOL0     O71040   7.914   0.925   4.801 -0.1851 -0.4669 -0.3792
  527MOL0     C71041   7.805   0.947   4.875 -0.2285 -0.2043  0.4759
  527MOL0     C71042   7.786   0.903   5.004  0.0779  0.0869  0.2803
  527MOL0     C71043   7.671   0.941   5.081  0.1882  0.6583  0.8715
  527MOL0     C71044   7.577   1.026   5.032  0.4531  0.5350 -0.1273
  527MOL0     O71045   7.487   1.062   5.124  0.2933  0.0146  0.0183
  527MOL0     C71046   7.384   1.156   5.090 -0.0138  0.8359 -0.0888
  527MOL0     C71047   7.304   1.177   5.217 -0.1943  0.1990  0.6596
  527MOL0     C71048   7.325   1.320   5.274  1.0942  0.1094 -0.3282
  527MOL0     C71049   7.278   1.343   5.411  0.3332 -0.2197 -0.0519
  527MOL0     C71050   7.125   1.349   5.426 -0.5651  0.8917 -0.9315
  527MOL0     C71051   7.059   1.464   5.362 -0.4328 -0.0121  0.8246
  527MOL0     C71052   7.105   1.604   5.422  0.3689  0.1653  0.3980
  527MOL0     C71053   7.101   1.612   5.584  1.1003 -0.6078 -0.0948
  527MOL0    Cl71054   6.933   1.597   5.672 -0.1491  0.3040  0.0829
  527MOL0     C71055   7.596   1.074   4.900  0.5271  0.2740  0.3444
  527MOL0     C71056   7.706   1.026   4.822  0.1932  0.2544 -0.4710
  527MOL0     O71057   8.060   0.865   4.972  0.4328  0.3575 -0.3041
  527MOL0     C71058   8.282   0.902   4.806  0.2331  0.7999  0.6191
  527MOL0     C71059   8.386   0.903   4.710  0.0708  0.2448 -0.6656
  527MOL0     N71060   8.897   0.790   4.082 -0.8411  0.0696  0.5372
  527MOL0     N71061   8.896   0.697   3.989 -1.1001  0.1961 -0.1579
  527MOL0     C71062   7.966   0.619   4.416  0.0137 -0.2789  0.1660
  527MOL0     C71063   7.849   0.639   4.474  0.3551 -0.4506 -0.3356
  527MOL0     C71064   7.482   0.904   4.639 -0.0465 -0.4475  0.5676
  527MOL0     C71065   7.393   1.013   4.628 -0.7753 -0.0815  0.4372
  527MOL0     C71066   7.277   1.023   4.706  0.3212 -0.5527  0.0245
  527MOL0     C71067   7.239   0.923   4.804 -0.7923  0.3861  0.0244
  527MOL0     O71068   7.134   0.953   4.888  0.0484  0.7512 -0.0214
  527MOL0     C71069   7.084   0.843   4.960  0.5704 -0.3184  0.3627
  527MOL0     C71070   6.965   0.908   5.021 -0.0892  0.7440 -0.1730
  527MOL0     C71071   6.996   0.943   5.162  0.2099 -1.0514  0.3953
  527MOL0     C71072   6.886   1.030   5.226  0.2775  0.9785 -0.5779
  527MOL0     C71073   6.856   1.155   5.162  0.9481  0.0688 -0.5322
  527MOL0     C71074   6.805   1.244   5.110  0.3511 -0.2238  0.7682
  527MOL0     C71075   7.338   0.823   4.815 -0.0341  0.6405 -0.3051
  527MOL0     C71076   7.460   0.813   4.742  0.5482  0.0332 -0.6704
  527MOL0     C71077   7.551   0.687   4.770  0.2450 -0.4521 -0.3601
  527MOL0     H71078   7.805   0.961   4.370  1.2776  1.0252 -0.4471
  527MOL0     H71079   8.011   0.900   4.240 -3.2456  0.8952 -0.7112
  527MOL0     H71080   8.221   0.574   4.430  1.9999  1.9390 -0.2345
  527MOL0     H71081   8.200   0.478   4.281  0.9105  1.6645 -1.2674
  527MOL0     H71082   8.433   0.567   4.359  1.6810 -1.4327 -1.4741
  527MOL0     H71083   8.369   0.720   4.294  0.2334 -0.2108 -0.0461
  527MOL0     H71084   8.456   0.645   4.082 -2.6837  1.5651 -0.5512
  527MOL0     H71085   8.313   0.550   4.089  1.2347 -0.7860 -1.3201
  527MOL0     H71086   8.521   0.407   4.244 -0.8148 -2.6155 -0.8316
  527MOL0     H71087   8.427   0.365   4.109  0.5767 -0.4350 -0.2078
  527MOL0     H71088   8.665   0.551   4.098 -1.0515 -0.6764  0.0519
  527MOL0     H71089   8.684   0.378   4.080  1.8000  1.1198  0.1708
  527MOL0     H71090   8.523   0.397   3.868  3.1543 -1.4410 -0.9833
  527MOL0     H71091   8.511   0.567   3.903 -0.8500 -1.4380 -2.7628
  527MOL0     H71092   8.686   0.454   3.727 -1.8425  0.3859 -0.0970
  527MOL0     H71093   8.792   0.443   3.869  2.3111  3.9849  0.5155
  527MOL0     H71094   8.823   0.639   3.724 -2.2230  0.8814 -1.3174
  527MOL0     H71095   8.657   0.674   3.758  0.4538 -0.2269  1.3897
  527MOL0     H71096   8.613   0.847   3.932 -0.2762 -0.5557  2.1166
  527MOL0     H71097   8.814   0.953   4.246 -1.8321 -0.5882  2.0771
  527MOL0     H71098   8.755   1.067   4.141  1.0138 -2.3104 -4.3847
  527MOL0     H71099   8.518   0.962   4.171  2.7284  1.6085 -2.8738
  527MOL0     H71100   8.596   0.850   4.284  4.1442  0.9730  3.0001
  527MOL0     H71101   8.629   1.159   4.312  1.2423  1.4856  2.4500
  527MOL0     H71102   8.679   1.042   4.422 -0.6784 -0.5784  0.5044
  527MOL0     H71103   8.400   1.114   4.385  0.2489  1.6438  0.1481
  527MOL0     H71104   8.505   1.131   4.528 -0.4253  0.5535  0.6381
  527MOL0     H71105   8.204   0.907   4.422 -1.2776  0.9250  0.4748
  527MOL0     H71106   8.030   0.862   4.588 -0.3667 -1.8953  2.1433
  527MOL0     H71107   7.850   0.829   5.052 -0.4608  0.4259  1.5636
  527MOL0     H71108   7.656   0.895   5.179  2.2935 -0.9184  0.5253
  527MOL0     H71109   7.426   1.246   5.044  0.0391  0.0914 -1.5742
  527MOL0     H71110   7.321   1.110   5.013  1.2047 -3.2287  1.0512
  527MOL0     H71111   7.198   1.156   5.197 -0.0552  1.1384 -1.2392
  527MOL0     H71112   7.343   1.105   5.290 -1.5528 -1.6106 -0.3135
  527MOL0     H71113   7.434   1.337   5.274  1.2250 -0.6664  0.3957
  527MOL0     H71114   7.275   1.389   5.205  2.3364 -0.5188 -1.9538
  527MOL0     H71115   7.320   1.432   5.460 -0.4192 -0.9207  1.9728
  527MOL0     H71116   7.318   1.258   5.466  0.9846  2.0681  3.3136
  527MOL0     H71117   7.091   1.344   5.530  1.4651  1.1159 -0.2250
  527MOL0     H71118   7.089   1.254   5.385 -1.9749 -0.0303  2.1618
  527MOL0     H71119   7.081   1.455   5.255  1.8404 -3.8852  1.4228
  527MOL0     H71120   6.952   1.443   5.365 -0.4746 -0.1277 -0.6364
  527MOL0     H71121   7.044   1.684   5.378  0.3374  0.1884  0.4847
  527MOL0     H71122   7.210   1.620   5.398  0.5342  1.1284  1.6728
  527MOL0     H71123   7.158   1.527   5.623 -0.7201 -1.7341  0.2308
  527MOL0     H71124   7.155   1.699   5.622  0.1678 -1.1034  2.6191
  527MOL0     H71125   7.523   1.141   4.855  2.1024  1.8193 -0.0080
  527MOL0     H71126   7.717   1.072   4.725  1.1836  0.7694 -0.1213
  527MOL0     H71127   8.294   0.913   4.914 -0.2945 -0.4902  0.8268
  527MOL0     H71128   8.487   0.911   4.749 -0.9982 -0.4549  2.5636
  527MOL0     H71129   8.011   0.525   4.447 -2.3505 -0.6388  2.8749
  527MOL0     H71130   7.811   0.553   4.528  0.6674 -1.3375 -1.4967
  527MOL0     H71131   7.404   1.082   4.545 -0.9474 -1.6914 -0.9892
  527MOL0     H71132   7.213   1.108   4.682 -1.5112 -1.8163  0.2339
  527MOL0     H71133   7.159   0.812   5.034  3.1129  1.4116 -1.3046
  527MOL0     H71134   7.061   0.756   4.897  1.3990  1.8057 -3.1336
  527MOL0     H71135   6.874   0.848   5.017 -3.3403  5.1140  0.3418
  527MOL0     H71136   6.926   0.994   4.965 -3.0970 -1.8320 -2.4244
  527MOL0     H71137   7.083   1.009   5.167 -1.2997  1.0121  1.3548
  527MOL0     H71138   7.004   0.855   5.227  4.5018 -0.2144  1.2868
  527MOL0     H71139   6.789   0.979   5.226 -0.2471  1.7892 -3.5649
  527MOL0     H71140   6.918   1.049   5.329  0.6863  0.6360 -0.6395
  527MOL0     H71141   6.759   1.317   5.046  1.3314  1.0032  1.4164
  527MOL0     H71142   7.327   0.756   4.900 -2.1623  2.4328  0.9403
  527MOL0     H71143   7.642   0.715   4.823  2.5267 -0.8862 -3.7261
  527MOL0     H71144   7.500   0.617   4.837  3.6002 -1.7651  1.0741
  527MOL0     H71145   7.580   0.629   4.682  1.4649 -1.2304  0.5111
  528MOL0     O71146   3.786   2.611   1.893  0.0176 -0.2198 -0.5680
  528MOL0     C71147   3.906   2.628   1.879  0.0084 -0.5749 -0.4631
  528MOL0     O71148   3.980   2.742   1.878 -0.4273 -0.5431  0.3421
  528MOL0     C71149   3.928   2.871   1.894  0.3209 -0.0632  0.0230
  528MOL0     C71150   3.789   2.907   1.906 -0.0444 -1.0544  0.0355
  528MOL0     C71151   3.758   3.048   1.929  1.1069 -1.0706 -0.7516
  528MOL0     C71152   3.857   3.143   1.961  0.7923 -0.1883 -0.3143
  528MOL0     O71153   3.818   3.271   2.000  0.7547 -0.4283 -0.2837
  528MOL0     C71154   3.895   3.330   2.108 -0.0366  0.0074 -0.0389
  528MOL0     C71155   3.857   3.474   2.107  0.1114  0.0443 -0.0961
  528MOL0     C71156   3.921   3.554   2.213 -0.2511 -0.4972 -0.1982
  528MOL0     C71157   3.830   3.670   2.279 -0.0056 -0.1753 -0.2699
  528MOL0     C71158   3.938   3.761   2.343 -0.4403  0.2822  0.8057
  528MOL0     C71159   3.987   3.872   2.230  0.0062  0.4179  0.5667
  528MOL0     C71160   4.049   3.983   2.307  0.4574 -0.0468 -0.5591
  528MOL0     C71161   4.095   4.102   2.224  0.0555  0.9231 -0.3424
  528MOL0     N71162   4.218   4.153   2.286 -0.5302  1.3507  0.1481
  528MOL0     C71163   4.341   4.104   2.258 -1.1726 -1.0099  0.2254
  528MOL0     C71164   4.433   4.165   2.346  0.1651  0.5907 -0.1166
  528MOL0     C71165   4.584   4.160   2.328  0.8683  0.4994  0.1147
  528MOL0     C71166   4.645   4.267   2.233  0.9164  0.1282 -0.2801
  528MOL0     C71167   4.654   4.410   2.296 -0.4160 -0.9980 -0.1232
  528MOL0     C71168   4.741   4.513   2.206  0.1402 -0.1210  0.3801
  528MOL0     O71169   4.861   4.453   2.148  0.0581  0.1414  0.6754
  528MOL0     C71170   4.979   4.474   2.210  0.6454  0.4953  0.3479
  528MOL0     C71171   5.003   4.589   2.282  0.2561 -0.9622  0.1684
  528MOL0     C71172   5.138   4.608   2.337  0.4229  0.1516  0.8201
  528MOL0     C71173   5.234   4.512   2.322 -0.1382  1.0466  0.0367
  528MOL0     C71174   5.371   4.530   2.371  1.2236  0.5507  0.1010
  528MOL0     O71175   5.460   4.427   2.340 -0.4813 -0.6787  0.3999
  528MOL0     C71176   5.595   4.428   2.387  0.6095  0.5366 -0.2752
  528MOL0     C71177   5.650   4.301   2.389  0.7616 -0.0190  0.7748
  528MOL0     C71178   5.779   4.284   2.434  0.0393 -0.3039 -0.1822
  528MOL0     C71179   5.866   4.396   2.464  0.2087 -0.8361  0.1012
  528MOL0     O71180   5.992   4.385   2.522  0.0574  0.1319  0.5684
  528MOL0     C71181   6.060   4.266   2.543 -1.0697 -0.5737  0.6376
  528MOL0     C71182   6.214   4.291   2.588 -0.2283  0.2033 -0.3408
  528MOL0     C71183   6.300   4.371   2.490  0.2976  0.7721  0.0622
  528MOL0     C71184   6.433   4.397   2.546 -0.3736  0.0192 -0.7290
  528MOL0     C71185   6.447   4.533   2.599 -0.0535  0.4706 -1.0819
  528MOL0     C71186   6.570   4.541   2.682 -0.5689 -0.2470 -0.0581
  528MOL0     C71187   6.584   4.680   2.745 -0.0668  0.1100 -0.6369
  528MOL0     C71188   6.714   4.688   2.842 -0.9339 -0.2229 -0.4462
  528MOL0    Cl71189   6.714   4.582   2.992  0.7217 -0.1496 -0.1639
  528MOL0     C71190   5.811   4.531   2.459  0.8206 -0.3932 -0.3441
  528MOL0     C71191   5.677   4.537   2.426  0.5866 -0.2298 -0.1225
  528MOL0     O71192   5.397   4.617   2.449  0.3603 -0.0601  0.5741
  528MOL0     C71193   5.207   4.406   2.233  0.0632  0.1576 -0.5620
  528MOL0     C71194   5.078   4.384   2.181 -0.5712  0.2139 -1.0491
  528MOL0     N71195   4.358   4.241   2.433  1.1276  0.3703 -1.1869
  528MOL0     N71196   4.230   4.229   2.399 -0.2544  0.6050  0.6273
  528MOL0     C71197   3.988   3.098   1.946  0.3127 -0.0758 -0.2948
  528MOL0     C71198   4.030   2.976   1.913  0.3243  1.0647 -0.8866
  528MOL0     C71199   3.982   2.504   1.845 -0.4376 -0.0010 -0.3054
  528MOL0     C71200   4.109   2.517   1.788  1.0120 -0.0394  0.0134
  528MOL0     C71201   4.185   2.395   1.774 -0.7409  0.1264 -0.4568
  528MOL0     C71202   4.133   2.270   1.792 -0.0140 -0.4793  0.2347
  528MOL0     O71203   4.233   2.180   1.790  0.0745  0.3695 -0.5602
  528MOL0     C71204   4.190   2.042   1.778 -0.5458 -0.5089 -0.5703
  528MOL0     C71205   4.321   1.959   1.776 -0.4416  0.3166 -0.3735
  528MOL0     C71206   4.419   1.968   1.651  0.1634 -0.2869  0.7458
  528MOL0     C71207   4.563   1.995   1.697  0.0221  0.0218 -0.0238
  528MOL0     C71208   4.575   2.138   1.707 -0.0639  0.4847 -0.3339
  528MOL0     C71209   4.569   2.259   1.695  0.4924 -0.2615  0.0865
  528MOL0     C71210   4.007   2.259   1.840 -1.0386  0.6051 -0.1912
  528MOL0     C71211   3.927   2.368   1.876 -0.6712 -0.5027  0.1906
  528MOL0     C71212   3.792   2.343   1.947  0.1723 -0.0057  0.5517
  528MOL0     H71213   3.710   2.833   1.902 -0.0833 -1.1264  1.4923
  528MOL0     H71214   3.652   3.069   1.930  0.4332 -4.0893 -0.2978
  528MOL0     H71215   3.877   3.277   2.202  2.2117  0.3977  0.6474
  528MOL0     H71216   4.002   3.318   2.094  0.3484  0.2788  2.3109
  528MOL0     H71217   3.750   3.473   2.126  0.1790  0.1028  0.3002
  528MOL0     H71218   3.879   3.528   2.014 -1.0104 -2.3420 -1.8566
  528MOL0     H71219   4.014   3.600   2.179 -0.3487  0.7249  1.1169
  528MOL0     H71220   3.957   3.497   2.299 -0.5418  2.3738  1.9708
  528MOL0     H71221   3.763   3.717   2.206 -0.1749  0.9523  0.5766
  528MOL0     H71222   3.768   3.630   2.360  0.0829  1.0405  0.4179
  528MOL0     H71223   3.903   3.825   2.424  0.7622  2.5703 -0.3794
  528MOL0     H71224   4.023   3.704   2.383 -0.8451  0.4452  1.9364
  528MOL0     H71225   4.044   3.830   2.146 -0.3282  0.1051  0.4987
  528MOL0     H71226   3.899   3.912   2.179  0.8115  1.7938  0.1945
  528MOL0     H71227   4.134   3.949   2.367  1.5722  2.1686 -0.7713
  528MOL0     H71228   3.970   4.030   2.365 -0.9639  0.2160 -2.6077
  528MOL0     H71229   4.111   4.075   2.119 -3.2493  2.5748 -1.4127
  528MOL0     H71230   4.015   4.176   2.231  0.7014  2.3514 -5.0262
  528MOL0     H71231   4.371   4.054   2.166  0.9441  0.1097  0.2522
  528MOL0     H71232   4.623   4.178   2.429 -1.1907 -2.4261  1.5792
  528MOL0     H71233   4.602   4.055   2.304 -0.3972  0.5341 -1.1175
  528MOL0     H71234   4.750   4.237   2.222  1.2863  0.4335  2.0446
  528MOL0     H71235   4.592   4.254   2.138  1.1230 -4.5256 -0.0017
  528MOL0     H71236   4.695   4.408   2.398 -5.2804 -0.1062  2.1695
  528MOL0     H71237   4.551   4.445   2.311  0.7131  2.6535  0.1987
  528MOL0     H71238   4.756   4.604   2.264 -0.7819 -0.3305  0.9591
  528MOL0     H71239   4.676   4.548   2.126  0.8000  5.8580  1.9707
  528MOL0     H71240   4.941   4.678   2.282  2.0681  0.4033 -1.8921
  528MOL0     H71241   5.156   4.699   2.393  1.8972  0.5282 -0.2008
  528MOL0     H71242   5.581   4.220   2.366 -1.0075  0.8891  2.5661
  528MOL0     H71243   5.823   4.185   2.423 -4.9164 -2.7287 -0.8467
  528MOL0     H71244   6.005   4.204   2.614  2.2853 -0.5699  3.5158
  528MOL0     H71245   6.079   4.210   2.450  1.0065  1.2094 -0.0843
  528MOL0     H71246   6.209   4.341   2.685 -1.5833  0.3010 -0.4426
  528MOL0     H71247   6.265   4.197   2.607  0.2084  0.6101  0.5345
  528MOL0     H71248   6.310   4.308   2.401  1.8312  2.0891 -0.7486
  528MOL0     H71249   6.257   4.467   2.460 -0.5902 -0.3675 -2.6849
  528MOL0     H71250   6.510   4.391   2.468 -0.5514  2.8598 -1.2470
  528MOL0     H71251   6.466   4.316   2.611 -3.1780 -1.0711 -0.5514
  528MOL0     H71252   6.358   4.560   2.656  0.9948 -0.0664  0.9118
  528MOL0     H71253   6.469   4.615   2.531  2.1760  1.1482  0.3285
  528MOL0     H71254   6.565   4.466   2.762  0.8377  0.1173  0.4028
  528MOL0     H71255   6.656   4.522   2.618 -1.7137  0.5701 -1.9308
  528MOL0     H71256   6.501   4.713   2.809 -0.1234  0.6542 -0.9823
  528MOL0     H71257   6.593   4.758   2.669 -1.4859 -0.6901 -1.6872
  528MOL0     H71258   6.797   4.649   2.783  0.9354  0.4320  1.6231
  528MOL0     H71259   6.717   4.795   2.864 -0.5085 -0.1678 -0.7581
  528MOL0     H71260   5.885   4.609   2.477 -0.0387  0.2650  0.3616
  528MOL0     H71261   5.630   4.634   2.420 -2.2312 -1.5796 -2.8236
  528MOL0     H71262   5.287   4.333   2.221 -1.5072 -2.0417  1.4420
  528MOL0     H71263   5.063   4.295   2.121 -0.1597 -0.2709 -0.4510
  528MOL0     H71264   4.062   3.171   1.977  0.8615 -1.6364  2.3971
  528MOL0     H71265   4.133   2.943   1.919  0.4122  1.4803  4.6132
  528MOL0     H71266   4.143   2.619   1.781  1.8745 -0.2059  1.5463
  528MOL0     H71267   4.290   2.395   1.746  0.0273 -2.4770  2.0631
  528MOL0     H71268   4.134   2.024   1.685  2.4651  0.5725 -2.7735
  528MOL0     H71269   4.128   2.004   1.860 -0.2667 -0.0002 -0.1186
  528MOL0     H71270   4.295   1.853   1.785 -1.5190  0.6808  1.1247
  528MOL0     H71271   4.370   1.992   1.868  0.2095 -2.7148  0.4878
  528MOL0     H71272   4.380   2.036   1.576  0.5296 -0.4282  0.4250
  528MOL0     H71273   4.421   1.872   1.599  1.4707 -0.4241  0.9969
  528MOL0     H71274   4.602   1.939   1.782  3.5285 -1.2428 -2.2566
  528MOL0     H71275   4.629   1.956   1.619 -0.9941 -2.2713  0.1875
  528MOL0     H71276   4.570   2.366   1.690 -3.4555  0.0389  2.0215
  528MOL0     H71277   3.969   2.161   1.867  1.8382 -0.3287  0.9053
  528MOL0     H71278   3.712   2.378   1.881  2.7252 -0.4032 -3.0669
  528MOL0     H71279   3.776   2.239   1.976 -2.1368 -0.1690 -1.0267
  528MOL0     H71280   3.779   2.397   2.041 -1.8046  0.3114  0.1360
  529MOL0     O71281   5.112   0.399   4.923 -0.6180 -0.5804  0.0206
  529MOL0     C71282   5.218   0.338   4.908 -0.2097 -0.6176  0.2594
  529MOL0     O71283   5.332   0.386   4.854 -0.1222  0.1116 -0.3316
  529MOL0     C71284   5.360   0.517   4.828  0.0101  0.6467 -0.6856
  529MOL0     C71285   5.394   0.587   4.941  0.6961  0.3192  0.7373
  529MOL0     C71286   5.441   0.721   4.918 -0.1262  0.4548 -0.5082
  529MOL0     C71287   5.454   0.771   4.787 -0.0085  0.3292 -0.2248
  529MOL0     O71288   5.499   0.895   4.762 -0.6375 -0.2051 -0.4502
  529MOL0     C71289   5.493   0.998   4.866  0.3034  0.2705  0.4512
  529MOL0     C71290   5.508   1.140   4.810 -0.1055  0.1855 -0.2661
  529MOL0     C71291   5.408   1.154   4.693 -0.3505  0.5446  0.8315
  529MOL0     C71292   5.278   1.228   4.728 -0.4686 -0.6053 -0.1429
  529MOL0     C71293   5.164   1.212   4.622  0.0152 -0.6052  0.1038
  529MOL0     C71294   5.099   1.075   4.620  0.0643  0.3562 -0.2805
  529MOL0     C71295   4.983   1.069   4.528  0.9236 -0.4749  0.3955
  529MOL0     C71296   5.002   1.106   4.381 -0.1317  0.8960  0.3683
  529MOL0     N71297   5.119   1.034   4.330 -0.3660 -0.0254  0.7420
  529MOL0     C71298   5.242   1.082   4.287 -0.5287 -0.0629 -0.3634
  529MOL0     C71299   5.313   0.986   4.229 -0.3603 -0.2725  0.4774
  529MOL0     C71300   5.442   1.005   4.164  0.5511 -0.1403 -0.1876
  529MOL0     C71301   5.534   0.877   4.179 -0.0136 -1.0951  0.1994
  529MOL0     C71302   5.551   0.837   4.328  0.8213  0.0931 -0.0233
  529MOL0     C71303   5.628   0.934   4.409 -0.4602 -0.2884 -0.2562
  529MOL0     O71304   5.762   0.959   4.367 -0.1201 -0.0092  0.6017
  529MOL0     C71305   5.847   1.039   4.440  0.6581  0.1771  0.0793
  529MOL0     C71306   5.980   1.012   4.435  0.2817  0.0549 -0.1593
  529MOL0     C71307   6.070   1.100   4.492  0.2305 -0.0257 -0.3272
  529MOL0     C71308   6.026   1.208   4.563 -0.1045 -0.3356  0.6179
  529MOL0     C71309   6.125   1.286   4.637 -0.3441  0.3442 -0.1549
  529MOL0     O71310   6.238   1.316   4.563  0.9378 -0.5987 -1.0981
  529MOL0     C71311   6.344   1.376   4.629 -0.6670 -0.3056 -0.6815
  529MOL0     C71312   6.437   1.296   4.705 -0.4765 -0.3862  0.2586
  529MOL0     C71313   6.541   1.355   4.784  0.1239  0.0390  0.6584
  529MOL0     C71314   6.546   1.495   4.784 -0.7962 -0.6136  0.0958
  529MOL0     O71315   6.650   1.560   4.855 -0.0793  0.7560  0.0569
  529MOL0     C71316   6.777   1.534   4.802  0.1003 -0.0179 -0.6297
  529MOL0     C71317   6.873   1.588   4.911  0.4264  0.0523 -0.3105
  529MOL0     C71318   7.017   1.571   4.872 -0.3305  0.7790  0.0017
  529MOL0     C71319   7.079   1.429   4.889 -0.5153  0.0854 -0.7088
  529MOL0     C71320   7.190   1.383   4.785  0.2269 -0.1703 -0.5476
  529MOL0     C71321   7.316   1.483   4.796 -0.1530 -0.5809 -0.4428
  529MOL0     C71322   7.380   1.524   4.661 -0.4023  0.3086  0.2521
  529MOL0     C71323   7.402   1.403   4.568  0.6261 -0.5387  0.4075
  529MOL0    Cl71324   7.529   1.434   4.451 -0.4049 -0.3894 -0.0785
  529MOL0     C71325   6.453   1.573   4.720  0.2905  0.4570  0.8717
  529MOL0     C71326   6.350   1.512   4.640 -0.1384 -0.0721 -0.1690
  529MOL0     O71327   6.100   1.328   4.748 -0.5812  0.1840  0.9564
  529MOL0     C71328   5.890   1.238   4.571  1.4627  0.8187  0.4086
  529MOL0     C71329   5.798   1.157   4.506 -0.6792  0.3224 -0.3672
  529MOL0     N71330   5.232   0.876   4.228  0.0187 -0.1628  0.4622
  529MOL0     N71331   5.118   0.910   4.282 -0.2775 -0.1154  0.6204
  529MOL0     C71332   5.424   0.693   4.673  0.4355 -0.0278 -0.4370
  529MOL0     C71333   5.368   0.568   4.697 -0.0485  0.4297  0.5428
  529MOL0     C71334   5.212   0.190   4.945 -0.3585 -1.0533  0.3258
  529MOL0     C71335   5.220   0.094   4.842  0.3978  0.3015  0.5582
  529MOL0     C71336   5.208  -0.031   4.880  0.2912  0.2453  0.3175
  529MOL0     C71337   5.210  -0.079   5.011 -0.4524  0.1440 -0.0256
  529MOL0     O71338   5.226  -0.217   5.054  0.1082 -0.7876  0.3124
  529MOL0     C71339   5.229  -0.318   4.958  0.2709 -0.4135 -0.5415
  529MOL0     C71340   5.377  -0.333   4.895 -0.0074  0.0625 -0.1440
  529MOL0     C71341   5.496  -0.385   4.984  0.0515 -1.0389 -0.1951
  529MOL0     C71342   5.483  -0.519   5.040 -0.6251 -0.1760 -0.3859
  529MOL0     C71343   5.471  -0.632   4.937 -0.1128 -0.2993  0.1809
  529MOL0     C71344   5.477  -0.716   4.849 -1.0295 -0.2297  0.2554
  529MOL0     C71345   5.203   0.015   5.117 -0.6853 -1.1567  0.1879
  529MOL0     C71346   5.197   0.153   5.082  0.4137  0.5206 -0.0851
  529MOL0     C71347   5.169   0.250   5.196  0.5367  0.7464 -0.6404
  529MOL0     H71348   5.366   0.554   5.040  1.0069 -0.2832  0.6272
  529MOL0     H71349   5.448   0.781   5.008 -0.3723  0.5618 -0.5621
  529MOL0     H71350   5.398   0.991   4.921  0.3754 -0.2301  0.5194
  529MOL0     H71351   5.576   0.973   4.933 -0.1987  0.1861  1.0540
  529MOL0     H71352   5.606   1.160   4.765 -0.1705 -0.2086 -0.5892
  529MOL0     H71353   5.499   1.213   4.890 -0.0714  1.5519 -1.4602
  529MOL0     H71354   5.376   1.058   4.651 -1.9580  0.4261  2.2285
  529MOL0     H71355   5.454   1.218   4.617  0.6017  0.6348  1.4701
  529MOL0     H71356   5.238   1.193   4.823 -0.6340  1.9552  0.7884
  529MOL0     H71357   5.299   1.335   4.737  0.4257 -0.8975  1.7967
  529MOL0     H71358   5.089   1.291   4.636  1.4756  0.8459  0.0040
  529MOL0     H71359   5.211   1.225   4.524 -2.1193 -2.5292 -1.2599
  529MOL0     H71360   5.168   0.999   4.584 -0.2520  1.0302 -2.4653
  529MOL0     H71361   5.059   1.049   4.718 -0.6715 -0.2031 -0.7118
  529MOL0     H71362   4.901   1.136   4.556  0.9374  1.7381 -4.0801
  529MOL0     H71363   4.940   0.968   4.533  0.2377 -0.1527  1.3792
  529MOL0     H71364   4.911   1.093   4.322 -0.6752 -1.1440  1.5793
  529MOL0     H71365   5.024   1.213   4.379  0.5648  0.9377  3.7851
  529MOL0     H71366   5.273   1.185   4.301  0.3338 -0.3128 -0.4024
  529MOL0     H71367   5.420   1.033   4.061  1.2668 -4.2917 -1.6378
  529MOL0     H71368   5.491   1.096   4.201 -1.2237  2.5750 -3.9283
  529MOL0     H71369   5.475   0.800   4.129 -3.4125  1.5110 -0.1136
  529MOL0     H71370   5.636   0.895   4.143  1.4702 -3.7471  2.5633
  529MOL0     H71371   5.599   0.739   4.337  0.7108  0.2454  3.6686
  529MOL0     H71372   5.450   0.827   4.369  1.1447  1.0620  1.0536
  529MOL0     H71373   5.639   0.888   4.507  1.4698  0.9993  0.1756
  529MOL0     H71374   5.572   1.028   4.417 -0.9482 -0.5072 -0.9504
  529MOL0     H71375   6.004   0.919   4.383  0.6875  0.4519 -0.6939
  529MOL0     H71376   6.175   1.075   4.485  0.4986  0.7412  0.7770
  529MOL0     H71377   6.430   1.188   4.698 -2.3122 -0.1838 -2.9482
  529MOL0     H71378   6.613   1.286   4.827  0.7973  2.3128  3.4874
  529MOL0     H71379   6.802   1.433   4.769  0.3575  0.3355 -1.5308
  529MOL0     H71380   6.775   1.589   4.707  1.5359  1.8510  0.3511
  529MOL0     H71381   6.849   1.689   4.945  0.6452  0.2388 -0.7058
  529MOL0     H71382   6.861   1.525   5.000  3.9031  2.2982  1.9971
  529MOL0     H71383   7.031   1.582   4.764 -1.6966 -2.4505 -0.6059
  529MOL0     H71384   7.072   1.648   4.928 -0.4673 -0.7039  2.3131
  529MOL0     H71385   6.998   1.355   4.886  0.6216 -1.1929 -0.8151
  529MOL0     H71386   7.131   1.436   4.984  1.2274 -2.2569 -1.4047
  529MOL0     H71387   7.141   1.380   4.688 -1.0633 -0.3930  0.0946
  529MOL0     H71388   7.214   1.279   4.812 -3.1522 -1.2014 -1.0573
  529MOL0     H71389   7.312   1.582   4.843 -0.6732  0.2501 -2.1471
  529MOL0     H71390   7.395   1.429   4.848  1.2278  0.1349 -1.7083
  529MOL0     H71391   7.475   1.562   4.699 -1.6842  1.9225  2.0090
  529MOL0     H71392   7.332   1.603   4.603 -0.9449  1.1310  1.7386
  529MOL0     H71393   7.431   1.319   4.633 -2.0104 -2.0083 -0.1530
  529MOL0     H71394   7.302   1.386   4.527  0.5460 -1.5219  0.9625
  529MOL0     H71395   6.471   1.680   4.729  2.9140  0.1278  0.4073
  529MOL0     H71396   6.270   1.568   4.593 -2.3817 -1.6595  1.4846
  529MOL0     H71397   5.849   1.323   4.624  1.0614  2.3831 -2.2737
  529MOL0     H71398   5.690   1.163   4.507 -0.8148 -1.5390  0.3376
  529MOL0     H71399   5.417   0.748   4.580 -3.5935  1.1140  0.3389
  529MOL0     H71400   5.331   0.503   4.619 -2.8974  0.8030  1.4900
  529MOL0     H71401   5.216   0.123   4.737 -1.0101  1.2789  0.8472
  529MOL0     H71402   5.198  -0.094   4.792  1.5966  1.8314 -1.0397
  529MOL0     H71403   5.154  -0.304   4.880 -1.9275  3.2266  1.9229
  529MOL0     H71404   5.203  -0.409   5.012  1.1728 -0.7093 -0.5865
  529MOL0     H71405   5.389  -0.229   4.864  0.7027 -0.1660 -0.6810
  529MOL0     H71406   5.379  -0.386   4.799  1.3412  2.6138 -1.6306
  529MOL0     H71407   5.506  -0.311   5.064 -1.9402  0.2897 -1.0988
  529MOL0     H71408   5.587  -0.381   4.924 -0.3118  2.9111 -0.7334
  529MOL0     H71409   5.567  -0.536   5.108 -1.0868  3.4773  1.3359
  529MOL0     H71410   5.403  -0.518   5.114 -0.4860 -0.5846 -0.2287
  529MOL0     H71411   5.487  -0.798   4.781  1.7155  0.9863 -1.0072
  529MOL0     H71412   5.196  -0.007   5.223  0.2161  1.7138  0.9207
  529MOL0     H71413   5.072   0.301   5.191 -0.5333 -1.1624 -0.3260
  529MOL0     H71414   5.167   0.199   5.292 -1.3071  2.1463  0.1254
  529MOL0     H71415   5.237   0.335   5.206 -1.0738  1.9231  0.9987
  530MOL0     O71416   6.363   9.164  10.813 -0.1078  0.4192  0.4095
  530MOL0     C71417   6.473   9.128  10.765 -0.0037  0.9046 -0.8392
  530MOL0     O71418   6.566   9.039  10.813  0.6205 -0.1279 -0.3136
  530MOL0     C71419   6.565   8.988  10.943 -0.3287  0.3780  0.0695
  530MOL0     C71420   6.628   8.871  10.968 -0.3909  0.0601 -0.8276
  530MOL0     C71421   6.640   8.818  11.099 -0.4835  0.2931 -0.1725
  530MOL0     C71422   6.583   8.889  11.215  0.0175 -0.4149  0.2368
  530MOL0     O71423   6.587   8.844  11.350 -0.1272  0.2831 -0.2493
  530MOL0     C71424   6.512   8.724  11.371 -1.1763 -0.8898  1.2770
  530MOL0     C71425   6.545   8.690  11.513  0.1721  0.5912  0.2948
  530MOL0     C71426   6.687   8.638  11.535 -0.3298 -0.0682 -0.3514
  530MOL0     C71427   6.708   8.621  11.691 -0.2610  0.0519  0.2724
  530MOL0     C71428   6.857   8.604  11.719 -0.8182 -0.1078 -0.2564
  530MOL0     C71429   6.893   8.558  11.862 -0.4039 -0.2305 -0.4930
  530MOL0     C71430   7.040   8.547  11.882 -0.0201  0.4984 -0.0138
  530MOL0     C71431   7.065   8.466  12.009 -0.2547 -0.0418  0.1780
  530MOL0     N71432   7.202   8.516  12.047 -0.4696  0.5103  0.2515
  530MOL0     C71433   7.233   8.601  12.140  0.1719  0.6730  0.3138
  530MOL0     C71434   7.364   8.581  12.150  0.3244  0.1507 -0.6037
  530MOL0     C71435   7.460   8.665  12.226 -0.5487 -0.7358  0.4035
  530MOL0     C71436   7.479   8.804  12.172 -0.3783 -0.3637 -1.0091
  530MOL0     C71437   7.575   8.884  12.263  0.0070  1.0758  0.1069
  530MOL0     C71438   7.728   8.842  12.273  0.0806  0.1021 -0.2324
  530MOL0     O71439   7.808   8.935  12.351 -0.1563  0.2780  0.1909
  530MOL0     C71440   7.791   8.961  12.488 -0.7532 -0.6128 -0.4447
  530MOL0     C71441   7.859   9.072  12.532 -0.6107 -0.6445 -0.3169
  530MOL0     C71442   7.843   9.109  12.662 -0.1491 -1.3927  0.1666
  530MOL0     C71443   7.760   9.038  12.752  0.1698 -0.3635  0.3391
  530MOL0     C71444   7.722   9.084  12.881 -0.4558 -0.0402 -0.5724
  530MOL0     O71445   7.638   9.018  12.944  0.7080 -0.8161 -0.3621
  530MOL0     C71446   7.607   9.046  13.080 -0.3483  0.4147 -0.3408
  530MOL0     C71447   7.482   9.021  13.129  0.2572  0.1267  0.1389
  530MOL0     C71448   7.446   9.034  13.262  0.2633  0.0857 -1.0553
  530MOL0     C71449   7.548   9.070  13.359 -0.2731  0.8973  0.2379
  530MOL0     O71450   7.513   9.102  13.487 -0.6421 -0.1231 -0.6239
  530MOL0     C71451   7.614   9.078  13.589 -0.7830 -0.3182 -0.3119
  530MOL0     C71452   7.578   9.121  13.729  0.5632 -0.5959 -0.3762
  530MOL0     C71453   7.679   9.052  13.828 -0.2753  0.5575  1.4751
  530MOL0     C71454   7.682   9.129  13.960  0.2822  0.6226  0.6351
  530MOL0     C71455   7.768   9.063  14.065  0.5958  0.2301 -0.4561
  530MOL0     C71456   7.714   8.924  14.117  0.6008  0.1711 -0.1253
  530MOL0     C71457   7.779   8.905  14.254 -0.4639  0.6073 -0.2157
  530MOL0     C71458   7.914   8.838  14.250  0.2343  0.1751 -0.5543
  530MOL0    Cl71459   7.975   8.824  14.417  0.0358  0.1593 -0.1890
  530MOL0     C71460   7.679   9.099  13.305  0.0981 -0.0983  0.5191
  530MOL0     C71461   7.703   9.078  13.172 -0.3351 -0.1880  0.6151
  530MOL0     O71462   7.771   9.191  12.912  0.2854  0.1505 -0.0967
  530MOL0     C71463   7.704   8.925  12.699 -0.2072 -0.4665  0.0238
  530MOL0     C71464   7.726   8.876  12.574  0.4113 -0.4859 -0.0890
  530MOL0     N71465   7.404   8.485  12.063 -0.7096 -0.7502  0.6485
  530MOL0     N71466   7.305   8.444  12.004 -0.0998 -0.1732  1.1571
  530MOL0     C71467   6.511   9.008  11.183 -0.9920 -0.9126  0.2367
  530MOL0     C71468   6.508   9.058  11.052 -0.1043  0.0094  1.2719
  530MOL0     C71469   6.512   9.188  10.635 -0.4708  0.5436 -0.3638
  530MOL0     C71470   6.417   9.259  10.561 -0.3183  0.4166 -0.9774
  530MOL0     C71471   6.437   9.311  10.440  0.0769  0.0051 -0.1822
  530MOL0     C71472   6.561   9.301  10.383  0.1534 -0.2031  1.3233
  530MOL0     O71473   6.571   9.370  10.262 -0.7822 -0.4438 -0.1276
  530MOL0     C71474   6.694   9.345  10.192  0.1692  0.2804  0.0319
  530MOL0     C71475   6.678   9.362  10.042 -0.5751 -0.1432  0.4658
  530MOL0     C71476   6.643   9.505  10.007 -1.1750  0.5057 -1.1355
  530MOL0     C71477   6.614   9.513   9.854  0.2077  0.6760 -1.3335
  530MOL0     C71478   6.719   9.586   9.799  0.4255 -0.4767  0.0719
  530MOL0     C71479   6.801   9.649   9.740  0.7842  0.0930 -0.5445
  530MOL0     C71480   6.663   9.229  10.439  0.3751 -0.3811 -0.4816
  530MOL0     C71481   6.641   9.168  10.569  0.1005 -0.6113  0.0858
  530MOL0     C71482   6.765   9.092  10.622  0.5832 -0.1653 -0.3929
  530MOL0     H71483   6.677   8.828  10.881 -0.8175  0.7663 -1.4242
  530MOL0     H71484   6.684   8.720  11.106 -2.3423 -0.6885 -1.5445
  530MOL0     H71485   6.407   8.733  11.341 -1.2673 -2.0229  1.2193
  530MOL0     H71486   6.551   8.645  11.306 -3.0006  1.5578 -3.2662
  530MOL0     H71487   6.480   8.612  11.555  1.6385  0.0476  1.6573
  530MOL0     H71488   6.530   8.779  11.575 -1.5757  0.0495  0.6969
  530MOL0     H71489   6.746   8.717  11.488 -0.1098 -0.9202 -1.5289
  530MOL0     H71490   6.694   8.547  11.475 -0.5897 -0.2541 -0.1072
  530MOL0     H71491   6.667   8.705  11.748  0.4100  0.6246 -0.0688
  530MOL0     H71492   6.651   8.534  11.723  1.0142 -1.3593 -1.1183
  530MOL0     H71493   6.888   8.521  11.656 -1.0234  0.7223 -1.4834
  530MOL0     H71494   6.897   8.700  11.685 -2.0974  0.2999 -0.6836
  530MOL0     H71495   6.862   8.644  11.922  3.5850 -1.2303  3.5300
  530MOL0     H71496   6.836   8.468  11.884  2.1562 -1.6155  1.0051
  530MOL0     H71497   7.078   8.649  11.898  4.4312 -0.4701 -2.5026
  530MOL0     H71498   7.090   8.501  11.796 -1.2953 -0.2796 -0.3623
  530MOL0     H71499   6.992   8.482  12.088  1.6495 -1.8118  2.4320
  530MOL0     H71500   7.064   8.358  11.992  0.3867 -0.4569  2.5420
  530MOL0     H71501   7.177   8.680  12.191  0.0965  1.6093 -1.1742
  530MOL0     H71502   7.446   8.672  12.334  1.2347 -0.7890  0.6704
  530MOL0     H71503   7.554   8.608  12.225  0.8042  1.3146  2.3330
  530MOL0     H71504   7.522   8.811  12.072 -1.2957  1.4307 -1.3178
  530MOL0     H71505   7.395   8.874  12.179  0.2991  0.3733  0.2515
  530MOL0     H71506   7.546   8.880  12.369  2.8002 -0.2823  0.9201
  530MOL0     H71507   7.576   8.989  12.232 -0.0048  1.0340 -0.0367
  530MOL0     H71508   7.772   8.842  12.173  2.1895 -2.7854  0.5611
  530MOL0     H71509   7.733   8.738  12.306 -1.4092 -0.2056 -0.9073
  530MOL0     H71510   7.926   9.121  12.462 -1.2721 -0.7732 -1.0667
  530MOL0     H71511   7.892   9.205  12.680 -2.4268 -0.1681  0.2022
  530MOL0     H71512   7.400   8.995  13.062  0.1188  1.9907 -0.4868
  530MOL0     H71513   7.347   9.008  13.297 -0.1925  2.1352 -0.6581
  530MOL0     H71514   7.641   8.972  13.583  0.2841 -0.1967  1.6228
  530MOL0     H71515   7.705   9.130  13.559 -1.5575  0.7643 -0.8676
  530MOL0     H71516   7.592   9.230  13.729  0.3515 -0.5656 -0.6796
  530MOL0     H71517   7.472   9.102  13.749  0.1000  2.4068  0.5849
  530MOL0     H71518   7.634   8.952  13.833 -0.0664  0.3140 -0.7298
  530MOL0     H71519   7.783   9.039  13.796 -0.6939  1.8671 -0.5721
  530MOL0     H71520   7.582   9.150  13.998 -0.3519 -1.4167  0.2490
  530MOL0     H71521   7.727   9.226  13.937  1.9114 -0.0843  0.7167
  530MOL0     H71522   7.767   9.134  14.148  1.9838 -1.9869  1.5643
  530MOL0     H71523   7.874   9.047  14.044  0.6989 -0.9902  0.8437
  530MOL0     H71524   7.606   8.911  14.134  0.9627 -1.0301  1.4924
  530MOL0     H71525   7.732   8.842  14.047 -2.2079  0.8129 -1.7587
  530MOL0     H71526   7.708   8.845  14.312 -1.0056  1.0835 -0.3797
  530MOL0     H71527   7.786   9.004  14.300 -1.7202  0.3363  0.6033
  530MOL0     H71528   7.903   8.737  14.210  2.8150  0.3063 -1.8132
  530MOL0     H71529   7.996   8.889  14.198 -0.0743  2.2829  0.8883
  530MOL0     H71530   7.767   9.128  13.361  2.5955 -1.6341 -2.3048
  530MOL0     H71531   7.809   9.085  13.147 -0.4058 -1.5434 -0.1955
  530MOL0     H71532   7.640   8.864  12.762 -0.6597  1.6171  1.6688
  530MOL0     H71533   7.677   8.789  12.534  2.5675 -3.5000  3.2154
  530MOL0     H71534   6.465   9.065  11.263  0.2408  2.4422 -1.2961
  530MOL0     H71535   6.455   9.152  11.040 -2.7384 -1.3765  1.4467
  530MOL0     H71536   6.317   9.254  10.604 -0.4930 -2.2414 -1.5247
  530MOL0     H71537   6.353   9.350  10.384  0.2329 -0.5511 -0.8196
  530MOL0     H71538   6.737   9.245  10.202  0.6610  0.0301 -3.3970
  530MOL0     H71539   6.768   9.414  10.233 -0.5649  1.6428 -0.8533
  530MOL0     H71540   6.598   9.294  10.012 -1.7750  0.9224  1.1170
  530MOL0     H71541   6.769   9.322   9.997  0.7487  0.8247  2.1621
  530MOL0     H71542   6.729   9.564  10.038 -0.7520 -0.4214 -0.5061
  530MOL0     H71543   6.551   9.535  10.059 -1.9993 -1.3832 -1.3834
  530MOL0     H71544   6.609   9.414   9.809 -0.5255 -1.6158  3.1585
  530MOL0     H71545   6.521   9.572   9.854 -2.0146 -2.5916 -1.0996
  530MOL0     H71546   6.878   9.698   9.684  3.0622 -0.4383  1.9738
  530MOL0     H71547   6.761   9.217  10.394  1.6522 -2.9573  2.5881
  530MOL0     H71548   6.848   9.158  10.597 -1.3439  1.4447 -3.1338
  530MOL0     H71549   6.773   9.069  10.729  2.0319 -1.8994 -0.8327
  530MOL0     H71550   6.761   8.991  10.580  0.7610 -0.4842  0.3314
  531MOL0     O71551   7.050   6.637   9.418  0.1069  0.2208 -0.1678
  531MOL0     C71552   7.027   6.558   9.322 -0.5673 -0.2012  0.5835
  531MOL0     O71553   7.083   6.570   9.194 -0.4923  0.1854  0.4261
  531MOL0     C71554   7.189   6.654   9.165  0.1634  0.6090  0.0247
  531MOL0     C71555   7.211   6.693   9.033  0.7287  0.1552  0.7265
  531MOL0     C71556   7.310   6.782   8.999 -0.4671  0.3654  0.1581
  531MOL0     C71557   7.400   6.833   9.095  0.2760 -0.1029  0.6243
  531MOL0     O71558   7.495   6.933   9.076  0.7033  0.7258 -0.1610
  531MOL0     C71559   7.569   6.924   8.957  0.3558  0.2641 -0.4523
  531MOL0     C71560   7.609   7.065   8.900 -0.3278  0.5019 -0.7441
  531MOL0     C71561   7.490   7.139   8.857  0.7034 -1.1383 -0.4904
  531MOL0     C71562   7.518   7.241   8.754  0.2552 -0.1612  0.0080
  531MOL0     C71563   7.380   7.299   8.698  0.4905  0.0718  0.2817
  531MOL0     C71564   7.387   7.445   8.654 -0.1962  0.2844 -0.0491
  531MOL0     C71565   7.392   7.549   8.767 -0.6035  0.5519 -0.1275
  531MOL0     C71566   7.421   7.689   8.725 -0.2838 -1.2681 -0.2578
  531MOL0     N71567   7.556   7.715   8.662 -0.2601  0.1456  0.6642
  531MOL0     C71568   7.674   7.686   8.713 -0.4888  0.1937 -1.0666
  531MOL0     C71569   7.773   7.691   8.608  1.0606 -0.4833 -0.5149
  531MOL0     C71570   7.914   7.658   8.610  0.0213 -0.1273 -0.8699
  531MOL0     C71571   7.937   7.515   8.559  0.5562 -0.7374  0.9986
  531MOL0     C71572   7.896   7.504   8.415 -0.1404 -0.6338  0.2441
  531MOL0     C71573   7.882   7.358   8.380  0.0304  0.4928  0.7888
  531MOL0     O71574   7.823   7.334   8.250 -0.2634  0.3366 -0.0926
  531MOL0     C71575   7.696   7.380   8.217 -0.6801  0.1740 -0.9260
  531MOL0     C71576   7.656   7.392   8.082 -0.0122  0.0610 -0.4510
  531MOL0     C71577   7.527   7.436   8.052 -0.3569  0.7090  0.2503
  531MOL0     C71578   7.436   7.481   8.143  0.4118  0.0344  0.1824
  531MOL0     C71579   7.296   7.516   8.104 -0.3215 -0.6739 -0.2166
  531MOL0     O71580   7.281   7.552   7.974  0.4019 -0.3129  0.8134
  531MOL0     C71581   7.170   7.628   7.929 -0.2746  0.9651 -1.1311
  531MOL0     C71582   7.082   7.695   8.012 -0.3169 -0.5184 -0.4492
  531MOL0     C71583   6.973   7.759   7.950  0.3525  0.3370 -0.4463
  531MOL0     C71584   6.934   7.729   7.816 -0.3063 -0.6696  0.3457
  531MOL0     O71585   6.814   7.780   7.766 -0.1240  0.3177 -0.3422
  531MOL0     C71586   6.702   7.747   7.857  0.5203 -0.5425  0.4354
  531MOL0     C71587   6.569   7.740   7.788  0.4665  0.4310  0.2495
  531MOL0     C71588   6.569   7.654   7.667  1.1724 -0.7265  0.1210
  531MOL0     C71589   6.433   7.656   7.596 -0.2817 -0.5826 -0.2993
  531MOL0     C71590   6.326   7.558   7.644  0.1787  1.1646 -0.3753
  531MOL0     C71591   6.200   7.599   7.577 -0.0744  0.9251 -0.5430
  531MOL0     C71592   6.083   7.538   7.654  0.0779  0.9948  0.5684
  531MOL0     C71593   5.949   7.609   7.598 -0.2198 -1.1779 -0.2642
  531MOL0    Cl71594   5.929   7.755   7.691 -0.2523  0.0786  0.0547
  531MOL0     C71595   7.018   7.656   7.740 -0.2590 -0.8701  0.2995
  531MOL0     C71596   7.138   7.615   7.794  0.3914 -0.0471  0.5824
  531MOL0     O71597   7.201   7.519   8.193  0.1131 -0.1149 -0.3390
  531MOL0     C71598   7.477   7.471   8.279 -0.0662 -0.0715  0.6809
  531MOL0     C71599   7.607   7.420   8.309  0.1392  0.0710  0.8477
  531MOL0     N71600   7.706   7.746   8.502  0.3564  0.5224  0.0280
  531MOL0     N71601   7.583   7.750   8.532  0.2250  0.2706 -0.6335
  531MOL0     C71602   7.384   6.798   9.232  0.6177  0.0449  0.1234
  531MOL0     C71603   7.284   6.708   9.259 -0.7159  0.0417 -0.8335
  531MOL0     C71604   6.927   6.454   9.334  0.5348 -0.3458 -0.0263
  531MOL0     C71605   6.903   6.368   9.225  0.7938  0.0234  0.2543
  531MOL0     C71606   6.790   6.292   9.218 -0.0108  0.9000  0.0388
  531MOL0     C71607   6.686   6.301   9.309  0.8478  0.4552  0.3575
  531MOL0     O71608   6.570   6.222   9.280 -0.1577 -0.2659  0.4879
  531MOL0     C71609   6.447   6.254   9.335  0.7260  0.9642  0.0118
  531MOL0     C71610   6.336   6.165   9.282  0.1604  0.4343  0.6778
  531MOL0     C71611   6.314   6.188   9.127  0.2901 -0.6102  0.4007
  531MOL0     C71612   6.192   6.112   9.070 -1.2177 -0.2977 -0.9661
  531MOL0     C71613   6.066   6.193   9.075 -0.7114  0.0204  0.6775
  531MOL0     C71614   5.962   6.256   9.063  0.5238 -0.6954  0.5810
  531MOL0     C71615   6.715   6.376   9.424 -1.1555 -0.3057  0.0388
  531MOL0     C71616   6.835   6.451   9.440  0.5240  0.5119 -0.0048
  531MOL0     C71617   6.847   6.524   9.570  0.4501 -0.4573  0.4653
  531MOL0     H71618   7.145   6.654   8.955  0.1925  0.2800  1.1151
  531MOL0     H71619   7.309   6.812   8.895 -1.5672  1.3639  0.4337
  531MOL0     H71620   7.662   6.868   8.970 -0.2265 -0.5136  0.4197
  531MOL0     H71621   7.528   6.861   8.878  1.7836 -2.3014  0.7157
  531MOL0     H71622   7.670   7.049   8.810  1.3667 -1.7716  0.7284
  531MOL0     H71623   7.666   7.115   8.979 -0.5180 -0.7849  0.2285
  531MOL0     H71624   7.446   7.189   8.944 -1.5817 -0.5348 -1.9258
  531MOL0     H71625   7.421   7.066   8.815  1.2317 -0.1285 -3.3496
  531MOL0     H71626   7.576   7.320   8.804  1.1302 -1.1448  0.5859
  531MOL0     H71627   7.583   7.216   8.669  2.1210  0.1563  1.2762
  531MOL0     H71628   7.350   7.238   8.612 -1.1594  0.0459  0.8459
  531MOL0     H71629   7.295   7.285   8.766 -2.2542 -0.5068 -2.9885
  531MOL0     H71630   7.480   7.464   8.600  1.5113 -0.3393  2.4738
  531MOL0     H71631   7.305   7.468   8.585 -0.6798 -1.0261  0.0550
  531MOL0     H71632   7.464   7.524   8.846 -1.4057  1.4571  0.9234
  531MOL0     H71633   7.295   7.539   8.815 -0.5531 -0.2908 -0.1864
  531MOL0     H71634   7.348   7.716   8.649  0.1569 -3.8256 -1.7102
  531MOL0     H71635   7.405   7.757   8.809 -1.0048 -3.1446  1.1877
  531MOL0     H71636   7.704   7.649   8.811 -3.3414 -3.4890 -1.3439
  531MOL0     H71637   7.969   7.739   8.561  0.4954  1.1801  1.6839
  531MOL0     H71638   7.941   7.661   8.715  0.3872  3.7955 -0.9428
  531MOL0     H71639   8.046   7.505   8.558  0.6617 -0.0580 -2.0015
  531MOL0     H71640   7.896   7.434   8.621 -0.3871 -0.5827  0.5913
  531MOL0     H71641   7.968   7.553   8.349 -1.6355 -1.9168 -2.4960
  531MOL0     H71642   7.797   7.548   8.403  0.8378  0.7847 -5.9686
  531MOL0     H71643   7.827   7.298   8.453  1.2932 -5.3170 -2.3807
  531MOL0     H71644   7.980   7.310   8.384  0.3307  0.9821 -0.3064
  531MOL0     H71645   7.731   7.369   8.006 -0.2856 -1.9446 -0.1571
  531MOL0     H71646   7.513   7.419   7.945  3.0639  0.4727 -0.2944
  531MOL0     H71647   7.096   7.696   8.119  4.0281  1.2831 -0.8041
  531MOL0     H71648   6.903   7.820   8.006 -0.5185  0.3391 -1.5162
  531MOL0     H71649   6.733   7.655   7.908  1.5719  1.3662  3.5609
  531MOL0     H71650   6.690   7.825   7.932 -1.7460  1.0618 -1.4555
  531MOL0     H71651   6.496   7.689   7.850 -0.1513 -0.4924 -1.1754
  531MOL0     H71652   6.536   7.844   7.778  1.1270  0.5466 -0.9703
  531MOL0     H71653   6.634   7.693   7.588  1.5283  1.0445  1.2315
  531MOL0     H71654   6.586   7.548   7.688  0.0234 -0.7218  1.1883
  531MOL0     H71655   6.446   7.648   7.487  0.8451  1.8908 -0.4237
  531MOL0     H71656   6.397   7.758   7.615 -1.4878 -0.8046 -1.2598
  531MOL0     H71657   6.317   7.553   7.753 -0.2348 -0.0162 -0.4554
  531MOL0     H71658   6.359   7.460   7.609  1.9995  1.6832 -0.2556
  531MOL0     H71659   6.185   7.707   7.580 -4.0400  0.5157 -0.6559
  531MOL0     H71660   6.201   7.566   7.473  0.1151 -1.2854  0.1073
  531MOL0     H71661   6.085   7.575   7.757 -0.7703  0.9769  0.5917
  531MOL0     H71662   6.082   7.428   7.653  0.5245  0.9845  0.8381
  531MOL0     H71663   5.965   7.643   7.495 -1.6181  0.6777  0.0601
  531MOL0     H71664   5.866   7.541   7.616 -1.0728 -0.9351 -2.8234
  531MOL0     H71665   6.997   7.637   7.635 -0.8137  1.4110 -0.0438
  531MOL0     H71666   7.205   7.557   7.731 -1.2930 -0.9731 -0.4333
  531MOL0     H71667   7.419   7.511   8.361 -0.6320  2.9127 -1.0289
  531MOL0     H71668   7.620   7.414   8.416  1.3000 -1.1741  0.6627
  531MOL0     H71669   7.450   6.830   9.312  0.6891 -1.8086  0.8680
  531MOL0     H71670   7.307   6.656   9.351  0.5892  0.5033 -0.8805
  531MOL0     H71671   6.964   6.361   9.135 -0.8997 -4.5716 -0.7864
  531MOL0     H71672   6.783   6.225   9.134  1.2267  3.1588 -1.9883
  531MOL0     H71673   6.425   6.360   9.318 -2.2962  0.3300 -0.6366
  531MOL0     H71674   6.454   6.231   9.441  5.2018 -3.5968 -0.8328
  531MOL0     H71675   6.240   6.187   9.331  1.1443  1.5979  2.1877
  531MOL0     H71676   6.383   6.067   9.291 -0.9085 -0.6078 -3.3016
  531MOL0     H71677   6.409   6.160   9.082  1.4864  2.6413  0.6754
  531MOL0     H71678   6.312   6.296   9.113 -3.2356 -0.5325  0.5604
  531MOL0     H71679   6.211   6.084   8.966  0.0674 -0.2804 -0.7497
  531MOL0     H71680   6.171   6.013   9.111 -0.1461  0.1963  0.8873
  531MOL0     H71681   5.874   6.315   9.050  1.0349 -0.3032 -1.4574
  531MOL0     H71682   6.636   6.379   9.498  0.1799 -1.2158  1.5675
  531MOL0     H71683   6.769   6.504   9.644  1.0445  2.4813  2.0390
  531MOL0     H71684   6.948   6.505   9.609 -0.0071 -0.3454  1.7805
  531MOL0     H71685   6.846   6.632   9.558  3.2076 -0.3724  0.3281
  532MOL0     O71686   1.814   9.818   1.034  0.0476  0.7371 -0.3084
  532MOL0     C71687   1.898   9.759   1.108  0.9691 -1.1892  0.8173
  532MOL0     O71688   1.983   9.668   1.071 -0.3674 -0.0828  0.0441
  532MOL0     C71689   1.988   9.616   0.949 -0.8254 -0.1970  1.0426
  532MOL0     C71690   1.977   9.699   0.831 -0.1772  0.0604  0.1903
  532MOL0     C71691   1.978   9.633   0.705 -0.8130  0.3959 -0.2743
  532MOL0     C71692   2.015   9.500   0.698 -0.5733  0.0545  0.4760
  532MOL0     O71693   2.038   9.429   0.579  0.0189 -0.1329 -0.0097
  532MOL0     C71694   2.025   9.496   0.453  0.2332 -0.3833  0.9664
  532MOL0     C71695   2.137   9.592   0.422 -1.2299 -0.6312 -0.5946
  532MOL0     C71696   2.250   9.520   0.349 -0.1980 -0.0913  0.1493
  532MOL0     C71697   2.380   9.598   0.326 -0.5050 -0.2582 -0.2709
  532MOL0     C71698   2.360   9.738   0.281  1.0248 -0.2612  0.6113
  532MOL0     C71699   2.499   9.803   0.259 -0.1415 -0.2924  0.3759
  532MOL0     C71700   2.565   9.759   0.133  0.0691 -0.4406 -0.0271
  532MOL0     C71701   2.682   9.862   0.096  1.0831 -0.5217  0.6549
  532MOL0     N71702   2.806   9.844   0.182 -0.5568  0.0323 -0.0559
  532MOL0     C71703   2.877   9.715   0.192  0.0892  0.5310 -0.3274
  532MOL0     C71704   2.981   9.741   0.276 -0.2462  0.7936 -0.4036
  532MOL0     C71705   3.085   9.644   0.325  0.8049 -0.7676  0.3252
  532MOL0     C71706   3.201   9.634   0.231  1.2358  0.0942 -0.0847
  532MOL0     C71707   3.174   9.527   0.120  0.0109 -0.3160 -1.1018
  532MOL0     C71708   3.299   9.521   0.039  0.2586 -0.4274  0.6554
  532MOL0     O71709   3.326   9.646  -0.031 -0.4879  0.6324 -0.3339
  532MOL0     C71710   3.312   9.676  -0.166 -0.3356  0.0207 -0.7971
  532MOL0     C71711   3.376   9.789  -0.215 -0.1408 -0.0629 -1.2053
  532MOL0     C71712   3.376   9.806  -0.354 -0.1537 -0.1306  0.4066
  532MOL0     C71713   3.303   9.728  -0.443 -0.2652  0.0791  0.1238
  532MOL0     C71714   3.307   9.745  -0.587 -0.3245 -0.2243  0.0728
  532MOL0     O71715   3.334   9.635  -0.660 -0.3547 -1.0992 -0.4965
  532MOL0     C71716   3.359   9.636  -0.795  1.0591  0.2181  0.2068
  532MOL0     C71717   3.301   9.713  -0.891  0.2965 -1.2365 -0.0464
  532MOL0     C71718   3.319   9.706  -1.030 -0.5561 -0.0817 -0.5512
  532MOL0     C71719   3.387   9.595  -1.079  0.3498 -1.0331  0.8165
  532MOL0     O71720   3.392   9.569  -1.216  0.3827  0.3916  0.7195
  532MOL0     C71721   3.371   9.664  -1.316  0.6424 -0.7231  0.3811
  532MOL0     C71722   3.331   9.588  -1.437  0.0817 -0.2721  0.2542
  532MOL0     C71723   3.335   9.687  -1.557 -0.4379 -0.4537  0.4396
  532MOL0     C71724   3.219   9.796  -1.559 -0.1503  0.7496  0.2444
  532MOL0     C71725   3.259   9.929  -1.637 -0.9280 -0.2748 -0.1136
  532MOL0     C71726   3.133  10.025  -1.655 -0.5914  0.4437 -0.8278
  532MOL0     C71727   3.034   9.980  -1.770 -0.8133 -1.2892 -0.3788
  532MOL0     C71728   2.943  10.110  -1.804 -0.4146  0.4460  0.3906
  532MOL0    Cl71729   2.889  10.204  -1.665  0.0061  0.2027 -0.2973
  532MOL0     C71730   3.432   9.502  -0.988  0.1792 -1.1631 -0.5601
  532MOL0     C71731   3.417   9.526  -0.847 -0.1412 -0.6188 -0.4782
  532MOL0     O71732   3.287   9.860  -0.631 -0.2115  0.6001  0.8443
  532MOL0     C71733   3.221   9.624  -0.392 -0.6064 -0.1368  0.0939
  532MOL0     C71734   3.229   9.599  -0.254  0.0820  0.1508  0.2475
  532MOL0     N71735   2.982   9.872   0.300  0.0652 -0.3004  0.4544
  532MOL0     N71736   2.871   9.941   0.258  0.3540  0.7532 -0.0433
  532MOL0     C71737   2.034   9.424   0.809 -0.4742  0.2107 -0.3747
  532MOL0     C71738   2.020   9.482   0.937 -0.0236 -0.2868  0.1520
  532MOL0     C71739   1.907   9.795   1.250 -0.1128  0.2115 -0.3796
  532MOL0     C71740   2.024   9.856   1.297  0.1861 -0.0691 -0.1773
  532MOL0     C71741   2.045   9.887   1.436 -0.0202 -0.3555  0.5825
  532MOL0     C71742   1.929   9.885   1.517  0.2759  0.3347 -0.0256
  532MOL0     O71743   1.937   9.922   1.651  0.1782  0.6171  0.0246
  532MOL0     C71744   1.887  10.050   1.683  0.8612 -0.0667  0.7195
  532MOL0     C71745   1.982  10.133   1.755 -1.0851 -0.2964 -1.2074
  532MOL0     C71746   2.040  10.057   1.885 -0.0190  0.3784  0.0328
  532MOL0     C71747   2.086  10.143   1.998 -0.4852  0.4522 -1.1160
  532MOL0     C71748   1.982  10.194   2.086 -0.0911  0.1861  0.1930
  532MOL0     C71749   1.919  10.240   2.173 -0.9375 -0.5887 -0.1220
  532MOL0     C71750   1.807   9.838   1.464  1.4387  0.0295 -0.3147
  532MOL0     C71751   1.796   9.788   1.337  0.2475  0.3715  0.0841
  532MOL0     C71752   1.660   9.746   1.287  0.0314 -0.1925  0.0946
  532MOL0     H71753   1.964   9.806   0.832 -0.2950  0.0454  0.8473
  532MOL0     H71754   1.951   9.697   0.621 -1.2762  2.3482  1.2795
  532MOL0     H71755   2.027   9.427   0.369 -1.0612 -0.2084  0.7690
  532MOL0     H71756   1.928   9.546   0.454  1.9952  3.4757 -0.2879
  532MOL0     H71757   2.176   9.636   0.514 -2.2089 -1.7524  0.3966
  532MOL0     H71758   2.103   9.670   0.354  2.1088  0.0714 -1.6522
  532MOL0     H71759   2.215   9.487   0.251 -0.4455  0.4283  0.0618
  532MOL0     H71760   2.271   9.425   0.400  1.1874 -0.1811 -0.5624
  532MOL0     H71761   2.439   9.613   0.417  2.4272  0.0723 -2.0968
  532MOL0     H71762   2.439   9.542   0.253 -1.1283 -0.1049 -0.9010
  532MOL0     H71763   2.290   9.745   0.197  0.6160  1.3486  1.0487
  532MOL0     H71764   2.298   9.793   0.352 -1.5210 -0.2937 -1.4338
  532MOL0     H71765   2.483   9.912   0.259 -1.9853 -0.4895  2.5021
  532MOL0     H71766   2.571   9.779   0.337  3.7043  0.8430 -2.5314
  532MOL0     H71767   2.486   9.768   0.058 -0.3739  1.8752  0.6561
  532MOL0     H71768   2.602   9.656   0.140 -0.2266 -0.6032 -0.7996
  532MOL0     H71769   2.710   9.841  -0.008 -1.0122 -2.3533  0.4040
  532MOL0     H71770   2.642   9.964   0.099  1.4747 -0.3566  0.3141
  532MOL0     H71771   2.869   9.616   0.148  2.4359  0.0606  0.1309
  532MOL0     H71772   3.120   9.690   0.418  0.9676  0.4613 -0.3183
  532MOL0     H71773   3.042   9.545   0.342  2.4438 -1.1424  2.8205
  532MOL0     H71774   3.224   9.732   0.191 -0.5439  1.1968  1.4177
  532MOL0     H71775   3.286   9.608   0.295  1.2057 -0.7454 -0.3636
  532MOL0     H71776   3.097   9.559   0.049  0.0062 -1.9416 -1.8760
  532MOL0     H71777   3.151   9.436   0.178 -0.3152  0.2340 -0.3527
  532MOL0     H71778   3.303   9.443  -0.038 -2.4792  0.4336 -0.4630
  532MOL0     H71779   3.385   9.498   0.103  2.9031  2.7739 -1.4352
  532MOL0     H71780   3.447   9.849  -0.159  1.5504 -1.6100 -1.5943
  532MOL0     H71781   3.439   9.888  -0.388 -1.6585  0.2172 -1.7729
  532MOL0     H71782   3.242   9.797  -0.857  0.7503 -0.9878  0.1419
  532MOL0     H71783   3.280   9.793  -1.083  0.2628  2.0306  2.0483
  532MOL0     H71784   3.299   9.741  -1.289  1.2405 -0.3276  0.8662
  532MOL0     H71785   3.466   9.714  -1.335 -1.7603  3.3663 -2.2889
  532MOL0     H71786   3.404   9.507  -1.446  0.5252 -0.0987  1.9604
  532MOL0     H71787   3.236   9.538  -1.418  0.2600 -1.4874 -1.7532
  532MOL0     H71788   3.425   9.749  -1.560 -1.4888  1.0956  0.1479
  532MOL0     H71789   3.339   9.629  -1.649 -2.0268  1.7846 -1.1356
  532MOL0     H71790   3.205   9.834  -1.457 -2.1735  1.3498 -0.2141
  532MOL0     H71791   3.125   9.752  -1.593 -0.8124  2.0265  0.3406
  532MOL0     H71792   3.296   9.908  -1.738  3.4821  0.9949  1.0287
  532MOL0     H71793   3.341   9.978  -1.584 -1.4299 -1.0578  1.4493
  532MOL0     H71794   3.077  10.034  -1.561  1.7406 -3.1707  1.1365
  532MOL0     H71795   3.171  10.120  -1.692  0.3998 -0.7945 -3.1925
  532MOL0     H71796   2.977   9.898  -1.727 -3.5544  1.0082  0.6544
  532MOL0     H71797   3.075   9.944  -1.865 -3.3541 -2.4291 -1.1174
  532MOL0     H71798   2.978  10.179  -1.882 -2.4796  0.9757 -0.1093
  532MOL0     H71799   2.855  10.073  -1.857  1.8344 -0.3068 -3.1785
  532MOL0     H71800   3.454   9.405  -1.032 -0.0052  0.0002 -3.4319
  532MOL0     H71801   3.447   9.448  -0.777  1.2700  1.4264  1.3307
  532MOL0     H71802   3.174   9.570  -0.474 -0.3991  0.2309 -0.2783
  532MOL0     H71803   3.179   9.509  -0.222  1.1125 -1.4028 -2.1815
  532MOL0     H71804   2.062   9.320   0.794 -0.1059  0.7390 -4.0668
  532MOL0     H71805   2.038   9.425   1.028  0.3269 -0.0692  0.2201
  532MOL0     H71806   2.093   9.886   1.218 -1.7563  1.2022 -1.4636
  532MOL0     H71807   2.138   9.927   1.475 -0.3579 -0.2223  1.2880
  532MOL0     H71808   1.796  10.034   1.741  0.4918 -0.3878  0.0602
  532MOL0     H71809   1.860  10.114   1.599 -1.6123  0.4926  1.8509
  532MOL0     H71810   1.935  10.228   1.782 -0.7799  0.1701 -2.2894
  532MOL0     H71811   2.071  10.150   1.694 -0.7592 -1.1153 -0.9741
  532MOL0     H71812   2.130  10.001   1.859  0.1058 -0.2098  1.6351
  532MOL0     H71813   1.968   9.985   1.923  0.7831 -1.0806 -1.1310
  532MOL0     H71814   2.153  10.076   2.053 -2.1515 -1.7704 -1.6451
  532MOL0     H71815   2.130  10.227   1.945 -1.3003  0.3067 -2.0457
  532MOL0     H71816   1.858  10.275   2.253  0.2429 -2.8408  1.8943
  532MOL0     H71817   1.724   9.835   1.534  1.4156 -0.4797 -0.3604
  532MOL0     H71818   1.595   9.745   1.375  1.3826  0.1621  1.1466
  532MOL0     H71819   1.625   9.823   1.218 -2.3235  0.2874  1.7115
  532MOL0     H71820   1.681   9.651   1.236  4.1442 -0.0868  1.2047
  533MOL0     O71821   7.868   9.613  11.113 -0.0501  0.2503  0.2881
  533MOL0     C71822   7.807   9.509  11.089  0.0395 -0.3397  0.0754
  533MOL0     O71823   7.676   9.494  11.109  0.6869 -0.3833  0.4074
  533MOL0     C71824   7.602   9.601  11.075 -0.9502 -0.0463 -0.3180
  533MOL0     C71825   7.514   9.605  10.964  0.4011  0.1555 -0.0422
  533MOL0     C71826   7.427   9.707  10.940 -0.9062  0.4995  0.0943
  533MOL0     C71827   7.415   9.823  11.024 -0.1700  0.2228  0.2919
  533MOL0     O71828   7.318   9.922  10.986 -0.6398  0.2331  0.3932
  533MOL0     C71829   7.327  10.041  11.070  0.4330 -0.0046  0.7467
  533MOL0     C71830   7.219  10.140  11.023  0.4519 -0.6624 -0.3843
  533MOL0     C71831   7.201  10.164  10.873 -0.1859  0.6039 -0.4756
  533MOL0     C71832   7.082  10.251  10.857  1.2197  0.0115  0.2111
  533MOL0     C71833   7.021  10.238  10.720  0.7436 -0.8081  0.2507
  533MOL0     C71834   6.904  10.332  10.690  0.1948  0.5886 -0.6444
  533MOL0     C71835   6.785  10.302  10.786  0.6406 -0.3740  0.7181
  533MOL0     C71836   6.669  10.393  10.762  1.1304 -0.5765 -0.2173
  533MOL0     N71837   6.579  10.361  10.647 -0.2075  0.0352  0.2877
  533MOL0     C71838   6.596  10.410  10.524 -0.2664 -0.2048  0.8413
  533MOL0     C71839   6.506  10.350  10.442  0.3836 -0.1435 -0.3219
  533MOL0     C71840   6.479  10.369  10.294  0.0489  0.3931  0.5391
  533MOL0     C71841   6.421  10.508  10.267 -0.0280  0.3545 -0.2715
  533MOL0     C71842   6.275  10.506  10.322  0.3643  0.3596  1.1361
  533MOL0     C71843   6.170  10.453  10.216 -0.3868  0.5019  0.7093
  533MOL0     O71844   6.212  10.488  10.083 -0.0709 -0.1964  0.1105
  533MOL0     C71845   6.158  10.596  10.029 -0.3293  0.1577 -0.6165
  533MOL0     C71846   6.044  10.575   9.951 -0.1397  0.2062 -0.1456
  533MOL0     C71847   5.966  10.683   9.898 -0.2216 -0.8532  0.0749
  533MOL0     C71848   6.009  10.813   9.929 -0.6691  0.6819 -0.6734
  533MOL0     C71849   5.916  10.925   9.883  0.1720 -0.0723  0.6709
  533MOL0     O71850   5.821  10.898   9.785  0.0916  0.5583 -0.1853
  533MOL0     C71851   5.717  10.982   9.764 -0.3796  0.5093  0.7126
  533MOL0     C71852   5.647  11.057   9.864 -0.5486 -0.1223 -0.5871
  533MOL0     C71853   5.530  11.126   9.826  0.2134  0.1739 -1.2892
  533MOL0     C71854   5.492  11.139   9.694  0.7094 -0.6038  0.8378
  533MOL0     O71855   5.383  11.214   9.670  0.7253  0.5708  0.6169
  533MOL0     C71856   5.256  11.144   9.701  0.3797  0.0747 -0.4612
  533MOL0     C71857   5.148  11.208   9.618 -0.4564  0.1296 -0.1138
  533MOL0     C71858   5.004  11.159   9.645  0.5389 -0.1534 -0.1107
  533MOL0     C71859   4.953  11.251   9.760 -0.3564 -0.1589  0.8231
  533MOL0     C71860   4.834  11.189   9.840 -0.0414 -0.4785  1.8594
  533MOL0     C71861   4.876  11.088   9.952  0.1347  0.6025  0.1323
  533MOL0     C71862   4.758  11.007  10.008 -0.9221  0.0177 -0.4493
  533MOL0     C71863   4.806  10.914  10.129 -0.9321 -0.2469  0.9351
  533MOL0    Cl71864   4.892  10.782  10.052 -0.2540  0.0698  0.0603
  533MOL0     C71865   5.556  11.070   9.600 -1.1575  0.3625 -0.3814
  533MOL0     C71866   5.667  10.988   9.636  0.7755 -0.6366  0.3131
  533MOL0     O71867   5.940  11.033   9.924 -0.0157  0.2199 -0.4162
  533MOL0     C71868   6.129  10.829  10.010 -1.3922  0.7965 -0.5435
  533MOL0     C71869   6.204  10.721  10.061 -0.4033  0.2482 -0.1874
  533MOL0     N71870   6.440  10.251  10.515  0.7727 -0.0600  0.2635
  533MOL0     N71871   6.492  10.253  10.630 -0.6622  0.3320  0.8729
  533MOL0     C71872   7.497   9.821  11.138 -0.4231  0.7933 -0.9380
  533MOL0     C71873   7.585   9.714  11.160  0.2578  0.1623 -0.8967
  533MOL0     C71874   7.879   9.385  11.055 -0.4561  0.0505 -0.7980
  533MOL0     C71875   7.794   9.267  11.043  0.0440 -0.0068 -0.6352
  533MOL0     C71876   7.841   9.146  11.024 -0.8147  0.1630  0.5033
  533MOL0     C71877   7.978   9.127  11.006 -0.2045  0.6337 -0.4180
  533MOL0     O71878   8.032   9.005  10.993  0.1983  0.6533  0.0883
  533MOL0     C71879   7.964   8.916  10.909 -0.5095  0.7669  0.3824
  533MOL0     C71880   8.017   8.778  10.924  0.7965 -0.2329  0.2431
  533MOL0     C71881   7.946   8.672  10.838 -0.1390  0.4420 -0.2717
  533MOL0     C71882   8.001   8.678  10.692  0.6281  0.7120 -0.4904
  533MOL0     C71883   8.148   8.651  10.693  0.1531 -0.2816  0.3967
  533MOL0     C71884   8.269   8.647  10.675 -0.1279 -0.1999 -0.6740
  533MOL0     C71885   8.069   9.237  11.011 -0.2178  0.5703  0.1397
  533MOL0     C71886   8.015   9.367  11.026 -0.5655  0.8675  0.2921
  533MOL0     C71887   8.105   9.492  11.009  0.4564  0.0786 -0.3295
  533MOL0     H71888   7.513   9.519  10.899  1.9609  1.8205 -2.4752
  533MOL0     H71889   7.359   9.699  10.856 -0.5019  0.6406 -0.2456
  533MOL0     H71890   7.309  10.013  11.175  1.6268 -1.4784  0.5939
  533MOL0     H71891   7.425  10.089  11.063  0.4711 -0.2467 -0.5729
  533MOL0     H71892   7.217  10.233  11.081  0.0118 -1.8769  1.6458
  533MOL0     H71893   7.129  10.080  11.042  0.1834 -0.7298 -1.8027
  533MOL0     H71894   7.199  10.070  10.817 -2.6068 -0.5962  1.4386
  533MOL0     H71895   7.288  10.220  10.836  0.0467 -0.5553 -1.7546
  533MOL0     H71896   7.009  10.215  10.929 -2.1807  0.6435 -2.6750
  533MOL0     H71897   7.102  10.354  10.887  0.4257  1.0345 -2.4725
  533MOL0     H71898   7.094  10.263  10.643 -1.2159 -0.1511 -1.4757
  533MOL0     H71899   6.980  10.137  10.714 -2.2646  0.3084  0.5362
  533MOL0     H71900   6.945  10.431  10.713 -0.1570 -0.1847  4.5655
  533MOL0     H71901   6.880  10.321  10.584  1.5660 -0.6840 -0.8552
  533MOL0     H71902   6.827  10.336  10.881  3.9368  2.6299 -1.5716
  533MOL0     H71903   6.753  10.198  10.790  0.9041 -0.4644  0.4974
  533MOL0     H71904   6.599  10.399  10.846 -2.1585  0.0312 -2.7872
  533MOL0     H71905   6.709  10.495  10.758 -0.9655  0.3946  1.5876
  533MOL0     H71906   6.662  10.489  10.488  0.1095 -0.2818  1.3542
  533MOL0     H71907   6.575  10.367  10.241  0.1112  0.1978  0.6587
  533MOL0     H71908   6.424  10.284  10.253  2.8392 -0.2073 -2.3608
  533MOL0     H71909   6.471  10.589  10.321 -2.5851  2.4287 -0.7847
  533MOL0     H71910   6.431  10.541  10.163  3.8354  1.6143  0.3401
  533MOL0     H71911   6.247  10.609  10.342 -0.6840 -0.1842  2.5697
  533MOL0     H71912   6.250  10.438  10.404  0.2999 -2.2742 -0.9002
  533MOL0     H71913   6.064  10.466  10.241 -1.0378 -2.5866 -0.0296
  533MOL0     H71914   6.183  10.345  10.212 -0.2182  0.5621 -0.4938
  533MOL0     H71915   6.018  10.475   9.918 -5.1078  2.0290 -2.7590
  533MOL0     H71916   5.877  10.675   9.837 -0.9107  3.1506  0.2997
  533MOL0     H71917   5.674  11.060   9.969 -0.8110  2.9809 -0.5186
  533MOL0     H71918   5.469  11.161   9.908  0.0261 -1.0866 -0.8593
  533MOL0     H71919   5.249  11.037   9.681 -1.7838 -0.2873  1.7899
  533MOL0     H71920   5.232  11.162   9.806  3.8481 -0.1786  0.5035
  533MOL0     H71921   5.152  11.314   9.643 -1.0092  0.6606 -2.0746
  533MOL0     H71922   5.169  11.175   9.515 -0.0994 -1.9886  0.5883
  533MOL0     H71923   4.941  11.172   9.557 -0.5403 -0.1785  0.6345
  533MOL0     H71924   5.005  11.054   9.674  3.6665 -0.6444 -1.6317
  533MOL0     H71925   4.935  11.346   9.708 -2.0302  0.0639  1.7387
  533MOL0     H71926   5.030  11.273   9.834 -0.1276 -2.2874  1.2844
  533MOL0     H71927   4.763  11.137   9.775  0.0201 -0.2603  1.6165
  533MOL0     H71928   4.773  11.269   9.882  0.8165  1.9285 -1.0970
  533MOL0     H71929   4.953  11.016   9.923 -1.6025 -1.5094  0.5171
  533MOL0     H71930   4.918  11.146  10.035  3.5465 -0.2481 -0.8338
  533MOL0     H71931   4.715  10.942   9.931  1.1109 -0.5791 -1.1538
  533MOL0     H71932   4.679  11.073  10.045 -1.3044 -0.7682  0.1376
  533MOL0     H71933   4.867  10.959  10.208  1.4223  1.0557 -1.4485
  533MOL0     H71934   4.718  10.871  10.177 -3.0743  0.7336 -1.8098
  533MOL0     H71935   5.520  11.071   9.498 -1.9017 -0.3111 -0.1363
  533MOL0     H71936   5.717  10.942   9.551 -0.6741  0.0458 -0.9591
  533MOL0     H71937   6.172  10.925  10.037 -0.0788  1.0700 -3.2635
  533MOL0     H71938   6.289  10.739  10.126  0.6471  1.2868 -1.7854
  533MOL0     H71939   7.486   9.903  11.209 -1.3390 -0.2561  0.1807
  533MOL0     H71940   7.647   9.721  11.249 -0.3234 -2.4210 -0.1869
  533MOL0     H71941   7.688   9.275  11.064 -0.2033  1.8068 -2.2823
  533MOL0     H71942   7.770   9.064  11.033  1.1549 -1.3659  3.5878
  533MOL0     H71943   8.001   8.954  10.813 -1.7838  1.6509  0.2198
  533MOL0     H71944   7.855   8.927  10.914 -0.5174  1.2432 -0.5431
  533MOL0     H71945   7.989   8.743  11.024  1.1725 -1.7015 -0.1551
  533MOL0     H71946   8.126   8.776  10.917  0.8167 -1.5012  0.7170
  533MOL0     H71947   7.838   8.687  10.839  0.0127  1.5923 -0.5816
  533MOL0     H71948   7.963   8.569  10.872 -0.8302  0.7555  1.0826
  533MOL0     H71949   7.956   8.595  10.636  3.3590 -2.5300  1.6831
  533MOL0     H71950   7.978   8.777  10.650  3.3556  2.7520  2.3969
  533MOL0     H71951   8.374   8.644  10.655 -0.0295 -1.6829 -0.1268
  533MOL0     H71952   8.174   9.212  10.997  0.3528  2.6038  0.4865
  533MOL0     H71953   8.211   9.474  10.988  0.9876  2.9643 -0.5350
  533MOL0     H71954   8.062   9.552  10.928  1.6707 -0.5323 -1.4580
  533MOL0     H71955   8.100   9.563  11.092 -2.6777  1.1992 -1.3405
  534MOL0     O71956   1.930   2.690   4.763  0.0480  0.4947 -0.0105
  534MOL0     C71957   1.922   2.575   4.719 -0.4371 -0.3329  1.1412
  534MOL0     O71958   1.855   2.471   4.774  0.6203 -0.4511 -0.6007
  534MOL0     C71959   1.747   2.507   4.854  0.3432  0.1517  0.5078
  534MOL0     C71960   1.631   2.430   4.825  1.1286 -1.1701  0.6843
  534MOL0     C71961   1.512   2.438   4.905  0.1198  0.2497  0.4679
  534MOL0     C71962   1.523   2.513   5.022  0.8217 -0.2972  0.4964
  534MOL0     O71963   1.425   2.518   5.116 -0.3859 -0.2374 -0.0586
  534MOL0     C71964   1.379   2.648   5.151 -0.3540  0.0308  0.3774
  534MOL0     C71965   1.232   2.628   5.184  0.0075  0.0898 -0.8976
  534MOL0     C71966   1.209   2.542   5.320  0.0093 -0.2156 -0.0241
  534MOL0     C71967   1.190   2.637   5.439  0.4207  0.5393  0.2713
  534MOL0     C71968   1.178   2.539   5.561 -0.6974 -0.5554 -0.0729
  534MOL0     C71969   1.185   2.608   5.698 -0.4711  0.8360 -0.7474
  534MOL0     C71970   1.181   2.505   5.809 -0.2469 -0.1707 -0.0201
  534MOL0     C71971   1.194   2.567   5.948  0.6083 -0.0076  0.0663
  534MOL0     N71972   1.324   2.629   5.973 -0.4586 -0.7090  0.4984
  534MOL0     C71973   1.443   2.566   5.971  0.0749 -0.2281  0.9833
  534MOL0     C71974   1.533   2.669   5.990  1.2721  0.2493 -0.1889
  534MOL0     C71975   1.682   2.679   6.020 -0.0996  0.6244  0.4152
  534MOL0     C71976   1.786   2.571   5.989 -0.2848  0.0341 -0.4264
  534MOL0     C71977   1.822   2.557   5.843 -1.2196  0.0255 -0.3570
  534MOL0     C71978   1.945   2.641   5.807 -0.9813  0.2945  0.1537
  534MOL0     O71979   1.990   2.598   5.677  0.4664 -0.0950  0.0164
  534MOL0     C71980   2.106   2.635   5.623  0.0587  0.3137  0.6134
  534MOL0     C71981   2.168   2.578   5.506  0.0239  0.8885  0.6938
  534MOL0     C71982   2.297   2.614   5.450  0.2619  0.9483 -0.3275
  534MOL0     C71983   2.365   2.721   5.513 -0.3883  0.4769  0.5761
  534MOL0     C71984   2.506   2.750   5.490 -0.3984 -0.4322 -0.3427
  534MOL0     O71985   2.562   2.833   5.577  0.5046 -0.5258  0.7572
  534MOL0     C71986   2.695   2.864   5.560  0.1456 -0.2615 -0.8220
  534MOL0     C71987   2.735   2.986   5.511 -0.4481  0.5235  0.3961
  534MOL0     C71988   2.873   3.002   5.488  0.1120 -0.8102 -0.1611
  534MOL0     C71989   2.969   2.908   5.540  0.9469 -0.2438 -0.0274
  534MOL0     O71990   3.104   2.933   5.532 -0.1534 -0.2653  0.2693
  534MOL0     C71991   3.144   3.071   5.517  0.4937 -0.8605 -0.1449
  534MOL0     C71992   3.302   3.107   5.539  0.3513 -0.2877  0.3021
  534MOL0     C71993   3.392   3.027   5.441 -0.3849 -0.1075  0.0413
  534MOL0     C71994   3.528   3.102   5.408  0.0926 -0.3849  1.5774
  534MOL0     C71995   3.600   3.150   5.526  1.1363 -0.2539 -0.5890
  534MOL0     C71996   3.623   3.034   5.626 -0.0791  0.5199  0.4477
  534MOL0     C71997   3.756   3.035   5.705  0.3157 -0.2169  0.9824
  534MOL0     C71998   3.750   2.945   5.819 -0.7654  0.0447  0.8575
  534MOL0    Cl71999   3.684   3.024   5.967 -0.4559 -0.4856 -0.1418
  534MOL0     C72000   2.925   2.784   5.590  0.0022 -1.3935 -0.3983
  534MOL0     C72001   2.787   2.764   5.593 -0.4214 -0.1814 -0.0626
  534MOL0     O72002   2.560   2.704   5.389  0.0091 -0.2544  0.1554
  534MOL0     C72003   2.294   2.781   5.621  0.2972 -0.2007 -1.0906
  534MOL0     C72004   2.176   2.740   5.681 -0.3112 -0.2497  0.2981
  534MOL0     N72005   1.460   2.785   6.005  0.6108  0.0347  0.4161
  534MOL0     N72006   1.336   2.766   5.997  0.6540  0.4397  1.5477
  534MOL0     C72007   1.643   2.579   5.054  0.4144 -0.0323  0.0677
  534MOL0     C72008   1.751   2.574   4.975  0.8479 -0.1915 -0.3130
  534MOL0     C72009   1.984   2.547   4.589 -0.5821  0.1023 -0.3601
  534MOL0     C72010   1.921   2.471   4.489  0.2883 -0.5560  0.1381
  534MOL0     C72011   1.971   2.464   4.359 -0.2126  0.7687 -0.7589
  534MOL0     C72012   2.101   2.513   4.339  0.7041  1.1979  1.1662
  534MOL0     O72013   2.174   2.484   4.221 -0.2506  0.7056  0.8553
  534MOL0     C72014   2.147   2.374   4.132  0.1844 -0.3272 -0.1624
  534MOL0     C72015   2.035   2.423   4.029  0.6912 -0.8894 -0.2344
  534MOL0     C72016   2.038   2.339   3.907  0.0167  0.1119  0.1105
  534MOL0     C72017   1.966   2.405   3.787 -0.5585  0.1476  0.0948
  534MOL0     C72018   1.820   2.423   3.808 -0.3457 -1.0656  0.2013
  534MOL0     C72019   1.705   2.456   3.827  0.0982  1.6306  0.0139
  534MOL0     C72020   2.174   2.570   4.440  0.4485 -0.1753  0.0642
  534MOL0     C72021   2.115   2.603   4.566  0.2268  0.2975 -0.0940
  534MOL0     C72022   2.203   2.681   4.665 -0.5187 -0.1792  0.2950
  534MOL0     H72023   1.623   2.376   4.731  1.4283 -0.0219 -0.0244
  534MOL0     H72024   1.414   2.400   4.881  0.8248 -2.5629  1.6357
  534MOL0     H72025   1.438   2.697   5.229  3.5300  0.2641 -2.4480
  534MOL0     H72026   1.385   2.707   5.060  1.4585 -1.3244 -0.4429
  534MOL0     H72027   1.195   2.568   5.101 -0.1406 -0.9265 -0.1161
  534MOL0     H72028   1.172   2.720   5.187 -0.3482 -0.1537  0.8913
  534MOL0     H72029   1.293   2.473   5.331 -0.1934 -1.6923 -5.2608
  534MOL0     H72030   1.115   2.488   5.310  1.5023 -2.7022 -1.7613
  534MOL0     H72031   1.283   2.695   5.447  1.7339 -1.1985 -1.2381
  534MOL0     H72032   1.098   2.696   5.433 -1.1894 -1.8512  0.3401
  534MOL0     H72033   1.084   2.482   5.554 -2.3316  1.9935 -0.2994
  534MOL0     H72034   1.262   2.469   5.564  0.3749  0.6563 -0.7271
  534MOL0     H72035   1.276   2.670   5.698 -1.3828  2.3039  1.3597
  534MOL0     H72036   1.101   2.676   5.714 -0.5999  0.7893 -1.2025
  534MOL0     H72037   1.261   2.432   5.796 -2.0480 -1.8794 -2.5422
  534MOL0     H72038   1.087   2.448   5.808  0.8883 -2.2778  2.3745
  534MOL0     H72039   1.118   2.646   5.945  0.8128  0.3016  1.6697
  534MOL0     H72040   1.173   2.499   6.031  1.6048  0.1227  0.4381
  534MOL0     H72041   1.474   2.462   5.962  2.0703  0.4085 -0.0862
  534MOL0     H72042   1.724   2.770   5.977 -0.3453  0.9932  0.9521
  534MOL0     H72043   1.692   2.680   6.129  0.0175 -0.3254  0.4256
  534MOL0     H72044   1.869   2.571   6.060 -4.0553 -0.4649  4.5545
  534MOL0     H72045   1.739   2.475   6.015 -0.4939  0.2450 -0.0068
  534MOL0     H72046   1.738   2.593   5.783 -0.2669  1.3494 -0.9260
  534MOL0     H72047   1.851   2.454   5.820  1.4980  1.0948 -2.2676
  534MOL0     H72048   2.032   2.630   5.872  0.0481 -3.2138 -1.5614
  534MOL0     H72049   1.920   2.748   5.804 -0.8547  0.3109 -1.3727
  534MOL0     H72050   2.109   2.506   5.449 -1.0605  0.4252  2.3420
  534MOL0     H72051   2.333   2.564   5.360 -3.8454 -1.8287 -0.7051
  534MOL0     H72052   2.676   3.053   5.449 -1.3025 -0.9505 -0.4482
  534MOL0     H72053   2.898   3.102   5.453  1.7990  0.3228  3.7301
  534MOL0     H72054   3.122   3.095   5.413  0.7011  0.9642  0.1973
  534MOL0     H72055   3.083   3.126   5.590  0.5459  1.4937 -1.7729
  534MOL0     H72056   3.330   3.213   5.531  1.4384 -0.2988  2.9307
  534MOL0     H72057   3.337   3.082   5.640  3.1832  1.1860 -0.2314
  534MOL0     H72058   3.414   2.940   5.503  0.0845  0.2346  0.3603
  534MOL0     H72059   3.333   2.988   5.357  0.6478 -2.3018  0.2660
  534MOL0     H72060   3.513   3.197   5.356  0.5758 -1.4923 -0.7095
  534MOL0     H72061   3.586   3.032   5.346  0.1256  1.4217 -0.5726
  534MOL0     H72062   3.546   3.235   5.570 -2.3640 -1.7677 -1.5907
  534MOL0     H72063   3.701   3.182   5.500  1.6291 -0.6691  0.6862
  534MOL0     H72064   3.536   3.029   5.693  0.3098 -2.5782  0.8888
  534MOL0     H72065   3.627   2.947   5.560 -0.8005  1.5907 -1.0612
  534MOL0     H72066   3.785   3.137   5.728 -0.7791  0.4205 -0.2893
  534MOL0     H72067   3.843   3.003   5.646 -0.4813  2.5511 -1.9988
  534MOL0     H72068   3.691   2.858   5.787 -2.3547  1.4795 -0.3204
  534MOL0     H72069   3.852   2.915   5.844 -2.0200 -2.0483  4.2149
  534MOL0     H72070   2.991   2.700   5.610  4.0612  2.2293  3.5350
  534MOL0     H72071   2.744   2.668   5.619 -0.6114  0.0488  0.4926
  534MOL0     H72072   2.341   2.864   5.673 -1.3573  0.4747 -0.6079
  534MOL0     H72073   2.144   2.790   5.771  0.0601 -3.1437  2.1434
  534MOL0     H72074   1.658   2.628   5.149  3.3186 -0.2436 -0.1795
  534MOL0     H72075   1.847   2.612   5.008  0.9100  1.6913 -2.3892
  534MOL0     H72076   1.824   2.432   4.517 -0.2452  2.6499  3.5831
  534MOL0     H72077   1.918   2.403   4.287  2.0948 -1.9442 -0.3290
  534MOL0     H72078   2.128   2.283   4.190  1.6521 -0.6042 -0.0822
  534MOL0     H72079   2.241   2.350   4.082  0.5946 -1.0267  0.9072
  534MOL0     H72080   2.055   2.528   4.009  1.2009 -0.7583  0.9105
  534MOL0     H72081   1.932   2.420   4.064  1.0953 -0.6492  1.0221
  534MOL0     H72082   1.996   2.242   3.937 -1.1987  0.5698 -0.0553
  534MOL0     H72083   2.145   2.336   3.883 -0.0953  0.9619 -0.5084
  534MOL0     H72084   2.008   2.504   3.769  1.3528 -0.2550  1.9993
  534MOL0     H72085   1.984   2.336   3.705 -1.3122  1.6226 -1.3709
  534MOL0     H72086   1.599   2.469   3.839 -0.0546  1.5654 -1.1207
  534MOL0     H72087   2.272   2.599   4.405 -0.0729  2.8152  0.8571
  534MOL0     H72088   2.242   2.617   4.745  2.6889 -2.5150 -2.8427
  534MOL0     H72089   2.292   2.712   4.610 -1.1941 -0.3935 -0.9300
  534MOL0     H72090   2.149   2.770   4.699 -1.6214 -0.1724 -1.3931
  535MOL0     O72091   8.562   7.574   3.027 -0.3730 -0.1512  0.9307
  535MOL0     C72092   8.597   7.689   2.999 -0.3753 -0.4016  0.1788
  535MOL0     O72093   8.708   7.755   3.023 -0.4561  0.2747  0.0957
  535MOL0     C72094   8.825   7.691   3.062  0.4389 -0.0006 -0.0519
  535MOL0     C72095   8.857   7.564   3.035 -0.8931 -0.1551  0.3400
  535MOL0     C72096   8.984   7.509   3.075  0.1383 -0.6807  0.3982
  535MOL0     C72097   9.074   7.590   3.152  0.3157  0.9507 -0.4152
  535MOL0     O72098   9.189   7.534   3.203 -0.1880  0.7376 -0.1045
  535MOL0     C72099   9.232   7.552   3.341  0.4743  0.9084 -0.1730
  535MOL0     C72100   9.292   7.419   3.395  0.4292  0.3086 -2.0050
  535MOL0     C72101   9.431   7.393   3.320 -0.6829 -0.2821 -0.4757
  535MOL0     C72102   9.489   7.267   3.370  0.6084 -0.0066 -0.6872
  535MOL0     C72103   9.614   7.216   3.289 -0.7735  0.1179 -0.1800
  535MOL0     C72104   9.724   7.338   3.270  0.4317 -0.0160 -1.0528
  535MOL0     C72105   9.765   7.416   3.405 -0.1528  0.5671 -0.2754
  535MOL0     C72106   9.869   7.528   3.378  0.2968  0.1142  0.6577
  535MOL0     N72107   9.909   7.595   3.508  0.1133 -0.2879 -0.1506
  535MOL0     C72108  10.037   7.587   3.560 -0.2015  0.4244 -0.1439
  535MOL0     C72109  10.036   7.694   3.643  1.1802 -0.1609  0.4873
  535MOL0     C72110  10.169   7.730   3.705 -0.2437  0.2281  0.2904
  535MOL0     C72111  10.217   7.872   3.674  0.1037  0.3715 -0.2230
  535MOL0     C72112  10.315   7.916   3.779 -0.1636  0.8768 -0.3465
  535MOL0     C72113  10.359   8.072   3.765 -0.1140  0.9950  0.1225
  535MOL0     O72114  10.492   8.089   3.698  0.8809 -0.0409 -0.2213
  535MOL0     C72115  10.521   8.216   3.644  0.0851 -0.2140  0.6578
  535MOL0     C72116  10.441   8.324   3.646  0.5331  0.0803 -1.0221
  535MOL0     C72117  10.482   8.449   3.583 -0.7246 -0.3031  0.2180
  535MOL0     C72118  10.616   8.470   3.535  0.7806  0.2492 -0.2437
  535MOL0     C72119  10.667   8.587   3.475  0.1218 -0.4822  0.2908
  535MOL0     O72120  10.780   8.579   3.391 -0.5595 -0.3184  0.4887
  535MOL0     C72121  10.831   8.691   3.328 -0.1584 -0.1324 -0.4366
  535MOL0     C72122  10.901   8.790   3.403 -0.4703  0.3897  0.3796
  535MOL0     C72123  10.973   8.896   3.331 -0.3375 -0.5465  0.3586
  535MOL0     C72124  10.970   8.903   3.190  0.0844 -0.4985 -0.0963
  535MOL0     O72125  11.038   9.002   3.129 -0.9392  0.3040  0.0030
  535MOL0     C72126  10.963   9.109   3.076 -0.3163  0.0024  0.2691
  535MOL0     C72127  10.934   9.220   3.175 -0.6075 -0.4190 -0.2660
  535MOL0     C72128  10.911   9.357   3.108 -0.3204 -0.0114  0.3418
  535MOL0     C72129  10.906   9.467   3.229  0.1996 -0.1765  0.1570
  535MOL0     C72130  10.884   9.615   3.186 -0.4876  0.3496 -0.3435
  535MOL0     C72131  11.004   9.690   3.240  0.3232  0.5383  0.1156
  535MOL0     C72132  11.126   9.640   3.169 -0.1992  0.7905 -0.4780
  535MOL0     C72133  11.170   9.745   3.058 -0.1108 -0.0502  0.0551
  535MOL0    Cl72134  11.333   9.700   3.008 -0.0478  0.4148  0.1983
  535MOL0     C72135  10.905   8.800   3.124  0.1451  0.0899  0.2826
  535MOL0     C72136  10.834   8.701   3.188  0.6737 -0.3850 -1.1633
  535MOL0     O72137  10.602   8.689   3.496  0.1146  0.5312 -0.0733
  535MOL0     C72138  10.695   8.358   3.550  0.6877  0.4645 -0.4137
  535MOL0     C72139  10.646   8.240   3.589  0.0111 -0.2050  0.3363
  535MOL0     N72140   9.911   7.756   3.649  0.0808  0.6138  0.1525
  535MOL0     N72141   9.832   7.684   3.574 -0.6234 -0.2668 -0.3529
  535MOL0     C72142   9.040   7.719   3.160  0.0398 -1.1899 -0.0933
  535MOL0     C72143   8.923   7.771   3.110 -0.1236  0.4256  0.7223
  535MOL0     C72144   8.484   7.774   2.948 -0.2360  0.0125 -0.5262
  535MOL0     C72145   8.350   7.753   2.995 -1.0137  0.1311 -0.2741
  535MOL0     C72146   8.247   7.843   2.955 -0.3532 -0.2490  0.6388
  535MOL0     C72147   8.266   7.932   2.852 -0.3643  0.0081  0.1350
  535MOL0     O72148   8.164   8.008   2.807  0.1034  0.7322  0.0759
  535MOL0     C72149   8.194   8.111   2.706  0.5243  0.6548  0.5047
  535MOL0     C72150   8.068   8.201   2.726  1.1643 -0.0851  0.1270
  535MOL0     C72151   8.100   8.345   2.724 -0.2605  0.3265 -0.8355
  535MOL0     C72152   7.980   8.435   2.710 -0.3323 -0.3802  0.0409
  535MOL0     C72153   7.902   8.425   2.586 -0.0755  0.2012 -0.6879
  535MOL0     C72154   7.855   8.422   2.474  0.2642 -0.3320  0.1598
  535MOL0     C72155   8.397   7.939   2.795  0.3011  0.2314  0.3581
  535MOL0     C72156   8.503   7.868   2.846  0.1991 -0.2813  0.0550
  535MOL0     C72157   8.628   7.895   2.772  0.2886 -1.1152 -0.9830
  535MOL0     H72158   8.774   7.507   2.993 -0.4892  0.0501 -0.7624
  535MOL0     H72159   9.010   7.407   3.049 -1.1850 -1.3129  1.4198
  535MOL0     H72160   9.310   7.627   3.334  1.6204 -0.3401 -1.6552
  535MOL0     H72161   9.155   7.594   3.406  0.7874 -2.2916  2.5574
  535MOL0     H72162   9.226   7.334   3.377 -0.8738  1.0314 -0.9359
  535MOL0     H72163   9.305   7.432   3.503 -1.1751  0.7458 -1.8446
  535MOL0     H72164   9.497   7.475   3.351 -1.2710 -1.1905  3.7043
  535MOL0     H72165   9.417   7.394   3.212  1.9857 -0.0472 -0.9101
  535MOL0     H72166   9.523   7.270   3.473 -0.5950 -1.3122 -0.2118
  535MOL0     H72167   9.417   7.184   3.374 -0.7212  1.1625  0.8051
  535MOL0     H72168   9.654   7.135   3.351 -1.0432  0.1038 -0.0240
  535MOL0     H72169   9.582   7.180   3.190 -2.3763  2.9800 -0.8192
  535MOL0     H72170   9.816   7.297   3.227  0.6486 -3.3684  2.1170
  535MOL0     H72171   9.683   7.410   3.199 -1.0309  2.4883  2.0727
  535MOL0     H72172   9.817   7.345   3.471  1.8473  2.2788  0.0853
  535MOL0     H72173   9.678   7.455   3.457  1.6420  0.0227  3.4300
  535MOL0     H72174   9.967   7.495   3.341  0.7347 -0.2983  2.0862
  535MOL0     H72175   9.816   7.600   3.316 -2.0395 -2.7014 -0.8726
  535MOL0     H72176  10.119   7.522   3.530 -1.3526  0.2264 -3.2466
  535MOL0     H72177  10.155   7.720   3.813 -0.3189  1.0687  0.3707
  535MOL0     H72178  10.242   7.656   3.671 -1.1218 -1.0429  1.1341
  535MOL0     H72179  10.263   7.885   3.575  1.8246  1.6062  0.6977
  535MOL0     H72180  10.124   7.926   3.694  0.7561  1.1389  0.8077
  535MOL0     H72181  10.412   7.867   3.766  0.2697  1.4961  0.4808
  535MOL0     H72182  10.275   7.900   3.879 -0.6404 -3.1703 -1.0366
  535MOL0     H72183  10.368   8.123   3.861  4.4114  0.5209  0.1612
  535MOL0     H72184  10.280   8.124   3.708  0.9127  2.2768 -0.1877
  535MOL0     H72185  10.337   8.316   3.677  0.8563 -1.5564 -0.2853
  535MOL0     H72186  10.409   8.527   3.563 -1.2297 -0.6502  0.6853
  535MOL0     H72187  10.905   8.777   3.511 -0.5465 -3.3971  0.0472
  535MOL0     H72188  11.013   8.985   3.380 -3.9409 -0.1868  3.1201
  535MOL0     H72189  11.012   9.142   2.983 -2.1200  1.3534 -0.2553
  535MOL0     H72190  10.866   9.078   3.034  0.4122 -1.7720 -0.2128
  535MOL0     H72191  10.848   9.187   3.233 -1.0114  1.1659  0.0657
  535MOL0     H72192  11.017   9.224   3.247  1.6987 -2.1811 -2.5909
  535MOL0     H72193  10.991   9.367   3.033  0.8023 -2.9817  0.9941
  535MOL0     H72194  10.811   9.363   3.065 -0.6072 -3.2857  0.2921
  535MOL0     H72195  10.988   9.448   3.299 -0.2863  1.4347  1.2149
  535MOL0     H72196  10.815   9.437   3.281  0.9508 -1.0364  1.0173
  535MOL0     H72197  10.801   9.657   3.244  0.0031  1.8232 -0.6647
  535MOL0     H72198  10.869   9.631   3.079  0.6139  2.4307 -0.2390
  535MOL0     H72199  10.990   9.797   3.221 -1.4095  0.5678  1.3159
  535MOL0     H72200  11.014   9.684   3.349  1.2824  1.5078  0.0993
  535MOL0     H72201  11.117   9.544   3.117 -2.6463  0.3120  0.6931
  535MOL0     H72202  11.203   9.637   3.248 -2.3462 -1.0351  1.6958
  535MOL0     H72203  11.099   9.749   2.976 -0.4382  1.8674  0.3865
  535MOL0     H72204  11.184   9.846   3.098  0.6459 -0.7744  1.7086
  535MOL0     H72205  10.900   8.809   3.016 -0.1666  1.1011  0.3679
  535MOL0     H72206  10.776   8.633   3.127 -1.7964 -0.0807  0.7029
  535MOL0     H72207  10.802   8.368   3.538  1.0957 -0.5548  1.7502
  535MOL0     H72208  10.714   8.156   3.602  1.5047  1.0405  0.8628
  535MOL0     H72209   9.100   7.787   3.219 -0.9725 -1.1194  0.8957
  535MOL0     H72210   8.923   7.880   3.112  0.7053  0.4623  3.7880
  535MOL0     H72211   8.340   7.679   3.074  1.6390 -0.2467 -0.2058
  535MOL0     H72212   8.146   7.835   2.992 -0.8365 -1.5351 -0.8387
  535MOL0     H72213   8.206   8.069   2.605 -1.2819 -1.1914  0.9833
  535MOL0     H72214   8.283   8.168   2.734  0.8082 -0.3783  1.7553
  535MOL0     H72215   8.029   8.182   2.827  2.2280 -1.0387  0.3839
  535MOL0     H72216   7.985   8.172   2.661 -0.7130 -1.4296  2.9239
  535MOL0     H72217   8.166   8.370   2.640 -1.0485  0.6717 -1.3646
  535MOL0     H72218   8.144   8.371   2.821  0.6607  0.0325 -1.1648
  535MOL0     H72219   7.912   8.430   2.796  2.3125 -2.0172  2.2047
  535MOL0     H72220   8.016   8.538   2.720 -0.0948 -0.4330 -0.2407
  535MOL0     H72221   7.815   8.410   2.375 -3.5028 -1.4906  1.6156
  535MOL0     H72222   8.420   8.019   2.727  1.4307  0.4072  0.9247
  535MOL0     H72223   8.717   7.872   2.832 -0.4717  0.3605  0.8363
  535MOL0     H72224   8.628   7.847   2.674  0.2448 -1.9128 -0.6057
  535MOL0     H72225   8.646   8.003   2.767 -0.8901 -0.3952  4.0741
  536MOL0     O72226   5.995   8.617   3.720  0.3341 -0.1639 -0.1687
  536MOL0     C72227   6.114   8.589   3.714 -0.6740 -0.5686  0.8532
  536MOL0     O72228   6.165   8.462   3.711 -0.4505 -0.0179 -0.1586
  536MOL0     C72229   6.093   8.351   3.671  0.4019  0.4449 -0.4410
  536MOL0     C72230   5.994   8.343   3.564  0.8228 -0.1705 -0.3183
  536MOL0     C72231   5.950   8.222   3.508  0.1858  0.4834  0.1911
  536MOL0     C72232   5.993   8.100   3.558 -0.3149 -0.4259 -0.5189
  536MOL0     O72233   5.948   7.977   3.527  0.4680  0.0173 -0.0782
  536MOL0     C72234   5.843   7.956   3.426  0.0429  0.2755  0.4735
  536MOL0     C72235   5.709   7.983   3.502  0.1121  0.0192  1.0560
  536MOL0     C72236   5.587   7.950   3.419  0.6646  0.3599  0.3625
  536MOL0     C72237   5.461   7.914   3.508 -0.3428  0.1414  0.1734
  536MOL0     C72238   5.323   7.890   3.420 -1.5668 -0.7790 -0.9044
  536MOL0     C72239   5.350   7.793   3.304  0.4729 -0.6233 -0.6742
  536MOL0     C72240   5.220   7.741   3.249  0.8113 -0.1561  0.7781
  536MOL0     C72241   5.126   7.843   3.182 -0.7539  0.2874  0.5355
  536MOL0     N72242   5.001   7.778   3.155 -0.1482 -0.1440 -0.0175
  536MOL0     C72243   4.969   7.699   3.047  0.0427  0.0643  0.2818
  536MOL0     C72244   4.832   7.697   3.041 -1.1511 -0.0925 -1.2150
  536MOL0     C72245   4.740   7.625   2.942 -0.3127 -0.6222  0.6326
  536MOL0     C72246   4.708   7.707   2.817 -1.2024 -0.8932  0.3240
  536MOL0     C72247   4.638   7.838   2.859  0.1439 -0.7824 -0.3064
  536MOL0     C72248   4.570   7.915   2.743  0.5516 -0.2709 -0.2533
  536MOL0     O72249   4.523   8.046   2.794 -0.6313 -0.2083  0.7447
  536MOL0     C72250   4.425   8.119   2.720  0.4272  0.9102 -0.4609
  536MOL0     C72251   4.389   8.105   2.581 -1.1549  0.4075 -0.8628
  536MOL0     C72252   4.287   8.183   2.528  0.2519  0.3076  0.1678
  536MOL0     C72253   4.221   8.282   2.605 -0.9348  0.8693 -0.8327
  536MOL0     C72254   4.118   8.367   2.537 -1.1543 -0.0766 -0.1429
  536MOL0     O72255   4.076   8.478   2.606 -0.1687  0.4088 -0.2354
  536MOL0     C72256   3.979   8.552   2.542 -0.2124  0.5540 -0.4652
  536MOL0     C72257   3.845   8.521   2.560 -0.1834 -0.6512  0.2843
  536MOL0     C72258   3.752   8.605   2.493 -0.3987  0.1287 -0.0418
  536MOL0     C72259   3.791   8.693   2.396 -0.3370  0.0766  0.6115
  536MOL0     O72260   3.689   8.754   2.323  0.3727 -0.6327 -1.3257
  536MOL0     C72261   3.711   8.800   2.191  0.2037  0.8501  0.2396
  536MOL0     C72262   3.687   8.705   2.081  0.4364 -0.1191 -0.1944
  536MOL0     C72263   3.545   8.645   2.103  0.4242 -0.5488 -0.1686
  536MOL0     C72264   3.500   8.561   1.982 -0.9704  0.0571 -0.2828
  536MOL0     C72265   3.349   8.543   1.978  1.0238 -0.2010 -0.5094
  536MOL0     C72266   3.261   8.672   1.962  0.5773 -0.1411  0.0665
  536MOL0     C72267   3.118   8.633   1.935 -0.1472 -0.5543  0.3869
  536MOL0     C72268   3.041   8.754   1.884  0.4297 -1.1230  0.7328
  536MOL0    Cl72269   3.100   8.829   1.738 -0.9434 -0.1806 -0.0931
  536MOL0     C72270   3.930   8.706   2.358  0.3092  0.3043 -0.3039
  536MOL0     C72271   4.026   8.642   2.437  0.5071 -0.5484  0.7354
  536MOL0     O72272   4.087   8.341   2.420  1.0143  0.1652 -0.9606
  536MOL0     C72273   4.254   8.301   2.747 -0.4425  0.1527  1.3718
  536MOL0     C72274   4.353   8.215   2.795 -0.1598  1.1533 -0.1665
  536MOL0     N72275   4.779   7.774   3.152 -0.4672 -0.0229  0.2802
  536MOL0     N72276   4.884   7.816   3.217 -0.1363  0.3508 -0.0661
  536MOL0     C72277   6.101   8.102   3.652  0.0525  0.0206 -0.2809
  536MOL0     C72278   6.143   8.221   3.710 -0.3133 -0.1668  0.2615
  536MOL0     C72279   6.206   8.707   3.710 -0.1402  0.1597  0.4343
  536MOL0     C72280   6.342   8.674   3.679 -0.3242 -0.9925 -0.2776
  536MOL0     C72281   6.436   8.774   3.656 -0.5826 -0.2040 -1.0748
  536MOL0     C72282   6.412   8.915   3.700  0.2567  0.8458  0.1668
  536MOL0     O72283   6.518   8.997   3.689  0.5114  1.0919 -0.0679
  536MOL0     C72284   6.485   9.120   3.637 -0.3602  0.2078  1.0550
  536MOL0     C72285   6.595   9.181   3.543 -0.5663 -0.4249  0.9641
  536MOL0     C72286   6.721   9.219   3.633 -0.7985  0.2457 -1.2960
  536MOL0     C72287   6.861   9.258   3.573 -0.7482  0.2030  0.0216
  536MOL0     C72288   6.902   9.166   3.461 -0.0507 -0.6523  0.0688
  536MOL0     C72289   6.927   9.101   3.365 -0.0153 -0.4857  0.1896
  536MOL0     C72290   6.281   8.948   3.732  0.7676  0.1743 -0.0559
  536MOL0     C72291   6.174   8.844   3.729 -0.3139  0.5507  0.5182
  536MOL0     C72292   6.031   8.894   3.747 -0.1739  0.4107  0.8838
  536MOL0     H72293   5.970   8.434   3.509 -1.4321 -0.9830 -0.8048
  536MOL0     H72294   5.890   8.221   3.417 -0.0553 -1.4858  0.3203
  536MOL0     H72295   5.855   8.021   3.339 -2.6308  0.0335 -0.1850
  536MOL0     H72296   5.848   7.849   3.407  0.3358  0.3187  0.3106
  536MOL0     H72297   5.714   8.089   3.530 -0.5454  0.2956  0.1881
  536MOL0     H72298   5.694   7.922   3.591 -3.5169 -1.6091 -0.4423
  536MOL0     H72299   5.610   7.885   3.335  2.2913  0.4940  0.6777
  536MOL0     H72300   5.568   8.040   3.359  1.5778 -0.3074 -0.9474
  536MOL0     H72301   5.492   7.834   3.577  1.6369 -1.5252 -2.4726
  536MOL0     H72302   5.462   7.999   3.577 -0.0427 -1.1977  1.9198
  536MOL0     H72303   5.248   7.846   3.487 -0.2298 -0.3247  0.9741
  536MOL0     H72304   5.286   7.990   3.393 -2.2261  0.5960  4.0267
  536MOL0     H72305   5.404   7.848   3.226 -2.6223 -0.7887 -3.1302
  536MOL0     H72306   5.417   7.717   3.346  1.1323  1.1879  1.7150
  536MOL0     H72307   5.159   7.692   3.325  1.2544 -0.2915  1.0442
  536MOL0     H72308   5.235   7.664   3.173 -0.0336  1.5475 -1.2409
  536MOL0     H72309   5.104   7.921   3.255 -2.7609  0.8076 -0.5627
  536MOL0     H72310   5.175   7.892   3.098  0.5022  1.3938  1.8595
  536MOL0     H72311   5.039   7.644   2.985  1.7154  1.8912  0.4527
  536MOL0     H72312   4.776   7.530   2.899  0.0238 -0.4707  0.5771
  536MOL0     H72313   4.649   7.615   3.001  0.5393 -1.2813  1.8635
  536MOL0     H72314   4.797   7.728   2.757 -1.9856 -0.9521 -0.9039
  536MOL0     H72315   4.640   7.652   2.751 -1.2568 -0.2891 -0.1370
  536MOL0     H72316   4.711   7.900   2.912 -1.7610 -0.8495  2.6645
  536MOL0     H72317   4.567   7.829   2.942  2.4959  0.0271  1.9331
  536MOL0     H72318   4.506   7.850   2.683  4.4388 -0.9412 -4.1634
  536MOL0     H72319   4.644   7.936   2.665  3.1156  0.3735  2.1961
  536MOL0     H72320   4.443   8.028   2.528  3.1734  1.5025  1.4603
  536MOL0     H72321   4.265   8.149   2.427  1.2778 -2.9340  0.9048
  536MOL0     H72322   3.805   8.457   2.638 -0.0429 -0.5882  0.4100
  536MOL0     H72323   3.648   8.578   2.507 -0.6525  1.2145  0.2264
  536MOL0     H72324   3.639   8.879   2.168 -2.9351 -2.2432 -1.5882
  536MOL0     H72325   3.807   8.848   2.169 -0.5111  1.4381 -1.8402
  536MOL0     H72326   3.679   8.745   1.979  0.7142 -1.6659 -0.8397
  536MOL0     H72327   3.765   8.630   2.069 -1.9096 -2.2978 -3.9506
  536MOL0     H72328   3.543   8.599   2.202  1.0254  0.6559  0.4292
  536MOL0     H72329   3.477   8.730   2.113  0.5075 -0.3765 -0.9551
  536MOL0     H72330   3.537   8.460   2.001  0.1878  0.6144  0.5774
  536MOL0     H72331   3.538   8.600   1.888  0.4382  0.9447  0.6270
  536MOL0     H72332   3.320   8.494   2.071  2.4381  0.8414  0.5254
  536MOL0     H72333   3.331   8.479   1.891  0.2897  0.0430 -0.5465
  536MOL0     H72334   3.286   8.757   2.026  2.5097  0.9287 -1.9547
  536MOL0     H72335   3.302   8.708   1.867  0.7045 -0.9161 -0.1770
  536MOL0     H72336   3.066   8.613   2.029  1.6566  4.6897  2.9207
  536MOL0     H72337   3.115   8.552   1.862 -3.2610 -0.0180 -0.2328
  536MOL0     H72338   2.934   8.739   1.866  0.1185  2.3835 -1.1631
  536MOL0     H72339   3.033   8.835   1.957 -0.7596 -0.6184  0.0856
  536MOL0     H72340   3.968   8.778   2.286 -1.8691  0.6216 -1.2083
  536MOL0     H72341   4.131   8.641   2.409  0.8890 -2.6362  2.0017
  536MOL0     H72342   4.189   8.376   2.789 -1.4654  0.8090 -1.1933
  536MOL0     H72343   4.372   8.236   2.900  1.9021 -0.2017 -0.2123
  536MOL0     H72344   6.138   8.003   3.676  1.4811  0.9623  1.6826
  536MOL0     H72345   6.228   8.225   3.777 -0.1545  2.7984  0.0037
  536MOL0     H72346   6.372   8.575   3.644  3.5245 -0.3026  0.5378
  536MOL0     H72347   6.536   8.734   3.642 -0.3728 -0.0196 -0.1519
  536MOL0     H72348   6.463   9.187   3.722  0.5305  1.5928  0.2380
  536MOL0     H72349   6.392   9.108   3.581 -0.9712 -1.3100  2.3370
  536MOL0     H72350   6.565   9.272   3.490 -0.4447 -1.0240 -0.1770
  536MOL0     H72351   6.618   9.098   3.475  0.5976  0.4224  0.2900
  536MOL0     H72352   6.736   9.145   3.712  1.4317 -0.0410 -1.9081
  536MOL0     H72353   6.704   9.304   3.700 -1.0168 -0.5802 -0.2788
  536MOL0     H72354   6.870   9.360   3.534 -0.1376 -0.4864 -1.7332
  536MOL0     H72355   6.939   9.253   3.650  0.2589 -0.7223 -1.0291
  536MOL0     H72356   6.963   9.044   3.282 -0.2938 -0.0740 -0.2203
  536MOL0     H72357   6.265   9.054   3.751  3.4292  0.4666  1.0087
  536MOL0     H72358   6.000   8.850   3.842  0.0652 -0.1950  0.6871
  536MOL0     H72359   6.024   9.003   3.753 -0.5337  0.3388  1.9123
  536MOL0     H72360   5.972   8.850   3.666 -0.7357 -2.1541  2.5615
  537MOL0     O72361   7.167   6.530   7.630 -0.4359 -0.2348  0.4189
  537MOL0     C72362   7.143   6.635   7.563 -0.2716  0.5081 -0.8340
  537MOL0     O72363   7.230   6.694   7.469  0.0365  0.4506 -0.0658
  537MOL0     C72364   7.355   6.641   7.449 -0.0199  0.0290  0.9134
  537MOL0     C72365   7.408   6.650   7.319  0.3954 -0.7326  0.4038
  537MOL0     C72366   7.544   6.621   7.294  0.5945 -0.7539  0.1670
  537MOL0     C72367   7.627   6.591   7.405 -0.1414 -0.1712 -0.3423
  537MOL0     O72368   7.757   6.573   7.366 -0.3314  0.1488 -0.5034
  537MOL0     C72369   7.861   6.592   7.466 -0.6695 -1.3372 -0.2241
  537MOL0     C72370   8.010   6.618   7.417  0.6472  0.5451  0.1699
  537MOL0     C72371   8.056   6.515   7.312 -0.1512 -0.0561  0.1717
  537MOL0     C72372   8.075   6.383   7.374 -0.7406 -0.0489  0.0456
  537MOL0     C72373   8.084   6.255   7.269 -0.4273 -0.2526 -0.2011
  537MOL0     C72374   8.219   6.268   7.185  0.2404 -0.7553 -0.3133
  537MOL0     C72375   8.184   6.244   7.039  0.4378  0.4324 -0.3199
  537MOL0     C72376   8.314   6.256   6.946  1.2184  0.4069 -0.0664
  537MOL0     N72377   8.383   6.388   6.927 -0.0741 -0.0526  0.5850
  537MOL0     C72378   8.398   6.452   6.806  0.4468  0.4393  0.2897
  537MOL0     C72379   8.480   6.550   6.837 -0.0920 -0.2426  0.2647
  537MOL0     C72380   8.566   6.632   6.740  0.4538  0.7575 -0.5170
  537MOL0     C72381   8.481   6.747   6.667 -0.4758  0.2577 -0.1328
  537MOL0     C72382   8.415   6.858   6.750  0.1930  0.3305 -0.2733
  537MOL0     C72383   8.494   6.920   6.861 -0.5393 -0.0207 -0.3499
  537MOL0     O72384   8.614   6.981   6.808 -0.0276 -0.1241 -0.0649
  537MOL0     C72385   8.670   7.070   6.908  0.4051  0.2380  0.1827
  537MOL0     C72386   8.793   7.032   6.978  0.1095  0.1652 -0.7699
  537MOL0     C72387   8.858   7.127   7.059  0.4736 -0.1186 -0.5396
  537MOL0     C72388   8.805   7.254   7.076  0.2096 -0.6247  0.2154
  537MOL0     C72389   8.878   7.346   7.172  0.6686 -0.2447  0.1200
  537MOL0     O72390   8.976   7.296   7.246  0.5239  0.0429 -0.7543
  537MOL0     C72391   9.040   7.375   7.336  0.7609 -0.1493 -0.2816
  537MOL0     C72392   8.986   7.403   7.462  0.9522 -0.0424  0.1729
  537MOL0     C72393   9.063   7.491   7.541 -0.0654 -0.1434  0.1619
  537MOL0     C72394   9.184   7.557   7.505 -0.4037  0.7773  0.9187
  537MOL0     O72395   9.252   7.656   7.578  0.1772 -0.1261  0.5411
  537MOL0     C72396   9.194   7.699   7.705  0.0665  0.4819  0.0155
  537MOL0     C72397   9.307   7.766   7.800  0.2577 -0.6084  0.9564
  537MOL0     C72398   9.438   7.686   7.812 -0.5815  0.8853 -0.1623
  537MOL0     C72399   9.541   7.741   7.910 -0.6594 -0.5885  0.2044
  537MOL0     C72400   9.537   7.677   8.049  0.4625 -0.3321  0.0817
  537MOL0     C72401   9.635   7.728   8.154 -0.2829 -0.1966 -0.1283
  537MOL0     C72402   9.606   7.873   8.224 -0.0184 -0.1342  0.9522
  537MOL0     C72403   9.734   7.937   8.275  0.6569 -0.2559  0.0683
  537MOL0    Cl72404   9.813   7.820   8.393 -0.4697  0.2458  0.3950
  537MOL0     C72405   9.234   7.517   7.379  0.3959 -1.0843  0.7927
  537MOL0     C72406   9.164   7.431   7.299 -0.2376 -0.3815  0.2106
  537MOL0     O72407   8.845   7.470   7.177 -0.0637  0.0117  0.5081
  537MOL0     C72408   8.680   7.292   7.008 -0.1893  0.5109 -0.2725
  537MOL0     C72409   8.620   7.206   6.920  0.1444  0.0220  0.3265
  537MOL0     N72410   8.502   6.566   6.967  0.0437  0.3391  0.6459
  537MOL0     N72411   8.439   6.468   7.023  0.4117 -0.0490  0.0599
  537MOL0     C72412   7.569   6.587   7.532 -0.5157  0.9588 -0.1732
  537MOL0     C72413   7.436   6.617   7.558  0.2415 -0.9515 -0.4798
  537MOL0     C72414   7.000   6.680   7.573 -0.5438 -0.3213  0.5579
  537MOL0     C72415   6.974   6.801   7.517  0.6155  0.2826 -0.1452
  537MOL0     C72416   6.840   6.858   7.520 -0.1182  0.1563 -0.0096
  537MOL0     C72417   6.736   6.788   7.576 -0.7208 -0.4942  0.1945
  537MOL0     O72418   6.604   6.825   7.571 -0.4348 -0.5890  0.3476
  537MOL0     C72419   6.554   6.932   7.492 -0.7095  0.8697  0.0242
  537MOL0     C72420   6.540   7.061   7.567 -0.0417  0.3700  0.1111
  537MOL0     C72421   6.428   7.034   7.676 -0.6974  0.9012  0.3210
  537MOL0     C72422   6.414   7.139   7.786 -0.0446 -0.6643  0.3844
  537MOL0     C72423   6.285   7.110   7.857  0.5959  0.7192  0.9316
  537MOL0     C72424   6.189   7.075   7.917 -0.3698  0.5561 -0.1402
  537MOL0     C72425   6.764   6.661   7.632 -1.0727 -0.0833 -0.1547
  537MOL0     C72426   6.891   6.605   7.627 -0.6452  0.2820  0.1199
  537MOL0     C72427   6.886   6.464   7.678  0.1913 -0.1666  0.2458
  537MOL0     H72428   7.355   6.685   7.231 -0.4652  1.0186  1.5640
  537MOL0     H72429   7.586   6.613   7.194  0.1378 -1.2407  0.0042
  537MOL0     H72430   7.833   6.673   7.533  0.6023  0.8447 -2.1577
  537MOL0     H72431   7.839   6.510   7.535 -1.3765 -0.1460  1.0164
  537MOL0     H72432   8.088   6.619   7.493 -0.4343  0.1245  1.3225
  537MOL0     H72433   8.008   6.709   7.357 -0.9916 -1.3466 -2.9725
  537MOL0     H72434   8.150   6.550   7.268  0.6343 -0.7985  1.2013
  537MOL0     H72435   7.981   6.511   7.233  2.7638 -0.6723 -2.8045
  537MOL0     H72436   8.164   6.386   7.438 -2.2277 -0.7686  2.2600
  537MOL0     H72437   7.988   6.362   7.436 -2.2256 -1.2466 -2.2994
  537MOL0     H72438   8.082   6.163   7.328  0.2380  0.1915  0.5256
  537MOL0     H72439   7.993   6.248   7.208 -1.2569  1.6947  0.6945
  537MOL0     H72440   8.261   6.368   7.175  2.2827 -1.7522 -2.9202
  537MOL0     H72441   8.291   6.203   7.236  1.1351  0.2396 -0.2774
  537MOL0     H72442   8.112   6.316   6.999 -0.3880  0.3218  0.9161
  537MOL0     H72443   8.158   6.139   7.020 -0.5909  0.6201  0.0034
  537MOL0     H72444   8.391   6.192   6.991  1.1482  0.9274  0.8364
  537MOL0     H72445   8.286   6.216   6.849 -0.7525  2.0319 -0.2295
  537MOL0     H72446   8.371   6.422   6.705 -1.3394 -1.9648  1.3874
  537MOL0     H72447   8.650   6.680   6.790  0.7731 -2.0021  1.8202
  537MOL0     H72448   8.606   6.570   6.659  2.5870  1.2275  0.1071
  537MOL0     H72449   8.554   6.801   6.606 -0.6114  0.4331 -0.1419
  537MOL0     H72450   8.401   6.707   6.604 -0.0384 -0.4754 -0.2342
  537MOL0     H72451   8.328   6.822   6.805  0.2974  1.4517  0.6595
  537MOL0     H72452   8.392   6.936   6.676  1.0226  0.5854 -0.2756
  537MOL0     H72453   8.519   6.850   6.941  0.5359 -0.9685 -1.4820
  537MOL0     H72454   8.433   7.004   6.895  1.4721  1.9976 -1.4379
  537MOL0     H72455   8.831   6.931   6.987  0.8584  0.2586 -2.4430
  537MOL0     H72456   8.955   7.105   7.102  1.7924 -0.0176 -3.2651
  537MOL0     H72457   8.901   7.353   7.508 -0.9993  0.1851 -2.9193
  537MOL0     H72458   9.036   7.504   7.646 -1.6176 -2.4376  0.1135
  537MOL0     H72459   9.111   7.766   7.681 -0.8534 -0.6582 -0.0884
  537MOL0     H72460   9.155   7.621   7.771  0.7899  0.0030 -0.1164
  537MOL0     H72461   9.330   7.867   7.764 -0.3787 -0.8055 -0.0620
  537MOL0     H72462   9.259   7.773   7.898 -2.7014 -3.4360 -0.1190
  537MOL0     H72463   9.415   7.584   7.844 -0.1923  0.9862  0.4514
  537MOL0     H72464   9.477   7.693   7.710  0.0793  2.5461  0.1798
  537MOL0     H72465   9.521   7.849   7.907  0.9553 -0.2866 -1.2922
  537MOL0     H72466   9.638   7.730   7.862  0.4086  2.6223  1.3169
  537MOL0     H72467   9.583   7.578   8.036 -0.6772 -1.1420  1.7998
  537MOL0     H72468   9.440   7.670   8.100  0.2293 -0.4222 -0.3678
  537MOL0     H72469   9.635   7.660   8.240 -1.3252  1.0986  0.9425
  537MOL0     H72470   9.735   7.727   8.109 -1.0881 -0.8311 -2.0031
  537MOL0     H72471   9.533   7.854   8.303 -2.3380 -2.4603 -1.5423
  537MOL0     H72472   9.574   7.944   8.147  1.8315 -1.4762 -1.1922
  537MOL0     H72473   9.794   7.972   8.190 -1.9875 -0.3389 -1.9498
  537MOL0     H72474   9.717   8.025   8.337  1.9732  0.4915 -0.5755
  537MOL0     H72475   9.328   7.561   7.348  0.0286 -0.6706  0.2372
  537MOL0     H72476   9.187   7.417   7.194  3.4641  0.4224  0.7832
  537MOL0     H72477   8.650   7.393   7.036  0.5402  0.2866  1.4494
  537MOL0     H72478   8.529   7.237   6.870  1.2552 -1.7459 -3.0410
  537MOL0     H72479   7.632   6.554   7.614  0.8562  0.5810 -1.3437
  537MOL0     H72480   7.392   6.625   7.657  2.4370  2.1822  0.3940
  537MOL0     H72481   7.054   6.855   7.466  2.7787 -1.4158  1.2653
  537MOL0     H72482   6.831   6.953   7.467 -0.4484  1.7634  2.7218
  537MOL0     H72483   6.458   6.890   7.461  0.9104 -1.8142 -1.6778
  537MOL0     H72484   6.615   6.945   7.402  1.8966  2.3762  1.8372
  537MOL0     H72485   6.499   7.124   7.487 -2.1590 -0.0521  0.8051
  537MOL0     H72486   6.632   7.109   7.601  0.0629  0.3981 -0.2064
  537MOL0     H72487   6.438   6.932   7.714 -1.1020  0.0216 -1.7889
  537MOL0     H72488   6.338   7.029   7.614  1.4877 -0.6562 -3.0091
  537MOL0     H72489   6.509   7.138   7.841  0.8812 -1.2601 -1.1821
  537MOL0     H72490   6.408   7.241   7.749 -1.2736  0.4402  3.2818
  537MOL0     H72491   6.106   7.044   7.977  0.2613  1.0914  1.0592
  537MOL0     H72492   6.688   6.598   7.678 -1.1525  2.8648  4.3520
  537MOL0     H72493   6.962   6.402   7.628 -0.9871 -1.3160 -0.1874
  537MOL0     H72494   6.890   6.466   7.787 -3.2189  0.0508  0.4452
  537MOL0     H72495   6.788   6.419   7.661  0.3414  0.4550 -2.9017
  538MOL0     O72496   3.423   7.566   9.797  0.5417  0.0457  0.9402
  538MOL0     C72497   3.359   7.480   9.743  0.9700  0.3134  0.1024
  538MOL0     O72498   3.409   7.403   9.642 -0.0912 -0.2284  0.8691
  538MOL0     C72499   3.546   7.412   9.614 -1.0642 -0.2336  0.2936
  538MOL0     C72500   3.623   7.526   9.580  0.8241  0.0338  0.0929
  538MOL0     C72501   3.751   7.524   9.548 -0.0715 -0.3283 -0.1314
  538MOL0     C72502   3.826   7.404   9.540 -1.0338 -0.0457 -0.3129
  538MOL0     O72503   3.954   7.407   9.485 -0.3883  1.0639  0.1524
  538MOL0     C72504   4.021   7.292   9.436 -0.0117 -0.7993  0.2101
  538MOL0     C72505   4.145   7.331   9.359 -0.5976 -0.9239  0.0220
  538MOL0     C72506   4.247   7.407   9.451 -0.1287  0.1986  0.5956
  538MOL0     C72507   4.388   7.407   9.388 -0.6969 -0.8130 -0.5617
  538MOL0     C72508   4.483   7.520   9.423 -0.8443 -0.3577 -1.0360
  538MOL0     C72509   4.634   7.472   9.402 -0.1549  0.1532  0.3469
  538MOL0     C72510   4.728   7.592   9.437 -0.4219 -0.8023 -0.2656
  538MOL0     C72511   4.870   7.545   9.416  0.1537  0.1612  0.3182
  538MOL0     N72512   4.907   7.520   9.272 -0.1819 -0.1511 -0.3436
  538MOL0     C72513   5.002   7.429   9.238 -0.6117 -0.0108  0.1308
  538MOL0     C72514   5.012   7.445   9.110 -0.2539 -0.5698  0.9948
  538MOL0     C72515   5.100   7.352   9.026  0.3386  0.5752  0.8708
  538MOL0     C72516   5.050   7.203   9.034  0.6474 -0.2322 -0.6957
  538MOL0     C72517   4.889   7.177   9.025  0.0513 -0.5524  0.2424
  538MOL0     C72518   4.818   7.239   8.900 -0.1257  0.5541  0.6393
  538MOL0     O72519   4.731   7.135   8.858 -0.3658 -0.0178 -0.3996
  538MOL0     C72520   4.608   7.137   8.914  0.4657  0.5591  1.4619
  538MOL0     C72521   4.506   7.198   8.831  0.0636 -0.8173 -0.9183
  538MOL0     C72522   4.363   7.198   8.876 -0.3669 -0.2963 -0.4753
  538MOL0     C72523   4.337   7.136   8.995  0.0050 -0.3789  0.0439
  538MOL0     C72524   4.197   7.115   9.045 -0.1315  0.1983 -0.7714
  538MOL0     O72525   4.098   7.123   8.952 -0.7528 -0.1240  0.2534
  538MOL0     C72526   3.979   7.103   9.013 -0.1185  0.0464  1.2118
  538MOL0     C72527   3.903   7.221   9.014  0.0571 -0.6844 -0.8642
  538MOL0     C72528   3.776   7.204   9.063  0.1243  0.0630 -0.7361
  538MOL0     C72529   3.714   7.081   9.093  0.8885  0.2515 -0.2577
  538MOL0     O72530   3.580   7.060   9.126  0.4275  0.0285 -0.6524
  538MOL0     C72531   3.524   7.178   9.181 -0.0523  0.3257 -0.3426
  538MOL0     C72532   3.407   7.137   9.276  0.5256 -0.8556  0.3877
  538MOL0     C72533   3.279   7.088   9.208  0.5911 -0.1287 -0.5300
  538MOL0     C72534   3.215   7.204   9.122  0.4690  0.2040  0.0203
  538MOL0     C72535   3.090   7.151   9.070  0.3573  1.5584  0.3120
  538MOL0     C72536   3.103   7.051   8.959  0.0138  0.6535  0.0459
  538MOL0     C72537   2.974   7.015   8.872 -0.3556 -0.3036 -0.4239
  538MOL0     C72538   3.000   6.904   8.773  0.4613 -0.4122 -0.5650
  538MOL0    Cl72539   3.130   6.960   8.664 -0.6274  0.1028 -0.0423
  538MOL0     C72540   3.788   6.958   9.080  0.2373 -0.4408 -0.8077
  538MOL0     C72541   3.922   6.976   9.035  0.2369  0.3597 -0.1272
  538MOL0     O72542   4.187   7.056   9.157  0.2808 -0.0977 -0.0852
  538MOL0     C72543   4.445   7.070   9.069  0.8608  0.4301 -0.5133
  538MOL0     C72544   4.581   7.075   9.036 -0.0495  0.2163 -0.1567
  538MOL0     N72545   4.924   7.542   9.061 -0.1630  0.5097  0.0434
  538MOL0     N72546   4.867   7.596   9.161  0.1398  1.0485  0.4353
  538MOL0     C72547   3.752   7.285   9.557 -0.0027  0.2784 -0.4166
  538MOL0     C72548   3.614   7.295   9.595  0.3614  0.6198  0.6995
  538MOL0     C72549   3.212   7.466   9.779 -0.6006  0.0867  0.1099
  538MOL0     C72550   3.149   7.566   9.860 -0.7435 -0.4078  0.3625
  538MOL0     C72551   3.025   7.544   9.920  0.2805  0.2751  0.3736
  538MOL0     C72552   2.960   7.423   9.908  0.7916  0.9745  0.3288
  538MOL0     O72553   2.846   7.394   9.986 -0.8016  0.0899  0.5361
  538MOL0     C72554   2.723   7.362   9.918 -1.4273  0.3345 -0.4620
  538MOL0     C72555   2.619   7.432  10.000 -0.5852 -1.1736 -0.3141
  538MOL0     C72556   2.593   7.583   9.965  0.1733  0.8044 -0.7018
  538MOL0     C72557   2.445   7.618   9.985 -0.9334  0.4454 -0.0311
  538MOL0     C72558   2.357   7.567   9.886 -0.3862  0.4715  1.2186
  538MOL0     C72559   2.278   7.517   9.810  0.0369 -0.7355  0.4915
  538MOL0     C72560   3.018   7.323   9.836 -1.7652  0.7881  1.8570
  538MOL0     C72561   3.137   7.347   9.762  0.4216  0.6602 -0.5736
  538MOL0     C72562   3.191   7.234   9.676  0.1007 -0.3541  0.3524
  538MOL0     H72563   3.569   7.620   9.570 -1.8627 -1.4595 -0.4236
  538MOL0     H72564   3.783   7.619   9.508 -1.2755  0.3479  0.4406
  538MOL0     H72565   4.050   7.229   9.521 -2.3629 -0.3854  1.3915
  538MOL0     H72566   3.946   7.236   9.380 -0.1509 -0.5006  0.0925
  538MOL0     H72567   4.123   7.399   9.277  0.1443 -0.6694  0.0240
  538MOL0     H72568   4.199   7.244   9.321  1.2445  0.2759 -0.2387
  538MOL0     H72569   4.239   7.359   9.549 -0.5387 -0.8000  0.0959
  538MOL0     H72570   4.213   7.511   9.445 -2.1710 -0.4033 -5.3265
  538MOL0     H72571   4.435   7.311   9.412 -1.5761 -0.6576  2.1047
  538MOL0     H72572   4.367   7.408   9.281 -2.0274 -1.3987 -0.3221
  538MOL0     H72573   4.467   7.617   9.376 -0.6614 -0.0298 -0.4329
  538MOL0     H72574   4.472   7.519   9.532 -1.6426  1.4604 -1.0767
  538MOL0     H72575   4.651   7.389   9.471 -2.1277  0.0035  0.7239
  538MOL0     H72576   4.652   7.443   9.299 -1.1093 -0.8835  0.4524
  538MOL0     H72577   4.729   7.622   9.542  2.4071 -2.4560  0.3099
  538MOL0     H72578   4.692   7.676   9.377 -1.8808 -0.6466  0.7754
  538MOL0     H72579   4.944   7.613   9.460  1.3533 -2.3959  2.5400
  538MOL0     H72580   4.882   7.449   9.467  0.5273 -0.0438 -0.1457
  538MOL0     H72581   5.060   7.358   9.295  0.4529  2.3650  2.1823
  538MOL0     H72582   5.116   7.384   8.922  0.1956 -0.8588  0.3854
  538MOL0     H72583   5.200   7.350   9.069  1.8088 -0.6747 -2.2706
  538MOL0     H72584   5.101   7.141   8.959 -0.2865 -0.6777 -0.9795
  538MOL0     H72585   5.077   7.172   9.135  0.0704  1.2116 -0.0710
  538MOL0     H72586   4.844   7.222   9.114 -2.0518 -0.8968 -0.5890
  538MOL0     H72587   4.874   7.070   9.040 -1.0856 -0.2064  1.8495
  538MOL0     H72588   4.882   7.256   8.812 -1.7514  0.0972 -0.6810
  538MOL0     H72589   4.764   7.331   8.921 -0.1330  0.2247  2.1914
  538MOL0     H72590   4.540   7.250   8.743 -0.1460 -1.6092 -1.4764
  538MOL0     H72591   4.296   7.239   8.802 -1.8593  0.6483  1.3148
  538MOL0     H72592   3.938   7.317   8.978  2.7484 -0.8762  0.9102
  538MOL0     H72593   3.725   7.299   9.079  1.8197  1.1624 -1.5106
  538MOL0     H72594   3.592   7.235   9.246 -0.6960 -0.1460  0.7699
  538MOL0     H72595   3.483   7.243   9.103 -0.4890 -0.5701 -0.8675
  538MOL0     H72596   3.442   7.071   9.355  0.3781 -0.0970  1.1050
  538MOL0     H72597   3.385   7.226   9.336 -2.4361 -1.4416  0.3020
  538MOL0     H72598   3.295   6.996   9.151 -2.9403 -3.7250  3.5488
  538MOL0     H72599   3.212   7.046   9.284  1.5216  2.2344  1.7555
  538MOL0     H72600   3.276   7.236   9.038  1.8003 -2.2362 -0.0444
  538MOL0     H72601   3.195   7.292   9.184 -0.8703  0.6023 -0.9247
  538MOL0     H72602   3.031   7.229   9.022  2.0676  1.6909 -1.7052
  538MOL0     H72603   3.033   7.102   9.150 -0.2019  1.4691 -0.1382
  538MOL0     H72604   3.183   7.083   8.892  0.3151  0.5372  0.3434
  538MOL0     H72605   3.125   6.956   9.010 -2.8092  0.0420  0.2767
  538MOL0     H72606   2.942   7.106   8.820 -0.4065  0.2508  0.5649
  538MOL0     H72607   2.898   6.985   8.944  2.0601  1.9677  3.4133
  538MOL0     H72608   3.037   6.813   8.822 -1.3494 -1.2114 -0.5966
  538MOL0     H72609   2.905   6.874   8.728 -0.7273 -1.5654  2.4005
  538MOL0     H72610   3.747   6.858   9.078 -0.1501 -0.2733 -2.2285
  538MOL0     H72611   3.989   6.898   8.998  0.4924  0.2596  0.5330
  538MOL0     H72612   4.428   7.004   9.153  0.9926 -1.5268 -1.9632
  538MOL0     H72613   4.660   7.017   9.084  0.5599  0.4104 -0.9030
  538MOL0     H72614   3.786   7.182   9.555 -1.5475 -0.3717  1.9016
  538MOL0     H72615   3.559   7.202   9.604  2.2428 -0.5334  0.8060
  538MOL0     H72616   3.188   7.664   9.887 -2.1027 -0.2121  1.7395
  538MOL0     H72617   2.975   7.613   9.987 -2.0275  1.5459 -2.4568
  538MOL0     H72618   2.694   7.257   9.934  3.1085 -0.9952  0.5832
  538MOL0     H72619   2.721   7.381   9.811 -1.7681 -2.2633 -0.9938
  538MOL0     H72620   2.649   7.428  10.105  0.9210  2.5966 -0.4484
  538MOL0     H72621   2.527   7.377   9.981 -1.7880  1.0398 -1.3522
  538MOL0     H72622   2.631   7.614   9.867  3.0104  1.5308  0.5301
  538MOL0     H72623   2.644   7.645  10.039 -3.3026  3.7824 -0.5128
  538MOL0     H72624   2.407   7.570  10.076 -1.4678  0.5801 -0.1767
  538MOL0     H72625   2.439   7.726  10.001  1.1740  0.5599  0.2482
  538MOL0     H72626   2.204   7.456   9.762 -1.8882  0.8845  1.2526
  538MOL0     H72627   2.965   7.229   9.824 -2.5150  1.2836  1.1752
  538MOL0     H72628   3.125   7.146   9.676  0.4711 -0.6351  0.2428
  538MOL0     H72629   3.190   7.265   9.571 -3.5081  0.5164  0.5181
  538MOL0     H72630   3.286   7.192   9.711  1.0820  0.6411 -0.9814
  539MOL0     O72631   5.715   1.657   2.867 -0.6293 -0.6051  0.7153
  539MOL0     C72632   5.610   1.698   2.920 -0.0118 -0.1088  0.2205
  539MOL0     O72633   5.597   1.818   2.974 -0.0886  0.3886 -0.8132
  539MOL0     C72634   5.709   1.900   2.962  0.7020  0.1888 -0.9391
  539MOL0     C72635   5.766   1.923   2.834 -0.0179  0.1673  0.4858
  539MOL0     C72636   5.886   1.999   2.834  0.1286 -0.0909 -0.2352
  539MOL0     C72637   5.948   2.047   2.945  0.2725  0.2870 -0.1367
  539MOL0     O72638   6.075   2.102   2.932  0.4193  0.1370  0.1012
  539MOL0     C72639   6.172   2.049   3.029  0.3730  0.4414  0.0490
  539MOL0     C72640   6.244   1.923   2.976  0.2238  0.0814 -0.2117
  539MOL0     C72641   6.345   1.873   3.079  0.6639 -0.7368  0.4517
  539MOL0     C72642   6.490   1.914   3.058 -0.6268  0.0610  0.1893
  539MOL0     C72643   6.582   1.917   3.183 -0.1086 -0.8332 -0.0494
  539MOL0     C72644   6.707   2.012   3.159 -0.4166 -0.4444 -0.8231
  539MOL0     C72645   6.802   2.033   3.281 -0.1076 -0.7913  0.5544
  539MOL0     C72646   6.869   2.168   3.276  1.2102 -0.4247 -0.5741
  539MOL0     N72647   6.793   2.280   3.334  0.2917  0.3618  0.0362
  539MOL0     C72648   6.691   2.353   3.276 -0.2920 -0.3095  0.4857
  539MOL0     C72649   6.658   2.441   3.373 -0.0136 -0.3431  0.4058
  539MOL0     C72650   6.532   2.527   3.367  0.2119 -0.2426  0.2721
  539MOL0     C72651   6.583   2.675   3.365 -0.3657  0.9805 -0.0449
  539MOL0     C72652   6.461   2.764   3.365 -0.8382  0.5625  0.3163
  539MOL0     C72653   6.401   2.776   3.508  0.8191  0.2633 -0.6926
  539MOL0     O72654   6.499   2.852   3.564  0.7802 -0.3266  0.0259
  539MOL0     C72655   6.466   2.912   3.678 -0.5700  0.0953  0.0359
  539MOL0     C72656   6.344   2.949   3.729  0.4193 -0.4802 -0.0164
  539MOL0     C72657   6.326   2.995   3.857 -0.0785 -0.4267  0.3364
  539MOL0     C72658   6.433   2.994   3.948 -0.2414 -0.4126  0.2590
  539MOL0     C72659   6.425   3.062   4.078 -0.1699  0.4973  1.4232
  539MOL0     O72660   6.539   3.082   4.152 -0.0630  0.1999  0.0208
  539MOL0     C72661   6.525   3.175   4.250 -0.2285  0.2984 -0.0328
  539MOL0     C72662   6.589   3.292   4.245  0.3827  0.3840  0.1070
  539MOL0     C72663   6.553   3.397   4.331  0.1424  0.4413  0.3062
  539MOL0     C72664   6.474   3.377   4.454 -0.4421  0.8903 -0.0008
  539MOL0     O72665   6.461   3.470   4.553  0.5263  0.4477 -0.5721
  539MOL0     C72666   6.331   3.510   4.594 -0.4514  0.0234 -0.5741
  539MOL0     C72667   6.289   3.631   4.522  0.6152 -0.7932  0.4805
  539MOL0     C72668   6.218   3.594   4.381 -0.3845 -0.7606 -0.2458
  539MOL0     C72669   6.134   3.714   4.335  0.4696  0.3067 -0.1734
  539MOL0     C72670   6.211   3.842   4.288  0.3429 -1.1790  0.4696
  539MOL0     C72671   6.104   3.955   4.259  0.0292  0.0363 -1.5367
  539MOL0     C72672   6.176   4.072   4.183 -0.3051 -0.2449 -0.2282
  539MOL0     C72673   6.106   4.213   4.190 -0.3756  0.1164  0.1440
  539MOL0    Cl72674   6.208   4.325   4.101 -0.2526 -0.1250 -0.3676
  539MOL0     C72675   6.437   3.245   4.470 -0.1569  0.2910  0.3001
  539MOL0     C72676   6.459   3.150   4.370 -0.8231 -0.6042 -0.0201
  539MOL0     O72677   6.315   3.096   4.113  0.2171 -0.7780  0.7119
  539MOL0     C72678   6.561   2.957   3.898 -0.4540  0.1596 -0.4300
  539MOL0     C72679   6.576   2.910   3.769 -0.0312  0.0422 -0.3002
  539MOL0     N72680   6.733   2.430   3.492 -0.0387  0.9284  0.0563
  539MOL0     N72681   6.821   2.344   3.453  1.3007  0.6622 -0.7374
  539MOL0     C72682   5.883   2.036   3.069  0.7333  0.8859  0.6858
  539MOL0     C72683   5.759   1.968   3.075  0.2500  0.1293 -0.8181
  539MOL0     C72684   5.493   1.613   2.917  0.3737 -0.1181 -0.2220
  539MOL0     C72685   5.405   1.606   3.028  0.1377  0.5326  0.0846
  539MOL0     C72686   5.301   1.514   3.029 -0.2635  0.4965  0.3645
  539MOL0     C72687   5.256   1.449   2.915  0.4353 -0.9094  0.0944
  539MOL0     O72688   5.140   1.371   2.903  0.1206 -0.4820 -0.3704
  539MOL0     C72689   5.072   1.320   3.018 -0.1391  0.2818  0.2003
  539MOL0     C72690   5.142   1.204   3.088 -0.4196  0.5311 -0.0653
  539MOL0     C72691   5.063   1.153   3.218 -0.2639 -0.1033 -0.4318
  539MOL0     C72692   4.918   1.113   3.190  0.6949  0.0753  0.5911
  539MOL0     C72693   4.873   1.040   3.302  0.2303 -0.1099 -1.1985
  539MOL0     C72694   4.831   0.958   3.382 -0.5128  0.1649 -0.1686
  539MOL0     C72695   5.336   1.452   2.798  0.4752  0.2846  0.2975
  539MOL0     C72696   5.457   1.544   2.799  0.0554 -0.1184  0.1966
  539MOL0     C72697   5.552   1.545   2.675  0.7949  0.2915  0.7035
  539MOL0     H72698   5.727   1.887   2.739  2.1747 -1.5996  0.1585
  539MOL0     H72699   5.930   2.017   2.737  1.1019  3.3716  0.6952
  539MOL0     H72700   6.248   2.125   3.050 -4.3659  6.0673 -0.5909
  539MOL0     H72701   6.132   2.029   3.129  3.5523  1.9757  1.7797
  539MOL0     H72702   6.279   1.939   2.873  1.6193 -0.9976  0.0692
  539MOL0     H72703   6.172   1.844   2.951  0.9960 -0.2164 -1.6670
  539MOL0     H72704   6.354   1.764   3.080  2.2986 -0.6252  1.3347
  539MOL0     H72705   6.311   1.915   3.174 -1.4514 -0.1123 -0.4977
  539MOL0     H72706   6.530   1.861   2.971 -2.9692 -0.7049 -0.4929
  539MOL0     H72707   6.481   2.018   3.025 -3.2502  0.2110  1.1470
  539MOL0     H72708   6.521   1.960   3.263  0.9426  5.4977 -2.1473
  539MOL0     H72709   6.616   1.819   3.219 -1.3173 -1.4670 -0.5588
  539MOL0     H72710   6.767   1.980   3.072  2.4135 -0.5973  1.0408
  539MOL0     H72711   6.666   2.107   3.127  1.9739  0.1469 -2.4082
  539MOL0     H72712   6.876   1.953   3.272  0.0290 -0.8056  1.6229
  539MOL0     H72713   6.762   2.027   3.383  1.8696 -1.3733  1.3386
  539MOL0     H72714   6.965   2.175   3.329  0.7295 -1.4393  0.4825
  539MOL0     H72715   6.891   2.191   3.171  0.7075 -0.0942 -0.6089
  539MOL0     H72716   6.644   2.330   3.182  2.9417  1.9929 -1.9094
  539MOL0     H72717   6.474   2.502   3.277 -0.1925 -0.5295  0.6060
  539MOL0     H72718   6.469   2.493   3.450  0.9300  2.2049  1.9058
  539MOL0     H72719   6.646   2.674   3.454 -2.3188 -2.4420  1.5466
  539MOL0     H72720   6.655   2.689   3.284  1.8226  0.6696  1.7392
  539MOL0     H72721   6.382   2.741   3.293 -2.7656 -0.5820  2.6960
  539MOL0     H72722   6.509   2.859   3.338  1.8687 -0.3879  1.3834
  539MOL0     H72723   6.370   2.681   3.551  0.6756 -0.2491 -1.9095
  539MOL0     H72724   6.309   2.835   3.500 -0.8144 -2.2047 -1.2856
  539MOL0     H72725   6.263   2.956   3.657  1.1058 -0.3702 -0.7960
  539MOL0     H72726   6.228   3.036   3.880  0.4874 -0.0787  2.3071
  539MOL0     H72727   6.656   3.311   4.162  1.9066 -2.7749  0.4698
  539MOL0     H72728   6.590   3.495   4.302  3.0533 -0.4325  0.7342
  539MOL0     H72729   6.268   3.423   4.575  0.5843 -1.0365  0.7099
  539MOL0     H72730   6.329   3.535   4.700  2.2039  0.3650 -0.5331
  539MOL0     H72731   6.222   3.685   4.589  0.1144 -1.6210  0.6535
  539MOL0     H72732   6.379   3.693   4.517 -0.2414  0.5184  0.9211
  539MOL0     H72733   6.304   3.568   4.318  0.9105  1.5298  0.4708
  539MOL0     H72734   6.147   3.512   4.393 -4.4214  1.9262 -3.1318
  539MOL0     H72735   6.064   3.745   4.413  1.3929  0.8800  0.4424
  539MOL0     H72736   6.077   3.674   4.251  0.4053 -1.8785  0.8338
  539MOL0     H72737   6.267   3.824   4.197  0.6174 -1.5300  0.7067
  539MOL0     H72738   6.282   3.886   4.359  2.0491  0.0827 -1.9002
  539MOL0     H72739   6.021   3.918   4.198 -1.2686 -0.2407  0.3167
  539MOL0     H72740   6.057   3.985   4.353  0.1603 -0.1486 -1.4116
  539MOL0     H72741   6.183   4.044   4.077 -2.0895 -2.1434  0.0847
  539MOL0     H72742   6.266   4.099   4.239  0.6777 -1.3258 -1.2249
  539MOL0     H72743   6.009   4.208   4.141 -0.4782 -3.0881  0.4560
  539MOL0     H72744   6.075   4.242   4.290 -1.0931  0.3927 -0.1538
  539MOL0     H72745   6.386   3.209   4.558 -0.9730 -2.2197 -1.0951
  539MOL0     H72746   6.413   3.058   4.403  2.5203 -1.8103  1.7217
  539MOL0     H72747   6.648   2.963   3.963  2.3083  2.3706 -3.9521
  539MOL0     H72748   6.680   2.890   3.744  0.0362 -0.1598  0.1320
  539MOL0     H72749   5.919   2.081   3.160  1.0349  0.7117  0.6519
  539MOL0     H72750   5.715   1.948   3.173  0.4685  0.3119 -0.6847
  539MOL0     H72751   5.418   1.671   3.113  1.8232  1.9631 -1.1941
  539MOL0     H72752   5.229   1.516   3.111 -2.6000 -0.5637 -1.5229
  539MOL0     H72753   4.971   1.292   2.985  0.2813 -0.8004 -0.2130
  539MOL0     H72754   5.066   1.402   3.091 -2.7224 -1.9563  2.7950
  539MOL0     H72755   5.239   1.236   3.127  0.2043  0.9465 -1.8564
  539MOL0     H72756   5.169   1.118   3.026  2.9716 -0.8148  2.9233
  539MOL0     H72757   5.058   1.240   3.285 -2.0570 -1.5012  1.3713
  539MOL0     H72758   5.110   1.077   3.281 -0.1415 -0.5657 -1.0738
  539MOL0     H72759   4.855   1.199   3.166  0.2455 -1.1101 -3.1156
  539MOL0     H72760   4.906   1.051   3.100  0.5873 -2.1541  2.0720
  539MOL0     H72761   4.798   0.895   3.462  0.2304  0.2118  0.1887
  539MOL0     H72762   5.310   1.403   2.705  1.9242  0.9080 -0.4720
  539MOL0     H72763   5.609   1.453   2.671  2.1902  1.1653 -0.3946
  539MOL0     H72764   5.478   1.539   2.595 -2.0725  2.0245  2.9900
  539MOL0     H72765   5.613   1.634   2.654 -0.7222  1.3253  0.4798
  540MOL0     O72766   6.418  10.823   9.073  0.1191 -0.3453  0.1225
  540MOL0     C72767   6.417  10.718   9.137  0.1610  0.0258  0.4647
  540MOL0     O72768   6.319  10.629   9.132  0.2832  0.1079  0.0965
  540MOL0     C72769   6.188  10.652   9.080  0.8119 -0.6446  0.8032
  540MOL0     C72770   6.146  10.758   8.992  0.1645 -0.5347 -0.4787
  540MOL0     C72771   6.022  10.760   8.934 -0.2637 -0.8145 -0.3920
  540MOL0     C72772   5.930  10.662   8.954 -0.1140 -0.1289  0.3532
  540MOL0     O72773   5.803  10.658   8.905  0.1468  0.2020  0.1092
  540MOL0     C72774   5.753  10.776   8.833  1.2716  0.7756 -0.7503
  540MOL0     C72775   5.605  10.774   8.826  1.0556  0.7002 -0.1246
  540MOL0     C72776   5.542  10.639   8.773 -0.1328  0.2898 -0.2130
  540MOL0     C72777   5.526  10.645   8.622 -0.3379  0.4910 -0.6608
  540MOL0     C72778   5.472  10.520   8.563  0.4840  0.0644 -0.3553
  540MOL0     C72779   5.555  10.398   8.591  0.3403  0.0651  0.1294
  540MOL0     C72780   5.522  10.269   8.501 -0.4685 -0.7951 -0.4644
  540MOL0     C72781   5.561  10.298   8.363  0.7042 -0.0800 -0.0360
  540MOL0     N72782   5.700  10.324   8.330 -0.4581 -0.0474 -0.9283
  540MOL0     C72783   5.780  10.438   8.352  0.3687 -0.1211 -0.5991
  540MOL0     C72784   5.907  10.402   8.326 -0.3454  0.3178  0.3666
  540MOL0     C72785   6.020  10.502   8.346  0.6370  0.0424 -0.2110
  540MOL0     C72786   6.090  10.481   8.479  0.1421  0.4432  0.2667
  540MOL0     C72787   6.241  10.523   8.487 -0.3828  0.2141 -0.1276
  540MOL0     C72788   6.278  10.499   8.638  0.0992  1.0337  0.2132
  540MOL0     O72789   6.421  10.488   8.646 -0.1525  1.0710  0.2572
  540MOL0     C72790   6.491  10.446   8.753 -0.3238  1.3128 -0.6034
  540MOL0     C72791   6.630  10.432   8.746  0.7028 -0.0478 -0.7146
  540MOL0     C72792   6.704  10.373   8.852  0.1065 -0.2848  0.4243
  540MOL0     C72793   6.644  10.347   8.977 -0.0162 -0.0583  0.6531
  540MOL0     C72794   6.709  10.316   9.102  0.3770  0.2765  0.2069
  540MOL0     O72795   6.636  10.316   9.221 -0.2480 -0.5045  0.0823
  540MOL0     C72796   6.705  10.283   9.326 -0.1493  0.3281 -0.3403
  540MOL0     C72797   6.667  10.163   9.401  0.7095 -0.5057 -0.2577
  540MOL0     C72798   6.747  10.106   9.502  1.0595  0.1531 -0.6019
  540MOL0     C72799   6.854  10.175   9.556  0.4731  0.9921  0.3814
  540MOL0     O72800   6.905  10.109   9.665 -0.3131 -0.4998 -0.1755
  540MOL0     C72801   7.037  10.136   9.723 -0.5763  0.9959 -0.1843
  540MOL0     C72802   7.037  10.074   9.865 -0.3617  1.1278 -0.1596
  540MOL0     C72803   7.169  10.105   9.920 -0.0614 -0.1835 -0.6847
  540MOL0     C72804   7.174  10.108  10.078 -0.8571 -1.0192 -0.1166
  540MOL0     C72805   7.310  10.115  10.138  0.9538 -0.5201  0.1688
  540MOL0     C72806   7.320  10.132  10.291  0.3337 -0.0745 -1.1326
  540MOL0     C72807   7.312  10.006  10.368 -0.2328  0.1048 -1.1876
  540MOL0     C72808   7.344  10.017  10.517 -0.1973  0.1290 -0.9676
  540MOL0    Cl72809   7.323   9.852  10.596 -0.1230  0.4866  0.0194
  540MOL0     C72810   6.898  10.294   9.487  0.7874 -0.0716 -0.0372
  540MOL0     C72811   6.822  10.349   9.380  0.5529  0.1001 -0.0421
  540MOL0     O72812   6.830  10.301   9.091 -0.1317 -0.6534 -0.2648
  540MOL0     C72813   6.507  10.384   8.987  0.0290  0.2133 -0.0952
  540MOL0     C72814   6.433  10.419   8.877  0.5078  0.3010 -0.5803
  540MOL0     N72815   5.905  10.275   8.282  0.9334 -0.2605  0.2423
  540MOL0     N72816   5.782  10.234   8.279  0.6829 -0.0465  0.4450
  540MOL0     C72817   5.970  10.563   9.048  0.2227 -0.1355 -0.9914
  540MOL0     C72818   6.097  10.561   9.107 -0.1835 -0.1364 -0.3084
  540MOL0     C72819   6.511  10.696   9.240 -1.0701 -0.3845 -0.3590
  540MOL0     C72820   6.491  10.595   9.338 -0.1477  0.4672  0.3780
  540MOL0     C72821   6.580  10.571   9.442  0.7478  0.4593  0.6513
  540MOL0     C72822   6.693  10.650   9.458  0.5334 -0.4147  0.0905
  540MOL0     O72823   6.775  10.609   9.563  0.6178 -0.0773  0.1236
  540MOL0     C72824   6.865  10.710   9.613 -0.5441 -0.0757  0.3033
  540MOL0     C72825   7.004  10.677   9.559 -0.6383 -0.1611 -0.6606
  540MOL0     C72826   7.115  10.758   9.630  0.5707  0.0202  0.5097
  540MOL0     C72827   7.238  10.675   9.635 -0.0814  0.5738  0.2442
  540MOL0     C72828   7.235  10.577   9.744 -0.2996 -0.2861 -0.2163
  540MOL0     C72829   7.222  10.489   9.824 -0.1804  0.6768  0.5887
  540MOL0     C72830   6.717  10.748   9.359  0.7240  0.3375 -0.5898
  540MOL0     C72831   6.630  10.775   9.253 -0.1946 -0.2473  0.3488
  540MOL0     C72832   6.681  10.878   9.150 -0.2535 -0.4575  0.5798
  540MOL0     H72833   6.219  10.829   8.955 -0.0635  0.0018  0.0800
  540MOL0     H72834   5.999  10.841   8.865  1.3293 -2.2599 -2.7729
  540MOL0     H72835   5.788  10.875   8.864 -2.1373  2.4812 -1.9496
  540MOL0     H72836   5.793  10.781   8.732  2.5232  2.7975 -0.2088
  540MOL0     H72837   5.567  10.856   8.765  0.9448 -1.3780 -3.0830
  540MOL0     H72838   5.579  10.775   8.932  1.9171  1.2659  0.0850
  540MOL0     H72839   5.440  10.631   8.810  0.0702  3.3944  1.2767
  540MOL0     H72840   5.598  10.550   8.805 -3.0411 -2.7336 -2.8766
  540MOL0     H72841   5.469  10.733   8.591  0.4397  0.4391 -2.3131
  540MOL0     H72842   5.626  10.664   8.582  1.6065 -3.0396  1.9465
  540MOL0     H72843   5.369  10.491   8.588  0.1692 -0.0395 -1.7220
  540MOL0     H72844   5.461  10.532   8.455  0.6438 -1.0898 -0.5124
  540MOL0     H72845   5.662  10.422   8.586  0.4658 -0.7319 -3.4498
  540MOL0     H72846   5.540  10.375   8.697  3.0194  0.6687  0.7121
  540MOL0     H72847   5.413  10.270   8.493 -0.5857  1.3619  0.8236
  540MOL0     H72848   5.553  10.170   8.537 -1.2270 -1.8916 -2.5972
  540MOL0     H72849   5.546  10.201   8.314  4.1840  0.2603 -2.1048
  540MOL0     H72850   5.510  10.383   8.316  0.4638  0.7500  1.6442
  540MOL0     H72851   5.747  10.531   8.399  4.0483  0.6485  0.7905
  540MOL0     H72852   6.085  10.469   8.265  1.4290 -1.6234  1.0422
  540MOL0     H72853   5.989  10.606   8.333 -2.7939 -0.8935 -0.6020
  540MOL0     H72854   6.028  10.530   8.554  0.2790  0.2830  0.4816
  540MOL0     H72855   6.089  10.373   8.493 -0.1215  0.4698  0.4655
  540MOL0     H72856   6.251  10.632   8.481  0.9018  0.1607  0.6288
  540MOL0     H72857   6.303  10.463   8.420  0.9144  0.9728  0.3507
  540MOL0     H72858   6.238  10.407   8.683 -0.1692  1.7438  1.4550
  540MOL0     H72859   6.246  10.586   8.696  0.7969  1.1016  0.5094
  540MOL0     H72860   6.679  10.450   8.651  2.0601 -0.7261 -0.1633
  540MOL0     H72861   6.812  10.378   8.840 -0.1726 -0.2999 -3.3775
  540MOL0     H72862   6.571  10.117   9.380  0.2441 -1.0315  2.5762
  540MOL0     H72863   6.708  10.015   9.547  2.3633 -0.2848 -0.2987
  540MOL0     H72864   7.117  10.088   9.665 -0.8539 -1.1162  1.0777
  540MOL0     H72865   7.053  10.244   9.728  0.3392  0.8239  1.3265
  540MOL0     H72866   6.957  10.129   9.916 -0.3160 -1.0483  2.4524
  540MOL0     H72867   7.014   9.967   9.859  0.2350  1.0453 -1.4798
  540MOL0     H72868   7.228  10.022   9.880 -0.2489 -0.5802 -0.1496
  540MOL0     H72869   7.207  10.203   9.888 -0.2812 -1.3379 -5.0286
  540MOL0     H72870   7.118  10.027  10.127 -0.2752  0.5759  3.5637
  540MOL0     H72871   7.117  10.199  10.099 -0.4895 -0.5270 -1.2259
  540MOL0     H72872   7.354  10.203  10.089  1.6795 -0.5675  0.7035
  540MOL0     H72873   7.367  10.024  10.119  0.4173 -1.4565  2.6358
  540MOL0     H72874   7.422  10.169  10.305  1.3399 -0.9810 -4.9992
  540MOL0     H72875   7.251  10.213  10.318 -1.3493 -2.1478  1.2297
  540MOL0     H72876   7.383   9.937  10.321  0.0379 -0.5316  0.1012
  540MOL0     H72877   7.209   9.976  10.347  0.1413 -3.3334  1.1029
  540MOL0     H72878   7.445  10.053  10.534 -1.1014  2.5166 -0.2407
  540MOL0     H72879   7.270  10.084  10.563 -1.2374  0.2165 -2.6642
  540MOL0     H72880   6.991  10.341   9.516  0.9973 -0.2127 -0.4866
  540MOL0     H72881   6.870  10.433   9.330 -0.7654  1.2374  0.5614
  540MOL0     H72882   6.459  10.376   9.084 -1.4975 -1.0393 -0.9208
  540MOL0     H72883   6.326  10.427   8.892  0.1122 -1.4876 -2.0255
  540MOL0     H72884   5.897  10.488   9.077  2.0536 -1.2868  0.9605
  540MOL0     H72885   6.109  10.486   9.184 -0.2500  0.8864  0.7249
  540MOL0     H72886   6.407  10.525   9.346  0.0702  0.0273 -0.9841
  540MOL0     H72887   6.557  10.496   9.516  0.5204  1.3140  1.4689
  540MOL0     H72888   6.867  10.710   9.722 -1.4920  2.0991  0.3720
  540MOL0     H72889   6.830  10.809   9.586 -1.0184  0.1201  1.5604
  540MOL0     H72890   7.009  10.697   9.452  2.2488 -0.6110 -0.6877
  540MOL0     H72891   7.015  10.571   9.582 -2.7904 -0.1507  0.7110
  540MOL0     H72892   7.087  10.780   9.734  3.3217 -4.1972  2.4222
  540MOL0     H72893   7.124  10.851   9.572 -0.7139  0.0850  0.3963
  540MOL0     H72894   7.245  10.620   9.541  0.1533  1.8134 -0.4924
  540MOL0     H72895   7.319  10.749   9.642 -0.5450  0.9423  2.2254
  540MOL0     H72896   7.227  10.402   9.885  3.0771  0.1368 -0.2620
  540MOL0     H72897   6.807  10.808   9.372  0.9484  0.8957 -3.8375
  540MOL0     H72898   6.614  10.962   9.128  2.2057  1.4173 -0.2133
  540MOL0     H72899   6.769  10.932   9.187 -0.5614 -0.3892  1.2171
  540MOL0     H72900   6.707  10.825   9.058  0.2905  0.1000  0.4026
  541MOL0     O72901   7.627   0.855   1.625  1.0221 -0.4501  0.8767
  541MOL0     C72902   7.545   0.758   1.634 -1.0330  0.9420 -0.0214
  541MOL0     O72903   7.411   0.751   1.602  0.1028  0.1719  0.0551
  541MOL0     C72904   7.359   0.832   1.503 -0.3233  0.5776 -0.3763
  541MOL0     C72905   7.256   0.777   1.428  0.0797 -0.2031 -0.8642
  541MOL0     C72906   7.208   0.847   1.312  0.3574 -0.3070  0.8364
  541MOL0     C72907   7.264   0.968   1.269 -0.0474  0.2131 -0.2211
  541MOL0     O72908   7.212   1.036   1.163  0.1568 -0.3138  0.9685
  541MOL0     C72909   7.322   1.059   1.074  0.3684  0.6013 -0.2463
  541MOL0     C72910   7.264   1.133   0.955  0.1247  0.1496 -0.1778
  541MOL0     C72911   7.250   1.288   0.991  0.1075 -0.0722  0.1177
  541MOL0     C72912   7.386   1.357   1.008 -0.2188 -0.3933 -0.0620
  541MOL0     C72913   7.388   1.512   0.980  0.8355  0.0463  1.1456
  541MOL0     C72914   7.533   1.572   0.980  0.7580  0.3894 -0.0754
  541MOL0     C72915   7.554   1.721   0.947  0.4747  0.9121 -0.1214
  541MOL0     C72916   7.452   1.819   1.021  0.4555 -0.4568  0.2047
  541MOL0     N72917   7.487   1.842   1.168  0.8125  0.1994  0.1319
  541MOL0     C72918   7.465   1.969   1.209  0.9023  0.4209 -0.2044
  541MOL0     C72919   7.477   1.968   1.343  0.5170  0.1558  0.6294
  541MOL0     C72920   7.461   2.089   1.438 -0.3284  0.8884 -0.0609
  541MOL0     C72921   7.319   2.083   1.490  0.8209 -0.4979  0.1695
  541MOL0     C72922   7.272   1.950   1.556 -0.4604 -0.1227 -1.1033
  541MOL0     C72923   7.149   1.952   1.651  0.3021  0.2270 -0.3474
  541MOL0     O72924   7.061   2.042   1.578 -0.0033  0.3137 -0.4388
  541MOL0     C72925   6.934   2.048   1.626 -0.1956  0.4028 -0.1304
  541MOL0     C72926   6.841   2.113   1.545  0.2979  0.2427 -0.4051
  541MOL0     C72927   6.705   2.115   1.574  0.1981  0.0639 -0.7028
  541MOL0     C72928   6.665   2.053   1.695  0.1824  1.0042  1.0203
  541MOL0     C72929   6.525   2.051   1.726  0.2156  1.4015  0.3230
  541MOL0     O72930   6.437   2.044   1.623  0.4957 -0.1715  0.2398
  541MOL0     C72931   6.301   2.045   1.663 -1.5299 -0.7688  0.4866
  541MOL0     C72932   6.233   1.946   1.726  1.0731  0.5821 -0.6859
  541MOL0     C72933   6.103   1.966   1.760 -1.0150 -0.9439  0.5646
  541MOL0     C72934   6.038   2.082   1.740  0.3216  0.7235 -0.1188
  541MOL0     O72935   5.913   2.101   1.802 -0.1106  0.2312  0.3793
  541MOL0     C72936   5.873   2.232   1.846 -0.1483  0.1403 -0.0971
  541MOL0     C72937   5.764   2.206   1.944 -0.4951  1.0239 -0.3776
  541MOL0     C72938   5.697   2.334   2.007  1.1964 -0.1732  0.6719
  541MOL0     C72939   5.617   2.412   1.895  0.2568 -0.3945 -0.0467
  541MOL0     C72940   5.581   2.548   1.963 -0.1534  0.8096  0.2365
  541MOL0     C72941   5.506   2.635   1.860 -0.8943 -0.0219 -0.3748
  541MOL0     C72942   5.433   2.751   1.929  0.4611  0.6640 -0.4755
  541MOL0     C72943   5.407   2.861   1.831 -0.1059 -0.0105  0.1553
  541MOL0    Cl72944   5.280   2.969   1.902  0.5212  0.0810 -0.4428
  541MOL0     C72945   6.097   2.175   1.656 -0.3892 -0.6080 -0.7780
  541MOL0     C72946   6.232   2.165   1.624  1.0265  0.1828  0.3599
  541MOL0     O72947   6.493   2.058   1.848  0.1541 -0.1227 -0.6710
  541MOL0     C72948   6.756   1.986   1.780 -0.4258  0.1420  0.3408
  541MOL0     C72949   6.888   1.974   1.741 -0.0590 -0.5776 -0.4331
  541MOL0     N72950   7.520   1.843   1.382  0.4263  0.1841 -0.1959
  541MOL0     N72951   7.520   1.768   1.279 -0.3329  0.3695  0.0301
  541MOL0     C72952   7.362   1.019   1.353  0.5517 -0.0080 -0.4480
  541MOL0     C72953   7.408   0.956   1.465  0.6086  0.5619 -0.9303
  541MOL0     C72954   7.609   0.625   1.666  1.1549  0.4732  0.1741
  541MOL0     C72955   7.748   0.606   1.653 -0.3795  0.2148  0.9252
  541MOL0     C72956   7.818   0.486   1.663  0.0652 -0.2473 -1.3716
  541MOL0     C72957   7.748   0.380   1.690  0.0249  0.1306  0.9003
  541MOL0     O72958   7.821   0.266   1.685  0.1319 -0.0366 -0.9308
  541MOL0     C72959   7.773   0.154   1.742 -0.1571  0.2444 -0.6363
  541MOL0     C72960   7.700   0.076   1.630 -0.2181 -0.3790  0.4430
  541MOL0     C72961   7.799   0.010   1.542 -0.6495  0.3445  0.4706
  541MOL0     C72962   7.726  -0.042   1.419 -0.1215 -0.0264 -0.1116
  541MOL0     C72963   7.639  -0.162   1.437 -0.0056 -0.5667  0.2337
  541MOL0     C72964   7.565  -0.261   1.438 -0.5879 -0.2024 -0.7808
  541MOL0     C72965   7.611   0.392   1.723  0.6100 -0.1474 -0.3275
  541MOL0     C72966   7.535   0.511   1.720 -0.0726  0.5536 -0.0146
  541MOL0     C72967   7.391   0.504   1.768 -0.2353 -0.9563  0.2600
  541MOL0     H72968   7.221   0.679   1.457  2.0601 -0.9652 -0.9251
  541MOL0     H72969   7.133   0.795   1.252  0.8043  0.4931 -0.4494
  541MOL0     H72970   7.404   1.106   1.129  0.5607 -2.8042  2.8024
  541MOL0     H72971   7.354   0.962   1.033  0.4055  0.2567  0.5682
  541MOL0     H72972   7.167   1.091   0.926 -0.1369  0.8158 -0.2834
  541MOL0     H72973   7.320   1.111   0.863  2.0919  0.7577  0.8082
  541MOL0     H72974   7.191   1.302   1.081  0.6235  0.7246  0.3520
  541MOL0     H72975   7.199   1.346   0.913  0.5138  0.7337  0.4335
  541MOL0     H72976   7.421   1.335   1.110  1.4404  2.6913  0.1658
  541MOL0     H72977   7.457   1.307   0.942  0.0917  0.4771 -0.3981
  541MOL0     H72978   7.333   1.516   0.886 -1.0555 -0.2365  2.2046
  541MOL0     H72979   7.319   1.555   1.053 -1.8956 -0.4134 -1.0292
  541MOL0     H72980   7.582   1.555   1.076  0.4748 -2.6559 -0.3995
  541MOL0     H72981   7.580   1.522   0.895 -0.5501  0.6030 -0.9587
  541MOL0     H72982   7.534   1.733   0.840  0.3136 -3.9640 -0.8522
  541MOL0     H72983   7.659   1.747   0.961  1.0495  0.6754 -3.3382
  541MOL0     H72984   7.459   1.911   0.964 -1.6050 -0.5884 -0.3392
  541MOL0     H72985   7.348   1.786   1.023  0.5117 -0.7175  2.4963
  541MOL0     H72986   7.442   2.058   1.151 -0.0697  0.9468  0.9451
  541MOL0     H72987   7.528   2.081   1.524  2.8631 -2.2921 -2.5499
  541MOL0     H72988   7.484   2.181   1.384  1.0338 -0.7796 -2.5445
  541MOL0     H72989   7.305   2.169   1.557  0.7872 -2.8360  3.4287
  541MOL0     H72990   7.267   2.089   1.394  2.7142  1.3542 -0.8276
  541MOL0     H72991   7.357   1.924   1.620 -1.9726  0.3106  1.2047
  541MOL0     H72992   7.256   1.880   1.473 -0.1577  2.0142 -3.0537
  541MOL0     H72993   7.189   1.986   1.747 -0.3415 -1.0540  0.4018
  541MOL0     H72994   7.110   1.852   1.669  2.4635 -0.6548 -0.2560
  541MOL0     H72995   6.874   2.140   1.445  1.7549  0.4021  0.0862
  541MOL0     H72996   6.642   2.158   1.496  2.6614 -1.5420 -3.7886
  541MOL0     H72997   6.281   1.855   1.761 -0.2044 -0.1745 -0.8090
  541MOL0     H72998   6.045   1.900   1.824 -1.7783 -0.1058  0.7491
  541MOL0     H72999   5.956   2.298   1.874  0.2758 -0.4037 -0.0478
  541MOL0     H73000   5.824   2.288   1.765 -2.6066  0.5482  1.5809
  541MOL0     H73001   5.686   2.133   1.918  1.5142 -2.5642  2.6615
  541MOL0     H73002   5.819   2.160   2.026 -2.5201  1.2452  1.2030
  541MOL0     H73003   5.624   2.300   2.080 -2.6837  2.8518 -1.4463
  541MOL0     H73004   5.767   2.403   2.055 -1.1076  0.5479  3.2234
  541MOL0     H73005   5.527   2.358   1.867 -1.1241  1.6902  0.1120
  541MOL0     H73006   5.679   2.447   1.811 -1.8132  1.8068 -0.7715
  541MOL0     H73007   5.671   2.595   2.005  0.2118 -0.3289  0.7560
  541MOL0     H73008   5.524   2.536   2.055  2.7468  2.1664  2.3818
  541MOL0     H73009   5.581   2.667   1.787  1.7085 -0.1936  2.0559
  541MOL0     H73010   5.421   2.578   1.821 -2.5229  0.4453  2.2410
  541MOL0     H73011   5.488   2.792   2.014  1.5031  1.6251 -1.5745
  541MOL0     H73012   5.338   2.706   1.958 -0.5934  2.3925 -1.0871
  541MOL0     H73013   5.493   2.927   1.821 -0.4264  0.8097  2.1626
  541MOL0     H73014   5.379   2.824   1.732 -2.4599  3.5409 -0.7172
  541MOL0     H73015   6.043   2.261   1.618  1.7940  0.1479 -2.3482
  541MOL0     H73016   6.280   2.239   1.560  1.2282  1.3251  1.7678
  541MOL0     H73017   6.727   1.939   1.874  0.6821  0.5767  0.9200
  541MOL0     H73018   6.959   1.916   1.798  1.2975 -0.7737 -2.2297
  541MOL0     H73019   7.394   1.123   1.347 -0.5043  0.2892 -1.1053
  541MOL0     H73020   7.480   1.009   1.526  1.2954 -0.2171 -1.0376
  541MOL0     H73021   7.801   0.689   1.609 -0.6597  1.2031  2.3848
  541MOL0     H73022   7.922   0.480   1.630  0.7672 -1.7262  0.8254
  541MOL0     H73023   7.711   0.167   1.831  1.3880  2.4442  0.1977
  541MOL0     H73024   7.855   0.100   1.790 -0.6131  1.3012  1.4503
  541MOL0     H73025   7.633   0.143   1.575 -1.6645 -1.1857  1.1438
  541MOL0     H73026   7.627   0.011   1.680 -1.2426  1.7097  1.8037
  541MOL0     H73027   7.856  -0.072   1.587  0.7926 -1.3946 -3.9865
  541MOL0     H73028   7.868   0.085   1.503  0.7329 -1.6147 -1.0286
  541MOL0     H73029   7.667   0.040   1.378  0.8544  0.8425  0.1883
  541MOL0     H73030   7.808  -0.057   1.348 -2.0094 -0.0332 -2.3965
  541MOL0     H73031   7.505  -0.350   1.445 -0.5584 -0.1006  1.5980
  541MOL0     H73032   7.554   0.301   1.739  1.5985 -0.6029  0.6901
  541MOL0     H73033   7.371   0.414   1.826 -0.4761 -2.7853 -2.4959
  541MOL0     H73034   7.364   0.593   1.826 -1.6962 -1.9827  1.2067
  541MOL0     H73035   7.342   0.500   1.671  2.2233 -3.7091 -1.0375
  542MOL0     O73036   2.993   2.169   8.853 -0.1018 -0.4579 -0.4866
  542MOL0     C73037   2.881   2.134   8.892  0.4901  0.0566  0.0393
  542MOL0     O73038   2.806   2.034   8.839 -0.0332 -0.6294 -0.5450
  542MOL0     C73039   2.813   2.012   8.706 -0.3207  0.0863  0.8932
  542MOL0     C73040   2.696   1.958   8.663  0.1821  0.5077  0.2612
  542MOL0     C73041   2.677   1.937   8.528  0.1047  0.7548 -0.3230
  542MOL0     C73042   2.777   1.961   8.428 -0.8045 -0.2796 -0.4424
  542MOL0     O73043   2.753   1.926   8.297 -0.1888 -0.0526 -0.0248
  542MOL0     C73044   2.823   2.003   8.199 -0.5517  0.1869  0.7940
  542MOL0     C73045   2.792   1.972   8.048 -0.1490 -0.6825  0.0669
  542MOL0     C73046   2.905   1.878   7.990  0.9327 -0.0605 -0.5218
  542MOL0     C73047   2.900   1.888   7.839 -0.2367  0.2000  0.8520
  542MOL0     C73048   3.001   1.801   7.762  0.0878  0.5336  0.0431
  542MOL0     C73049   2.951   1.659   7.724  0.6227 -0.3028  0.9240
  542MOL0     C73050   2.893   1.571   7.830 -0.2336 -0.1311  0.5155
  542MOL0     C73051   3.005   1.517   7.918 -0.5455  0.0900  0.3924
  542MOL0     N73052   3.090   1.433   7.842  0.1880  0.5996  0.0285
  542MOL0     C73053   3.218   1.464   7.802 -0.3684 -0.1941 -0.5849
  542MOL0     C73054   3.261   1.361   7.725 -0.7544  0.1161  0.5073
  542MOL0     C73055   3.395   1.353   7.666 -0.4141  0.0265  0.1191
  542MOL0     C73056   3.427   1.474   7.577 -0.3545 -0.0353  0.2773
  542MOL0     C73057   3.484   1.451   7.439 -0.8669  0.9518  0.1085
  542MOL0     C73058   3.626   1.395   7.439  1.0973 -0.2291  0.3770
  542MOL0     O73059   3.729   1.479   7.485 -0.0446 -1.3271  0.4769
  542MOL0     C73060   3.758   1.589   7.403 -0.1301  0.2403 -0.5034
  542MOL0     C73061   3.730   1.723   7.435 -0.0638 -0.2080 -0.2005
  542MOL0     C73062   3.772   1.829   7.358 -0.5412  0.3885  0.5652
  542MOL0     C73063   3.847   1.798   7.238  1.2963  0.2132 -0.5289
  542MOL0     C73064   3.885   1.912   7.157 -0.1886 -0.0917  0.2234
  542MOL0     O73065   3.796   2.006   7.142  0.1814  0.6615 -0.2676
  542MOL0     C73066   3.792   2.105   7.049 -0.3071 -0.1792  0.6399
  542MOL0     C73067   3.835   2.099   6.919 -0.6355  0.1952  0.3152
  542MOL0     C73068   3.829   2.216   6.834 -0.0044 -0.2160  0.9158
  542MOL0     C73069   3.752   2.335   6.878 -0.3258  0.8064 -1.1275
  542MOL0     O73070   3.739   2.464   6.823  0.5063  0.5360 -0.7670
  542MOL0     C73071   3.813   2.492   6.703  1.4175  1.1199 -1.0371
  542MOL0     C73072   3.790   2.633   6.675  0.6708 -0.7863  0.3481
  542MOL0     C73073   3.644   2.679   6.654  0.1016  0.5757 -0.2323
  542MOL0     C73074   3.542   2.700   6.765  0.6561  0.0682  0.4754
  542MOL0     C73075   3.430   2.798   6.727  0.7803  0.0371  0.6010
  542MOL0     C73076   3.317   2.804   6.835  0.8320  0.2563 -0.2057
  542MOL0     C73077   3.219   2.680   6.835 -0.1149  0.0241 -0.4920
  542MOL0     C73078   3.101   2.698   6.925  0.2002  0.5905  0.4327
  542MOL0    Cl73079   3.023   2.845   6.879 -0.0715 -0.0126  0.3575
  542MOL0     C73080   3.694   2.325   7.010  0.4570 -0.9502 -0.5394
  542MOL0     C73081   3.716   2.213   7.090  0.4576  0.1466  0.3243
  542MOL0     O73082   3.986   1.905   7.089  0.8376 -0.1913  0.5394
  542MOL0     C73083   3.891   1.673   7.218 -0.5022  0.7756  0.5995
  542MOL0     C73084   3.834   1.568   7.286  0.3630  0.5885 -1.5176
  542MOL0     N73085   3.147   1.277   7.702 -0.4237 -0.1088 -0.7855
  542MOL0     N73086   3.058   1.317   7.783 -0.4617  0.4766  0.4788
  542MOL0     C73087   2.901   2.002   8.477 -0.9749 -0.0805 -0.0006
  542MOL0     C73088   2.917   2.029   8.614  0.3613 -0.1509 -0.5120
  542MOL0     C73089   2.828   2.208   9.003 -0.4932  0.7839  0.2983
  542MOL0     C73090   2.695   2.249   9.002  0.0052  0.0888  0.4040
  542MOL0     C73091   2.655   2.329   9.107  0.2805 -0.2925 -0.5987
  542MOL0     C73092   2.741   2.382   9.202  0.2782 -0.7316  0.7212
  542MOL0     O73093   2.687   2.471   9.288 -0.2897  0.0227  0.4804
  542MOL0     C73094   2.762   2.533   9.390  0.2189  0.6345 -0.3404
  542MOL0     C73095   2.737   2.680   9.387 -0.0141 -0.5900  0.0315
  542MOL0     C73096   2.609   2.743   9.427  0.2100  0.9862 -0.8483
  542MOL0     C73097   2.511   2.765   9.316 -0.5982  0.3642  0.1221
  542MOL0     C73098   2.386   2.826   9.366 -0.2086 -0.3738 -0.5721
  542MOL0     C73099   2.277   2.872   9.408 -0.2695 -0.3473  0.2872
  542MOL0     C73100   2.870   2.329   9.204  0.7178  0.9449  0.2140
  542MOL0     C73101   2.907   2.227   9.111  0.0541 -0.3313 -0.1657
  542MOL0     C73102   3.035   2.154   9.130  0.2314 -0.1789  0.5426
  542MOL0     H73103   2.616   1.948   8.736 -2.1363  1.9428 -1.9319
  542MOL0     H73104   2.588   1.881   8.498  2.1112 -1.4738 -2.6307
  542MOL0     H73105   2.817   2.112   8.213  2.1978  0.2260  2.2350
  542MOL0     H73106   2.929   1.982   8.217 -0.7597 -0.3506  1.4494
  542MOL0     H73107   2.803   2.071   8.001  1.0755 -0.5953  0.4850
  542MOL0     H73108   2.690   1.936   8.035 -0.1333 -0.6752 -0.0764
  542MOL0     H73109   2.895   1.778   8.032 -1.0331 -0.4109 -1.6602
  542MOL0     H73110   3.001   1.915   8.028  1.5147 -2.0136  0.0145
  542MOL0     H73111   2.794   1.865   7.825 -1.7680  4.2965  3.6171
  542MOL0     H73112   2.914   1.993   7.809 -0.3086  0.0786  0.3791
  542MOL0     H73113   3.005   1.856   7.668  0.2733  3.0447  1.4177
  542MOL0     H73114   3.095   1.801   7.819 -0.7034  0.6765  1.3917
  542MOL0     H73115   2.870   1.680   7.653 -0.9195 -0.2194  2.6025
  542MOL0     H73116   3.034   1.611   7.672  1.8132  1.8936  0.7081
  542MOL0     H73117   2.838   1.486   7.790 -0.9375  1.0169 -1.0269
  542MOL0     H73118   2.826   1.635   7.888 -0.0667  1.1712 -0.6739
  542MOL0     H73119   3.059   1.607   7.949 -0.5756  0.3321 -0.2439
  542MOL0     H73120   2.988   1.452   8.004  4.2447 -3.9385 -1.2267
  542MOL0     H73121   3.293   1.537   7.829  1.4427 -1.1143 -2.8375
  542MOL0     H73122   3.475   1.356   7.741 -1.6845  0.2215  1.5050
  542MOL0     H73123   3.409   1.253   7.624  1.4305 -0.1465  1.0295
  542MOL0     H73124   3.334   1.529   7.563  0.9403  1.8420 -1.4785
  542MOL0     H73125   3.503   1.534   7.628 -1.0863 -0.3448  1.7841
  542MOL0     H73126   3.466   1.542   7.381 -4.2002  0.0849 -0.4344
  542MOL0     H73127   3.420   1.378   7.387 -0.5283 -0.6080  1.7900
  542MOL0     H73128   3.635   1.350   7.340  0.1921  1.2126 -0.3988
  542MOL0     H73129   3.623   1.308   7.505 -1.1195  0.1697  0.9117
  542MOL0     H73130   3.672   1.735   7.525  1.0694 -2.5962  0.9447
  542MOL0     H73131   3.742   1.931   7.381 -2.1111 -0.2594  1.5551
  542MOL0     H73132   3.883   2.007   6.888 -2.1729 -0.3186 -0.6473
  542MOL0     H73133   3.875   2.238   6.738 -3.2925 -1.9530 -1.2398
  542MOL0     H73134   3.920   2.473   6.719  1.2866  0.5946 -0.7577
  542MOL0     H73135   3.796   2.424   6.619  0.7944  1.0297 -0.8373
  542MOL0     H73136   3.835   2.694   6.755  0.5573  0.5592 -0.5901
  542MOL0     H73137   3.851   2.657   6.587 -0.0995  2.6809  0.6235
  542MOL0     H73138   3.654   2.772   6.598  2.1141 -0.5588 -1.9462
  542MOL0     H73139   3.600   2.611   6.580  0.1294 -2.6915  2.4699
  542MOL0     H73140   3.596   2.745   6.849  1.0296 -1.1466  0.9000
  542MOL0     H73141   3.503   2.605   6.801  0.3116 -1.3292 -3.1823
  542MOL0     H73142   3.393   2.757   6.632  4.4685  1.0643 -1.5105
  542MOL0     H73143   3.481   2.893   6.704  0.1263 -0.1232 -1.8632
  542MOL0     H73144   3.359   2.823   6.933  0.0184 -1.3051  0.4838
  542MOL0     H73145   3.261   2.895   6.810  1.1031  0.1157 -1.4081
  542MOL0     H73146   3.273   2.587   6.854  0.3301  0.5317  0.8713
  542MOL0     H73147   3.181   2.676   6.733  1.0681  0.8320 -0.9855
  542MOL0     H73148   3.028   2.617   6.923 -1.3606  1.9279  0.5810
  542MOL0     H73149   3.150   2.710   7.022  0.2629  0.1131  0.4604
  542MOL0     H73150   3.622   2.400   7.041  1.9017  0.3809 -0.2495
  542MOL0     H73151   3.663   2.212   7.185 -1.9246 -4.3703 -0.7075
  542MOL0     H73152   3.973   1.653   7.149 -1.4104 -1.5149  0.0888
  542MOL0     H73153   3.868   1.469   7.255  1.1793 -0.2802  1.8104
  542MOL0     H73154   2.982   2.020   8.407 -1.5545 -0.2407 -0.7351
  542MOL0     H73155   3.013   2.067   8.648  0.2434  2.0756 -2.4368
  542MOL0     H73156   2.622   2.223   8.926 -0.0159  2.9614 -0.6883
  542MOL0     H73157   2.548   2.349   9.106  0.3338  0.5507  2.0603
  542MOL0     H73158   2.868   2.515   9.373  0.4285  0.4472  1.0469
  542MOL0     H73159   2.733   2.486   9.485  0.3747 -2.0367 -1.5214
  542MOL0     H73160   2.782   2.741   9.308 -0.5305  2.0756  1.6511
  542MOL0     H73161   2.800   2.714   9.470  0.6330  2.2020 -1.4812
  542MOL0     H73162   2.624   2.839   9.478  2.4656 -0.7294  2.0310
  542MOL0     H73163   2.562   2.680   9.503  1.8086 -2.0710 -2.2168
  542MOL0     H73164   2.558   2.836   9.247  0.2904  0.9224  1.2656
  542MOL0     H73165   2.504   2.676   9.252  0.2291  0.4105 -0.0403
  542MOL0     H73166   2.181   2.906   9.443  0.1664  1.8850 -0.4840
  542MOL0     H73167   2.942   2.344   9.284  2.2208  0.5296 -1.0228
  542MOL0     H73168   3.116   2.214   9.086  0.8946 -0.9327  0.7110
  542MOL0     H73169   3.055   2.149   9.237  0.7793  2.1043  0.6063
  542MOL0     H73170   3.033   2.056   9.082 -1.7167  0.8711 -1.7320
  543MOL0     O73171   5.169   2.916   8.622  0.1487  0.4765 -0.6072
  543MOL0     C73172   5.062   2.974   8.626  0.5952  0.3067 -1.0132
  543MOL0     O73173   5.019   3.040   8.739 -0.1885  0.0455 -0.3728
  543MOL0     C73174   5.108   3.090   8.832  0.3263  0.2810  0.6845
  543MOL0     C73175   5.222   3.155   8.796  0.5622 -0.1616  0.5403
  543MOL0     C73176   5.301   3.219   8.885  0.1273  0.2558 -0.7296
  543MOL0     C73177   5.268   3.214   9.022 -0.6207  0.5166 -0.1755
  543MOL0     O73178   5.351   3.294   9.107 -0.3471  0.1569  0.1336
  543MOL0     C73179   5.285   3.353   9.216  0.2800  0.0468  0.2934
  543MOL0     C73180   5.366   3.478   9.261  0.3292 -0.3185 -0.1422
  543MOL0     C73181   5.333   3.538   9.396  0.3038 -0.6624 -1.5928
  543MOL0     C73182   5.426   3.653   9.444 -0.2522 -0.2018 -0.0898
  543MOL0     C73183   5.431   3.677   9.594  1.0183 -0.5686 -0.3862
  543MOL0     C73184   5.548   3.775   9.622  0.3254 -0.4068  0.3192
  543MOL0     C73185   5.540   3.824   9.769  0.0459  0.3580 -0.0608
  543MOL0     C73186   5.564   3.713   9.884  0.0654 -0.7487 -0.3506
  543MOL0     N73187   5.702   3.683   9.905 -0.4095 -0.1393  0.1744
  543MOL0     C73188   5.779   3.754   9.988  0.9123 -0.2109 -0.0980
  543MOL0     C73189   5.897   3.707   9.969 -0.3187 -0.0094  1.0376
  543MOL0     C73190   6.019   3.759  10.026  0.4523  0.4908  0.4192
  543MOL0     C73191   6.050   3.904   9.989 -0.0899  0.2377 -0.2611
  543MOL0     C73192   6.080   3.936   9.838 -0.2105 -0.1803  0.1604
  543MOL0     C73193   6.049   4.092   9.810 -0.8817 -0.1811 -0.5704
  543MOL0     O73194   6.108   4.160   9.919  0.5812  0.5157  0.0827
  543MOL0     C73195   6.239   4.184   9.918  0.0135  0.6296 -0.3345
  543MOL0     C73196   6.336   4.150   9.822  1.0685 -0.8964 -0.6196
  543MOL0     C73197   6.461   4.198   9.835  0.4527 -0.2015  0.7363
  543MOL0     C73198   6.497   4.285   9.935  0.7996  0.6657 -0.0688
  543MOL0     C73199   6.624   4.337   9.956 -1.7105 -0.5010  0.7118
  543MOL0     O73200   6.648   4.445  10.041 -0.0223  0.1928 -0.1535
  543MOL0     C73201   6.774   4.489  10.070 -0.1905 -0.6499  0.0382
  543MOL0     C73202   6.878   4.531   9.976  0.9469  1.0213 -0.0922
  543MOL0     C73203   7.006   4.573  10.017  0.3908  0.2842 -0.2131
  543MOL0     C73204   7.036   4.575  10.158  0.5534  0.1863 -0.1869
  543MOL0     O73205   7.157   4.628  10.194 -0.0632  1.2959 -0.4418
  543MOL0     C73206   7.211   4.608  10.331  0.4300 -0.3498  0.3973
  543MOL0     C73207   7.369   4.623  10.324 -0.3272 -0.2265  0.1440
  543MOL0     C73208   7.427   4.524  10.228 -0.1253  0.3367 -0.1145
  543MOL0     C73209   7.578   4.511  10.234 -0.2950  0.2865  0.7286
  543MOL0     C73210   7.622   4.427  10.109 -0.4222 -0.1563  0.5038
  543MOL0     C73211   7.781   4.420  10.091  0.4849  0.8586 -1.2355
  543MOL0     C73212   7.845   4.559  10.055  0.4830  0.6693  0.3661
  543MOL0     C73213   7.992   4.539  10.028  0.2558  0.4454  0.1863
  543MOL0    Cl73214   8.080   4.690  10.031 -0.1424 -0.1268 -0.1608
  543MOL0     C73215   6.927   4.543  10.246  0.7288 -0.4456 -0.0020
  543MOL0     C73216   6.800   4.504  10.203  0.2476  0.0639  0.4952
  543MOL0     O73217   6.714   4.272   9.900 -0.2969  0.2460 -0.5931
  543MOL0     C73218   6.400   4.329  10.031  0.2614 -0.5731  1.0282
  543MOL0     C73219   6.273   4.278  10.018 -0.0694 -0.0671 -0.7098
  543MOL0     N73220   5.895   3.627   9.854  0.4130  0.2141  0.2321
  543MOL0     N73221   5.771   3.621   9.802  0.0343  0.2035  0.7493
  543MOL0     C73222   5.161   3.139   9.062  0.6626  0.0979  0.0655
  543MOL0     C73223   5.075   3.078   8.964 -1.3890  0.1567 -0.6767
  543MOL0     C73224   4.977   2.975   8.503  1.0317 -0.8308 -1.0400
  543MOL0     C73225   4.856   3.046   8.509  0.9422 -1.0033  0.7089
  543MOL0     C73226   4.778   3.055   8.391  1.2731  0.4653  0.1653
  543MOL0     C73227   4.806   2.976   8.276 -0.1317 -0.9216 -0.5482
  543MOL0     O73228   4.736   2.986   8.161 -0.6135  0.7393 -0.1607
  543MOL0     C73229   4.756   3.123   8.102 -0.3867  0.8762 -0.3552
  543MOL0     C73230   4.908   3.159   8.068  0.2434  0.2923 -0.1873
  543MOL0     C73231   4.908   3.270   7.958 -0.6284 -0.2100  0.3587
  543MOL0     C73232   4.949   3.410   8.014  0.2120  0.6098 -0.3372
  543MOL0     C73233   5.099   3.434   8.031  0.3971 -0.5644  0.5865
  543MOL0     C73234   5.218   3.445   8.049  0.6163 -0.1269 -0.1284
  543MOL0     C73235   4.912   2.890   8.284 -0.2477 -0.5061  0.3958
  543MOL0     C73236   5.002   2.891   8.389 -0.2084 -0.1101 -1.0897
  543MOL0     C73237   5.112   2.783   8.395  0.9297 -0.6179 -0.1887
  543MOL0     H73238   5.256   3.161   8.693 -0.7768 -1.8822 -0.0338
  543MOL0     H73239   5.394   3.265   8.856 -0.3046  1.3173 -0.4622
  543MOL0     H73240   5.185   3.385   9.185 -0.1858 -2.4791 -1.0641
  543MOL0     H73241   5.279   3.275   9.293 -0.2173 -0.8022 -0.5873
  543MOL0     H73242   5.331   3.547   9.185  0.2828 -0.9124 -0.6674
  543MOL0     H73243   5.474   3.470   9.250  0.2995  0.0909 -0.7206
  543MOL0     H73244   5.347   3.460   9.472  4.1556  0.8907 -0.4497
  543MOL0     H73245   5.229   3.566   9.411  0.3186 -1.6932  0.9748
  543MOL0     H73246   5.527   3.644   9.403  0.6465  2.3714  1.3522
  543MOL0     H73247   5.395   3.747   9.398  2.7698  0.8603 -0.1814
  543MOL0     H73248   5.336   3.713   9.634 -1.4149 -1.3821 -4.7819
  543MOL0     H73249   5.448   3.581   9.645 -1.9110 -0.0048  1.8607
  543MOL0     H73250   5.643   3.727   9.596  0.1964 -2.9642  3.7970
  543MOL0     H73251   5.522   3.860   9.558  1.1942  0.1128  0.6475
  543MOL0     H73252   5.440   3.864   9.786 -0.5401 -1.1945  0.3030
  543MOL0     H73253   5.610   3.906   9.787  0.1079  0.8326 -2.1539
  543MOL0     H73254   5.528   3.758   9.977  0.2735 -3.0178  0.9080
  543MOL0     H73255   5.504   3.622   9.872  1.6188 -1.8421 -0.1465
  543MOL0     H73256   5.749   3.830  10.059 -1.2211  0.5691 -1.7306
  543MOL0     H73257   6.020   3.743  10.135  1.7311 -1.1995  0.1870
  543MOL0     H73258   6.094   3.695   9.981 -3.4416 -1.3863 -4.2529
  543MOL0     H73259   5.972   3.968  10.031  1.5956  1.0184  1.9620
  543MOL0     H73260   6.133   3.929  10.057 -0.5178 -0.2859  0.4629
  543MOL0     H73261   6.008   3.873   9.785  1.3804 -5.0526  3.1841
  543MOL0     H73262   6.186   3.913   9.824 -0.2345 -0.1105 -0.1581
  543MOL0     H73263   5.943   4.119   9.803 -1.0229 -0.8835 -1.4441
  543MOL0     H73264   6.089   4.102   9.709  3.0677 -1.9197  0.6192
  543MOL0     H73265   6.309   4.083   9.741  1.9387 -1.6052 -0.3340
  543MOL0     H73266   6.541   4.164   9.770 -2.4762 -1.3624 -2.5340
  543MOL0     H73267   6.855   4.520   9.871 -1.8013  1.2584  0.4107
  543MOL0     H73268   7.079   4.612   9.947 -0.3934  0.9745 -0.6668
  543MOL0     H73269   7.159   4.683  10.391  1.1114  1.1747 -0.8396
  543MOL0     H73270   7.188   4.512  10.379  0.1063 -0.8930 -0.8107
  543MOL0     H73271   7.402   4.726  10.309  1.7938 -0.4443  2.6624
  543MOL0     H73272   7.420   4.613  10.420 -3.0271  1.6516  1.8986
  543MOL0     H73273   7.394   4.421  10.240  4.2709 -1.2047  0.6647
  543MOL0     H73274   7.392   4.568  10.134 -3.7161 -1.1421  0.3899
  543MOL0     H73275   7.604   4.462  10.328 -2.3265  2.4594  2.5504
  543MOL0     H73276   7.615   4.614  10.228 -2.3308  1.0401  0.5724
  543MOL0     H73277   7.575   4.464  10.018 -1.7630 -1.2063  0.7396
  543MOL0     H73278   7.581   4.326  10.115 -0.1668 -0.2999 -0.1231
  543MOL0     H73279   7.808   4.378  10.188 -0.3969 -0.5936 -1.5826
  543MOL0     H73280   7.796   4.349  10.008 -0.5760 -0.4278 -0.3629
  543MOL0     H73281   7.838   4.628  10.139 -2.9317  0.7057  0.1922
  543MOL0     H73282   7.786   4.607   9.977 -1.9205  1.3560  2.4546
  543MOL0     H73283   8.041   4.470  10.098 -0.1832 -0.5492 -0.4587
  543MOL0     H73284   7.997   4.499   9.926  2.5668  1.9372 -0.3408
  543MOL0     H73285   6.930   4.549  10.354 -2.8254  0.8552  0.1330
  543MOL0     H73286   6.719   4.474  10.268 -2.5211 -0.7311 -3.0185
  543MOL0     H73287   6.430   4.402  10.106 -1.5453  1.4560 -0.1031
  543MOL0     H73288   6.191   4.315  10.079 -0.3419 -1.5970 -0.1112
  543MOL0     H73289   5.144   3.139   9.169 -1.9178 -1.8445 -0.2527
  543MOL0     H73290   4.989   3.018   8.992 -0.9392  0.0201  0.4969
  543MOL0     H73291   4.843   3.108   8.597  1.9482  3.4255 -1.9219
  543MOL0     H73292   4.685   3.112   8.399  0.4711 -0.3232 -2.5579
  543MOL0     H73293   4.701   3.204   8.149  0.3352 -0.5418  3.2363
  543MOL0     H73294   4.719   3.123   7.999 -0.0759  2.1956 -0.4836
  543MOL0     H73295   4.949   3.070   8.020 -1.0956  0.2835 -1.3909
  543MOL0     H73296   4.969   3.199   8.150  3.2513  1.5512 -2.8041
  543MOL0     H73297   4.809   3.272   7.911 -1.6582 -2.3426  2.2777
  543MOL0     H73298   4.985   3.271   7.880 -0.0837  6.5146  0.3332
  543MOL0     H73299   4.917   3.488   7.944  2.0947  0.4766 -1.4273
  543MOL0     H73300   4.896   3.434   8.107  0.2880  2.8190 -0.8080
  543MOL0     H73301   5.321   3.447   8.078  0.6993  2.2326 -0.4130
  543MOL0     H73302   4.927   2.824   8.198  0.7017  0.0910  0.0914
  543MOL0     H73303   5.096   2.708   8.473  1.7848 -0.4653  0.1495
  543MOL0     H73304   5.107   2.722   8.304 -1.4762 -1.8343  0.6571
  543MOL0     H73305   5.212   2.826   8.407  0.7733  0.5269 -2.4153
  544MOL0     O73306   1.251   2.641   3.658 -0.0699  0.2415 -1.0027
  544MOL0     C73307   1.132   2.643   3.617 -0.7595  0.2721  0.4536
  544MOL0     O73308   1.061   2.755   3.592 -0.4465  0.3085 -0.2587
  544MOL0     C73309   1.124   2.876   3.606 -0.7382  0.1144  0.4979
  544MOL0     C73310   1.261   2.918   3.568  0.2511 -0.2162  0.9970
  544MOL0     C73311   1.301   3.048   3.604  0.1376  0.2905 -0.2523
  544MOL0     C73312   1.220   3.131   3.672 -0.3717  0.0723 -0.4270
  544MOL0     O73313   1.264   3.248   3.716 -0.2955  0.0027 -1.0057
  544MOL0     C73314   1.400   3.262   3.765 -0.2806 -0.8171 -0.0659
  544MOL0     C73315   1.409   3.416   3.788  0.0882  0.1945  0.3775
  544MOL0     C73316   1.539   3.455   3.856  0.5089 -0.3529 -0.2683
  544MOL0     C73317   1.559   3.605   3.851  0.0593  0.2489  0.1516
  544MOL0     C73318   1.598   3.666   3.712 -0.1469 -0.3983 -0.4695
  544MOL0     C73319   1.664   3.805   3.715  0.9363 -0.3001  0.5314
  544MOL0     C73320   1.756   3.846   3.838  0.8505 -0.2522 -0.0721
  544MOL0     C73321   1.858   3.946   3.788 -0.1852 -0.1852 -0.6809
  544MOL0     N73322   1.798   4.064   3.717 -0.5488  0.6659  0.5815
  544MOL0     C73323   1.735   4.075   3.592  0.5335 -0.2568 -0.4318
  544MOL0     C73324   1.701   4.206   3.577 -0.3951 -0.0251 -0.6847
  544MOL0     C73325   1.623   4.273   3.465  0.3220  0.3617  1.0360
  544MOL0     C73326   1.717   4.308   3.350 -0.4769 -0.1002  1.0296
  544MOL0     C73327   1.800   4.202   3.276 -0.7306  0.5396  0.2093
  544MOL0     C73328   1.711   4.098   3.210  0.0332  1.0794 -0.5776
  544MOL0     O73329   1.639   4.022   3.313 -0.6694 -0.8164  0.5715
  544MOL0     C73330   1.535   3.940   3.273  0.6779 -0.4900 -0.2882
  544MOL0     C73331   1.508   3.907   3.137  0.3128  0.3308  0.9861
  544MOL0     C73332   1.412   3.817   3.110 -0.8740 -0.2652  0.0096
  544MOL0     C73333   1.345   3.752   3.217 -0.0288  0.6815 -0.1371
  544MOL0     C73334   1.259   3.627   3.188 -0.5186  0.5339 -0.4120
  544MOL0     O73335   1.252   3.581   3.060  0.4908 -0.2183  0.0709
  544MOL0     C73336   1.162   3.489   3.014  0.5093 -0.3104 -0.0572
  544MOL0     C73337   1.155   3.469   2.875  0.0408  0.4023  1.0350
  544MOL0     C73338   1.061   3.383   2.812 -0.5824 -0.3839  0.8364
  544MOL0     C73339   0.958   3.321   2.886  0.2236 -0.0285 -0.0321
  544MOL0     O73340   0.863   3.252   2.817 -0.3612 -0.0376 -0.0639
  544MOL0     C73341   0.744   3.206   2.884 -0.9673  0.2427 -0.1747
  544MOL0     C73342   0.651   3.135   2.790  0.0068 -0.6228 -0.0332
  544MOL0     C73343   0.524   3.086   2.859 -0.0489  0.0642 -0.0405
  544MOL0     C73344   0.412   3.033   2.762  0.8007 -0.1200 -0.1038
  544MOL0     C73345   0.455   2.916   2.686 -0.4778  0.3975 -0.2589
  544MOL0     C73346   0.352   2.870   2.575  0.4026  0.4435 -0.1432
  544MOL0     C73347   0.402   2.758   2.485  0.5182  0.1726 -0.2945
  544MOL0     C73348   0.299   2.728   2.381  0.4808  0.4279  1.1409
  544MOL0    Cl73349   0.141   2.682   2.467 -0.2497 -0.3668  0.0545
  544MOL0     C73350   0.953   3.349   3.030  0.1779  0.1812  0.6065
  544MOL0     C73351   1.058   3.424   3.088 -0.3167  0.2484  0.0436
  544MOL0     O73352   1.191   3.596   3.282  0.0370  0.4102 -0.2931
  544MOL0     C73353   1.370   3.792   3.351  0.9884 -0.2952 -1.0046
  544MOL0     C73354   1.458   3.889   3.379  0.4191  0.0992 -0.3030
  544MOL0     N73355   1.746   4.274   3.688 -0.8323 -0.2556 -0.5081
  544MOL0     N73356   1.802   4.188   3.768  0.7180  0.7327  0.3641
  544MOL0     C73357   1.083   3.096   3.696 -1.1410 -0.3586  0.0575
  544MOL0     C73358   1.044   2.970   3.664 -0.7345  0.7216  0.4845
  544MOL0     C73359   1.070   2.506   3.589 -0.6272 -0.4531 -0.0474
  544MOL0     C73360   1.114   2.394   3.668  1.0230 -0.3631 -0.0046
  544MOL0     C73361   1.067   2.267   3.640 -0.1063 -0.0092  0.5738
  544MOL0     C73362   0.979   2.249   3.541 -0.1907 -0.1661  0.3396
  544MOL0     O73363   0.933   2.118   3.510  0.1262  0.4466 -0.2028
  544MOL0     C73364   0.994   2.046   3.401 -0.7099 -0.3798 -0.2614
  544MOL0     C73365   1.006   1.897   3.440  0.4130 -0.2640 -1.0054
  544MOL0     C73366   0.879   1.820   3.418  0.7287 -0.0070  0.0208
  544MOL0     C73367   0.912   1.672   3.360 -0.9923 -0.1904 -0.1696
  544MOL0     C73368   0.935   1.674   3.216  0.5159 -0.1209 -0.4934
  544MOL0     C73369   0.957   1.661   3.098 -0.0893  0.2200 -0.3219
  544MOL0     C73370   0.943   2.359   3.461  1.0403  0.7388  0.0866
  544MOL0     C73371   0.996   2.483   3.479 -0.0345 -0.2356  0.6048
  544MOL0     C73372   0.962   2.585   3.375  0.3163  0.8842  0.1339
  544MOL0     H73373   1.329   2.853   3.514  1.0701 -0.0496  1.8093
  544MOL0     H73374   1.406   3.072   3.587  1.2026 -2.2519  1.8999
  544MOL0     H73375   1.415   3.223   3.866  1.0344  2.4846  1.1464
  544MOL0     H73376   1.479   3.229   3.696 -0.1685  1.0128 -0.8835
  544MOL0     H73377   1.330   3.444   3.858 -0.6682  2.2895 -1.2008
  544MOL0     H73378   1.390   3.475   3.698 -2.7396  0.3683  1.0050
  544MOL0     H73379   1.626   3.412   3.806  0.9811 -1.0570  1.1141
  544MOL0     H73380   1.548   3.410   3.955 -2.3953  0.2739  0.3694
  544MOL0     H73381   1.465   3.658   3.867 -0.3231  1.0507 -3.7607
  544MOL0     H73382   1.632   3.629   3.929 -0.5992 -0.1862  0.9125
  544MOL0     H73383   1.669   3.604   3.657  0.9283  0.3807  0.0031
  544MOL0     H73384   1.514   3.681   3.644  1.0185  3.4128 -1.2941
  544MOL0     H73385   1.714   3.821   3.619 -1.9635 -0.2318 -1.0677
  544MOL0     H73386   1.582   3.874   3.695  3.2187  2.1842 -0.9099
  544MOL0     H73387   1.816   3.760   3.870 -0.4159 -1.1599 -0.0314
  544MOL0     H73388   1.698   3.886   3.922  1.0323  0.0007 -0.0679
  544MOL0     H73389   1.922   3.982   3.869  0.4578  1.8224 -1.9981
  544MOL0     H73390   1.924   3.891   3.721 -1.8338 -2.3547 -0.6345
  544MOL0     H73391   1.720   3.986   3.531 -0.5297 -0.2947 -0.1419
  544MOL0     H73392   1.546   4.205   3.428  1.6689 -2.2199  2.6286
  544MOL0     H73393   1.576   4.357   3.515 -1.7909  0.3862 -0.8400
  544MOL0     H73394   1.665   4.373   3.279 -0.1595 -0.8605  0.0795
  544MOL0     H73395   1.780   4.381   3.402 -2.0684 -0.3379  3.4639
  544MOL0     H73396   1.877   4.146   3.330 -0.2825  0.8874 -0.0613
  544MOL0     H73397   1.859   4.244   3.194 -1.3128 -0.5562 -0.7907
  544MOL0     H73398   1.771   4.027   3.151 -0.2121 -0.5280  1.0123
  544MOL0     H73399   1.644   4.153   3.143 -0.3444  0.1206 -1.0056
  544MOL0     H73400   1.576   3.946   3.063  0.4527  2.7160  2.2574
  544MOL0     H73401   1.389   3.795   3.007 -1.9430  0.9643 -0.0400
  544MOL0     H73402   1.244   3.511   2.828  1.2295  0.2137  2.9982
  544MOL0     H73403   1.080   3.368   2.707 -1.8254  1.1488  0.3590
  544MOL0     H73404   0.785   3.138   2.960  1.2857 -0.0354 -1.5479
  544MOL0     H73405   0.692   3.290   2.932  0.6489  1.1257  0.1038
  544MOL0     H73406   0.617   3.206   2.714  0.2174  0.2375  0.6703
  544MOL0     H73407   0.697   3.047   2.743 -0.7411  0.1460 -2.3431
  544MOL0     H73408   0.545   3.001   2.924 -1.6014 -1.3748 -1.3061
  544MOL0     H73409   0.481   3.168   2.917  1.1166  0.0800  0.8260
  544MOL0     H73410   0.384   3.113   2.693 -2.8104 -2.0745 -1.1525
  544MOL0     H73411   0.320   3.015   2.818 -0.1112  1.2273 -1.1184
  544MOL0     H73412   0.466   2.828   2.749  1.2683 -0.1363 -1.2446
  544MOL0     H73413   0.551   2.940   2.640 -0.4372  1.5990  0.4054
  544MOL0     H73414   0.268   2.832   2.634  1.8868  2.4446  3.5826
  544MOL0     H73415   0.319   2.954   2.513  0.9327 -1.0136 -2.5386
  544MOL0     H73416   0.414   2.665   2.542 -2.3497 -1.5046 -2.1673
  544MOL0     H73417   0.494   2.794   2.438  0.4600  0.9730  0.2016
  544MOL0     H73418   0.295   2.808   2.306 -1.3311 -1.3205 -0.7363
  544MOL0     H73419   0.327   2.648   2.312 -0.9773 -1.6601  2.8546
  544MOL0     H73420   0.882   3.298   3.095  2.3608 -2.7163  0.9572
  544MOL0     H73421   1.058   3.429   3.196  0.2394  1.8652 -0.0010
  544MOL0     H73422   1.326   3.752   3.442 -1.0040 -0.5039 -2.0041
  544MOL0     H73423   1.469   3.928   3.479 -0.1235 -0.7496  0.0915
  544MOL0     H73424   1.024   3.167   3.753  0.5810  3.2449 -2.3465
  544MOL0     H73425   0.946   2.943   3.701  1.6104 -3.6646  4.7321
  544MOL0     H73426   1.187   2.418   3.745  2.4974  2.8168 -2.2220
  544MOL0     H73427   1.077   2.173   3.692  0.2523  0.4745  1.4053
  544MOL0     H73428   1.092   2.093   3.386 -1.2946  0.5427 -1.3572
  544MOL0     H73429   0.954   2.061   3.300  0.0782  0.1359 -0.5097
  544MOL0     H73430   1.045   1.893   3.542 -1.1853 -1.0307 -0.3991
  544MOL0     H73431   1.079   1.861   3.367 -0.1508 -1.7255 -0.8829
  544MOL0     H73432   0.806   1.867   3.351  0.6687 -0.8965 -0.5633
  544MOL0     H73433   0.829   1.809   3.514 -0.1696  0.9955 -0.3049
  544MOL0     H73434   1.007   1.651   3.411 -2.3584 -2.5289  1.6664
  544MOL0     H73435   0.843   1.593   3.392  1.0641 -1.2627  1.9750
  544MOL0     H73436   0.983   1.648   2.995 -0.6035 -0.8145 -0.3403
  544MOL0     H73437   0.866   2.346   3.386 -1.1972 -2.4760  2.6268
  544MOL0     H73438   0.906   2.670   3.414  0.9445  1.0517  0.7097
  544MOL0     H73439   1.059   2.628   3.345 -0.1067  1.1759 -0.8435
  544MOL0     H73440   0.914   2.547   3.285  0.8922  2.2146 -0.7638
  545MOL0     O73441   2.365   1.460  10.646  0.0977 -0.6523  0.5408
  545MOL0     C73442   2.311   1.566  10.615 -0.4187  0.7164 -0.8701
  545MOL0     O73443   2.372   1.689  10.619  0.0540 -0.6945  0.2684
  545MOL0     C73444   2.485   1.713  10.699  0.4664  0.6546  0.3960
  545MOL0     C73445   2.605   1.657  10.671  0.3752 -0.0573  0.7435
  545MOL0     C73446   2.716   1.684  10.749 -0.2599  0.0044  0.1371
  545MOL0     C73447   2.703   1.759  10.859 -0.5138  0.1107  0.6950
  545MOL0     O73448   2.800   1.772  10.955  0.0925  0.2465  0.8472
  545MOL0     C73449   2.866   1.650  11.006 -0.0062  0.5070 -0.5394
  545MOL0     C73450   2.784   1.583  11.117 -0.2053 -0.5467  0.1549
  545MOL0     C73451   2.861   1.494  11.210 -0.7569  0.1807  1.0631
  545MOL0     C73452   2.768   1.404  11.283  0.2577 -0.5836  0.0802
  545MOL0     C73453   2.836   1.332  11.396 -0.2994 -0.0461 -0.2242
  545MOL0     C73454   2.781   1.189  11.409  0.6171  0.5589 -0.2760
  545MOL0     C73455   2.843   1.129  11.537  0.6304 -0.2162  0.3617
  545MOL0     C73456   2.736   1.135  11.647  0.3716 -0.8100 -0.5846
  545MOL0     N73457   2.797   1.076  11.766 -0.3656 -0.4696  0.5808
  545MOL0     C73458   2.784   0.947  11.807 -0.4847 -0.7831 -0.3567
  545MOL0     C73459   2.848   0.942  11.921  0.3024 -0.5934  0.7639
  545MOL0     C73460   2.882   0.828  12.014  0.0104  0.1704 -1.0444
  545MOL0     C73461   2.753   0.743  12.052 -0.4782  0.9559  0.7661
  545MOL0     C73462   2.743   0.624  11.964  0.2654 -0.4118  0.0408
  545MOL0     C73463   2.609   0.550  12.000  0.5847  0.3584 -0.5162
  545MOL0     O73464   2.490   0.616  11.957  0.0247 -0.6146  1.2631
  545MOL0     C73465   2.372   0.544  11.976  0.2622  0.3679 -0.2605
  545MOL0     C73466   2.252   0.612  11.937  0.1280  0.3865  0.1716
  545MOL0     C73467   2.125   0.539  11.938 -0.3824 -0.1248 -0.2846
  545MOL0     C73468   2.125   0.412  11.995 -0.5169 -0.8449 -0.5217
  545MOL0     C73469   2.005   0.342  12.038  0.5267 -0.1861 -0.1414
  545MOL0     O73470   2.018   0.203  12.063  0.2195  0.2957 -0.9341
  545MOL0     C73471   1.917   0.131  12.115  0.2572 -0.3570 -0.2753
  545MOL0     C73472   1.832   0.082  12.021  0.2954  1.5190 -0.1728
  545MOL0     C73473   1.718   0.016  12.062  0.1119  0.1061  0.4875
  545MOL0     C73474   1.695   0.011  12.200 -0.3741 -0.3032 -0.9832
  545MOL0     O73475   1.592  -0.059  12.259  0.0464 -0.0249 -0.7981
  545MOL0     C73476   1.463  -0.023  12.216  0.8593 -0.7140 -0.6210
  545MOL0     C73477   1.388   0.031  12.335 -0.7530  0.5864  0.1643
  545MOL0     C73478   1.326  -0.081  12.422 -0.6069 -0.2326 -0.0991
  545MOL0     C73479   1.229  -0.024  12.513 -0.1171  0.6450 -0.0004
  545MOL0     C73480   1.195  -0.130  12.615 -0.6210  0.5055  1.3859
  545MOL0     C73481   1.102  -0.233  12.548 -0.1690 -0.3903 -0.1781
  545MOL0     C73482   1.007  -0.298  12.643 -0.1522  0.2647  0.1363
  545MOL0     C73483   0.935  -0.416  12.582  0.9852 -1.1520 -0.6524
  545MOL0    Cl73484   0.795  -0.346  12.509  0.4424  0.0735 -0.0670
  545MOL0     C73485   1.784   0.064  12.298 -0.8690  0.0600 -0.3765
  545MOL0     C73486   1.902   0.113  12.254  0.3191  0.0915  0.4646
  545MOL0     O73487   1.898   0.406  12.061  0.6230 -0.6420 -0.6036
  545MOL0     C73488   2.241   0.349  12.031 -1.0730  1.0674  0.5742
  545MOL0     C73489   2.364   0.408  12.025  0.1599 -0.1494 -0.3832
  545MOL0     N73490   2.908   1.066  11.941  0.0596  0.6307  0.2168
  545MOL0     N73491   2.881   1.135  11.842  0.3204 -0.5897 -0.0731
  545MOL0     C73492   2.587   1.819  10.898 -1.1771 -0.2036  0.3049
  545MOL0     C73493   2.477   1.794  10.817  0.6246 -0.8134  0.3107
  545MOL0     C73494   2.167   1.573  10.574 -0.1522 -1.1960  0.4395
  545MOL0     C73495   2.118   1.701  10.543  0.4931 -0.4379 -0.0719
  545MOL0     C73496   1.988   1.739  10.525 -0.5537 -0.4012  0.4672
  545MOL0     C73497   1.892   1.638  10.536  0.0978 -0.3747  1.0837
  545MOL0     O73498   1.759   1.653  10.526 -0.1767  0.0258  0.9266
  545MOL0     C73499   1.697   1.758  10.456 -1.1681 -0.6561  0.4765
  545MOL0     C73500   1.549   1.743  10.440  0.2822  0.2676  1.1269
  545MOL0     C73501   1.478   1.874  10.410 -0.1427  0.9028 -1.1017
  545MOL0     C73502   1.326   1.851  10.397 -1.3882 -0.4405  0.4303
  545MOL0     C73503   1.273   1.810  10.533  0.4135  0.2605  0.2326
  545MOL0     C73504   1.231   1.783  10.641 -0.3208 -0.9134 -0.1739
  545MOL0     C73505   1.932   1.507  10.549 -0.0871  0.1426  0.3901
  545MOL0     C73506   2.066   1.477  10.580 -0.2112  0.5558 -1.0472
  545MOL0     C73507   2.096   1.343  10.625 -0.6208  1.4742  0.7810
  545MOL0     H73508   2.612   1.592  10.584  1.7438 -0.9542  1.4931
  545MOL0     H73509   2.804   1.622  10.737  0.0031  0.1453  1.2217
  545MOL0     H73510   2.889   1.571  10.933  0.5713  0.0608  0.1152
  545MOL0     H73511   2.961   1.673  11.054  0.0785 -2.5112  0.9646
  545MOL0     H73512   2.700   1.527  11.076  3.0600 -2.8443 -4.2343
  545MOL0     H73513   2.748   1.665  11.181  1.3851  1.0207 -0.8610
  545MOL0     H73514   2.918   1.560  11.278 -0.1128  3.1058 -2.0601
  545MOL0     H73515   2.936   1.430  11.163 -0.6433 -0.5246  2.1589
  545MOL0     H73516   2.684   1.454  11.332 -0.1563 -1.6779  0.5131
  545MOL0     H73517   2.734   1.329  11.211 -0.6037  0.3290 -0.4896
  545MOL0     H73518   2.946   1.331  11.396 -0.2618 -2.1350  1.2708
  545MOL0     H73519   2.819   1.398  11.482 -1.7135 -0.1262 -0.4164
  545MOL0     H73520   2.673   1.178  11.427  0.7386  0.6402  0.5482
  545MOL0     H73521   2.819   1.124  11.329 -1.4186 -0.0469 -0.8099
  545MOL0     H73522   2.931   1.182  11.574  0.5480  0.2080 -0.0379
  545MOL0     H73523   2.871   1.023  11.525 -1.1813 -0.6031 -0.9077
  545MOL0     H73524   2.718   1.241  11.667 -1.0166 -1.0506 -0.4266
  545MOL0     H73525   2.645   1.081  11.619 -0.8680 -0.0759  1.7781
  545MOL0     H73526   2.731   0.857  11.777  0.0125 -1.5138  0.8955
  545MOL0     H73527   2.962   0.763  11.978 -0.7465 -0.8217 -0.9676
  545MOL0     H73528   2.904   0.872  12.112 -0.8516 -2.0515  0.2235
  545MOL0     H73529   2.772   0.700  12.151 -0.1107 -1.6602 -0.3620
  545MOL0     H73530   2.667   0.810  12.061  0.4266  2.9182 -3.0323
  545MOL0     H73531   2.829   0.559  11.979  3.0692  2.7294 -1.2129
  545MOL0     H73532   2.745   0.650  11.858  2.1318  0.2059  0.2001
  545MOL0     H73533   2.614   0.536  12.109  1.4110 -0.1322 -0.6089
  545MOL0     H73534   2.615   0.449  11.960 -1.6801 -0.0965  0.1207
  545MOL0     H73535   2.259   0.717  11.910 -3.1498  0.2505 -1.6250
  545MOL0     H73536   2.042   0.609  11.927  0.7808  1.4701  0.7060
  545MOL0     H73537   1.864   0.083  11.918  3.3797 -0.1574  0.6459
  545MOL0     H73538   1.651  -0.030  11.991  0.8751  1.6449 -1.3234
  545MOL0     H73539   1.458   0.063  12.148  1.4383 -0.0557  0.1500
  545MOL0     H73540   1.414  -0.110  12.172  1.9193 -0.4896 -2.3444
  545MOL0     H73541   1.458   0.089  12.396 -0.2697 -0.8285  0.9989
  545MOL0     H73542   1.308   0.101  12.311 -0.3680  0.9771  0.0155
  545MOL0     H73543   1.293  -0.166  12.363 -0.7943 -0.0344 -0.2827
  545MOL0     H73544   1.403  -0.134  12.478  0.6800  0.0771 -1.4907
  545MOL0     H73545   1.139  -0.005  12.454 -0.4777 -0.0900  0.2986
  545MOL0     H73546   1.265   0.069  12.558 -0.6272 -0.1541  2.1639
  545MOL0     H73547   1.141  -0.081  12.697 -2.8799  3.5692 -1.6368
  545MOL0     H73548   1.291  -0.175  12.643  0.0396  0.1588 -1.2082
  545MOL0     H73549   1.038  -0.194  12.469 -0.6137 -1.2291 -0.2453
  545MOL0     H73550   1.175  -0.306  12.511 -0.0161  0.3316 -1.3353
  545MOL0     H73551   0.937  -0.221  12.676  0.0597  1.9669 -3.0009
  545MOL0     H73552   1.064  -0.334  12.729  3.3520  1.4293 -1.5200
  545MOL0     H73553   0.994  -0.478  12.514  2.0557 -0.5332 -0.3056
  545MOL0     H73554   0.911  -0.485  12.664  0.5319 -1.0253 -0.6763
  545MOL0     H73555   1.766   0.058  12.404 -1.4665 -0.2581 -0.4874
  545MOL0     H73556   1.975   0.161  12.318 -0.5251  1.8968  0.1626
  545MOL0     H73557   2.238   0.245  12.064 -4.0372  1.0612  0.5831
  545MOL0     H73558   2.446   0.350  12.065  0.4544 -2.3268 -3.7814
  545MOL0     H73559   2.584   1.876  10.990 -0.0876  3.1098 -1.5316
  545MOL0     H73560   2.378   1.830  10.842  0.8630 -1.8225  3.0913
  545MOL0     H73561   2.186   1.786  10.541  0.8980 -0.7249  0.9812
  545MOL0     H73562   1.961   1.843  10.511 -2.5158 -0.1329  4.7134
  545MOL0     H73563   1.748   1.760  10.359 -3.3962  1.4598 -0.7443
  545MOL0     H73564   1.719   1.853  10.506 -0.3592 -0.5919  0.0170
  545MOL0     H73565   1.506   1.695  10.529  1.5694 -3.3230 -0.0134
  545MOL0     H73566   1.537   1.664  10.366 -1.1835  0.1488  1.4669
  545MOL0     H73567   1.531   1.918  10.325  2.2765 -0.3449 -0.3289
  545MOL0     H73568   1.496   1.931  10.502 -0.2655  0.0973 -0.5733
  545MOL0     H73569   1.272   1.938  10.358 -1.2896  0.8784  3.0131
  545MOL0     H73570   1.328   1.775  10.318  2.1598 -1.4168  1.2862
  545MOL0     H73571   1.185   1.759  10.735 -2.2058 -1.7866 -1.2445
  545MOL0     H73572   1.858   1.428  10.552  0.4929 -0.3796  2.0844
  545MOL0     H73573   2.014   1.273  10.607  1.5878 -1.5073  1.5379
  545MOL0     H73574   2.174   1.307  10.557 -0.9404  4.7256 -1.5042
  545MOL0     H73575   2.120   1.334  10.732  2.1513 -2.0718  0.0568
  546MOL0     O73576  10.101   9.985  10.811 -0.0705  0.3312 -0.0233
  546MOL0     C73577   9.991   9.949  10.843  0.1277  0.1901 -0.4649
  546MOL0     O73578   9.960   9.824  10.887  0.8423  0.0748 -0.4853
  546MOL0     C73579  10.056   9.731  10.912  0.0027 -0.1006 -0.2763
  546MOL0     C73580  10.153   9.696  10.813 -0.2874 -0.8409 -0.4525
  546MOL0     C73581  10.252   9.597  10.830  0.1188 -0.4186 -0.3849
  546MOL0     C73582  10.225   9.506  10.931  0.2615 -0.0062 -0.2935
  546MOL0     O73583  10.283   9.383  10.957 -0.2463  0.0074 -0.5810
  546MOL0     C73584  10.422   9.409  10.962  0.2488  0.4720  0.3060
  546MOL0     C73585  10.486   9.267  10.978 -0.6179  0.4910 -0.0306
  546MOL0     C73586  10.638   9.286  10.956  0.8808  0.1736 -0.4483
  546MOL0     C73587  10.707   9.150  10.929  1.2892 -0.4564  0.9679
  546MOL0     C73588  10.855   9.171  10.904  0.0810 -1.1847 -0.1311
  546MOL0     C73589  10.931   9.043  10.891 -0.3932  0.0392  0.2275
  546MOL0     C73590  11.076   9.069  10.873  0.7371 -0.0012 -0.7102
  546MOL0     C73591  11.167   8.954  10.907 -0.5163  0.8811 -0.0440
  546MOL0     N73592  11.300   9.000  10.903 -0.1906  0.1070  0.3195
  546MOL0     C73593  11.378   9.018  10.790  0.3429 -0.5611  0.9321
  546MOL0     C73594  11.480   9.098  10.823 -0.4064  0.7175  0.1594
  546MOL0     C73595  11.570   9.157  10.712  0.1134  0.2230 -0.8377
  546MOL0     C73596  11.715   9.124  10.731  0.1218  0.3669  0.3080
  546MOL0     C73597  11.799   9.198  10.620 -0.0853  0.0536  0.8605
  546MOL0     C73598  11.946   9.189  10.629 -0.5183  0.5176 -0.4906
  546MOL0     O73599  11.995   9.307  10.572 -0.6056  0.3805  0.1559
  546MOL0     C73600  12.116   9.304  10.508 -0.5639  0.0052  0.5289
  546MOL0     C73601  12.230   9.241  10.549 -0.0027 -0.0057  0.0806
  546MOL0     C73602  12.351   9.241  10.479  0.1561  0.3868  0.1807
  546MOL0     C73603  12.353   9.318  10.358 -0.0506  0.0645  0.0886
  546MOL0     C73604  12.471   9.321  10.256 -0.0441 -0.3439  0.2080
  546MOL0     O73605  12.466   9.398  10.148  0.2553 -0.4528 -0.1056
  546MOL0     C73606  12.548   9.357  10.046  0.0607  0.4124  0.6921
  546MOL0     C73607  12.501   9.257   9.947  0.0987 -0.4731  0.4300
  546MOL0     C73608  12.589   9.225   9.841  0.2344  0.3579 -0.4531
  546MOL0     C73609  12.715   9.279   9.832  0.3694 -0.5451  0.7556
  546MOL0     O73610  12.793   9.243   9.730  0.3429 -0.5073 -0.0302
  546MOL0     C73611  12.933   9.223   9.766 -0.5785 -0.1277 -0.6808
  546MOL0     C73612  12.994   9.124   9.680  0.7566  1.1158 -0.2068
  546MOL0     C73613  13.143   9.104   9.692 -0.8372  0.4694  0.8758
  546MOL0     C73614  13.170   9.005   9.811 -0.5472  0.3607 -0.1330
  546MOL0     C73615  13.313   9.023   9.868 -0.6682 -0.4204 -0.1477
  546MOL0     C73616  13.328   8.916   9.979 -0.3535  0.2605  0.3862
  546MOL0     C73617  13.455   8.947  10.069  0.4426 -0.0958 -0.0665
  546MOL0     C73618  13.472   8.845  10.179  0.4378 -0.9346 -0.2134
  546MOL0    Cl73619  13.480   8.675  10.120 -0.0144  0.0540  0.0042
  546MOL0     C73620  12.750   9.385   9.917  0.4490 -0.9111 -0.1833
  546MOL0     C73621  12.668   9.428  10.025 -0.0909 -0.1390  0.9931
  546MOL0     O73622  12.558   9.238  10.283 -0.3884  0.0796  0.5679
  546MOL0     C73623  12.242   9.395  10.329  0.4903 -0.3696  0.7761
  546MOL0     C73624  12.122   9.376  10.394  0.6263  0.2195 -0.3107
  546MOL0     N73625  11.478   9.110  10.962  0.2817  0.4242 -0.3303
  546MOL0     N73626  11.379   9.049  11.008  0.7648  0.1550 -0.7255
  546MOL0     C73627  10.125   9.532  11.023  0.4006  0.1039  0.6739
  546MOL0     C73628  10.046   9.645  11.016  0.4266 -0.2971 -1.3769
  546MOL0     C73629   9.881  10.050  10.830  0.7597  0.3559 -0.1260
  546MOL0     C73630   9.908  10.156  10.740 -0.0484 -0.1507  0.2895
  546MOL0     C73631   9.804  10.261  10.714 -0.0898 -0.5635 -0.4432
  546MOL0     C73632   9.678  10.261  10.770  0.3943 -0.3948 -1.1118
  546MOL0     O73633   9.598  10.374  10.756  0.0314 -0.2124 -0.4199
  546MOL0     C73634   9.509  10.413  10.863 -0.1355  0.1944  0.8538
  546MOL0     C73635   9.581  10.464  10.989  0.1846 -0.7462  0.1262
  546MOL0     C73636   9.479  10.484  11.103  0.7603  0.1790  0.3204
  546MOL0     C73637   9.457  10.356  11.167  1.2150  0.2882 -0.5028
  546MOL0     C73638   9.339  10.379  11.249  0.0902 -0.6363 -0.4635
  546MOL0     C73639   9.247  10.403  11.326 -0.8873 -0.4240  0.3221
  546MOL0     C73640   9.659  10.161  10.863 -0.0462 -0.6023  0.3117
  546MOL0     C73641   9.748  10.050  10.892 -0.4206  0.1239 -0.5789
  546MOL0     C73642   9.713   9.952  11.001 -0.6072  0.7574 -0.4633
  546MOL0     H73643  10.163   9.755  10.722  0.7043  1.7595  1.2244
  546MOL0     H73644  10.335   9.579  10.762  0.7033 -1.1732  0.4996
  546MOL0     H73645  10.465   9.463  10.877 -1.2213  2.4570  0.7269
  546MOL0     H73646  10.446   9.473  11.048  1.4302  0.5165 -0.0455
  546MOL0     H73647  10.445   9.193  10.908  1.4181 -0.7758  0.0193
  546MOL0     H73648  10.460   9.236  11.079  1.6554 -0.2480  0.3909
  546MOL0     H73649  10.691   9.332  11.040 -1.3486  0.9110  0.6198
  546MOL0     H73650  10.644   9.352  10.868 -0.8445  2.1934  0.8438
  546MOL0     H73651  10.696   9.080  11.012 -0.7953 -2.8404 -1.1417
  546MOL0     H73652  10.654   9.108  10.842 -0.7859  1.2073  1.3413
  546MOL0     H73653  10.869   9.227  10.811  1.6723  2.0466  1.8565
  546MOL0     H73654  10.895   9.222  10.993 -1.0272  0.2027 -0.3828
  546MOL0     H73655  10.901   8.975  10.971 -0.6561 -0.2771 -0.1315
  546MOL0     H73656  10.911   8.995  10.795  4.6893 -0.2558 -0.9381
  546MOL0     H73657  11.092   9.142  10.953 -0.6110 -0.2705 -0.1708
  546MOL0     H73658  11.102   9.108  10.774 -0.8263 -1.0693 -1.5721
  546MOL0     H73659  11.145   8.919  11.008 -0.7562  0.3224 -0.2857
  546MOL0     H73660  11.169   8.873  10.834  1.8332  0.0891  0.8219
  546MOL0     H73661  11.334   9.005  10.692  0.6205  4.3719 -0.0937
  546MOL0     H73662  11.535   9.108  10.621 -1.7130 -1.8006  0.8451
  546MOL0     H73663  11.568   9.266  10.709 -0.6097  0.2756  0.5884
  546MOL0     H73664  11.756   9.153  10.828  1.7191 -3.1801  0.8489
  546MOL0     H73665  11.710   9.014  10.733 -0.9956  0.4076  1.9101
  546MOL0     H73666  11.773   9.304  10.616 -3.3305 -0.6730 -1.1208
  546MOL0     H73667  11.772   9.157  10.522  0.1371 -1.0874  1.2662
  546MOL0     H73668  11.985   9.099  10.581 -0.6846 -0.6529  1.4566
  546MOL0     H73669  11.976   9.175  10.733 -4.5610  0.8046  0.8724
  546MOL0     H73670  12.223   9.185  10.642 -1.0275  1.7356  1.1010
  546MOL0     H73671  12.425   9.175  10.523 -2.0829 -2.2650  0.2835
  546MOL0     H73672  12.400   9.215   9.946  1.2220 -3.7050 -3.2000
  546MOL0     H73673  12.559   9.151   9.767  1.3666  1.0297 -1.6351
  546MOL0     H73674  12.988   9.317   9.754  0.4507 -0.5672  0.4047
  546MOL0     H73675  12.938   9.176   9.864  1.1759 -0.7934 -1.0429
  546MOL0     H73676  12.937   9.035   9.706  1.3864  0.8782  0.4052
  546MOL0     H73677  12.971   9.158   9.579 -2.8191 -0.7273 -0.1771
  546MOL0     H73678  13.190   9.062   9.602 -0.9317 -1.8811  1.8737
  546MOL0     H73679  13.178   9.207   9.701 -1.1053  0.7328 -0.7261
  546MOL0     H73680  13.150   8.901   9.783 -1.8891  0.4010  0.5662
  546MOL0     H73681  13.102   9.031   9.893 -0.1312  0.7795  0.0860
  546MOL0     H73682  13.329   9.124   9.907 -2.6664  0.6442 -1.8693
  546MOL0     H73683  13.389   9.010   9.791  1.0573 -4.3299  1.9206
  546MOL0     H73684  13.244   8.926  10.048 -0.5332 -2.8186  0.7342
  546MOL0     H73685  13.328   8.819   9.929  1.1601  1.0692 -1.2936
  546MOL0     H73686  13.439   9.044  10.117  0.3531 -1.5434  3.0452
  546MOL0     H73687  13.538   8.944   9.997  1.4688 -4.5133  0.9853
  546MOL0     H73688  13.569   8.861  10.228  0.1159 -1.2288  0.5305
  546MOL0     H73689  13.396   8.848  10.257 -0.3362  1.1911 -0.9735
  546MOL0     H73690  12.849   9.428   9.908  1.8135 -2.6550  4.0113
  546MOL0     H73691  12.716   9.515  10.068  1.1450 -0.5078  0.4062
  546MOL0     H73692  12.257   9.460  10.243  2.4465  0.5029  1.6857
  546MOL0     H73693  12.038   9.441  10.368  1.3538  1.7596  0.9891
  546MOL0     H73694  10.112   9.456  11.100 -0.5768 -0.0304  0.3914
  546MOL0     H73695   9.963   9.669  11.082 -0.5979 -2.4161 -1.8288
  546MOL0     H73696  10.004  10.169  10.691  0.1743 -0.8923  0.5061
  546MOL0     H73697   9.828  10.338  10.641  0.5309  0.3165  0.6741
  546MOL0     H73698   9.451  10.326  10.893 -2.4457  1.3555  0.0022
  546MOL0     H73699   9.435  10.485  10.826 -1.1146 -2.0596 -1.8855
  546MOL0     H73700   9.630  10.554  10.951 -1.0194  0.3517  1.0685
  546MOL0     H73701   9.661  10.398  11.024  1.8917  1.6232  0.9780
  546MOL0     H73702   9.388  10.520  11.054  1.1138 -0.2936 -0.7130
  546MOL0     H73703   9.522  10.550  11.179  2.3994 -1.8792  1.2813
  546MOL0     H73704   9.436  10.274  11.098  1.2972  1.4781 -1.9831
  546MOL0     H73705   9.541  10.316  11.226 -1.4866 -7.1678 -0.6476
  546MOL0     H73706   9.174  10.420  11.402 -0.7087 -2.0761  0.8810
  546MOL0     H73707   9.570  10.167  10.925 -0.6790  2.6181 -0.7190
  546MOL0     H73708   9.645   9.879  10.955  0.1722 -0.5561  0.3846
  546MOL0     H73709   9.807   9.911  11.040  0.5547  2.6807 -1.1037
  546MOL0     H73710   9.662   9.999  11.085  1.0411 -1.6301  2.0452
  547MOL0     O73711   9.587   5.535   4.867 -0.7180 -0.1570 -0.0870
  547MOL0     C73712   9.565   5.453   4.958  0.2456  1.0993 -0.6024
  547MOL0     O73713   9.532   5.497   5.084  0.2857 -0.0205 -0.2779
  547MOL0     C73714   9.489   5.627   5.110 -0.5165  0.0032  0.8229
  547MOL0     C73715   9.556   5.695   5.210 -0.4971 -0.8593  0.7099
  547MOL0     C73716   9.498   5.815   5.267 -0.7297  0.0656  0.0642
  547MOL0     C73717   9.388   5.876   5.206  0.3483  0.7481  1.3432
  547MOL0     O73718   9.336   5.998   5.239  0.1035 -0.1972  0.0108
  547MOL0     C73719   9.427   6.112   5.236 -0.5505 -0.0459 -0.4791
  547MOL0     C73720   9.337   6.233   5.246  1.0452  0.2161  0.5198
  547MOL0     C73721   9.256   6.269   5.116  0.1568  0.4916  1.8377
  547MOL0     C73722   9.110   6.228   5.137  0.2932  0.5562 -0.1262
  547MOL0     C73723   9.014   6.267   5.016  0.1939  0.7538  0.0553
  547MOL0     C73724   9.038   6.179   4.894 -0.8844  0.3767 -0.1115
  547MOL0     C73725   9.022   6.038   4.927 -0.4479  0.2630  0.1231
  547MOL0     C73726   9.005   5.938   4.805  0.1493  0.3888  0.8182
  547MOL0     N73727   8.978   5.800   4.841  0.0103  0.3890  0.2079
  547MOL0     C73728   8.876   5.719   4.789 -0.1949  1.0436  0.3386
  547MOL0     C73729   8.923   5.594   4.811 -0.3069 -0.3220  0.3623
  547MOL0     C73730   8.853   5.464   4.774 -0.2122 -0.6376  0.0361
  547MOL0     C73731   8.716   5.440   4.843 -0.5408  0.4108  1.0444
  547MOL0     C73732   8.635   5.319   4.789  0.2694 -0.5542  0.2301
  547MOL0     C73733   8.521   5.281   4.893 -0.4151  0.0907  1.1640
  547MOL0     O73734   8.444   5.395   4.924  0.3968  0.1242 -0.1176
  547MOL0     C73735   8.346   5.388   5.015  0.0862  0.4736  0.7432
  547MOL0     C73736   8.269   5.497   5.044 -0.5488  0.3626  0.2890
  547MOL0     C73737   8.158   5.494   5.127 -0.0349 -0.0470  0.3113
  547MOL0     C73738   8.121   5.368   5.185  0.5787 -0.7670 -1.2356
  547MOL0     C73739   7.995   5.363   5.253  0.4940  0.4675  0.6809
  547MOL0     O73740   7.909   5.469   5.234  0.6803  0.2472 -0.5386
  547MOL0     C73741   7.799   5.489   5.315  0.4054 -0.6935 -0.3733
  547MOL0     C73742   7.794   5.493   5.457 -0.6914  0.4142  1.0112
  547MOL0     C73743   7.669   5.491   5.526  0.0943  0.2305  0.2379
  547MOL0     C73744   7.550   5.509   5.457  0.4437  0.8497 -0.0795
  547MOL0     O73745   7.431   5.529   5.525 -0.1843 -0.1660  0.5944
  547MOL0     C73746   7.362   5.649   5.496  0.6665 -0.2598  0.1995
  547MOL0     C73747   7.259   5.674   5.609 -0.7997 -0.1194 -0.1722
  547MOL0     C73748   7.136   5.574   5.605  0.2908 -0.0578 -0.5852
  547MOL0     C73749   7.046   5.600   5.723  1.1087  0.4233 -0.0427
  547MOL0     C73750   6.915   5.521   5.707  0.4711 -0.2674 -0.0669
  547MOL0     C73751   6.831   5.560   5.834  0.4875 -0.5701  0.0642
  547MOL0     C73752   6.883   5.492   5.961 -0.1119 -0.2706  0.2266
  547MOL0     C73753   6.796   5.511   6.091 -0.3335 -0.5719  0.1095
  547MOL0    Cl73754   6.864   5.651   6.177 -0.1740 -0.1334  0.0810
  547MOL0     C73755   7.553   5.521   5.320  0.7148 -0.4661  0.1335
  547MOL0     C73756   7.675   5.507   5.250  0.1794  0.5970  0.2150
  547MOL0     O73757   7.975   5.276   5.338  0.4411  0.6197  0.5268
  547MOL0     C73758   8.207   5.259   5.170  0.2021  0.0810 -0.1550
  547MOL0     C73759   8.311   5.267   5.076 -0.1825 -0.2026  0.2874
  547MOL0     N73760   9.046   5.594   4.868  0.1271 -0.4601  0.4267
  547MOL0     N73761   9.072   5.718   4.890 -0.4005 -0.4812 -0.9131
  547MOL0     C73762   9.338   5.804   5.089 -0.1492 -0.2881 -0.5318
  547MOL0     C73763   9.378   5.681   5.041  0.7345 -0.5592 -0.5882
  547MOL0     C73764   9.607   5.309   4.946  0.2794  0.2562 -0.2727
  547MOL0     C73765   9.591   5.233   5.060  1.1372  0.1674  0.6361
  547MOL0     C73766   9.632   5.100   5.055 -0.5602 -0.1430  0.1833
  547MOL0     C73767   9.683   5.044   4.942 -0.7087  0.1029 -0.0449
  547MOL0     O73768   9.691   4.914   4.955 -0.5804  0.1614  0.0804
  547MOL0     C73769   9.817   4.865   4.914  0.2560  0.5042 -0.0348
  547MOL0     C73770   9.863   4.759   5.009  1.2129  0.3992  0.7197
  547MOL0     C73771   9.744   4.665   5.034 -0.0321  0.3079 -0.1678
  547MOL0     C73772   9.747   4.545   4.935 -0.4293  0.4848 -0.0271
  547MOL0     C73773   9.616   4.487   4.935  0.0574  0.7332  0.1171
  547MOL0     C73774   9.504   4.436   4.920 -0.6826  0.8026  0.5512
  547MOL0     C73775   9.698   5.118   4.831  0.3811  0.2206  0.8514
  547MOL0     C73776   9.664   5.250   4.823 -0.3820 -0.6351 -0.5236
  547MOL0     C73777   9.669   5.326   4.686  0.2405  0.5320 -0.4853
  547MOL0     H73778   9.649   5.658   5.251 -1.0849 -1.4966  1.5007
  547MOL0     H73779   9.553   5.871   5.342  0.2587 -0.8968  0.0909
  547MOL0     H73780   9.506   6.119   5.312  0.4004 -1.6291 -1.2547
  547MOL0     H73781   9.482   6.121   5.142 -2.9525  2.9045 -1.7303
  547MOL0     H73782   9.404   6.319   5.256 -3.5894  4.8367 -2.5862
  547MOL0     H73783   9.268   6.227   5.330 -0.6092 -0.2396 -0.8174
  547MOL0     H73784   9.299   6.213   5.032 -1.0111  2.8679 -0.4842
  547MOL0     H73785   9.270   6.374   5.092  2.5336 -0.2370 -0.4686
  547MOL0     H73786   9.110   6.121   5.160  1.4670  0.2864 -1.2555
  547MOL0     H73787   9.071   6.280   5.225 -0.7416 -0.0569 -0.2125
  547MOL0     H73788   8.912   6.273   5.055 -0.0402  0.6270 -0.5179
  547MOL0     H73789   9.035   6.373   4.997 -1.7313  1.5068  1.8262
  547MOL0     H73790   8.967   6.214   4.818 -0.7508  1.1492  0.1119
  547MOL0     H73791   9.137   6.202   4.854 -0.3947  3.2462  2.3186
  547MOL0     H73792   8.928   6.037   4.983 -1.1311 -0.5497 -0.9938
  547MOL0     H73793   9.107   6.003   4.988  2.2237  0.2644 -3.3134
  547MOL0     H73794   8.925   5.960   4.734  2.6368  2.7889 -1.5101
  547MOL0     H73795   9.101   5.936   4.752 -0.1824 -1.8157  0.2065
  547MOL0     H73796   8.778   5.740   4.747  0.6590 -2.5464 -4.3025
  547MOL0     H73797   8.861   5.467   4.665 -1.0765  4.7735 -0.1804
  547MOL0     H73798   8.920   5.384   4.806  0.3389 -0.0457  0.3867
  547MOL0     H73799   8.730   5.426   4.950  1.2716 -0.3471  0.7447
  547MOL0     H73800   8.664   5.534   4.825  1.0423  1.3388  1.2063
  547MOL0     H73801   8.697   5.229   4.777 -0.8245 -1.4083  0.8038
  547MOL0     H73802   8.604   5.349   4.689 -1.2255 -2.8403 -0.0602
  547MOL0     H73803   8.568   5.239   4.983 -0.8137 -1.1365  0.8148
  547MOL0     H73804   8.459   5.205   4.844 -1.3428  1.8169 -0.4582
  547MOL0     H73805   8.293   5.593   4.998 -2.2351 -0.2563 -2.1165
  547MOL0     H73806   8.105   5.588   5.133  2.2506  1.5460 -1.9486
  547MOL0     H73807   7.890   5.490   5.509  0.3633  2.3885 -0.6612
  547MOL0     H73808   7.664   5.481   5.634  1.3928 -2.0208  0.1592
  547MOL0     H73809   7.435   5.730   5.486  0.3843 -0.1001 -0.6710
  547MOL0     H73810   7.305   5.638   5.403  1.6771 -1.8325 -0.2527
  547MOL0     H73811   7.307   5.652   5.705 -2.5697 -3.5325  0.0913
  547MOL0     H73812   7.220   5.776   5.598 -0.2425  0.0400 -0.6705
  547MOL0     H73813   7.084   5.585   5.510 -2.1263  2.6370  0.8824
  547MOL0     H73814   7.179   5.474   5.609 -1.3222 -0.8497 -1.9793
  547MOL0     H73815   7.022   5.706   5.729  3.1187  0.9296 -0.3333
  547MOL0     H73816   7.100   5.564   5.811 -1.7786 -2.4860  0.7468
  547MOL0     H73817   6.945   5.417   5.693  0.8448 -0.1222 -0.4075
  547MOL0     H73818   6.862   5.562   5.620  0.5284  1.8591  0.8405
  547MOL0     H73819   6.820   5.669   5.843 -2.4709 -0.5825 -1.8452
  547MOL0     H73820   6.727   5.527   5.819  1.0040 -2.8357  1.0584
  547MOL0     H73821   6.985   5.526   5.983 -0.2641 -0.1381  0.7352
  547MOL0     H73822   6.877   5.385   5.937  2.3869 -0.0221 -1.9162
  547MOL0     H73823   6.700   5.545   6.050  0.2905  0.0430 -0.8789
  547MOL0     H73824   6.782   5.417   6.145  2.3773  1.3769  4.7770
  547MOL0     H73825   7.462   5.546   5.267  1.3103  0.3094 -0.5455
  547MOL0     H73826   7.677   5.509   5.142  1.1757 -0.4145  0.1939
  547MOL0     H73827   8.158   5.168   5.203 -3.7964  1.7142 -0.9801
  547MOL0     H73828   8.360   5.178   5.039 -0.1278 -0.0808  0.0622
  547MOL0     H73829   9.245   5.844   5.048  0.8374 -1.0998 -3.8571
  547MOL0     H73830   9.314   5.639   4.965 -0.3115 -1.5388  0.7708
  547MOL0     H73831   9.556   5.265   5.157  0.5965 -0.2683  0.5886
  547MOL0     H73832   9.623   5.045   5.147 -1.5728  1.9686  1.4287
  547MOL0     H73833   9.889   4.947   4.897  0.1413  0.5410 -0.3493
  547MOL0     H73834   9.812   4.815   4.817  1.4843 -3.1292  1.5948
  547MOL0     H73835   9.897   4.805   5.102 -2.0669 -1.0746  2.8513
  547MOL0     H73836   9.943   4.701   4.960  0.3290  1.8295 -2.7286
  547MOL0     H73837   9.642   4.705   5.031  0.0141  0.9163  3.0557
  547MOL0     H73838   9.769   4.636   5.136  1.1349  3.0475  0.4128
  547MOL0     H73839   9.772   4.581   4.834 -2.0210  2.6072  0.2548
  547MOL0     H73840   9.819   4.479   4.982  2.7878  1.1485 -3.4726
  547MOL0     H73841   9.413   4.385   4.895  0.8192 -1.4264 -0.7535
  547MOL0     H73842   9.734   5.068   4.742 -2.9985 -1.0253  0.0188
  547MOL0     H73843   9.569   5.362   4.662  0.8370  1.2579 -2.0373
  547MOL0     H73844   9.739   5.409   4.696 -0.2231  0.9803 -0.9196
  547MOL0     H73845   9.713   5.259   4.611 -0.2102 -0.7265  0.3455
  548MOL0     O73846   2.353   1.105   6.043 -0.3306 -0.5158 -0.3067
  548MOL0     C73847   2.277   1.092   5.945  0.6565 -0.2649 -0.9437
  548MOL0     O73848   2.311   1.112   5.814 -1.1307 -0.3641  0.1841
  548MOL0     C73849   2.437   1.164   5.790  0.2521  0.6461  0.0502
  548MOL0     C73850   2.449   1.273   5.708 -0.4134 -0.4902  0.8558
  548MOL0     C73851   2.581   1.322   5.681 -1.3485  0.2482  0.0034
  548MOL0     C73852   2.689   1.253   5.726 -0.7999  1.1570 -0.1338
  548MOL0     O73853   2.822   1.286   5.700  0.5942 -0.0551  0.1328
  548MOL0     C73854   2.848   1.429   5.690  0.2732  0.1665 -0.2644
  548MOL0     C73855   2.979   1.465   5.746 -0.0243  0.0057 -0.4280
  548MOL0     C73856   2.977   1.429   5.897 -0.7766  0.0799 -0.0829
  548MOL0     C73857   3.092   1.479   5.990  0.4525 -0.0312 -0.7817
  548MOL0     C73858   3.232   1.437   5.936 -0.4075 -0.1961 -0.2629
  548MOL0     C73859   3.346   1.506   5.999  0.1750 -0.4859 -0.4255
  548MOL0     C73860   3.478   1.450   5.930  0.4760 -0.0764 -1.0760
  548MOL0     C73861   3.610   1.455   5.996 -0.2329  0.3398 -0.3918
  548MOL0     N73862   3.732   1.424   5.912  0.2035  0.6635  0.3645
  548MOL0     C73863   3.741   1.437   5.772  0.5292  0.8890  0.2141
  548MOL0     C73864   3.874   1.424   5.748 -0.3699 -0.5179  0.0026
  548MOL0     C73865   3.939   1.432   5.608 -0.7515 -0.2379  0.0932
  548MOL0     C73866   4.038   1.320   5.598  0.5612  0.3729  0.2945
  548MOL0     C73867   4.106   1.333   5.464 -0.1693  0.3470  0.6624
  548MOL0     C73868   4.203   1.224   5.430  0.3925 -0.4158 -0.2369
  548MOL0     O73869   4.126   1.096   5.413  0.6100 -0.8893  1.1716
  548MOL0     C73870   4.187   0.975   5.403  0.0806  0.6065 -0.4546
  548MOL0     C73871   4.107   0.864   5.425  0.2437  0.1005 -0.1166
  548MOL0     C73872   4.165   0.738   5.408 -0.2900  0.0831 -1.3421
  548MOL0     C73873   4.305   0.721   5.379 -0.6343 -0.3862  0.0200
  548MOL0     C73874   4.360   0.583   5.360  0.0854  0.0033 -0.7773
  548MOL0     O73875   4.481   0.583   5.300  0.1753  0.2139  0.2590
  548MOL0     C73876   4.532   0.459   5.254  0.1770 -0.4169 -0.5874
  548MOL0     C73877   4.462   0.343   5.241 -0.6193  0.4051  0.0639
  548MOL0     C73878   4.526   0.217   5.211 -0.4686  0.5181 -0.0838
  548MOL0     C73879   4.659   0.215   5.182 -0.1433  1.1888  0.6188
  548MOL0     O73880   4.698   0.091   5.137 -0.2293 -0.3179 -0.5605
  548MOL0     C73881   4.825   0.089   5.073  0.3141 -0.0451  0.3767
  548MOL0     C73882   4.837  -0.035   4.977  0.0642 -0.1056 -0.4157
  548MOL0     C73883   4.771  -0.163   5.027  0.0418 -0.6405 -0.0879
  548MOL0     C73884   4.774  -0.251   4.901  0.6460  0.3308 -1.0924
  548MOL0     C73885   4.629  -0.244   4.832 -0.2938  0.7223 -1.4330
  548MOL0     C73886   4.609  -0.379   4.757 -0.1831 -0.7783 -0.5251
  548MOL0     C73887   4.470  -0.357   4.691 -0.2972  0.0349 -0.4854
  548MOL0     C73888   4.401  -0.479   4.643 -0.4027 -0.0223  0.1147
  548MOL0    Cl73889   4.248  -0.429   4.553  0.1208 -0.0230 -0.4601
  548MOL0     C73890   4.728   0.333   5.185  0.0012  0.5423 -0.9245
  548MOL0     C73891   4.671   0.452   5.232 -0.3873 -0.0343 -0.0614
  548MOL0     O73892   4.299   0.488   5.416  0.2449 -0.0628  0.3981
  548MOL0     C73893   4.386   0.836   5.369 -0.2380  0.2803 -0.5654
  548MOL0     C73894   4.322   0.961   5.381  0.4728  0.0740 -0.0217
  548MOL0     N73895   3.939   1.403   5.863  0.4331  0.2688 -0.3072
  548MOL0     N73896   3.854   1.394   5.962 -0.0738  0.0553  0.1043
  548MOL0     C73897   2.672   1.140   5.801 -0.0479 -0.4556 -0.0797
  548MOL0     C73898   2.546   1.091   5.834  0.3676 -0.3483 -0.4753
  548MOL0     C73899   2.137   1.035   5.965 -0.0104 -0.1782  0.4997
  548MOL0     C73900   2.061   1.007   5.849 -0.6749 -0.0594 -0.0298
  548MOL0     C73901   1.929   0.970   5.856 -1.0500  0.0782  0.2823
  548MOL0     C73902   1.860   0.958   5.975  0.5165  0.9378  0.6353
  548MOL0     O73903   1.726   0.927   5.976  0.3468 -0.1671 -0.3678
  548MOL0     C73904   1.647   0.976   6.088 -0.1605  0.8127  0.9353
  548MOL0     C73905   1.492   0.947   6.072 -0.2313 -0.1990  0.5465
  548MOL0     C73906   1.444   1.012   5.948 -0.1749  0.2210  0.7284
  548MOL0     C73907   1.289   1.007   5.954 -0.6583 -0.2278  0.3484
  548MOL0     C73908   1.233   1.077   5.832 -0.9005 -0.4937 -0.5247
  548MOL0     C73909   1.180   1.142   5.737  0.0772  0.7753 -0.3726
  548MOL0     C73910   1.936   0.979   6.088  0.2414  0.3755 -0.2263
  548MOL0     C73911   2.070   1.005   6.090 -0.9549  0.4464  0.0025
  548MOL0     C73912   2.148   1.014   6.222  0.2012  0.0575 -0.1805
  548MOL0     H73913   2.358   1.317   5.669  0.7746 -0.3122 -1.9415
  548MOL0     H73914   2.604   1.405   5.615  0.5235  0.7067  1.1535
  548MOL0     H73915   2.864   1.446   5.583  0.7496 -0.4546 -0.2984
  548MOL0     H73916   2.764   1.487   5.729  0.2660 -0.7652  1.1654
  548MOL0     H73917   2.996   1.572   5.734  1.6742 -0.1134  0.5432
  548MOL0     H73918   3.054   1.408   5.691  0.0816  1.4862 -1.8988
  548MOL0     H73919   2.989   1.321   5.893 -0.9552  0.0394  0.4745
  548MOL0     H73920   2.880   1.451   5.941 -0.0502 -1.7522  2.6382
  548MOL0     H73921   3.083   1.588   5.993 -0.3257 -0.0862  2.1310
  548MOL0     H73922   3.074   1.441   6.091  1.2996  0.7894 -0.3157
  548MOL0     H73923   3.240   1.328   5.935 -0.4820 -0.2407  1.4215
  548MOL0     H73924   3.231   1.456   5.829 -0.4893  1.6591  0.0280
  548MOL0     H73925   3.329   1.612   5.974  1.4429 -0.3417 -0.7307
  548MOL0     H73926   3.337   1.493   6.108 -0.7132 -0.3597 -0.4719
  548MOL0     H73927   3.481   1.516   5.842  0.9857  0.8800 -0.3555
  548MOL0     H73928   3.460   1.350   5.891  1.0434  0.1867 -2.0444
  548MOL0     H73929   3.633   1.547   6.051  1.0471 -1.5617  2.5299
  548MOL0     H73930   3.621   1.377   6.073  0.6704 -0.6079 -1.4369
  548MOL0     H73931   3.660   1.438   5.700 -1.9423 -2.1731  2.6381
  548MOL0     H73932   3.859   1.434   5.533 -1.2608  3.9323  0.5101
  548MOL0     H73933   3.986   1.530   5.600 -2.6547  0.6826 -0.5818
  548MOL0     H73934   4.106   1.308   5.683 -1.6396 -0.5281  2.0363
  548MOL0     H73935   3.991   1.221   5.590 -0.7922  1.0424 -0.4136
  548MOL0     H73936   4.174   1.419   5.470 -0.6295  0.6836  1.0359
  548MOL0     H73937   4.026   1.357   5.394 -0.0753  2.9306  1.3485
  548MOL0     H73938   4.281   1.213   5.505 -2.6923 -0.7112  3.1762
  548MOL0     H73939   4.246   1.254   5.333 -2.5511 -2.2146 -2.2576
  548MOL0     H73940   4.007   0.882   5.465 -0.0629  1.6722 -1.4784
  548MOL0     H73941   4.095   0.655   5.411  0.7253 -0.7728 -0.6838
  548MOL0     H73942   4.355   0.330   5.246 -1.1820  2.8312 -2.9723
  548MOL0     H73943   4.462   0.129   5.206  1.1908 -0.6633 -1.7336
  548MOL0     H73944   4.844   0.178   5.012  0.6344  0.0183  0.5675
  548MOL0     H73945   4.894   0.084   5.158 -2.3903  1.0596  2.7820
  548MOL0     H73946   4.789   0.001   4.886  1.2939 -1.7941 -1.8041
  548MOL0     H73947   4.937  -0.061   4.941 -0.8255 -1.1275 -2.2697
  548MOL0     H73948   4.823  -0.203   5.114 -1.3504  1.5850  1.9206
  548MOL0     H73949   4.668  -0.145   5.062 -0.4864  1.0187 -2.2237
  548MOL0     H73950   4.783  -0.353   4.940  1.0263  1.2086  1.2756
  548MOL0     H73951   4.858  -0.230   4.833  1.5993 -1.3039 -0.4924
  548MOL0     H73952   4.636  -0.164   4.757 -0.4973  0.8233 -1.3443
  548MOL0     H73953   4.551  -0.230   4.907  1.2088 -0.7728  0.5131
  548MOL0     H73954   4.686  -0.393   4.681  1.7042  1.5527  0.8155
  548MOL0     H73955   4.611  -0.462   4.828 -0.9373  1.4665  2.3368
  548MOL0     H73956   4.483  -0.272   4.623  0.5883  1.1926  1.0417
  548MOL0     H73957   4.400  -0.322   4.769  1.6443 -0.8133  1.7543
  548MOL0     H73958   4.463  -0.537   4.575 -0.9409 -1.1755  0.5877
  548MOL0     H73959   4.374  -0.549   4.723 -2.0376  1.1441  0.6465
  548MOL0     H73960   4.832   0.350   5.161  0.8393 -0.9518  1.3573
  548MOL0     H73961   4.726   0.543   5.254  0.3353 -0.5800  0.4485
  548MOL0     H73962   4.486   0.819   5.331 -1.1943 -1.2247 -2.6306
  548MOL0     H73963   4.375   1.055   5.365  1.1689 -0.3139 -0.0470
  548MOL0     H73964   2.758   1.094   5.850 -0.2472  1.4303  2.1849
  548MOL0     H73965   2.537   0.993   5.879 -0.3792  0.5584  1.4961
  548MOL0     H73966   2.094   1.027   5.748  0.8449 -0.5520  0.3253
  548MOL0     H73967   1.878   0.951   5.762 -0.5915  0.1601  0.0140
  548MOL0     H73968   1.672   1.082   6.098  0.9296  0.9312 -2.1469
  548MOL0     H73969   1.679   0.933   6.184  0.5864 -2.4710 -0.6532
  548MOL0     H73970   1.445   0.980   6.165 -1.8580  0.1584 -0.3656
  548MOL0     H73971   1.462   0.843   6.058 -5.8125  1.2767 -0.9569
  548MOL0     H73972   1.479   0.952   5.863  2.8481 -1.0074  2.6933
  548MOL0     H73973   1.476   1.115   5.934 -1.3125  0.4393 -0.5518
  548MOL0     H73974   1.255   0.903   5.953 -1.7897  0.0961 -1.7898
  548MOL0     H73975   1.256   1.057   6.045  0.4149 -2.0396  1.8021
  548MOL0     H73976   1.119   1.192   5.665 -2.5956  3.7327  3.5135
  548MOL0     H73977   1.898   0.951   6.186  2.1602 -1.4640  0.0620
  548MOL0     H73978   2.244   0.961   6.227  0.0222 -0.3622 -1.0407
  548MOL0     H73979   2.177   1.114   6.257  0.5029 -1.0644  3.1374
  548MOL0     H73980   2.092   0.963   6.301  1.6530 -0.3432  0.6342
  549MOL0     O73981   2.652   4.587   7.826  0.0885 -0.3350 -0.4758
  549MOL0     C73982   2.733   4.684   7.838 -0.8889  0.1647 -0.9712
  549MOL0     O73983   2.840   4.691   7.926 -0.0425  0.1014  0.3222
  549MOL0     C73984   2.859   4.582   8.002 -0.1858 -0.9894  0.3608
  549MOL0     C73985   2.826   4.579   8.137  0.9757  0.0268  0.2411
  549MOL0     C73986   2.832   4.463   8.209 -0.7718  0.0567 -0.4416
  549MOL0     C73987   2.885   4.343   8.153  0.3225  0.2882  0.0336
  549MOL0     O73988   2.878   4.242   8.240  0.0286 -0.7198  0.4972
  549MOL0     C73989   2.951   4.121   8.218 -1.0926  0.2296  0.1919
  549MOL0     C73990   2.906   4.004   8.306  0.2741  0.0468  0.3633
  549MOL0     C73991   3.010   3.874   8.294 -0.2656 -1.1822 -0.7045
  549MOL0     C73992   2.998   3.799   8.167 -0.3464  0.0062  0.2543
  549MOL0     C73993   3.086   3.668   8.182  0.8357 -0.5467 -1.0321
  549MOL0     C73994   3.129   3.626   8.036 -0.2106  0.1289 -0.5485
  549MOL0     C73995   3.196   3.493   8.029  0.2582 -0.0601 -0.9450
  549MOL0     C73996   3.118   3.378   8.099  0.8444  0.0962 -0.6998
  549MOL0     N73997   3.193   3.257   8.079  0.6053  0.8350  0.0912
  549MOL0     C73998   3.197   3.170   7.967 -0.5966 -0.6212 -0.5091
  549MOL0     C73999   3.286   3.083   7.995 -0.0221  0.8971 -0.3510
  549MOL0     C74000   3.351   2.986   7.898  0.1140  0.3694 -0.1431
  549MOL0     C74001   3.325   2.855   7.966 -0.6716  0.7349  0.0531
  549MOL0     C74002   3.375   2.736   7.893  0.2503 -0.0370  0.6758
  549MOL0     C74003   3.517   2.765   7.818  0.2286  0.8047 -0.4913
  549MOL0     O74004   3.565   2.626   7.796 -0.8883  0.1433  0.1039
  549MOL0     C74005   3.645   2.558   7.897 -0.2734 -0.2774  1.0293
  549MOL0     C74006   3.701   2.432   7.868  0.0987  0.3239 -0.5669
  549MOL0     C74007   3.764   2.363   7.968  0.2850 -0.3604 -0.2682
  549MOL0     C74008   3.790   2.421   8.091  0.0969 -1.2554  0.5275
  549MOL0     C74009   3.868   2.339   8.192 -0.2404 -1.0857  0.7783
  549MOL0     O74010   3.907   2.216   8.148 -0.2925  0.9392  0.0253
  549MOL0     C74011   3.996   2.141   8.221 -0.1815  0.7647 -0.4702
  549MOL0     C74012   4.098   2.071   8.157  0.1891  1.3268 -1.1129
  549MOL0     C74013   4.183   1.986   8.243  0.3070 -0.2908 -0.2501
  549MOL0     C74014   4.184   1.982   8.384  1.2709 -0.2662 -0.2186
  549MOL0     O74015   4.269   1.900   8.448 -0.2669 -0.0961  0.1799
  549MOL0     C74016   4.339   1.952   8.570 -0.0952  0.2923  0.3893
  549MOL0     C74017   4.409   1.836   8.635 -0.4995 -0.2907 -0.3975
  549MOL0     C74018   4.512   1.891   8.741 -0.2439 -0.1665  0.0299
  549MOL0     C74019   4.612   1.797   8.793 -1.0249  0.4263 -0.2061
  549MOL0     C74020   4.719   1.774   8.691  0.5290  0.3482 -0.7515
  549MOL0     C74021   4.848   1.694   8.730 -0.4112  0.6730  0.2975
  549MOL0     C74022   4.903   1.723   8.873  0.0484 -0.4670  0.4803
  549MOL0     C74023   5.051   1.697   8.893  0.6918  0.6271  0.5848
  549MOL0    Cl74024   5.119   1.538   8.823  0.4515  0.1524  0.4762
  549MOL0     C74025   4.092   2.060   8.448 -0.6873  0.1057 -0.7086
  549MOL0     C74026   4.013   2.135   8.365 -0.8164 -0.2899 -0.3941
  549MOL0     O74027   3.878   2.384   8.307 -0.5852 -0.0818 -0.1779
  549MOL0     C74028   3.739   2.548   8.120  0.1335 -0.2847  0.4370
  549MOL0     C74029   3.659   2.614   8.024 -1.0959 -0.4013  1.2803
  549MOL0     N74030   3.350   3.108   8.114 -0.3928 -0.1970  0.3823
  549MOL0     N74031   3.284   3.215   8.162 -0.1960  0.1124 -0.8861
  549MOL0     C74032   2.928   4.342   8.017  0.6476 -0.7099  0.1096
  549MOL0     C74033   2.905   4.461   7.940  0.3481 -0.7119  0.0254
  549MOL0     C74034   2.697   4.796   7.755  0.4480 -0.4757  0.5489
  549MOL0     C74035   2.609   4.772   7.644  0.3201  0.4896 -0.0949
  549MOL0     C74036   2.566   4.878   7.560 -0.2073  1.2100  0.0965
  549MOL0     C74037   2.601   5.004   7.587 -0.1957  0.5592 -0.3200
  549MOL0     O74038   2.576   5.102   7.492  0.0657 -0.3898 -0.1185
  549MOL0     C74039   2.575   5.244   7.530  0.7243  1.2474 -0.4690
  549MOL0     C74040   2.501   5.321   7.423  0.7255  0.2223 -0.4496
  549MOL0     C74041   2.351   5.287   7.427 -0.3004 -0.0170  0.5394
  549MOL0     C74042   2.253   5.371   7.349  1.5095  0.4876 -0.1578
  549MOL0     C74043   2.248   5.323   7.209 -0.8405  0.3459 -0.3750
  549MOL0     C74044   2.269   5.270   7.100 -0.4470  0.0343  0.2494
  549MOL0     C74045   2.685   5.030   7.697 -0.7816  0.6663 -1.2678
  549MOL0     C74046   2.736   4.931   7.780  0.1942  0.5768 -1.0102
  549MOL0     C74047   2.819   4.971   7.897 -0.7213  0.0872 -0.3599
  549MOL0     H74048   2.782   4.667   8.184 -1.0754 -1.1601  0.6917
  549MOL0     H74049   2.781   4.462   8.305 -0.0560 -2.8740  0.0193
  549MOL0     H74050   2.943   4.081   8.116 -0.5036 -2.7109  1.2312
  549MOL0     H74051   3.054   4.144   8.247  0.4448 -0.8316 -3.7387
  549MOL0     H74052   2.804   3.984   8.271  0.3749  1.0920 -0.5551
  549MOL0     H74053   2.903   4.033   8.412 -1.1325 -0.9226  0.6205
  549MOL0     H74054   2.982   3.813   8.381  0.5833 -1.2380 -0.4624
  549MOL0     H74055   3.115   3.903   8.305  0.0269 -1.9615 -1.3361
  549MOL0     H74056   2.895   3.779   8.136 -0.1741 -1.4683  0.5558
  549MOL0     H74057   3.040   3.866   8.091  0.6255  0.9798  1.5848
  549MOL0     H74058   3.175   3.692   8.241  0.1905  2.2282 -1.0263
  549MOL0     H74059   3.028   3.589   8.229  1.7893 -0.6554 -0.0020
  549MOL0     H74060   3.043   3.624   7.968 -1.1597 -1.3778  0.6275
  549MOL0     H74061   3.194   3.704   7.996 -3.0444  2.4444 -1.0019
  549MOL0     H74062   3.293   3.490   8.078 -0.7605 -2.6417  1.1667
  549MOL0     H74063   3.218   3.469   7.924  2.8935  3.4922 -1.4001
  549MOL0     H74064   3.118   3.398   8.206  0.7175  0.0412 -0.6896
  549MOL0     H74065   3.013   3.367   8.072  0.4665 -0.6278  0.9523
  549MOL0     H74066   3.147   3.176   7.871 -1.4686 -1.3509 -0.1136
  549MOL0     H74067   3.310   2.999   7.798  1.8483  3.5665 -0.5799
  549MOL0     H74068   3.457   3.007   7.881 -0.2190  2.1339 -0.2693
  549MOL0     H74069   3.382   2.861   8.059  1.3633 -0.2478 -1.0625
  549MOL0     H74070   3.220   2.842   7.993 -0.6197 -1.5350 -0.6331
  549MOL0     H74071   3.309   2.691   7.818  1.1229 -3.1725  1.6375
  549MOL0     H74072   3.377   2.663   7.974 -1.6842 -0.1725  0.6489
  549MOL0     H74073   3.591   2.813   7.882 -0.9533  0.8336  0.8925
  549MOL0     H74074   3.503   2.823   7.726  3.8656  3.6593  0.5309
  549MOL0     H74075   3.675   2.392   7.771 -2.9024  3.5400 -1.3087
  549MOL0     H74076   3.796   2.262   7.944  1.3403 -0.8715  2.8330
  549MOL0     H74077   4.104   2.059   8.049 -1.6217  0.1297 -1.1370
  549MOL0     H74078   4.246   1.917   8.189  1.5433  1.1527 -0.7112
  549MOL0     H74079   4.410   2.028   8.538  1.2132 -1.3524 -0.8254
  549MOL0     H74080   4.268   1.992   8.644 -1.3221  2.1269 -1.6879
  549MOL0     H74081   4.343   1.757   8.672  0.5030 -0.8855  0.1796
  549MOL0     H74082   4.460   1.772   8.563  0.9037  1.9083 -1.4904
  549MOL0     H74083   4.567   1.979   8.705 -0.3438 -0.0430  0.1796
  549MOL0     H74084   4.452   1.926   8.826  1.2233  1.5039  0.4426
  549MOL0     H74085   4.557   1.703   8.810 -0.3666  0.6040  3.8485
  549MOL0     H74086   4.639   1.839   8.890 -3.5930 -0.0328  0.7784
  549MOL0     H74087   4.753   1.875   8.668  1.8617 -0.3091 -1.7708
  549MOL0     H74088   4.666   1.726   8.608  2.3682 -1.0479 -1.1801
  549MOL0     H74089   4.822   1.587   8.730  3.3909 -0.6466 -4.3469
  549MOL0     H74090   4.918   1.689   8.646  0.1774  0.3803  0.7911
  549MOL0     H74091   4.837   1.663   8.935  0.2609 -1.9386 -0.6711
  549MOL0     H74092   4.876   1.823   8.910  1.1144 -0.5180  1.4560
  549MOL0     H74093   5.117   1.773   8.849  3.1928 -0.0340  2.9284
  549MOL0     H74094   5.079   1.707   8.998 -0.4303  1.6080  0.8161
  549MOL0     H74095   4.084   2.055   8.557 -2.0039 -0.9074 -0.8255
  549MOL0     H74096   3.941   2.184   8.429  0.9172  0.6912  0.9012
  549MOL0     H74097   3.750   2.578   8.224  1.0726 -0.8980  0.5219
  549MOL0     H74098   3.611   2.708   8.050 -0.4490  0.8472 -1.6486
  549MOL0     H74099   2.958   4.253   7.963 -1.4200 -1.5164  0.2124
  549MOL0     H74100   2.927   4.455   7.834  0.8419 -0.1782  0.0903
  549MOL0     H74101   2.573   4.672   7.623  1.1600 -0.7319  3.6173
  549MOL0     H74102   2.506   4.845   7.476  3.4738 -2.1717 -1.5045
  549MOL0     H74103   2.678   5.277   7.545  0.7707  1.2547 -0.8014
  549MOL0     H74104   2.525   5.250   7.627 -1.9867 -2.3858 -1.4558
  549MOL0     H74105   2.528   5.288   7.322  2.2461 -0.8701  0.2866
  549MOL0     H74106   2.511   5.429   7.436  0.3178  0.1758  0.3184
  549MOL0     H74107   2.320   5.305   7.530  0.3509 -1.3108  0.9898
  549MOL0     H74108   2.335   5.180   7.409  0.4076 -0.5121  2.5976
  549MOL0     H74109   2.155   5.365   7.397 -0.2857  2.5800 -3.1621
  549MOL0     H74110   2.290   5.474   7.347  0.9405  0.7110 -2.0891
  549MOL0     H74111   2.285   5.219   7.007 -1.3012  1.6249 -0.8154
  549MOL0     H74112   2.705   5.134   7.723  1.0122  0.3838 -1.3814
  549MOL0     H74113   2.925   4.967   7.868 -0.1714  1.5061  1.3005
  549MOL0     H74114   2.783   5.069   7.929  3.4398  1.4602  0.7389
  549MOL0     H74115   2.802   4.910   7.986  3.4972 -0.8117  0.0760
  550MOL0     O74116   1.847   7.697   0.403  0.4920 -0.1896 -0.0584
  550MOL0     C74117   1.789   7.805   0.419  0.1983  0.3270 -0.1329
  550MOL0     O74118   1.671   7.827   0.484  0.4213  0.0594  0.4878
  550MOL0     C74119   1.646   7.722   0.572 -0.0185 -0.5218  0.0799
  550MOL0     C74120   1.563   7.605   0.552 -0.3037 -0.1958  0.4664
  550MOL0     C74121   1.562   7.503   0.651 -0.1313  0.7886 -0.3781
  550MOL0     C74122   1.623   7.513   0.775  0.5937 -0.3331 -0.1758
  550MOL0     O74123   1.619   7.421   0.878 -0.5663 -0.1202  0.0454
  550MOL0     C74124   1.535   7.308   0.867  0.5659 -0.4049 -0.5182
  550MOL0     C74125   1.517   7.250   1.006  0.3213 -0.2538  1.1455
  550MOL0     C74126   1.450   7.120   1.000  0.9759  0.1565  0.1951
  550MOL0     C74127   1.482   7.040   1.124  0.3320  0.1571  0.4146
  550MOL0     C74128   1.394   6.924   1.174  0.8380  0.1679  0.0317
  550MOL0     C74129   1.352   6.834   1.060  0.8554 -0.4661  1.1082
  550MOL0     C74130   1.282   6.712   1.104  0.5199  0.3327 -0.4739
  550MOL0     C74131   1.231   6.636   0.982  0.8498 -0.7680 -0.2618
  550MOL0     N74132   1.184   6.515   1.031  0.2470  0.5937  0.8306
  550MOL0     C74133   1.162   6.475   1.167 -0.1459 -0.6128  0.4363
  550MOL0     C74134   1.113   6.348   1.152 -0.7461  0.3782 -0.1359
  550MOL0     C74135   1.058   6.253   1.259 -1.3964  0.9997 -0.0133
  550MOL0     C74136   1.171   6.158   1.316 -0.3986  1.2088 -0.6364
  550MOL0     C74137   1.187   6.032   1.228 -0.5520 -0.5834  0.1091
  550MOL0     C74138   1.237   5.907   1.298 -0.1684  1.3157 -0.6504
  550MOL0     O74139   1.131   5.866   1.387 -0.4665  0.1154  0.4372
  550MOL0     C74140   1.168   5.768   1.472  0.8731  0.9752 -0.6457
  550MOL0     C74141   1.083   5.745   1.580  0.4804  0.0640  0.8722
  550MOL0     C74142   1.123   5.660   1.678  0.7857  0.7988 -0.1842
  550MOL0     C74143   1.227   5.574   1.664 -0.6569 -0.4930  0.4559
  550MOL0     C74144   1.254   5.481   1.780  0.2446  0.0023 -1.0864
  550MOL0     O74145   1.167   5.493   1.881  0.3278 -0.0723  0.3135
  550MOL0     C74146   1.163   5.407   1.984 -0.5429  0.6624 -0.8690
  550MOL0     C74147   1.175   5.269   1.968  0.5477 -0.1491 -0.4806
  550MOL0     C74148   1.184   5.188   2.078  0.7355  0.7502  1.1520
  550MOL0     C74149   1.181   5.233   2.206 -1.1400 -0.2425  0.1358
  550MOL0     O74150   1.200   5.141   2.306  0.5799  0.6064  0.1066
  550MOL0     C74151   1.287   5.187   2.410  0.3913  0.9023  0.3438
  550MOL0     C74152   1.367   5.062   2.466 -0.0705 -0.3565  0.1566
  550MOL0     C74153   1.300   4.985   2.575  0.5748  1.1974 -0.4828
  550MOL0     C74154   1.379   4.866   2.627  0.1195  0.5767 -0.0101
  550MOL0     C74155   1.291   4.768   2.712 -0.1737  0.5813 -0.5833
  550MOL0     C74156   1.362   4.638   2.719  0.5149  0.5171 -0.3989
  550MOL0     C74157   1.303   4.506   2.782  0.8525  0.3723 -0.7738
  550MOL0     C74158   1.198   4.455   2.685  0.3959 -1.0955  0.6663
  550MOL0    Cl74159   1.138   4.310   2.765 -0.2150 -0.0430 -0.1626
  550MOL0     C74160   1.139   5.369   2.225 -0.0540  0.8760 -0.0111
  550MOL0     C74161   1.140   5.455   2.116 -0.0862  0.1978  0.4486
  550MOL0     O74162   1.346   5.401   1.778  0.3499  0.2206  0.4379
  550MOL0     C74163   1.313   5.585   1.552 -0.0726  0.2606  0.6147
  550MOL0     C74164   1.277   5.677   1.448  0.8247  0.6600  0.1397
  550MOL0     N74165   1.133   6.307   1.022 -0.3381  0.1735  0.6337
  550MOL0     N74166   1.173   6.402   0.951 -0.5941  0.0300  0.7842
  550MOL0     C74167   1.691   7.629   0.797 -1.4728  0.2765 -0.3908
  550MOL0     C74168   1.705   7.732   0.705  0.7460 -0.8482 -0.0796
  550MOL0     C74169   1.859   7.929   0.355  0.2996  0.1974 -0.0248
  550MOL0     C74170   1.952   7.908   0.247  0.3404  0.5236  0.4970
  550MOL0     C74171   1.993   8.021   0.175  0.3878 -0.1142  0.0780
  550MOL0     C74172   1.945   8.148   0.197 -0.5834  0.0099  0.0373
  550MOL0     O74173   1.985   8.255   0.128  0.2937 -0.4459 -0.5464
  550MOL0     C74174   1.932   8.256  -0.002 -0.9981  0.3308 -0.1315
  550MOL0     C74175   1.977   8.370  -0.085 -0.2895 -0.7374  0.5006
  550MOL0     C74176   1.912   8.359  -0.227 -0.5071  0.8230 -0.5401
  550MOL0     C74177   1.825   8.471  -0.262  0.2171  0.5346  0.7346
  550MOL0     C74178   1.794   8.475  -0.407  0.0322 -0.8774  0.1466
  550MOL0     C74179   1.770   8.473  -0.529 -0.5858  0.7859  0.1287
  550MOL0     C74180   1.846   8.168   0.296  0.2137  0.2454 -0.5604
  550MOL0     C74181   1.816   8.058   0.382 -0.0830 -0.5418 -0.2780
  550MOL0     C74182   1.743   8.104   0.497  0.2798  0.0399  0.5514
  550MOL0     H74183   1.515   7.594   0.455 -1.7591 -2.0190  1.3368
  550MOL0     H74184   1.516   7.406   0.635 -0.2044  0.6359  0.6449
  550MOL0     H74185   1.432   7.336   0.842  0.7092  1.4473  0.7312
  550MOL0     H74186   1.581   7.238   0.796  1.0077 -1.1784  0.4964
  550MOL0     H74187   1.450   7.314   1.064 -1.0641  0.8032 -1.4244
  550MOL0     H74188   1.618   7.234   1.046 -0.1385 -2.8652  1.4536
  550MOL0     H74189   1.496   7.058   0.922  2.8512 -0.2316  1.5210
  550MOL0     H74190   1.343   7.134   0.986  0.9361 -0.9300 -0.7766
  550MOL0     H74191   1.582   7.003   1.101 -0.2172 -1.4424  0.4677
  550MOL0     H74192   1.482   7.108   1.209 -1.1671 -1.5512  1.8743
  550MOL0     H74193   1.454   6.870   1.248  1.2538  0.2533 -0.2385
  550MOL0     H74194   1.317   6.963   1.242  1.4346 -4.0743  3.6523
  550MOL0     H74195   1.278   6.885   0.998 -1.9890 -2.2674  2.8168
  550MOL0     H74196   1.436   6.812   0.994  0.9559  1.1825  0.6598
  550MOL0     H74197   1.192   6.720   1.166  0.0980 -4.4963 -0.0674
  550MOL0     H74198   1.360   6.653   1.153 -0.0884  1.3759  1.9355
  550MOL0     H74199   1.153   6.698   0.935  0.1305 -0.7462  0.9017
  550MOL0     H74200   1.301   6.621   0.900 -0.2797  0.5608 -1.5378
  550MOL0     H74201   1.168   6.533   1.258 -0.9107  0.2940 -0.0745
  550MOL0     H74202   1.011   6.314   1.338 -0.5041 -0.9162  2.1035
  550MOL0     H74203   0.978   6.191   1.217 -2.2744  1.6170  0.6982
  550MOL0     H74204   1.264   6.215   1.327  2.0430 -2.6544  0.8676
  550MOL0     H74205   1.142   6.133   1.419 -1.3203  0.8874 -0.9612
  550MOL0     H74206   1.254   6.046   1.143 -1.3194 -1.0844 -0.5949
  550MOL0     H74207   1.090   6.007   1.186 -0.8371 -0.0791  0.4523
  550MOL0     H74208   1.337   5.929   1.336  0.1344  0.8782 -1.1700
  550MOL0     H74209   1.263   5.829   1.226 -2.1331  1.4836 -1.6198
  550MOL0     H74210   0.994   5.805   1.595  0.3679 -0.5403  3.0130
  550MOL0     H74211   1.073   5.660   1.775  1.1452  0.6701  0.0008
  550MOL0     H74212   1.189   5.226   1.869  0.9313  0.0004 -0.4943
  550MOL0     H74213   1.203   5.086   2.046 -2.8230  1.1811 -3.2903
  550MOL0     H74214   1.345   5.269   2.367 -1.4878  0.5919 -3.1555
  550MOL0     H74215   1.225   5.221   2.493 -0.3268  1.1606 -0.2878
  550MOL0     H74216   1.400   4.996   2.385 -2.1296 -1.2867  0.0177
  550MOL0     H74217   1.459   5.101   2.509 -1.4018  0.7627  2.1249
  550MOL0     H74218   1.284   5.058   2.655  0.9378  4.6035 -3.2793
  550MOL0     H74219   1.205   4.943   2.541  1.2190 -1.2573  0.5549
  550MOL0     H74220   1.469   4.896   2.682  1.1443  0.3030 -1.4754
  550MOL0     H74221   1.409   4.818   2.533  0.1290 -1.0103  0.7699
  550MOL0     H74222   1.197   4.755   2.658  0.2663 -0.2486 -1.1717
  550MOL0     H74223   1.276   4.805   2.814  0.3022 -1.0778  0.1217
  550MOL0     H74224   1.383   4.619   2.613 -1.4699  6.0115 -2.1007
  550MOL0     H74225   1.446   4.669   2.781 -1.1249  1.5811  1.4038
  550MOL0     H74226   1.263   4.532   2.880  0.9576 -1.1925 -0.2781
  550MOL0     H74227   1.380   4.430   2.800  0.6790 -0.0382 -1.6742
  550MOL0     H74228   1.119   4.527   2.663  1.7796  0.4771  0.6385
  550MOL0     H74229   1.244   4.440   2.586  1.0968 -0.1597  0.8440
  550MOL0     H74230   1.125   5.408   2.325  1.3329 -0.4960  0.7700
  550MOL0     H74231   1.116   5.560   2.118 -2.7251 -0.3044 -0.9537
  550MOL0     H74232   1.397   5.518   1.535 -0.8273 -0.1026 -2.0461
  550MOL0     H74233   1.335   5.676   1.357  0.8149 -0.0877  0.1313
  550MOL0     H74234   1.737   7.645   0.895 -0.6533 -0.2930 -0.6708
  550MOL0     H74235   1.766   7.820   0.720 -0.4659 -0.0443  0.3301
  550MOL0     H74236   1.985   7.807   0.225  2.0405  0.9799  0.8060
  550MOL0     H74237   2.065   8.007   0.094  1.6089  0.4219  1.0449
  550MOL0     H74238   1.823   8.266   0.001 -0.9770  1.1870 -1.3576
  550MOL0     H74239   1.959   8.162  -0.051 -1.4667  0.0164  0.2030
  550MOL0     H74240   2.087   8.372  -0.089 -0.2469 -0.8833  1.3520
  550MOL0     H74241   1.964   8.466  -0.033  0.9882 -0.9166  1.1997
  550MOL0     H74242   1.849   8.270  -0.236 -2.1537  1.4943  2.6801
  550MOL0     H74243   1.998   8.342  -0.292  0.0992 -3.1878  1.0304
  550MOL0     H74244   1.731   8.462  -0.206 -1.6260  1.8433 -1.9279
  550MOL0     H74245   1.869   8.567  -0.232  1.1021  0.1729  0.5973
  550MOL0     H74246   1.737   8.459  -0.630  0.5603 -4.2426  0.2011
  550MOL0     H74247   1.815   8.270   0.315  0.6036  0.2522  0.0580
  550MOL0     H74248   1.758   8.210   0.523 -2.7302 -0.1096  3.5087
  550MOL0     H74249   1.642   8.078   0.466  0.7186  0.4182 -1.3235
  550MOL0     H74250   1.766   8.041   0.584 -2.8132 -2.8074 -0.5010
  551MOL0     O74251   9.179   0.890   6.396 -0.6163  0.2413  0.9356
  551MOL0     C74252   9.111   0.963   6.316  0.1799  1.1942  0.6953
  551MOL0     O74253   9.138   0.969   6.177  0.1692 -0.0225  0.1211
  551MOL0     C74254   9.237   0.901   6.117 -0.4211 -0.4180  0.7566
  551MOL0     C74255   9.304   0.966   6.018  0.0056 -0.6594 -0.6493
  551MOL0     C74256   9.413   0.910   5.954  0.2230 -0.8321 -0.4793
  551MOL0     C74257   9.468   0.792   5.991 -0.0521  0.0822  0.2511
  551MOL0     O74258   9.573   0.734   5.931  0.8412 -0.1661  0.3218
  551MOL0     C74259   9.686   0.699   6.008 -0.4854  0.0739  0.5438
  551MOL0     C74260   9.804   0.733   5.912 -0.5329  0.4957 -0.6709
  551MOL0     C74261   9.931   0.708   5.987 -1.2541  0.4200 -0.5213
  551MOL0     C74262  10.034   0.786   5.923 -1.0344 -0.4165 -0.0835
  551MOL0     C74263  10.183   0.745   5.961  0.0324  0.6199 -0.0007
  551MOL0     C74264  10.223   0.796   6.097  0.4372  1.3013 -0.2365
  551MOL0     C74265  10.368   0.757   6.120 -0.1846  0.5934  0.1737
  551MOL0     C74266  10.437   0.835   6.229  0.0407  0.0177 -0.2013
  551MOL0     N74267  10.409   0.776   6.366  0.5139 -0.0623 -0.5578
  551MOL0     C74268  10.305   0.818   6.441 -0.5187 -0.2393  0.2948
  551MOL0     C74269  10.329   0.776   6.564 -0.8098 -0.0496  0.3344
  551MOL0     C74270  10.216   0.785   6.667  0.0728  0.2349  0.2076
  551MOL0     C74271  10.248   0.871   6.794  0.0230  0.2519 -0.5574
  551MOL0     C74272  10.325   1.004   6.780  0.1409  0.1903  0.4824
  551MOL0     C74273  10.399   1.043   6.910  0.0144  0.4352  0.1863
  551MOL0     O74274  10.322   1.054   7.027  0.2118  0.3769  0.5109
  551MOL0     C74275  10.383   1.120   7.129  0.0876  0.2985 -1.0641
  551MOL0     C74276  10.522   1.140   7.150 -0.1756  0.5143 -0.0656
  551MOL0     C74277  10.577   1.186   7.262  0.4491 -0.8803  0.4374
  551MOL0     C74278  10.489   1.233   7.359  0.4626  0.6385 -0.3875
  551MOL0     C74279  10.541   1.287   7.486 -0.3669  0.2184 -0.0272
  551MOL0     O74280  10.674   1.242   7.511  0.7219  0.2240 -0.1030
  551MOL0     C74281  10.728   1.270   7.631 -0.5020  0.2266 -0.1835
  551MOL0     C74282  10.855   1.337   7.637  0.5835  0.2593  0.8122
  551MOL0     C74283  10.925   1.359   7.753 -0.4629  0.3747 -0.5269
  551MOL0     C74284  10.868   1.317   7.866  0.6765  0.1020 -0.9809
  551MOL0     O74285  10.933   1.346   7.981 -0.5002 -0.4790  0.2897
  551MOL0     C74286  10.884   1.294   8.108  0.3410  0.7473  0.1714
  551MOL0     C74287  10.931   1.149   8.125  0.4179  0.1779  0.1505
  551MOL0     C74288  10.853   1.077   8.230 -0.1557  0.0903 -0.3058
  551MOL0     C74289  10.871   1.128   8.374  0.5142  0.3036 -0.7217
  551MOL0     C74290  10.850   1.005   8.474 -0.7477 -0.0502 -0.6258
  551MOL0     C74291  10.932   1.019   8.607 -0.9465 -0.4924  0.2097
  551MOL0     C74292  10.918   0.890   8.697  1.2291  0.9001 -0.1069
  551MOL0     C74293  11.025   0.884   8.803 -0.2628  0.0526 -0.5012
  551MOL0    Cl74294  11.006   1.028   8.908 -0.3658  0.2342  0.5601
  551MOL0     C74295  10.735   1.254   7.870  0.4562  0.2790 -1.0611
  551MOL0     C74296  10.670   1.237   7.753 -1.0012 -0.0327 -0.2307
  551MOL0     O74297  10.467   1.349   7.562  0.3419  0.3104 -0.3429
  551MOL0     C74298  10.346   1.223   7.344 -0.1386 -0.0500 -0.4782
  551MOL0     C74299  10.300   1.162   7.227 -0.7591 -0.1717  0.3473
  551MOL0     N74300  10.453   0.707   6.557  0.0656  0.1859 -0.2903
  551MOL0     N74301  10.507   0.714   6.441 -0.0462  0.2403 -0.5138
  551MOL0     C74302   9.396   0.720   6.091  0.1549 -0.0442  0.4211
  551MOL0     C74303   9.279   0.773   6.150  0.6493 -0.2287 -0.1576
  551MOL0     C74304   8.996   1.046   6.373  0.2134 -0.5558 -0.2390
  551MOL0     C74305   8.966   1.160   6.300 -0.2860 -0.9239  0.1423
  551MOL0     C74306   8.853   1.243   6.330  0.3946  0.0892 -0.9540
  551MOL0     C74307   8.768   1.209   6.442  0.1920 -0.3507  0.5911
  551MOL0     O74308   8.655   1.290   6.471  1.1716 -0.0943 -1.0367
  551MOL0     C74309   8.608   1.313   6.601 -0.1815  0.1642  0.0635
  551MOL0     C74310   8.690   1.433   6.652  0.7925  0.3861 -0.2866
  551MOL0     C74311   8.762   1.530   6.554 -0.2339  0.1968  0.6979
  551MOL0     C74312   8.690   1.655   6.515  0.8732 -0.1006  0.3164
  551MOL0     C74313   8.545   1.633   6.480  0.4896  0.5908 -0.8349
  551MOL0     C74314   8.423   1.614   6.456 -0.3064  0.0789 -0.7553
  551MOL0     C74315   8.793   1.090   6.516 -0.3532  0.1876  0.0817
  551MOL0     C74316   8.910   1.011   6.478 -0.3831 -0.3258  0.0111
  551MOL0     C74317   8.940   0.881   6.549 -0.3780 -0.2180  0.1335
  551MOL0     H74318   9.264   1.060   5.983  1.4143 -0.2824 -1.2952
  551MOL0     H74319   9.454   0.970   5.874  0.0933  1.0145  0.7683
  551MOL0     H74320   9.690   0.746   6.107 -3.8570  0.4890  0.5833
  551MOL0     H74321   9.689   0.591   6.026 -1.0047  0.4814  3.6726
  551MOL0     H74322   9.811   0.837   5.879  1.0992  0.2642 -1.1425
  551MOL0     H74323   9.808   0.664   5.828  1.8823  0.6010 -0.7169
  551MOL0     H74324   9.956   0.602   5.991  0.1147  0.7589  0.1894
  551MOL0     H74325   9.924   0.750   6.088  4.0911 -1.3817  0.9276
  551MOL0     H74326  10.024   0.775   5.815 -0.2366 -1.5636 -0.0646
  551MOL0     H74327  10.019   0.890   5.955 -1.1333 -0.4799  0.0814
  551MOL0     H74328  10.188   0.636   5.957  0.3006  0.5589  1.5033
  551MOL0     H74329  10.248   0.797   5.890  2.4639 -0.6535  1.1556
  551MOL0     H74330  10.215   0.905   6.096  2.6710  1.5128 -0.6375
  551MOL0     H74331  10.164   0.750   6.176 -0.1760  0.8551 -0.9428
  551MOL0     H74332  10.429   0.774   6.031 -0.0844  2.4142  0.5547
  551MOL0     H74333  10.379   0.649   6.130 -0.6090  0.2749 -2.3287
  551MOL0     H74334  10.545   0.839   6.214 -0.0891 -0.1379 -1.2374
  551MOL0     H74335  10.404   0.939   6.230  0.9092  0.3745 -2.2612
  551MOL0     H74336  10.213   0.866   6.409 -1.6597 -2.4639  0.0463
  551MOL0     H74337  10.118   0.813   6.629 -0.4859  1.0045  2.0814
  551MOL0     H74338  10.210   0.687   6.715  2.2866  0.4585  1.0978
  551MOL0     H74339  10.148   0.881   6.837  0.2873 -2.9800  1.1056
  551MOL0     H74340  10.306   0.811   6.865 -1.3850 -0.1748  0.2656
  551MOL0     H74341  10.254   1.085   6.763  0.2354 -0.4107 -3.8862
  551MOL0     H74342  10.401   0.998   6.701 -1.2170 -1.8255 -0.7671
  551MOL0     H74343  10.437   1.145   6.900 -0.2846  0.4101 -1.4080
  551MOL0     H74344  10.491   0.984   6.921 -2.0347 -2.5765  3.6859
  551MOL0     H74345  10.590   1.085   7.085  1.1944 -0.5862  2.1945
  551MOL0     H74346  10.684   1.180   7.277  0.9611 -2.2179 -2.8830
  551MOL0     H74347  10.903   1.367   7.545 -2.8055 -0.7547 -1.5198
  551MOL0     H74348  11.029   1.388   7.752 -0.4284  0.3453  0.5879
  551MOL0     H74349  10.924   1.355   8.189  1.3063 -0.7506  0.8661
  551MOL0     H74350  10.776   1.289   8.122  0.0931  1.0000 -1.4505
  551MOL0     H74351  10.902   1.082   8.043  1.9033 -0.9172  0.4678
  551MOL0     H74352  11.040   1.137   8.133  0.3511 -0.2265  0.5090
  551MOL0     H74353  10.748   1.072   8.201 -0.3647 -0.7106  0.5335
  551MOL0     H74354  10.898   0.977   8.231  0.8747  0.5072  1.9219
  551MOL0     H74355  10.802   1.213   8.387 -2.1537 -1.4300 -2.5277
  551MOL0     H74356  10.974   1.166   8.376  0.3410  0.8389  1.9109
  551MOL0     H74357  10.895   0.918   8.424  1.3917  1.6369 -1.8442
  551MOL0     H74358  10.744   0.992   8.495 -1.6113  4.4970 -1.1617
  551MOL0     H74359  11.038   1.024   8.580 -1.4950  0.7526 -1.9639
  551MOL0     H74360  10.921   1.111   8.666  3.8392  1.2025 -1.0980
  551MOL0     H74361  10.925   0.802   8.633  0.1345  0.6120  0.1645
  551MOL0     H74362  10.821   0.897   8.745  2.3728 -0.1372  2.5605
  551MOL0     H74363  11.014   0.790   8.858  3.4142 -0.7614 -0.8636
  551MOL0     H74364  11.121   0.871   8.752  0.1065 -4.9840  0.9042
  551MOL0     H74365  10.685   1.219   7.960  2.8983 -0.1057  0.2628
  551MOL0     H74366  10.566   1.205   7.762 -0.5297 -2.2201 -1.7764
  551MOL0     H74367  10.278   1.255   7.422  3.0070 -0.9350  2.9173
  551MOL0     H74368  10.193   1.150   7.216 -0.7894 -1.2555  1.5968
  551MOL0     H74369   9.436   0.622   6.114 -0.1883 -0.3412 -0.2382
  551MOL0     H74370   9.221   0.708   6.215  1.2202 -1.7251 -1.0858
  551MOL0     H74371   9.015   1.197   6.210 -1.2615 -0.6374 -0.2871
  551MOL0     H74372   8.831   1.341   6.289 -0.0770 -0.1209 -1.2164
  551MOL0     H74373   8.612   1.226   6.666 -0.7338  0.0926  0.0055
  551MOL0     H74374   8.502   1.338   6.591 -0.6948 -2.1405 -0.9495
  551MOL0     H74375   8.773   1.399   6.714  1.8508  3.6056  0.2130
  551MOL0     H74376   8.619   1.481   6.720 -1.4251 -2.9255  0.0167
  551MOL0     H74377   8.794   1.472   6.466  1.6768  0.9628  0.8407
  551MOL0     H74378   8.851   1.565   6.606 -1.2339  3.0344  0.6646
  551MOL0     H74379   8.698   1.729   6.595  2.1744 -0.0574  0.1743
  551MOL0     H74380   8.734   1.696   6.423 -2.5560  0.3107 -1.2859
  551MOL0     H74381   8.317   1.600   6.446 -0.7573  1.6208  1.1923
  551MOL0     H74382   8.727   1.060   6.597 -0.4737 -1.3922 -0.5694
  551MOL0     H74383   9.040   0.877   6.593 -0.5444 -0.5681  0.4903
  551MOL0     H74384   8.863   0.866   6.626 -1.2093 -1.1971 -0.8689
  551MOL0     H74385   8.922   0.804   6.474 -3.7670  1.0114 -0.5381
  552MOL0     O74386   1.606   2.024   9.443 -0.5150  0.3321 -0.8716
  552MOL0     C74387   1.715   2.074   9.408  0.5709 -0.2820 -0.3494
  552MOL0     O74388   1.733   2.190   9.344 -0.2134 -0.2530  0.6246
  552MOL0     C74389   1.622   2.254   9.297  0.2460  0.5513  0.0709
  552MOL0     C74390   1.547   2.340   9.378 -1.1580  0.0217 -0.5547
  552MOL0     C74391   1.433   2.404   9.338  0.6693  0.7690 -0.1689
  552MOL0     C74392   1.386   2.380   9.203  0.7268 -0.1070  0.7599
  552MOL0     O74393   1.265   2.424   9.166 -0.0418  0.4104 -0.5172
  552MOL0     C74394   1.245   2.559   9.132  0.2767 -1.4696  0.3889
  552MOL0     C74395   1.356   2.601   9.028 -0.4391 -0.5918  0.7055
  552MOL0     C74396   1.323   2.547   8.888 -0.4208  1.1493 -0.0138
  552MOL0     C74397   1.449   2.519   8.801 -0.9018  0.1811  0.2903
  552MOL0     C74398   1.419   2.457   8.667  0.2772 -0.1022  0.2765
  552MOL0     C74399   1.299   2.529   8.594  0.1344 -0.2195  0.0127
  552MOL0     C74400   1.303   2.512   8.450 -0.6475 -0.2383  1.0307
  552MOL0     C74401   1.238   2.378   8.407 -0.4006  0.0106 -0.4520
  552MOL0     N74402   1.347   2.275   8.395  0.1733 -0.0909 -0.1856
  552MOL0     C74403   1.465   2.276   8.325  0.7089  0.0337 -0.1567
  552MOL0     C74404   1.527   2.161   8.363  1.1165 -0.9368 -0.5051
  552MOL0     C74405   1.652   2.098   8.304  0.2314 -0.6586 -0.5978
  552MOL0     C74406   1.627   1.997   8.188  0.1549 -0.8015 -0.4398
  552MOL0     C74407   1.582   1.859   8.232 -0.2680 -1.0499  0.0639
  552MOL0     C74408   1.627   1.750   8.123 -0.5402  0.5409 -0.2540
  552MOL0     O74409   1.623   1.801   7.989  0.2126 -0.3518 -1.2976
  552MOL0     C74410   1.501   1.776   7.920  0.3472  0.0231  0.0764
  552MOL0     C74411   1.381   1.726   7.971 -0.6015 -0.3087  0.1471
  552MOL0     C74412   1.278   1.685   7.884  0.4478  0.1225 -0.9104
  552MOL0     C74413   1.274   1.700   7.744  0.6906  0.8669 -0.4108
  552MOL0     C74414   1.160   1.673   7.658  0.9929 -0.5309  0.0180
  552MOL0     O74415   1.143   1.759   7.553 -0.5538 -0.2428 -0.4711
  552MOL0     C74416   1.024   1.756   7.482  0.1755  1.1626 -0.4184
  552MOL0     C74417   0.964   1.876   7.448  0.0639  0.2631 -0.2926
  552MOL0     C74418   0.871   1.886   7.345 -0.1359 -0.6825 -0.4895
  552MOL0     C74419   0.816   1.772   7.289 -0.1198  0.4197  0.0695
  552MOL0     O74420   0.721   1.773   7.195 -0.0866  0.1216 -0.1888
  552MOL0     C74421   0.607   1.863   7.226  0.2369  0.4307  1.4594
  552MOL0     C74422   0.522   1.840   7.102 -0.0642  0.5816 -0.2373
  552MOL0     C74423   0.385   1.911   7.116 -0.7487  0.4706  0.3006
  552MOL0     C74424   0.409   2.066   7.118  0.0170 -0.3804 -0.0857
  552MOL0     C74425   0.471   2.118   6.993  0.2336  0.3787 -0.1124
  552MOL0     C74426   0.418   2.258   6.971  0.1048 -0.4720 -0.1595
  552MOL0     C74427   0.477   2.341   6.855  0.4031  1.7154  0.0684
  552MOL0     C74428   0.436   2.299   6.705 -0.1398  0.1646 -0.2904
  552MOL0    Cl74429   0.248   2.315   6.677 -0.2729 -0.4364  0.1330
  552MOL0     C74430   0.879   1.646   7.318  0.4777 -0.2154 -1.0802
  552MOL0     C74431   0.982   1.641   7.415  0.2309 -0.2633  0.6000
  552MOL0     O74432   1.066   1.594   7.689  0.5636  0.4466 -0.5846
  552MOL0     C74433   1.392   1.756   7.693  0.4287  0.8375  0.4017
  552MOL0     C74434   1.503   1.789   7.779 -0.5034  0.7036  0.4023
  552MOL0     N74435   1.447   2.096   8.458  0.1582 -0.0956  0.2637
  552MOL0     N74436   1.345   2.166   8.484  0.4415 -0.9724 -0.0853
  552MOL0     C74437   1.460   2.291   9.118 -0.6411 -0.3937 -0.4260
  552MOL0     C74438   1.582   2.233   9.162  0.3958  0.5969 -0.2287
  552MOL0     C74439   1.833   1.999   9.442  0.2203  0.4605  0.7085
  552MOL0     C74440   1.945   2.015   9.352  0.0214  0.2458  0.0708
  552MOL0     C74441   2.064   1.943   9.369 -0.1113  0.1369 -0.4836
  552MOL0     C74442   2.080   1.845   9.472  0.1440  0.3280 -0.3464
  552MOL0     O74443   2.189   1.763   9.503 -0.1919  0.0249  0.0922
  552MOL0     C74444   2.295   1.757   9.404  0.4384  0.1647  0.5971
  552MOL0     C74445   2.267   1.656   9.301  0.2323 -0.6044 -0.8919
  552MOL0     C74446   2.274   1.509   9.351  0.6257  0.2227  0.2806
  552MOL0     C74447   2.226   1.407   9.241 -0.0525 -1.0526  0.3316
  552MOL0     C74448   2.334   1.384   9.142 -0.2200  0.2100  0.1241
  552MOL0     C74449   2.430   1.373   9.070 -0.3831 -0.0483  0.1457
  552MOL0     C74450   1.973   1.831   9.557  0.3079  0.3178  0.2346
  552MOL0     C74451   1.851   1.905   9.545  0.0157  0.4977 -0.4715
  552MOL0     C74452   1.740   1.866   9.643 -0.7927 -0.0268 -0.0700
  552MOL0     H74453   1.577   2.353   9.481 -1.4173  0.1160 -0.4929
  552MOL0     H74454   1.378   2.473   9.401 -1.0151  0.0341 -0.7766
  552MOL0     H74455   1.142   2.573   9.097 -0.4198  0.4010  2.8765
  552MOL0     H74456   1.267   2.624   9.217 -2.1713 -3.5000  2.7779
  552MOL0     H74457   1.455   2.564   9.055 -0.1723 -1.9778 -1.8697
  552MOL0     H74458   1.366   2.710   9.026  1.1513 -0.6390  3.0625
  552MOL0     H74459   1.251   2.606   8.831 -2.0267 -1.8049 -1.2554
  552MOL0     H74460   1.264   2.455   8.895  1.3583  0.0943  4.2869
  552MOL0     H74461   1.494   2.616   8.778 -0.7016  0.0109 -0.0276
  552MOL0     H74462   1.522   2.459   8.855  0.1436 -2.3844 -3.6306
  552MOL0     H74463   1.509   2.459   8.604  0.8998 -1.9262  1.0170
  552MOL0     H74464   1.398   2.350   8.681 -4.2455 -0.0619 -3.8544
  552MOL0     H74465   1.197   2.517   8.630  0.6764 -1.0252  1.4189
  552MOL0     H74466   1.328   2.633   8.613 -0.6496  0.4963 -2.3703
  552MOL0     H74467   1.402   2.541   8.413 -0.3766 -1.5875  0.6235
  552MOL0     H74468   1.248   2.593   8.401  1.7220  0.0144 -1.4821
  552MOL0     H74469   1.156   2.339   8.469  0.8712  0.9384  1.9252
  552MOL0     H74470   1.188   2.394   8.311  1.7203 -2.6876 -2.1457
  552MOL0     H74471   1.506   2.354   8.261 -0.6350  1.0071  0.1239
  552MOL0     H74472   1.721   2.178   8.277 -0.7356  0.9094  1.3299
  552MOL0     H74473   1.709   2.046   8.383 -0.0138 -2.3893 -1.5248
  552MOL0     H74474   1.565   2.035   8.107  0.4753 -0.4309 -0.5127
  552MOL0     H74475   1.730   1.992   8.153  0.8821  1.5036  1.1434
  552MOL0     H74476   1.475   1.842   8.246 -0.0266 -1.1891  2.1065
  552MOL0     H74477   1.639   1.834   8.322  2.2456  0.4067 -1.0330
  552MOL0     H74478   1.595   1.646   8.129  3.5056 -0.8905 -0.2903
  552MOL0     H74479   1.735   1.738   8.130 -0.6413 -0.6080 -0.5442
  552MOL0     H74480   1.376   1.695   8.075 -2.2576 -0.5033  0.0350
  552MOL0     H74481   1.196   1.630   7.930  0.0348  1.4454  0.0108
  552MOL0     H74482   1.002   1.974   7.477 -0.8333  0.6616 -0.4482
  552MOL0     H74483   0.836   1.987   7.326 -0.3119 -0.5172  0.6498
  552MOL0     H74484   0.550   1.842   7.317  2.1101 -5.3989  1.7084
  552MOL0     H74485   0.636   1.968   7.221  1.1636  0.1551  0.4742
  552MOL0     H74486   0.577   1.872   7.013 -0.8579 -0.7247 -1.2367
  552MOL0     H74487   0.499   1.733   7.104  0.7270  0.2631  4.9161
  552MOL0     H74488   0.318   1.876   7.037  0.9255  0.2881 -1.1037
  552MOL0     H74489   0.335   1.874   7.206 -1.9841  2.1842  0.3671
  552MOL0     H74490   0.467   2.100   7.205  2.3927 -2.2821 -0.8086
  552MOL0     H74491   0.315   2.115   7.143  0.6622  0.5476  0.5839
  552MOL0     H74492   0.447   2.061   6.903 -1.1536 -1.5354  1.3848
  552MOL0     H74493   0.580   2.117   6.997  0.4162  3.2571 -1.5265
  552MOL0     H74494   0.310   2.250   6.955 -0.4576  1.4578  2.1172
  552MOL0     H74495   0.425   2.305   7.069  0.9022 -1.2211  0.1585
  552MOL0     H74496   0.585   2.323   6.860 -0.0983 -4.2532 -2.6351
  552MOL0     H74497   0.449   2.447   6.862  1.6243  2.1149 -0.7142
  552MOL0     H74498   0.476   2.371   6.634 -1.7042  1.3044 -0.0548
  552MOL0     H74499   0.449   2.193   6.680  0.8001  0.0000  0.8318
  552MOL0     H74500   0.853   1.558   7.261  0.5672 -2.2481  1.8077
  552MOL0     H74501   1.026   1.548   7.451  1.5804  0.8206  1.9072
  552MOL0     H74502   1.408   1.776   7.588 -0.2584 -1.5384 -0.1990
  552MOL0     H74503   1.587   1.838   7.732  0.2428  0.9516  1.9291
  552MOL0     H74504   1.412   2.265   9.024  2.9753  0.9725 -2.8478
  552MOL0     H74505   1.635   2.152   9.112 -0.2044 -1.1979  1.8768
  552MOL0     H74506   1.935   2.089   9.274  0.4787  2.1455  1.7283
  552MOL0     H74507   2.140   1.966   9.295  0.1931  0.3849 -0.0986
  552MOL0     H74508   2.380   1.724   9.463  0.6127 -1.6548 -0.5988
  552MOL0     H74509   2.319   1.856   9.364  0.8978  0.4947  1.6447
  552MOL0     H74510   2.340   1.661   9.220 -1.5147 -0.6278 -2.5313
  552MOL0     H74511   2.174   1.679   9.248  0.2128 -4.1350 -2.6968
  552MOL0     H74512   2.202   1.491   9.431 -1.8702  1.2124 -1.6260
  552MOL0     H74513   2.375   1.477   9.379  0.5108 -2.1518 -1.6208
  552MOL0     H74514   2.198   1.313   9.291  1.0864 -0.9553  1.1736
  552MOL0     H74515   2.137   1.438   9.184 -1.0995  0.1644  2.4974
  552MOL0     H74516   2.517   1.360   9.009 -1.6521  0.6926 -1.9325
  552MOL0     H74517   1.977   1.747   9.626 -1.0032  1.7053  2.1178
  552MOL0     H74518   1.702   1.957   9.691 -1.2256  0.0208 -0.4927
  552MOL0     H74519   1.657   1.826   9.583 -0.3193 -0.9777 -0.1063
  552MOL0     H74520   1.761   1.796   9.724 -0.0482 -0.1751 -0.3865
  553MOL0     O74521   2.379  10.038  11.318 -0.6034  0.0281  0.2473
  553MOL0     C74522   2.417  10.007  11.204 -0.3681 -0.4332  0.2436
  553MOL0     O74523   2.422   9.878  11.159 -0.0963 -0.5022  0.3699
  553MOL0     C74524   2.398   9.772  11.244 -0.1982  0.3007 -0.4686
  553MOL0     C74525   2.278   9.755  11.321  0.0685 -0.0684 -0.3247
  553MOL0     C74526   2.259   9.627  11.385  0.9927 -0.4065  0.5300
  553MOL0     C74527   2.349   9.530  11.383 -0.4995  0.7261 -0.5566
  553MOL0     O74528   2.312   9.418  11.445 -0.2176 -0.0772  0.0314
  553MOL0     C74529   2.413   9.329  11.489  0.4876 -0.3682 -1.0328
  553MOL0     C74530   2.352   9.223  11.579 -0.4241 -0.2586  0.3161
  553MOL0     C74531   2.234   9.149  11.513  0.0045 -1.2423  0.6807
  553MOL0     C74532   2.154   9.060  11.605 -0.4770 -1.0282  0.1926
  553MOL0     C74533   2.037   8.995  11.525 -0.2203 -0.2064  0.2900
  553MOL0     C74534   1.917   8.973  11.628  0.0627  0.9928  0.1709
  553MOL0     C74535   1.954   8.847  11.720 -0.3963  0.3312 -0.2432
  553MOL0     C74536   1.832   8.785  11.784 -0.7028 -0.7513 -0.5016
  553MOL0     N74537   1.880   8.678  11.884  0.8369 -0.5707  0.1067
  553MOL0     C74538   1.914   8.707  12.014 -0.2715  0.0448  0.1792
  553MOL0     C74539   1.962   8.587  12.063 -0.0482  0.1388  0.0444
  553MOL0     C74540   2.035   8.558  12.194  0.4586 -0.1530  0.2970
  553MOL0     C74541   2.172   8.632  12.193 -0.0686 -0.3520  0.1826
  553MOL0     C74542   2.244   8.599  12.324  0.3056 -0.2035  0.1828
  553MOL0     C74543   2.381   8.673  12.339  0.4187 -0.5493  0.0249
  553MOL0     O74544   2.475   8.599  12.263 -0.9814 -1.1351 -0.6138
  553MOL0     C74545   2.611   8.634  12.264  0.1295 -0.4037 -0.2192
  553MOL0     C74546   2.685   8.567  12.163 -0.4788 -0.4039 -0.6119
  553MOL0     C74547   2.816   8.607  12.142 -0.5132 -0.7479  0.6302
  553MOL0     C74548   2.874   8.712  12.219  0.4731  0.2500 -0.3439
  553MOL0     C74549   3.021   8.743  12.196 -0.4150 -0.3987 -0.6032
  553MOL0     O74550   3.077   8.844  12.275  0.2738 -0.3952 -1.1148
  553MOL0     C74551   3.213   8.840  12.298 -0.7952  0.0007  1.0204
  553MOL0     C74552   3.289   8.734  12.352 -0.7303  0.4578 -0.4612
  553MOL0     C74553   3.426   8.742  12.366 -1.0672  0.1330 -0.2037
  553MOL0     C74554   3.497   8.854  12.320  0.4216 -0.5201 -0.9016
  553MOL0     O74555   3.634   8.865  12.319 -0.6969 -0.0954  0.0533
  553MOL0     C74556   3.725   8.773  12.387  0.2024  0.0279  0.2813
  553MOL0     C74557   3.862   8.844  12.377  0.5378 -0.4507  0.4043
  553MOL0     C74558   3.981   8.772  12.433  1.2160 -0.3281 -0.3462
  553MOL0     C74559   4.111   8.865  12.424 -0.0220  0.9092  0.5573
  553MOL0     C74560   4.236   8.797  12.484  0.4859 -0.0322  0.7877
  553MOL0     C74561   4.346   8.899  12.472  0.4456 -0.3448  0.1574
  553MOL0     C74562   4.472   8.834  12.546  1.2067 -0.0072 -0.0187
  553MOL0     C74563   4.597   8.910  12.540  0.8654 -0.1940 -0.0117
  553MOL0    Cl74564   4.731   8.856  12.632  0.0826 -0.6053  0.2228
  553MOL0     C74565   3.423   8.966  12.277  1.1852  0.2110  0.3076
  553MOL0     C74566   3.283   8.958  12.268 -1.2752  0.1603  0.8370
  553MOL0     O74567   3.080   8.671  12.116  0.1076 -0.0261  0.5637
  553MOL0     C74568   2.799   8.772  12.320  0.9155 -0.3581 -0.7066
  553MOL0     C74569   2.663   8.738  12.343 -0.0931 -0.0961  0.6057
  553MOL0     N74570   1.933   8.493  11.966 -0.0650 -0.3231 -0.5968
  553MOL0     N74571   1.889   8.543  11.861  0.2200 -0.1764  0.1609
  553MOL0     C74572   2.464   9.541  11.305  0.4335 -0.7136  0.2792
  553MOL0     C74573   2.485   9.663  11.243 -0.2916 -0.5847  0.2301
  553MOL0     C74574   2.450  10.118  11.110 -0.3881  0.6396  0.1948
  553MOL0     C74575   2.538  10.075  11.005 -0.3533 -0.1850 -0.1863
  553MOL0     C74576   2.593  10.174  10.922  0.2121  0.4260  0.5041
  553MOL0     C74577   2.578  10.314  10.955  0.4951 -0.9620  0.1786
  553MOL0     O74578   2.650  10.424  10.905  0.1120 -0.0445 -0.7306
  553MOL0     C74579   2.750  10.412  10.800  0.2375 -0.5206  0.2275
  553MOL0     C74580   2.883  10.354  10.858  0.1215 -0.0060 -0.3609
  553MOL0     C74581   2.966  10.449  10.954 -0.3529  0.2227  0.4890
  553MOL0     C74582   3.049  10.368  11.050 -0.8173  0.5068  0.1529
  553MOL0     C74583   3.148  10.295  10.964 -0.2181  0.2927  0.1997
  553MOL0     C74584   3.221  10.232  10.898 -0.4414  0.4435  0.5874
  553MOL0     C74585   2.488  10.353  11.059  0.0354  0.0945 -0.6201
  553MOL0     C74586   2.420  10.255  11.130 -0.2356 -0.3608  0.4363
  553MOL0     C74587   2.334  10.318  11.236 -0.6153 -0.5364 -0.1726
  553MOL0     H74588   2.197   9.827  11.328 -2.7137 -2.9260 -0.8428
  553MOL0     H74589   2.165   9.610  11.436  0.4860 -3.7834 -1.2631
  553MOL0     H74590   2.452   9.280  11.400 -0.1092 -3.2480  0.1748
  553MOL0     H74591   2.495   9.378  11.542 -0.6663 -0.3168  0.7919
  553MOL0     H74592   2.324   9.278  11.669 -1.9203  3.0244 -1.9735
  553MOL0     H74593   2.415   9.135  11.596  0.5839  0.2985 -0.4442
  553MOL0     H74594   2.281   9.087  11.437  1.6209  1.8252 -1.0014
  553MOL0     H74595   2.169   9.218  11.458  1.0232 -0.7621  0.0398
  553MOL0     H74596   2.222   8.981  11.638 -0.1878 -0.5733  0.6949
  553MOL0     H74597   2.129   9.119  11.694 -1.4483 -1.0079 -0.0869
  553MOL0     H74598   2.000   9.061  11.446 -1.0411 -1.6483 -0.5755
  553MOL0     H74599   2.067   8.900  11.479  0.8216  1.1531 -2.0571
  553MOL0     H74600   1.906   9.060  11.693 -1.9880  0.2538  0.9015
  553MOL0     H74601   1.829   8.949  11.566  1.4358 -2.5242 -0.6704
  553MOL0     H74602   2.034   8.884  11.785  0.0624  3.9262 -2.6346
  553MOL0     H74603   2.001   8.766  11.663 -0.0292 -0.3718  1.0003
  553MOL0     H74604   1.771   8.865  11.826 -2.5721 -2.6905  0.7542
  553MOL0     H74605   1.772   8.725  11.714 -1.9207 -0.5899  0.3732
  553MOL0     H74606   1.893   8.804  12.058 -2.9944 -0.3973  0.0113
  553MOL0     H74607   1.969   8.581  12.277 -2.4481 -0.0867 -1.8899
  553MOL0     H74608   2.058   8.451  12.189  2.6887  0.3285 -1.8415
  553MOL0     H74609   2.226   8.579  12.114 -3.0453 -1.1076 -1.4929
  553MOL0     H74610   2.169   8.741  12.186  1.3550 -0.3821 -1.6106
  553MOL0     H74611   2.272   8.494  12.339  0.9956 -0.0683 -0.1115
  553MOL0     H74612   2.182   8.638  12.405 -0.2089  0.9606 -0.7408
  553MOL0     H74613   2.404   8.676  12.446  0.4790 -2.8874  0.1111
  553MOL0     H74614   2.373   8.780  12.314  0.7641  0.1828  2.6976
  553MOL0     H74615   2.633   8.500  12.095 -0.0692 -1.7744  0.3875
  553MOL0     H74616   2.874   8.556  12.066 -2.0057  0.3213 -1.3338
  553MOL0     H74617   3.227   8.649  12.381  0.7695  0.0616  1.8752
  553MOL0     H74618   3.488   8.668  12.416  0.6745  2.8169  1.9153
  553MOL0     H74619   3.700   8.756  12.492 -2.3773  0.2396 -0.2303
  553MOL0     H74620   3.733   8.678  12.333  4.1263 -0.3596  1.2728
  553MOL0     H74621   3.886   8.844  12.270  1.5250 -2.4762  0.5862
  553MOL0     H74622   3.856   8.945  12.418  0.2172 -1.5100  3.1293
  553MOL0     H74623   3.966   8.753  12.540 -0.6739 -0.8590 -0.6739
  553MOL0     H74624   3.993   8.675  12.384 -0.4658  0.2787 -2.0643
  553MOL0     H74625   4.092   8.953  12.486 -1.9695  0.7987  0.1884
  553MOL0     H74626   4.123   8.884  12.317  2.6695 -1.9965  0.1890
  553MOL0     H74627   4.255   8.701  12.435 -1.1000 -0.9284  1.8022
  553MOL0     H74628   4.224   8.776  12.591 -0.5162  1.6237  1.0406
  553MOL0     H74629   4.377   8.903  12.368  1.8822 -1.5985  0.4996
  553MOL0     H74630   4.313   9.001  12.496 -1.8653 -1.8627  4.7954
  553MOL0     H74631   4.503   8.738  12.504  1.2097  1.3185 -3.3831
  553MOL0     H74632   4.437   8.821  12.649 -0.4018  4.2437  0.1703
  553MOL0     H74633   4.634   8.926  12.438  1.5796  3.2156  0.6662
  553MOL0     H74634   4.567   9.011  12.570  1.7398 -0.6010  2.4746
  553MOL0     H74635   3.464   9.063  12.250  3.0970 -0.8187 -0.7053
  553MOL0     H74636   3.226   9.033  12.213 -2.7503 -2.0487 -0.8182
  553MOL0     H74637   2.845   8.854  12.375  1.5302  0.0066 -1.7404
  553MOL0     H74638   2.603   8.793  12.414 -0.3329 -0.8694  1.0170
  553MOL0     H74639   2.530   9.456  11.292  3.2239  1.1945  1.3120
  553MOL0     H74640   2.582   9.671  11.195 -0.4230  3.7029  0.2576
  553MOL0     H74641   2.565   9.975  10.975  1.1998  0.7013 -1.9813
  553MOL0     H74642   2.641  10.131  10.834 -0.9459  0.0741  0.0269
  553MOL0     H74643   2.770  10.514  10.765 -0.5424 -0.2769  0.4718
  553MOL0     H74644   2.723  10.351  10.714  2.8717  1.2839 -2.0308
  553MOL0     H74645   2.947  10.330  10.772  1.8694  0.4483  0.7560
  553MOL0     H74646   2.863  10.260  10.910  2.9497 -0.2761  0.4219
  553MOL0     H74647   2.894  10.508  11.010 -0.9999  0.0487 -0.1413
  553MOL0     H74648   3.024  10.513  10.886 -1.8031  0.0398 -0.9766
  553MOL0     H74649   3.102  10.435  11.118 -1.1286  2.7127 -1.6307
  553MOL0     H74650   2.988  10.294  11.101 -1.1699  0.9233  0.3412
  553MOL0     H74651   3.282  10.168  10.838 -2.6993 -1.8285  0.5607
  553MOL0     H74652   2.470  10.457  11.082  2.2377 -0.0228  2.1831
  553MOL0     H74653   2.393  10.366  11.315 -0.6071 -1.5572  0.4606
  553MOL0     H74654   2.265  10.391  11.193 -1.5713 -2.3308 -1.8662
  553MOL0     H74655   2.275  10.243  11.290  0.2875 -1.4801 -0.4748
  554MOL0     O74656   3.352   3.581   9.965 -0.0981  0.4315 -0.1065
  554MOL0     C74657   3.232   3.583   9.978 -0.1702  0.4300  1.0391
  554MOL0     O74658   3.149   3.529   9.892  0.2795 -0.2296 -0.3331
  554MOL0     C74659   3.191   3.434   9.811  0.1553  0.8493  0.5522
  554MOL0     C74660   3.209   3.473   9.679  0.3874 -0.4275  0.2140
  554MOL0     C74661   3.255   3.384   9.584 -0.7783 -0.8073 -0.1251
  554MOL0     C74662   3.281   3.252   9.616 -0.5692  0.4529 -0.4196
  554MOL0     O74663   3.330   3.174   9.523  0.1743 -0.2507 -0.1358
  554MOL0     C74664   3.420   3.056   9.559 -0.3785 -0.8461 -0.6700
  554MOL0     C74665   3.494   3.014   9.436  0.6750 -0.7331 -1.5005
  554MOL0     C74666   3.527   2.855   9.436 -0.0294 -0.7176 -0.1684
  554MOL0     C74667   3.404   2.754   9.442  0.1043  0.4530 -0.0663
  554MOL0     C74668   3.330   2.744   9.302 -0.0318  0.0220  0.2768
  554MOL0     C74669   3.209   2.635   9.318 -0.3209 -1.4107  0.1269
  554MOL0     C74670   3.149   2.607   9.187  0.1853  0.6234  0.2939
  554MOL0     C74671   3.201   2.496   9.095 -0.0463  0.0701  0.2820
  554MOL0     N74672   3.327   2.540   9.044  0.7152  0.1763  0.1223
  554MOL0     C74673   3.343   2.617   8.929 -0.7141  0.1426  0.5868
  554MOL0     C74674   3.471   2.606   8.902  0.3159  0.1954  0.2901
  554MOL0     C74675   3.544   2.652   8.792 -0.7226  0.3419  0.3369
  554MOL0     C74676   3.635   2.546   8.718  0.3347 -0.8519  0.2401
  554MOL0     C74677   3.728   2.597   8.605 -0.6345 -0.5259 -0.1852
  554MOL0     C74678   3.864   2.517   8.594  0.3198  0.0350  0.7906
  554MOL0     O74679   3.934   2.513   8.713 -1.2023  0.4348 -0.5315
  554MOL0     C74680   4.053   2.446   8.715 -0.0209 -0.1797  0.5130
  554MOL0     C74681   4.101   2.430   8.847 -0.2369  0.5350  0.0604
  554MOL0     C74682   4.218   2.365   8.872  0.8099 -0.0647  0.3840
  554MOL0     C74683   4.298   2.329   8.761  0.9247 -0.2540  0.0620
  554MOL0     C74684   4.428   2.258   8.776 -0.8490 -0.2241 -0.4263
  554MOL0     O74685   4.459   2.214   8.902  0.4405  0.8180  0.8335
  554MOL0     C74686   4.580   2.165   8.943  0.1710 -0.1954  0.3528
  554MOL0     C74687   4.712   2.214   8.904 -0.4768  0.4693  0.9946
  554MOL0     C74688   4.828   2.157   8.965 -1.0750 -0.7578 -0.2215
  554MOL0     C74689   4.823   2.058   9.060  0.2864  0.4713 -0.5367
  554MOL0     O74690   4.939   2.010   9.120  0.3108  0.3733  0.5252
  554MOL0     C74691   4.938   1.939   9.243 -1.2519  0.5522 -0.6111
  554MOL0     C74692   5.078   1.973   9.295 -0.6523  0.8409 -1.2628
  554MOL0     C74693   5.144   1.853   9.367  0.2986 -0.5023  0.1528
  554MOL0     C74694   5.287   1.880   9.414 -1.5564  0.2260  1.0082
  554MOL0     C74695   5.364   1.753   9.454  0.6409 -0.4788 -0.3256
  554MOL0     C74696   5.498   1.793   9.525  0.0472  1.1078  0.6152
  554MOL0     C74697   5.528   1.674   9.624 -0.2084 -0.5889  0.0270
  554MOL0     C74698   5.678   1.665   9.654 -0.5164  0.0655 -0.6451
  554MOL0    Cl74699   5.735   1.807   9.752 -0.4879  0.1282 -0.1773
  554MOL0     C74700   4.695   2.034   9.108  0.1533 -0.0426 -0.2487
  554MOL0     C74701   4.583   2.081   9.046  0.6072 -0.7884 -0.5590
  554MOL0     O74702   4.505   2.249   8.680  0.4987  0.3757  0.0233
  554MOL0     C74703   4.247   2.342   8.625 -0.2128  0.0508 -0.9959
  554MOL0     C74704   4.119   2.392   8.606 -0.4378  0.4261 -1.3277
  554MOL0     N74705   3.532   2.526   9.006 -0.2788 -0.5855  0.1237
  554MOL0     N74706   3.441   2.469   9.067  0.7880  0.3566 -0.9764
  554MOL0     C74707   3.249   3.206   9.748  0.5689  0.0626 -1.1392
  554MOL0     C74708   3.205   3.302   9.848 -0.7582  0.6498 -0.1031
  554MOL0     C74709   3.161   3.668  10.084  0.4946  0.3342  0.2205
  554MOL0     C74710   3.245   3.758  10.156 -0.0525 -0.6415  0.7480
  554MOL0     C74711   3.197   3.836  10.262 -0.6305 -0.5347 -0.1923
  554MOL0     C74712   3.060   3.848  10.286  0.3608  0.3666 -0.9195
  554MOL0     O74713   3.000   3.921  10.393 -0.5778  0.7029 -0.1988
  554MOL0     C74714   3.070   4.044  10.430  0.0828 -0.2502 -0.2501
  554MOL0     C74715   2.973   4.112  10.521  0.3813  0.4954 -0.8750
  554MOL0     C74716   3.019   4.234  10.604 -0.7847 -0.3876 -0.4828
  554MOL0     C74717   3.076   4.351  10.512 -1.3535  0.0802  0.2035
  554MOL0     C74718   2.985   4.381  10.396  0.4869 -0.5857  0.6836
  554MOL0     C74719   2.914   4.409  10.304  0.6065  0.6611 -0.5063
  554MOL0     C74720   2.980   3.749  10.222  0.6344 -0.0553 -0.5969
  554MOL0     C74721   3.031   3.655  10.134  0.3016  0.0968 -0.5850
  554MOL0     C74722   2.938   3.543  10.110 -0.8913 -1.0850 -0.3255
  554MOL0     H74723   3.185   3.571   9.639  2.5963  0.3363  0.6111
  554MOL0     H74724   3.287   3.427   9.489  0.2345  0.0437  0.5823
  554MOL0     H74725   3.497   3.073   9.635  0.9918 -2.6253 -1.6132
  554MOL0     H74726   3.354   2.982   9.604 -1.7421  1.1097  0.7360
  554MOL0     H74727   3.592   3.064   9.436  1.1026 -1.5391 -0.3161
  554MOL0     H74728   3.439   3.029   9.342  0.4114  1.7185 -1.0104
  554MOL0     H74729   3.591   2.826   9.521 -2.1532 -0.7203  1.5246
  554MOL0     H74730   3.595   2.834   9.353 -0.6024  1.0453 -1.1200
  554MOL0     H74731   3.433   2.654   9.473 -0.9989  0.0388 -0.3029
  554MOL0     H74732   3.345   2.782   9.530  1.0403  0.9040  0.4329
  554MOL0     H74733   3.300   2.841   9.260  1.5333  0.8820  1.0627
  554MOL0     H74734   3.409   2.702   9.238 -2.2567  0.0190 -2.7131
  554MOL0     H74735   3.235   2.548   9.378  0.0893 -0.7000  1.0071
  554MOL0     H74736   3.135   2.680   9.385  2.9733 -0.4234  3.4264
  554MOL0     H74737   3.152   2.699   9.128  2.5916  0.0099 -0.6423
  554MOL0     H74738   3.047   2.573   9.208 -0.1802  0.3143 -1.8068
  554MOL0     H74739   3.207   2.402   9.149 -3.2360 -1.1344 -1.2022
  554MOL0     H74740   3.126   2.464   9.021  0.0390 -0.3899  0.3908
  554MOL0     H74741   3.271   2.653   8.856  2.0273  0.8949 -1.9385
  554MOL0     H74742   3.477   2.696   8.718  1.1280  1.8042 -0.5617
  554MOL0     H74743   3.604   2.734   8.833 -0.9573  1.1090 -0.8088
  554MOL0     H74744   3.702   2.499   8.791 -0.1695 -0.0965  1.2117
  554MOL0     H74745   3.569   2.469   8.678 -1.1385 -1.5103  3.6170
  554MOL0     H74746   3.760   2.701   8.620  1.4493 -0.9254 -1.4849
  554MOL0     H74747   3.670   2.596   8.512  1.8057 -2.5973 -1.8037
  554MOL0     H74748   3.922   2.548   8.507  2.0444 -0.9404  1.5365
  554MOL0     H74749   3.839   2.414   8.569 -1.1404  0.4039  0.6222
  554MOL0     H74750   4.040   2.457   8.932 -1.1180 -0.6146 -0.1799
  554MOL0     H74751   4.253   2.330   8.968 -0.4742 -2.1618  0.1442
  554MOL0     H74752   4.701   2.299   8.838 -0.7949 -0.5554 -0.2915
  554MOL0     H74753   4.926   2.201   8.946 -1.9256  1.6433  0.5975
  554MOL0     H74754   4.868   1.967   9.322 -3.8150  1.8685 -3.2199
  554MOL0     H74755   4.920   1.836   9.210 -0.8581 -0.3874  1.8813
  554MOL0     H74756   5.143   2.004   9.212 -1.4609  3.2434 -1.0583
  554MOL0     H74757   5.074   2.057   9.364 -4.0961 -0.6158  0.5535
  554MOL0     H74758   5.078   1.820   9.448  1.3496 -1.0058  0.8279
  554MOL0     H74759   5.146   1.775   9.290  1.9906  0.4823 -0.8572
  554MOL0     H74760   5.294   1.947   9.500  1.1176  0.9250  0.3452
  554MOL0     H74761   5.340   1.923   9.327 -0.8583 -2.0362  0.2590
  554MOL0     H74762   5.373   1.689   9.366 -0.5939  1.3350 -1.8540
  554MOL0     H74763   5.297   1.699   9.520  0.9337  1.3235  1.5684
  554MOL0     H74764   5.558   1.810   9.436 -3.8403  1.2638 -2.2463
  554MOL0     H74765   5.492   1.890   9.576  0.9589  1.1031  0.7543
  554MOL0     H74766   5.496   1.581   9.577 -1.1661 -1.1730  1.7547
  554MOL0     H74767   5.468   1.686   9.715 -1.7438 -0.6034 -0.9478
  554MOL0     H74768   5.700   1.583   9.723 -1.6322 -0.0631 -0.4318
  554MOL0     H74769   5.740   1.652   9.565  1.4951  3.5175  0.0479
  554MOL0     H74770   4.685   1.975   9.199 -2.0643  1.7727  0.7940
  554MOL0     H74771   4.484   2.053   9.081  0.0542 -0.2635 -1.6475
  554MOL0     H74772   4.290   2.315   8.529 -2.0199  0.2853 -1.9045
  554MOL0     H74773   4.065   2.390   8.512 -0.3362 -1.5526 -1.3974
  554MOL0     H74774   3.268   3.104   9.777  1.8308  0.0764 -1.8507
  554MOL0     H74775   3.191   3.280   9.954 -1.1372  2.2795  0.2070
  554MOL0     H74776   3.353   3.753  10.151 -0.0458 -0.9960  1.2234
  554MOL0     H74777   3.276   3.886  10.317  1.2663 -2.4629 -0.9981
  554MOL0     H74778   3.082   4.114  10.348 -1.2722  1.0276  0.5838
  554MOL0     H74779   3.163   4.029  10.486  0.4265  1.0113 -0.4639
  554MOL0     H74780   2.946   4.036  10.596 -0.3969  2.2765  0.7171
  554MOL0     H74781   2.881   4.140  10.470 -1.5942 -2.1261  0.9282
  554MOL0     H74782   3.089   4.205  10.682  0.3480  2.3731 -0.3628
  554MOL0     H74783   2.934   4.277  10.658 -0.2693 -1.1221  0.9388
  554MOL0     H74784   3.086   4.444  10.569 -0.0979  1.8709 -2.6863
  554MOL0     H74785   3.174   4.320  10.476 -0.9524 -5.0751  4.4844
  554MOL0     H74786   2.848   4.419  10.220 -0.1768 -0.5207 -0.0549
  554MOL0     H74787   2.874   3.737  10.241  0.2976  1.4498 -1.4048
  554MOL0     H74788   2.921   3.521  10.005 -1.7370 -0.3260 -0.3574
  554MOL0     H74789   2.969   3.451  10.161 -2.3040 -2.0571 -1.1370
  554MOL0     H74790   2.837   3.561  10.148  0.0553 -0.6542  2.2238
  555MOL0     O74791   4.553   0.002   3.909 -0.1399  0.4419  0.4677
  555MOL0     C74792   4.520   0.070   4.011  0.0804  0.8510  0.2372
  555MOL0     O74793   4.404   0.046   4.073  0.1667 -0.0978  0.0570
  555MOL0     C74794   4.341  -0.072   4.070  0.4773 -0.3366  0.2021
  555MOL0     C74795   4.322  -0.148   4.186  0.4194  0.1104  0.0214
  555MOL0     C74796   4.283  -0.280   4.186 -0.1017 -0.3625 -0.8480
  555MOL0     C74797   4.211  -0.327   4.065  0.2456 -0.5727  0.0498
  555MOL0     O74798   4.122  -0.434   4.076 -0.8249 -0.0421 -0.0861
  555MOL0     C74799   4.105  -0.512   4.194 -0.6188 -0.5512  1.0484
  555MOL0     C74800   4.009  -0.623   4.153 -1.1228  0.5441  0.1371
  555MOL0     C74801   3.976  -0.697   4.287 -0.2710  0.5355 -0.3885
  555MOL0     C74802   3.862  -0.644   4.375 -0.5110 -0.0707  0.0723
  555MOL0     C74803   3.789  -0.726   4.479 -0.6410  0.3142  0.1797
  555MOL0     C74804   3.875  -0.791   4.589  0.2698 -0.4047  0.6969
  555MOL0     C74805   3.942  -0.697   4.692 -0.1319 -0.7212 -0.0042
  555MOL0     C74806   3.970  -0.766   4.825 -0.1994  0.0796 -0.7578
  555MOL0     N74807   4.077  -0.874   4.824  0.1116  0.9341 -0.5993
  555MOL0     C74808   4.070  -0.994   4.897 -0.8573  0.2553 -0.0934
  555MOL0     C74809   4.198  -1.035   4.906 -0.7247 -0.9167  0.3041
  555MOL0     C74810   4.234  -1.172   4.963 -0.2044 -0.0092  0.8336
  555MOL0     C74811   4.180  -1.288   4.878  0.3431 -0.6044 -0.0942
  555MOL0     C74812   4.032  -1.299   4.878  0.1718  1.0207 -0.0139
  555MOL0     C74813   3.982  -1.412   4.797 -0.0981 -0.3186  0.4322
  555MOL0     O74814   3.993  -1.540   4.864 -0.7397  0.1087 -0.1276
  555MOL0     C74815   3.925  -1.648   4.815  0.3472  0.0780  0.1157
  555MOL0     C74816   3.898  -1.757   4.904  0.1609  0.0796 -0.8837
  555MOL0     C74817   3.827  -1.872   4.868  0.1630  0.8004 -0.5754
  555MOL0     C74818   3.787  -1.881   4.742  0.7478  1.0823  1.0309
  555MOL0     C74819   3.715  -2.000   4.707  0.3363 -0.1133  0.4398
  555MOL0     O74820   3.671  -2.093   4.808  0.3660 -0.7015  0.2315
  555MOL0     C74821   3.636  -2.219   4.770 -0.4508 -0.6305  0.5124
  555MOL0     C74822   3.710  -2.326   4.818  0.7429 -0.4601 -0.6695
  555MOL0     C74823   3.663  -2.459   4.791  0.4350  0.0874  0.2700
  555MOL0     C74824   3.561  -2.488   4.706  0.0779  0.2569  0.3908
  555MOL0     O74825   3.548  -2.616   4.668 -0.1711 -0.5644  0.7390
  555MOL0     C74826   3.417  -2.661   4.636 -0.7036  0.8296  0.3216
  555MOL0     C74827   3.414  -2.809   4.641 -0.5300 -0.0719 -1.5056
  555MOL0     C74828   3.359  -2.876   4.513  0.1589 -0.6114  0.8179
  555MOL0     C74829   3.387  -3.025   4.507 -0.3792  0.6109  1.0845
  555MOL0     C74830   3.354  -3.083   4.364 -0.1848 -0.5672 -0.1932
  555MOL0     C74831   3.386  -3.229   4.358 -0.3540  0.9082  0.3266
  555MOL0     C74832   3.340  -3.297   4.231  0.0711 -0.4431  0.3966
  555MOL0     C74833   3.360  -3.446   4.226  0.0196 -0.8345 -0.5288
  555MOL0    Cl74834   3.527  -3.509   4.216  0.7295  0.2703 -0.5876
  555MOL0     C74835   3.481  -2.380   4.663  0.2958 -0.6462 -0.1867
  555MOL0     C74836   3.523  -2.250   4.693 -0.2171 -1.2489 -0.3969
  555MOL0     O74837   3.719  -2.025   4.581  0.5302 -0.7309  0.4458
  555MOL0     C74838   3.812  -1.777   4.647 -0.7613  0.0333  0.5530
  555MOL0     C74839   3.890  -1.662   4.679  1.3940  0.0837 -0.1663
  555MOL0     N74840   4.286  -0.951   4.836  0.6110 -0.3912 -0.5858
  555MOL0     N74841   4.211  -0.841   4.803  1.3595  0.2426  0.0244
  555MOL0     C74842   4.207  -0.239   3.954  0.3323 -0.0567  0.2734
  555MOL0     C74843   4.283  -0.122   3.954  0.6260  0.3483  0.8829
  555MOL0     C74844   4.597   0.188   4.038  0.6017  0.1660 -0.2994
  555MOL0     C74845   4.727   0.184   3.994 -0.6237 -0.2133  0.5699
  555MOL0     C74846   4.828   0.274   4.036 -0.0613 -1.0285 -0.3981
  555MOL0     C74847   4.789   0.386   4.126 -0.7549  0.6718  0.5317
  555MOL0     O74848   4.868   0.484   4.183  0.2926  0.2393 -0.4234
  555MOL0     C74849   5.004   0.450   4.194 -1.2078 -1.3264 -0.7232
  555MOL0     C74850   5.098   0.553   4.251  0.0753 -0.1611 -0.7600
  555MOL0     C74851   5.109   0.543   4.405  0.4275  0.1243 -0.1974
  555MOL0     C74852   5.008   0.634   4.483  0.3458 -0.0428  0.3953
  555MOL0     C74853   4.871   0.588   4.494  0.1736 -0.5447 -0.1578
  555MOL0     C74854   4.754   0.559   4.493 -0.6325 -0.7830 -1.3378
  555MOL0     C74855   4.650   0.397   4.138  0.4108 -0.1220 -0.9273
  555MOL0     C74856   4.551   0.303   4.099  0.0542  0.0259 -0.0607
  555MOL0     C74857   4.408   0.342   4.122 -0.7929  0.0150 -0.1697
  555MOL0     H74858   4.371  -0.113   4.276  0.2374  0.4391 -0.0063
  555MOL0     H74859   4.286  -0.343   4.275  1.1800 -1.2264 -1.4631
  555MOL0     H74860   4.198  -0.559   4.226 -1.1131 -2.2967  0.0498
  555MOL0     H74861   4.066  -0.457   4.279 -1.4815 -1.1514  1.0501
  555MOL0     H74862   4.069  -0.692   4.093 -0.7641  2.9731 -2.5042
  555MOL0     H74863   3.923  -0.597   4.090 -0.8751 -2.4628 -1.6711
  555MOL0     H74864   4.071  -0.729   4.332 -0.7725  1.9844  1.8325
  555MOL0     H74865   3.938  -0.788   4.240  4.8587 -1.1429 -1.9763
  555MOL0     H74866   3.920  -0.570   4.430  1.0254 -1.2723  0.1393
  555MOL0     H74867   3.784  -0.604   4.309  1.0999  0.9664 -1.3041
  555MOL0     H74868   3.710  -0.658   4.512  0.3177  0.5651  2.0758
  555MOL0     H74869   3.734  -0.806   4.429 -4.3043  2.3978  0.5263
  555MOL0     H74870   3.808  -0.857   4.645 -0.9713 -1.3770 -1.7570
  555MOL0     H74871   3.948  -0.858   4.543 -1.4149 -0.4289 -2.2263
  555MOL0     H74872   3.879  -0.610   4.707  1.2791  0.5125 -0.8567
  555MOL0     H74873   4.034  -0.670   4.639 -0.8469  0.7739 -0.5453
  555MOL0     H74874   3.988  -0.691   4.903  1.7095  2.3786 -3.1954
  555MOL0     H74875   3.874  -0.806   4.858 -1.1171  0.2211 -3.1083
  555MOL0     H74876   3.974  -1.041   4.920 -0.5814 -0.1493  0.2483
  555MOL0     H74877   4.344  -1.168   4.966 -0.1662  0.3002 -0.4856
  555MOL0     H74878   4.191  -1.182   5.063 -1.3237  3.0976  0.7845
  555MOL0     H74879   4.224  -1.274   4.779 -0.7449  0.7588 -0.4197
  555MOL0     H74880   4.228  -1.381   4.911  1.4184 -0.0891 -0.1468
  555MOL0     H74881   3.996  -1.212   4.823  3.2108  1.4179 -1.5660
  555MOL0     H74882   3.981  -1.312   4.975  1.0640  3.1181  0.7877
  555MOL0     H74883   4.025  -1.394   4.698  0.1758  0.6525  0.7129
  555MOL0     H74884   3.877  -1.394   4.773  0.8734  2.3470 -2.5014
  555MOL0     H74885   3.944  -1.752   5.003  1.5408 -1.7083 -1.3799
  555MOL0     H74886   3.821  -1.949   4.945  2.0170  1.2540  0.0806
  555MOL0     H74887   3.785  -2.306   4.893 -0.2049  1.0923 -0.0753
  555MOL0     H74888   3.700  -2.534   4.860 -3.0498 -3.2332 -1.1698
  555MOL0     H74889   3.341  -2.625   4.706 -1.5431 -1.2976  0.5911
  555MOL0     H74890   3.389  -2.628   4.536 -3.0192  0.3056  0.7288
  555MOL0     H74891   3.511  -2.846   4.676 -1.8232  0.0924  2.9701
  555MOL0     H74892   3.349  -2.829   4.727  2.0657  1.1032  0.9051
  555MOL0     H74893   3.252  -2.854   4.512  0.2856  0.0560  0.9234
  555MOL0     H74894   3.403  -2.825   4.426 -0.5271  1.8111  1.7949
  555MOL0     H74895   3.315  -3.074   4.573 -0.5352  0.0531  0.5166
  555MOL0     H74896   3.488  -3.053   4.539 -0.9684 -0.1643  2.3290
  555MOL0     H74897   3.410  -3.035   4.283 -2.0524 -0.3257 -1.4089
  555MOL0     H74898   3.245  -3.073   4.352 -0.4145 -1.8853  0.6383
  555MOL0     H74899   3.492  -3.247   4.378 -0.0952 -1.2932 -2.4276
  555MOL0     H74900   3.332  -3.264   4.447  0.3361  0.6295  0.6408
  555MOL0     H74901   3.401  -3.248   4.154  1.2221  1.6122  2.4798
  555MOL0     H74902   3.241  -3.264   4.201  0.2133 -0.7798 -0.4504
  555MOL0     H74903   3.301  -3.498   4.302  1.3776 -0.9568  0.4926
  555MOL0     H74904   3.315  -3.477   4.131 -0.2681  2.2040 -1.4770
  555MOL0     H74905   3.404  -2.398   4.590 -2.0249 -1.0371  2.1973
  555MOL0     H74906   3.465  -2.168   4.649  2.0285  0.7905  0.2154
  555MOL0     H74907   3.788  -1.787   4.541  1.1239  1.0955 -0.0131
  555MOL0     H74908   3.905  -1.595   4.595 -0.6678  1.1061  0.2229
  555MOL0     H74909   4.154  -0.272   3.865  0.6294  0.3018 -0.0411
  555MOL0     H74910   4.302  -0.078   3.857  2.7024 -0.4453  0.8865
  555MOL0     H74911   4.761   0.105   3.927  2.5272 -0.8406  2.6958
  555MOL0     H74912   4.924   0.270   3.985 -2.1271  0.1038 -4.8223
  555MOL0     H74913   5.037   0.418   4.094  1.6923  0.6370 -0.5343
  555MOL0     H74914   5.008   0.358   4.253 -0.6182 -1.2668 -0.6660
  555MOL0     H74915   5.053   0.647   4.216 -1.0851 -1.2918 -2.4426
  555MOL0     H74916   5.200   0.539   4.212  0.1455  2.2119 -1.6130
  555MOL0     H74917   5.205   0.589   4.428  0.3772  0.5831 -0.8944
  555MOL0     H74918   5.113   0.440   4.443  0.9021  0.3339  0.3132
  555MOL0     H74919   5.041   0.648   4.586  1.0119  0.5465  0.1099
  555MOL0     H74920   5.010   0.730   4.432 -1.5385  0.1983  0.7004
  555MOL0     H74921   4.649   0.537   4.498 -0.8543  0.4912  1.4186
  555MOL0     H74922   4.611   0.483   4.191  3.8336 -0.7604  3.2057
  555MOL0     H74923   4.377   0.304   4.220 -4.3093  0.2489 -1.0620
  555MOL0     H74924   4.396   0.450   4.126 -0.1510  0.0486  2.1662
  555MOL0     H74925   4.339   0.300   4.047 -1.9504  0.6357  0.5298
  556MOL0     O74926   7.995   1.024  10.581  1.0837 -0.3484 -0.3084
  556MOL0     C74927   8.053   1.082  10.676 -0.1656  0.1634 -0.5828
  556MOL0     O74928   8.143   1.019  10.765  0.0654 -0.8350  0.6466
  556MOL0     C74929   8.216   0.900  10.720  0.3590  0.2519  0.9680
  556MOL0     C74930   8.270   0.806  10.811  0.8206 -0.2091 -0.1836
  556MOL0     C74931   8.349   0.699  10.770 -0.5157 -0.2977  0.5160
  556MOL0     C74932   8.363   0.668  10.637 -0.1294 -0.9935  0.2112
  556MOL0     O74933   8.432   0.563  10.576  0.4779  0.3864 -0.7028
  556MOL0     C74934   8.567   0.597  10.532  0.4672 -1.1629  0.5977
  556MOL0     C74935   8.669   0.490  10.580  0.5050  0.4820  0.9992
  556MOL0     C74936   8.816   0.518  10.544  0.7819 -0.9043  0.6177
  556MOL0     C74937   8.844   0.533  10.398 -1.0642  0.2254  1.1319
  556MOL0     C74938   8.992   0.566  10.392  0.3500 -0.8734 -0.3622
  556MOL0     C74939   9.048   0.488  10.269 -0.2533  0.3327  0.9905
  556MOL0     C74940   9.163   0.562  10.202 -0.7462 -0.4296 -0.3883
  556MOL0     C74941   9.278   0.588  10.302  0.2660  0.2783  0.0493
  556MOL0     N74942   9.354   0.466  10.322 -0.2466  1.0549  1.1283
  556MOL0     C74943   9.460   0.424  10.244  0.2207 -0.9113 -0.3343
  556MOL0     C74944   9.498   0.306  10.284 -0.6469 -0.3403  0.1012
  556MOL0     C74945   9.605   0.225  10.219  0.4358  0.2145 -0.2431
  556MOL0     C74946   9.565   0.164  10.087 -0.7503  0.0485 -0.3991
  556MOL0     C74947   9.462   0.056  10.106 -0.6154  0.4794  0.2579
  556MOL0     C74948   9.325   0.101  10.103 -0.0167  0.3377  0.6745
  556MOL0     O74949   9.245  -0.011  10.081  0.6112 -0.5076  0.1299
  556MOL0     C74950   9.107   0.009  10.085 -0.5604 -1.4362  0.2050
  556MOL0     C74951   9.026  -0.088  10.040  0.4270 -0.3535 -0.3233
  556MOL0     C74952   8.883  -0.075  10.034  0.4519 -0.3608  0.1800
  556MOL0     C74953   8.824   0.051  10.039  0.1799  0.1409  0.0582
  556MOL0     C74954   8.681   0.064  10.004 -0.1804 -0.0773 -0.3047
  556MOL0     O74955   8.611  -0.053  10.025 -0.3604 -0.4910 -0.1627
  556MOL0     C74956   8.476  -0.052  10.011  1.3733 -0.0826 -1.6914
  556MOL0     C74957   8.400   0.037  10.088 -0.2971  0.5226 -0.3112
  556MOL0     C74958   8.266   0.047  10.074  0.3525  0.3973 -0.4089
  556MOL0     C74959   8.195  -0.040   9.991  0.7795 -0.7015 -1.0142
  556MOL0     O74960   8.061  -0.033   9.986  0.1380  0.9208 -0.6651
  556MOL0     C74961   7.986   0.078  10.010 -0.0271 -0.1711  1.5539
  556MOL0     C74962   7.981   0.187   9.886 -0.4384 -0.0667 -0.2691
  556MOL0     C74963   8.072   0.314   9.917 -0.5317  0.5331  0.3611
  556MOL0     C74964   7.978   0.432   9.935  0.4387  0.4716 -0.1110
  556MOL0     C74965   7.891   0.428  10.066  0.4702  0.3480  0.1613
  556MOL0     C74966   7.802   0.552  10.081 -0.1503 -0.6132 -0.2638
  556MOL0     C74967   7.716   0.555  10.205  0.1682  0.1274 -0.1143
  556MOL0     C74968   7.628   0.684  10.199 -0.1305  0.6755  0.0991
  556MOL0    Cl74969   7.541   0.724  10.359  0.0309 -0.0895  0.4454
  556MOL0     C74970   8.268  -0.141   9.923  0.1390  0.5448 -0.9579
  556MOL0     C74971   8.411  -0.142   9.927 -0.3518  0.4625 -0.4841
  556MOL0     O74972   8.634   0.175   9.970 -0.5347 -0.6264 -0.2073
  556MOL0     C74973   8.913   0.154  10.075  0.1103 -0.2418 -0.7489
  556MOL0     C74974   9.052   0.136  10.093 -0.9557  0.5425 -0.4802
  556MOL0     N74975   9.421   0.271  10.385  0.0042 -0.0909  0.0576
  556MOL0     N74976   9.336   0.369  10.403  0.6607  0.4991  0.0144
  556MOL0     C74977   8.311   0.761  10.548 -0.2877  0.1075 -0.0747
  556MOL0     C74978   8.250   0.878  10.588  0.3007 -0.0543 -0.2240
  556MOL0     C74979   7.991   1.213  10.707  0.8636  0.0014  0.0308
  556MOL0     C74980   7.996   1.241  10.842 -0.0485  0.0650 -0.4339
  556MOL0     C74981   7.933   1.361  10.885 -0.1630 -0.5704  0.3347
  556MOL0     C74982   7.886   1.461  10.797 -0.3733  0.4219  0.0604
  556MOL0     O74983   7.852   1.589  10.821  0.4058 -0.5250 -0.3441
  556MOL0     C74984   7.894   1.643  10.948 -0.6403 -0.7233  0.6643
  556MOL0     C74985   7.951   1.789  10.913 -0.1440  0.0679 -0.3624
  556MOL0     C74986   8.077   1.806  10.828 -0.5761 -0.3137 -0.7514
  556MOL0     C74987   8.100   1.704  10.726  0.6836 -0.0010 -0.6040
  556MOL0     C74988   8.232   1.720  10.669 -0.1008  0.1172  0.8387
  556MOL0     C74989   8.339   1.702  10.603  0.2330  0.2578  0.1624
  556MOL0     C74990   7.879   1.422  10.664  0.0455  0.3053 -0.6243
  556MOL0     C74991   7.937   1.305  10.619 -0.7910 -0.7420 -0.4245
  556MOL0     C74992   7.929   1.274  10.470 -0.5534 -0.4858 -0.3460
  556MOL0     H74993   8.246   0.806  10.917 -1.1811  2.4456 -0.5314
  556MOL0     H74994   8.388   0.628  10.842 -0.4886 -1.5164 -0.6634
  556MOL0     H74995   8.577   0.600  10.423  2.5375 -2.6889  0.6696
  556MOL0     H74996   8.606   0.694  10.564 -1.7119  0.2864 -0.8537
  556MOL0     H74997   8.637   0.395  10.536  0.6128  0.5699  0.7263
  556MOL0     H74998   8.660   0.487  10.689 -2.1786  0.7212  0.8663
  556MOL0     H74999   8.857   0.422  10.576 -0.7717 -1.8329 -0.0736
  556MOL0     H75000   8.849   0.609  10.596  0.2457 -0.2230 -0.2082
  556MOL0     H75001   8.818   0.438  10.350  2.0516  0.2632 -0.8777
  556MOL0     H75002   8.793   0.622  10.361  2.8768  3.6216  3.0889
  556MOL0     H75003   8.998   0.675  10.379  2.2657 -1.1258 -2.2258
  556MOL0     H75004   9.049   0.551  10.484  0.3878 -1.5769 -0.4924
  556MOL0     H75005   9.082   0.387  10.292  1.2340  0.9080  1.4876
  556MOL0     H75006   8.974   0.486  10.189 -0.3067  0.1566  1.0442
  556MOL0     H75007   9.121   0.651  10.155 -0.8303  0.3581  1.1073
  556MOL0     H75008   9.199   0.499  10.121  2.9705  2.0672 -0.8834
  556MOL0     H75009   9.332   0.669  10.254 -2.4082  1.9395 -0.3252
  556MOL0     H75010   9.247   0.631  10.398  0.8534  3.1842 -0.9828
  556MOL0     H75011   9.493   0.470  10.151 -0.6691  0.2344 -0.1000
  556MOL0     H75012   9.687   0.296  10.205  1.0727 -0.7811 -1.8471
  556MOL0     H75013   9.642   0.150  10.290  0.5297 -0.5996 -1.1347
  556MOL0     H75014   9.542   0.244  10.015 -1.2491  0.7990  0.5684
  556MOL0     H75015   9.662   0.127  10.052 -0.8647  1.2815 -2.1861
  556MOL0     H75016   9.492   0.001  10.195  2.3108  0.9292 -0.3662
  556MOL0     H75017   9.486   0.002  10.014  1.6416  1.0510  0.4609
  556MOL0     H75018   9.313   0.178  10.026 -1.5317 -0.3375  0.1808
  556MOL0     H75019   9.300   0.141  10.202 -1.1645  0.8846  0.1843
  556MOL0     H75020   9.079  -0.182  10.027 -1.5448 -1.2853 -2.2903
  556MOL0     H75021   8.829  -0.169  10.023  1.2243 -0.7901 -0.0353
  556MOL0     H75022   8.459   0.103  10.152  0.4702  1.0133 -1.4747
  556MOL0     H75023   8.215   0.116  10.140 -0.0884  1.0185 -1.3719
  556MOL0     H75024   7.886   0.044  10.037 -0.6634  1.8023  1.7953
  556MOL0     H75025   8.015   0.136  10.098 -3.6356 -0.2446  2.9573
  556MOL0     H75026   7.991   0.148   9.784 -3.0854  2.2701 -1.5679
  556MOL0     H75027   7.880   0.225   9.870 -0.4780 -0.3054 -0.6086
  556MOL0     H75028   8.133   0.308  10.007 -0.3905  3.8802  0.6231
  556MOL0     H75029   8.136   0.338   9.831 -0.5493 -0.7111 -0.0113
  556MOL0     H75030   7.924   0.432   9.839  0.7735  2.1350 -0.3289
  556MOL0     H75031   8.035   0.525   9.940 -1.9769  2.0428  0.0145
  556MOL0     H75032   7.966   0.440  10.144  0.6723 -2.2755  0.4428
  556MOL0     H75033   7.835   0.335  10.073  0.3032  0.3654 -0.7369
  556MOL0     H75034   7.868   0.639  10.086  0.7130 -1.0635 -2.6598
  556MOL0     H75035   7.743   0.566   9.990 -1.0196  1.1159  0.5172
  556MOL0     H75036   7.770   0.556  10.300 -1.3438  1.8351  0.8004
  556MOL0     H75037   7.653   0.466  10.201  3.3297 -2.4267  2.2837
  556MOL0     H75038   7.703   0.762  10.180  0.8376 -0.1530  0.3798
  556MOL0     H75039   7.557   0.670  10.117 -1.4727 -1.3898  1.5446
  556MOL0     H75040   8.220  -0.207   9.852 -0.3265 -0.7005  0.4693
  556MOL0     H75041   8.465  -0.211   9.863  1.9515 -0.5488  2.3185
  556MOL0     H75042   8.880   0.258  10.073  0.5655 -0.0822 -0.0942
  556MOL0     H75043   9.115   0.222  10.112 -0.2355  0.0546 -0.6273
  556MOL0     H75044   8.342   0.758  10.444 -1.4483 -0.8734 -0.4160
  556MOL0     H75045   8.210   0.951  10.518 -2.2382  1.3224  2.4194
  556MOL0     H75046   8.048   1.190  10.922 -1.8132  1.9206  2.0536
  556MOL0     H75047   7.935   1.373  10.992 -0.4837 -5.2390  1.0817
  556MOL0     H75048   7.981   1.595  10.993 -0.8551 -2.7702 -0.9785
  556MOL0     H75049   7.816   1.641  11.024 -0.9108 -2.3000  0.3659
  556MOL0     H75050   7.976   1.829  11.012  1.0344  3.7946 -2.0011
  556MOL0     H75051   7.866   1.848  10.880 -2.1032 -1.0624  2.3008
  556MOL0     H75052   8.153   1.788  10.904  0.1784 -0.4596 -1.5300
  556MOL0     H75053   8.069   1.903  10.779  1.8567  0.8376  0.9401
  556MOL0     H75054   8.097   1.603  10.768  3.2604  0.9120  2.1092
  556MOL0     H75055   8.030   1.714  10.642  1.0554 -1.1171 -1.0788
  556MOL0     H75056   8.431   1.679  10.552 -0.1672 -1.8528  0.3111
  556MOL0     H75057   7.841   1.494  10.593 -0.1168 -1.0358 -1.9420
  556MOL0     H75058   7.848   1.204  10.449 -0.7245 -0.3812 -0.0531
  556MOL0     H75059   7.909   1.367  10.417  2.9188  2.1886  2.5041
  556MOL0     H75060   8.024   1.234  10.435  0.7140  0.0618  2.2228
  557MOL0     O75061   9.990   2.107   4.500 -0.4618 -0.4442 -0.2099
  557MOL0     C75062  10.012   1.989   4.481  0.5721  0.3428  0.1483
  557MOL0     O75063   9.968   1.886   4.566  0.6578  0.0172 -0.0047
  557MOL0     C75064   9.846   1.890   4.631 -0.3054 -0.6296 -0.0146
  557MOL0     C75065   9.737   1.949   4.564 -0.1163 -0.4192 -0.2337
  557MOL0     C75066   9.607   1.934   4.616  0.1022 -0.0304  0.0560
  557MOL0     C75067   9.586   1.868   4.734  0.4745  0.5049 -0.1235
  557MOL0     O75068   9.453   1.841   4.765 -0.3195 -0.2997  0.2266
  557MOL0     C75069   9.420   1.837   4.906  0.2417 -0.3354  0.3272
  557MOL0     C75070   9.282   1.902   4.910 -0.8119  1.1044  0.0411
  557MOL0     C75071   9.304   2.048   4.934  0.9232  0.3348 -0.6327
  557MOL0     C75072   9.163   2.115   4.945 -0.3933  0.3345 -0.0423
  557MOL0     C75073   9.079   2.063   5.068  0.3327 -0.0486 -0.0715
  557MOL0     C75074   8.972   2.175   5.107  0.0131  1.0268 -0.4464
  557MOL0     C75075   8.886   2.137   5.228 -0.4684 -0.3202  0.4356
  557MOL0     C75076   8.749   2.077   5.193  0.1128 -0.7870  0.1306
  557MOL0     N75077   8.663   2.180   5.122 -0.3791  0.6484 -0.6429
  557MOL0     C75078   8.565   2.140   5.035 -0.2557  0.0949 -0.3635
  557MOL0     C75079   8.475   2.233   5.034  0.5730 -0.8021 -0.5409
  557MOL0     C75080   8.330   2.215   4.986  0.8010  0.4458  0.1390
  557MOL0     C75081   8.275   2.336   4.924 -0.5309  0.4230  0.3724
  557MOL0     C75082   8.222   2.430   5.036  0.3464  0.5082 -0.8003
  557MOL0     C75083   8.133   2.555   4.987 -0.3351 -1.6827 -0.0819
  557MOL0     O75084   8.100   2.654   5.091  0.1230 -0.5245  0.2556
  557MOL0     C75085   7.975   2.655   5.155  0.2665  0.5756  0.4632
  557MOL0     C75086   7.951   2.731   5.267 -0.7548  0.1433 -0.4266
  557MOL0     C75087   7.827   2.746   5.325  0.4668  0.5522 -0.4966
  557MOL0     C75088   7.715   2.674   5.278 -0.3957 -1.2946 -0.3550
  557MOL0     C75089   7.597   2.672   5.360 -0.1383  0.1655 -1.2755
  557MOL0     O75090   7.479   2.635   5.295 -0.5356 -0.3121  0.1582
  557MOL0     C75091   7.362   2.613   5.365 -0.3285  0.8674 -0.4198
  557MOL0     C75092   7.344   2.516   5.464  0.2797  0.4144 -0.4567
  557MOL0     C75093   7.214   2.476   5.501 -0.2708 -0.3388  1.0213
  557MOL0     C75094   7.100   2.550   5.466 -0.2978 -0.2616 -1.0748
  557MOL0     O75095   6.972   2.523   5.499 -0.6170 -0.5426 -0.6781
  557MOL0     C75096   6.955   2.509   5.647  0.0017 -0.0860  0.2192
  557MOL0     C75097   6.810   2.467   5.681 -0.1651 -0.5573 -0.1660
  557MOL0     C75098   6.698   2.574   5.647  0.2108 -0.1109 -0.1766
  557MOL0     C75099   6.704   2.616   5.498  0.3003 -0.3803 -0.2311
  557MOL0     C75100   6.590   2.703   5.463 -0.4392 -0.1592  0.2763
  557MOL0     C75101   6.454   2.642   5.460  0.6751  0.7281  0.2795
  557MOL0     C75102   6.365   2.731   5.377 -0.1963  0.5152 -0.8416
  557MOL0     C75103   6.217   2.693   5.388  0.9068 -0.5673  0.1560
  557MOL0    Cl75104   6.177   2.539   5.299 -0.5651  0.1087 -0.5614
  557MOL0     C75105   7.123   2.652   5.375 -1.0739 -0.5506  0.0226
  557MOL0     C75106   7.252   2.678   5.319  0.7243 -0.3677 -0.2716
  557MOL0     O75107   7.613   2.680   5.482  0.1727  0.4052  0.1089
  557MOL0     C75108   7.738   2.598   5.168  0.8393 -0.5133  0.6255
  557MOL0     C75109   7.864   2.585   5.103 -0.1535 -0.8227 -0.0171
  557MOL0     N75110   8.522   2.344   5.111 -0.0686  0.0968 -0.5504
  557MOL0     N75111   8.635   2.307   5.171 -0.3595  0.2270  0.1052
  557MOL0     C75112   9.688   1.811   4.801  0.5135  0.1403  0.8289
  557MOL0     C75113   9.821   1.818   4.750  0.1345 -0.0058 -0.7331
  557MOL0     C75114  10.089   1.947   4.360 -0.1789  0.5141 -0.2318
  557MOL0     C75115  10.089   1.809   4.324 -0.9979  0.9966 -0.1162
  557MOL0     C75116  10.145   1.760   4.204 -0.5794  0.4849 -0.2627
  557MOL0     C75117  10.229   1.842   4.131 -0.5534 -0.4485  0.6679
  557MOL0     O75118  10.284   1.810   4.007  0.9246 -0.3758  0.5387
  557MOL0     C75119  10.300   1.671   3.966  0.0266 -0.6480 -0.1083
  557MOL0     C75120  10.397   1.582   4.049 -0.4607  0.4889  0.2445
  557MOL0     C75121  10.405   1.436   3.999 -0.4232  0.6688 -0.0349
  557MOL0     C75122  10.498   1.356   4.090  0.5873 -0.0865 -0.0886
  557MOL0     C75123  10.438   1.339   4.227  0.4467  0.2478 -0.2621
  557MOL0     C75124  10.376   1.329   4.335 -0.4091 -0.0415  0.5680
  557MOL0     C75125  10.245   1.974   4.163  0.1808 -0.0120  0.5569
  557MOL0     C75126  10.176   2.029   4.276 -1.1991  0.7486  0.2516
  557MOL0     C75127  10.199   2.176   4.302 -1.1258 -0.2094 -0.3519
  557MOL0     H75128   9.742   1.992   4.465  3.3343 -2.1204 -0.9533
  557MOL0     H75129   9.525   1.973   4.556  0.9878 -1.8178 -2.4468
  557MOL0     H75130   9.426   1.735   4.947  0.3573 -1.4422 -2.2581
  557MOL0     H75131   9.487   1.903   4.962 -3.1921  2.7035  1.1938
  557MOL0     H75132   9.235   1.856   4.998  0.1916 -0.3143 -0.1321
  557MOL0     H75133   9.226   1.873   4.821  3.2808 -2.4430 -1.7448
  557MOL0     H75134   9.366   2.090   4.855 -0.7534 -0.6216 -2.5729
  557MOL0     H75135   9.351   2.063   5.032 -0.4811  1.3305 -0.0754
  557MOL0     H75136   9.191   2.221   4.950  2.7365 -0.4091  0.2412
  557MOL0     H75137   9.105   2.102   4.853 -1.2143  1.6645  0.2648
  557MOL0     H75138   9.025   1.970   5.044  0.1888 -0.8453  2.8418
  557MOL0     H75139   9.132   2.042   5.161 -2.1915 -1.3322  1.2065
  557MOL0     H75140   9.020   2.269   5.137  1.7424  1.4381 -3.9355
  557MOL0     H75141   8.902   2.189   5.024 -2.3267 -0.9874  1.0443
  557MOL0     H75142   8.863   2.226   5.288  1.0447  0.1224  0.4030
  557MOL0     H75143   8.947   2.075   5.295  1.3806  0.6527 -0.2700
  557MOL0     H75144   8.741   1.984   5.135 -2.6370  1.1214 -2.8878
  557MOL0     H75145   8.704   2.049   5.289  0.1324 -3.0930 -0.4707
  557MOL0     H75146   8.559   2.043   4.986 -0.2110  0.2575 -0.6944
  557MOL0     H75147   8.317   2.133   4.915 -1.8307  2.5961 -2.0471
  557MOL0     H75148   8.276   2.195   5.080  2.5485  0.0564  1.1087
  557MOL0     H75149   8.346   2.384   4.856 -1.7022 -0.0291 -1.2483
  557MOL0     H75150   8.186   2.308   4.866 -1.7720  1.6755  1.5961
  557MOL0     H75151   8.302   2.465   5.102 -0.0504  3.1669 -1.6350
  557MOL0     H75152   8.144   2.373   5.087  0.4168  1.1344  0.0303
  557MOL0     H75153   8.044   2.513   4.939 -1.9719  1.3914  0.0154
  557MOL0     H75154   8.189   2.616   4.916 -3.6042  0.9091 -0.7175
  557MOL0     H75155   8.033   2.781   5.318 -1.5355  1.4133 -0.3934
  557MOL0     H75156   7.807   2.804   5.414  1.0419 -0.1248  0.0846
  557MOL0     H75157   7.430   2.456   5.488 -0.8087 -0.0750  2.6158
  557MOL0     H75158   7.196   2.390   5.566 -0.3542 -1.2601 -0.1882
  557MOL0     H75159   7.018   2.422   5.670 -0.2848 -0.2207  0.5026
  557MOL0     H75160   6.977   2.597   5.709  1.2874 -1.3671  1.6727
  557MOL0     H75161   6.808   2.374   5.623  1.3571 -0.0823 -1.0200
  557MOL0     H75162   6.818   2.440   5.787  1.7140  2.7596  0.6553
  557MOL0     H75163   6.604   2.527   5.676 -0.3153 -1.9274 -4.1065
  557MOL0     H75164   6.703   2.662   5.711 -1.5343  1.0389 -1.5177
  557MOL0     H75165   6.711   2.525   5.438  1.2854 -0.9833  0.7594
  557MOL0     H75166   6.794   2.673   5.473  1.4826 -1.7297  0.7969
  557MOL0     H75167   6.626   2.737   5.366 -1.0723  0.0328  0.1037
  557MOL0     H75168   6.585   2.789   5.530  2.4054  0.6332 -0.3820
  557MOL0     H75169   6.457   2.536   5.432 -0.5268  0.8800 -0.4946
  557MOL0     H75170   6.416   2.640   5.562  2.2987 -3.0769  0.9729
  557MOL0     H75171   6.405   2.723   5.275  3.5280  1.3915  0.4046
  557MOL0     H75172   6.378   2.834   5.413 -1.6475  0.0590  1.0931
  557MOL0     H75173   6.185   2.694   5.492 -1.1089  0.7762 -0.4075
  557MOL0     H75174   6.157   2.772   5.341  0.4493 -0.5052  0.8292
  557MOL0     H75175   7.030   2.697   5.342 -1.1433 -1.4134 -0.9840
  557MOL0     H75176   7.268   2.757   5.247 -2.8134  1.7921  1.0320
  557MOL0     H75177   7.654   2.551   5.117  0.4024  1.5578 -0.6892
  557MOL0     H75178   7.877   2.533   5.009  1.5439 -3.1543  1.3999
  557MOL0     H75179   9.661   1.760   4.893 -3.9056  3.1629  1.4679
  557MOL0     H75180   9.907   1.775   4.800 -0.4147 -0.7575 -0.4254
  557MOL0     H75181  10.022   1.747   4.382  1.4405 -0.4386  1.3607
  557MOL0     H75182  10.095   1.669   4.172 -0.8839  1.8678 -4.3849
  557MOL0     H75183  10.345   1.677   3.867  2.3164  1.0409  0.9247
  557MOL0     H75184  10.203   1.621   3.958  0.7069 -1.7897 -1.6388
  557MOL0     H75185  10.379   1.587   4.157 -1.3888  1.1133  0.0755
  557MOL0     H75186  10.494   1.632   4.052 -0.6095  0.7502  1.0919
  557MOL0     H75187  10.445   1.429   3.897 -3.9196 -1.6651 -1.4595
  557MOL0     H75188  10.303   1.396   3.997 -0.0775 -0.2472  0.3173
  557MOL0     H75189  10.515   1.253   4.055  0.0010 -0.1415 -0.2241
  557MOL0     H75190  10.599   1.397   4.089 -0.3278  2.3659 -1.7825
  557MOL0     H75191  10.323   1.317   4.428 -0.1455  4.1313  1.4521
  557MOL0     H75192  10.311   2.036   4.103 -0.7996 -0.1450 -0.6877
  557MOL0     H75193  10.122   2.230   4.246 -0.1447 -1.1118 -2.6730
  557MOL0     H75194  10.199   2.201   4.409  1.9405 -3.3246  0.5676
  557MOL0     H75195  10.301   2.201   4.271 -0.1271 -2.0830  1.1992
  558MOL0     O75196   6.233   4.599   5.171  0.1476  0.3893  0.6195
  558MOL0     C75197   6.175   4.643   5.075 -0.1816 -0.2672 -0.3586
  558MOL0     O75198   6.059   4.714   5.088 -0.3932 -0.7260  0.7851
  558MOL0     C75199   6.004   4.723   5.212  0.5265 -0.1449  0.1158
  558MOL0     C75200   5.865   4.698   5.224 -0.4640  1.2792  0.5357
  558MOL0     C75201   5.790   4.714   5.341 -0.3694 -0.2857 -1.0905
  558MOL0     C75202   5.854   4.773   5.451 -0.1235 -0.4117 -0.0490
  558MOL0     O75203   5.793   4.814   5.566  0.3891  0.4288  0.1191
  558MOL0     C75204   5.707   4.724   5.639 -0.5802 -0.6936 -0.0387
  558MOL0     C75205   5.656   4.786   5.772  1.3003  0.2232  1.0650
  558MOL0     C75206   5.539   4.891   5.746  0.6922 -0.5357 -0.3484
  558MOL0     C75207   5.470   4.941   5.873  0.8834 -0.0440  0.2587
  558MOL0     C75208   5.377   5.061   5.842 -0.6561  0.1430 -0.4939
  558MOL0     C75209   5.295   5.105   5.969  1.3048  0.5166  0.7141
  558MOL0     C75210   5.188   5.214   5.933  0.7202 -0.0205 -0.5579
  558MOL0     C75211   5.149   5.294   6.056  0.1312  0.3916 -0.1770
  558MOL0     N75212   5.043   5.390   6.007  0.2506 -0.1837 -0.0228
  558MOL0     C75213   5.030   5.522   6.020 -0.8869 -0.7784  1.1602
  558MOL0     C75214   4.914   5.546   5.957  0.0419  0.7334  0.9574
  558MOL0     C75215   4.860   5.687   5.928 -0.7642  0.2466 -0.0306
  558MOL0     C75216   4.769   5.703   5.801  0.7081 -0.0420 -0.2824
  558MOL0     C75217   4.677   5.832   5.805 -0.5401 -0.0642 -0.3479
  558MOL0     C75218   4.606   5.844   5.670 -0.7745  0.4475  0.0410
  558MOL0     O75219   4.522   5.731   5.627 -0.0930 -0.5727  0.1513
  558MOL0     C75220   4.395   5.754   5.598  1.1936  0.0147  0.1046
  558MOL0     C75221   4.330   5.639   5.565 -0.0116 -0.7382  1.3780
  558MOL0     C75222   4.194   5.640   5.541  0.5541  0.1870 -0.5573
  558MOL0     C75223   4.118   5.759   5.548  0.2946 -0.8155 -0.5604
  558MOL0     C75224   3.978   5.765   5.513  0.4789 -0.7721  0.0202
  558MOL0     O75225   3.908   5.878   5.525  0.3255  0.8019  0.8434
  558MOL0     C75226   3.771   5.862   5.505  0.4032 -0.9115  0.2848
  558MOL0     C75227   3.688   5.833   5.620  0.0775  0.0790  0.2767
  558MOL0     C75228   3.555   5.842   5.602 -0.2032 -0.6063  0.1485
  558MOL0     C75229   3.505   5.858   5.473  0.1241  0.7893 -0.1217
  558MOL0     O75230   3.370   5.880   5.453  0.3545  0.4597 -0.0790
  558MOL0     C75231   3.286   5.879   5.567 -0.0764  0.4474  0.3543
  558MOL0     C75232   3.149   5.910   5.512 -0.0717  0.1677 -0.0780
  558MOL0     C75233   3.043   5.877   5.616 -0.3576 -0.3274  0.3011
  558MOL0     C75234   2.903   5.861   5.570  0.9984  0.1467  0.2309
  558MOL0     C75235   2.838   5.971   5.492  0.7122  0.0788 -0.7910
  558MOL0     C75236   2.874   5.971   5.340 -1.1230  0.0820 -0.2842
  558MOL0     C75237   2.767   6.038   5.254 -0.0984 -0.4030 -0.4951
  558MOL0     C75238   2.783   6.002   5.105 -1.9648 -0.2715 -0.3936
  558MOL0    Cl75239   2.616   5.978   5.042 -0.2078 -0.0337  0.0512
  558MOL0     C75240   3.583   5.867   5.363  1.0623 -0.1399  0.1266
  558MOL0     C75241   3.717   5.877   5.371 -0.6426  0.3617 -0.8943
  558MOL0     O75242   3.928   5.658   5.468  0.1641 -0.0505  0.2156
  558MOL0     C75243   4.183   5.866   5.597  0.1237 -0.4892  0.2456
  558MOL0     C75244   4.319   5.864   5.627  0.2324  0.8163  0.7297
  558MOL0     N75245   4.856   5.433   5.901  0.0820  0.1794 -0.0120
  558MOL0     N75246   4.931   5.336   5.945  0.5847  0.3209 -0.0524
  558MOL0     C75247   5.992   4.811   5.434 -0.0018  0.4183  0.5163
  558MOL0     C75248   6.074   4.779   5.322  0.2810  0.3026 -0.3018
  558MOL0     C75249   6.233   4.644   4.945  0.7148  0.8479  0.1368
  558MOL0     C75250   6.285   4.521   4.896  0.5572  0.0683  0.4506
  558MOL0     C75251   6.314   4.506   4.768 -1.0977 -0.4568 -0.3179
  558MOL0     C75252   6.304   4.612   4.676 -0.0739  0.4311  0.3946
  558MOL0     O75253   6.343   4.595   4.543 -0.0278  0.3109 -0.5135
  558MOL0     C75254   6.339   4.705   4.445 -0.4493  0.5515 -1.0572
  558MOL0     C75255   6.349   4.650   4.299 -0.4661 -0.1866 -0.2211
  558MOL0     C75256   6.492   4.588   4.284  0.5064  0.1905  0.0309
  558MOL0     C75257   6.526   4.546   4.142  0.0530  0.5018 -0.3377
  558MOL0     C75258   6.668   4.554   4.105  0.4221  0.6388  0.4347
  558MOL0     C75259   6.783   4.576   4.078  0.1162  0.0825  1.2446
  558MOL0     C75260   6.281   4.738   4.733  0.2316 -0.2422  0.6606
  558MOL0     C75261   6.247   4.755   4.864 -0.2118  0.6817  0.0341
  558MOL0     C75262   6.211   4.889   4.921 -0.4197  0.2261  0.9484
  558MOL0     H75263   5.807   4.666   5.138 -1.2239 -1.4815  1.9636
  558MOL0     H75264   5.687   4.681   5.351 -0.6179  0.3062 -1.6320
  558MOL0     H75265   5.624   4.693   5.574 -1.2154 -0.0810  0.4626
  558MOL0     H75266   5.763   4.632   5.659 -2.0821 -1.7685 -0.5438
  558MOL0     H75267   5.738   4.835   5.826  1.5592 -0.5172  1.3572
  558MOL0     H75268   5.614   4.706   5.833  3.3118 -0.7812  1.2461
  558MOL0     H75269   5.475   4.860   5.664  1.3222 -0.0532 -1.0364
  558MOL0     H75270   5.584   4.983   5.709 -4.0615  2.4690  0.5423
  558MOL0     H75271   5.409   4.858   5.910  0.1847  0.3391 -0.0139
  558MOL0     H75272   5.547   4.972   5.943  1.3060  0.8674 -0.5847
  558MOL0     H75273   5.424   5.153   5.807 -0.9741  0.2559 -0.6280
  558MOL0     H75274   5.303   5.034   5.766 -1.1571 -2.9826  0.9397
  558MOL0     H75275   5.256   5.008   6.002  3.1065 -0.9466 -1.2579
  558MOL0     H75276   5.359   5.127   6.055 -1.8579 -3.6074  4.5809
  558MOL0     H75277   5.100   5.167   5.888  0.0253  1.1591 -0.4573
  558MOL0     H75278   5.233   5.277   5.855 -1.4037  0.7303 -1.2492
  558MOL0     H75279   5.107   5.220   6.124  1.8866 -1.3134 -0.8504
  558MOL0     H75280   5.245   5.335   6.086  0.7256  0.8382 -2.4704
  558MOL0     H75281   5.102   5.591   6.063  0.5278 -3.6664  3.8514
  558MOL0     H75282   4.815   5.718   6.023  1.3258 -0.5462  1.3205
  558MOL0     H75283   4.944   5.755   5.913 -2.7966  3.0454  0.4263
  558MOL0     H75284   4.835   5.695   5.714  0.2237 -0.1389 -0.6447
  558MOL0     H75285   4.699   5.619   5.794  0.8455 -0.1974  0.1568
  558MOL0     H75286   4.744   5.913   5.836  2.8182 -2.3547 -1.0167
  558MOL0     H75287   4.603   5.802   5.880  1.2306 -0.0531  1.5069
  558MOL0     H75288   4.683   5.849   5.593  1.0079 -1.3327  1.5990
  558MOL0     H75289   4.552   5.939   5.660  0.6541  1.0334 -2.8580
  558MOL0     H75290   4.392   5.550   5.558 -0.8272 -1.1889 -1.3048
  558MOL0     H75291   4.161   5.546   5.497 -0.4787  0.0300  0.5085
  558MOL0     H75292   3.727   5.829   5.721  0.7932 -2.9439 -0.0375
  558MOL0     H75293   3.495   5.840   5.692 -0.2664 -0.0052  0.1256
  558MOL0     H75294   3.283   5.777   5.607 -1.4641 -0.5926 -2.1334
  558MOL0     H75295   3.309   5.957   5.640  1.3053 -1.2072  1.7581
  558MOL0     H75296   3.137   6.016   5.492 -2.2040  0.1430  0.8165
  558MOL0     H75297   3.128   5.850   5.422 -2.4688  0.1541  0.4212
  558MOL0     H75298   3.063   5.786   5.673  2.8658  2.2783  3.9030
  558MOL0     H75299   3.046   5.959   5.689  0.4453 -0.5615  0.5458
  558MOL0     H75300   2.844   5.856   5.662 -0.7759  0.8886 -0.8023
  558MOL0     H75301   2.879   5.777   5.504 -1.3237  2.0144 -1.4935
  558MOL0     H75302   2.851   6.069   5.539 -1.5040 -0.9757  2.3668
  558MOL0     H75303   2.730   5.956   5.498  0.5331  1.1200 -1.2866
  558MOL0     H75304   2.967   6.028   5.332  0.4454 -1.3306  4.6486
  558MOL0     H75305   2.891   5.867   5.310 -0.1146  0.0884  0.2236
  558MOL0     H75306   2.756   6.145   5.272 -0.3820 -0.8041  1.9346
  558MOL0     H75307   2.666   5.999   5.269 -1.3022  2.7804  0.4442
  558MOL0     H75308   2.829   6.079   5.044 -0.9680 -1.0402 -0.6367
  558MOL0     H75309   2.840   5.909   5.099 -1.8393 -0.1648 -0.8363
  558MOL0     H75310   3.533   5.879   5.268  1.9288  1.9387 -0.1251
  558MOL0     H75311   3.775   5.885   5.280 -0.7947 -1.1613 -1.1548
  558MOL0     H75312   4.129   5.959   5.612 -0.3728 -0.4364 -1.5409
  558MOL0     H75313   4.358   5.961   5.660 -0.1183  1.6827 -1.2790
  558MOL0     H75314   6.015   4.893   5.502 -2.4591  1.7356 -0.1110
  558MOL0     H75315   6.177   4.811   5.336 -0.9324  3.6083  2.0622
  558MOL0     H75316   6.284   4.431   4.958 -0.7599 -1.4009 -1.5783
  558MOL0     H75317   6.352   4.411   4.733  2.1576  0.5506  0.1107
  558MOL0     H75318   6.415   4.782   4.460 -0.8410  0.7413  0.0913
  558MOL0     H75319   6.239   4.749   4.439 -1.2846 -1.0421  0.2585
  558MOL0     H75320   6.324   4.733   4.233 -4.5831 -1.8615 -1.0646
  558MOL0     H75321   6.267   4.581   4.283 -1.6714  0.1948  3.2800
  558MOL0     H75322   6.509   4.505   4.353  3.7503  0.9023  0.2240
  558MOL0     H75323   6.570   4.659   4.311  1.5209 -1.4712  1.7129
  558MOL0     H75324   6.483   4.447   4.124  1.8389 -1.3217  4.0229
  558MOL0     H75325   6.488   4.628   4.080  3.3831  2.0441 -0.5493
  558MOL0     H75326   6.885   4.601   4.057  0.1314 -1.1738 -0.3424
  558MOL0     H75327   6.285   4.827   4.671 -0.3055 -1.2548 -0.8907
  558MOL0     H75328   6.108   4.884   4.957 -1.4209 -3.0078 -1.9150
  558MOL0     H75329   6.275   4.914   5.007 -0.4878  0.6660  0.8753
  558MOL0     H75330   6.210   4.967   4.844  1.5039 -0.5085  0.1248
  559MOL0     O75331  10.307   2.759   3.430 -0.6598 -0.8850  0.3423
  559MOL0     C75332  10.298   2.762   3.554  0.4292  0.1194  0.2078
  559MOL0     O75333  10.198   2.841   3.621 -0.2148  0.2379 -0.1315
  559MOL0     C75334  10.077   2.870   3.549 -0.2262  0.6308 -1.2748
  559MOL0     C75335  10.034   3.000   3.553  1.0773 -0.4191 -0.4631
  559MOL0     C75336   9.908   3.047   3.492 -1.1059  0.3984 -0.3190
  559MOL0     C75337   9.827   2.954   3.430  0.7719 -0.0667 -0.2610
  559MOL0     O75338   9.717   3.007   3.375  0.8857  0.3198  0.9531
  559MOL0     C75339   9.642   2.937   3.274 -0.2968 -0.1233  0.2558
  559MOL0     C75340   9.510   3.008   3.249  0.8332 -0.2776  0.3133
  559MOL0     C75341   9.434   2.944   3.135 -0.0203  0.6137  0.6059
  559MOL0     C75342   9.327   3.036   3.080 -0.3369  0.1007  1.1559
  559MOL0     C75343   9.229   2.979   2.978  0.2308 -0.5377 -0.1568
  559MOL0     C75344   9.100   2.935   3.060  0.0283 -0.7230 -0.4103
  559MOL0     C75345   9.011   2.877   2.953 -0.0419  0.0861 -0.7764
  559MOL0     C75346   8.879   2.827   3.021  0.0845 -0.5717  0.2911
  559MOL0     N75347   8.812   2.720   2.949  0.3818 -0.2872  0.3046
  559MOL0     C75348   8.689   2.674   2.971  0.1646 -0.2848 -0.7153
  559MOL0     C75349   8.679   2.573   2.887 -0.4928 -0.2393  0.1544
  559MOL0     C75350   8.559   2.480   2.884  0.7418  0.5042 -0.8279
  559MOL0     C75351   8.469   2.495   2.754 -0.1903  0.2480 -0.1700
  559MOL0     C75352   8.340   2.407   2.763 -0.3506  0.4324 -0.7624
  559MOL0     C75353   8.360   2.262   2.710 -0.6890 -0.3709 -0.3566
  559MOL0     O75354   8.355   2.249   2.569 -0.1264 -0.5192 -0.7714
  559MOL0     C75355   8.342   2.121   2.516  0.4373 -0.4921 -0.3798
  559MOL0     C75356   8.348   2.004   2.589 -0.1855 -0.0437  0.4857
  559MOL0     C75357   8.322   1.886   2.525 -0.2480  0.5823 -0.3388
  559MOL0     C75358   8.287   1.871   2.388 -0.4404  0.3631  0.6469
  559MOL0     C75359   8.253   1.756   2.314  0.4090 -0.0122  0.7187
  559MOL0     O75360   8.176   1.769   2.194  0.3338 -0.4196  0.1661
  559MOL0     C75361   8.117   1.653   2.144  0.0757 -0.5157 -0.0415
  559MOL0     C75362   8.053   1.561   2.221  0.2333 -0.1625 -0.4721
  559MOL0     C75363   7.990   1.447   2.170  0.0623  0.1381 -0.6567
  559MOL0     C75364   8.002   1.422   2.034  0.5579  0.2915  0.3908
  559MOL0     O75365   7.937   1.318   1.976  0.1119  0.0864 -0.4812
  559MOL0     C75366   7.998   1.187   2.003  0.8187 -0.1641  0.3589
  559MOL0     C75367   8.100   1.132   1.905 -1.0377 -0.1494  0.0003
  559MOL0     C75368   8.043   1.085   1.773 -0.2001  0.2429 -0.0478
  559MOL0     C75369   7.955   0.950   1.764 -0.5019 -0.5826 -0.0162
  559MOL0     C75370   8.027   0.843   1.674 -0.0195  0.4294  1.7740
  559MOL0     C75371   7.989   0.878   1.527  0.4848 -0.0672 -0.0146
  559MOL0     C75372   8.027   0.752   1.448 -0.3735  0.6622 -0.5102
  559MOL0     C75373   8.011   0.778   1.296 -0.2802 -1.4628  0.1373
  559MOL0    Cl75374   8.156   0.868   1.251 -0.2305  0.6563 -0.0576
  559MOL0     C75375   8.072   1.513   1.949  0.7308 -0.2252 -0.5918
  559MOL0     C75376   8.132   1.625   2.012  0.4387  0.6273  0.3555
  559MOL0     O75377   8.293   1.652   2.366 -0.0579 -0.1770 -0.9460
  559MOL0     C75378   8.292   1.987   2.313 -0.4976 -0.9325 -0.1112
  559MOL0     C75379   8.315   2.112   2.375 -0.2050  0.2000 -0.3536
  559MOL0     N75380   8.794   2.552   2.812  1.1763  0.0950 -0.2836
  559MOL0     N75381   8.874   2.641   2.856  0.3896  0.0906  0.6001
  559MOL0     C75382   9.867   2.818   3.423 -0.1473  0.3007 -0.4819
  559MOL0     C75383   9.995   2.778   3.477  0.0731  0.2937 -0.3221
  559MOL0     C75384  10.375   2.664   3.646 -0.3594  0.0358  0.1975
  559MOL0     C75385  10.377   2.682   3.782 -1.0179  0.4957 -0.9120
  559MOL0     C75386  10.457   2.614   3.870  0.5693 -0.1629  0.1800
  559MOL0     C75387  10.527   2.503   3.815 -0.2808 -0.6962  0.7047
  559MOL0     O75388  10.589   2.408   3.892 -0.2572 -0.4339  0.2894
  559MOL0     C75389  10.684   2.460   3.986 -0.6530  0.3279 -0.4034
  559MOL0     C75390  10.745   2.339   4.062  0.4837 -1.2495  0.6741
  559MOL0     C75391  10.844   2.259   3.981  0.5849 -1.1278 -0.1638
  559MOL0     C75392  10.924   2.157   4.062 -0.2237 -0.1188 -0.8818
  559MOL0     C75393  11.039   2.221   4.124 -0.7677  0.4371 -0.1436
  559MOL0     C75394  11.137   2.269   4.172 -0.1574 -0.0728  0.5251
  559MOL0     C75395  10.515   2.471   3.680  0.8108  0.8405 -0.4395
  559MOL0     C75396  10.443   2.549   3.590 -0.0784 -0.6360 -0.0550
  559MOL0     C75397  10.453   2.527   3.449  0.1269 -1.3571 -0.0068
  559MOL0     H75398  10.096   3.072   3.604  1.2432 -0.1990 -0.9656
  559MOL0     H75399   9.873   3.149   3.501 -0.5509  0.7658 -2.0907
  559MOL0     H75400   9.704   2.936   3.184  1.3923  2.2773  1.2875
  559MOL0     H75401   9.624   2.836   3.311  1.3076 -0.6820 -0.4240
  559MOL0     H75402   9.534   3.113   3.230 -0.1112 -0.2141 -0.6589
  559MOL0     H75403   9.452   2.999   3.341 -1.3666  0.1740 -0.9710
  559MOL0     H75404   9.393   2.846   3.160  2.1545 -0.9537 -1.5115
  559MOL0     H75405   9.506   2.925   3.055 -1.2538 -1.5013 -0.0962
  559MOL0     H75406   9.270   3.082   3.161 -0.7783  2.4899 -0.4082
  559MOL0     H75407   9.380   3.118   3.030  0.6824  0.1913  2.3538
  559MOL0     H75408   9.209   3.057   2.904 -0.6105  0.3085  0.9262
  559MOL0     H75409   9.257   2.891   2.920 -1.5526 -1.0642 -0.2689
  559MOL0     H75410   9.115   2.864   3.142 -3.0931 -1.6352 -0.5048
  559MOL0     H75411   9.056   3.028   3.096 -2.0963 -0.7647 -2.6444
  559MOL0     H75412   9.069   2.793   2.914 -0.2866 -1.8717  2.6437
  559MOL0     H75413   8.981   2.947   2.875 -0.9563  1.4084  0.7148
  559MOL0     H75414   8.891   2.802   3.127 -3.0165  3.2756  1.7792
  559MOL0     H75415   8.819   2.918   3.022 -0.0211 -0.5834  3.0321
  559MOL0     H75416   8.622   2.707   3.050  1.8495 -1.2041  1.1990
  559MOL0     H75417   8.586   2.375   2.881 -1.6404 -0.1925 -0.0231
  559MOL0     H75418   8.498   2.487   2.975  0.8989  1.7477 -0.8016
  559MOL0     H75419   8.437   2.599   2.766 -0.6167  0.4017 -2.2952
  559MOL0     H75420   8.514   2.481   2.656 -0.3363 -0.7187 -0.1075
  559MOL0     H75421   8.262   2.460   2.709 -0.3649 -0.8228 -2.0287
  559MOL0     H75422   8.313   2.397   2.869  4.7134 -0.7890  0.7036
  559MOL0     H75423   8.274   2.209   2.753 -3.3782  2.3802 -1.9050
  559MOL0     H75424   8.458   2.225   2.739 -1.6897 -1.3368  2.0400
  559MOL0     H75425   8.366   2.010   2.696  2.7728  1.6667  0.0087
  559MOL0     H75426   8.322   1.797   2.587  2.8112  0.2015 -0.7328
  559MOL0     H75427   8.034   1.596   2.323  0.9772 -3.3874  0.8990
  559MOL0     H75428   7.917   1.385   2.221  0.4009 -0.9116 -1.4253
  559MOL0     H75429   8.051   1.190   2.099  2.2431  1.8199 -0.4109
  559MOL0     H75430   7.914   1.118   2.012 -2.8198  3.8657 -0.0467
  559MOL0     H75431   8.174   1.211   1.889 -2.7044  1.6854  0.9378
  559MOL0     H75432   8.156   1.048   1.947  1.8979  0.8561 -1.6129
  559MOL0     H75433   7.991   1.173   1.735 -2.3035 -0.5326  0.8674
  559MOL0     H75434   8.123   1.075   1.699  1.6621  0.9752  1.7608
  559MOL0     H75435   7.853   0.982   1.743 -0.0520  2.9689  2.3213
  559MOL0     H75436   7.951   0.915   1.868 -3.0774 -0.1482  0.0976
  559MOL0     H75437   7.979   0.751   1.708 -1.5885  0.6450  0.2334
  559MOL0     H75438   8.135   0.852   1.690 -0.0899  0.3342  2.3420
  559MOL0     H75439   7.882   0.900   1.523  0.3555 -0.2188  1.7880
  559MOL0     H75440   8.045   0.967   1.495 -0.1873  0.1308 -0.6754
  559MOL0     H75441   7.956   0.672   1.469 -1.2994  0.6112 -3.4130
  559MOL0     H75442   8.133   0.735   1.465 -0.0709 -0.7550 -3.3373
  559MOL0     H75443   7.998   0.689   1.234  1.0252 -0.4945 -1.6327
  559MOL0     H75444   7.921   0.839   1.280 -0.1477 -1.9027 -2.9949
  559MOL0     H75445   8.078   1.497   1.842  1.2417 -2.0972 -0.3226
  559MOL0     H75446   8.177   1.699   1.946 -0.6421  1.4380  0.4992
  559MOL0     H75447   8.280   2.003   2.206 -3.0920  3.2125  0.5426
  559MOL0     H75448   8.311   2.207   2.323 -0.0378 -0.9855 -2.6393
  559MOL0     H75449   9.808   2.734   3.387  1.7098 -2.7597  2.8457
  559MOL0     H75450  10.037   2.678   3.477 -1.3017 -0.3378  1.5225
  559MOL0     H75451  10.332   2.771   3.824  1.6563  2.1073 -1.2458
  559MOL0     H75452  10.445   2.628   3.977 -1.1355 -4.0651  0.6953
  559MOL0     H75453  10.644   2.536   4.053 -1.6248  1.2296 -1.9389
  559MOL0     H75454  10.775   2.506   3.946  0.1741  0.3438  1.3807
  559MOL0     H75455  10.658   2.281   4.092 -0.9171 -0.5904 -1.7799
  559MOL0     H75456  10.788   2.379   4.154  3.7318 -2.0031 -0.3796
  559MOL0     H75457  10.907   2.333   3.931  1.4793 -1.7984 -0.0432
  559MOL0     H75458  10.793   2.199   3.904  0.9626 -1.4495 -0.1685
  559MOL0     H75459  10.857   2.126   4.142 -0.2186  2.5040  0.2234
  559MOL0     H75460  10.956   2.082   3.988  2.2837  2.7478 -2.9457
  559MOL0     H75461  11.220   2.329   4.205 -0.9873  2.3486 -1.4405
  559MOL0     H75462  10.568   2.384   3.644 -1.2363  0.6743 -3.4148
  559MOL0     H75463  10.351   2.515   3.411 -0.4386 -2.9292  1.8365
  559MOL0     H75464  10.496   2.615   3.400 -1.2142  0.6932  2.2758
  559MOL0     H75465  10.523   2.446   3.424  1.2470 -0.4068 -0.0244
  560MOL0     O75466   8.558   5.145   7.813  0.2302 -0.9643 -0.8469
  560MOL0     C75467   8.601   5.261   7.816  0.8695  0.3214  0.2804
  560MOL0     O75468   8.624   5.334   7.935 -0.3036 -0.5915  0.1312
  560MOL0     C75469   8.576   5.267   8.043  0.3341  0.0934 -0.3657
  560MOL0     C75470   8.663   5.230   8.141 -0.0473 -0.3025  0.0657
  560MOL0     C75471   8.624   5.175   8.264 -0.7169 -0.2914  0.0280
  560MOL0     C75472   8.491   5.139   8.285  0.8165 -0.2721  0.1394
  560MOL0     O75473   8.452   5.062   8.394 -0.4339  0.1884  0.0645
  560MOL0     C75474   8.323   5.024   8.419 -0.2843 -0.3516  0.2947
  560MOL0     C75475   8.338   4.972   8.565  0.2568 -0.0079  0.1656
  560MOL0     C75476   8.458   4.878   8.598 -0.7824  0.0025  0.6775
  560MOL0     C75477   8.469   4.753   8.520 -0.2057  0.6630 -0.1847
  560MOL0     C75478   8.598   4.681   8.555 -1.1794 -0.7832 -0.4108
  560MOL0     C75479   8.580   4.535   8.506 -0.4561 -1.3509 -0.3647
  560MOL0     C75480   8.708   4.456   8.476 -0.5827 -0.0510 -0.1860
  560MOL0     C75481   8.686   4.326   8.396  0.0069  0.7113 -0.1305
  560MOL0     N75482   8.812   4.264   8.354 -0.0901  0.4745 -0.5465
  560MOL0     C75483   8.905   4.201   8.432  0.0391  0.7771 -0.5665
  560MOL0     C75484   8.999   4.153   8.342 -0.0260  0.6440 -0.4726
  560MOL0     C75485   9.132   4.097   8.388 -0.6552 -0.1353 -0.1876
  560MOL0     C75486   9.136   3.943   8.372  0.3742 -0.2583  0.5968
  560MOL0     C75487   9.162   3.891   8.234  0.2312  0.8065  0.3607
  560MOL0     C75488   9.132   3.742   8.225  0.5849  0.5367  1.0179
  560MOL0     O75489   9.188   3.691   8.104 -0.7043  0.6798  0.1938
  560MOL0     C75490   9.139   3.727   7.978 -0.3376  0.9032  0.0040
  560MOL0     C75491   9.227   3.695   7.871  0.4841 -0.4360 -0.4621
  560MOL0     C75492   9.190   3.724   7.737 -0.7123 -0.4510 -0.4826
  560MOL0     C75493   9.065   3.786   7.706  0.6220 -0.9552  0.1761
  560MOL0     C75494   9.030   3.812   7.564  0.7517 -0.6926 -0.2805
  560MOL0     O75495   8.908   3.866   7.541  0.4945 -0.3689 -0.4787
  560MOL0     C75496   8.844   3.884   7.423  0.3483 -0.3279 -0.3655
  560MOL0     C75497   8.877   3.838   7.297  0.4230  0.2571  0.3390
  560MOL0     C75498   8.785   3.841   7.189  0.3113  0.5043 -0.2509
  560MOL0     C75499   8.674   3.920   7.190  0.0239  0.5323  1.0475
  560MOL0     O75500   8.587   3.947   7.092 -0.2073  0.4923  0.7311
  560MOL0     C75501   8.621   3.924   6.955  0.3323  0.7699 -0.5086
  560MOL0     C75502   8.505   3.918   6.858  0.1647 -0.0449  0.7344
  560MOL0     C75503   8.445   4.058   6.891  0.0833  0.1648  0.6766
  560MOL0     C75504   8.346   4.082   6.784  0.2332  0.4130 -0.1475
  560MOL0     C75505   8.252   4.197   6.808 -0.9064 -0.4876  0.0107
  560MOL0     C75506   8.115   4.179   6.744 -0.2811  0.6068  1.1125
  560MOL0     C75507   7.996   4.255   6.807  0.2084 -0.0601 -0.5174
  560MOL0     C75508   7.878   4.269   6.703 -0.8253 -0.2456 -0.3001
  560MOL0    Cl75509   7.816   4.118   6.644 -0.7931  0.5013  0.3725
  560MOL0     C75510   8.644   3.968   7.317  0.5333 -0.5359 -0.6612
  560MOL0     C75511   8.726   3.956   7.429 -0.0197  0.1814  0.7855
  560MOL0     O75512   9.120   3.809   7.481  0.3342 -0.6022 -0.4090
  560MOL0     C75513   8.976   3.814   7.814 -1.0239 -0.4497 -0.2195
  560MOL0     C75514   9.013   3.785   7.954 -0.5725 -0.4031  0.3347
  560MOL0     N75515   8.966   4.189   8.215 -0.5136  0.6982  0.1566
  560MOL0     N75516   8.847   4.241   8.220  1.0746 -0.7198 -0.1793
  560MOL0     C75517   8.401   5.173   8.182 -0.3223  0.2602 -0.0085
  560MOL0     C75518   8.433   5.240   8.069  0.2220 -0.0088  0.0049
  560MOL0     C75519   8.645   5.310   7.690 -0.3665 -0.8751  0.9058
  560MOL0     C75520   8.691   5.446   7.696  0.4084 -0.0952 -0.7212
  560MOL0     C75521   8.748   5.509   7.583 -0.5008  0.4097 -0.8186
  560MOL0     C75522   8.766   5.450   7.460  0.8875  0.1951  0.0255
  560MOL0     O75523   8.814   5.519   7.349  0.0737  0.3367  0.3780
  560MOL0     C75524   8.884   5.650   7.360 -0.4541  0.7207  0.6511
  560MOL0     C75525   8.790   5.762   7.359  0.9020 -0.1149 -0.3957
  560MOL0     C75526   8.845   5.893   7.413 -0.5733  0.3211 -0.1500
  560MOL0     C75527   8.740   5.992   7.461  0.7210 -0.3535  0.1125
  560MOL0     C75528   8.666   6.047   7.349  0.3782  0.6338  0.1795
  560MOL0     C75529   8.605   6.101   7.256  0.5651 -0.2730 -0.1574
  560MOL0     C75530   8.718   5.318   7.450 -0.4767 -0.1769  0.6403
  560MOL0     C75531   8.663   5.250   7.563 -0.3596 -0.1824  0.6787
  560MOL0     C75532   8.623   5.105   7.545  0.5895  0.1255 -0.3196
  560MOL0     H75533   8.767   5.260   8.151  1.6502 -5.7000  1.7051
  560MOL0     H75534   8.692   5.150   8.345  1.2937  1.1828 -1.1074
  560MOL0     H75535   8.244   5.100   8.413 -1.9089 -2.0825 -2.3718
  560MOL0     H75536   8.288   4.947   8.350 -1.1479  0.9484 -0.7698
  560MOL0     H75537   8.242   4.932   8.598 -0.3280  1.1024 -0.1278
  560MOL0     H75538   8.350   5.060   8.629 -0.6436 -0.4745  0.9802
  560MOL0     H75539   8.451   4.845   8.702 -1.1984 -0.0069  0.6510
  560MOL0     H75540   8.552   4.929   8.577 -0.8471 -0.4060 -0.7287
  560MOL0     H75541   8.391   4.678   8.532  1.9263 -1.5974  0.3135
  560MOL0     H75542   8.472   4.771   8.412 -0.9458 -1.0184 -0.5083
  560MOL0     H75543   8.683   4.733   8.510 -1.6544  1.9840  1.6093
  560MOL0     H75544   8.618   4.685   8.662 -1.8460 -0.1189 -0.3091
  560MOL0     H75545   8.517   4.497   8.587  0.3451 -1.3318  0.2876
  560MOL0     H75546   8.516   4.521   8.419 -2.7670 -0.8296  1.1788
  560MOL0     H75547   8.752   4.432   8.573 -1.4658 -1.5924 -0.1298
  560MOL0     H75548   8.774   4.515   8.412  1.1414 -1.5187  0.1708
  560MOL0     H75549   8.622   4.261   8.456  1.4397 -1.8983 -1.2747
  560MOL0     H75550   8.633   4.362   8.307  0.0250  0.7454 -0.1278
  560MOL0     H75551   8.917   4.201   8.540 -0.1242 -0.3727 -0.5385
  560MOL0     H75552   9.210   4.146   8.329  0.1943 -2.1853 -0.8857
  560MOL0     H75553   9.157   4.106   8.494  0.6273 -3.3226 -0.1135
  560MOL0     H75554   9.217   3.903   8.434  0.4808 -0.7728  0.1295
  560MOL0     H75555   9.044   3.898   8.409  0.8588 -1.5411  0.2838
  560MOL0     H75556   9.265   3.914   8.207  1.3900  1.1218  4.3908
  560MOL0     H75557   9.090   3.939   8.167 -0.2022 -0.2384  0.0595
  560MOL0     H75558   9.025   3.724   8.235  0.9993 -6.1970 -1.7623
  560MOL0     H75559   9.178   3.692   8.311 -0.1421 -1.1408  0.4611
  560MOL0     H75560   9.320   3.654   7.908  1.2195  1.7298  0.2067
  560MOL0     H75561   9.266   3.691   7.667  1.9070  2.8284  0.5741
  560MOL0     H75562   8.973   3.789   7.285 -0.2920 -1.1124 -0.0094
  560MOL0     H75563   8.819   3.798   7.096  1.1121  2.1793 -0.7761
  560MOL0     H75564   8.692   4.004   6.934  0.6319  1.0771  1.4818
  560MOL0     H75565   8.670   3.827   6.942 -4.7494 -2.0933 -0.5967
  560MOL0     H75566   8.540   3.905   6.755 -4.4010 -0.2294 -1.0442
  560MOL0     H75567   8.439   3.832   6.874  1.0606 -1.6715 -3.0298
  560MOL0     H75568   8.390   4.051   6.986  0.7422 -0.3754  1.0245
  560MOL0     H75569   8.524   4.133   6.895  0.4194 -0.0552 -1.0363
  560MOL0     H75570   8.292   3.987   6.778  0.3515  0.2442  1.2242
  560MOL0     H75571   8.387   4.068   6.683 -0.8285  0.2978 -0.5742
  560MOL0     H75572   8.302   4.280   6.759 -1.5489 -0.4472 -0.5907
  560MOL0     H75573   8.246   4.233   6.912  2.0507  1.2393 -0.3006
  560MOL0     H75574   8.120   4.219   6.642 -2.0953  0.9841  1.1301
  560MOL0     H75575   8.082   4.075   6.735 -0.7507  0.7032  1.6353
  560MOL0     H75576   8.031   4.356   6.833  0.3319 -0.2492  0.0374
  560MOL0     H75577   7.963   4.200   6.895  0.1206 -0.8339 -1.0189
  560MOL0     H75578   7.801   4.327   6.756  0.0201  0.9360 -0.3175
  560MOL0     H75579   7.907   4.323   6.612 -2.1162  0.4390 -0.3296
  560MOL0     H75580   8.553   4.026   7.324 -0.1346 -1.3913 -1.8517
  560MOL0     H75581   8.701   3.995   7.528  1.0130  3.1744 -0.0350
  560MOL0     H75582   8.884   3.867   7.791 -1.1168  1.2527  3.3329
  560MOL0     H75583   8.948   3.820   8.034 -0.1406  2.5344 -0.4693
  560MOL0     H75584   8.297   5.145   8.194 -0.2760  0.2802  0.4875
  560MOL0     H75585   8.358   5.275   7.999 -3.3328 -0.4753  3.2552
  560MOL0     H75586   8.675   5.507   7.784  3.0184 -0.6138  0.2073
  560MOL0     H75587   8.793   5.608   7.587 -0.4441  0.3589  0.2319
  560MOL0     H75588   8.946   5.668   7.271 -3.3307 -1.3961 -2.0219
  560MOL0     H75589   8.948   5.650   7.448  0.5977  0.5513 -0.0933
  560MOL0     H75590   8.699   5.737   7.414  0.2373  1.6002 -0.6583
  560MOL0     H75591   8.759   5.772   7.254 -0.1321 -0.9504 -0.1896
  560MOL0     H75592   8.907   5.942   7.337 -0.4359 -2.4637 -1.9903
  560MOL0     H75593   8.899   5.881   7.508 -0.4104  2.5032  0.0723
  560MOL0     H75594   8.675   5.944   7.535 -0.1354 -2.0149 -1.6476
  560MOL0     H75595   8.785   6.081   7.507 -1.5384  1.0784 -0.2671
  560MOL0     H75596   8.563   6.163   7.179  0.1480 -1.6956 -1.1205
  560MOL0     H75597   8.738   5.264   7.358 -0.4015  3.7732 -1.8930
  560MOL0     H75598   8.514   5.095   7.538  0.7973 -1.4297 -2.0240
  560MOL0     H75599   8.656   5.057   7.452 -0.8601 -0.8470 -0.3633
  560MOL0     H75600   8.652   5.040   7.628 -1.1176  1.2609  1.2490
  561MOL0     O75601  11.267   2.189   6.695  0.7775 -0.7232  0.2832
  561MOL0     C75602  11.177   2.270   6.739  0.0599  0.7678  0.0495
  561MOL0     O75603  11.051   2.221   6.780  0.5237  0.4861  0.1358
  561MOL0     C75604  11.036   2.086   6.778 -0.0869  0.5309  0.2985
  561MOL0     C75605  11.110   2.004   6.864 -0.0629  0.4522  0.4894
  561MOL0     C75606  11.097   1.865   6.866  0.5256 -0.0428  1.0553
  561MOL0     C75607  11.001   1.797   6.776 -0.6057  0.2500  0.1885
  561MOL0     O75608  10.992   1.661   6.763 -0.6082 -0.4871  0.2214
  561MOL0     C75609  11.024   1.576   6.876  0.4554 -0.2332  0.4153
  561MOL0     C75610  10.939   1.449   6.867 -1.1752 -0.2053 -0.9862
  561MOL0     C75611  10.793   1.484   6.867  0.3683 -0.1670  0.6862
  561MOL0     C75612  10.713   1.403   6.970 -0.1702 -0.2853  0.3628
  561MOL0     C75613  10.577   1.465   6.993  0.2843  0.4595  1.4810
  561MOL0     C75614  10.493   1.471   6.865  0.0188 -0.7363 -0.4308
  561MOL0     C75615  10.353   1.530   6.884 -0.2469  0.8875 -0.1447
  561MOL0     C75616  10.350   1.683   6.935 -0.1355 -0.0164 -0.0589
  561MOL0     N75617  10.385   1.762   6.815  0.6088 -0.0866  0.7550
  561MOL0     C75618  10.443   1.888   6.823  0.4549  1.3238 -0.3419
  561MOL0     C75619  10.501   1.904   6.702 -0.2752  0.4050  0.0392
  561MOL0     C75620  10.578   2.019   6.652  0.6587  0.6615 -0.0154
  561MOL0     C75621  10.488   2.124   6.589  0.2391  0.6153  0.0885
  561MOL0     C75622  10.479   2.094   6.431  0.1386 -0.5434 -0.0365
  561MOL0     C75623  10.403   2.207   6.362 -0.3759  0.0568 -0.0417
  561MOL0     O75624  10.380   2.173   6.227  0.0309  0.5203  0.4071
  561MOL0     C75625  10.307   2.261   6.152  0.6602 -0.1630  0.3595
  561MOL0     C75626  10.273   2.392   6.190 -0.2912 -0.1889 -0.0405
  561MOL0     C75627  10.204   2.477   6.109  0.0960 -0.4739  0.9319
  561MOL0     C75628  10.162   2.428   5.978  0.4363 -0.3061  0.4346
  561MOL0     C75629  10.110   2.531   5.882 -0.8478 -0.7878 -0.6855
  561MOL0     O75630  10.059   2.644   5.936 -0.6765 -0.0896 -0.2868
  561MOL0     C75631  10.037   2.747   5.849  0.8486  1.1340 -0.9958
  561MOL0     C75632   9.908   2.757   5.792 -0.8060 -0.6052  0.2486
  561MOL0     C75633   9.880   2.850   5.693  1.5144  0.6899 -0.3749
  561MOL0     C75634   9.973   2.946   5.663 -0.1486  0.4391  0.4594
  561MOL0     O75635   9.955   3.041   5.573  0.7558 -1.1107  0.1713
  561MOL0     C75636   9.824   3.072   5.519 -0.6896  0.9377 -0.5720
  561MOL0     C75637   9.790   3.215   5.474  0.4404  0.2115 -0.7248
  561MOL0     C75638   9.863   3.308   5.565  0.0242 -0.0781  0.1119
  561MOL0     C75639   9.829   3.450   5.510 -0.2012  0.3286  0.6478
  561MOL0     C75640   9.896   3.560   5.589 -0.3372 -0.2925 -0.1245
  561MOL0     C75641   9.855   3.699   5.534  0.1647  0.0161  0.8676
  561MOL0     C75642   9.891   3.809   5.633 -0.6197 -0.2140  0.1648
  561MOL0     C75643   9.815   3.809   5.762  0.5841 -0.0052 -0.9898
  561MOL0    Cl75644   9.633   3.825   5.726  0.2005  0.4011  0.2963
  561MOL0     C75645  10.105   2.927   5.704  0.3135 -0.4372 -0.6860
  561MOL0     C75646  10.137   2.829   5.804 -1.4061  0.3744 -0.6996
  561MOL0     O75647  10.126   2.506   5.765 -0.4815 -0.2811 -0.5617
  561MOL0     C75648  10.180   2.292   5.944 -1.2727  0.3989 -0.4477
  561MOL0     C75649  10.252   2.206   6.035  0.1929  0.3623 -0.2924
  561MOL0     N75650  10.470   1.801   6.624  0.4316 -0.8117  1.5096
  561MOL0     N75651  10.409   1.714   6.691 -0.3607  0.6907  0.5906
  561MOL0     C75652  10.943   1.879   6.674 -0.2300  0.6857 -0.3579
  561MOL0     C75653  10.959   2.022   6.683  0.7808 -0.1605 -0.5232
  561MOL0     C75654  11.199   2.414   6.756  0.3701  0.6307  0.4485
  561MOL0     C75655  11.326   2.434   6.817  0.3713  1.0456 -0.2078
  561MOL0     C75656  11.365   2.567   6.852 -0.3247 -0.1633  0.4308
  561MOL0     C75657  11.280   2.672   6.815  0.8188  0.5140 -0.4523
  561MOL0     O75658  11.303   2.806   6.841  0.4604  0.3072  0.2922
  561MOL0     C75659  11.417   2.847   6.898 -1.2111 -0.7339 -0.0737
  561MOL0     C75660  11.417   2.992   6.945 -0.1237 -0.1820  0.0854
  561MOL0     C75661  11.314   3.004   7.064 -0.5166  0.8346 -1.0670
  561MOL0     C75662  11.297   3.144   7.100  0.3457 -0.0857  0.3000
  561MOL0     C75663  11.411   3.189   7.176 -0.1553 -0.1980  0.1790
  561MOL0     C75664  11.502   3.238   7.249 -0.0314 -0.0222  0.6427
  561MOL0     C75665  11.151   2.643   6.757  0.1276  0.3984 -0.0919
  561MOL0     C75666  11.104   2.513   6.728  0.9251 -0.3509  0.5119
  561MOL0     C75667  10.973   2.498   6.651  0.2138  0.5927  0.2366
  561MOL0     H75668  11.188   2.053   6.922 -0.4901  0.0357  1.4425
  561MOL0     H75669  11.166   1.807   6.928  4.5739  2.1313 -0.9964
  561MOL0     H75670  11.126   1.543   6.893  0.0884 -1.2159  0.7460
  561MOL0     H75671  10.987   1.632   6.964 -1.6972  1.2720 -1.3163
  561MOL0     H75672  10.955   1.389   6.957 -2.2197 -0.4340 -0.9378
  561MOL0     H75673  10.954   1.392   6.774 -0.9114  1.7715 -2.2218
  561MOL0     H75674  10.750   1.455   6.771 -1.1999 -1.4204  1.7056
  561MOL0     H75675  10.774   1.592   6.877 -0.7067 -0.3287  0.5398
  561MOL0     H75676  10.696   1.303   6.929 -0.8503  0.5514 -1.5266
  561MOL0     H75677  10.770   1.389   7.062  2.1590  3.4544 -0.2914
  561MOL0     H75678  10.520   1.405   7.065 -2.6608 -1.6335 -2.2268
  561MOL0     H75679  10.589   1.566   7.032 -1.5603  0.8508  1.1144
  561MOL0     H75680  10.543   1.506   6.774 -3.2264 -1.3130 -2.6010
  561MOL0     H75681  10.473   1.367   6.837 -0.0341 -0.6459 -0.7375
  561MOL0     H75682  10.294   1.466   6.950 -0.6342  0.3231 -1.0330
  561MOL0     H75683  10.303   1.511   6.789  1.4846 -0.1991 -0.8863
  561MOL0     H75684  10.249   1.717   6.963  1.5413  6.2939 -0.0738
  561MOL0     H75685  10.416   1.700   7.020  0.9148 -1.4048 -0.5594
  561MOL0     H75686  10.443   1.956   6.908 -1.6330 -0.2966  1.0926
  561MOL0     H75687  10.636   2.066   6.733  0.8555  1.9680 -0.8899
  561MOL0     H75688  10.651   1.979   6.581 -0.5567  0.7863 -1.3789
  561MOL0     H75689  10.391   2.113   6.638 -0.2632  2.0661 -0.4947
  561MOL0     H75690  10.526   2.226   6.597  4.9070 -0.5311 -3.3386
  561MOL0     H75691  10.426   2.000   6.411 -2.9896  0.3024  3.2653
  561MOL0     H75692  10.567   2.112   6.369 -0.7816  2.5489 -0.6185
  561MOL0     H75693  10.461   2.300   6.374 -2.5633  1.3393  1.5167
  561MOL0     H75694  10.309   2.227   6.415  0.2995 -2.1242  2.1894
  561MOL0     H75695  10.298   2.431   6.289  2.0795 -1.2820 -0.1375
  561MOL0     H75696  10.184   2.580   6.136  1.8993 -0.0160  0.6524
  561MOL0     H75697   9.835   2.689   5.836 -0.0585 -1.1896  0.6264
  561MOL0     H75698   9.774   2.845   5.672  1.1046  1.2870  1.3647
  561MOL0     H75699   9.827   3.013   5.427  0.8201 -0.4117  0.2908
  561MOL0     H75700   9.746   3.032   5.584  0.0146  1.2925  0.5203
  561MOL0     H75701   9.826   3.231   5.372 -0.6238 -0.5870 -1.2485
  561MOL0     H75702   9.681   3.228   5.482  0.2786 -1.4481  0.3634
  561MOL0     H75703   9.832   3.287   5.668  0.4377 -1.7460 -0.0791
  561MOL0     H75704   9.970   3.290   5.557  0.5165  2.5506 -0.0643
  561MOL0     H75705   9.723   3.470   5.524 -0.4445 -0.9956  0.8610
  561MOL0     H75706   9.872   3.461   5.409  1.4893 -1.2609  1.1347
  561MOL0     H75707  10.004   3.544   5.595 -0.0146  2.0129  1.7059
  561MOL0     H75708   9.857   3.549   5.691 -0.6675 -3.2107 -0.4700
  561MOL0     H75709   9.893   3.716   5.433 -1.5064  2.8125  0.6169
  561MOL0     H75710   9.746   3.703   5.529  0.2441  2.5184 -0.7295
  561MOL0     H75711   9.891   3.910   5.590 -3.9068 -0.7834 -1.5013
  561MOL0     H75712   9.997   3.798   5.661 -1.2539 -2.3802  2.0165
  561MOL0     H75713   9.828   3.715   5.818 -0.7401 -0.0716 -0.7686
  561MOL0     H75714   9.851   3.887   5.829  0.2160 -1.1304  0.5930
  561MOL0     H75715  10.187   2.994   5.683 -0.1166  0.4382  0.3047
  561MOL0     H75716  10.235   2.829   5.852 -0.5718  0.7948 -2.3181
  561MOL0     H75717  10.125   2.260   5.856  0.4083  0.3779 -1.5374
  561MOL0     H75718  10.259   2.100   6.013  1.6929  0.4138 -0.1368
  561MOL0     H75719  10.885   1.829   6.596 -2.0471  2.3451 -0.1638
  561MOL0     H75720  10.901   2.084   6.615 -0.8101 -1.9465 -0.8671
  561MOL0     H75721  11.399   2.358   6.840  0.8332  1.9354  1.4066
  561MOL0     H75722  11.457   2.596   6.902  0.4631 -0.0321 -1.0178
  561MOL0     H75723  11.504   2.827   6.834 -0.6955 -2.1380  1.0008
  561MOL0     H75724  11.433   2.785   6.987  1.1730  0.2805  0.2785
  561MOL0     H75725  11.372   3.051   6.864 -0.3211  0.7712  0.8622
  561MOL0     H75726  11.515   3.029   6.974 -0.5341  1.3737 -0.3644
  561MOL0     H75727  11.343   2.945   7.152 -0.7238  0.3390 -1.3268
  561MOL0     H75728  11.216   2.967   7.032 -0.9299  2.7712 -2.1640
  561MOL0     H75729  11.294   3.198   7.005  2.1879 -0.0874  0.1902
  561MOL0     H75730  11.203   3.170   7.150  2.3364  2.1441  3.2490
  561MOL0     H75731  11.573   3.267   7.324 -0.2716 -0.7045  1.1544
  561MOL0     H75732  11.076   2.719   6.738  1.5435  1.7607 -0.4176
  561MOL0     H75733  11.010   2.468   6.552  2.7451  1.2817  0.9038
  561MOL0     H75734  10.905   2.430   6.701 -0.0893  0.0167 -0.9120
  561MOL0     H75735  10.920   2.594   6.647 -0.7493  0.0690  0.3874
  562MOL0     O75736   1.939   9.744   8.927  0.3410  0.7390 -0.5889
  562MOL0     C75737   1.890   9.851   8.903  0.1697 -0.1907 -0.1011
  562MOL0     O75738   1.928   9.935   8.804  0.1247 -0.0704  0.7039
  562MOL0     C75739   2.053   9.903   8.748 -0.0384 -0.5011 -0.4141
  562MOL0     C75740   2.056   9.878   8.608 -0.2373 -1.0647 -0.5842
  562MOL0     C75741   2.179   9.857   8.532 -0.5242 -0.8266  0.6277
  562MOL0     C75742   2.302   9.870   8.608  0.3073  0.8836  0.4592
  562MOL0     O75743   2.422   9.854   8.540  1.0699 -0.0714 -0.4505
  562MOL0     C75744   2.529   9.781   8.590  0.5367  1.2910 -0.1558
  562MOL0     C75745   2.593   9.739   8.464 -1.0234 -0.6807 -0.3731
  562MOL0     C75746   2.508   9.629   8.385 -0.0499 -0.4842 -0.2216
  562MOL0     C75747   2.581   9.603   8.253 -0.9995 -0.4872 -0.5599
  562MOL0     C75748   2.535   9.475   8.184 -0.0091 -0.4695 -0.3586
  562MOL0     C75749   2.392   9.483   8.134  0.9811  0.2707 -0.2633
  562MOL0     C75750   2.364   9.588   8.025  0.7737  0.6760  0.6771
  562MOL0     C75751   2.459   9.591   7.903  0.1815 -0.7415  0.2984
  562MOL0     N75752   2.410   9.655   7.777 -0.3251  0.0401 -0.6888
  562MOL0     C75753   2.317   9.758   7.773 -0.0257 -0.0498 -0.3864
  562MOL0     C75754   2.308   9.779   7.639  0.6236 -0.9835 -0.9202
  562MOL0     C75755   2.227   9.883   7.576  0.8083  0.0819  0.4627
  562MOL0     C75756   2.110   9.839   7.491  0.1079 -0.3678 -0.7835
  562MOL0     C75757   1.994   9.758   7.563 -0.6799 -0.8369  1.6547
  562MOL0     C75758   1.857   9.742   7.494 -0.1776 -0.3594  0.3182
  562MOL0     O75759   1.882   9.690   7.364 -0.2916  0.0690 -0.2716
  562MOL0     C75760   1.775   9.612   7.309 -0.1492 -0.6512  0.3676
  562MOL0     C75761   1.641   9.634   7.339  0.5990  0.6967 -0.1626
  562MOL0     C75762   1.540   9.555   7.279  1.3359  0.5590  0.2393
  562MOL0     C75763   1.571   9.446   7.196  0.4410 -0.1639  0.9039
  562MOL0     C75764   1.480   9.358   7.135 -1.3852  0.1471  0.0075
  562MOL0     O75765   1.347   9.377   7.162 -0.3160 -0.0039 -0.2041
  562MOL0     C75766   1.265   9.303   7.080  1.0728 -0.4315 -0.9508
  562MOL0     C75767   1.185   9.193   7.129  0.7625  0.9614 -0.2302
  562MOL0     C75768   1.089   9.128   7.042  0.3508  0.6278 -0.4118
  562MOL0     C75769   1.070   9.166   6.906 -0.1565  0.6237 -0.8975
  562MOL0     O75770   0.975   9.107   6.829  0.0124 -0.2404  1.2127
  562MOL0     C75771   0.871   9.022   6.887  1.0466  0.1161 -0.3530
  562MOL0     C75772   0.770   8.997   6.774 -0.1246 -0.2238  0.1030
  562MOL0     C75773   0.844   8.934   6.667 -0.8689 -0.9605  0.7847
  562MOL0     C75774   0.749   8.912   6.538 -0.0892 -1.6943 -0.6505
  562MOL0     C75775   0.825   8.879   6.405 -0.5353 -0.7364 -0.2973
  562MOL0     C75776   0.751   8.937   6.278  0.2601  0.1701  0.0383
  562MOL0     C75777   0.800   8.892   6.139  0.6605  0.5316 -0.7802
  562MOL0     C75778   0.937   8.944   6.108 -0.7407  0.1141 -0.7880
  562MOL0    Cl75779   0.946   9.126   6.091 -0.1621 -0.2270 -0.1635
  562MOL0     C75780   1.150   9.268   6.872 -0.0011  1.0583  1.4598
  562MOL0     C75781   1.243   9.337   6.952  0.5940 -0.7775  0.0960
  562MOL0     O75782   1.535   9.262   7.074  0.7925 -0.2924 -0.2185
  562MOL0     C75783   1.709   9.439   7.170  0.1751 -1.2141 -0.1733
  562MOL0     C75784   1.811   9.516   7.222 -0.2672 -0.0774  0.2554
  562MOL0     N75785   2.386   9.685   7.573 -1.0669 -0.3197 -0.7460
  562MOL0     N75786   2.438   9.610   7.654 -0.2529 -0.1193  0.8458
  562MOL0     C75787   2.297   9.903   8.751  0.2980  0.7039  0.0323
  562MOL0     C75788   2.174   9.921   8.820  0.4901  0.3764 -0.6589
  562MOL0     C75789   1.766   9.895   8.992 -1.2279  0.3539  0.1812
  562MOL0     C75790   1.744   9.815   9.102 -0.6826 -0.4400  0.6835
  562MOL0     C75791   1.632   9.835   9.178  0.2419 -0.6846 -0.5534
  562MOL0     C75792   1.540   9.946   9.162 -0.6633  0.7906  0.1869
  562MOL0     O75793   1.429   9.975   9.236 -0.0429 -0.0892 -0.1555
  562MOL0     C75794   1.400   9.891   9.355 -0.1138  0.5810 -0.5316
  562MOL0     C75795   1.264   9.931   9.404  0.3026  0.0438 -0.3446
  562MOL0     C75796   1.225   9.852   9.524 -0.2024  0.4925 -0.3780
  562MOL0     C75797   1.074   9.830   9.525 -0.3075 -0.2822  0.6085
  562MOL0     C75798   1.048   9.700   9.602 -1.2526 -0.0814  0.5193
  562MOL0     C75799   1.021   9.608   9.678 -0.3770  0.4866 -0.6825
  562MOL0     C75800   1.571  10.031   9.049 -1.3647 -0.6209 -0.6700
  562MOL0     C75801   1.685  10.005   8.969  0.8973  0.4810 -0.0156
  562MOL0     C75802   1.713  10.102   8.861 -0.0809 -0.2088 -0.1409
  562MOL0     H75803   1.964   9.877   8.551  0.3882  0.7897 -1.7429
  562MOL0     H75804   2.190   9.836   8.426  4.8021  0.2462  0.7097
  562MOL0     H75805   2.589   9.849   8.650  0.2990  0.1551  1.4488
  562MOL0     H75806   2.508   9.691   8.649 -0.5647  0.9155 -1.0745
  562MOL0     H75807   2.693   9.703   8.493  0.4631  3.1735 -0.1587
  562MOL0     H75808   2.614   9.829   8.406  0.9275  1.2520  2.9502
  562MOL0     H75809   2.408   9.669   8.365 -0.2112 -0.2246  1.0067
  562MOL0     H75810   2.490   9.541   8.448 -1.6820  0.9055  1.3475
  562MOL0     H75811   2.580   9.693   8.191  0.8031 -0.8708 -1.2164
  562MOL0     H75812   2.689   9.584   8.264 -0.1333  2.1153 -3.2052
  562MOL0     H75813   2.603   9.455   8.101  4.0703  0.3333  2.5003
  562MOL0     H75814   2.548   9.384   8.244 -0.1936  0.2656  0.8347
  562MOL0     H75815   2.368   9.379   8.111  2.4918  0.3893 -2.6763
  562MOL0     H75816   2.326   9.507   8.218  2.0045  1.3627  0.2443
  562MOL0     H75817   2.349   9.685   8.073 -1.7267  0.4011  0.6086
  562MOL0     H75818   2.267   9.566   7.979  1.2744 -0.7435  0.2459
  562MOL0     H75819   2.530   9.666   7.940 -0.6070  0.6630 -0.8953
  562MOL0     H75820   2.499   9.491   7.887 -1.9436 -1.2811 -2.3225
  562MOL0     H75821   2.271   9.810   7.856  2.2538 -0.3500  1.1586
  562MOL0     H75822   2.179   9.942   7.654 -0.6214  0.9812 -1.0422
  562MOL0     H75823   2.283   9.961   7.524  1.8522 -0.1168  1.2569
  562MOL0     H75824   2.079   9.934   7.447  3.7394  0.6702 -1.3614
  562MOL0     H75825   2.162   9.785   7.411  1.1265  0.5439 -0.7582
  562MOL0     H75826   1.972   9.804   7.660  0.1935  1.4382  0.8362
  562MOL0     H75827   2.034   9.658   7.580  0.3182 -0.8308 -0.3360
  562MOL0     H75828   1.800   9.835   7.491 -0.7159 -0.6734  0.7613
  562MOL0     H75829   1.789   9.675   7.547 -3.6424  2.5240 -0.1497
  562MOL0     H75830   1.597   9.717   7.394  2.2987  1.2107  0.4795
  562MOL0     H75831   1.433   9.570   7.294  1.0971 -0.8725  0.1106
  562MOL0     H75832   1.199   9.153   7.229 -2.1022  0.0834 -0.0986
  562MOL0     H75833   1.043   9.038   7.084  0.5513  0.7262  0.0192
  562MOL0     H75834   0.916   8.928   6.921 -0.2342 -1.1917 -2.0650
  562MOL0     H75835   0.805   9.068   6.961  0.5777  1.8312 -1.7706
  562MOL0     H75836   0.697   8.925   6.810  1.8360 -1.7782  1.1871
  562MOL0     H75837   0.718   9.089   6.747 -0.6884 -1.3472 -2.9856
  562MOL0     H75838   0.917   9.006   6.626 -1.2799 -1.5434 -1.0781
  562MOL0     H75839   0.903   8.845   6.691 -0.9001 -1.8492 -2.0612
  562MOL0     H75840   0.691   9.004   6.532 -0.0637 -1.6612 -0.4194
  562MOL0     H75841   0.666   8.844   6.559 -0.8809 -2.1159 -4.4377
  562MOL0     H75842   0.855   8.775   6.384  0.4204  0.0662 -3.4685
  562MOL0     H75843   0.920   8.932   6.415 -0.2169 -1.1899 -0.8501
  562MOL0     H75844   0.649   8.898   6.283 -0.6206  2.2039 -1.0084
  562MOL0     H75845   0.759   9.046   6.281 -2.4532  0.4195  1.9856
  562MOL0     H75846   0.734   8.938   6.065  1.7495  7.1221  1.6393
  562MOL0     H75847   0.793   8.784   6.153  0.6886  0.9040  3.8383
  562MOL0     H75848   0.999   8.906   6.190  0.8023  1.9288 -1.0552
  562MOL0     H75849   0.989   8.896   6.025 -1.9820  1.5004 -2.4460
  562MOL0     H75850   1.137   9.302   6.770  0.1165 -0.0028  1.0761
  562MOL0     H75851   1.292   9.427   6.917  0.6592 -0.7138  0.3477
  562MOL0     H75852   1.752   9.370   7.099  3.7977  1.0308 -0.4444
  562MOL0     H75853   1.915   9.489   7.204 -0.0023  0.3909  1.0159
  562MOL0     H75854   2.391   9.908   8.806  0.5815 -0.9481 -0.2370
  562MOL0     H75855   2.169   9.935   8.927 -1.7581  0.0612 -0.6887
  562MOL0     H75856   1.801   9.726   9.127 -0.7976 -0.9323 -0.7131
  562MOL0     H75857   1.619   9.757   9.253 -2.9235  0.1903 -0.0353
  562MOL0     H75858   1.480   9.900   9.429  1.2361 -0.2200 -1.8301
  562MOL0     H75859   1.383   9.786   9.329 -2.1014 -0.3280  3.5663
  562MOL0     H75860   1.189   9.918   9.326  0.4069  0.6110 -0.5490
  562MOL0     H75861   1.268  10.035   9.438 -0.3675  0.6299 -1.9416
  562MOL0     H75862   1.263   9.899   9.615  2.2203 -1.8318 -0.0386
  562MOL0     H75863   1.257   9.747   9.517 -1.3738  0.0932  0.0519
  562MOL0     H75864   1.026   9.913   9.577  2.1367  2.9897 -1.9831
  562MOL0     H75865   1.021   9.808   9.432 -1.9973 -0.6124  1.6075
  562MOL0     H75866   1.008   9.535   9.755  3.2582  0.8424  0.4397
  562MOL0     H75867   1.502  10.114   9.034 -1.4529 -0.0940  2.0622
  562MOL0     H75868   1.652  10.191   8.878 -0.4830 -0.7596  1.4668
  562MOL0     H75869   1.811  10.147   8.874 -1.7124  3.2871  1.2533
  562MOL0     H75870   1.694  10.052   8.765 -4.1275 -2.3173  1.5384
  563MOL0     O75871   9.781   0.108   2.932 -0.0160  0.5805  0.1291
  563MOL0     C75872   9.746   0.057   3.040 -0.4670 -0.4636  0.2697
  563MOL0     O75873   9.720   0.132   3.150  0.3292  0.0456 -0.7236
  563MOL0     C75874   9.673   0.269   3.141 -0.6839 -0.7002  0.4668
  563MOL0     C75875   9.561   0.301   3.056  0.3640 -0.3167  0.9180
  563MOL0     C75876   9.522   0.437   3.045  0.3984 -0.1138 -0.5846
  563MOL0     C75877   9.589   0.539   3.118  0.6056  0.0336  0.6967
  563MOL0     O75878   9.553   0.672   3.118 -0.4551 -0.0223  1.4591
  563MOL0     C75879   9.471   0.722   3.020  0.3561 -0.3328  0.4331
  563MOL0     C75880   9.509   0.869   2.995 -0.2367  0.2582  0.1387
  563MOL0     C75881   9.403   0.941   2.907  0.5401  0.2466 -0.2278
  563MOL0     C75882   9.437   1.090   2.858  0.4622  0.8888  0.1454
  563MOL0     C75883   9.323   1.156   2.781 -0.1996 -0.3101 -0.0041
  563MOL0     C75884   9.361   1.276   2.688 -0.2161  0.0926 -0.1046
  563MOL0     C75885   9.415   1.393   2.774 -0.3836  0.0895 -0.6433
  563MOL0     C75886   9.413   1.526   2.699 -0.0092 -0.3218 -0.2802
  563MOL0     N75887   9.510   1.543   2.591  0.8871  0.0838 -0.8634
  563MOL0     C75888   9.479   1.514   2.457  0.5020  0.9363  0.4959
  563MOL0     C75889   9.584   1.544   2.382 -0.2465 -0.3005  0.1764
  563MOL0     C75890   9.584   1.550   2.233 -0.0732 -0.4133 -0.4087
  563MOL0     C75891   9.654   1.430   2.165  0.5908  0.7657  0.6197
  563MOL0     C75892   9.794   1.402   2.220 -0.2597 -0.5814 -0.1878
  563MOL0     C75893   9.891   1.526   2.213  0.2729 -0.9487  0.5153
  563MOL0     O75894  10.027   1.486   2.205  0.0508  0.9965  0.5533
  563MOL0     C75895  10.123   1.582   2.221  0.2256 -0.2909  0.4209
  563MOL0     C75896  10.102   1.713   2.256  0.1764 -1.3566 -0.7280
  563MOL0     C75897  10.209   1.807   2.264 -0.0444  0.4157 -0.7043
  563MOL0     C75898  10.336   1.760   2.237  0.5488 -0.6041 -0.4713
  563MOL0     C75899  10.461   1.852   2.237  0.2543 -0.2016 -0.2276
  563MOL0     O75900  10.581   1.797   2.222  0.0852  0.2019 -0.0834
  563MOL0     C75901  10.686   1.881   2.244 -0.3703  0.0033 -0.4651
  563MOL0     C75902  10.719   1.894   2.379 -0.4747  0.8979 -0.4421
  563MOL0     C75903  10.825   1.974   2.406 -0.8123  0.5505 -1.0721
  563MOL0     C75904  10.910   2.023   2.311 -0.2334 -0.2889 -0.3073
  563MOL0     O75905  11.023   2.101   2.348  0.4964 -0.0890 -0.1868
  563MOL0     C75906  11.143   2.099   2.262 -0.1389 -0.2430  0.6028
  563MOL0     C75907  11.268   2.150   2.340 -0.0153  1.1641 -0.2015
  563MOL0     C75908  11.246   2.283   2.408  0.5970  0.2388  0.0239
  563MOL0     C75909  11.200   2.399   2.309  0.4633  0.0081 -0.4420
  563MOL0     C75910  11.216   2.532   2.380  0.2134 -0.1311  0.6418
  563MOL0     C75911  11.124   2.566   2.497 -0.2285 -0.4846  0.0115
  563MOL0     C75912  11.169   2.701   2.565 -0.7360  0.6404 -0.3101
  563MOL0     C75913  11.081   2.726   2.688  0.1927  0.4465 -0.6716
  563MOL0    Cl75914  11.162   2.851   2.781 -0.2131  0.3504  0.0103
  563MOL0     C75915  10.877   2.003   2.173 -0.3417 -0.1499 -0.3996
  563MOL0     C75916  10.768   1.930   2.137  0.2189 -0.9284  0.1943
  563MOL0     O75917  10.436   1.976   2.251  0.3361 -0.0325 -0.2934
  563MOL0     C75918  10.358   1.630   2.191 -1.3317  0.7779 -2.0967
  563MOL0     C75919  10.250   1.543   2.176  0.4185 -0.1584 -0.6273
  563MOL0     N75920   9.669   1.604   2.471  1.3055 -0.0769  0.7979
  563MOL0     N75921   9.619   1.619   2.595  0.6920  1.4757  0.6835
  563MOL0     C75922   9.693   0.514   3.202 -0.5366  1.2570 -0.2082
  563MOL0     C75923   9.740   0.382   3.206 -0.4547  0.2107  0.4984
  563MOL0     C75924   9.705  -0.085   3.042  0.8562  0.1798 -0.7192
  563MOL0     C75925   9.622  -0.127   3.154 -0.9519  0.1887  0.0776
  563MOL0     C75926   9.581  -0.263   3.166 -0.0166 -0.1459 -0.8160
  563MOL0     C75927   9.612  -0.351   3.061 -0.4139  0.1820  0.5035
  563MOL0     O75928   9.571  -0.486   3.048  0.5706  0.3507  0.3614
  563MOL0     C75929   9.438  -0.524   3.005 -0.2521 -0.7001  0.1043
  563MOL0     C75930   9.412  -0.566   2.853 -0.1246  0.4816  0.0151
  563MOL0     C75931   9.517  -0.674   2.810  0.3402  0.2013  0.4686
  563MOL0     C75932   9.499  -0.805   2.875  0.3644  0.3384  0.2306
  563MOL0     C75933   9.363  -0.861   2.846 -0.4006  0.0382 -0.0788
  563MOL0     C75934   9.253  -0.915   2.823  0.8601  0.4292 -0.1418
  563MOL0     C75935   9.697  -0.314   2.959  0.7900 -0.7921 -0.6825
  563MOL0     C75936   9.736  -0.181   2.943  0.0247  0.2147 -0.7359
  563MOL0     C75937   9.800  -0.145   2.810  0.1032  0.8985 -0.0711
  563MOL0     H75938   9.509   0.234   2.988 -1.3884  0.1411  1.7506
  563MOL0     H75939   9.440   0.457   2.977  0.8915 -1.2289 -1.5389
  563MOL0     H75940   9.469   0.675   2.921  1.8505  1.5685 -0.5815
  563MOL0     H75941   9.370   0.710   3.059  0.2277  1.2345  0.6591
  563MOL0     H75942   9.611   0.870   2.953  0.9666  1.3740  2.8400
  563MOL0     H75943   9.517   0.924   3.089 -5.8637 -2.9996  3.0285
  563MOL0     H75944   9.313   0.951   2.968 -0.2928 -1.1811 -1.1625
  563MOL0     H75945   9.378   0.884   2.817  2.3370 -1.1369  0.0997
  563MOL0     H75946   9.459   1.153   2.945 -1.5203 -0.6931  1.8859
  563MOL0     H75947   9.533   1.097   2.805  0.7252 -1.5425  0.2182
  563MOL0     H75948   9.276   1.079   2.719 -2.1196 -0.4490  1.5405
  563MOL0     H75949   9.258   1.176   2.866 -0.4310 -2.4809  0.3696
  563MOL0     H75950   9.442   1.244   2.622  0.0495  2.5558 -1.0848
  563MOL0     H75951   9.284   1.306   2.615  2.2256  0.6415 -2.6230
  563MOL0     H75952   9.505   1.353   2.820 -0.2421 -2.3633 -2.8612
  563MOL0     H75953   9.355   1.406   2.865  0.8806 -1.0920  0.3998
  563MOL0     H75954   9.309   1.555   2.682  0.1842  1.2870  0.9807
  563MOL0     H75955   9.437   1.599   2.778  0.5873 -1.0651  0.2395
  563MOL0     H75956   9.386   1.469   2.423  0.3936  0.9214  0.8096
  563MOL0     H75957   9.491   1.565   2.178 -1.8093  2.7354  3.0034
  563MOL0     H75958   9.640   1.641   2.209 -2.3177  0.8263 -1.1743
  563MOL0     H75959   9.593   1.339   2.162  0.9031  0.5407 -2.7606
  563MOL0     H75960   9.679   1.446   2.060  1.4147  0.1429  0.7130
  563MOL0     H75961   9.843   1.321   2.166 -1.0155 -1.1959  0.0287
  563MOL0     H75962   9.793   1.382   2.328 -0.6766 -1.2533 -0.3117
  563MOL0     H75963   9.867   1.596   2.294  0.4174 -2.2581  1.7508
  563MOL0     H75964   9.859   1.578   2.123 -3.8170  0.2544  2.4379
  563MOL0     H75965  10.003   1.747   2.284  0.9439  0.3545  0.0202
  563MOL0     H75966  10.180   1.910   2.283  0.9906  0.6922 -0.5617
  563MOL0     H75967  10.669   1.844   2.461 -0.6008  1.2333 -0.3128
  563MOL0     H75968  10.847   1.979   2.512  0.2814 -0.1801 -1.2578
  563MOL0     H75969  11.165   1.995   2.234 -0.1996 -0.9379  2.8777
  563MOL0     H75970  11.118   2.169   2.182  1.9455  0.1644  0.2660
  563MOL0     H75971  11.305   2.075   2.410 -0.9779  0.8262 -0.0466
  563MOL0     H75972  11.338   2.181   2.262 -0.2302 -0.2945 -1.0068
  563MOL0     H75973  11.165   2.268   2.481 -0.7020 -2.7655 -1.8369
  563MOL0     H75974  11.340   2.300   2.461  0.9750 -0.7436 -0.3160
  563MOL0     H75975  11.096   2.376   2.282  0.1077  0.9927  0.0153
  563MOL0     H75976  11.262   2.398   2.219 -0.6225  0.6745 -1.2346
  563MOL0     H75977  11.198   2.617   2.313 -2.2608  0.0634  1.4419
  563MOL0     H75978  11.321   2.524   2.411  0.4574 -2.1036 -0.5506
  563MOL0     H75979  11.020   2.562   2.461  0.3159 -0.9976 -1.5949
  563MOL0     H75980  11.149   2.485   2.565 -0.7645  0.4173  1.3195
  563MOL0     H75981  11.180   2.781   2.491  1.0603  0.1221 -0.6598
  563MOL0     H75982  11.273   2.676   2.591 -0.5704 -1.0500 -2.3960
  563MOL0     H75983  10.981   2.751   2.651  1.1926  3.1686 -1.7888
  563MOL0     H75984  11.077   2.637   2.751 -0.4646  1.2454  0.4535
  563MOL0     H75985  10.941   2.055   2.102 -1.3910  4.2371  1.5220
  563MOL0     H75986  10.749   1.899   2.034 -0.0292 -3.8403  1.0082
  563MOL0     H75987  10.461   1.604   2.168 -1.0908  0.3405 -0.6702
  563MOL0     H75988  10.259   1.442   2.136 -0.4820 -0.4884 -0.0163
  563MOL0     H75989   9.758   0.589   3.246  0.1102  0.6241 -0.0545
  563MOL0     H75990   9.819   0.374   3.280  0.2640  5.0356  0.5986
  563MOL0     H75991   9.592  -0.062   3.236  1.1554 -2.2116  2.9993
  563MOL0     H75992   9.521  -0.293   3.251  0.2341  3.5019  0.8259
  563MOL0     H75993   9.382  -0.434   3.034 -0.7422 -1.4889  1.7225
  563MOL0     H75994   9.391  -0.600   3.068  1.6571 -1.2729  0.9209
  563MOL0     H75995   9.423  -0.478   2.790  0.1136 -0.8434 -1.8613
  563MOL0     H75996   9.307  -0.597   2.851  0.1843 -0.8355  1.6447
  563MOL0     H75997   9.618  -0.639   2.832  0.3336  0.5557 -0.0623
  563MOL0     H75998   9.505  -0.688   2.703 -0.4719 -2.9154  0.8752
  563MOL0     H75999   9.573  -0.874   2.835  0.8413  2.3557 -2.6778
  563MOL0     H76000   9.527  -0.793   2.980  1.3031 -2.5186  0.3926
  563MOL0     H76001   9.166  -0.976   2.814 -0.7778  2.6139  0.1117
  563MOL0     H76002   9.729  -0.393   2.892  0.9363 -1.5685  0.2649
  563MOL0     H76003   9.812  -0.227   2.739  1.1579  1.6177 -0.7462
  563MOL0     H76004   9.735  -0.077   2.755 -0.9624 -0.1195 -0.1042
  563MOL0     H76005   9.896  -0.095   2.822  0.9836 -0.9236  0.8783
  564MOL0     O76006   6.635   7.586   2.652 -0.3320  0.9682 -0.1883
  564MOL0     C76007   6.570   7.486   2.675 -0.6402 -0.4385  1.3199
  564MOL0     O76008   6.611   7.380   2.752 -0.2294  0.6054 -0.0376
  564MOL0     C76009   6.714   7.405   2.832 -0.7020 -0.0358 -0.9095
  564MOL0     C76010   6.700   7.472   2.955 -0.6910 -0.1725 -1.0842
  564MOL0     C76011   6.808   7.479   3.051  0.6270 -0.5644  0.1639
  564MOL0     C76012   6.937   7.437   3.001  0.0967 -0.2475 -0.3704
  564MOL0     O76013   7.050   7.451   3.085  0.7951  0.4435 -0.7335
  564MOL0     C76014   7.025   7.481   3.223 -0.0196 -0.8593 -0.0415
  564MOL0     C76015   7.158   7.446   3.297  0.1989 -0.0974  0.3001
  564MOL0     C76016   7.164   7.485   3.444  0.2787 -0.6115  0.1008
  564MOL0     C76017   7.277   7.414   3.515 -0.1394 -0.9830 -1.1364
  564MOL0     C76018   7.314   7.474   3.656  0.4572 -0.1513  0.1787
  564MOL0     C76019   7.373   7.611   3.652  0.1931 -0.6178 -0.1141
  564MOL0     C76020   7.390   7.663   3.799  0.2111  0.4298 -0.4896
  564MOL0     C76021   7.292   7.778   3.842 -0.1405 -0.2208  0.1734
  564MOL0     N76022   7.156   7.732   3.873 -0.7961 -0.3669 -0.2771
  564MOL0     C76023   7.123   7.633   3.964 -0.9950 -0.9943 -0.6764
  564MOL0     C76024   6.991   7.613   3.948 -0.9409 -0.5210  0.0595
  564MOL0     C76025   6.911   7.515   4.026  1.1045  0.2108 -0.4740
  564MOL0     C76026   6.852   7.400   3.924  0.0840  0.0784 -0.7063
  564MOL0     C76027   6.939   7.334   3.823 -0.6614 -0.4348  0.9534
  564MOL0     C76028   7.062   7.284   3.889 -0.6281  0.5483  0.2741
  564MOL0     O76029   7.146   7.221   3.782  0.5131 -0.0883 -0.5789
  564MOL0     C76030   7.261   7.160   3.812  0.7404  1.1137  0.6664
  564MOL0     C76031   7.323   7.073   3.719 -0.0720 -0.3042 -0.2977
  564MOL0     C76032   7.434   7.005   3.753  0.1744  0.1363  0.1704
  564MOL0     C76033   7.490   6.998   3.880  0.2273 -0.8239  0.4312
  564MOL0     C76034   7.610   6.917   3.909  0.0439 -0.2010 -0.3459
  564MOL0     O76035   7.675   6.932   4.026  0.3245 -0.4677  0.3134
  564MOL0     C76036   7.817   6.927   4.023  1.3055 -0.6304  0.5568
  564MOL0     C76037   7.895   6.839   4.102  0.0415 -0.1501 -0.2625
  564MOL0     C76038   8.036   6.831   4.097  0.0897 -0.0696  0.5422
  564MOL0     C76039   8.098   6.927   4.016 -0.0930 -0.3463 -0.5822
  564MOL0     O76040   8.228   6.965   4.036  0.1807 -0.1451  0.0331
  564MOL0     C76041   8.329   6.863   4.046 -0.4792  0.1389 -0.1598
  564MOL0     C76042   8.430   6.884   3.942 -0.2820  0.0127  0.2253
  564MOL0     C76043   8.376   6.911   3.801  0.2399 -0.0887  0.4619
  564MOL0     C76044   8.485   6.944   3.699  0.2939  0.0877  0.7695
  564MOL0     C76045   8.446   6.914   3.556  0.2409 -0.6445  0.6303
  564MOL0     C76046   8.405   6.772   3.513  0.1609  0.8585 -0.2266
  564MOL0     C76047   8.437   6.745   3.374  0.0381  0.2053  0.0800
  564MOL0     C76048   8.360   6.638   3.307  0.0144 -0.1454  0.1261
  564MOL0    Cl76049   8.351   6.491   3.416  0.4353 -0.0644  0.2506
  564MOL0     C76050   8.019   7.018   3.948  0.3286 -0.2306 -0.9226
  564MOL0     C76051   7.886   7.023   3.947  0.7109 -0.6727 -0.5693
  564MOL0     O76052   7.647   6.846   3.816  0.0427 -0.1760 -0.6146
  564MOL0     C76053   7.433   7.080   3.976 -0.2988 -0.7454 -0.5672
  564MOL0     C76054   7.319   7.158   3.940  1.0049 -0.4234  0.0754
  564MOL0     N76055   6.949   7.697   3.850 -0.0438 -0.4165  0.1604
  564MOL0     N76056   7.052   7.763   3.801  0.1141 -0.1612 -0.0598
  564MOL0     C76057   6.950   7.384   2.879 -0.7804  0.0056  0.8562
  564MOL0     C76058   6.841   7.358   2.791  0.0426 -0.5775  0.4479
  564MOL0     C76059   6.428   7.483   2.628 -0.2889 -0.4809  0.5077
  564MOL0     C76060   6.406   7.524   2.493  0.2003  0.7287 -0.5708
  564MOL0     C76061   6.267   7.519   2.450 -0.3468  0.7226 -0.2026
  564MOL0     C76062   6.175   7.460   2.539  0.3921  0.4514 -0.2981
  564MOL0     O76063   6.049   7.429   2.495 -0.4920 -0.5222  0.0682
  564MOL0     C76064   5.971   7.524   2.424  0.1140 -0.1792 -0.9850
  564MOL0     C76065   5.929   7.638   2.519  0.5310 -0.6889 -0.0501
  564MOL0     C76066   5.847   7.593   2.643  0.5666  0.5288  0.6100
  564MOL0     C76067   5.758   7.471   2.634  0.7858 -0.6418 -0.5513
  564MOL0     C76068   5.628   7.500   2.571  0.2912  0.2550  0.4655
  564MOL0     C76069   5.529   7.526   2.504  0.9163  0.1161 -0.2244
  564MOL0     C76070   6.199   7.422   2.661  0.0563 -0.5385 -0.3423
  564MOL0     C76071   6.328   7.427   2.713 -0.4508  0.1645  0.0895
  564MOL0     C76072   6.346   7.390   2.861  0.8340 -0.3500  0.0766
  564MOL0     H76073   6.606   7.514   2.989  0.8669  3.1918 -0.5049
  564MOL0     H76074   6.789   7.520   3.150 -1.3241  0.5555 -0.6003
  564MOL0     H76075   6.999   7.587   3.220 -2.4756 -1.3486  1.2378
  564MOL0     H76076   6.951   7.415   3.270  0.8354  0.3582  3.2965
  564MOL0     H76077   7.244   7.483   3.241 -0.2195 -0.7029 -0.7754
  564MOL0     H76078   7.167   7.337   3.296  0.0390 -0.1141  0.5484
  564MOL0     H76079   7.066   7.460   3.487  0.4772  1.4472  1.9196
  564MOL0     H76080   7.166   7.593   3.431 -0.1544 -0.5931  0.1544
  564MOL0     H76081   7.236   7.316   3.540 -2.2613 -0.2447 -1.5377
  564MOL0     H76082   7.360   7.424   3.444 -0.6208  0.9970 -1.4621
  564MOL0     H76083   7.229   7.473   3.725  1.1757 -0.5646  1.0802
  564MOL0     H76084   7.380   7.395   3.693 -0.5685  0.1130  2.7844
  564MOL0     H76085   7.466   7.618   3.594  0.5106  0.8240  0.5286
  564MOL0     H76086   7.303   7.675   3.596  3.0071  1.0334 -2.0182
  564MOL0     H76087   7.493   7.699   3.789  0.6930 -1.4984 -3.9606
  564MOL0     H76088   7.384   7.588   3.878  0.0426  1.2547  0.3057
  564MOL0     H76089   7.336   7.838   3.922 -1.5626  4.2397 -2.0361
  564MOL0     H76090   7.297   7.850   3.759 -1.3639  0.4570  0.6592
  564MOL0     H76091   7.185   7.588   4.040 -1.0817 -1.1346 -0.6892
  564MOL0     H76092   6.976   7.471   4.102 -2.8763  0.3093  3.3593
  564MOL0     H76093   6.832   7.559   4.087 -1.0794 -2.7501 -0.9672
  564MOL0     H76094   6.790   7.326   3.975  1.7031  0.7965  2.5276
  564MOL0     H76095   6.779   7.456   3.864  1.2363  2.3472 -0.0913
  564MOL0     H76096   6.953   7.410   3.746 -0.5720 -0.7170  0.6891
  564MOL0     H76097   6.888   7.251   3.774  1.8858 -1.5755  0.0301
  564MOL0     H76098   7.029   7.214   3.966  0.8903  1.9935  2.3876
  564MOL0     H76099   7.123   7.355   3.947  0.6261 -0.2531 -0.0155
  564MOL0     H76100   7.281   7.055   3.621 -2.7144  3.2573  0.0103
  564MOL0     H76101   7.470   6.952   3.665  1.0732  1.0973 -0.0579
  564MOL0     H76102   7.835   6.773   4.164 -2.1182  0.2685 -1.8064
  564MOL0     H76103   8.094   6.750   4.140 -1.3483 -1.6162 -0.3538
  564MOL0     H76104   8.382   6.866   4.141  1.6935 -0.5548 -1.2915
  564MOL0     H76105   8.282   6.765   4.030 -1.8048  0.7035  0.1340
  564MOL0     H76106   8.495   6.965   3.976  2.1116 -1.3231 -0.9354
  564MOL0     H76107   8.489   6.792   3.948 -1.3682 -0.7588 -0.4780
  564MOL0     H76108   8.309   6.829   3.772  0.1407 -0.5722  1.9749
  564MOL0     H76109   8.319   7.003   3.814  1.8312  0.8745  0.8596
  564MOL0     H76110   8.566   6.873   3.722 -1.1845 -1.6382  0.8463
  564MOL0     H76111   8.515   7.049   3.705 -1.3256  0.5538  1.0562
  564MOL0     H76112   8.522   6.966   3.496 -1.8943  1.9868  0.0381
  564MOL0     H76113   8.359   6.979   3.548  1.0807  0.2712 -1.9736
  564MOL0     H76114   8.444   6.700   3.586 -0.6066  2.7896  2.2307
  564MOL0     H76115   8.296   6.769   3.510  0.1481  0.5514  0.4273
  564MOL0     H76116   8.540   6.714   3.357 -0.0353  0.5505 -1.0129
  564MOL0     H76117   8.437   6.841   3.323  4.3403  1.5116  2.0384
  564MOL0     H76118   8.261   6.675   3.279 -0.4408  0.3477  2.2267
  564MOL0     H76119   8.408   6.607   3.214 -2.2652 -0.8124 -0.9085
  564MOL0     H76120   8.078   7.101   3.911 -0.7405  1.4682  0.9292
  564MOL0     H76121   7.840   7.104   3.892  2.7227  0.8531 -0.1185
  564MOL0     H76122   7.483   7.082   4.072 -2.0669  1.8857  0.3780
  564MOL0     H76123   7.277   7.220   4.019  0.7504  0.4454 -0.7159
  564MOL0     H76124   7.053   7.356   2.860 -0.3656  0.8229  1.7873
  564MOL0     H76125   6.860   7.300   2.701 -1.8258  1.7705 -1.6025
  564MOL0     H76126   6.486   7.566   2.432 -0.2962  2.0597 -0.3473
  564MOL0     H76127   6.230   7.550   2.353 -0.2459  0.4617 -0.3266
  564MOL0     H76128   5.882   7.468   2.394 -0.4152  0.0491  0.1142
  564MOL0     H76129   6.015   7.563   2.332 -1.2627 -0.5240 -1.8232
  564MOL0     H76130   5.862   7.705   2.464 -0.1443  0.5857  2.2031
  564MOL0     H76131   6.012   7.698   2.557  0.1388 -1.5148  2.2958
  564MOL0     H76132   5.802   7.676   2.697 -0.2062 -0.8015  2.0681
  564MOL0     H76133   5.926   7.560   2.711  0.3701 -0.6913  0.2777
  564MOL0     H76134   5.801   7.397   2.566  1.9032  0.2944 -0.8947
  564MOL0     H76135   5.733   7.429   2.732  3.4647 -1.2819 -0.0542
  564MOL0     H76136   5.438   7.561   2.460  1.2180 -0.7726 -1.6205
  564MOL0     H76137   6.117   7.374   2.716 -0.9444  0.1612 -1.1857
  564MOL0     H76138   6.437   7.334   2.885  0.4471 -1.2182 -0.4541
  564MOL0     H76139   6.339   7.483   2.918 -1.7874 -1.0244  0.9565
  564MOL0     H76140   6.258   7.340   2.901  0.8080 -1.2603 -1.0755
  565MOL0     O76141   2.598   9.913   9.541 -0.2032  0.0163  0.3205
  565MOL0     C76142   2.495   9.978   9.550  0.2102  1.3921 -0.0086
  565MOL0     O76143   2.450  10.069   9.461 -0.3011  0.4050 -0.3590
  565MOL0     C76144   2.524  10.078   9.345  0.7317 -0.0729  1.2473
  565MOL0     C76145   2.472  10.029   9.225 -0.0765  0.4135  0.0452
  565MOL0     C76146   2.544  10.034   9.105  1.2123 -0.7993  0.4458
  565MOL0     C76147   2.676  10.085   9.110  0.7762  0.0555 -0.2830
  565MOL0     O76148   2.742  10.103   8.987  0.8672  0.0741 -0.5881
  565MOL0     C76149   2.883  10.059   8.966  0.3224 -0.5265  0.6622
  565MOL0     C76150   2.885   9.954   8.846 -0.5243 -0.6397  0.8186
  565MOL0     C76151   2.843   9.812   8.888  0.2024  0.8445 -0.8151
  565MOL0     C76152   2.959   9.733   8.959 -0.3371  0.0972 -1.0542
  565MOL0     C76153   2.926   9.649   9.076 -0.8326  0.1441  0.2181
  565MOL0     C76154   3.010   9.522   9.107 -0.0530 -0.1286  0.6851
  565MOL0     C76155   2.940   9.405   9.180  0.1016  0.3827 -0.3038
  565MOL0     C76156   3.028   9.289   9.217 -0.6380 -0.6265  0.1735
  565MOL0     N76157   2.979   9.195   9.314 -1.0387 -1.5280  0.4565
  565MOL0     C76158   3.024   9.167   9.439 -0.7202 -0.2699  0.1757
  565MOL0     C76159   2.979   9.045   9.470  0.9029 -0.4416  0.1396
  565MOL0     C76160   3.002   8.960   9.593 -0.5530  0.4900  0.3345
  565MOL0     C76161   3.001   9.045   9.723 -0.3111 -0.1666 -0.8765
  565MOL0     C76162   2.969   8.947   9.842 -0.2583 -0.0451  0.6257
  565MOL0     C76163   2.964   9.024   9.984 -0.2198  1.1331  1.5829
  565MOL0     O76164   3.057   9.130   9.991 -0.0782  0.5671 -0.2393
  565MOL0     C76165   3.065   9.201  10.109  0.4259 -0.1987  0.7879
  565MOL0     C76166   3.176   9.191  10.193 -0.0925  0.1976 -0.3349
  565MOL0     C76167   3.181   9.248  10.322 -1.2115 -0.2131 -0.4098
  565MOL0     C76168   3.081   9.338  10.360 -0.1592 -0.1384  0.8383
  565MOL0     C76169   3.066   9.394  10.501 -0.1692 -0.3172  0.4765
  565MOL0     O76170   2.992   9.509  10.534 -0.1358  0.2162 -0.4178
  565MOL0     C76171   2.978   9.550  10.663  0.2307  0.4091  0.3463
  565MOL0     C76172   2.986   9.686  10.684 -1.0915 -0.0560 -0.2663
  565MOL0     C76173   2.956   9.734  10.811 -0.9970  0.0687  0.0926
  565MOL0     C76174   2.929   9.649  10.913  0.4669  0.2965 -0.3694
  565MOL0     O76175   2.899   9.676  11.043 -0.0256 -0.1870 -0.3346
  565MOL0     C76176   2.871   9.802  11.093  0.4796 -0.2537 -0.9090
  565MOL0     C76177   2.976   9.828  11.208  0.5310  0.5694 -0.1991
  565MOL0     C76178   2.971   9.975  11.256  0.3669  1.0871 -0.0933
  565MOL0     C76179   3.054  10.009  11.373  0.9465 -0.2776  0.5328
  565MOL0     C76180   3.022  10.154  11.406  0.6229  0.6888 -0.0614
  565MOL0     C76181   2.878  10.179  11.462 -0.2094  0.8819 -0.2775
  565MOL0     C76182   2.867  10.328  11.520 -0.1602 -0.4051  0.0005
  565MOL0     C76183   2.890  10.448  11.410  0.4379  0.4452 -0.5947
  565MOL0    Cl76184   2.806  10.408  11.255 -0.2625  0.1009 -0.2161
  565MOL0     C76185   2.907   9.513  10.886 -0.1206  0.5552  0.2572
  565MOL0     C76186   2.935   9.462  10.757 -0.0467  0.0769 -0.8940
  565MOL0     O76187   3.101   9.304  10.582 -0.5728 -0.1708 -0.3553
  565MOL0     C76188   2.985   9.370  10.264 -0.5861 -0.0339 -0.6498
  565MOL0     C76189   2.963   9.297  10.145 -0.3099  0.9260  0.2924
  565MOL0     N76190   2.912   8.988   9.358  0.3360  0.1976  0.1872
  565MOL0     N76191   2.912   9.086   9.269  0.2974  0.3063  0.7080
  565MOL0     C76192   2.729  10.126   9.227  0.5811  0.3070 -0.1412
  565MOL0     C76193   2.652  10.126   9.344  0.8636 -0.2833 -0.9223
  565MOL0     C76194   2.410   9.951   9.675  0.2990  0.4441  0.5109
  565MOL0     C76195   2.461   9.889   9.792  0.3797 -0.9499  0.1514
  565MOL0     C76196   2.385   9.877   9.905  0.3760  0.1386  0.5619
  565MOL0     C76197   2.247   9.907   9.905  0.1378  0.8448  0.6566
  565MOL0     O76198   2.170   9.905  10.019  0.8268 -1.2575  0.4769
  565MOL0     C76199   2.161   9.778  10.075  0.2589 -0.0538 -0.5420
  565MOL0     C76200   2.137   9.787  10.228  0.7355 -0.0125 -0.9362
  565MOL0     C76201   2.116   9.662  10.298 -0.8125  0.3102  0.1201
  565MOL0     C76202   2.140   9.683  10.450 -0.0137  0.3083 -0.3578
  565MOL0     C76203   2.131   9.554  10.514 -0.6701  0.2735  0.1014
  565MOL0     C76204   2.125   9.447  10.563 -0.5249 -0.1013 -0.8299
  565MOL0     C76205   2.194   9.952   9.785 -0.5714 -0.0130 -0.1272
  565MOL0     C76206   2.273   9.982   9.674 -0.5376 -0.2429  0.1563
  565MOL0     C76207   2.196  10.066   9.573 -0.4137  0.9824 -0.1232
  565MOL0     H76208   2.381   9.971   9.226 -1.5992  2.5856 -1.8650
  565MOL0     H76209   2.502   9.997   9.012  0.5832  1.3501 -0.1930
  565MOL0     H76210   2.934  10.152   8.938  1.0018 -1.3070 -0.8009
  565MOL0     H76211   2.930  10.022   9.057 -1.3561 -1.7118  1.0990
  565MOL0     H76212   2.990   9.943   8.816 -0.0171 -0.7617  2.5060
  565MOL0     H76213   2.829   9.994   8.762  2.9412  0.3352 -1.2454
  565MOL0     H76214   2.829   9.768   8.789 -0.0809 -2.4770  0.5650
  565MOL0     H76215   2.755   9.808   8.953  1.3916 -1.7762  0.7812
  565MOL0     H76216   3.020   9.685   8.882  2.4226 -0.4834  1.3241
  565MOL0     H76217   3.034   9.803   8.997  1.9944 -1.3759 -2.6381
  565MOL0     H76218   2.911   9.713   9.164  0.9153  1.7885 -0.6116
  565MOL0     H76219   2.822   9.616   9.070 -0.4599 -0.8187 -1.6427
  565MOL0     H76220   3.061   9.484   9.018 -1.5847 -0.9101  0.1042
  565MOL0     H76221   3.076   9.553   9.189  0.7236  3.2227 -1.0122
  565MOL0     H76222   2.866   9.364   9.110  1.8889  0.7994 -2.5575
  565MOL0     H76223   2.888   9.443   9.268 -0.6990 -0.9140 -0.1845
  565MOL0     H76224   3.045   9.229   9.127  1.0774 -0.7532  0.5537
  565MOL0     H76225   3.121   9.329   9.259 -2.3637  1.6136  2.0815
  565MOL0     H76226   3.080   9.223   9.513 -2.3245 -0.4352  1.5673
  565MOL0     H76227   2.923   8.884   9.600 -0.2719  0.1647 -0.0074
  565MOL0     H76228   3.095   8.905   9.575 -1.0043 -0.5356  0.9834
  565MOL0     H76229   3.098   9.083   9.756 -1.4164  0.6679  1.6854
  565MOL0     H76230   2.925   9.123   9.705 -0.5295  0.2225  1.3350
  565MOL0     H76231   3.045   8.868   9.846  0.5468  0.7437  1.4411
  565MOL0     H76232   2.878   8.893   9.817  1.2496 -2.1383 -0.6732
  565MOL0     H76233   2.970   8.942  10.056 -1.5894 -0.5806 -0.1427
  565MOL0     H76234   2.865   9.069   9.996 -1.0017 -0.3511  1.0009
  565MOL0     H76235   3.256   9.124  10.162  0.4734  0.7237 -0.0480
  565MOL0     H76236   3.262   9.223  10.389  1.7932  3.1261 -2.3979
  565MOL0     H76237   2.996   9.751  10.597 -2.2324 -0.7099 -0.9203
  565MOL0     H76238   2.992   9.835  10.825  0.0693 -0.3521  0.5262
  565MOL0     H76239   2.892   9.881  11.020  1.6309 -1.4359 -1.9045
  565MOL0     H76240   2.770   9.818  11.133  2.1714  3.0227  2.6819
  565MOL0     H76241   2.965   9.764  11.296 -2.4905 -0.5624 -1.2491
  565MOL0     H76242   3.070   9.809  11.156 -0.3842 -0.3160 -1.6294
  565MOL0     H76243   2.983  10.034  11.165  1.2291 -1.8406 -2.0134
  565MOL0     H76244   2.868   9.994  11.288  0.5395  2.2320 -0.1456
  565MOL0     H76245   3.161   9.997  11.360  0.7488  1.2718 -3.9906
  565MOL0     H76246   3.015   9.962  11.464  0.3232  0.4651  0.6582
  565MOL0     H76247   3.042  10.219  11.320  2.1276 -1.4607 -1.4336
  565MOL0     H76248   3.090  10.205  11.476  2.6392 -0.9784 -0.7100
  565MOL0     H76249   2.798  10.176  11.388  0.9979  1.8297 -1.6834
  565MOL0     H76250   2.870  10.113  11.549  2.2764 -0.5334 -1.0250
  565MOL0     H76251   2.938  10.330  11.604 -3.9931 -3.3193  3.7114
  565MOL0     H76252   2.767  10.335  11.562 -0.8396 -0.5903 -1.5079
  565MOL0     H76253   2.858  10.544  11.452 -1.3543 -0.4103  0.0579
  565MOL0     H76254   2.997  10.454  11.388  1.2480 -0.7912  2.4517
  565MOL0     H76255   2.870   9.443  10.960 -0.1597  0.0201 -0.2601
  565MOL0     H76256   2.931   9.355  10.741  0.7122 -0.2314  0.7693
  565MOL0     H76257   2.916   9.454  10.276 -2.4635 -1.2282 -2.4517
  565MOL0     H76258   2.877   9.319  10.082  1.1734  4.6601 -0.7242
  565MOL0     H76259   2.823  10.181   9.219  0.5336  0.3444 -0.4462
  565MOL0     H76260   2.694  10.149   9.442 -1.9354 -0.8865  0.5183
  565MOL0     H76261   2.564   9.856   9.799  0.3025 -1.4245 -0.7642
  565MOL0     H76262   2.449   9.841   9.985  1.8208 -0.2801 -0.7227
  565MOL0     H76263   2.243   9.714  10.041 -0.2321  0.3432 -2.6040
  565MOL0     H76264   2.071   9.732  10.033 -1.4467  1.8245  0.8806
  565MOL0     H76265   2.044   9.842  10.246  0.6134 -0.6958  0.6149
  565MOL0     H76266   2.217   9.842  10.278 -1.5385  1.0947  1.7389
  565MOL0     H76267   2.190   9.593  10.257 -1.6317 -1.1996  1.1370
  565MOL0     H76268   2.017   9.619  10.279 -0.7967  0.3301 -0.0088
  565MOL0     H76269   2.240   9.722  10.471 -0.9242  1.9714  1.0799
  565MOL0     H76270   2.052   9.736  10.488 -1.3129 -1.4199 -0.8237
  565MOL0     H76271   2.108   9.351  10.606  0.1929  1.5476  3.7036
  565MOL0     H76272   2.094   9.995   9.791 -1.6523 -2.0448 -2.3638
  565MOL0     H76273   2.205  10.015   9.476  2.4017  0.6699  0.2254
  565MOL0     H76274   2.095  10.095   9.602 -0.3446  2.5400 -1.2958
  565MOL0     H76275   2.255  10.157   9.561  1.1129  0.1495  0.6890
  566MOL0     O76276   2.191   7.956   5.721  0.0595 -0.0586 -0.3220
  566MOL0     C76277   2.304   7.962   5.765  0.6351  0.0248  0.2015
  566MOL0     O76278   2.337   8.012   5.883  0.1041  0.5435 -0.0170
  566MOL0     C76279   2.287   8.129   5.932  0.4077  0.2227  0.3310
  566MOL0     C76280   2.230   8.227   5.853  0.6458  0.4505  0.0746
  566MOL0     C76281   2.199   8.359   5.902 -0.8457  0.3213 -0.0961
  566MOL0     C76282   2.225   8.377   6.046  0.1664 -0.6501 -0.3679
  566MOL0     O76283   2.207   8.491   6.117 -0.3526 -0.6533 -0.1648
  566MOL0     C76284   2.158   8.609   6.043 -0.5007 -0.1630 -0.3644
  566MOL0     C76285   2.076   8.702   6.140  0.8509 -0.4631 -0.1870
  566MOL0     C76286   2.178   8.755   6.238  0.3596 -0.4157 -0.4345
  566MOL0     C76287   2.093   8.827   6.346  0.0727 -0.0523 -0.1109
  566MOL0     C76288   2.163   8.930   6.440 -0.5289  0.0783 -0.4000
  566MOL0     C76289   2.294   8.897   6.514  0.1297  0.2472 -0.1918
  566MOL0     C76290   2.371   9.019   6.567  0.3398  0.2418  0.8289
  566MOL0     C76291   2.523   8.996   6.569 -0.0087  1.0706 -0.0568
  566MOL0     N76292   2.596   9.119   6.587  0.3617 -1.4223 -0.9386
  566MOL0     C76293   2.594   9.238   6.520  1.1129  0.6219 -0.3937
  566MOL0     C76294   2.697   9.314   6.575  0.1560 -0.0483 -0.1438
  566MOL0     C76295   2.765   9.439   6.525 -0.7656  0.8622 -0.6165
  566MOL0     C76296   2.674   9.546   6.466  0.1923  0.4367  0.8483
  566MOL0     C76297   2.748   9.662   6.393 -0.7385 -0.2469  0.5384
  566MOL0     C76298   2.810   9.631   6.251  0.0343  0.5682  0.0846
  566MOL0     O76299   2.708   9.635   6.155 -0.2662  0.3062  0.1346
  566MOL0     C76300   2.734   9.638   6.021 -0.0317 -0.9273  0.1240
  566MOL0     C76301   2.628   9.631   5.926  0.0382 -0.1810  0.6216
  566MOL0     C76302   2.636   9.643   5.789 -0.3556 -0.3172 -0.3379
  566MOL0     C76303   2.762   9.663   5.734 -0.4492 -0.5779 -0.6087
  566MOL0     C76304   2.793   9.689   5.590  0.3790  0.5844 -0.0612
  566MOL0     O76305   2.920   9.728   5.557 -0.6987  0.1136  0.0802
  566MOL0     C76306   2.952   9.771   5.428  0.7084 -0.1313  0.7654
  566MOL0     C76307   3.035   9.887   5.409 -0.3123 -0.1965 -1.0010
  566MOL0     C76308   3.085   9.922   5.288  0.3891 -0.7271  0.1661
  566MOL0     C76309   3.044   9.862   5.169 -0.6173  0.4469 -0.4157
  566MOL0     O76310   3.088   9.917   5.057  0.1513 -0.8446  0.2652
  566MOL0     C76311   3.034   9.867   4.929 -1.3456  0.3333 -0.2371
  566MOL0     C76312   3.106   9.731   4.903  0.1736  0.7897 -0.1681
  566MOL0     C76313   3.104   9.701   4.754 -0.1949 -0.0097 -0.3787
  566MOL0     C76314   2.968   9.658   4.702 -1.3046 -0.7654 -0.2069
  566MOL0     C76315   2.971   9.548   4.590 -0.4267 -0.5088  0.7176
  566MOL0     C76316   3.008   9.596   4.455 -0.3692  0.8317  0.1713
  566MOL0     C76317   3.011   9.483   4.355  0.0816  0.4463  0.2168
  566MOL0     C76318   3.136   9.394   4.372  0.4936 -0.2528  0.0079
  566MOL0    Cl76319   3.288   9.479   4.341 -0.3034  0.0329 -0.0297
  566MOL0     C76320   2.948   9.764   5.187 -0.1919 -0.0130 -0.5877
  566MOL0     C76321   2.901   9.720   5.313  0.1377  0.7984  0.4846
  566MOL0     O76322   2.697   9.674   5.506  0.1631  0.7998 -1.2868
  566MOL0     C76323   2.871   9.666   5.825  0.1315 -1.1052 -0.6068
  566MOL0     C76324   2.859   9.656   5.969 -0.3841 -0.5352 -0.5917
  566MOL0     N76325   2.751   9.244   6.682  0.1057  0.2945  0.5168
  566MOL0     N76326   2.676   9.138   6.702 -0.3591  0.8295  0.0964
  566MOL0     C76327   2.283   8.275   6.115  0.1420  0.2639 -0.4097
  566MOL0     C76328   2.317   8.159   6.061  0.6464 -0.2588 -0.7833
  566MOL0     C76329   2.412   7.894   5.693 -1.0382  0.0784  0.1257
  566MOL0     C76330   2.528   7.871   5.763 -1.6719 -0.0775 -0.1606
  566MOL0     C76331   2.629   7.779   5.722 -0.6001  0.2725 -0.7485
  566MOL0     C76332   2.612   7.705   5.604 -0.8383 -0.4405  1.1349
  566MOL0     O76333   2.707   7.618   5.559  0.2298  0.8904 -0.1349
  566MOL0     C76334   2.691   7.546   5.433 -0.2537 -0.1688 -0.3818
  566MOL0     C76335   2.822   7.473   5.390 -0.2322 -0.3856  0.3681
  566MOL0     C76336   2.799   7.342   5.319  0.2368 -1.4237  0.3171
  566MOL0     C76337   2.925   7.293   5.249 -0.6547 -0.5841  1.4752
  566MOL0     C76338   3.022   7.241   5.346  0.5290  0.6289  0.5380
  566MOL0     C76339   3.093   7.190   5.427  0.4285  0.1088 -1.7226
  566MOL0     C76340   2.499   7.742   5.529 -0.3565  0.2380 -0.5942
  566MOL0     C76341   2.402   7.832   5.571  1.3866  0.1833  0.0745
  566MOL0     C76342   2.272   7.833   5.489 -0.8405  0.1426 -0.5247
  566MOL0     H76343   2.222   8.207   5.747  0.9895  1.6804 -0.1881
  566MOL0     H76344   2.160   8.437   5.837 -0.6606  0.1379 -0.4228
  566MOL0     H76345   2.248   8.662   6.011 -0.0417  0.2464  1.4898
  566MOL0     H76346   2.088   8.590   5.961  1.0316 -1.0798 -1.5247
  566MOL0     H76347   2.003   8.637   6.190 -0.2327 -0.8203 -2.1401
  566MOL0     H76348   2.012   8.772   6.086 -1.8560 -3.8607 -1.8073
  566MOL0     H76349   2.242   8.833   6.196 -1.2198  1.2936  0.2077
  566MOL0     H76350   2.235   8.674   6.283  1.3809  0.7523  0.4476
  566MOL0     H76351   2.011   8.872   6.290 -0.0928  1.9355  1.6057
  566MOL0     H76352   2.060   8.751   6.418  0.3507  0.5360  0.6420
  566MOL0     H76353   2.175   9.021   6.381 -3.0260  3.1253  3.2357
  566MOL0     H76354   2.095   8.940   6.525 -0.4876 -1.1318 -0.2135
  566MOL0     H76355   2.276   8.829   6.597  2.3628  0.8155  0.8412
  566MOL0     H76356   2.361   8.846   6.445 -0.1469  0.4315 -0.6022
  566MOL0     H76357   2.344   9.031   6.673 -0.3004 -1.9268  0.9644
  566MOL0     H76358   2.352   9.109   6.509  1.5010  0.6125  0.9957
  566MOL0     H76359   2.554   8.930   6.650  2.0381  1.3019 -0.6086
  566MOL0     H76360   2.550   8.950   6.473  0.6846 -0.4281  0.8311
  566MOL0     H76361   2.522   9.255   6.441  0.3934 -0.6390 -0.0360
  566MOL0     H76362   2.828   9.482   6.603  0.3502 -1.4228 -0.1723
  566MOL0     H76363   2.832   9.402   6.447 -1.2665 -0.1478 -0.5944
  566MOL0     H76364   2.598   9.498   6.403  2.0453 -2.4277  0.5843
  566MOL0     H76365   2.615   9.585   6.549  0.5016 -1.1027  1.8491
  566MOL0     H76366   2.828   9.702   6.457  0.0608  0.4371 -0.8425
  566MOL0     H76367   2.677   9.741   6.372 -2.0110 -1.5606 -0.2629
  566MOL0     H76368   2.850   9.530   6.263 -0.3446  0.5114  1.0082
  566MOL0     H76369   2.897   9.693   6.226  2.7744 -3.7068 -2.1885
  566MOL0     H76370   2.525   9.619   5.960 -0.8532 -1.3004 -2.1555
  566MOL0     H76371   2.548   9.635   5.725 -0.7211  0.4934  0.0505
  566MOL0     H76372   3.076   9.947   5.490 -1.4665 -0.3810 -0.2480
  566MOL0     H76373   3.163   9.998   5.294  0.1834 -0.4043 -1.0115
  566MOL0     H76374   2.926   9.854   4.934 -1.2616  0.0228  3.8223
  566MOL0     H76375   3.071   9.932   4.849  2.0614 -0.2643  0.6745
  566MOL0     H76376   3.207   9.740   4.943  0.2123  0.7525 -0.2601
  566MOL0     H76377   3.052   9.652   4.957 -4.9107  3.2358 -0.9861
  566MOL0     H76378   3.144   9.793   4.710  1.3445  1.3464  3.3893
  566MOL0     H76379   3.170   9.619   4.725 -1.0724  0.1721 -3.1637
  566MOL0     H76380   2.910   9.749   4.681  0.8905  0.7444  0.0163
  566MOL0     H76381   2.924   9.603   4.785  3.2123 -1.8021  1.7827
  566MOL0     H76382   2.866   9.520   4.583 -0.5175 -0.0062 -0.0092
  566MOL0     H76383   3.035   9.463   4.615  1.6517  0.9090  0.5276
  566MOL0     H76384   2.931   9.669   4.428 -0.8542  0.6381  0.9861
  566MOL0     H76385   3.106   9.642   4.442 -0.3288  0.3046 -1.6971
  566MOL0     H76386   2.997   9.522   4.254 -0.2836 -1.4383 -0.5079
  566MOL0     H76387   2.925   9.416   4.360  1.4202 -1.5628 -1.8034
  566MOL0     H76388   3.133   9.366   4.478 -1.3750  3.2351  1.0556
  566MOL0     H76389   3.133   9.304   4.311 -0.0874  0.8079 -1.6030
  566MOL0     H76390   2.907   9.717   5.099 -1.1082 -1.4770  0.5780
  566MOL0     H76391   2.825   9.642   5.313  0.7792  0.1061 -1.3551
  566MOL0     H76392   2.967   9.698   5.786  0.2976  1.3629  1.5777
  566MOL0     H76393   2.949   9.672   6.026  0.8967 -1.7919 -2.1413
  566MOL0     H76394   2.286   8.286   6.223 -0.4588 -0.1208 -0.3461
  566MOL0     H76395   2.372   8.091   6.127 -0.6345  0.7249  1.4125
  566MOL0     H76396   2.549   7.913   5.861  0.0339 -0.3944 -0.3635
  566MOL0     H76397   2.707   7.759   5.794 -2.0641 -3.7267 -0.0470
  566MOL0     H76398   2.660   7.613   5.353 -0.2052 -1.8474 -1.8741
  566MOL0     H76399   2.610   7.477   5.459  2.1220 -1.9983  3.0813
  566MOL0     H76400   2.890   7.462   5.475  0.5850  2.4663  0.1674
  566MOL0     H76401   2.864   7.544   5.319 -0.8432  0.4388  0.8191
  566MOL0     H76402   2.717   7.364   5.250 -0.6528 -0.7875  1.5484
  566MOL0     H76403   2.770   7.270   5.396  0.3352 -1.8768 -0.0641
  566MOL0     H76404   2.902   7.220   5.171  2.3012  0.6945 -0.8213
  566MOL0     H76405   2.981   7.375   5.203  1.2738 -2.2590  0.6570
  566MOL0     H76406   3.143   7.151   5.513 -3.5028  0.1693  0.8482
  566MOL0     H76407   2.493   7.692   5.432  1.8924  0.3459 -0.8492
  566MOL0     H76408   2.239   7.934   5.465 -0.5313 -0.0759 -1.9581
  566MOL0     H76409   2.283   7.776   5.396 -2.3680  0.5611 -0.9832
  566MOL0     H76410   2.199   7.779   5.550  0.6090  1.1445  2.2653
  567MOL0     O76411   0.721  10.522   5.589 -0.0818  0.2349  0.3204
  567MOL0     C76412   0.738  10.606   5.501 -0.9883  0.3594  0.1625
  567MOL0     O76413   0.852  10.615   5.422 -0.9098  0.4716  0.0801
  567MOL0     C76414   0.929  10.503   5.384 -0.3706 -1.2140 -0.1275
  567MOL0     C76415   1.008  10.530   5.271  0.6421  0.9217 -0.2111
  567MOL0     C76416   1.127  10.460   5.247  0.6416  0.0416  0.7483
  567MOL0     C76417   1.158  10.348   5.329 -0.3954  0.7616  0.1873
  567MOL0     O76418   1.259  10.251   5.312 -0.7470  0.4435  0.1402
  567MOL0     C76419   1.373  10.283   5.221 -0.0450 -0.6842  0.2347
  567MOL0     C76420   1.452  10.402   5.277 -0.7349  0.1619 -0.2402
  567MOL0     C76421   1.605  10.375   5.271 -0.2058 -0.1080  0.2670
  567MOL0     C76422   1.673  10.493   5.339  0.2476  0.8016 -0.8999
  567MOL0     C76423   1.831  10.506   5.331  0.4931 -0.1866 -0.1836
  567MOL0     C76424   1.886  10.483   5.181  0.3977 -1.4993  0.0550
  567MOL0     C76425   2.037  10.481   5.176  0.3962 -0.5586 -0.1430
  567MOL0     C76426   2.104  10.610   5.230 -0.1585 -0.1653 -0.6114
  567MOL0     N76427   2.131  10.592   5.376  1.0470  0.2321 -0.3320
  567MOL0     C76428   2.237  10.515   5.418  0.9506  0.4567  0.5859
  567MOL0     C76429   2.240  10.536   5.555 -0.5442 -0.4904 -0.1818
  567MOL0     C76430   2.354  10.494   5.655 -0.0331  0.3855 -0.4299
  567MOL0     C76431   2.498  10.517   5.616  1.2350 -0.2305  0.3161
  567MOL0     C76432   2.591  10.585   5.705  1.0636 -0.4857  0.0269
  567MOL0     C76433   2.611  10.511   5.831  0.1862  0.0310  1.0618
  567MOL0     O76434   2.704  10.588   5.920  0.1517 -0.0595 -0.1581
  567MOL0     C76435   2.821  10.529   5.966  0.8899 -0.4629  0.1690
  567MOL0     C76436   2.917  10.619   6.002  0.0070  0.2753  0.2411
  567MOL0     C76437   3.044  10.569   6.045 -0.0905  0.1075  0.1415
  567MOL0     C76438   3.073  10.433   6.063 -0.9354  0.4091  0.4947
  567MOL0     C76439   3.207  10.383   6.104  0.7481  0.6629  0.4043
  567MOL0     O76440   3.305  10.474   6.119  0.2791  0.0682  0.0074
  567MOL0     C76441   3.435  10.436   6.142 -0.8374 -0.3987 -0.2432
  567MOL0     C76442   3.522  10.544   6.158 -0.1263 -0.2930 -0.0542
  567MOL0     C76443   3.661  10.522   6.197  0.7193  0.0700 -0.7089
  567MOL0     C76444   3.714  10.393   6.200  0.4241 -0.1289  0.0090
  567MOL0     O76445   3.843  10.354   6.232  0.2774 -0.0757 -0.5194
  567MOL0     C76446   3.919  10.441   6.313 -0.2567 -0.2452  1.0787
  567MOL0     C76447   4.046  10.369   6.351 -0.0749  0.3883 -0.0417
  567MOL0     C76448   4.124  10.310   6.225 -0.2887  0.1442 -0.1112
  567MOL0     C76449   4.222  10.193   6.267 -0.0483  0.1123 -0.8049
  567MOL0     C76450   4.274  10.104   6.151 -1.2297 -0.0874  0.5137
  567MOL0     C76451   4.151  10.028   6.084  0.4051 -0.7124  0.6966
  567MOL0     C76452   4.193   9.913   5.989  0.1771  0.4834  0.3057
  567MOL0     C76453   4.121   9.932   5.853 -0.0077 -0.4490 -0.1738
  567MOL0    Cl76454   4.135   9.780   5.747  0.2230 -0.1138  0.0552
  567MOL0     C76455   3.631  10.282   6.183 -0.4269  0.0355  0.1110
  567MOL0     C76456   3.493  10.302   6.160  0.7843 -0.9003  0.6611
  567MOL0     O76457   3.209  10.265   6.128  0.6755 -0.3206 -0.0204
  567MOL0     C76458   2.962  10.353   6.037  0.3536 -0.0374  0.2860
  567MOL0     C76459   2.850  10.398   5.967 -0.2663  0.6844 -0.1270
  567MOL0     N76460   2.135  10.629   5.583  0.0503  0.3455  0.5986
  567MOL0     N76461   2.073  10.661   5.479 -0.0055  0.2499 -0.7095
  567MOL0     C76462   1.063  10.306   5.427 -0.2763 -0.3814 -0.5938
  567MOL0     C76463   0.971  10.402   5.465 -0.1887 -0.2532 -0.5389
  567MOL0     C76464   0.657  10.737   5.504  0.5237 -0.4048 -0.2679
  567MOL0     C76465   0.722  10.858   5.480 -0.4928 -0.2443  1.2899
  567MOL0     C76466   0.659  10.980   5.467 -0.2671  0.5999  1.1851
  567MOL0     C76467   0.518  10.994   5.477  0.1089  0.8083  0.7567
  567MOL0     O76468   0.447  11.106   5.453 -0.6514  0.3884  0.5828
  567MOL0     C76469   0.506  11.231   5.503 -0.2714  0.3909  0.2477
  567MOL0     C76470   0.428  11.295   5.608  0.8187 -0.9386 -0.7825
  567MOL0     C76471   0.477  11.420   5.673  0.8244  0.4502 -0.4776
  567MOL0     C76472   0.423  11.537   5.601 -0.1564 -0.6985  0.4445
  567MOL0     C76473   0.336  11.628   5.670  0.0726  0.0120 -0.1226
  567MOL0     C76474   0.260  11.710   5.703  0.5904  0.3571  0.3283
  567MOL0     C76475   0.445  10.868   5.499 -0.4356 -0.8137 -0.1036
  567MOL0     C76476   0.513  10.741   5.512  0.2734 -0.5442  0.1128
  567MOL0     C76477   0.428  10.616   5.542  0.1942 -0.8324  0.3516
  567MOL0     H76478   1.003  10.623   5.215  2.8495  1.2666  0.0858
  567MOL0     H76479   1.181  10.471   5.153  1.0479 -1.4166  0.7889
  567MOL0     H76480   1.441  10.198   5.212  3.1563  1.7930 -0.8656
  567MOL0     H76481   1.344  10.310   5.119  1.8549 -3.4961 -1.1840
  567MOL0     H76482   1.430  10.412   5.384  1.0427 -1.7798  0.3603
  567MOL0     H76483   1.437  10.502   5.236 -1.4065 -0.0427 -0.4986
  567MOL0     H76484   1.633  10.380   5.165 -0.7573  2.7823  0.1621
  567MOL0     H76485   1.636  10.281   5.318 -2.0685 -0.9241 -0.0888
  567MOL0     H76486   1.636  10.586   5.295 -3.4289  0.8792  1.8572
  567MOL0     H76487   1.650  10.480   5.445 -0.0563 -2.6074 -1.2797
  567MOL0     H76488   1.861  10.603   5.372  2.9347 -2.0539  3.0097
  567MOL0     H76489   1.874  10.429   5.396  2.0593  1.9506  1.4863
  567MOL0     H76490   1.847  10.389   5.141 -1.3176 -0.6934 -0.2780
  567MOL0     H76491   1.844  10.556   5.111 -0.7920 -1.5585  0.6733
  567MOL0     H76492   2.071  10.471   5.072  2.3777  0.5245  0.3523
  567MOL0     H76493   2.073  10.393   5.232  2.1968  0.5008  0.4499
  567MOL0     H76494   2.200  10.632   5.182 -0.8196 -0.9008 -2.3204
  567MOL0     H76495   2.032  10.692   5.223 -0.5403 -0.4431 -0.0329
  567MOL0     H76496   2.305  10.466   5.349 -1.1386 -0.3792 -0.9923
  567MOL0     H76497   2.333  10.548   5.748  1.8678  2.8710 -1.3124
  567MOL0     H76498   2.332  10.388   5.670 -2.2271  0.7568 -0.6578
  567MOL0     H76499   2.543  10.420   5.589  0.2820  0.0817 -2.8482
  567MOL0     H76500   2.502  10.582   5.528 -1.6224  0.0633  0.3108
  567MOL0     H76501   2.546  10.681   5.734 -0.6603 -1.8350  2.1203
  567MOL0     H76502   2.691  10.601   5.663  1.5399 -0.6429  1.0812
  567MOL0     H76503   2.652  10.412   5.811  2.1336  0.8285  0.8752
  567MOL0     H76504   2.512  10.503   5.877 -0.4352  0.7383 -0.1066
  567MOL0     H76505   2.896  10.725   5.995  1.5966  0.6490  0.5896
  567MOL0     H76506   3.123  10.644   6.054  0.4762 -0.5325  0.6929
  567MOL0     H76507   3.484  10.645   6.160 -1.4823 -0.7930  0.3130
  567MOL0     H76508   3.725  10.609   6.206 -0.2446  0.8003 -0.7603
  567MOL0     H76509   3.945  10.528   6.251  0.3416  0.2873  2.0576
  567MOL0     H76510   3.867  10.472   6.404  2.9034  2.2858  2.2099
  567MOL0     H76511   4.110  10.438   6.406  0.6768 -1.0070  0.8639
  567MOL0     H76512   4.020  10.287   6.419  1.8940 -1.1284 -1.0189
  567MOL0     H76513   4.055  10.283   6.145  1.3276 -1.2056 -1.1159
  567MOL0     H76514   4.187  10.388   6.182 -2.2935  3.3195  2.2860
  567MOL0     H76515   4.182  10.118   6.335  1.0700  0.9254  0.8134
  567MOL0     H76516   4.311  10.224   6.323 -1.8243  0.1265  2.2368
  567MOL0     H76517   4.346  10.037   6.197 -0.0536  3.5926  4.7563
  567MOL0     H76518   4.329  10.160   6.074 -1.4551 -0.0157  0.4027
  567MOL0     H76519   4.070   9.993   6.148  0.2741 -1.9454 -0.1158
  567MOL0     H76520   4.100  10.099   6.018  0.6757 -2.3939 -1.4344
  567MOL0     H76521   4.159   9.816   6.025  1.9919  0.5474  2.4366
  567MOL0     H76522   4.301   9.915   5.976 -0.1102  0.0160 -3.0191
  567MOL0     H76523   4.013   9.947   5.865 -0.6081 -2.9635 -1.7589
  567MOL0     H76524   4.155  10.017   5.793 -3.9771  1.4855 -0.0045
  567MOL0     H76525   3.683  10.187   6.190  2.3226  1.5795  3.2533
  567MOL0     H76526   3.432  10.212   6.159  3.1491 -2.6256  1.9246
  567MOL0     H76527   2.979  10.246   6.051 -0.3681 -0.0995  0.7672
  567MOL0     H76528   2.775  10.322   5.946  0.6379  0.3600 -2.4887
  567MOL0     H76529   1.076  10.215   5.485 -0.2627 -1.2585 -1.9248
  567MOL0     H76530   0.921  10.376   5.557 -0.2047 -2.6912 -1.1781
  567MOL0     H76531   0.830  10.855   5.464 -0.6175 -2.5527  0.5980
  567MOL0     H76532   0.717  11.064   5.432 -1.0237 -0.1533 -2.2754
  567MOL0     H76533   0.509  11.292   5.412 -1.8620  1.0474  0.5987
  567MOL0     H76534   0.611  11.222   5.534 -0.0857 -2.5127 -0.9598
  567MOL0     H76535   0.413  11.221   5.688  1.4849 -0.2389  0.0142
  567MOL0     H76536   0.328  11.318   5.571  1.8143  3.0227 -1.4866
  567MOL0     H76537   0.586  11.421   5.679  0.8906 -0.7178 -1.1329
  567MOL0     H76538   0.433  11.425   5.773 -1.3029  1.3288 -1.3846
  567MOL0     H76539   0.511  11.599   5.584  0.5432 -1.4145  1.3299
  567MOL0     H76540   0.376  11.517   5.504 -5.3488  1.7164  2.1141
  567MOL0     H76541   0.192  11.770   5.760  0.8998  0.4894  0.5641
  567MOL0     H76542   0.337  10.870   5.505 -0.3886 -1.6739  3.1425
  567MOL0     H76543   0.466  10.519   5.509 -3.4215 -2.6162  0.9439
  567MOL0     H76544   0.402  10.610   5.648 -1.1535 -2.5637 -0.0283
  567MOL0     H76545   0.329  10.621   5.496  0.3567 -0.3794  0.0459
  568MOL0     O76546   9.142  10.015  10.471  0.9197  0.7269  0.1219
  568MOL0     C76547   9.248  10.066  10.485 -0.9898 -0.0840 -1.0913
  568MOL0     O76548   9.288  10.140  10.591 -0.3465 -0.0541 -0.3869
  568MOL0     C76549   9.202  10.157  10.700  0.3059 -0.5641 -0.3375
  568MOL0     C76550   9.241  10.126  10.830  0.0967  0.4033 -0.2445
  568MOL0     C76551   9.153  10.142  10.939 -0.2007  0.1038 -0.2064
  568MOL0     C76552   9.036  10.209  10.924  1.0235  0.2116 -0.7217
  568MOL0     O76553   8.946  10.219  11.024 -0.3585  0.8084 -0.6613
  568MOL0     C76554   8.882  10.093  11.054 -0.0810 -0.2007  0.0157
  568MOL0     C76555   8.756  10.105  11.135  0.0679  0.8187 -0.4942
  568MOL0     C76556   8.656  10.203  11.064  0.3158  0.0609  0.2607
  568MOL0     C76557   8.509  10.188  11.126 -0.9123  0.7113  0.0782
  568MOL0     C76558   8.409  10.296  11.067 -0.1376  0.2343 -1.4152
  568MOL0     C76559   8.317  10.348  11.180  0.0230  0.1433 -0.5998
  568MOL0     C76560   8.192  10.414  11.126  0.7437 -0.4819  0.0713
  568MOL0     C76561   8.084  10.420  11.240  0.4011 -1.3112 -0.5058
  568MOL0     N76562   7.955  10.490  11.213 -0.5140 -0.4309 -0.3977
  568MOL0     C76563   7.954  10.598  11.132 -0.1719 -0.3079 -0.1370
  568MOL0     C76564   7.824  10.645  11.142 -0.4890 -0.2674  0.2752
  568MOL0     C76565   7.761  10.752  11.072  0.4419 -0.2856 -0.0295
  568MOL0     C76566   7.753  10.873  11.176 -0.0925 -0.0962  0.4102
  568MOL0     C76567   7.708  11.003  11.108 -0.6879 -0.8438 -0.1133
  568MOL0     C76568   7.557  11.011  11.087  0.1822  0.0895 -0.2839
  568MOL0     O76569   7.508  11.134  11.023  0.4964  0.8992  0.4727
  568MOL0     C76570   7.451  11.233  11.100 -0.7334 -0.6494 -0.2333
  568MOL0     C76571   7.458  11.239  11.242  0.4841  0.1159 -0.3980
  568MOL0     C76572   7.386  11.345  11.306  0.4441  1.1966  0.0932
  568MOL0     C76573   7.321  11.436  11.234  1.1583 -0.5458  0.6866
  568MOL0     C76574   7.258  11.544  11.309 -0.5134 -0.3527  0.8190
  568MOL0     O76575   7.325  11.598  11.415  0.4435  0.2014  0.3502
  568MOL0     C76576   7.271  11.675  11.510 -0.8123  0.1066  0.2917
  568MOL0     C76577   7.247  11.810  11.485  0.7998 -0.2208  0.6890
  568MOL0     C76578   7.184  11.883  11.584 -0.1041 -0.4684  0.0043
  568MOL0     C76579   7.144  11.837  11.708  0.0269  0.3968 -0.8179
  568MOL0     O76580   7.068  11.917  11.794 -0.0636  0.2586 -0.0805
  568MOL0     C76581   7.062  11.889  11.931  0.8663 -0.7125 -0.5751
  568MOL0     C76582   6.997  12.005  12.014 -0.3141  0.6975  0.9081
  568MOL0     C76583   6.856  12.036  11.967 -0.1611 -0.4243  0.0600
  568MOL0     C76584   6.771  12.122  12.068  0.0974 -0.1058 -0.6644
  568MOL0     C76585   6.618  12.084  12.067  0.3984  1.4295 -0.1248
  568MOL0     C76586   6.533  12.168  12.160 -0.2776 -0.0296 -0.4498
  568MOL0     C76587   6.398  12.109  12.179 -0.0559 -0.5718  0.3681
  568MOL0     C76588   6.310  12.130  12.060  0.1027  0.9951  0.1944
  568MOL0    Cl76589   6.149  12.089  12.115  0.1222  0.0533 -0.1331
  568MOL0     C76590   7.171  11.702  11.729 -0.6436 -0.1672 -0.1565
  568MOL0     C76591   7.244  11.629  11.635  0.7758 -0.0218 -0.0293
  568MOL0     O76592   7.153  11.583  11.261  0.3533  0.2417 -1.1866
  568MOL0     C76593   7.308  11.421  11.095  0.4338 -0.9784 -0.4185
  568MOL0     C76594   7.379  11.325  11.033  0.0479 -0.9907  0.2387
  568MOL0     N76595   7.766  10.572  11.242 -0.1063  0.4599 -0.1574
  568MOL0     N76596   7.846  10.479  11.283  0.9503 -0.3541 -0.1859
  568MOL0     C76597   9.000  10.244  10.794  0.7507  0.4925  0.2748
  568MOL0     C76598   9.076  10.210  10.680  0.1183 -1.0369 -0.6156
  568MOL0     C76599   9.342  10.054  10.369  0.7695  0.9977  0.2546
  568MOL0     C76600   9.291  10.023  10.236 -0.7339  0.7252 -0.3593
  568MOL0     C76601   9.375  10.011  10.120  1.0753  0.4244  0.2877
  568MOL0     C76602   9.511  10.041  10.129  0.0371  0.0837  0.1679
  568MOL0     O76603   9.585  10.029  10.013 -0.3245  0.2279  0.4132
  568MOL0     C76604   9.665  10.138   9.975 -0.1295 -1.8016  0.6481
  568MOL0     C76605   9.592  10.281   9.975 -0.2945  0.2451 -0.3261
  568MOL0     C76606   9.585  10.349  10.113  0.3506  0.2049 -0.5974
  568MOL0     C76607   9.467  10.441  10.121  1.6618 -0.1331  1.2640
  568MOL0     C76608   9.341  10.390  10.048  0.4083 -0.3483  0.6048
  568MOL0     C76609   9.247  10.343   9.990 -0.0595  0.6882 -0.5450
  568MOL0     C76610   9.566  10.058  10.263  0.5281  0.2180  0.4217
  568MOL0     C76611   9.480  10.063  10.373 -0.2325  0.2030 -0.9205
  568MOL0     C76612   9.547  10.113  10.502 -0.6908 -0.0069  0.0892
  568MOL0     H76613   9.344  10.097  10.849 -0.9597 -2.9228  1.1254
  568MOL0     H76614   9.188  10.116  11.039  3.2102  0.2453 -1.2225
  568MOL0     H76615   8.857  10.031  10.968 -0.2077  0.7305 -0.6258
  568MOL0     H76616   8.948  10.019  11.101 -0.0633 -1.5422 -2.0166
  568MOL0     H76617   8.786  10.129  11.237  0.3329  0.8458 -0.5772
  568MOL0     H76618   8.711  10.005  11.140  0.4954  0.6461 -0.0102
  568MOL0     H76619   8.648  10.184  10.957 -0.9634 -0.8599  0.4928
  568MOL0     H76620   8.680  10.309  11.070  4.0088 -0.7145  1.7064
  568MOL0     H76621   8.473  10.087  11.109  1.5287 -0.7084  2.4118
  568MOL0     H76622   8.515  10.219  11.231  1.6461  0.3510  0.1086
  568MOL0     H76623   8.454  10.383  11.018 -0.0717 -0.0286 -1.8324
  568MOL0     H76624   8.347  10.242  10.993 -1.4902 -1.0613  0.5644
  568MOL0     H76625   8.275  10.262  11.233 -3.7150  0.7146 -2.2450
  568MOL0     H76626   8.380  10.406  11.248 -1.0641  1.9257 -1.0280
  568MOL0     H76627   8.151  10.377  11.032  1.6317  4.0406 -2.3676
  568MOL0     H76628   8.223  10.514  11.095  4.3382 -1.0564  1.2498
  568MOL0     H76629   8.053  10.317  11.260  1.5712 -1.5337  0.3089
  568MOL0     H76630   8.123  10.444  11.339 -1.5142 -0.2953  0.0395
  568MOL0     H76631   8.029  10.650  11.074 -0.2865  1.0654  0.8885
  568MOL0     H76632   7.821  10.790  10.989 -0.4582 -0.5403 -0.8138
  568MOL0     H76633   7.659  10.731  11.038  0.8080 -2.8599  0.2611
  568MOL0     H76634   7.681  10.857  11.258 -3.4462  3.9888 -1.3559
  568MOL0     H76635   7.856  10.880  11.214  1.0903 -1.8005 -2.1836
  568MOL0     H76636   7.755  11.028  11.012  0.7495  3.9010  1.5404
  568MOL0     H76637   7.735  11.084  11.176  1.3918 -0.9381 -0.7504
  568MOL0     H76638   7.502  11.001  11.182  0.8388  2.1998  0.3627
  568MOL0     H76639   7.531  10.937  11.011  0.8467 -0.8479  0.3754
  568MOL0     H76640   7.522  11.171  11.299  0.4050  0.7120  0.4250
  568MOL0     H76641   7.408  11.351  11.412  2.2954 -3.7233  0.2301
  568MOL0     H76642   7.250  11.851  11.384  0.7555  1.0433  1.1834
  568MOL0     H76643   7.146  11.982  11.560 -2.8629 -0.9046  2.0848
  568MOL0     H76644   7.001  11.799  11.946 -0.3401  0.3369  1.0506
  568MOL0     H76645   7.166  11.873  11.963  0.8663  1.0549  0.4186
  568MOL0     H76646   6.990  11.969  12.117 -2.4032  1.3823  1.0591
  568MOL0     H76647   7.066  12.089  12.011 -1.1886  1.4130  0.4834
  568MOL0     H76648   6.869  12.073  11.865 -1.0766  0.6305  0.3149
  568MOL0     H76649   6.801  11.941  11.958  0.0741 -0.6180  0.6081
  568MOL0     H76650   6.780  12.231  12.065  1.3868 -0.0983  1.6067
  568MOL0     H76651   6.809  12.106  12.169 -0.1342 -1.6451 -0.7973
  568MOL0     H76652   6.597  11.979  12.087 -2.2266  1.5740 -1.6835
  568MOL0     H76653   6.590  12.102  11.963  0.7212 -0.6939 -0.6265
  568MOL0     H76654   6.580  12.166  12.259  0.6146 -2.8817 -0.8332
  568MOL0     H76655   6.537  12.274  12.134  1.2756  0.2894  0.9121
  568MOL0     H76656   6.348  12.145  12.270  0.5848  3.2232 -0.6237
  568MOL0     H76657   6.399  12.001  12.192 -0.8231 -0.4024  2.1813
  568MOL0     H76658   6.319  12.236  12.035  1.0427  0.2523 -3.0377
  568MOL0     H76659   6.338  12.066  11.976  1.4348  1.6089  0.1421
  568MOL0     H76660   7.151  11.662  11.827 -1.5135  0.9215  0.1341
  568MOL0     H76661   7.254  11.522  11.654 -2.4327 -0.0909  2.0290
  568MOL0     H76662   7.240  11.479  11.033 -0.0474 -0.3962  0.6241
  568MOL0     H76663   7.351  11.300  10.930  1.7806 -1.9685 -0.0332
  568MOL0     H76664   8.900  10.276  10.766  2.3611  3.4542 -2.9917
  568MOL0     H76665   9.052  10.246  10.581 -0.0703  1.7827  0.3602
  568MOL0     H76666   9.184  10.010  10.226 -1.0313 -2.4286  4.1506
  568MOL0     H76667   9.321   9.999  10.027  0.6759  2.9649  0.1285
  568MOL0     H76668   9.699  10.125   9.872 -4.2717 -1.4083 -0.9568
  568MOL0     H76669   9.758  10.138  10.032 -0.6525 -1.5704  1.5126
  568MOL0     H76670   9.496  10.254   9.930 -1.3636  3.1285  0.0094
  568MOL0     H76671   9.639  10.354   9.909 -0.7060  1.8982  1.1272
  568MOL0     H76672   9.677  10.406  10.119  1.4117 -1.5434  0.5115
  568MOL0     H76673   9.580  10.286  10.202 -0.2525  2.4892  1.0675
  568MOL0     H76674   9.447  10.453  10.228  0.4907 -0.7600  1.1416
  568MOL0     H76675   9.504  10.540  10.095  2.8203 -0.6424  0.8939
  568MOL0     H76676   9.153  10.315   9.947 -0.3903 -3.8953  2.4077
  568MOL0     H76677   9.673  10.078  10.268  0.4021  1.2667 -0.4993
  568MOL0     H76678   9.532  10.217  10.531 -3.6287 -1.2923  3.8927
  568MOL0     H76679   9.525  10.046  10.586 -2.0925  0.3334  0.0066
  568MOL0     H76680   9.656  10.103  10.494 -0.6132 -0.8880  1.8053
  569MOL0     O76681   7.782   8.136   1.977  0.0934 -0.5521 -0.7476
  569MOL0     C76682   7.763   8.245   2.015 -0.6555 -0.9753  0.1841
  569MOL0     O76683   7.833   8.355   1.984 -0.5263 -0.2452 -0.2241
  569MOL0     C76684   7.957   8.328   1.926 -0.3108 -0.8932  0.2069
  569MOL0     C76685   7.952   8.288   1.795  0.4968  0.3114 -0.2970
  569MOL0     C76686   8.064   8.232   1.735 -0.2389  0.2400  0.0668
  569MOL0     C76687   8.184   8.243   1.796 -0.3660  0.1384  0.5214
  569MOL0     O76688   8.289   8.189   1.726 -0.2078 -0.3781 -0.2841
  569MOL0     C76689   8.418   8.257   1.742  0.8627  0.4046 -0.2801
  569MOL0     C76690   8.537   8.182   1.667 -0.3129  0.6218  0.2366
  569MOL0     C76691   8.628   8.274   1.582  0.6576 -0.2284 -0.6299
  569MOL0     C76692   8.702   8.369   1.682  0.4107  0.6274  0.0516
  569MOL0     C76693   8.808   8.458   1.617  0.0335  0.4276  0.0133
  569MOL0     C76694   8.916   8.377   1.547 -0.2395 -0.8975  0.0979
  569MOL0     C76695   9.037   8.342   1.643  0.1132 -0.0164 -0.4865
  569MOL0     C76696   9.165   8.293   1.576 -0.1580 -0.4826  0.1516
  569MOL0     N76697   9.162   8.166   1.509  0.3127 -0.4961  0.0400
  569MOL0     C76698   9.105   8.144   1.383  0.2082 -0.2525  0.0786
  569MOL0     C76699   9.115   8.006   1.371  0.0290 -0.0526 -0.3271
  569MOL0     C76700   9.044   7.934   1.264  0.4088  0.2053  0.2111
  569MOL0     C76701   9.068   7.986   1.123  0.1002 -0.3846 -0.1718
  569MOL0     C76702   8.940   7.978   1.040 -0.7168  0.9037  0.6834
  569MOL0     C76703   8.961   8.008   0.883  0.4974 -0.3449 -1.2236
  569MOL0     O76704   9.058   7.927   0.811  0.1674  0.1016  0.9597
  569MOL0     C76705   9.079   7.969   0.678  0.2010  0.6638 -0.3944
  569MOL0     C76706   9.001   8.054   0.599  0.5117 -0.6950 -0.1817
  569MOL0     C76707   9.017   8.061   0.459  0.2084 -0.5823  0.0040
  569MOL0     C76708   9.119   7.994   0.398  0.8469 -0.8578 -0.7868
  569MOL0     C76709   9.161   8.025   0.255 -0.2142 -0.2778  0.3068
  569MOL0     O76710   9.275   7.974   0.210 -0.4143  0.3674 -0.0332
  569MOL0     C76711   9.317   8.007   0.085 -0.8193 -0.3729 -0.5340
  569MOL0     C76712   9.362   7.908   0.002 -0.0235 -0.5791 -0.1036
  569MOL0     C76713   9.437   7.936  -0.116 -0.0928  0.4202 -0.6763
  569MOL0     C76714   9.456   8.074  -0.156  0.5528  0.6020  0.9647
  569MOL0     O76715   9.513   8.094  -0.285  0.5359  0.1421 -0.0463
  569MOL0     C76716   9.557   8.229  -0.323 -0.5704  0.6560 -0.4997
  569MOL0     C76717   9.687   8.270  -0.253 -0.0411  1.8847 -1.0408
  569MOL0     C76718   9.698   8.420  -0.253  0.1995 -0.1253 -0.6625
  569MOL0     C76719   9.622   8.501  -0.143  0.1766  0.7699 -0.1375
  569MOL0     C76720   9.487   8.557  -0.189 -0.4858 -0.1254  0.2160
  569MOL0     C76721   9.521   8.685  -0.256  0.7567 -0.6230  0.5150
  569MOL0     C76722   9.388   8.759  -0.270 -0.3405 -0.7816 -0.5315
  569MOL0     C76723   9.395   8.889  -0.356 -0.2626  0.2811 -0.7544
  569MOL0    Cl76724   9.549   8.980  -0.346 -0.1025  0.1376 -0.1944
  569MOL0     C76725   9.408   8.176  -0.068  0.2297 -0.2924 -0.2529
  569MOL0     C76726   9.343   8.142   0.051  0.0640  0.1451  0.9731
  569MOL0     O76727   9.090   8.102   0.194  0.7295 -0.0667  0.3880
  569MOL0     C76728   9.197   7.907   0.478  0.8547  0.2649 -0.1594
  569MOL0     C76729   9.171   7.895   0.612 -0.9162 -0.2083 -0.1437
  569MOL0     N76730   9.182   7.957   1.486 -0.8135  0.1398 -0.3874
  569MOL0     N76731   9.208   8.052   1.565 -0.6208 -0.6437  0.4869
  569MOL0     C76732   8.194   8.289   1.933  0.2799  0.3994 -0.1514
  569MOL0     C76733   8.074   8.327   2.002  0.1514  0.7772  0.2779
  569MOL0     C76734   7.656   8.258   2.111 -0.3775  0.2272  0.9432
  569MOL0     C76735   7.654   8.166   2.217  0.9928 -0.4265 -0.1146
  569MOL0     C76736   7.540   8.158   2.307 -0.1971 -0.1411  0.9050
  569MOL0     C76737   7.444   8.253   2.290  0.2936 -0.3638  0.9326
  569MOL0     O76738   7.330   8.220   2.366 -0.6249  0.3212 -0.1044
  569MOL0     C76739   7.232   8.320   2.379 -1.3545  0.2798  0.1595
  569MOL0     C76740   7.111   8.268   2.465 -0.2678 -0.9531 -0.5484
  569MOL0     C76741   7.020   8.387   2.481 -0.4869 -0.4857 -0.6123
  569MOL0     C76742   6.891   8.346   2.550  0.0899 -0.8223 -0.7335
  569MOL0     C76743   6.908   8.297   2.688 -1.1832  0.0442 -0.3990
  569MOL0     C76744   6.936   8.262   2.803  0.7904 -0.1822 -0.0193
  569MOL0     C76745   7.446   8.355   2.187 -0.2497 -0.4788  0.4333
  569MOL0     C76746   7.552   8.354   2.096 -0.1447 -0.0764  0.6813
  569MOL0     C76747   7.551   8.464   2.000 -0.3307  0.8431  1.4201
  569MOL0     H76748   7.860   8.284   1.739  1.2317 -3.1076 -1.5296
  569MOL0     H76749   8.062   8.193   1.633  1.3959  0.0255  0.0834
  569MOL0     H76750   8.405   8.356   1.698 -1.7918  0.3248  0.1543
  569MOL0     H76751   8.444   8.285   1.845 -1.2473  0.5514  0.2628
  569MOL0     H76752   8.482   8.114   1.601  0.4534  0.4497 -0.2353
  569MOL0     H76753   8.600   8.122   1.733  0.0995  1.2210  0.3954
  569MOL0     H76754   8.563   8.330   1.514 -2.7427 -4.7521 -1.6097
  569MOL0     H76755   8.693   8.200   1.536  0.8783 -0.4388  0.0159
  569MOL0     H76756   8.621   8.428   1.726 -0.1418  0.5028 -0.7734
  569MOL0     H76757   8.749   8.309   1.761 -0.2910 -0.0371 -0.0181
  569MOL0     H76758   8.760   8.518   1.538  1.7412 -0.8481 -2.1228
  569MOL0     H76759   8.848   8.523   1.695  1.2066 -0.4011  0.1304
  569MOL0     H76760   8.879   8.289   1.493  0.7594 -1.4869  0.3620
  569MOL0     H76761   8.970   8.441   1.477  3.0847 -1.6033  1.8056
  569MOL0     H76762   9.004   8.271   1.719 -1.1939  0.4464 -0.6133
  569MOL0     H76763   9.054   8.428   1.708 -3.2825 -0.6358  1.4373
  569MOL0     H76764   9.198   8.361   1.497 -2.9444 -1.9865 -2.5271
  569MOL0     H76765   9.244   8.284   1.650  0.2893 -0.1678 -0.2800
  569MOL0     H76766   9.046   8.203   1.314 -0.1052 -0.0153  0.5446
  569MOL0     H76767   9.078   7.831   1.274  1.0265  0.4787  1.0873
  569MOL0     H76768   8.936   7.934   1.285  0.1100 -4.0398 -0.5994
  569MOL0     H76769   9.107   8.088   1.124 -0.4280 -0.1763 -0.4437
  569MOL0     H76770   9.151   7.926   1.084  3.3063  1.9187  2.5912
  569MOL0     H76771   8.861   8.044   1.078 -1.0175  1.4817 -0.8973
  569MOL0     H76772   8.893   7.879   1.041  0.8191  0.1533  0.6990
  569MOL0     H76773   8.980   8.115   0.871 -2.4396  0.3361 -0.6178
  569MOL0     H76774   8.866   7.990   0.832  0.6818  0.4379 -1.8684
  569MOL0     H76775   8.916   8.108   0.640 -1.8765 -1.7350 -3.3129
  569MOL0     H76776   8.941   8.118   0.406  0.6596  0.8130  0.8078
  569MOL0     H76777   9.354   7.804   0.031 -0.8729 -0.3549  0.4954
  569MOL0     H76778   9.479   7.853  -0.173 -0.4294  0.7852 -1.4594
  569MOL0     H76779   9.569   8.238  -0.432 -0.8812  3.8947 -0.3721
  569MOL0     H76780   9.471   8.291  -0.295 -1.4454 -0.5402 -0.4864
  569MOL0     H76781   9.698   8.230  -0.152 -1.6438 -1.0088 -1.8844
  569MOL0     H76782   9.774   8.224  -0.301 -2.4337 -2.0067 -2.2019
  569MOL0     H76783   9.804   8.447  -0.244  0.2261 -0.4234  0.0081
  569MOL0     H76784   9.672   8.443  -0.357 -0.7432 -4.2034 -1.4926
  569MOL0     H76785   9.681   8.587  -0.112  1.1368 -0.1555  0.6835
  569MOL0     H76786   9.617   8.426  -0.063  2.2524  1.3856  0.6284
  569MOL0     H76787   9.419   8.571  -0.104  2.5458 -0.6683  2.9272
  569MOL0     H76788   9.437   8.484  -0.253 -0.5488 -2.3983  2.6588
  569MOL0     H76789   9.597   8.757  -0.225  2.3652 -1.8608 -0.3828
  569MOL0     H76790   9.549   8.647  -0.355  0.2824 -0.4174  0.2962
  569MOL0     H76791   9.369   8.795  -0.168 -1.1974  0.0219 -0.9585
  569MOL0     H76792   9.311   8.692  -0.310 -0.9356  0.0834 -0.8606
  569MOL0     H76793   9.396   8.867  -0.463  0.3494 -0.7068 -0.5660
  569MOL0     H76794   9.307   8.953  -0.341 -1.0256 -0.3133 -2.3995
  569MOL0     H76795   9.429   8.281  -0.088  2.4000 -0.6257  0.0075
  569MOL0     H76796   9.307   8.226   0.109 -1.0173  1.0183 -0.8736
  569MOL0     H76797   9.275   7.850   0.428  0.1691 -0.2044 -0.7317
  569MOL0     H76798   9.237   7.826   0.664  1.0040 -0.1299 -2.3111
  569MOL0     H76799   8.292   8.290   1.980  0.0766 -0.7228  0.3340
  569MOL0     H76800   8.073   8.361   2.105 -2.5318 -0.1165  0.6276
  569MOL0     H76801   7.727   8.087   2.232  0.5867 -0.6181  0.9251
  569MOL0     H76802   7.544   8.087   2.388  2.5211 -0.5901  0.4696
  569MOL0     H76803   7.193   8.330   2.277  0.8943 -5.4549 -1.7035
  569MOL0     H76804   7.270   8.419   2.404  4.5880 -1.0354 -2.0287
  569MOL0     H76805   7.145   8.235   2.564  0.6994  2.2321  0.2735
  569MOL0     H76806   7.057   8.183   2.421 -2.3340 -0.1605  0.3339
  569MOL0     H76807   6.993   8.438   2.388 -0.6514 -1.7100 -1.2568
  569MOL0     H76808   7.080   8.454   2.543  0.3861  1.2964 -3.2453
  569MOL0     H76809   6.826   8.434   2.552 -1.5097 -1.8685 -2.7981
  569MOL0     H76810   6.847   8.269   2.486 -1.0091 -1.8140  1.1327
  569MOL0     H76811   6.943   8.232   2.906 -2.2739  1.2457  0.6956
  569MOL0     H76812   7.368   8.429   2.177 -2.2060 -2.5322 -0.4844
  569MOL0     H76813   7.620   8.436   1.920 -3.5114 -1.7386 -0.6865
  569MOL0     H76814   7.455   8.470   1.948 -0.5244 -0.7686  1.5161
  569MOL0     H76815   7.589   8.556   2.045  3.6110  0.5717 -0.9335
  570MOL0     O76816   2.659   4.920   9.141 -1.1708 -0.3922  0.7384
  570MOL0     C76817   2.561   4.866   9.192  0.0233  0.4104  0.3090
  570MOL0     O76818   2.562   4.738   9.242  0.2443 -0.0424 -0.0189
  570MOL0     C76819   2.679   4.665   9.226  0.2043  0.0059 -1.0204
  570MOL0     C76820   2.665   4.568   9.127 -0.0145 -0.0282  0.4930
  570MOL0     C76821   2.782   4.483   9.102 -0.2052  0.0680 -0.4392
  570MOL0     C76822   2.886   4.481   9.197 -0.3949 -0.3695  0.7057
  570MOL0     O76823   2.990   4.390   9.192 -0.0421  0.7342  0.9380
  570MOL0     C76824   3.031   4.341   9.060  0.4522  0.0897  0.2062
  570MOL0     C76825   3.162   4.257   9.038  0.0247 -0.1763 -0.2287
  570MOL0     C76826   3.282   4.299   9.117 -0.8110 -0.3263  0.1152
  570MOL0     C76827   3.402   4.232   9.055 -0.1238 -1.1367 -0.3301
  570MOL0     C76828   3.520   4.286   9.130  0.0154  0.3471  0.1063
  570MOL0     C76829   3.616   4.354   9.035 -0.6254 -0.2155  0.3641
  570MOL0     C76830   3.728   4.420   9.113  0.0080 -0.4033  0.1126
  570MOL0     C76831   3.801   4.335   9.219  1.0682  0.4200  0.5484
  570MOL0     N76832   3.865   4.217   9.147  0.3324  0.6329 -0.2999
  570MOL0     C76833   3.965   4.218   9.057 -0.9694 -0.7185  1.0467
  570MOL0     C76834   3.982   4.088   9.023  0.2014 -0.0609  0.5177
  570MOL0     C76835   4.081   4.042   8.920  0.9385 -0.0948  0.8857
  570MOL0     C76836   4.210   3.995   8.980 -0.7438 -0.5880 -0.2759
  570MOL0     C76837   4.317   3.985   8.872 -0.1654  0.5482  0.3603
  570MOL0     C76838   4.443   3.924   8.923 -0.0089 -1.4614  0.6341
  570MOL0     O76839   4.424   3.782   8.952 -0.3940 -0.5294  0.3012
  570MOL0     C76840   4.528   3.718   9.014 -0.0169  1.1954 -0.4587
  570MOL0     C76841   4.505   3.587   9.063  0.6259  0.2556 -0.2554
  570MOL0     C76842   4.605   3.512   9.115 -0.0475 -0.2113 -0.7307
  570MOL0     C76843   4.733   3.559   9.125 -0.7006 -0.0386 -0.5726
  570MOL0     C76844   4.835   3.476   9.194  0.4509  0.1282  0.5635
  570MOL0     O76845   4.804   3.354   9.239  0.2023 -0.2084 -0.1929
  570MOL0     C76846   4.879   3.265   9.315 -0.0393 -0.2242  0.3607
  570MOL0     C76847   4.840   3.126   9.316 -0.7811 -0.1909 -0.2077
  570MOL0     C76848   4.913   3.031   9.393  0.2613  0.3077 -0.6769
  570MOL0     C76849   5.014   3.063   9.483 -1.1874 -0.3083  0.0547
  570MOL0     O76850   5.064   2.958   9.562  0.0895  0.0233 -0.0800
  570MOL0     C76851   5.190   2.900   9.526  1.0910 -0.9797 -0.0804
  570MOL0     C76852   5.202   2.763   9.592  0.5520  0.4056  0.2413
  570MOL0     C76853   5.194   2.776   9.755 -0.6866 -0.2260 -0.2261
  570MOL0     C76854   5.329   2.763   9.820 -0.1493  0.4732 -0.2519
  570MOL0     C76855   5.323   2.791   9.972  0.0603  0.2932  0.6803
  570MOL0     C76856   5.456   2.830  10.039 -0.5909 -0.8482 -0.0270
  570MOL0     C76857   5.567   2.727  10.039 -0.3671  0.1846 -0.4613
  570MOL0     C76858   5.698   2.779   9.989 -0.3291 -0.4687  0.0407
  570MOL0    Cl76859   5.761   2.912  10.098  0.1153 -0.1635 -0.3280
  570MOL0     C76860   5.039   3.199   9.483 -1.0385  0.2541 -0.4182
  570MOL0     C76861   4.981   3.300   9.395 -1.2395 -0.0713 -0.6560
  570MOL0     O76862   4.939   3.537   9.209  0.2072  0.6215  0.5312
  570MOL0     C76863   4.761   3.693   9.080  0.0297 -0.5731  1.0519
  570MOL0     C76864   4.656   3.773   9.026 -0.5707  0.2921  0.6119
  570MOL0     N76865   3.897   4.012   9.098 -0.2778 -0.0337  0.3930
  570MOL0     N76866   3.824   4.090   9.172  1.3708 -0.2367 -0.1601
  570MOL0     C76867   2.882   4.555   9.314 -0.0365  0.2149 -0.3498
  570MOL0     C76868   2.782   4.653   9.321 -0.0765  0.1870 -0.5741
  570MOL0     C76869   2.444   4.953   9.219 -0.3145 -1.1252 -1.0888
  570MOL0     C76870   2.450   5.086   9.166  0.0053  0.4806 -0.6855
  570MOL0     C76871   2.349   5.174   9.168  0.6621 -0.3398  0.5144
  570MOL0     C76872   2.227   5.139   9.229  0.4042 -0.3105  0.5316
  570MOL0     O76873   2.120   5.224   9.226 -0.2373 -0.1734 -0.1937
  570MOL0     C76874   2.140   5.364   9.220  0.3761  0.3697 -0.2283
  570MOL0     C76875   2.010   5.450   9.241 -0.0120  0.2590 -0.9225
  570MOL0     C76876   1.953   5.417   9.386  0.0778  0.2433  0.2675
  570MOL0     C76877   1.804   5.474   9.403 -0.6435  0.4594 -0.4539
  570MOL0     C76878   1.799   5.552   9.530  0.7805  0.0998 -0.0364
  570MOL0     C76879   1.791   5.626   9.629 -0.4356  0.5728  0.3077
  570MOL0     C76880   2.214   5.013   9.284 -0.4906  0.8389  1.4922
  570MOL0     C76881   2.323   4.916   9.269 -0.2098 -0.4585  0.3345
  570MOL0     C76882   2.294   4.782   9.342 -0.5871 -1.1723  0.1886
  570MOL0     H76883   2.575   4.570   9.067  1.3499 -0.1727 -1.6772
  570MOL0     H76884   2.788   4.419   9.014  1.3099 -1.1697  0.5106
  570MOL0     H76885   2.948   4.291   9.010 -0.7150  0.3308  1.8123
  570MOL0     H76886   3.062   4.432   9.008 -0.3455  1.1915  1.5876
  570MOL0     H76887   3.192   4.253   8.933  4.3262 -0.7246  0.8296
  570MOL0     H76888   3.138   4.157   9.076 -2.1220 -0.3492 -1.8892
  570MOL0     H76889   3.272   4.260   9.219  1.5531 -1.6607 -0.0924
  570MOL0     H76890   3.296   4.408   9.119  2.8125 -0.6651 -0.5323
  570MOL0     H76891   3.395   4.123   9.059  2.3755 -1.3158  1.3893
  570MOL0     H76892   3.422   4.253   8.949  2.1044  2.6985  0.6434
  570MOL0     H76893   3.494   4.356   9.209  2.3150  1.1667  0.1894
  570MOL0     H76894   3.563   4.198   9.179 -1.5360  1.0504  2.9485
  570MOL0     H76895   3.650   4.272   8.970 -2.3454 -0.7498  0.0863
  570MOL0     H76896   3.568   4.428   8.970 -0.1695  0.4779  0.8088
  570MOL0     H76897   3.678   4.499   9.170  1.5369 -1.0352  2.4771
  570MOL0     H76898   3.795   4.455   9.035 -0.2192 -1.6443 -0.6642
  570MOL0     H76899   3.884   4.394   9.259  2.7594 -1.9137  0.6939
  570MOL0     H76900   3.730   4.300   9.294  0.0519 -2.3459 -1.5278
  570MOL0     H76901   4.025   4.301   9.020 -1.6295 -0.6020  0.2027
  570MOL0     H76902   4.028   3.969   8.857 -0.8353  1.7692  0.0940
  570MOL0     H76903   4.099   4.127   8.854 -1.5288  0.2054  0.5080
  570MOL0     H76904   4.249   4.061   9.058  0.2996 -2.2619  0.6741
  570MOL0     H76905   4.186   3.902   9.032  0.3149  0.1664  1.6706
  570MOL0     H76906   4.342   4.084   8.834  1.9209 -0.7012 -1.7754
  570MOL0     H76907   4.279   3.917   8.795  0.4313 -2.1604  2.3130
  570MOL0     H76908   4.479   3.976   9.013  1.6164  1.2675 -1.4000
  570MOL0     H76909   4.525   3.931   8.850  0.2162 -3.9992  0.5532
  570MOL0     H76910   4.403   3.552   9.077  0.2277  1.8155  1.0985
  570MOL0     H76911   4.560   3.420   9.151  1.1976 -0.3828  0.4625
  570MOL0     H76912   4.767   3.094   9.242  0.6087  0.9720 -2.1648
  570MOL0     H76913   4.887   2.925   9.390  0.0041  0.3945 -2.3255
  570MOL0     H76914   5.189   2.877   9.419 -1.4263 -0.3254 -0.2702
  570MOL0     H76915   5.273   2.954   9.572 -0.4768 -0.8139  2.8143
  570MOL0     H76916   5.122   2.699   9.554  2.2999 -0.8912 -1.4660
  570MOL0     H76917   5.291   2.709   9.558 -0.1841  0.8085 -2.5388
  570MOL0     H76918   5.160   2.877   9.775  2.2861  1.0082 -0.7610
  570MOL0     H76919   5.129   2.697   9.793 -1.1405 -0.4710 -1.4565
  570MOL0     H76920   5.403   2.819   9.762 -2.8983  1.2571 -3.3412
  570MOL0     H76921   5.355   2.658   9.801 -0.4911  0.2038  0.7242
  570MOL0     H76922   5.281   2.701  10.016 -1.4992  0.2205 -0.8566
  570MOL0     H76923   5.245   2.866   9.990 -1.6907 -1.4617  0.6756
  570MOL0     H76924   5.488   2.921   9.986 -4.1169 -0.1377 -1.1800
  570MOL0     H76925   5.458   2.871  10.140 -1.5171 -1.4219  0.2307
  570MOL0     H76926   5.538   2.638   9.982 -4.3117  1.4686 -0.7825
  570MOL0     H76927   5.592   2.699  10.142 -1.6585 -1.0017 -0.4388
  570MOL0     H76928   5.769   2.696   9.975 -1.2249 -1.6354  2.0171
  570MOL0     H76929   5.681   2.812   9.886 -0.9261  0.0644  0.3080
  570MOL0     H76930   5.108   3.235   9.559 -0.4815  0.0393 -0.8146
  570MOL0     H76931   5.017   3.402   9.405  0.9295 -0.6142 -2.0597
  570MOL0     H76932   4.856   3.744   9.088  0.2054 -0.3013 -1.7810
  570MOL0     H76933   4.679   3.871   8.984  0.9440  0.1973  1.1586
  570MOL0     H76934   2.966   4.534   9.379 -1.8669 -0.3771  1.9692
  570MOL0     H76935   2.782   4.722   9.405  0.2040 -0.8676  0.3337
  570MOL0     H76936   2.546   5.122   9.130  1.8519  1.0165  4.1457
  570MOL0     H76937   2.376   5.269   9.122  3.3103 -0.4579  1.6428
  570MOL0     H76938   2.164   5.377   9.114  2.4980 -1.6077 -0.0455
  570MOL0     H76939   2.223   5.399   9.282  0.4003  0.6072 -0.3907
  570MOL0     H76940   1.940   5.408   9.168  1.9763 -4.0478 -0.6358
  570MOL0     H76941   2.024   5.558   9.228  1.2506  0.0159 -1.7558
  570MOL0     H76942   2.026   5.452   9.460  2.7088  1.3804 -2.6359
  570MOL0     H76943   1.939   5.310   9.400  2.0223  0.3281  4.3723
  570MOL0     H76944   1.773   5.533   9.316 -1.8348 -0.0232 -0.3647
  570MOL0     H76945   1.736   5.389   9.408 -2.4237  1.7376 -1.7738
  570MOL0     H76946   1.782   5.716   9.685 -0.9503 -0.4319  1.9176
  570MOL0     H76947   2.118   4.992   9.328 -1.0265  0.3663  0.1531
  570MOL0     H76948   2.369   4.761   9.420  0.5707 -0.4235 -0.6816
  570MOL0     H76949   2.196   4.797   9.388 -0.9613  3.0388 -1.4589
  570MOL0     H76950   2.288   4.697   9.274 -1.4954 -0.0621 -1.1830
  571MOL0     O76951   7.442   9.929   9.712 -0.2984  0.7134  0.1672
  571MOL0     C76952   7.500  10.030   9.745  0.8907 -0.3591 -0.2688
  571MOL0     O76953   7.506  10.139   9.672 -0.2508 -0.3661  0.8743
  571MOL0     C76954   7.481  10.126   9.538 -0.9045 -0.2016  0.4821
  571MOL0     C76955   7.360  10.163   9.486 -0.5519  0.4211 -0.2048
  571MOL0     C76956   7.307  10.112   9.368 -0.3641 -0.2373  0.3388
  571MOL0     C76957   7.401  10.050   9.285  0.0649 -0.2348  0.9273
  571MOL0     O76958   7.340  10.012   9.167 -0.5763  0.0246  0.1038
  571MOL0     C76959   7.330   9.868   9.160 -0.9955  0.3224 -0.5062
  571MOL0     C76960   7.325   9.829   9.005 -0.3011  0.2299 -1.4643
  571MOL0     C76961   7.445   9.879   8.928 -0.4571  0.7368  0.9970
  571MOL0     C76962   7.415   9.915   8.781 -0.4721 -0.8845  0.9913
  571MOL0     C76963   7.550   9.954   8.707 -0.1110  0.3527  0.3839
  571MOL0     C76964   7.525   9.980   8.560  0.1200 -0.0157  0.1783
  571MOL0     C76965   7.656  10.030   8.486  1.3220 -0.1948  0.6161
  571MOL0     C76966   7.745   9.911   8.459 -0.1943  0.7350 -0.3195
  571MOL0     N76967   7.856   9.934   8.373  0.2760 -0.1532  0.1931
  571MOL0     C76968   7.929  10.045   8.353  0.0801  0.1933 -1.1800
  571MOL0     C76969   8.051  10.007   8.299  0.6262  0.2870  0.3608
  571MOL0     C76970   8.171  10.093   8.293 -0.3586 -0.3841 -0.8494
  571MOL0     C76971   8.177  10.184   8.414 -0.5168 -1.2963 -0.0002
  571MOL0     C76972   8.315  10.251   8.407 -0.0222 -0.0541 -0.6024
  571MOL0     C76973   8.319  10.363   8.511  0.2577  0.8923  0.0309
  571MOL0     O76974   8.229  10.468   8.482  0.1402 -0.9398 -0.1178
  571MOL0     C76975   8.214  10.554   8.585  0.5444  0.7175 -0.1187
  571MOL0     C76976   8.310  10.643   8.624  0.3989 -0.3427 -0.4024
  571MOL0     C76977   8.269  10.747   8.716  0.1326  1.1639  0.1793
  571MOL0     C76978   8.150  10.743   8.786  0.0167  0.6649  0.2798
  571MOL0     C76979   8.124  10.841   8.884  0.1225  0.5101  0.1654
  571MOL0     O76980   7.998  10.840   8.934  0.5850 -0.0419  0.0268
  571MOL0     C76981   7.943  10.933   9.020 -0.7315  0.2496 -0.3543
  571MOL0     C76982   7.833  10.883   9.076 -0.2611  0.1519 -0.3699
  571MOL0     C76983   7.759  10.975   9.161  0.2272 -0.9152  0.0223
  571MOL0     C76984   7.804  11.103   9.195 -0.1916 -0.5054  0.5226
  571MOL0     O76985   7.732  11.181   9.273  0.0042 -0.0483 -0.2418
  571MOL0     C76986   7.586  11.190   9.273 -0.5189  0.3502 -1.0372
  571MOL0     C76987   7.530  11.304   9.363  1.0757  0.7728  0.3718
  571MOL0     C76988   7.630  11.332   9.483 -0.5588 -0.2612 -0.0108
  571MOL0     C76989   7.557  11.318   9.617  0.2433 -0.6065 -0.1138
  571MOL0     C76990   7.644  11.355   9.735  0.0065 -0.4054  0.2072
  571MOL0     C76991   7.579  11.337   9.868  0.8498 -1.6486 -0.2487
  571MOL0     C76992   7.471  11.439   9.907 -0.2443 -0.1840  0.6368
  571MOL0     C76993   7.448  11.462  10.057  0.7544  0.1595 -1.0369
  571MOL0    Cl76994   7.602  11.509  10.143 -0.0146 -0.0338 -0.2220
  571MOL0     C76995   7.934  11.147   9.148  0.8373  1.2955 -0.6628
  571MOL0     C76996   7.997  11.058   9.061 -0.1760  1.3573 -0.1704
  571MOL0     O76997   8.210  10.924   8.909 -0.1510 -0.0106 -0.1386
  571MOL0     C76998   8.053  10.648   8.738  0.1869 -0.7308 -0.0063
  571MOL0     C76999   8.082  10.556   8.637  0.3002 -0.0658  0.5081
  571MOL0     N77000   8.051   9.872   8.297  0.5471  0.5366 -0.0169
  571MOL0     N77001   7.939   9.834   8.343 -0.4426 -0.0633  0.3906
  571MOL0     C77002   7.524  10.014   9.320  0.8616 -0.5288  0.3190
  571MOL0     C77003   7.557  10.038   9.451  0.0121 -0.0560 -0.6634
  571MOL0     C77004   7.567  10.029   9.887 -1.0682  1.4875  0.9573
  571MOL0     C77005   7.585   9.910   9.959 -0.0230 -0.5625 -0.7499
  571MOL0     C77006   7.628   9.910  10.085 -0.0476  0.0272  0.1133
  571MOL0     C77007   7.657  10.026  10.158  0.1699  0.5563  0.3751
  571MOL0     O77008   7.682  10.031  10.294  0.0470  0.7036  0.2782
  571MOL0     C77009   7.723   9.911  10.359 -0.6821  0.2016 -0.4377
  571MOL0     C77010   7.869   9.880  10.313  0.0903  0.7500  0.1344
  571MOL0     C77011   7.982   9.947  10.391 -0.5550  0.2349 -0.0941
  571MOL0     C77012   8.077   9.833  10.441 -0.2616 -0.3980 -0.3851
  571MOL0     C77013   8.217   9.857  10.412 -0.2771  0.3148  0.6821
  571MOL0     C77014   8.324   9.885  10.381  0.0439  1.0685 -0.3133
  571MOL0     C77015   7.657  10.142  10.088 -0.4697 -0.2779 -0.4117
  571MOL0     C77016   7.607  10.146   9.954  0.5275 -0.5153 -0.8676
  571MOL0     C77017   7.609  10.284   9.895  0.2649 -0.0427 -0.2533
  571MOL0     H77018   7.295  10.207   9.561 -2.2822  0.1700 -1.4789
  571MOL0     H77019   7.207  10.128   9.330  0.1571 -2.9758 -2.6401
  571MOL0     H77020   7.415   9.821   9.210 -0.5141  1.2169 -0.4709
  571MOL0     H77021   7.239   9.826   9.205 -0.9947  0.7415 -0.1139
  571MOL0     H77022   7.234   9.879   8.969 -0.4942  0.1548 -1.0878
  571MOL0     H77023   7.307   9.722   8.996  0.5331 -0.0423 -0.1644
  571MOL0     H77024   7.529   9.811   8.936 -2.1974 -1.7960 -0.7154
  571MOL0     H77025   7.472   9.970   8.983 -0.3045  1.6998 -0.6027
  571MOL0     H77026   7.370   9.833   8.725 -3.2487 -0.4138  2.3647
  571MOL0     H77027   7.357  10.008   8.786 -1.5932 -1.3870 -1.2540
  571MOL0     H77028   7.589  10.043   8.757 -1.9385  1.2874  0.2187
  571MOL0     H77029   7.627   9.876   8.709  1.5108  1.9081 -0.0023
  571MOL0     H77030   7.490   9.889   8.512  1.3862 -0.5507  0.2138
  571MOL0     H77031   7.454  10.063   8.565  0.9471  0.7395 -0.1848
  571MOL0     H77032   7.709  10.110   8.539  2.5447 -0.3996 -0.2458
  571MOL0     H77033   7.625  10.061   8.386  2.2877  0.5841  0.5397
  571MOL0     H77034   7.780   9.865   8.552  3.7874  0.8792 -1.5712
  571MOL0     H77035   7.681   9.835   8.412 -1.0615  1.2451  0.0053
  571MOL0     H77036   7.913  10.148   8.384  2.3440  0.8364 -1.9637
  571MOL0     H77037   8.254  10.021   8.294 -0.3247 -0.3400 -0.4614
  571MOL0     H77038   8.164  10.148   8.198 -0.3658 -1.5856 -1.5723
  571MOL0     H77039   8.106  10.268   8.409  1.1585  0.2363  0.9119
  571MOL0     H77040   8.179  10.137   8.513 -0.2461  1.0543  1.1867
  571MOL0     H77041   8.339  10.288   8.307 -1.4039  1.2882 -0.4763
  571MOL0     H77042   8.397  10.181   8.429  1.3361  1.5548 -0.2970
  571MOL0     H77043   8.423  10.394   8.497  2.7130 -5.5438  0.5932
  571MOL0     H77044   8.301  10.330   8.614  2.0680  0.7935  0.3509
  571MOL0     H77045   8.397  10.656   8.560 -0.2020  1.4225 -0.9160
  571MOL0     H77046   8.348  10.816   8.744  1.1445 -0.9556  3.1068
  571MOL0     H77047   7.789  10.791   9.041  1.6679 -0.9908  0.0579
  571MOL0     H77048   7.668  10.925   9.194 -2.0725  2.2078 -1.1693
  571MOL0     H77049   7.555  11.196   9.168 -0.2452  1.0216 -1.0797
  571MOL0     H77050   7.548  11.097   9.318 -0.9693  2.1592  2.7114
  571MOL0     H77051   7.512  11.378   9.285 -3.8556 -0.7654 -0.2950
  571MOL0     H77052   7.430  11.273   9.394  1.8512 -0.8068  1.4570
  571MOL0     H77053   7.721  11.272   9.480 -0.3735 -0.0425  0.9613
  571MOL0     H77054   7.674  11.431   9.468  0.6065 -0.9404 -1.4022
  571MOL0     H77055   7.513  11.218   9.624 -0.6234 -0.1475  1.4655
  571MOL0     H77056   7.471  11.385   9.607 -0.3420 -1.5682 -1.9366
  571MOL0     H77057   7.683  11.455   9.714  0.6331 -1.0220 -1.8131
  571MOL0     H77058   7.734  11.293   9.735  2.4466  2.8747  0.6448
  571MOL0     H77059   7.538  11.236   9.883  1.7712 -1.8284  1.2416
  571MOL0     H77060   7.652  11.336   9.949 -2.4569  2.0979  3.2502
  571MOL0     H77061   7.373  11.411   9.866  0.3121 -0.8572 -0.2750
  571MOL0     H77062   7.505  11.532   9.860  0.7475  1.1800  3.8338
  571MOL0     H77063   7.374  11.541  10.072  1.8189  0.5367  3.7122
  571MOL0     H77064   7.408  11.372  10.104 -0.5017  2.6179  3.1237
  571MOL0     H77065   7.979  11.241   9.177  3.7128 -0.6783  1.8472
  571MOL0     H77066   8.087  11.101   9.019  0.9884  0.9650  1.8077
  571MOL0     H77067   7.960  10.625   8.790  0.4100 -3.3569 -0.6332
  571MOL0     H77068   8.003  10.492   8.597 -0.5837  1.7288 -0.7270
  571MOL0     H77069   7.581   9.964   9.242 -1.0871 -0.2311 -1.3542
  571MOL0     H77070   7.647   9.996   9.495 -0.5363 -0.5776 -0.0095
  571MOL0     H77071   7.545   9.818   9.919 -1.6341 -1.5675  2.8215
  571MOL0     H77072   7.633   9.808  10.120  1.1698 -1.2221 -3.3014
  571MOL0     H77073   7.658   9.825  10.335  0.5495 -1.5068  1.8792
  571MOL0     H77074   7.729   9.922  10.468  2.8195 -1.5580 -0.3390
  571MOL0     H77075   7.890   9.868  10.207 -0.9859 -0.9210  0.0706
  571MOL0     H77076   7.870   9.771  10.324 -3.0947  0.7030  1.0113
  571MOL0     H77077   7.947  10.009  10.474  0.1693  3.3247 -1.9198
  571MOL0     H77078   8.037  10.023  10.335 -2.0228  2.2019  0.9984
  571MOL0     H77079   8.061   9.818  10.548  0.4280 -0.9274 -0.3488
  571MOL0     H77080   8.048   9.741  10.389 -3.4513 -1.4133  2.7916
  571MOL0     H77081   8.423   9.924  10.365  0.5098  0.8057  1.7133
  571MOL0     H77082   7.688  10.229  10.145 -1.3270 -0.9899  1.2012
  571MOL0     H77083   7.512  10.330   9.872  0.8479  1.1430 -0.4286
  571MOL0     H77084   7.661  10.355   9.961 -2.7325  0.1668  2.1135
  571MOL0     H77085   7.652  10.281   9.795 -1.6161 -1.5266 -1.0996
  572MOL0     O77086   2.143   5.223   0.179 -0.1760  0.0663 -0.4038
  572MOL0     C77087   2.086   5.268   0.271  0.2597  0.4512 -0.0340
  572MOL0     O77088   2.014   5.193   0.358  0.2014  0.5933  0.6652
  572MOL0     C77089   2.000   5.053   0.370 -0.4251  1.0445  0.2542
  572MOL0     C77090   2.098   4.963   0.318 -0.2875  0.3270 -0.5928
  572MOL0     C77091   2.083   4.822   0.331 -0.1737  1.8536 -0.3313
  572MOL0     C77092   1.962   4.768   0.389  0.0862  0.1132  0.5698
  572MOL0     O77093   1.931   4.639   0.389  0.4070  0.1440  0.1137
  572MOL0     C77094   2.015   4.559   0.469  0.4923 -0.0917 -0.0810
  572MOL0     C77095   2.000   4.414   0.412  0.5159  0.0939 -0.8576
  572MOL0     C77096   2.029   4.410   0.257 -0.0859  0.1056 -0.7911
  572MOL0     C77097   1.991   4.272   0.200  0.7068  0.3203 -0.0750
  572MOL0     C77098   1.977   4.281   0.049 -0.7655  0.5423 -0.2143
  572MOL0     C77099   1.951   4.156  -0.027 -0.2895  0.3929  1.1553
  572MOL0     C77100   1.966   4.171  -0.175 -0.0540  0.0768 -0.1011
  572MOL0     C77101   2.111   4.140  -0.235 -0.0808  0.3416  0.3103
  572MOL0     N77102   2.150   4.002  -0.243 -0.9145 -0.0392  0.3537
  572MOL0     C77103   2.219   3.935  -0.142 -0.2388  0.1158  1.0028
  572MOL0     C77104   2.221   3.812  -0.185 -0.0118  0.8855  0.1177
  572MOL0     C77105   2.307   3.695  -0.122 -0.4443 -0.1680 -0.6084
  572MOL0     C77106   2.267   3.551  -0.165  0.6445 -0.0301  0.8653
  572MOL0     C77107   2.149   3.489  -0.091 -0.0126  0.1278  0.2225
  572MOL0     C77108   2.097   3.358  -0.155 -0.8686 -0.4700  0.1855
  572MOL0     O77109   2.198   3.265  -0.143  1.1979  0.3682 -0.4048
  572MOL0     C77110   2.159   3.129  -0.151  0.2600 -0.6633  0.2039
  572MOL0     C77111   2.252   3.035  -0.147 -0.3707  0.6099 -0.6407
  572MOL0     C77112   2.224   2.899  -0.157  0.2222  0.2035  0.4731
  572MOL0     C77113   2.088   2.856  -0.174 -0.7279  0.8761  0.1449
  572MOL0     C77114   2.048   2.724  -0.222  0.3321 -0.3338 -0.0342
  572MOL0     O77115   2.133   2.627  -0.209  0.4502  0.0941 -1.1004
  572MOL0     C77116   2.112   2.490  -0.227  0.2404  0.1091 -1.5239
  572MOL0     C77117   1.984   2.432  -0.243  0.5094 -0.1394  0.1091
  572MOL0     C77118   1.977   2.291  -0.251  1.1640 -1.1136  0.5399
  572MOL0     C77119   2.089   2.210  -0.241 -0.4558 -0.4820 -0.5738
  572MOL0     O77120   2.041   2.078  -0.240 -0.6037  0.2437  0.2051
  572MOL0     C77121   2.147   1.981  -0.275 -0.7547  1.0192 -0.2886
  572MOL0     C77122   2.190   1.975  -0.420 -0.3224 -0.6987 -0.1794
  572MOL0     C77123   2.071   1.951  -0.512  0.3162 -0.3141  0.8207
  572MOL0     C77124   2.011   1.810  -0.507 -1.0512  0.5986  1.1314
  572MOL0     C77125   1.887   1.796  -0.599 -0.1267  0.3511 -0.6131
  572MOL0     C77126   1.767   1.881  -0.544  0.3082  1.1382  0.3088
  572MOL0     C77127   1.714   1.820  -0.404 -0.3529  0.1602  1.0056
  572MOL0     C77128   1.700   1.913  -0.295 -1.0631 -0.2590 -0.1505
  572MOL0    Cl77129   1.603   2.064  -0.332 -0.0086 -0.2798 -0.0158
  572MOL0     C77130   2.214   2.264  -0.230 -0.0056  1.3705 -0.5440
  572MOL0     C77131   2.227   2.404  -0.220 -0.1133 -0.6368 -1.1501
  572MOL0     O77132   1.941   2.711  -0.282  0.1533 -0.9981  0.4606
  572MOL0     C77133   1.990   2.954  -0.167 -0.4591  0.6778  0.3134
  572MOL0     C77134   2.024   3.083  -0.169 -1.2513 -1.0521  0.3849
  572MOL0     N77135   2.159   3.802  -0.312 -0.9649 -0.7552  0.0070
  572MOL0     N77136   2.118   3.922  -0.351  0.6209 -0.1874  0.2307
  572MOL0     C77137   1.864   4.857   0.424  0.0939 -0.8241  0.2584
  572MOL0     C77138   1.891   4.994   0.426  0.3300  0.6510 -0.3723
  572MOL0     C77139   2.082   5.411   0.285 -0.4666  0.1085 -1.2927
  572MOL0     C77140   1.963   5.468   0.330 -0.1654  0.0042 -1.1664
  572MOL0     C77141   1.958   5.605   0.364 -0.2815  0.6726  0.7592
  572MOL0     C77142   2.059   5.701   0.321 -0.1604  0.5769  0.0126
  572MOL0     O77143   2.059   5.841   0.335 -0.5383  0.6278 -0.0547
  572MOL0     C77144   1.932   5.908   0.368 -0.8354 -0.5103  0.9314
  572MOL0     C77145   1.815   5.905   0.257 -0.3711  1.0525 -0.6861
  572MOL0     C77146   1.748   6.042   0.221  0.5366 -0.0838 -0.1302
  572MOL0     C77147   1.668   6.095   0.341 -0.0422 -0.6653 -0.2459
  572MOL0     C77148   1.582   5.995   0.397  0.7166  0.2977  0.5995
  572MOL0     C77149   1.512   5.924   0.466  0.7544  0.4029 -0.8134
  572MOL0     C77150   2.171   5.645   0.268  0.7444 -1.0888  0.0160
  572MOL0     C77151   2.187   5.501   0.258  0.6129  0.6828 -0.6544
  572MOL0     C77152   2.318   5.444   0.208 -0.1561  0.0727 -0.2272
  572MOL0     H77153   2.188   5.010   0.278  0.4749  0.1662  0.8333
  572MOL0     H77154   2.156   4.749   0.299 -1.1628 -0.9668  3.1773
  572MOL0     H77155   2.119   4.592   0.472  1.4908 -3.0268  0.7908
  572MOL0     H77156   1.971   4.566   0.569  1.5113 -0.8365  0.4364
  572MOL0     H77157   1.895   4.385   0.421  0.1400  1.6196  0.2485
  572MOL0     H77158   2.053   4.331   0.458 -4.9431 -2.7784  1.1149
  572MOL0     H77159   2.134   4.424   0.231  0.3475 -0.5636  0.4959
  572MOL0     H77160   1.965   4.481   0.205  0.7870  0.8127 -0.9257
  572MOL0     H77161   2.058   4.191   0.231  2.9792  1.2294 -2.3309
  572MOL0     H77162   1.895   4.242   0.242 -0.8461  0.0136 -3.4956
  572MOL0     H77163   1.901   4.356   0.030 -1.7595 -0.2269  0.5658
  572MOL0     H77164   2.077   4.310   0.017  0.6040 -3.5077 -0.1816
  572MOL0     H77165   2.017   4.072  -0.002  1.7413  2.3051  2.5807
  572MOL0     H77166   1.849   4.131   0.002 -0.3436  0.5919  1.1396
  572MOL0     H77167   1.948   4.273  -0.210 -0.3980  0.4029  1.0133
  572MOL0     H77168   1.889   4.106  -0.217 -0.6357  0.5804  0.1695
  572MOL0     H77169   2.112   4.191  -0.331 -2.7565  1.5773  0.8440
  572MOL0     H77170   2.190   4.193  -0.181 -0.3798  0.6670  0.4286
  572MOL0     H77171   2.255   3.965  -0.044  0.3614  0.7081  0.6059
  572MOL0     H77172   2.402   3.720  -0.168 -0.1608  0.5807  0.3485
  572MOL0     H77173   2.309   3.706  -0.013 -0.7255  0.0216 -0.6195
  572MOL0     H77174   2.227   3.553  -0.266 -3.5575 -1.5323  2.3026
  572MOL0     H77175   2.350   3.479  -0.165 -0.4828 -1.3842  1.5682
  572MOL0     H77176   2.071   3.565  -0.080 -0.7054 -0.5456  0.0193
  572MOL0     H77177   2.173   3.463   0.013  1.9363 -0.1394 -0.2548
  572MOL0     H77178   2.078   3.372  -0.262  3.1774 -1.2094 -0.8202
  572MOL0     H77179   2.006   3.319  -0.109 -1.8465 -0.6258 -1.7579
  572MOL0     H77180   2.351   3.070  -0.118 -0.8529 -1.2176  3.9215
  572MOL0     H77181   2.301   2.823  -0.145 -0.2763 -0.4413 -0.3440
  572MOL0     H77182   1.891   2.486  -0.262 -0.8155 -1.9389  1.2205
  572MOL0     H77183   1.880   2.244  -0.261 -0.4837  2.0941  0.3399
  572MOL0     H77184   2.242   1.982  -0.221  1.1455 -1.4250 -3.2251
  572MOL0     H77185   2.109   1.880  -0.256  1.0002  0.4169  0.2782
  572MOL0     H77186   2.236   2.071  -0.445  0.2973 -0.6389  1.1074
  572MOL0     H77187   2.270   1.902  -0.433 -0.0188 -0.8383  2.1777
  572MOL0     H77188   1.996   2.028  -0.490  1.3090  1.3831 -1.2973
  572MOL0     H77189   2.091   1.974  -0.617 -2.1164 -1.8620 -0.0538
  572MOL0     H77190   1.990   1.782  -0.404 -2.1177 -0.5147  0.6327
  572MOL0     H77191   2.085   1.746  -0.555 -1.9122  0.9186 -0.7432
  572MOL0     H77192   1.861   1.690  -0.603 -0.6555  0.2185  3.0087
  572MOL0     H77193   1.921   1.830  -0.698  1.1519 -0.5522 -0.5090
  572MOL0     H77194   1.794   1.986  -0.536  1.5073  0.8843 -0.1975
  572MOL0     H77195   1.685   1.887  -0.616 -0.3607 -2.3410  0.6081
  572MOL0     H77196   1.788   1.747  -0.373 -0.6157 -0.6075 -0.1300
  572MOL0     H77197   1.617   1.774  -0.427  0.2282  0.3113 -2.0878
  572MOL0     H77198   1.649   1.855  -0.217  0.6360  2.0124  2.8195
  572MOL0     H77199   1.799   1.937  -0.256 -1.0819  1.2369 -0.9530
  572MOL0     H77200   2.305   2.206  -0.225 -0.0235  1.4607  1.5660
  572MOL0     H77201   2.321   2.455  -0.201 -1.5799  1.5913  0.7131
  572MOL0     H77202   1.883   2.936  -0.162 -0.1069 -1.6062  0.5557
  572MOL0     H77203   1.938   3.148  -0.178  1.0923  1.9191 -4.8332
  572MOL0     H77204   1.767   4.815   0.449 -0.0996  0.0063  0.9668
  572MOL0     H77205   1.814   5.063   0.458  1.3438  0.9902  1.4647
  572MOL0     H77206   1.878   5.418   0.373  0.9513  1.2252  2.9001
  572MOL0     H77207   1.872   5.651   0.410 -2.0528 -3.4046  1.9395
  572MOL0     H77208   1.960   6.011   0.391 -0.7840 -0.8297  2.4104
  572MOL0     H77209   1.903   5.857   0.460 -1.0633  1.5018  2.0341
  572MOL0     H77210   1.741   5.829   0.286  1.0297 -0.3896 -0.7513
  572MOL0     H77211   1.861   5.863   0.167 -1.8512 -0.6935 -0.7018
  572MOL0     H77212   1.693   6.047   0.127  0.1949 -0.3699  0.0486
  572MOL0     H77213   1.827   6.115   0.202 -0.3858  1.5448  1.9186
  572MOL0     H77214   1.728   6.151   0.414 -0.2143  1.0754 -1.3748
  572MOL0     H77215   1.599   6.168   0.298  0.2895 -0.1968  0.0126
  572MOL0     H77216   1.447   5.867   0.529 -1.3643  2.2782 -1.1749
  572MOL0     H77217   2.254   5.711   0.247 -0.6452 -0.1862 -3.2254
  572MOL0     H77218   2.403   5.510   0.229  0.2310 -0.4062 -0.2662
  572MOL0     H77219   2.342   5.362   0.276 -0.4454 -0.6472 -0.9638
  572MOL0     H77220   2.319   5.415   0.102 -0.9147 -1.7486  0.2156
  573MOL0     O77221  11.247   6.529   8.072 -0.5571 -0.3495  0.1869
  573MOL0     C77222  11.252   6.546   7.954 -0.0954 -0.1602  0.2921
  573MOL0     O77223  11.302   6.463   7.861 -0.8366  0.2451  0.0693
  573MOL0     C77224  11.362   6.351   7.906  0.2060 -0.9590 -0.9863
  573MOL0     C77225  11.477   6.361   7.997 -0.2705  0.0807 -0.5913
  573MOL0     C77226  11.547   6.244   8.023 -0.9388 -0.4741 -0.5297
  573MOL0     C77227  11.512   6.120   7.957 -0.6797 -0.1140  0.1971
  573MOL0     O77228  11.601   6.017   7.967 -0.5599 -0.1460 -0.0136
  573MOL0     C77229  11.591   5.950   8.101  0.5358 -0.2143  0.8715
  573MOL0     C77230  11.667   5.810   8.105 -0.2344  0.1578  0.2348
  573MOL0     C77231  11.803   5.802   8.033 -0.0824  0.0850 -0.0703
  573MOL0     C77232  11.895   5.897   8.103 -0.4223  1.3623  0.0140
  573MOL0     C77233  12.037   5.875   8.052 -0.4235 -0.0411  1.3358
  573MOL0     C77234  12.147   5.914   8.159  0.3185  0.2886  0.2564
  573MOL0     C77235  12.174   6.068   8.176 -0.0586 -0.0692  0.0712
  573MOL0     C77236  12.227   6.143   8.052 -0.0696 -0.1618 -0.5290
  573MOL0     N77237  12.129   6.196   7.961  0.3619  0.2418 -0.6294
  573MOL0     C77238  12.012   6.270   7.990 -0.1326 -0.0348 -0.4693
  573MOL0     C77239  11.952   6.308   7.869  0.6686  0.7612  0.0503
  573MOL0     C77240  11.819   6.366   7.833  0.6777 -0.7943  0.4720
  573MOL0     C77241  11.820   6.501   7.763  0.3666  0.0532  0.3066
  573MOL0     C77242  11.671   6.537   7.731 -0.2439  0.4076 -0.6057
  573MOL0     C77243  11.600   6.434   7.646  0.2991  0.9112  0.3393
  573MOL0     O77244  11.489   6.503   7.585 -0.4190 -0.4044  0.2065
  573MOL0     C77245  11.439   6.445   7.471  0.0967  0.0411  0.0531
  573MOL0     C77246  11.503   6.451   7.341  0.7987 -0.3377  0.2333
  573MOL0     C77247  11.457   6.385   7.230 -0.3030  0.0797 -0.6315
  573MOL0     C77248  11.335   6.322   7.236 -0.3981  0.0306 -0.0875
  573MOL0     C77249  11.274   6.258   7.111  0.5261  0.2507  0.0118
  573MOL0     O77250  11.152   6.200   7.133 -0.7355  0.1836  0.3499
  573MOL0     C77251  11.077   6.167   7.025 -0.1002 -0.3802  0.1613
  573MOL0     C77252  11.088   6.036   6.978  0.1386  0.1101 -0.3885
  573MOL0     C77253  11.010   6.002   6.872 -0.6868  0.2598 -0.6653
  573MOL0     C77254  10.906   6.081   6.828 -0.6200  1.0569 -0.0584
  573MOL0     O77255  10.817   6.024   6.740 -0.4265 -0.5875  0.7586
  573MOL0     C77256  10.751   5.902   6.781  0.6217 -0.4487 -0.2055
  573MOL0     C77257  10.690   5.841   6.646 -0.0043  1.0444  0.0326
  573MOL0     C77258  10.802   5.783   6.566  0.3887  0.5980 -0.1305
  573MOL0     C77259  10.752   5.689   6.451 -0.3604 -0.3093 -0.1182
  573MOL0     C77260  10.846   5.677   6.343 -1.0050 -0.0736 -0.2785
  573MOL0     C77261  10.823   5.577   6.238 -0.2743  0.0315  1.0229
  573MOL0     C77262  10.697   5.619   6.150  0.6977  1.0592  0.4693
  573MOL0     C77263  10.710   5.725   6.054 -0.5592  0.1388 -0.1771
  573MOL0    Cl77264  10.834   5.669   5.934 -0.2102 -0.4156 -0.4976
  573MOL0     C77265  10.896   6.216   6.874  0.2281 -0.1660 -0.1033
  573MOL0     C77266  10.980   6.257   6.971 -0.4802  0.0829 -0.6758
  573MOL0     O77267  11.324   6.266   7.005 -0.3974 -0.3430  0.5218
  573MOL0     C77268  11.271   6.305   7.362 -0.3633  0.7478 -0.4352
  573MOL0     C77269  11.315   6.372   7.478 -0.3260 -0.2080 -0.0581
  573MOL0     N77270  12.034   6.253   7.773  0.1613  0.5763  0.0689
  573MOL0     N77271  12.130   6.182   7.823  0.3641 -0.1066  0.0623
  573MOL0     C77272  11.398   6.119   7.866 -0.4142  1.1554 -0.1577
  573MOL0     C77273  11.322   6.230   7.853 -0.3250 -0.3934 -0.4162
  573MOL0     C77274  11.201   6.674   7.906 -0.5018 -0.7243 -0.5822
  573MOL0     C77275  11.266   6.741   7.802 -0.7065  0.3005  0.0831
  573MOL0     C77276  11.237   6.870   7.762  0.6121  0.5030  0.2249
  573MOL0     C77277  11.140   6.945   7.828  0.0640  0.1876 -0.2252
  573MOL0     O77278  11.114   7.073   7.804  0.8512 -0.4403  0.2435
  573MOL0     C77279  11.199   7.149   7.717  0.0885 -0.0218  0.8241
  573MOL0     C77280  11.134   7.292   7.709  0.4273  0.1241  0.4413
  573MOL0     C77281  11.207   7.385   7.619  0.4343  0.3780 -0.0899
  573MOL0     C77282  11.355   7.386   7.629 -0.2135 -0.4720 -0.1851
  573MOL0     C77283  11.399   7.506   7.550  0.1211  1.3894 -0.6787
  573MOL0     C77284  11.430   7.593   7.476  0.8832  0.2081  0.8453
  573MOL0     C77285  11.081   6.881   7.937  0.9428 -0.1797  0.0950
  573MOL0     C77286  11.102   6.747   7.971 -0.8227  0.2045  0.0430
  573MOL0     C77287  10.997   6.676   8.057  0.6513 -0.5485  0.6108
  573MOL0     H77288  11.510   6.463   8.016  1.3345 -0.4686 -0.2660
  573MOL0     H77289  11.629   6.245   8.095 -0.9969  1.0951 -0.4657
  573MOL0     H77290  11.646   6.005   8.178  0.3639  2.2628 -0.6575
  573MOL0     H77291  11.488   5.930   8.132  0.5049  0.1577  1.0045
  573MOL0     H77292  11.603   5.737   8.054 -1.7952  2.2071 -0.9470
  573MOL0     H77293  11.671   5.776   8.208  0.2408 -0.3665  0.0450
  573MOL0     H77294  11.788   5.832   7.929  0.8476 -0.9092 -0.5208
  573MOL0     H77295  11.834   5.697   8.035  1.4730  0.4598 -1.8029
  573MOL0     H77296  11.849   5.996   8.091  0.1872  1.3652 -3.1394
  573MOL0     H77297  11.898   5.888   8.212 -0.2678  2.9067  0.1694
  573MOL0     H77298  12.052   5.768   8.036  0.8892  0.3634 -0.4323
  573MOL0     H77299  12.048   5.906   7.948  1.1329 -2.1668  0.8051
  573MOL0     H77300  12.111   5.873   8.254 -1.1317  2.4246  0.6840
  573MOL0     H77301  12.239   5.857   8.142 -1.1332 -1.7486 -1.3571
  573MOL0     H77302  12.246   6.081   8.258 -0.4883  0.2739  0.3959
  573MOL0     H77303  12.079   6.107   8.213 -0.7243 -1.8374  0.3042
  573MOL0     H77304  12.292   6.220   8.094 -0.4597 -1.4512  2.6757
  573MOL0     H77305  12.281   6.075   7.986  0.5999  1.8952 -2.2043
  573MOL0     H77306  11.967   6.286   8.087  0.7369 -2.2788  0.3648
  573MOL0     H77307  11.769   6.285   7.779 -0.1411 -2.1385  3.0833
  573MOL0     H77308  11.775   6.389   7.930  0.1031  1.4777 -0.2704
  573MOL0     H77309  11.847   6.573   7.841 -1.7702 -1.0282  2.1887
  573MOL0     H77310  11.881   6.495   7.673  0.4024 -1.3415  0.4028
  573MOL0     H77311  11.674   6.622   7.661 -2.5148 -1.0790 -2.6477
  573MOL0     H77312  11.610   6.557   7.819  0.6674 -0.1462  0.1643
  573MOL0     H77313  11.571   6.341   7.697  0.2475  0.6884 -0.0948
  573MOL0     H77314  11.676   6.408   7.572  1.3238 -0.0069  1.6701
  573MOL0     H77315  11.585   6.517   7.316 -1.2754  1.6760 -1.7933
  573MOL0     H77316  11.504   6.394   7.133 -0.2452 -2.4242 -0.8802
  573MOL0     H77317  11.159   5.969   7.026 -3.1019 -3.1049  0.3587
  573MOL0     H77318  11.029   5.910   6.818 -1.2894  0.2947 -0.9497
  573MOL0     H77319  10.810   5.829   6.837 -3.0036 -2.2664  1.5654
  573MOL0     H77320  10.679   5.931   6.857  3.4228  0.8449  2.1173
  573MOL0     H77321  10.625   5.754   6.654  0.5709  0.4277 -1.5724
  573MOL0     H77322  10.637   5.917   6.588 -0.1200  0.4869 -0.6067
  573MOL0     H77323  10.843   5.867   6.509 -3.2068  1.6699 -1.4618
  573MOL0     H77324  10.865   5.729   6.636 -1.4612  0.1924  1.3034
  573MOL0     H77325  10.663   5.740   6.415  0.1567 -0.0999 -1.1255
  573MOL0     H77326  10.729   5.588   6.487 -0.2411 -0.0654  0.6853
  573MOL0     H77327  10.947   5.673   6.385 -0.0383  2.2073 -2.1272
  573MOL0     H77328  10.853   5.775   6.294  0.1864  0.1208  0.2303
  573MOL0     H77329  10.919   5.565   6.187  0.2714 -0.8577  2.2096
  573MOL0     H77330  10.807   5.484   6.294  0.5983 -0.2317  0.8427
  573MOL0     H77331  10.621   5.640   6.227 -0.9783 -2.1052 -0.1509
  573MOL0     H77332  10.667   5.527   6.099  1.2604  1.5609 -0.7941
  573MOL0     H77333  10.616   5.752   6.006 -1.4803 -2.2180  0.1875
  573MOL0     H77334  10.758   5.808   6.106 -2.6229  0.6765  0.9442
  573MOL0     H77335  10.817   6.281   6.837  0.3678  0.8678  1.3275
  573MOL0     H77336  10.978   6.358   7.010 -4.6479 -1.5190  4.4442
  573MOL0     H77337  11.177   6.250   7.363 -1.5866  2.6680 -2.1591
  573MOL0     H77338  11.255   6.381   7.567 -1.9517  0.0523 -1.1466
  573MOL0     H77339  11.367   6.018   7.841 -1.0447  1.3122 -0.0253
  573MOL0     H77340  11.247   6.231   7.775 -1.8415  1.9619  0.9426
  573MOL0     H77341  11.344   6.681   7.757 -0.8223 -0.7867  1.2825
  573MOL0     H77342  11.286   6.907   7.672  1.7875  0.3535  0.7971
  573MOL0     H77343  11.194   7.109   7.616 -1.2329  1.0863  0.4230
  573MOL0     H77344  11.305   7.143   7.742  0.9593  1.2438 -2.2222
  573MOL0     H77345  11.141   7.323   7.813  0.8891 -2.9400  1.4114
  573MOL0     H77346  11.035   7.270   7.667  1.6127  1.3863 -3.3895
  573MOL0     H77347  11.178   7.483   7.658 -2.5349 -1.0082  1.5207
  573MOL0     H77348  11.178   7.365   7.516 -1.6877  1.3046  0.2682
  573MOL0     H77349  11.392   7.387   7.732  3.2454  1.3407 -1.2879
  573MOL0     H77350  11.394   7.292   7.588 -3.0607 -2.2797  0.9907
  573MOL0     H77351  11.453   7.669   7.404 -0.1583 -1.0315 -0.8816
  573MOL0     H77352  11.010   6.941   7.993  0.8269 -2.4797  2.6125
  573MOL0     H77353  10.961   6.749   8.131 -0.3224  0.7659 -1.0851
  573MOL0     H77354  10.915   6.644   7.992  0.9953  2.2516 -1.3641
  573MOL0     H77355  11.024   6.586   8.114  2.2949 -0.8378 -0.5667
  574MOL0     O77356  11.383   0.481   6.750  0.5059 -1.2330 -0.6479
  574MOL0     C77357  11.264   0.463   6.766  0.9586  0.0651  0.2725
  574MOL0     O77358  11.177   0.552   6.830  0.0774  0.3759 -0.2755
  574MOL0     C77359  11.232   0.670   6.859  0.2922 -0.3508  0.7890
  574MOL0     C77360  11.214   0.779   6.774  0.9388  0.7059  0.2716
  574MOL0     C77361  11.265   0.907   6.807  0.4479  0.2488 -0.2005
  574MOL0     C77362  11.333   0.926   6.932  0.3440  1.1775 -0.6919
  574MOL0     O77363  11.364   1.041   6.993 -0.0222  0.0385 -0.6514
  574MOL0     C77364  11.432   1.134   6.901 -0.0898  0.1173  0.3089
  574MOL0     C77365  11.537   1.218   6.969  0.0493  0.3240 -0.0568
  574MOL0     C77366  11.474   1.308   7.078 -0.0033  0.4683  0.3809
  574MOL0     C77367  11.474   1.455   7.048  0.1623 -0.5080  0.1361
  574MOL0     C77368  11.522   1.532   7.175 -0.7617  1.0873  0.0974
  574MOL0     C77369  11.502   1.684   7.151 -0.3796  0.9898  0.4585
  574MOL0     C77370  11.507   1.764   7.281  0.6480  0.9148  0.2665
  574MOL0     C77371  11.381   1.744   7.363  0.5116  0.8885  0.2217
  574MOL0     N77372  11.377   1.850   7.468  0.2522 -0.6517  0.2755
  574MOL0     C77373  11.456   1.863   7.580 -0.3870  0.4949  0.3737
  574MOL0     C77374  11.391   1.939   7.671  0.7409  0.4876  0.4108
  574MOL0     C77375  11.437   1.978   7.807  0.1628 -0.0871  0.7152
  574MOL0     C77376  11.523   1.880   7.879  0.6827  0.1331 -0.1080
  574MOL0     C77377  11.592   1.958   7.992  0.1760 -0.2897 -0.9518
  574MOL0     C77378  11.644   1.847   8.092 -0.7863  0.0917  0.3433
  574MOL0     O77379  11.746   1.893   8.183 -0.5337 -0.1022  0.1396
  574MOL0     C77380  11.862   1.960   8.147  0.0433  0.7244 -0.3193
  574MOL0     C77381  11.930   1.946   8.023  0.6322  0.7692  0.1819
  574MOL0     C77382  12.067   1.995   8.011  0.1176  0.1519 -0.1121
  574MOL0     C77383  12.125   2.059   8.125  0.2945  0.0412 -0.3798
  574MOL0     C77384  12.265   2.089   8.112  0.6731 -0.1600 -0.1184
  574MOL0     O77385  12.331   2.051   7.997  0.2169 -0.2589  0.5104
  574MOL0     C77386  12.469   2.054   7.986 -0.1549  0.5476 -0.6221
  574MOL0     C77387  12.558   2.056   8.090  0.6059  0.1087  0.4278
  574MOL0     C77388  12.693   2.061   8.065 -0.7016 -0.3287 -0.2329
  574MOL0     C77389  12.750   2.089   7.939  0.0252  0.3070  0.4900
  574MOL0     O77390  12.888   2.114   7.932  0.4508  0.0862  0.1041
  574MOL0     C77391  12.937   2.178   7.817  0.2246 -0.3531  1.3859
  574MOL0     C77392  13.086   2.183   7.815  0.0630 -0.8579 -0.3489
  574MOL0     C77393  13.132   2.266   7.940 -0.2917  0.8666 -0.2747
  574MOL0     C77394  13.286   2.290   7.954 -0.2391  0.5529 -0.0504
  574MOL0     C77395  13.313   2.402   8.050  0.8282 -0.0778  0.6415
  574MOL0     C77396  13.453   2.424   8.096 -0.6048  0.6020  0.3873
  574MOL0     C77397  13.462   2.551   8.176 -0.1766  0.5018 -1.1162
  574MOL0     C77398  13.472   2.680   8.086  0.7950 -0.1075 -0.7682
  574MOL0    Cl77399  13.511   2.812   8.199 -0.0813  0.1710 -0.1035
  574MOL0     C77400  12.661   2.078   7.829  0.6370  0.5725  0.3641
  574MOL0     C77401  12.525   2.060   7.858  0.1421 -0.1989  0.7043
  574MOL0     O77402  12.310   2.159   8.207 -0.0287  0.0030  0.2378
  574MOL0     C77403  12.053   2.087   8.241  0.3388  0.3044  0.1712
  574MOL0     C77404  11.927   2.032   8.255  0.3773  0.3459  0.3463
  574MOL0     N77405  11.276   1.976   7.613  0.2361  0.4445 -0.4225
  574MOL0     N77406  11.264   1.926   7.494  0.1227  0.2467 -1.6082
  574MOL0     C77407  11.350   0.818   7.012 -0.1004 -0.0092  1.1963
  574MOL0     C77408  11.309   0.689   6.974  0.1281 -0.2280  0.6503
  574MOL0     C77409  11.203   0.330   6.728 -0.5819  0.6785  0.6442
  574MOL0     C77410  11.060   0.324   6.718  0.4426  0.5478 -0.9944
  574MOL0     C77411  11.007   0.199   6.686  1.1795  0.9745  0.4490
  574MOL0     C77412  11.082   0.080   6.666  0.6928  0.5775 -0.3975
  574MOL0     O77413  11.014  -0.033   6.638  0.1549 -0.2387 -0.1472
  574MOL0     C77414  11.071  -0.138   6.551 -0.4607 -0.0157  0.7206
  574MOL0     C77415  10.994  -0.261   6.529  1.0624 -0.1648 -0.3482
  574MOL0     C77416  10.841  -0.241   6.484  0.6275  0.4078  0.4458
  574MOL0     C77417  10.793  -0.344   6.378  0.2356  0.2087  0.8563
  574MOL0     C77418  10.661  -0.319   6.316 -1.3596 -0.6720  0.1072
  574MOL0     C77419  10.557  -0.292   6.263 -1.1080  0.2326  0.3368
  574MOL0     C77420  11.220   0.095   6.679 -0.1915 -0.0202  0.2070
  574MOL0     C77421  11.285   0.218   6.704  0.7406 -0.7130 -0.0627
  574MOL0     C77422  11.440   0.212   6.694  1.2441  0.0085  0.2543
  574MOL0     H77423  11.154   0.780   6.683  1.2994  0.3259  0.0254
  574MOL0     H77424  11.248   0.990   6.739 -2.2972 -2.3667 -3.0252
  574MOL0     H77425  11.478   1.072   6.823 -0.7708 -2.0907  1.5724
  574MOL0     H77426  11.357   1.198   6.853 -0.1770  2.3312  3.1660
  574MOL0     H77427  11.586   1.285   6.898  1.5263 -0.8526 -0.1933
  574MOL0     H77428  11.618   1.156   7.007 -0.9918 -0.3437  1.1527
  574MOL0     H77429  11.507   1.275   7.177 -2.7843  2.7503  2.2264
  574MOL0     H77430  11.368   1.281   7.080  0.0794  0.0161 -0.7966
  574MOL0     H77431  11.519   1.487   6.953 -0.4362  0.0040  0.0214
  574MOL0     H77432  11.368   1.480   7.039 -0.1521 -1.2928  1.4331
  574MOL0     H77433  11.463   1.498   7.261  1.4169 -1.3553  0.7351
  574MOL0     H77434  11.624   1.504   7.199 -0.9102 -1.0179 -1.5294
  574MOL0     H77435  11.572   1.712   7.071  0.0493 -2.3154 -0.4558
  574MOL0     H77436  11.409   1.697   7.096  1.6919  1.7107 -3.2314
  574MOL0     H77437  11.511   1.872   7.264 -2.8928  0.9687 -1.0053
  574MOL0     H77438  11.586   1.726   7.346 -2.8860 -3.5125  2.5403
  574MOL0     H77439  11.289   1.748   7.305  0.3210  0.8886  0.5212
  574MOL0     H77440  11.375   1.647   7.413 -3.8125  0.2428 -1.1884
  574MOL0     H77441  11.559   1.830   7.585 -1.0130 -1.7982 -0.5052
  574MOL0     H77442  11.468   2.081   7.786 -2.5556  0.3756 -1.6418
  574MOL0     H77443  11.353   1.989   7.876 -1.8813  1.6840 -1.8451
  574MOL0     H77444  11.474   1.797   7.930  1.2137 -0.2921 -0.2810
  574MOL0     H77445  11.609   1.852   7.816 -0.0283  0.7041 -1.3838
  574MOL0     H77446  11.530   2.032   8.044 -0.7727 -1.9934  0.4512
  574MOL0     H77447  11.678   2.017   7.961 -0.1113 -0.4233 -2.0539
  574MOL0     H77448  11.689   1.768   8.032  0.9809  1.4090 -0.1427
  574MOL0     H77449  11.566   1.801   8.154 -1.4187 -0.0645 -0.5400
  574MOL0     H77450  11.873   1.890   7.949 -0.9528  0.5226  1.5265
  574MOL0     H77451  12.135   1.963   7.933  2.0362  0.7051  1.2595
  574MOL0     H77452  12.512   2.037   8.187 -1.2606 -3.6239 -0.9613
  574MOL0     H77453  12.765   2.043   8.144  1.1739  0.7695 -1.6107
  574MOL0     H77454  12.910   2.133   7.721  0.5587  1.9074  0.1617
  574MOL0     H77455  12.895   2.279   7.813  2.9042  1.0172  3.8310
  574MOL0     H77456  13.110   2.078   7.835  0.4180 -0.4312  1.7596
  574MOL0     H77457  13.118   2.228   7.721  1.8271 -2.1395 -0.3994
  574MOL0     H77458  13.087   2.365   7.922 -2.3716 -0.4046 -2.7262
  574MOL0     H77459  13.102   2.217   8.033 -0.2449  1.0667 -0.1538
  574MOL0     H77460  13.304   2.329   7.853 -1.6962  0.9938 -0.1743
  574MOL0     H77461  13.348   2.202   7.969  2.7921  2.6789  0.7588
  574MOL0     H77462  13.244   2.395   8.135 -3.4182  3.0026 -2.1073
  574MOL0     H77463  13.288   2.490   7.989 -1.6182 -1.1406 -0.0184
  574MOL0     H77464  13.478   2.339   8.160  0.0186  1.4071  1.2301
  574MOL0     H77465  13.514   2.433   8.005 -0.0138  0.3098  0.7514
  574MOL0     H77466  13.551   2.537   8.238 -1.3746 -1.4025  0.3114
  574MOL0     H77467  13.375   2.555   8.243  2.2508  0.5798  2.3353
  574MOL0     H77468  13.552   2.670   8.012  0.5450 -0.6408 -0.9697
  574MOL0     H77469  13.383   2.706   8.028  0.3287 -0.2154 -0.1137
  574MOL0     H77470  12.691   2.068   7.726 -1.6363  3.1283 -0.6584
  574MOL0     H77471  12.467   2.055   7.766  3.7241  1.5100 -1.8646
  574MOL0     H77472  12.093   2.150   8.319  0.9376  0.7785 -0.5109
  574MOL0     H77473  11.867   2.029   8.345  2.8667  1.7660  2.1580
  574MOL0     H77474  11.379   0.822   7.116 -0.2866 -0.6787  1.2829
  574MOL0     H77475  11.309   0.602   7.040 -0.1610 -1.1518 -0.5319
  574MOL0     H77476  10.987   0.403   6.734 -0.2799 -0.2629 -0.2665
  574MOL0     H77477  10.899   0.191   6.699  1.0167 -0.4748 -1.3351
  574MOL0     H77478  11.159  -0.174   6.605  0.7811  1.1804 -0.4287
  574MOL0     H77479  11.115  -0.094   6.461 -4.2719  2.2842 -0.2472
  574MOL0     H77480  10.995  -0.317   6.623 -1.7309 -0.4323 -0.3866
  574MOL0     H77481  11.048  -0.321   6.455 -2.1130 -1.9871 -1.3762
  574MOL0     H77482  10.836  -0.150   6.423 -0.1320  1.3786  1.8955
  574MOL0     H77483  10.772  -0.238   6.569 -1.1520 -0.7196 -0.8900
  574MOL0     H77484  10.869  -0.356   6.300  0.7540 -0.8267  1.4976
  574MOL0     H77485  10.801  -0.446   6.417 -0.2533 -0.3766 -0.5253
  574MOL0     H77486  10.459  -0.288   6.218 -0.8613 -2.5340 -0.6040
  574MOL0     H77487  11.280   0.006   6.666 -1.6745 -0.8703 -1.2423
  574MOL0     H77488  11.480   0.302   6.646 -2.7153  1.6886 -0.3482
  574MOL0     H77489  11.472   0.205   6.798  0.8252 -0.9040  0.3333
  574MOL0     H77490  11.482   0.125   6.643  1.8725  0.7622 -0.5352
  575MOL0     O77491   6.654  10.739   1.883 -0.0797 -0.7750 -0.0959
  575MOL0     C77492   6.605  10.789   1.985  0.1197  0.5101 -0.2390
  575MOL0     O77493   6.675  10.843   2.082  0.0683 -0.1341 -0.6354
  575MOL0     C77494   6.813  10.811   2.094  0.1767  1.3379 -0.0509
  575MOL0     C77495   6.913  10.872   2.014  0.3087  0.6846 -0.0283
  575MOL0     C77496   7.041  10.838   2.034 -0.2502  0.2126  0.1337
  575MOL0     C77497   7.079  10.751   2.136 -0.8931 -0.2990  0.6908
  575MOL0     O77498   7.213  10.723   2.157 -0.3268 -0.1035 -0.7763
  575MOL0     C77499   7.293  10.698   2.048 -0.7912  0.9317  0.1942
  575MOL0     C77500   7.395  10.593   2.067 -0.0734  0.0843 -0.6159
  575MOL0     C77501   7.522  10.633   2.152 -0.3160 -0.5391  0.1979
  575MOL0     C77502   7.603  10.506   2.189  0.1753  0.2116 -1.8145
  575MOL0     C77503   7.725  10.519   2.272  0.9018  0.0110 -0.1993
  575MOL0     C77504   7.824  10.629   2.249  0.7783 -0.6191  0.5732
  575MOL0     C77505   7.913  10.626   2.122 -0.2009 -0.3350 -0.3865
  575MOL0     C77506   7.959  10.488   2.089  0.6470  0.4086 -0.0319
  575MOL0     N77507   8.037  10.482   1.970 -0.2535 -0.2370  0.2813
  575MOL0     C77508   8.172  10.477   1.977  0.8609  0.6414 -0.0769
  575MOL0     C77509   8.219  10.502   1.851 -0.2150  0.2055 -0.1539
  575MOL0     C77510   8.360  10.526   1.802 -0.5934 -0.1460  0.6062
  575MOL0     C77511   8.436  10.411   1.747 -0.7245 -0.5646 -0.0598
  575MOL0     C77512   8.559  10.472   1.675 -0.9494 -0.1248  0.2070
  575MOL0     C77513   8.601  10.372   1.564  1.3314  0.2751 -0.0719
  575MOL0     O77514   8.527  10.424   1.446  0.1053 -0.1185 -0.7568
  575MOL0     C77515   8.580  10.385   1.326  0.2860 -0.2669  0.2771
  575MOL0     C77516   8.666  10.277   1.308  0.7063 -0.7743  0.2459
  575MOL0     C77517   8.713  10.248   1.181  0.6319 -0.1222 -0.2042
  575MOL0     C77518   8.676  10.328   1.066 -0.4210 -0.4521  0.2651
  575MOL0     C77519   8.741  10.300   0.940 -1.1590 -0.6977 -1.0161
  575MOL0     O77520   8.826  10.192   0.934  0.3458  0.0057 -0.3335
  575MOL0     C77521   8.889  10.173   0.814  0.3757  0.2877  0.0117
  575MOL0     C77522   9.003  10.248   0.784 -0.8288  0.0861 -0.7867
  575MOL0     C77523   9.077  10.228   0.668 -0.7139 -0.1866 -0.2440
  575MOL0     C77524   9.036  10.127   0.575 -0.4693  0.0966  0.2583
  575MOL0     O77525   9.101  10.091   0.460 -1.2241  0.3579 -0.3663
  575MOL0     C77526   9.100  10.190   0.362 -0.0186 -0.4737  0.8862
  575MOL0     C77527   9.091  10.106   0.234 -0.4215 -0.7627 -0.3141
  575MOL0     C77528   9.095  10.177   0.108 -0.1077 -0.2282  0.3501
  575MOL0     C77529   8.988  10.133   0.008  0.3653  0.3579 -0.0782
  575MOL0     C77530   8.984   9.978  -0.028 -0.4212 -0.4715  0.0337
  575MOL0     C77531   9.089   9.942  -0.131 -0.0935 -0.3956 -0.3954
  575MOL0     C77532   9.204   9.865  -0.065 -0.0893  0.5647  0.6576
  575MOL0     C77533   9.331   9.874  -0.151 -0.2536 -0.1288  0.0908
  575MOL0    Cl77534   9.383  10.039  -0.208  0.0873  0.5689  0.3666
  575MOL0     C77535   8.918  10.061   0.603  1.3521 -0.0947 -0.1410
  575MOL0     C77536   8.841  10.079   0.723  0.1348  0.8130 -0.3229
  575MOL0     O77537   8.691  10.364   0.843 -0.4506  0.5372 -0.4897
  575MOL0     C77538   8.598  10.436   1.085 -0.0307 -0.8425 -0.5280
  575MOL0     C77539   8.537  10.445   1.211 -0.9151 -0.4714 -0.0372
  575MOL0     N77540   8.109  10.513   1.764 -0.1906  0.2075  0.2949
  575MOL0     N77541   7.999  10.508   1.838 -0.2432  0.4823 -0.4308
  575MOL0     C77542   6.990  10.689   2.217  0.2437 -0.5469 -0.0818
  575MOL0     C77543   6.850  10.719   2.195 -0.1242 -0.0148  0.8632
  575MOL0     C77544   6.458  10.793   1.996 -0.5219  0.2112  0.3776
  575MOL0     C77545   6.417  10.782   2.127  0.1224 -0.8802 -0.2408
  575MOL0     C77546   6.282  10.778   2.169 -0.1382 -0.4472 -0.0704
  575MOL0     C77547   6.184  10.779   2.071  0.8073 -0.0183 -0.4190
  575MOL0     O77548   6.061  10.784   2.126 -0.6070 -0.0141 -0.0703
  575MOL0     C77549   5.957  10.871   2.074 -0.1653 -0.1056  0.1880
  575MOL0     C77550   6.003  11.007   2.014  0.2223 -0.2373 -0.1333
  575MOL0     C77551   5.877  11.103   1.974  0.5302 -0.7891  0.3784
  575MOL0     C77552   5.912  11.176   1.840 -0.9552 -0.0556 -0.5835
  575MOL0     C77553   5.985  11.304   1.886  0.9591 -0.3948 -0.1432
  575MOL0     C77554   6.043  11.406   1.918  0.2990  0.4648  0.6912
  575MOL0     C77555   6.220  10.791   1.937 -0.1554  0.4580 -0.2490
  575MOL0     C77556   6.355  10.804   1.900  0.4543 -0.3148  0.3717
  575MOL0     C77557   6.384  10.845   1.757 -0.2575 -0.0525 -0.0339
  575MOL0     H77558   6.887  10.927   1.924 -0.6413 -0.7837 -0.6908
  575MOL0     H77559   7.120  10.884   1.976  1.5637 -0.8107  1.6766
  575MOL0     H77560   7.229  10.675   1.962 -1.1943 -2.8953  1.3415
  575MOL0     H77561   7.353  10.780   2.009 -0.2989 -0.5006 -2.3142
  575MOL0     H77562   7.425  10.560   1.967  1.5471 -1.1265  0.2199
  575MOL0     H77563   7.352  10.500   2.104  0.0903  0.0472 -0.5178
  575MOL0     H77564   7.492  10.687   2.242 -3.4452 -2.6311  0.5784
  575MOL0     H77565   7.577  10.711   2.100  0.1142  0.0705  1.5263
  575MOL0     H77566   7.542  10.423   2.228 -0.4830  0.8832 -1.3920
  575MOL0     H77567   7.648  10.466   2.098  0.4082  1.5028 -2.2794
  575MOL0     H77568   7.694  10.528   2.377 -1.0858  1.1318 -0.8428
  575MOL0     H77569   7.788  10.430   2.266  2.0884  0.8767 -1.1454
  575MOL0     H77570   7.783  10.730   2.246  1.2091 -0.4035 -3.7954
  575MOL0     H77571   7.892  10.615   2.334  0.2683 -3.9223  0.5856
  575MOL0     H77572   8.006  10.676   2.149 -1.7421  3.1412 -0.9677
  575MOL0     H77573   7.873  10.680   2.036  1.1762  1.0230 -0.2048
  575MOL0     H77574   8.023  10.449   2.169  0.6623 -3.3313 -1.6920
  575MOL0     H77575   7.876  10.417   2.084  2.0231 -1.1673 -4.1739
  575MOL0     H77576   8.226  10.468   2.071  0.3365 -1.3245  0.0867
  575MOL0     H77577   8.357  10.606   1.727  2.7608 -1.5509 -1.2469
  575MOL0     H77578   8.414  10.558   1.892 -0.5411 -3.2938  1.8137
  575MOL0     H77579   8.461  10.341   1.827  4.5302  1.5422  0.5361
  575MOL0     H77580   8.377  10.352   1.677  0.0186 -1.3411 -0.0524
  575MOL0     H77581   8.640  10.474   1.748 -3.0722  0.3229  2.6814
  575MOL0     H77582   8.542  10.570   1.630 -3.5209  1.3181  3.9054
  575MOL0     H77583   8.569  10.270   1.587 -0.2331  1.5231  4.2345
  575MOL0     H77584   8.710  10.369   1.551  1.2084 -1.4571 -1.0158
  575MOL0     H77585   8.698  10.211   1.388  2.6125  0.5546  0.6612
  575MOL0     H77586   8.773  10.158   1.179  2.4286  0.8676  2.4652
  575MOL0     H77587   9.027  10.329   0.853 -2.2980  1.5408 -1.9319
  575MOL0     H77588   9.172  10.280   0.653 -0.8995 -0.2098 -1.6419
  575MOL0     H77589   9.020  10.263   0.365  0.7358  0.4251 -0.1696
  575MOL0     H77590   9.198  10.238   0.368  0.2857 -1.0214  0.4788
  575MOL0     H77591   9.176  10.038   0.232  1.8766  1.9203 -0.1692
  575MOL0     H77592   9.005  10.040   0.249 -1.0389 -0.9577 -3.8297
  575MOL0     H77593   9.097  10.285   0.125  0.7785 -0.0858 -0.5625
  575MOL0     H77594   9.184  10.161   0.046 -2.3490 -5.5895 -2.1658
  575MOL0     H77595   8.986  10.200  -0.078  0.2270  0.9089  0.3543
  575MOL0     H77596   8.891  10.148   0.056  1.2617 -0.5025  2.1487
  575MOL0     H77597   8.887   9.951  -0.070 -0.5884  0.3591 -0.1213
  575MOL0     H77598   9.006   9.921   0.063 -0.9845  2.9211  2.4632
  575MOL0     H77599   9.044   9.878  -0.207  1.2286  0.0420 -1.5987
  575MOL0     H77600   9.124  10.035  -0.176 -2.7181 -0.3172 -2.4685
  575MOL0     H77601   9.176   9.760  -0.065 -0.2954  0.5754 -1.9388
  575MOL0     H77602   9.225   9.902   0.036 -1.2866  0.5077  0.9428
  575MOL0     H77603   9.413   9.828  -0.095  0.7417  0.3270 -0.9416
  575MOL0     H77604   9.304   9.821  -0.242 -1.3004  0.7614 -0.1327
  575MOL0     H77605   8.904   9.971   0.545 -0.3352  0.1506 -0.1448
  575MOL0     H77606   8.757  10.014   0.747  2.0504 -1.1582  1.4637
  575MOL0     H77607   8.580  10.507   1.005  1.7870 -0.3123 -0.5250
  575MOL0     H77608   8.463  10.522   1.230  0.4979  1.4252 -1.7484
  575MOL0     H77609   7.019  10.611   2.285 -2.1178 -1.1180  0.3620
  575MOL0     H77610   6.764  10.682   2.251 -0.6736 -3.0001 -1.6772
  575MOL0     H77611   6.481  10.771   2.213 -0.9121 -0.9227  0.5355
  575MOL0     H77612   6.263  10.768   2.275  2.3295 -0.4400  0.4173
  575MOL0     H77613   5.891  10.887   2.160  2.7851  3.8375  2.0573
  575MOL0     H77614   5.905  10.814   1.997  1.8490  1.2394 -2.3143
  575MOL0     H77615   6.062  10.988   1.923  0.4310  0.6139 -0.1789
  575MOL0     H77616   6.065  11.058   2.088  1.0180 -3.0738  1.3310
  575MOL0     H77617   5.862  11.176   2.054  0.7700 -1.9837  1.5528
  575MOL0     H77618   5.782  11.050   1.962 -0.3827  1.0507 -0.9912
  575MOL0     H77619   5.980  11.115   1.779  1.2838  3.2507 -1.7056
  575MOL0     H77620   5.826  11.199   1.776 -2.1722 -4.6148 -0.9106
  575MOL0     H77621   6.090  11.500   1.942  0.9563  0.6096 -0.9889
  575MOL0     H77622   6.139  10.812   1.869  0.2926 -1.3607 -1.4489
  575MOL0     H77623   6.291  10.838   1.700  0.0019 -1.2806 -0.3494
  575MOL0     H77624   6.414  10.949   1.744 -1.5181  0.3962  0.4868
  575MOL0     H77625   6.458  10.778   1.712 -1.1669  0.8372 -3.1151
  576MOL0     O77626   0.022   0.965   1.265  0.3670  0.4116  0.7309
  576MOL0     C77627  -0.063   0.960   1.356 -0.1820 -0.3390 -0.7490
  576MOL0     O77628  -0.172   0.876   1.359  0.7612  0.4218  0.0321
  576MOL0     C77629  -0.179   0.804   1.244 -0.9755  0.9434 -0.3903
  576MOL0     C77630  -0.110   0.692   1.216 -0.0508  0.8666 -0.2863
  576MOL0     C77631  -0.107   0.622   1.090 -0.1129 -0.0982  0.3788
  576MOL0     C77632  -0.203   0.669   0.998 -0.0789  0.0181  0.8438
  576MOL0     O77633  -0.205   0.603   0.879 -0.5096  0.1606  0.3898
  576MOL0     C77634  -0.101   0.642   0.790 -0.1578  0.5875  0.4538
  576MOL0     C77635  -0.164   0.679   0.651  0.9505 -0.3412 -0.0947
  576MOL0     C77636  -0.069   0.740   0.545 -0.8501  0.7385  0.6087
  576MOL0     C77637  -0.143   0.837   0.453 -0.1011  0.1979  0.2671
  576MOL0     C77638  -0.237   0.753   0.366  0.8257 -0.6957  0.2120
  576MOL0     C77639  -0.319   0.836   0.264 -0.1495  0.2910  0.7919
  576MOL0     C77640  -0.424   0.742   0.208  0.0331  0.1081  0.4619
  576MOL0     C77641  -0.545   0.734   0.294  0.3231 -0.7035 -0.3284
  576MOL0     N77642  -0.642   0.837   0.260 -0.1401 -1.0712  1.0950
  576MOL0     C77643  -0.671   0.949   0.344  0.8923 -0.4615 -0.5647
  576MOL0     C77644  -0.774   1.010   0.282  0.1629 -0.6847  1.1719
  576MOL0     C77645  -0.856   1.138   0.305 -0.1990 -0.3629 -0.3677
  576MOL0     C77646  -0.805   1.254   0.216  0.3765 -0.0782  0.3066
  576MOL0     C77647  -0.656   1.299   0.238 -0.1051 -0.3565 -0.5811
  576MOL0     C77648  -0.559   1.233   0.131 -0.0704  0.2196 -0.3495
  576MOL0     O77649  -0.422   1.207   0.187  0.1546  0.0993  0.4150
  576MOL0     C77650  -0.328   1.167   0.098 -0.2766  1.2337 -0.5107
  576MOL0     C77651  -0.205   1.147   0.151  0.2721  0.8238 -0.2280
  576MOL0     C77652  -0.096   1.110   0.076  0.0314 -0.7793  0.9644
  576MOL0     C77653  -0.113   1.110  -0.062  0.3825  0.4202  0.0754
  576MOL0     C77654   0.013   1.096  -0.145 -0.4804  0.0102  0.3348
  576MOL0     O77655   0.125   1.042  -0.091  0.8821 -0.4483 -0.4512
  576MOL0     C77656   0.220   1.007  -0.179 -0.1233  0.0085 -0.1405
  576MOL0     C77657   0.194   0.913  -0.279  0.1773 -0.0459 -0.8543
  576MOL0     C77658   0.302   0.862  -0.362 -0.2573 -0.1965 -0.2438
  576MOL0     C77659   0.435   0.891  -0.328 -0.2988  0.7905 -0.1199
  576MOL0     O77660   0.540   0.839  -0.405 -0.6097  0.1063 -0.4319
  576MOL0     C77661   0.657   0.922  -0.405 -0.1230 -0.6025  0.4882
  576MOL0     C77662   0.759   0.853  -0.505  0.2844  0.3380  0.2800
  576MOL0     C77663   0.873   0.943  -0.536 -1.3167  0.0028  0.0499
  576MOL0     C77664   0.985   0.859  -0.604  0.3031 -0.2678 -0.4140
  576MOL0     C77665   1.092   0.945  -0.667  0.5589 -0.4956  0.4152
  576MOL0     C77666   1.156   0.877  -0.787  0.0107  0.6467  0.4956
  576MOL0     C77667   1.283   0.962  -0.827  0.6017 -0.2653  0.3337
  576MOL0     C77668   1.329   0.926  -0.959 -0.2384  0.8562 -0.0803
  576MOL0    Cl77669   1.214   0.947  -1.095 -0.2960 -0.1782 -0.0158
  576MOL0     C77670   0.460   0.970  -0.212  0.0585  1.5031  0.5708
  576MOL0     C77671   0.355   1.029  -0.141  0.0359 -0.1974  0.4081
  576MOL0     O77672   0.006   1.149  -0.260  0.4736 -0.1031 -0.5234
  576MOL0     C77673  -0.239   1.129  -0.117 -0.8106 -1.4565  0.1082
  576MOL0     C77674  -0.349   1.148  -0.039  0.6418  0.3162  0.9840
  576MOL0     N77675  -0.796   0.949   0.161  0.5645  0.3170  0.0492
  576MOL0     N77676  -0.719   0.851   0.150 -0.7660  0.1573  0.0780
  576MOL0     C77677  -0.267   0.792   1.013  0.7789  1.4770 -0.9629
  576MOL0     C77678  -0.260   0.853   1.144 -0.0219 -1.0744 -0.6711
  576MOL0     C77679  -0.046   1.042   1.480 -0.1167  0.5859 -0.2774
  576MOL0     C77680  -0.167   1.056   1.562 -0.6624  0.2194 -0.6787
  576MOL0     C77681  -0.154   1.115   1.687  0.1548  0.1715  0.8272
  576MOL0     C77682  -0.026   1.147   1.737  0.7865 -0.7274 -0.1521
  576MOL0     O77683  -0.031   1.214   1.861 -0.3387  0.6109 -0.0507
  576MOL0     C77684   0.083   1.207   1.957 -0.0959 -0.0531 -0.1846
  576MOL0     C77685   0.104   1.061   2.010 -0.4204  0.1400 -0.1970
  576MOL0     C77686   0.195   1.054   2.130  0.2128  0.8297 -0.0965
  576MOL0     C77687   0.223   0.913   2.185  0.6617  0.2750 -0.3217
  576MOL0     C77688   0.106   0.875   2.268  0.2874  0.4135  0.0129
  576MOL0     C77689   0.022   0.828   2.338  0.6024  0.0361 -0.2263
  576MOL0     C77690   0.085   1.142   1.658 -1.1918  0.7310  0.5774
  576MOL0     C77691   0.077   1.093   1.528  0.3273 -0.5098 -0.2738
  576MOL0     C77692   0.213   1.086   1.458 -0.3623  0.0758 -0.0795
  576MOL0     H77693  -0.043   0.654   1.292 -1.0229  0.4216  0.3585
  576MOL0     H77694  -0.047   0.532   1.080  4.0251  2.0892  2.6637
  576MOL0     H77695  -0.043   0.727   0.829 -0.7222  0.0832  2.5145
  576MOL0     H77696  -0.038   0.553   0.786 -1.9550 -0.6769 -0.8630
  576MOL0     H77697  -0.234   0.757   0.681 -2.1690 -4.0872  3.4820
  576MOL0     H77698  -0.216   0.591   0.613 -0.4034  0.1532  0.5585
  576MOL0     H77699  -0.020   0.670   0.478 -0.0531 -0.0740  1.9968
  576MOL0     H77700   0.008   0.803   0.593 -0.1748  1.0807 -0.8707
  576MOL0     H77701  -0.196   0.918   0.505  2.4587  1.3235  1.3086
  576MOL0     H77702  -0.066   0.879   0.387 -1.3133  2.1310  0.0006
  576MOL0     H77703  -0.183   0.674   0.312 -1.8382 -1.3745 -1.7153
  576MOL0     H77704  -0.308   0.707   0.436 -0.2379 -0.1843 -0.5050
  576MOL0     H77705  -0.369   0.923   0.308  1.1521  0.6178  1.6944
  576MOL0     H77706  -0.261   0.861   0.175  3.5378 -3.6733  1.7301
  576MOL0     H77707  -0.370   0.647   0.200  1.2269  0.7471  0.7208
  576MOL0     H77708  -0.444   0.786   0.110 -1.0359  1.2459  1.1708
  576MOL0     H77709  -0.592   0.638   0.270 -0.7153  0.0743 -1.5220
  576MOL0     H77710  -0.521   0.737   0.401  1.2763  0.6375 -0.5465
  576MOL0     H77711  -0.619   0.965   0.438  3.4164  1.4908 -2.1540
  576MOL0     H77712  -0.959   1.106   0.289 -0.2542 -0.1850 -0.3626
  576MOL0     H77713  -0.838   1.175   0.406  2.0761  1.2858 -1.2979
  576MOL0     H77714  -0.824   1.229   0.111  0.0387 -3.6724  1.0927
  576MOL0     H77715  -0.870   1.337   0.246 -1.3290 -0.7085 -1.4142
  576MOL0     H77716  -0.623   1.279   0.340 -2.6427  3.6143  1.2808
  576MOL0     H77717  -0.643   1.408   0.237  0.2162 -0.2770  2.6702
  576MOL0     H77718  -0.546   1.303   0.049  2.9651  0.2117  0.0153
  576MOL0     H77719  -0.591   1.144   0.077 -2.3206  0.7766 -0.0314
  576MOL0     H77720  -0.180   1.142   0.257 -0.2430 -1.5564 -0.1643
  576MOL0     H77721   0.001   1.077   0.113  2.0312  1.3076 -1.9086
  576MOL0     H77722   0.090   0.887  -0.290 -0.0651  0.4808  0.0400
  576MOL0     H77723   0.283   0.802  -0.450  2.0916 -1.3651 -0.0278
  576MOL0     H77724   0.632   1.018  -0.450  0.2268 -1.0089 -0.6184
  576MOL0     H77725   0.705   0.923  -0.306  2.5572 -0.8330 -0.7254
  576MOL0     H77726   0.793   0.758  -0.463  2.7445 -0.2771 -2.7278
  576MOL0     H77727   0.710   0.833  -0.600  2.8620  0.3819 -1.1596
  576MOL0     H77728   0.843   1.024  -0.602 -0.6215  0.6638  0.5235
  576MOL0     H77729   0.918   0.990  -0.448 -1.2297 -0.6517  0.3587
  576MOL0     H77730   0.927   0.810  -0.683 -1.1799  1.6466 -0.5776
  576MOL0     H77731   1.020   0.791  -0.526 -1.2361 -1.0107 -0.3456
  576MOL0     H77732   1.166   0.947  -0.587 -0.2267 -0.2242  1.1560
  576MOL0     H77733   1.048   1.040  -0.698  0.3569 -0.3576  1.1016
  576MOL0     H77734   1.181   0.773  -0.761 -0.7905  0.5959  1.0818
  576MOL0     H77735   1.091   0.891  -0.874  0.2040 -0.8507  0.0680
  576MOL0     H77736   1.355   0.941  -0.748  1.4738  2.3689  0.3612
  576MOL0     H77737   1.257   1.068  -0.836 -0.5794 -0.6447 -1.1804
  576MOL0     H77738   1.417   0.986  -0.986  0.5423 -0.4978 -0.6552
  576MOL0     H77739   1.362   0.822  -0.957 -0.8104  0.6589 -0.5686
  576MOL0     H77740   0.564   0.992  -0.188  1.1286  0.1913 -2.3599
  576MOL0     H77741   0.383   1.079  -0.048  0.7887  2.6103 -1.2233
  576MOL0     H77742  -0.241   1.129  -0.225 -1.5238  0.5926  0.0687
  576MOL0     H77743  -0.439   1.162  -0.098  1.2581 -1.7920 -0.5863
  576MOL0     H77744  -0.330   0.831   0.934 -0.1452  2.0010  0.0065
  576MOL0     H77745  -0.323   0.937   1.168  1.5220 -0.1404  0.2618
  576MOL0     H77746  -0.270   1.032   1.538 -1.4165  1.6847  0.8354
  576MOL0     H77747  -0.241   1.132   1.750  0.7585  1.0080  1.4506
  576MOL0     H77748   0.053   1.264   2.046 -0.5671 -3.6667  2.1920
  576MOL0     H77749   0.178   1.239   1.914 -0.2370 -1.1284 -1.3334
  576MOL0     H77750   0.147   1.002   1.928 -0.3936 -0.1639  0.0336
  576MOL0     H77751   0.012   1.008   2.036  0.3001 -0.3733  1.4203
  576MOL0     H77752   0.152   1.123   2.204 -1.7558  0.8424 -1.2036
  576MOL0     H77753   0.292   1.098   2.105  0.5852  0.9080  1.3996
  576MOL0     H77754   0.233   0.836   2.106 -0.6230 -1.6936  1.3417
  576MOL0     H77755   0.316   0.916   2.242  1.3099  0.8256 -1.3754
  576MOL0     H77756  -0.068   0.797   2.387  1.6195  0.0469  1.7802
  576MOL0     H77757   0.175   1.182   1.705 -1.0919  2.5753 -1.0253
  576MOL0     H77758   0.288   1.145   1.512 -1.1373  0.6414  0.3980
  576MOL0     H77759   0.243   0.982   1.447  0.0002  0.3773 -2.6471
  576MOL0     H77760   0.202   1.140   1.364 -1.0854 -0.0324 -0.0595
  577MOL0     O77761   9.695   0.659  10.382 -0.2462  0.3467 -1.4088
  577MOL0     C77762   9.745   0.589  10.463  0.0367  0.8417  0.3924
  577MOL0     O77763   9.694   0.556  10.580  0.3783  0.3937  0.4440
  577MOL0     C77764   9.582   0.622  10.629  0.2874 -0.7168 -0.0153
  577MOL0     C77765   9.592   0.755  10.663  0.3161  0.0654 -1.4023
  577MOL0     C77766   9.475   0.834  10.710  0.5949 -0.2521 -0.0067
  577MOL0     C77767   9.359   0.764  10.719  0.1356 -0.6485  0.0948
  577MOL0     O77768   9.251   0.843  10.780 -0.0084  0.2738  0.3045
  577MOL0     C77769   9.109   0.805  10.764 -0.5630  0.3956 -0.5284
  577MOL0     C77770   9.059   0.864  10.630 -0.2196 -0.2749  0.0637
  577MOL0     C77771   9.047   1.013  10.620  0.3233  0.7410 -0.1374
  577MOL0     C77772   8.912   1.064  10.686 -0.0229 -0.5630  0.5228
  577MOL0     C77773   8.911   1.214  10.699  0.0957 -0.1563  0.0073
  577MOL0     C77774   8.993   1.287  10.584  0.4262  0.5316  0.3384
  577MOL0     C77775   8.929   1.410  10.541 -0.6076 -0.5317 -0.1954
  577MOL0     C77776   9.000   1.475  10.419  0.5128 -0.9447 -1.3014
  577MOL0     N77777   9.136   1.526  10.432  0.0472  0.6705  0.7425
  577MOL0     C77778   9.245   1.466  10.376 -0.8207  0.2577  0.7082
  577MOL0     C77779   9.348   1.550  10.406 -0.3355 -0.0037  0.4158
  577MOL0     C77780   9.496   1.532  10.367  0.1502 -0.0794 -0.7237
  577MOL0     C77781   9.566   1.613  10.259  1.0096 -0.5568 -0.1836
  577MOL0     C77782   9.480   1.609  10.127  0.4925 -0.2450 -0.2948
  577MOL0     C77783   9.547   1.671  10.006  0.1292 -0.5580 -0.0084
  577MOL0     O77784   9.669   1.600   9.976 -0.3232 -1.1384 -0.8174
  577MOL0     C77785   9.684   1.476   9.910  0.1241 -0.5648  0.4655
  577MOL0     C77786   9.816   1.425   9.893  0.3111  0.7643  0.6487
  577MOL0     C77787   9.833   1.292   9.839 -0.2713 -0.8207 -0.0793
  577MOL0     C77788   9.722   1.210   9.824  0.9573 -0.0883  0.3480
  577MOL0     C77789   9.736   1.063   9.795 -0.2345 -0.8004 -0.5155
  577MOL0     O77790   9.860   1.015   9.806  0.2114  0.0958 -0.1193
  577MOL0     C77791   9.861   0.883   9.797  0.1974  0.1062  0.3925
  577MOL0     C77792   9.797   0.802   9.888 -0.4251  1.0613 -1.5902
  577MOL0     C77793   9.790   0.663   9.871  0.4515  0.7484 -0.4024
  577MOL0     C77794   9.833   0.606   9.757  0.3060 -0.5273  0.3555
  577MOL0     O77795   9.837   0.468   9.745 -0.1524 -0.1561 -0.6475
  577MOL0     C77796   9.847   0.399   9.617  0.2876  0.7443  0.5740
  577MOL0     C77797   9.815   0.246   9.618  0.3893 -0.3363  0.2773
  577MOL0     C77798   9.681   0.229   9.672  0.4754  0.6691 -0.4097
  577MOL0     C77799   9.625   0.087   9.682 -0.3711 -0.5336  0.0885
  577MOL0     C77800   9.472   0.077   9.705 -0.5932  0.1497 -0.6833
  577MOL0     C77801   9.419  -0.073   9.685 -0.5417  0.0403 -0.1636
  577MOL0     C77802   9.271  -0.070   9.717  0.1828  0.4318 -0.0112
  577MOL0     C77803   9.236  -0.218   9.754 -0.7041  0.2596 -0.4399
  577MOL0    Cl77804   9.247  -0.333   9.614  0.1146 -0.2061 -0.1922
  577MOL0     C77805   9.896   0.687   9.661 -0.7505  0.2057  0.1362
  577MOL0     C77806   9.911   0.819   9.683 -0.0975  0.0950  0.4216
  577MOL0     O77807   9.634   0.999   9.787  0.1116 -0.7042  0.0608
  577MOL0     C77808   9.593   1.270   9.832 -0.5106  0.4031  0.1302
  577MOL0     C77809   9.572   1.400   9.864 -0.8564  0.2354  0.1859
  577MOL0     N77810   9.295   1.664  10.476 -0.7618  0.5891  0.6331
  577MOL0     N77811   9.169   1.641  10.482  0.2134 -0.6407 -0.7954
  577MOL0     C77812   9.342   0.626  10.684  0.0857 -0.8962  0.7562
  577MOL0     C77813   9.456   0.557  10.642  0.6085 -0.1038 -0.7995
  577MOL0     C77814   9.874   0.533  10.427  0.1045 -0.0460  0.6454
  577MOL0     C77815   9.981   0.625  10.389  0.1522 -0.0475  0.2676
  577MOL0     C77816  10.110   0.575  10.382 -0.4478 -0.3620 -0.3875
  577MOL0     C77817  10.140   0.448  10.408  0.3396  0.8504 -0.5033
  577MOL0     O77818  10.274   0.416  10.407  0.3166 -0.3052 -0.0021
  577MOL0     C77819  10.304   0.279  10.413 -0.0511  0.1331  0.5090
  577MOL0     C77820  10.309   0.221  10.545  1.0080 -0.6519  0.0856
  577MOL0     C77821  10.439   0.262  10.616  0.4820 -0.3711  0.4070
  577MOL0     C77822  10.472   0.178  10.739 -0.8632 -0.2069 -0.1981
  577MOL0     C77823  10.433   0.028  10.729 -0.2965 -0.2586 -0.0813
  577MOL0     C77824  10.406  -0.089  10.709 -0.2591  0.1355  0.3499
  577MOL0     C77825  10.040   0.357  10.439 -0.3581  0.7761  1.2603
  577MOL0     C77826   9.907   0.400  10.459 -0.7714 -0.3420 -0.9424
  577MOL0     C77827   9.811   0.298  10.513 -0.1181  0.0168  0.3160
  577MOL0     H77828   9.685   0.800  10.630 -1.4318  3.0339 -2.6561
  577MOL0     H77829   9.474   0.938  10.741 -2.1420 -1.1217  3.4283
  577MOL0     H77830   9.087   0.698  10.764 -1.5061  0.4889  2.4963
  577MOL0     H77831   9.055   0.843  10.852  1.8175  1.1030  0.7216
  577MOL0     H77832   8.964   0.817  10.604 -0.6711  1.0504 -0.7969
  577MOL0     H77833   9.132   0.840  10.552 -0.5964 -1.0384 -0.0596
  577MOL0     H77834   9.039   1.034  10.513 -1.6017 -0.8215 -0.3541
  577MOL0     H77835   9.136   1.046  10.672 -1.7134 -2.4802  6.4852
  577MOL0     H77836   8.840   1.015  10.619 -0.5536  0.0150  0.6669
  577MOL0     H77837   8.896   1.018  10.784  0.7867  1.6311  1.7366
  577MOL0     H77838   8.808   1.250  10.710  0.4287  0.4893  1.2104
  577MOL0     H77839   8.957   1.232  10.797  0.3832 -0.0880 -0.1377
  577MOL0     H77840   9.091   1.294  10.632 -1.2139  0.0140  4.0858
  577MOL0     H77841   8.998   1.232  10.489 -0.4258 -3.8420  2.5408
  577MOL0     H77842   8.927   1.485  10.621 -0.3063 -0.3105 -0.3931
  577MOL0     H77843   8.827   1.383  10.512 -1.4814 -0.1740  2.3121
  577MOL0     H77844   8.998   1.392  10.347  2.2605 -0.6323 -1.7620
  577MOL0     H77845   8.940   1.561  10.388  1.1644  0.0100 -0.0411
  577MOL0     H77846   9.268   1.382  10.311  0.2836  1.2031 -0.1521
  577MOL0     H77847   9.559   1.548  10.455  2.2040  0.9158 -2.2828
  577MOL0     H77848   9.510   1.432  10.325  0.2566 -0.3561 -0.0419
  577MOL0     H77849   9.553   1.720  10.280  1.4315 -0.1825 -1.7610
  577MOL0     H77850   9.671   1.590  10.239  1.2232  1.2271 -1.4028
  577MOL0     H77851   9.384   1.660  10.144 -0.2335 -1.5162 -0.4168
  577MOL0     H77852   9.448   1.507  10.103 -1.0092  0.7888 -3.1154
  577MOL0     H77853   9.575   1.773  10.034  2.5607 -1.6370  1.8598
  577MOL0     H77854   9.480   1.677   9.919  0.8616 -2.7188 -0.7825
  577MOL0     H77855   9.901   1.486   9.922  0.2778  0.1751  2.0592
  577MOL0     H77856   9.931   1.246   9.830  0.7219  0.6234  2.4025
  577MOL0     H77857   9.743   0.832   9.977  2.2760  1.6960 -0.0570
  577MOL0     H77858   9.765   0.603   9.958  2.6673  0.6232  0.2082
  577MOL0     H77859   9.783   0.448   9.543  0.9209 -3.1712 -2.9499
  577MOL0     H77860   9.948   0.414   9.576 -0.6363  2.9577 -1.1319
  577MOL0     H77861   9.811   0.203   9.518  2.6129  1.3186 -0.6146
  577MOL0     H77862   9.889   0.200   9.683  4.0718  0.6371 -2.8629
  577MOL0     H77863   9.681   0.280   9.769 -0.7567  2.1884 -1.1640
  577MOL0     H77864   9.611   0.283   9.608  1.5211  1.7298 -0.6935
  577MOL0     H77865   9.672   0.032   9.765 -1.5762 -0.7674  0.6448
  577MOL0     H77866   9.649   0.037   9.588  3.7953 -1.3790  1.3996
  577MOL0     H77867   9.417   0.154   9.649 -1.0402  0.8862  0.7201
  577MOL0     H77868   9.453   0.108   9.808 -2.3384  1.5923 -1.3704
  577MOL0     H77869   9.443  -0.113   9.586 -0.0311 -0.6326  0.2224
  577MOL0     H77870   9.470  -0.137   9.758 -0.2817 -3.2236 -2.9916
  577MOL0     H77871   9.215  -0.018   9.638  1.2944  2.0836  0.2291
  577MOL0     H77872   9.247  -0.011   9.806  3.2893  1.7233  0.0863
  577MOL0     H77873   9.305  -0.246   9.834  0.5315  1.6759 -0.9507
  577MOL0     H77874   9.137  -0.221   9.801  0.5295  1.7820  2.5247
  577MOL0     H77875   9.942   0.640   9.574  0.7431  1.6229  0.1049
  577MOL0     H77876   9.964   0.879   9.610  1.7122 -2.9670 -1.0290
  577MOL0     H77877   9.506   1.209   9.810 -0.2072 -0.7620  1.9229
  577MOL0     H77878   9.473   1.444   9.864 -1.5793 -1.3168  0.7106
  577MOL0     H77879   9.246   0.576  10.693  0.4670 -1.8456 -0.3158
  577MOL0     H77880   9.439   0.450  10.633  0.4131 -0.3935  2.0651
  577MOL0     H77881   9.948   0.728  10.383 -0.5483  0.0017  3.3194
  577MOL0     H77882  10.191   0.642  10.358 -0.0842 -1.2339 -1.7092
  577MOL0     H77883  10.406   0.270  10.373  0.3530  1.0872  1.3034
  577MOL0     H77884  10.230   0.231  10.348 -2.5307  2.1190  1.7174
  577MOL0     H77885  10.282   0.116  10.537 -1.4808 -0.0819  0.1797
  577MOL0     H77886  10.233   0.268  10.608  1.0847  1.2898 -1.1821
  577MOL0     H77887  10.441   0.367  10.647  3.1550  0.0014 -0.7951
  577MOL0     H77888  10.526   0.257  10.551  1.6830  0.1193  1.9188
  577MOL0     H77889  10.576   0.182  10.774 -0.6143 -0.2935 -0.9135
  577MOL0     H77890  10.413   0.218  10.822 -0.7007 -3.1509  1.4650
  577MOL0     H77891  10.371  -0.188  10.692  2.5282 -0.5307 -2.3526
  577MOL0     H77892  10.055   0.250  10.455  0.2394  0.8073  0.9440
  577MOL0     H77893   9.711   0.308  10.471 -0.8345  4.2869  2.5005
  577MOL0     H77894   9.843   0.194  10.510 -2.7530 -0.9081  1.7965
  577MOL0     H77895   9.806   0.325  10.618  1.0545 -0.2937  0.4654
  578MOL0     O77896   3.004  10.598   0.336 -0.1632  0.2124  0.4055
  578MOL0     C77897   2.925  10.550   0.418  0.4029  0.7626 -0.3466
  578MOL0     O77898   2.926  10.418   0.459 -0.3886 -0.4595 -1.1614
  578MOL0     C77899   3.038  10.348   0.452 -1.5318  0.2430  0.9179
  578MOL0     C77900   3.154  10.375   0.533  0.5534  0.8463 -0.0053
  578MOL0     C77901   3.266  10.294   0.514  0.6878  0.1081 -0.6563
  578MOL0     C77902   3.275  10.194   0.423  0.0475  0.0170 -0.2889
  578MOL0     O77903   3.392  10.129   0.400 -0.1197 -0.6025 -0.6574
  578MOL0     C77904   3.375   9.987   0.431 -1.6583 -0.5457  0.2629
  578MOL0     C77905   3.512   9.915   0.405  0.9301  0.7341  0.0102
  578MOL0     C77906   3.535   9.891   0.252 -0.1391  0.3927 -0.1518
  578MOL0     C77907   3.679   9.916   0.213  0.3542 -1.1377  0.1159
  578MOL0     C77908   3.709   9.913   0.059  1.2192 -0.4533  0.3419
  578MOL0     C77909   3.858   9.950   0.028 -0.3762 -0.5613  0.7410
  578MOL0     C77910   3.900   9.908  -0.116 -0.4472 -0.0634  0.0896
  578MOL0     C77911   3.984   9.777  -0.105  0.2571  0.9151  0.2847
  578MOL0     N77912   4.115   9.795  -0.054  0.0400 -0.1154 -0.1016
  578MOL0     C77913   4.209   9.856  -0.135 -0.2652  0.5201  1.1032
  578MOL0     C77914   4.322   9.857  -0.063 -0.1932  0.2918 -0.5062
  578MOL0     C77915   4.457   9.918  -0.096 -1.0955 -1.0588 -0.0846
  578MOL0     C77916   4.499  10.021   0.005  0.1201  0.0390  0.3532
  578MOL0     C77917   4.619  10.103  -0.047  0.3814  0.0412  1.2627
  578MOL0     C77918   4.585  10.204  -0.152  0.1044 -0.4354  0.0229
  578MOL0     O77919   4.587  10.154  -0.285  0.6094  0.0032  0.3051
  578MOL0     C77920   4.577  10.251  -0.385 -0.2349  0.7603 -0.3418
  578MOL0     C77921   4.479  10.348  -0.394 -0.0798 -0.2618  0.0543
  578MOL0     C77922   4.477  10.443  -0.499  0.2077  0.0609 -0.8030
  578MOL0     C77923   4.557  10.426  -0.617  0.1848  0.5304  0.0204
  578MOL0     C77924   4.560  10.511  -0.733 -0.4078 -1.1845  0.9093
  578MOL0     O77925   4.468  10.624  -0.732 -0.8202  0.0708  0.3876
  578MOL0     C77926   4.483  10.715  -0.837  0.3407 -0.8856  0.7163
  578MOL0     C77927   4.371  10.756  -0.905  0.1917  0.1086  0.6316
  578MOL0     C77928   4.369  10.867  -0.997  0.6520  0.1955 -0.0653
  578MOL0     C77929   4.490  10.925  -1.023 -0.5012 -0.2734 -0.3414
  578MOL0     O77930   4.519  11.027  -1.111 -0.3391  0.6026 -0.3237
  578MOL0     C77931   4.411  11.107  -1.168  0.7756 -0.2821 -0.1233
  578MOL0     C77932   4.327  11.198  -1.071 -0.1872 -0.1514  0.9888
  578MOL0     C77933   4.407  11.317  -1.018 -0.0330  0.6543 -0.4807
  578MOL0     C77934   4.310  11.395  -0.921 -0.4448 -0.2475  0.4457
  578MOL0     C77935   4.195  11.464  -1.003 -0.1210 -0.7036  0.2910
  578MOL0     C77936   4.090  11.523  -0.905 -0.4016  0.2064 -0.2801
  578MOL0     C77937   3.970  11.583  -0.982  0.9818  0.0987  0.2325
  578MOL0     C77938   3.844  11.607  -0.899  0.5054 -0.1773 -0.5032
  578MOL0    Cl77939   3.762  11.443  -0.884  0.3207  0.6543  0.4979
  578MOL0     C77940   4.609  10.871  -0.981  0.9071  0.0223  0.0737
  578MOL0     C77941   4.606  10.775  -0.875  0.1440  0.4275 -0.3790
  578MOL0     O77942   4.643  10.490  -0.824  0.9161  0.7142  0.0303
  578MOL0     C77943   4.643  10.312  -0.617 -0.1677 -0.0766 -0.1043
  578MOL0     C77944   4.650  10.226  -0.505  0.2791 -0.1650 -0.2869
  578MOL0     N77945   4.294   9.797   0.057 -0.4609 -0.5664 -0.3939
  578MOL0     N77946   4.173   9.759   0.063  0.2835  0.1979  0.1329
  578MOL0     C77947   3.161  10.170   0.343 -0.3137 -0.2229 -0.0848
  578MOL0     C77948   3.044  10.249   0.359 -0.7181  0.1296  0.3908
  578MOL0     C77949   2.826  10.646   0.477 -0.3499  0.5065 -0.7957
  578MOL0     C77950   2.763  10.611   0.605  0.2796 -0.7249 -0.1675
  578MOL0     C77951   2.665  10.691   0.665 -0.4003  0.7561  0.5845
  578MOL0     C77952   2.650  10.822   0.616  0.2426  0.1610 -0.2852
  578MOL0     O77953   2.552  10.906   0.668  0.4633 -0.0157  0.0812
  578MOL0     C77954   2.537  10.906   0.812  0.0667  0.5931  0.2028
  578MOL0     C77955   2.398  10.972   0.854 -0.0838 -0.8642 -0.0947
  578MOL0     C77956   2.418  11.009   1.002  0.4439 -0.0497  0.1153
  578MOL0     C77957   2.433  10.891   1.105  0.3485  0.0890  0.0462
  578MOL0     C77958   2.436  10.938   1.246  1.2286 -0.2378  0.5051
  578MOL0     C77959   2.451  10.994   1.351  0.1917 -0.9819 -0.4208
  578MOL0     C77960   2.718  10.863   0.501 -1.1161  0.2036 -0.2553
  578MOL0     C77961   2.804  10.774   0.429 -0.5241  0.2144  0.3088
  578MOL0     C77962   2.853  10.828   0.296 -0.3182 -0.1977  0.2134
  578MOL0     H77963   3.148  10.452   0.610 -1.4276  0.7496  0.0015
  578MOL0     H77964   3.354  10.321   0.571 -1.4808  0.8510  2.6146
  578MOL0     H77965   3.358   9.985   0.539 -0.7413 -0.6344  0.4088
  578MOL0     H77966   3.284   9.945   0.388 -1.7267 -0.5823  0.4400
  578MOL0     H77967   3.504   9.818   0.455 -0.6327  0.3985 -0.8332
  578MOL0     H77968   3.594   9.970   0.452 -1.1719  2.5536  1.8390
  578MOL0     H77969   3.470   9.948   0.185 -0.6758  3.6420  2.8514
  578MOL0     H77970   3.501   9.790   0.231  1.8355 -0.1990 -0.6961
  578MOL0     H77971   3.702  10.015   0.254  0.4093 -2.2144  2.9424
  578MOL0     H77972   3.748   9.848   0.265  0.3223 -2.0589 -1.0063
  578MOL0     H77973   3.694   9.811   0.023 -0.9499  0.0680 -0.3513
  578MOL0     H77974   3.648   9.986   0.005 -0.2234  0.0298  2.5146
  578MOL0     H77975   3.883  10.056   0.034  0.6949 -0.8311  1.2848
  578MOL0     H77976   3.922   9.906   0.105 -0.5444  1.0999  1.8940
  578MOL0     H77977   3.958   9.994  -0.152 -1.8986  0.7691 -0.3585
  578MOL0     H77978   3.813   9.901  -0.182  0.8066  1.8591 -1.9231
  578MOL0     H77979   3.923   9.711  -0.043  0.1210 -0.8065 -1.6006
  578MOL0     H77980   3.983   9.742  -0.208 -2.8416  0.2621  0.4438
  578MOL0     H77981   4.200   9.878  -0.241 -2.7721 -3.9263  0.1425
  578MOL0     H77982   4.535   9.842  -0.092 -0.1821 -0.0816  2.9187
  578MOL0     H77983   4.449   9.957  -0.198 -1.6126 -0.2773  0.2509
  578MOL0     H77984   4.416  10.085   0.036 -1.4990 -0.8530 -1.8656
  578MOL0     H77985   4.535   9.970   0.095  0.5890 -2.8047 -1.3192
  578MOL0     H77986   4.699  10.040  -0.088  0.1934  1.1639 -1.0135
  578MOL0     H77987   4.667  10.150   0.039  2.1339  1.0571 -0.1880
  578MOL0     H77988   4.654  10.288  -0.141  0.4939 -0.7038 -0.3419
  578MOL0     H77989   4.491  10.244  -0.113 -0.0209 -1.9667  1.3909
  578MOL0     H77990   4.416  10.352  -0.305 -1.0067 -1.1250 -0.5391
  578MOL0     H77991   4.424  10.537  -0.491  3.0355  1.9370 -2.4535
  578MOL0     H77992   4.280  10.703  -0.881  0.2090 -1.0505 -1.6371
  578MOL0     H77993   4.270  10.885  -1.038  1.0599  0.3023 -1.0349
  578MOL0     H77994   4.438  11.176  -1.248 -2.3018  3.3731  1.6723
  578MOL0     H77995   4.332  11.041  -1.207  1.1546 -0.3883 -0.7195
  578MOL0     H77996   4.244  11.227  -1.137  0.0071  1.2103  1.3126
  578MOL0     H77997   4.295  11.135  -0.988  0.9739 -1.8750  0.2106
  578MOL0     H77998   4.489  11.281  -0.955 -1.7284 -2.0497  0.3325
  578MOL0     H77999   4.449  11.376  -1.100  2.5208 -0.6350 -0.2127
  578MOL0     H78000   4.375  11.476  -0.885  3.2463 -0.4146 -4.7498
  578MOL0     H78001   4.266  11.335  -0.841  0.8914  0.3798  1.7143
  578MOL0     H78002   4.139  11.397  -1.069 -0.7455  0.5284 -0.4744
  578MOL0     H78003   4.231  11.550  -1.060 -1.1611 -1.9809 -2.4551
  578MOL0     H78004   4.058  11.438  -0.844  1.0343 -1.7903 -2.1307
  578MOL0     H78005   4.142  11.600  -0.848 -1.5359  1.2448 -0.6121
  578MOL0     H78006   3.944  11.530  -1.074 -0.5969 -1.2786  1.3891
  578MOL0     H78007   3.997  11.678  -1.029 -1.0569 -0.2606 -1.8320
  578MOL0     H78008   3.880  11.668  -0.815 -0.7272  2.3377 -1.7055
  578MOL0     H78009   3.771  11.669  -0.952  0.0491  0.2208  0.5583
  578MOL0     H78010   4.697  10.918  -1.024  0.8754 -0.8700 -1.0161
  578MOL0     H78011   4.695  10.749  -0.818  1.7598  1.3237 -2.3635
  578MOL0     H78012   4.703  10.294  -0.706 -3.4619 -1.4316 -2.2512
  578MOL0     H78013   4.723  10.146  -0.514  0.8595  0.1761  1.1243
  578MOL0     H78014   3.160  10.105   0.256  0.1237 -2.1740  1.2850
  578MOL0     H78015   2.955  10.220   0.305 -0.2755 -0.6809  0.0791
  578MOL0     H78016   2.785  10.528   0.671 -1.4599  1.4782  3.5220
  578MOL0     H78017   2.625  10.643   0.754 -1.1940  1.7615  0.7990
  578MOL0     H78018   2.617  10.955   0.869 -1.7581  2.6203  1.1473
  578MOL0     H78019   2.539  10.809   0.861  0.4843  0.2622 -0.4486
  578MOL0     H78020   2.314  10.904   0.841 -0.9150  0.1187  0.0342
  578MOL0     H78021   2.388  11.071   0.808  2.7806 -0.5790 -0.3044
  578MOL0     H78022   2.322  11.053   1.030  0.9219  0.7523  0.5222
  578MOL0     H78023   2.499  11.082   1.015 -1.1208  1.3468  2.6491
  578MOL0     H78024   2.347  10.827   1.086 -0.8761  1.6943 -0.0253
  578MOL0     H78025   2.529  10.844   1.084  0.2972  0.0745 -0.1572
  578MOL0     H78026   2.469  11.037   1.448  0.0250 -1.8504  0.0063
  578MOL0     H78027   2.705  10.964   0.465  2.2220 -0.0718 -2.7502
  578MOL0     H78028   2.856  10.751   0.219  1.5947 -0.8799  0.9027
  578MOL0     H78029   2.792  10.911   0.261  0.0842  0.7412  1.6286
  578MOL0     H78030   2.957  10.860   0.298 -0.8176  1.7767 -1.7882
  579MOL0     O78031   7.622   3.540   4.652 -0.2906 -0.6950  0.8082
  579MOL0     C78032   7.500   3.508   4.642  0.4092  0.2268 -0.2705
  579MOL0     O78033   7.438   3.447   4.531 -0.4047 -0.5446 -0.5020
  579MOL0     C78034   7.518   3.397   4.428  0.0084  0.4769  0.1769
  579MOL0     C78035   7.596   3.480   4.346 -0.6125 -0.4153  0.6413
  579MOL0     C78036   7.660   3.428   4.236 -0.3546 -0.0160  0.1508
  579MOL0     C78037   7.633   3.299   4.181 -0.0849 -0.3001 -0.2300
  579MOL0     O78038   7.692   3.247   4.066  0.8812  0.2832 -0.4742
  579MOL0     C78039   7.721   3.109   4.067 -0.6209 -0.4625  0.5308
  579MOL0     C78040   7.819   3.084   3.956 -0.6589 -0.2256  0.5887
  579MOL0     C78041   7.774   3.074   3.810  0.2392 -0.0088  0.8253
  579MOL0     C78042   7.733   3.207   3.753  0.0721 -0.3028  0.3241
  579MOL0     C78043   7.697   3.201   3.597 -0.8348  0.1652 -0.4865
  579MOL0     C78044   7.726   3.339   3.526 -0.6886  0.5448 -0.4118
  579MOL0     C78045   7.668   3.365   3.387 -0.2486 -0.2947  0.0443
  579MOL0     C78046   7.688   3.250   3.285 -0.3729 -0.3890  0.1188
  579MOL0     N78047   7.608   3.264   3.160  0.4133 -0.0191 -0.6720
  579MOL0     C78048   7.484   3.202   3.133 -0.7336  0.1266  0.1454
  579MOL0     C78049   7.437   3.252   3.017  0.8207 -0.5176 -0.4486
  579MOL0     C78050   7.321   3.188   2.956  0.0567  0.4357  0.6427
  579MOL0     C78051   7.363   3.066   2.877  0.2994  0.2395  0.9345
  579MOL0     C78052   7.425   2.947   2.961 -0.5167  0.4795 -0.2139
  579MOL0     C78053   7.435   2.811   2.879 -0.2399 -0.1132 -0.0971
  579MOL0     O78054   7.302   2.762   2.849 -0.4541  0.3632  0.9411
  579MOL0     C78055   7.274   2.644   2.788 -0.5339  1.2015 -1.0829
  579MOL0     C78056   7.380   2.574   2.730 -0.3377  0.2914 -0.9943
  579MOL0     C78057   7.360   2.446   2.683 -0.1931 -0.2212  1.0464
  579MOL0     C78058   7.230   2.389   2.682  0.1142  1.0068  0.4263
  579MOL0     C78059   7.213   2.239   2.642 -0.0588  0.3965 -0.3713
  579MOL0     O78060   7.329   2.164   2.616  0.0874 -0.0422 -0.1901
  579MOL0     C78061   7.332   2.021   2.603 -0.0576 -1.2636 -0.1904
  579MOL0     C78062   7.452   1.959   2.657  0.7543 -0.3734 -0.6066
  579MOL0     C78063   7.452   1.824   2.652 -0.2343  0.2594 -0.1433
  579MOL0     C78064   7.344   1.749   2.596  0.2830  0.7401  0.2265
  579MOL0     O78065   7.362   1.611   2.593 -1.1665  0.3666  1.1551
  579MOL0     C78066   7.458   1.563   2.492 -0.0955  0.2800  0.3931
  579MOL0     C78067   7.384   1.531   2.359 -0.3863  0.6939  0.0566
  579MOL0     C78068   7.474   1.505   2.239 -0.1234  0.1599 -0.5808
  579MOL0     C78069   7.584   1.399   2.246  0.2531  0.7758 -0.0318
  579MOL0     C78070   7.503   1.263   2.231 -0.4009 -0.3712 -0.4691
  579MOL0     C78071   7.551   1.207   2.094  0.7711  0.7498 -0.2567
  579MOL0     C78072   7.499   1.064   2.084 -0.7068 -0.2246  0.0613
  579MOL0     C78073   7.549   0.998   1.956 -0.1970 -0.7469  0.3760
  579MOL0    Cl78074   7.482   0.830   1.957 -0.6172  0.3747 -0.0329
  579MOL0     C78075   7.229   1.811   2.559 -0.8629 -0.7336 -0.0563
  579MOL0     C78076   7.226   1.951   2.562  1.4829  0.1567  0.0025
  579MOL0     O78077   7.099   2.196   2.659  0.4814 -0.1749 -0.3756
  579MOL0     C78078   7.118   2.463   2.718 -0.6170  0.5403  0.0097
  579MOL0     C78079   7.149   2.593   2.773  0.2170  0.0503 -0.0186
  579MOL0     N78080   7.525   3.353   2.973  0.7625  0.8917  0.0857
  579MOL0     N78081   7.619   3.357   3.064  0.2463  0.3608  0.4110
  579MOL0     C78082   7.535   3.216   4.250  0.6118 -0.0938 -0.0318
  579MOL0     C78083   7.487   3.272   4.372  0.1008  0.0459  0.7889
  579MOL0     C78084   7.405   3.550   4.743  0.0833  0.5107  0.5249
  579MOL0     C78085   7.276   3.601   4.694 -0.7847 -0.1406  0.3634
  579MOL0     C78086   7.185   3.665   4.786  0.6001  0.5949 -0.1450
  579MOL0     C78087   7.212   3.644   4.927 -0.0872  0.0035  0.5665
  579MOL0     O78088   7.131   3.694   5.023  0.5481 -0.5860 -0.2444
  579MOL0     C78089   7.019   3.613   5.038  0.2586  0.4397 -0.0002
  579MOL0     C78090   6.922   3.653   5.152 -0.0145  0.2941  0.0477
  579MOL0     C78091   6.807   3.547   5.175  0.4391  0.5323 -0.0708
  579MOL0     C78092   6.844   3.433   5.263 -0.3563 -0.1228 -2.0252
  579MOL0     C78093   6.859   3.476   5.401 -0.1181  0.3004 -0.2976
  579MOL0     C78094   6.866   3.509   5.522  0.1240  0.3221  0.7252
  579MOL0     C78095   7.336   3.586   4.970 -0.0548 -0.0635  1.0777
  579MOL0     C78096   7.433   3.544   4.883 -0.3585  0.3330 -0.0932
  579MOL0     C78097   7.570   3.502   4.953  0.5186 -0.7169  0.0114
  579MOL0     H78098   7.603   3.584   4.374  3.8183 -1.2170  3.4434
  579MOL0     H78099   7.710   3.496   4.167  0.8402 -0.5760  0.4331
  579MOL0     H78100   7.776   3.090   4.159 -0.5432 -0.0917  0.5615
  579MOL0     H78101   7.629   3.050   4.055 -0.5014 -0.5619  0.0958
  579MOL0     H78102   7.865   2.990   3.986 -0.0503 -0.7656 -1.7834
  579MOL0     H78103   7.888   3.168   3.964 -0.3635  0.0872 -3.1902
  579MOL0     H78104   7.686   3.010   3.804 -0.0784  0.0998  3.3835
  579MOL0     H78105   7.850   3.024   3.749  1.9108  1.2307  1.8065
  579MOL0     H78106   7.662   3.263   3.815  0.3315  1.1870 -0.6715
  579MOL0     H78107   7.816   3.279   3.745  0.5503 -0.8000 -7.9838
  579MOL0     H78108   7.761   3.124   3.555  0.6647  0.6015  0.8798
  579MOL0     H78109   7.594   3.167   3.581  0.1324 -1.6969 -3.6480
  579MOL0     H78110   7.703   3.419   3.597 -0.5443  1.3185 -1.2180
  579MOL0     H78111   7.833   3.349   3.506 -0.9441  1.5406 -1.3980
  579MOL0     H78112   7.698   3.467   3.360 -0.7912 -0.5098 -1.4863
  579MOL0     H78113   7.560   3.373   3.408  0.0875  1.3667  1.4177
  579MOL0     H78114   7.794   3.230   3.269 -0.5997 -1.7164  0.1493
  579MOL0     H78115   7.665   3.166   3.351 -0.6334  0.4212  1.0845
  579MOL0     H78116   7.422   3.128   3.183 -3.2755  0.7506 -1.8258
  579MOL0     H78117   7.245   3.166   3.033  0.3421 -1.2922  0.4750
  579MOL0     H78118   7.279   3.267   2.893  1.1821  2.7076  2.5804
  579MOL0     H78119   7.280   3.016   2.825  1.0911 -0.0710 -0.0606
  579MOL0     H78120   7.439   3.104   2.808 -1.6787  0.1069 -1.4636
  579MOL0     H78121   7.364   2.917   3.046  0.5520 -3.9506 -0.8083
  579MOL0     H78122   7.521   2.980   3.002 -0.4671  0.9249 -0.6640
  579MOL0     H78123   7.473   2.731   2.943 -0.2378 -0.2454 -0.2633
  579MOL0     H78124   7.499   2.830   2.793  1.4561  2.0456  1.5319
  579MOL0     H78125   7.477   2.621   2.742 -0.9414  0.8044  3.4754
  579MOL0     H78126   7.449   2.393   2.652  0.8286  0.9599  1.8587
  579MOL0     H78127   7.528   2.019   2.706 -2.6739  3.0797  1.0725
  579MOL0     H78128   7.539   1.766   2.683  0.6810  0.3154 -2.4194
  579MOL0     H78129   7.545   1.625   2.470 -2.0534  3.1032  0.0671
  579MOL0     H78130   7.506   1.473   2.531  1.7525  0.6776 -0.8047
  579MOL0     H78131   7.317   1.447   2.383  0.9286 -0.4373 -0.1118
  579MOL0     H78132   7.322   1.614   2.324  1.0038  1.8320  0.2417
  579MOL0     H78133   7.416   1.486   2.148 -0.4512  1.9131 -0.7709
  579MOL0     H78134   7.535   1.595   2.230  0.9168 -0.1233  2.4704
  579MOL0     H78135   7.646   1.420   2.334  1.0874 -3.1896  0.5006
  579MOL0     H78136   7.659   1.415   2.167  0.0487  2.0875  0.0129
  579MOL0     H78137   7.395   1.276   2.216 -0.2819 -0.1559 -1.1987
  579MOL0     H78138   7.530   1.187   2.305 -0.0514  0.6324  0.4622
  579MOL0     H78139   7.513   1.258   2.006  1.4823  1.6730 -0.0465
  579MOL0     H78140   7.660   1.204   2.095  0.7849 -2.3600 -0.1993
  579MOL0     H78141   7.389   1.060   2.085 -0.7342 -2.8438  3.4675
  579MOL0     H78142   7.535   1.003   2.166 -1.3861 -0.5867  0.1006
  579MOL0     H78143   7.523   1.056   1.867  2.0258  0.3950  0.3890
  579MOL0     H78144   7.659   0.998   1.956 -0.1870  0.5206  0.7316
  579MOL0     H78145   7.146   1.767   2.505 -2.6263  1.9926  0.1774
  579MOL0     H78146   7.137   1.997   2.519  1.5984  0.1252 -0.2756
  579MOL0     H78147   7.016   2.430   2.700  0.4790 -2.6013 -0.9573
  579MOL0     H78148   7.065   2.654   2.805  1.5025  1.8300  0.1091
  579MOL0     H78149   7.510   3.115   4.220  0.9001 -0.9000  2.2753
  579MOL0     H78150   7.402   3.218   4.412 -0.1587 -0.0274  0.1520
  579MOL0     H78151   7.270   3.600   4.586  0.7952  0.1347  0.2372
  579MOL0     H78152   7.093   3.706   4.748 -0.6085 -0.1672  1.7958
  579MOL0     H78153   7.043   3.506   5.043 -0.9436  0.1654  0.0859
  579MOL0     H78154   6.962   3.631   4.947  0.3032 -2.0372 -0.5937
  579MOL0     H78155   6.868   3.743   5.124 -2.2948 -1.0406 -0.0825
  579MOL0     H78156   6.965   3.666   5.252  1.8246 -0.5482 -0.5727
  579MOL0     H78157   6.775   3.498   5.082  0.5162 -0.0719  0.2237
  579MOL0     H78158   6.723   3.603   5.217 -1.0709 -1.0953 -0.7911
  579MOL0     H78159   6.760   3.364   5.273  1.9178 -3.1433 -2.3621
  579MOL0     H78160   6.932   3.387   5.218  0.5288  0.8899 -1.3732
  579MOL0     H78161   6.849   3.552   5.619 -0.0297  4.9091 -1.0821
  579MOL0     H78162   7.360   3.582   5.076  0.5819 -1.5204  0.9038
  579MOL0     H78163   7.621   3.444   4.876  1.1518  0.4340 -0.4590
  579MOL0     H78164   7.626   3.595   4.966 -1.1095 -0.0606  3.4478
  579MOL0     H78165   7.556   3.457   5.051 -0.0569  1.5385  1.0142
  580MOL0     O78166   3.998   3.405   5.820 -0.7363  0.0108 -0.2662
  580MOL0     C78167   4.080   3.447   5.899 -0.3501  0.3889 -0.5037
  580MOL0     O78168   4.095   3.575   5.933 -0.0688  0.1123 -0.2184
  580MOL0     C78169   4.032   3.668   5.852 -0.0138 -0.0497 -0.8069
  580MOL0     C78170   4.104   3.749   5.756  0.7312  0.6198 -0.3088
  580MOL0     C78171   4.035   3.837   5.669 -0.2669 -1.0791  0.2211
  580MOL0     C78172   3.894   3.840   5.663 -0.4112  0.3320 -1.1997
  580MOL0     O78173   3.839   3.935   5.591  0.3115 -0.4583 -0.2858
  580MOL0     C78174   3.766   3.887   5.478 -0.2809 -0.4465  0.4468
  580MOL0     C78175   3.698   4.003   5.402  0.1163 -0.3955  0.7607
  580MOL0     C78176   3.582   3.951   5.305  0.2804  0.7194 -0.0038
  580MOL0     C78177   3.451   3.933   5.372  0.2134 -0.2082 -0.7338
  580MOL0     C78178   3.337   3.925   5.274  0.4918 -0.5501  0.3499
  580MOL0     C78179   3.304   4.065   5.219 -0.0652 -0.5653  0.3340
  580MOL0     C78180   3.210   4.064   5.095 -0.4646 -0.1319 -0.1206
  580MOL0     C78181   3.275   4.005   4.969 -0.6874  0.1848  0.7096
  580MOL0     N78182   3.213   4.029   4.833  0.6401 -0.3021  0.4621
  580MOL0     C78183   3.268   4.080   4.727  0.3847 -0.1676  0.8075
  580MOL0     C78184   3.167   4.093   4.637 -0.2959 -1.4666 -0.0435
  580MOL0     C78185   3.185   4.132   4.495 -1.5025  0.5642  0.1670
  580MOL0     C78186   3.248   4.273   4.474 -1.1806 -0.4458 -0.5644
  580MOL0     C78187   3.250   4.310   4.325 -0.9635 -0.3633 -0.4025
  580MOL0     C78188   3.320   4.443   4.322  0.4714  0.3493  0.2924
  580MOL0     O78189   3.348   4.476   4.188  0.8945  0.1000  0.2493
  580MOL0     C78190   3.393   4.600   4.148  0.1137  0.9120 -0.4389
  580MOL0     C78191   3.421   4.704   4.237 -0.6718 -0.3956  0.1775
  580MOL0     C78192   3.490   4.822   4.184 -0.5711  0.1749 -0.3787
  580MOL0     C78193   3.541   4.831   4.053  0.7804  0.6177 -0.6101
  580MOL0     C78194   3.612   4.938   4.010  0.4158 -0.2275 -0.3218
  580MOL0     O78195   3.566   5.058   4.054  1.1934  0.3559  0.0980
  580MOL0     C78196   3.609   5.182   4.004 -1.7943  0.4500 -0.2543
  580MOL0     C78197   3.523   5.289   4.016  0.9392  0.4963  1.3217
  580MOL0     C78198   3.558   5.420   3.970 -0.6330  0.8210  0.4202
  580MOL0     C78199   3.687   5.447   3.924  0.8627 -0.0275 -1.0753
  580MOL0     O78200   3.737   5.571   3.884 -0.2127 -0.3650 -0.3572
  580MOL0     C78201   3.642   5.679   3.870 -0.3118  0.4739  0.4554
  580MOL0     C78202   3.551   5.645   3.749  0.3446 -0.4927 -0.0699
  580MOL0     C78203   3.404   5.703   3.742 -0.3687 -0.2944  0.2862
  580MOL0     C78204   3.355   5.730   3.599 -0.8834 -1.2978  0.4096
  580MOL0     C78205   3.217   5.792   3.582 -0.8813  0.0620  0.0606
  580MOL0     C78206   3.206   5.825   3.428  0.4094 -0.1217  0.2184
  580MOL0     C78207   3.064   5.887   3.417  0.5664  0.7990  0.5375
  580MOL0     C78208   3.042   5.955   3.284 -0.3283 -0.0070  1.0097
  580MOL0    Cl78209   2.880   6.035   3.281  0.1547  0.0020  0.1882
  580MOL0     C78210   3.778   5.340   3.910  0.3598  0.3654  0.3603
  580MOL0     C78211   3.742   5.217   3.955 -0.0287  0.2330  0.4142
  580MOL0     O78212   3.687   4.922   3.919 -0.4664 -0.0365  0.1363
  580MOL0     C78213   3.513   4.718   3.975 -0.7646  0.5415  0.0615
  580MOL0     C78214   3.438   4.605   4.019  0.5084 -0.1339 -0.8871
  580MOL0     N78215   3.058   4.071   4.701  0.4713 -0.3553 -0.4575
  580MOL0     N78216   3.082   4.037   4.821  0.1790  0.3792 -0.3108
  580MOL0     C78217   3.830   3.763   5.758  0.7002  0.7553  0.3756
  580MOL0     C78218   3.896   3.691   5.861  0.2497 -0.1748 -0.9178
  580MOL0     C78219   4.177   3.351   5.959  0.0811  1.0910 -0.0523
  580MOL0     C78220   4.308   3.395   5.974 -0.5872  0.5813 -0.3674
  580MOL0     C78221   4.404   3.302   6.003  0.0209 -0.0314 -0.5577
  580MOL0     C78222   4.382   3.164   6.024  0.0892 -0.5838 -0.2469
  580MOL0     O78223   4.487   3.086   6.054 -0.5429  0.8065 -0.9291
  580MOL0     C78224   4.469   2.962   6.123  0.7177  0.3430 -0.8534
  580MOL0     C78225   4.444   2.971   6.277  0.3730  0.1017 -0.1282
  580MOL0     C78226   4.570   3.015   6.345  0.2778  1.0083 -0.5113
  580MOL0     C78227   4.578   3.162   6.364 -0.3797 -0.5498 -0.3622
  580MOL0     C78228   4.720   3.201   6.376 -0.0649  0.1813 -0.7571
  580MOL0     C78229   4.833   3.241   6.392  0.1956 -0.5852 -0.3500
  580MOL0     C78230   4.246   3.127   6.006  0.0464 -0.0342 -0.3670
  580MOL0     C78231   4.151   3.214   5.965 -0.4664 -0.1289  0.4782
  580MOL0     C78232   4.019   3.155   5.928  1.3857  0.7168  0.3298
  580MOL0     H78233   4.208   3.719   5.743  0.8164  1.4170 -1.7573
  580MOL0     H78234   4.080   3.896   5.590  2.5627 -1.0938  1.6929
  580MOL0     H78235   3.835   3.832   5.414  1.4165  1.6694  0.3484
  580MOL0     H78236   3.690   3.812   5.504  1.4738 -1.8381  1.8735
  580MOL0     H78237   3.766   4.070   5.348  0.4669 -1.0079  0.4269
  580MOL0     H78238   3.647   4.061   5.479 -1.1299 -1.4156  0.7468
  580MOL0     H78239   3.623   3.868   5.247 -2.2495 -0.9771  0.4898
  580MOL0     H78240   3.566   4.031   5.232 -2.6078  2.3993  2.2391
  580MOL0     H78241   3.449   3.847   5.440  1.1498 -0.8456 -1.4785
  580MOL0     H78242   3.438   4.019   5.438 -1.3771 -2.2639  1.8471
  580MOL0     H78243   3.358   3.863   5.186 -0.8563 -1.5995  0.7327
  580MOL0     H78244   3.251   3.877   5.321  2.1611 -2.0404  2.0573
  580MOL0     H78245   3.251   4.123   5.295 -1.7185 -1.7851  0.1788
  580MOL0     H78246   3.388   4.128   5.190  1.1693 -2.6383 -0.8051
  580MOL0     H78247   3.168   4.163   5.076  0.0053  0.2976  1.0007
  580MOL0     H78248   3.126   3.999   5.122 -1.0833  1.9390  3.5865
  580MOL0     H78249   3.377   4.043   4.976  0.5142 -2.8549  1.1443
  580MOL0     H78250   3.287   3.898   4.984  0.0265  0.1614  0.0211
  580MOL0     H78251   3.375   4.081   4.707  0.3528 -0.5840  0.6080
  580MOL0     H78252   3.246   4.053   4.451 -2.2768 -2.5474  4.1748
  580MOL0     H78253   3.093   4.117   4.437 -0.2230 -1.4855 -1.4467
  580MOL0     H78254   3.214   4.356   4.536  2.2270  0.6821  0.0221
  580MOL0     H78255   3.356   4.273   4.496 -0.6574  0.2270 -2.8979
  580MOL0     H78256   3.146   4.319   4.292 -0.8325  0.5017 -0.6026
  580MOL0     H78257   3.292   4.224   4.272 -1.1859 -0.8926  0.2590
  580MOL0     H78258   3.404   4.434   4.392  3.2067 -5.6515 -2.9520
  580MOL0     H78259   3.251   4.517   4.363 -0.7589 -0.6408  0.0653
  580MOL0     H78260   3.379   4.705   4.337 -4.1163  1.2104 -1.1411
  580MOL0     H78261   3.513   4.907   4.247 -3.0226  0.3261  0.4205
  580MOL0     H78262   3.435   5.266   4.077  1.9097  0.1536  2.6576
  580MOL0     H78263   3.486   5.500   3.984 -0.7749  0.4024  2.4509
  580MOL0     H78264   3.576   5.689   3.957  0.1575 -0.0767  0.8825
  580MOL0     H78265   3.684   5.776   3.844  0.4403 -0.4472 -2.1373
  580MOL0     H78266   3.607   5.686   3.664 -0.1651  1.6058  0.5593
  580MOL0     H78267   3.546   5.537   3.728 -1.9367 -0.0069 -2.4924
  580MOL0     H78268   3.331   5.634   3.786 -2.1922 -0.6364 -3.0239
  580MOL0     H78269   3.400   5.800   3.793 -2.6644  0.0217 -0.3972
  580MOL0     H78270   3.355   5.638   3.540 -1.6144 -0.6951 -0.5743
  580MOL0     H78271   3.425   5.804   3.560 -0.7828  1.1765  4.6468
  580MOL0     H78272   3.229   5.882   3.642  3.7028  1.7840 -2.8641
  580MOL0     H78273   3.146   5.724   3.630  0.4263  0.4874  2.7698
  580MOL0     H78274   3.285   5.897   3.402 -0.7732  1.2879  0.4196
  580MOL0     H78275   3.235   5.739   3.368  1.5670  0.4544 -0.0835
  580MOL0     H78276   3.050   5.965   3.492 -0.6359  2.4821 -1.3075
  580MOL0     H78277   2.985   5.812   3.428 -0.9346  2.4070  1.0327
  580MOL0     H78278   3.126   6.012   3.244  1.6305 -3.9053 -0.9976
  580MOL0     H78279   3.035   5.875   3.210  2.9096 -0.6226  1.2107
  580MOL0     H78280   3.874   5.356   3.863  0.5781  0.6575  0.8858
  580MOL0     H78281   3.821   5.143   3.954  0.8703  1.0023  3.4376
  580MOL0     H78282   3.556   4.708   3.876 -0.4660 -0.2624  0.2647
  580MOL0     H78283   3.414   4.526   3.948  1.1094 -0.5332 -0.6558
  580MOL0     H78284   3.721   3.762   5.755  0.6685  1.9666 -3.0021
  580MOL0     H78285   3.841   3.650   5.945 -3.7173  0.9418 -2.7388
  580MOL0     H78286   4.327   3.500   5.952 -1.1089  0.3820 -1.8568
  580MOL0     H78287   4.508   3.335   6.002 -0.2269  0.8504  0.4925
  580MOL0     H78288   4.561   2.903   6.115  1.9903  1.9825  0.9038
  580MOL0     H78289   4.393   2.893   6.087  1.1326 -1.5814  1.6775
  580MOL0     H78290   4.427   2.872   6.320 -4.8632  1.8144  2.5413
  580MOL0     H78291   4.358   3.032   6.305 -0.2673 -1.2692  1.0769
  580MOL0     H78292   4.662   2.996   6.289  0.3151  2.3201 -0.9220
  580MOL0     H78293   4.578   2.964   6.441  2.0102  2.6081  0.2515
  580MOL0     H78294   4.538   3.212   6.275  0.0906 -0.3396 -0.4583
  580MOL0     H78295   4.508   3.185   6.444  0.2394 -3.4151  1.1237
  580MOL0     H78296   4.931   3.284   6.399  0.0009  0.2263 -2.0100
  580MOL0     H78297   4.228   3.019   6.007 -1.0360  0.1234  1.1331
  580MOL0     H78298   3.999   3.053   5.963  0.2217  1.1447  0.9954
  580MOL0     H78299   3.933   3.207   5.972  0.5079 -0.6473  0.2817
  580MOL0     H78300   4.012   3.155   5.819 -0.0641  3.3062  0.3407
  581MOL0     O78301   0.265   5.592   0.871  1.1506 -0.5843 -0.7231
  581MOL0     C78302   0.143   5.566   0.846  0.2465  0.6435 -0.4821
  581MOL0     O78303   0.022   5.634   0.892 -0.2081 -0.0468 -0.0666
  581MOL0     C78304   0.051   5.758   0.950 -0.1434  0.2780 -0.2087
  581MOL0     C78305   0.076   5.775   1.087 -0.9027 -0.0638  0.2252
  581MOL0     C78306   0.092   5.899   1.136  0.1069 -0.3195  0.6764
  581MOL0     C78307   0.087   6.015   1.056  0.1955 -0.5263 -0.0540
  581MOL0     O78308   0.109   6.138   1.110 -0.0037 -1.1317  1.2685
  581MOL0     C78309   0.069   6.261   1.047 -0.1017 -0.5185  0.0569
  581MOL0     C78310  -0.078   6.298   1.037 -0.8191  0.3808 -0.3455
  581MOL0     C78311  -0.096   6.425   0.952  0.4329 -0.5236  0.7210
  581MOL0     C78312   0.024   6.506   0.904  0.1504 -1.2583  0.4236
  581MOL0     C78313  -0.022   6.651   0.898  0.3129 -1.6199 -0.1667
  581MOL0     C78314   0.079   6.753   0.847  0.0817  0.2342  0.2912
  581MOL0     C78315   0.015   6.881   0.792  0.9575  0.8495 -0.5560
  581MOL0     C78316  -0.089   6.941   0.883 -1.2360  0.5766 -0.2721
  581MOL0     N78317  -0.125   7.073   0.837 -0.2296 -0.0258  0.4995
  581MOL0     C78318  -0.051   7.186   0.839  0.8275  0.2374 -0.6796
  581MOL0     C78319  -0.135   7.273   0.767  0.3872  0.1683  0.2809
  581MOL0     C78320  -0.100   7.420   0.741 -0.7312  0.1020 -0.6186
  581MOL0     C78321  -0.080   7.508   0.870  1.0264 -0.3674 -0.1140
  581MOL0     C78322  -0.217   7.540   0.935 -1.1480  0.1845 -0.4903
  581MOL0     C78323  -0.197   7.595   1.076 -0.8015 -0.1042 -0.5063
  581MOL0     O78324  -0.328   7.632   1.131 -0.4928  0.2005  0.0987
  581MOL0     C78325  -0.317   7.708   1.247 -0.6461  0.2378 -0.0642
  581MOL0     C78326  -0.400   7.818   1.264  0.6569 -0.4431  0.4500
  581MOL0     C78327  -0.392   7.890   1.388 -0.5384 -0.3025  0.4157
  581MOL0     C78328  -0.310   7.847   1.494  0.1605 -0.2185  0.4164
  581MOL0     C78329  -0.297   7.929   1.617  0.1845  0.6375  0.3182
  581MOL0     O78330  -0.186   7.897   1.695  0.0507 -0.0744 -0.0211
  581MOL0     C78331  -0.182   7.983   1.810 -0.5382  0.3149  1.0154
  581MOL0     C78332  -0.120   8.101   1.801 -0.3464  0.0934  0.2674
  581MOL0     C78333  -0.136   8.193   1.906 -0.1822  0.3839  0.9030
  581MOL0     C78334  -0.212   8.152   2.020 -0.0763  0.3504 -0.1092
  581MOL0     O78335  -0.220   8.232   2.132 -0.6865 -0.3001 -0.1158
  581MOL0     C78336  -0.319   8.340   2.115 -0.9458 -0.0994  0.2832
  581MOL0     C78337  -0.267   8.447   2.206  0.5316 -0.7006 -0.2068
  581MOL0     C78338  -0.358   8.565   2.220 -0.6960  0.1522 -0.3055
  581MOL0     C78339  -0.483   8.542   2.299 -0.3247 -0.7076 -0.4295
  581MOL0     C78340  -0.487   8.583   2.449 -0.4139  0.9274  0.4559
  581MOL0     C78341  -0.386   8.518   2.543  0.0776  0.0711  0.3859
  581MOL0     C78342  -0.391   8.578   2.687 -0.5430  0.1145 -0.2776
  581MOL0     C78343  -0.275   8.544   2.774 -0.2074  0.0428  0.0603
  581MOL0    Cl78344  -0.306   8.589   2.946 -0.1204 -0.3721  0.1919
  581MOL0     C78345  -0.239   8.020   2.035  0.1710 -0.2203 -0.0154
  581MOL0     C78346  -0.226   7.933   1.925 -0.9644 -1.0904  0.1682
  581MOL0     O78347  -0.392   8.003   1.645  0.2998 -0.6037 -0.6291
  581MOL0     C78348  -0.216   7.745   1.472 -0.0165 -1.0304  0.1069
  581MOL0     C78349  -0.222   7.685   1.348  0.1177 -0.2036  0.0633
  581MOL0     N78350  -0.248   7.216   0.715  0.6503 -0.2873  1.3608
  581MOL0     N78351  -0.239   7.100   0.756 -0.1519  0.0514  0.0454
  581MOL0     C78352   0.052   5.998   0.921 -0.1006  0.0395  0.0791
  581MOL0     C78353   0.040   5.871   0.875  0.1615 -0.2143  0.3061
  581MOL0     C78354   0.122   5.436   0.786 -0.2801  0.0755  0.0135
  581MOL0     C78355   0.157   5.426   0.650  0.5937  0.0508  0.0748
  581MOL0     C78356   0.147   5.309   0.577 -0.2445  0.1457 -0.1244
  581MOL0     C78357   0.087   5.197   0.637  0.7738  0.0888 -0.4320
  581MOL0     O78358   0.052   5.081   0.581 -0.4049  0.7402 -0.8657
  581MOL0     C78359   0.158   5.016   0.497 -0.4918 -0.7219 -1.2226
  581MOL0     C78360   0.132   4.862   0.504  0.4588 -0.6459 -0.6495
  581MOL0     C78361   0.245   4.790   0.450 -0.3834  0.0104 -0.9845
  581MOL0     C78362   0.260   4.644   0.491  0.0279 -0.2044 -0.6155
  581MOL0     C78363   0.167   4.560   0.414  0.0640 -0.0241 -0.0522
  581MOL0     C78364   0.073   4.502   0.355  0.5357  0.0265  0.2461
  581MOL0     C78365   0.055   5.204   0.775 -0.5476  0.2122  0.4127
  581MOL0     C78366   0.063   5.328   0.847  0.0468 -0.2926 -0.5821
  581MOL0     C78367   0.008   5.314   0.977  0.6618  0.1548 -0.4320
  581MOL0     H78368   0.079   5.686   1.150  2.8700  1.9807  3.3215
  581MOL0     H78369   0.101   5.919   1.243  1.7434 -1.8097  0.8724
  581MOL0     H78370   0.118   6.341   1.103  1.1830 -2.1326  1.3726
  581MOL0     H78371   0.120   6.268   0.950  0.4591  0.4163  0.4063
  581MOL0     H78372  -0.108   6.327   1.138  0.4305  3.1660 -0.6659
  581MOL0     H78373  -0.131   6.214   0.991  1.9476 -0.4827 -2.2288
  581MOL0     H78374  -0.165   6.489   1.007  0.0617  1.5754 -1.9748
  581MOL0     H78375  -0.157   6.388   0.869  1.4084 -2.0459  0.6426
  581MOL0     H78376   0.118   6.514   0.960 -0.8939  1.4849  1.9627
  581MOL0     H78377   0.046   6.482   0.799 -1.8126  1.1869 -0.6321
  581MOL0     H78378  -0.110   6.649   0.834 -1.2310  0.9898  1.6840
  581MOL0     H78379  -0.054   6.670   1.001 -1.0899 -2.1699 -0.4791
  581MOL0     H78380   0.157   6.768   0.923 -0.4608  1.7404  0.5955
  581MOL0     H78381   0.128   6.704   0.762  1.2886  0.0592  1.0569
  581MOL0     H78382  -0.042   6.849   0.704 -4.0450  1.1213  2.2551
  581MOL0     H78383   0.098   6.948   0.767 -0.7195  2.8935 -0.9528
  581MOL0     H78384  -0.167   6.865   0.874  1.0927 -2.6498  3.7098
  581MOL0     H78385  -0.053   6.960   0.984  2.5471  0.7557 -1.4973
  581MOL0     H78386   0.049   7.212   0.870  0.6233  1.1804 -0.7717
  581MOL0     H78387  -0.008   7.424   0.683  1.0449  1.1997  2.0591
  581MOL0     H78388  -0.181   7.463   0.681  0.0250  0.5979 -1.2911
  581MOL0     H78389  -0.015   7.471   0.950  0.2481  0.2255  0.8088
  581MOL0     H78390  -0.042   7.601   0.829  3.4622 -1.5729 -0.7774
  581MOL0     H78391  -0.276   7.448   0.936  0.9866 -1.2466 -0.4417
  581MOL0     H78392  -0.279   7.621   0.895 -2.0508  1.8299  3.7529
  581MOL0     H78393  -0.128   7.680   1.066  0.8204 -1.5695 -2.5991
  581MOL0     H78394  -0.152   7.520   1.142  0.3650  0.4132 -0.6969
  581MOL0     H78395  -0.472   7.857   1.193  2.1081  1.7791  0.1039
  581MOL0     H78396  -0.454   7.979   1.379  0.1796  0.1927  0.3294
  581MOL0     H78397  -0.067   8.134   1.712  0.7735  0.4327  1.0364
  581MOL0     H78398  -0.097   8.294   1.894 -0.1206  0.3072  0.4379
  581MOL0     H78399  -0.334   8.380   2.015  1.8058 -1.4105 -0.7441
  581MOL0     H78400  -0.414   8.296   2.147 -0.9542 -0.9817 -0.8910
  581MOL0     H78401  -0.241   8.420   2.308  1.3543  2.9758  0.7289
  581MOL0     H78402  -0.174   8.488   2.164 -0.2979  1.0182 -0.4845
  581MOL0     H78403  -0.306   8.656   2.254  2.5874 -1.5883 -0.3049
  581MOL0     H78404  -0.390   8.589   2.118  3.4440  3.3333 -1.1025
  581MOL0     H78405  -0.509   8.435   2.298 -1.4805 -0.4641 -2.4107
  581MOL0     H78406  -0.573   8.586   2.256 -1.3796 -3.3535 -1.1376
  581MOL0     H78407  -0.588   8.573   2.490 -0.4235  0.7363  0.3870
  581MOL0     H78408  -0.484   8.692   2.446 -1.9258  0.9885  0.4670
  581MOL0     H78409  -0.398   8.410   2.556 -0.0899 -0.0270 -0.5028
  581MOL0     H78410  -0.284   8.538   2.510  0.7547  0.5420  2.6095
  581MOL0     H78411  -0.471   8.519   2.732  2.0319 -1.8180  2.0664
  581MOL0     H78412  -0.400   8.687   2.687 -0.5370  0.1462  1.6047
  581MOL0     H78413  -0.264   8.435   2.770 -0.2251 -0.1029  2.4127
  581MOL0     H78414  -0.185   8.591   2.734  0.2127 -0.4288  0.4489
  581MOL0     H78415  -0.289   7.980   2.123 -1.2700 -0.8149 -1.0641
  581MOL0     H78416  -0.275   7.837   1.934 -1.5614 -0.7161  1.0216
  581MOL0     H78417  -0.142   7.715   1.546  0.5983 -0.6329 -0.3398
  581MOL0     H78418  -0.154   7.601   1.339 -1.5652 -1.5836 -0.2729
  581MOL0     H78419   0.029   6.079   0.853 -0.6625 -1.5461 -1.7191
  581MOL0     H78420   0.010   5.855   0.772  2.8267 -1.3646 -0.3766
  581MOL0     H78421   0.194   5.517   0.605 -3.7465  0.8056 -2.6935
  581MOL0     H78422   0.173   5.313   0.472 -0.7213 -1.2128 -0.3159
  581MOL0     H78423   0.255   5.040   0.540  1.0764 -3.2949 -3.0541
  581MOL0     H78424   0.165   5.052   0.393 -1.2425  0.9054 -0.7491
  581MOL0     H78425   0.042   4.826   0.454  0.3704  1.1767 -1.8834
  581MOL0     H78426   0.125   4.850   0.612 -0.4842 -1.4871 -0.7868
  581MOL0     H78427   0.339   4.836   0.482  1.2004 -3.6616  0.1977
  581MOL0     H78428   0.250   4.784   0.341  1.0900  3.7296 -1.2697
  581MOL0     H78429   0.359   4.623   0.449 -0.5016  1.5348 -2.9050
  581MOL0     H78430   0.243   4.625   0.598 -1.3307  1.5104 -0.4772
  581MOL0     H78431   0.000   4.453   0.293 -2.8113  3.1170  1.3872
  581MOL0     H78432   0.033   5.109   0.821 -2.0948 -0.3947 -1.4483
  581MOL0     H78433  -0.002   5.410   1.030  0.8224  0.3656 -0.7794
  581MOL0     H78434  -0.097   5.283   0.971 -0.0891  2.3527  0.2393
  581MOL0     H78435   0.066   5.246   1.039  0.5775  1.0310  0.6500
  582MOL0     O78436   5.912   4.061   5.120 -0.4043  1.3045 -0.0347
  582MOL0     C78437   5.834   4.147   5.155  0.5590 -0.5773  0.4496
  582MOL0     O78438   5.855   4.254   5.245 -0.6950 -0.5488 -0.2079
  582MOL0     C78439   5.972   4.253   5.308 -0.5973 -0.0377  0.7510
  582MOL0     C78440   6.085   4.319   5.267 -0.6982 -0.1177  0.6090
  582MOL0     C78441   6.206   4.316   5.332 -0.7437  0.4094  0.4917
  582MOL0     C78442   6.213   4.238   5.450  0.3042  0.3745 -0.0134
  582MOL0     O78443   6.341   4.236   5.514  0.4032 -0.8168 -0.2116
  582MOL0     C78444   6.356   4.161   5.634 -0.8812  0.3940 -0.3859
  582MOL0     C78445   6.500   4.111   5.663 -0.0831 -0.2919  0.0207
  582MOL0     C78446   6.592   4.232   5.670  0.5463 -0.8475  0.1123
  582MOL0     C78447   6.732   4.186   5.704  0.1022 -0.0810 -0.4961
  582MOL0     C78448   6.832   4.301   5.746  0.6493  0.1956  0.4026
  582MOL0     C78449   6.970   4.272   5.674  0.1306  0.3639 -0.7581
  582MOL0     C78450   7.079   4.373   5.719 -0.6192 -0.3244  0.0263
  582MOL0     C78451   7.061   4.521   5.668  0.2301 -0.3713  0.0373
  582MOL0     N78452   7.192   4.585   5.689  0.4456 -0.2230  0.7534
  582MOL0     C78453   7.232   4.676   5.784  0.9581 -0.5134 -0.9585
  582MOL0     C78454   7.370   4.696   5.771  0.9060  0.8985 -0.1108
  582MOL0     C78455   7.459   4.758   5.880 -0.2180  0.4028  0.7974
  582MOL0     C78456   7.606   4.759   5.822 -0.1493 -0.2712  0.6557
  582MOL0     C78457   7.699   4.865   5.893 -0.3848  0.5929  0.4935
  582MOL0     C78458   7.806   4.905   5.787 -0.1197 -0.7288 -0.3247
  582MOL0     O78459   7.899   4.983   5.863 -0.3807  0.1994  0.3957
  582MOL0     C78460   8.011   5.030   5.800 -1.1650 -0.6033  0.3985
  582MOL0     C78461   8.107   5.075   5.888 -1.6579 -0.4096 -0.3875
  582MOL0     C78462   8.220   5.144   5.841  0.2379  0.7690 -0.8890
  582MOL0     C78463   8.254   5.152   5.701 -0.1131  0.1249  0.3773
  582MOL0     C78464   8.391   5.203   5.658 -0.2479 -0.2203  0.1568
  582MOL0     O78465   8.409   5.222   5.526  0.4218  0.9527  0.6866
  582MOL0     C78466   8.534   5.254   5.472 -0.8644  0.3106  0.5846
  582MOL0     C78467   8.524   5.329   5.350  0.5334  0.3553  0.0373
  582MOL0     C78468   8.637   5.373   5.280 -0.0227 -0.4350  0.3515
  582MOL0     C78469   8.761   5.350   5.332 -0.2836 -0.3379  0.9733
  582MOL0     O78470   8.872   5.377   5.250  0.8351  0.3423  0.4590
  582MOL0     C78471   9.009   5.390   5.292  0.2714  0.1303  0.9347
  582MOL0     C78472   9.031   5.507   5.391 -0.4580  0.6151  0.0944
  582MOL0     C78473   9.089   5.627   5.310  0.8211  0.0890  0.1843
  582MOL0     C78474   9.004   5.693   5.213  0.5304 -0.2541 -0.5870
  582MOL0     C78475   8.890   5.767   5.282  1.0377  0.0320  0.6653
  582MOL0     C78476   8.817   5.850   5.176  0.4511  0.0713 -0.1573
  582MOL0     C78477   8.697   5.765   5.115  0.2702 -0.7547  1.0358
  582MOL0     C78478   8.600   5.851   5.039 -0.4310 -0.5967 -0.3962
  582MOL0    Cl78479   8.471   5.768   4.942 -0.4844  0.0509  0.3328
  582MOL0     C78480   8.779   5.284   5.456  0.2445  0.0795  0.0818
  582MOL0     C78481   8.666   5.239   5.525  0.3609 -0.3733 -0.1266
  582MOL0     O78482   8.471   5.232   5.743 -0.0406  0.0818 -0.3608
  582MOL0     C78483   8.153   5.115   5.609 -0.1986 -0.0127  0.7956
  582MOL0     C78484   8.038   5.042   5.661  0.6491  0.4254 -0.3337
  582MOL0     N78485   7.406   4.612   5.664  0.1285 -1.0630  0.3204
  582MOL0     N78486   7.307   4.553   5.614  0.2573 -0.0052 -0.5343
  582MOL0     C78487   6.097   4.181   5.502 -0.0532  0.4121 -0.0998
  582MOL0     C78488   5.974   4.189   5.431 -0.0367  0.1599 -0.6779
  582MOL0     C78489   5.695   4.133   5.115  0.1341  0.2629  0.1153
  582MOL0     C78490   5.640   4.250   5.058  0.1635  0.1097 -0.8719
  582MOL0     C78491   5.507   4.239   5.004 -1.4953 -0.3815 -0.3908
  582MOL0     C78492   5.436   4.126   5.003  0.1952  1.6905  0.5087
  582MOL0     O78493   5.313   4.114   4.942 -0.3283 -0.7817 -0.0707
  582MOL0     C78494   5.222   4.200   5.007 -1.2201 -0.4400 -0.7424
  582MOL0     C78495   5.090   4.131   5.027  0.0600 -0.6979  0.1765
  582MOL0     C78496   5.094   4.036   5.146 -0.4846  1.2759 -0.6068
  582MOL0     C78497   4.978   3.924   5.141 -0.3816  0.3543  0.1861
  582MOL0     C78498   4.839   3.957   5.158 -0.7427 -0.3753  0.2730
  582MOL0     C78499   4.721   3.990   5.171 -0.0740  1.0529 -0.2161
  582MOL0     C78500   5.493   4.011   5.055 -1.1119 -0.7116 -0.4968
  582MOL0     C78501   5.626   4.016   5.106  0.6541  0.6983 -0.4998
  582MOL0     C78502   5.689   3.881   5.143 -0.0170 -0.6609 -0.1177
  582MOL0     H78503   6.069   4.378   5.178 -0.9403  0.3178  0.9388
  582MOL0     H78504   6.285   4.379   5.291 -0.1865 -0.7224 -0.2091
  582MOL0     H78505   6.338   4.226   5.720 -0.0518 -0.0238  0.1144
  582MOL0     H78506   6.298   4.068   5.643  0.5824 -0.4298  1.2923
  582MOL0     H78507   6.523   4.033   5.589  3.6804  2.7318 -2.4119
  582MOL0     H78508   6.500   4.049   5.752 -1.6338 -2.6861 -1.5372
  582MOL0     H78509   6.542   4.304   5.737  1.0830  1.7871 -2.1256
  582MOL0     H78510   6.596   4.276   5.570 -0.1974  2.7218  1.4982
  582MOL0     H78511   6.735   4.113   5.785 -3.5171 -0.1843 -0.3225
  582MOL0     H78512   6.765   4.130   5.616 -2.3656  3.1506 -3.8090
  582MOL0     H78513   6.794   4.399   5.714  1.1597 -0.8039 -4.0213
  582MOL0     H78514   6.833   4.299   5.855 -3.2232  1.6667  0.6183
  582MOL0     H78515   6.999   4.170   5.697  1.4216  0.6558 -1.0090
  582MOL0     H78516   6.963   4.283   5.565  2.2027 -2.8060 -1.3154
  582MOL0     H78517   7.174   4.327   5.693 -0.8473  0.8994 -3.5030
  582MOL0     H78518   7.092   4.378   5.827 -5.5338 -2.3640  1.0315
  582MOL0     H78519   7.046   4.530   5.559  2.7215 -1.9948 -0.5234
  582MOL0     H78520   6.977   4.579   5.708 -0.9940 -1.0050 -1.4927
  582MOL0     H78521   7.159   4.701   5.860  0.2274 -0.2668 -1.7189
  582MOL0     H78522   7.424   4.857   5.909 -2.8738 -0.8191  2.0220
  582MOL0     H78523   7.471   4.698   5.971  0.2396 -0.3403  0.2635
  582MOL0     H78524   7.653   4.660   5.822  1.1271  0.2900 -1.1506
  582MOL0     H78525   7.599   4.792   5.718  1.1259  5.4086  2.0797
  582MOL0     H78526   7.740   4.828   5.987  1.5409  1.4092  0.0320
  582MOL0     H78527   7.646   4.958   5.913 -4.0391 -0.7977 -1.7099
  582MOL0     H78528   7.752   4.954   5.705 -4.1048 -0.1820  2.3444
  582MOL0     H78529   7.864   4.820   5.750  1.2326  0.1935 -0.3576
  582MOL0     H78530   8.094   5.061   5.995  2.4482  1.1507  0.4833
  582MOL0     H78531   8.284   5.179   5.921  1.2221  1.7078 -2.0331
  582MOL0     H78532   8.432   5.336   5.294  0.0986  1.2948  0.8360
  582MOL0     H78533   8.623   5.391   5.174  0.8128 -1.1217  0.1128
  582MOL0     H78534   9.047   5.301   5.344  0.1687  0.5548  1.7590
  582MOL0     H78535   9.070   5.397   5.202 -0.0277 -0.0176  0.7160
  582MOL0     H78536   8.939   5.547   5.436 -0.1535  1.2503  0.1659
  582MOL0     H78537   9.098   5.467   5.467  0.7117  0.9372 -0.7259
  582MOL0     H78538   9.128   5.700   5.382 -0.1079 -1.8929  2.8568
  582MOL0     H78539   9.179   5.587   5.263  2.7050  2.5720  1.4322
  582MOL0     H78540   8.958   5.621   5.145  0.3181  0.8669 -1.6650
  582MOL0     H78541   9.059   5.764   5.149 -0.3471 -1.2274 -2.5084
  582MOL0     H78542   8.941   5.840   5.344  3.6011  0.4592 -1.7734
  582MOL0     H78543   8.826   5.701   5.342  0.8355  1.6464  2.3093
  582MOL0     H78544   8.786   5.941   5.227  0.1879 -0.7151  1.1157
  582MOL0     H78545   8.888   5.882   5.099  0.7526 -1.6481 -0.6423
  582MOL0     H78546   8.648   5.699   5.187  1.4479 -3.2279 -0.3181
  582MOL0     H78547   8.749   5.699   5.045 -1.6474  1.8059 -3.1445
  582MOL0     H78548   8.552   5.915   5.114 -0.6312 -0.8302 -0.3260
  582MOL0     H78549   8.644   5.925   4.972 -0.8080 -0.4065 -0.4399
  582MOL0     H78550   8.881   5.264   5.488  0.1709 -1.5193 -0.5679
  582MOL0     H78551   8.667   5.195   5.625  0.2590  0.1979  0.1309
  582MOL0     H78552   8.178   5.127   5.504 -1.9171  1.3923  0.5110
  582MOL0     H78553   7.966   5.012   5.586  0.6013 -0.8253  0.2027
  582MOL0     H78554   6.097   4.122   5.593  0.3208 -1.3217 -1.1840
  582MOL0     H78555   5.884   4.152   5.478 -0.1408  1.4510  0.2023
  582MOL0     H78556   5.688   4.347   5.061 -1.1768  0.8862  3.6311
  582MOL0     H78557   5.457   4.324   4.959 -0.1105  0.2728 -0.7420
  582MOL0     H78558   5.223   4.291   4.947  0.7630  0.1527  0.1046
  582MOL0     H78559   5.263   4.235   5.103 -0.0842 -1.5913 -0.7876
  582MOL0     H78560   5.058   4.075   4.938  0.1602 -1.5120  0.6395
  582MOL0     H78561   5.027   4.216   5.052  3.2567  2.2998 -1.0329
  582MOL0     H78562   5.085   4.080   5.245 -1.0094 -1.2931  0.5602
  582MOL0     H78563   5.192   3.988   5.148 -0.4452  1.2080  3.7476
  582MOL0     H78564   4.987   3.861   5.052  0.3420  2.0560 -1.0076
  582MOL0     H78565   5.007   3.868   5.230 -3.5514  0.8739  1.7022
  582MOL0     H78566   4.625   4.037   5.166 -0.2625  0.7089  0.1728
  582MOL0     H78567   5.436   3.919   5.048 -3.4153  0.6740 -0.9743
  582MOL0     H78568   5.744   3.878   5.238 -0.5225 -2.5640  0.1440
  582MOL0     H78569   5.607   3.809   5.152  0.6135 -1.5776 -1.3738
  582MOL0     H78570   5.763   3.849   5.069 -0.2899 -1.3698 -0.0951
  583MOL0     O78571  10.937   4.783   6.722  0.0386 -0.0921  0.5303
  583MOL0     C78572  10.919   4.718   6.822 -0.3914 -0.7415 -0.6599
  583MOL0     O78573  10.916   4.578   6.825 -0.4706 -0.0300 -0.5998
  583MOL0     C78574  10.900   4.513   6.703  0.0506  1.3217 -0.2270
  583MOL0     C78575  11.001   4.421   6.661  0.3138 -0.4317 -1.5606
  583MOL0     C78576  10.997   4.358   6.541  0.4131  0.3376  0.1707
  583MOL0     C78577  10.879   4.375   6.471  0.3546  0.4759  0.4744
  583MOL0     O78578  10.855   4.292   6.368 -0.2275  0.0286  0.7258
  583MOL0     C78579  10.891   4.360   6.240 -0.1575 -0.3522  0.1966
  583MOL0     C78580  10.892   4.262   6.123 -0.4417  0.4375 -0.4061
  583MOL0     C78581  10.960   4.129   6.147 -0.2935  0.6460 -0.4375
  583MOL0     C78582  11.030   4.074   6.024 -0.4486 -0.0346 -0.2365
  583MOL0     C78583  11.090   3.936   6.022 -0.1160  0.5540  0.0521
  583MOL0     C78584  10.991   3.831   5.955  0.9615 -0.7738  0.1037
  583MOL0     C78585  11.004   3.692   6.008 -0.5865 -1.2852  0.3429
  583MOL0     C78586  10.939   3.583   5.928  0.5103 -0.4125  0.4375
  583MOL0     N78587  10.789   3.588   5.922  0.2663  0.3442  0.1815
  583MOL0     C78588  10.703   3.578   6.026  0.1141  0.2489  0.4432
  583MOL0     C78589  10.587   3.629   5.982 -0.2222  0.0344  1.1812
  583MOL0     C78590  10.473   3.636   6.063  0.2360 -0.4178 -0.1930
  583MOL0     C78591  10.359   3.714   5.986 -0.5319  0.6422 -0.0260
  583MOL0     C78592  10.229   3.639   6.011 -0.9445 -0.5782 -0.0438
  583MOL0     C78593  10.101   3.705   5.947 -0.7551  0.0700 -1.0397
  583MOL0     O78594  10.044   3.827   6.020 -0.4218  0.7819  0.0559
  583MOL0     C78595  10.065   3.955   5.975  0.2434 -0.9472 -0.7022
  583MOL0     C78596   9.994   4.052   6.038  0.1758  0.6306 -0.7424
  583MOL0     C78597   9.999   4.184   6.012  0.1968  0.5060  0.2637
  583MOL0     C78598  10.078   4.234   5.916 -0.5108  0.3321  0.8749
  583MOL0     C78599  10.084   4.377   5.879  0.1481  0.0467 -1.1014
  583MOL0     O78600  10.193   4.419   5.810  0.2007  0.0902  0.2610
  583MOL0     C78601  10.201   4.549   5.775 -0.4350 -0.5913  1.9601
  583MOL0     C78602  10.095   4.630   5.731 -0.0051  0.4449 -0.3191
  583MOL0     C78603  10.123   4.758   5.684  0.2837  0.1207 -0.2283
  583MOL0     C78604  10.252   4.812   5.696 -0.2291  0.6858  0.2150
  583MOL0     O78605  10.286   4.942   5.669 -0.1634  0.5001 -0.4635
  583MOL0     C78606  10.319   4.981   5.533  0.0595  1.7298  0.4923
  583MOL0     C78607  10.370   5.127   5.528 -0.0271  0.9687 -0.0850
  583MOL0     C78608  10.346   5.190   5.381 -0.5517  0.9876  0.3195
  583MOL0     C78609  10.433   5.313   5.355  0.2245  0.5157 -0.3162
  583MOL0     C78610  10.462   5.345   5.205 -0.2596  0.8557  0.2658
  583MOL0     C78611  10.571   5.251   5.149 -0.5452 -0.4394  0.3129
  583MOL0     C78612  10.709   5.251   5.214 -0.2055  0.1394  0.5116
  583MOL0     C78613  10.773   5.389   5.206  0.8570  0.4311 -0.4419
  583MOL0    Cl78614  10.767   5.466   5.050 -0.5447 -0.1977 -0.3615
  583MOL0     C78615  10.361   4.732   5.742 -0.1707  1.2786  0.2700
  583MOL0     C78616  10.332   4.597   5.768  0.2893  0.3556  0.4475
  583MOL0     O78617   9.994   4.447   5.919 -0.4109 -0.5142  0.8381
  583MOL0     C78618  10.153   4.142   5.842  0.3536  0.1491 -0.6181
  583MOL0     C78619  10.154   4.006   5.882 -0.0981  0.7238  0.1839
  583MOL0     N78620  10.606   3.651   5.845 -0.4790 -0.4835  0.8344
  583MOL0     N78621  10.723   3.625   5.813  0.2088 -0.4249  0.0929
  583MOL0     C78622  10.769   4.450   6.515  0.3677  0.1875  0.0253
  583MOL0     C78623  10.778   4.522   6.630  0.3132  0.7411 -0.4321
  583MOL0     C78624  10.883   4.798   6.946 -0.3883 -0.0396 -0.1697
  583MOL0     C78625  10.923   4.744   7.064 -0.4014 -0.3170  0.0877
  583MOL0     C78626  10.893   4.799   7.183 -0.3967 -0.3610 -1.0381
  583MOL0     C78627  10.808   4.916   7.191 -0.4386 -0.1332 -0.3755
  583MOL0     O78628  10.753   4.960   7.308 -0.0796  0.4232  0.2204
  583MOL0     C78629  10.753   4.883   7.424  0.7037 -0.8534 -0.3726
  583MOL0     C78630  10.669   4.750   7.413 -0.0048 -0.8035 -0.2758
  583MOL0     C78631  10.646   4.701   7.562  0.0860  1.1303 -0.2318
  583MOL0     C78632  10.552   4.573   7.558  0.5660  0.3757  0.6692
  583MOL0     C78633  10.507   4.571   7.703  0.1379  0.0933  0.5573
  583MOL0     C78634  10.476   4.579   7.820 -0.5904  0.5383 -0.2688
  583MOL0     C78635  10.776   4.973   7.073  0.4756  0.6308 -0.5121
  583MOL0     C78636  10.805   4.918   6.944 -0.3970  1.2039  1.2369
  583MOL0     C78637  10.745   4.967   6.814  0.4546  0.5178  1.1364
  583MOL0     H78638  11.086   4.414   6.729  0.0213 -0.0968 -1.1500
  583MOL0     H78639  11.068   4.279   6.516 -1.8633 -0.8853 -3.3284
  583MOL0     H78640  10.821   4.441   6.219  1.8925  0.8948 -2.3822
  583MOL0     H78641  10.990   4.404   6.248  0.1218 -0.9592  0.1549
  583MOL0     H78642  10.936   4.315   6.037 -1.5666 -2.2755 -2.8142
  583MOL0     H78643  10.786   4.246   6.103 -0.7742  1.5768  0.3525
  583MOL0     H78644  10.884   4.051   6.157  0.5188 -0.3447 -1.7139
  583MOL0     H78645  11.029   4.131   6.233 -0.6859  1.8677 -0.1320
  583MOL0     H78646  10.960   4.081   5.941 -0.7139 -0.3283 -0.0417
  583MOL0     H78647  11.121   4.130   5.999  0.5208 -1.8113 -0.8971
  583MOL0     H78648  11.188   3.944   5.976  0.2024  2.2444  0.9520
  583MOL0     H78649  11.095   3.920   6.130  0.5401  0.8985  0.0764
  583MOL0     H78650  10.885   3.849   5.973  0.9193  1.3328 -1.8459
  583MOL0     H78651  11.006   3.826   5.847  1.0087 -1.5551  0.1437
  583MOL0     H78652  10.994   3.690   6.117  0.3887 -1.0710  0.4492
  583MOL0     H78653  11.110   3.673   5.992 -0.5085 -2.3286  1.8457
  583MOL0     H78654  10.970   3.601   5.825 -3.3189  0.5022 -0.7224
  583MOL0     H78655  10.966   3.482   5.959  0.3187  0.2230  2.9742
  583MOL0     H78656  10.733   3.555   6.128  1.2417 -2.9213 -0.4627
  583MOL0     H78657  10.437   3.536   6.088  0.9432 -0.8155 -0.7291
  583MOL0     H78658  10.495   3.700   6.149 -1.3745  1.2260 -0.9285
  583MOL0     H78659  10.355   3.819   6.017 -1.5526  0.5812  0.0641
  583MOL0     H78660  10.381   3.716   5.879 -1.1684 -2.7525 -0.3165
  583MOL0     H78661  10.205   3.626   6.117 -2.1907 -0.3213 -0.2751
  583MOL0     H78662  10.247   3.537   5.974  1.4619 -0.8996  1.7495
  583MOL0     H78663  10.024   3.628   5.940 -0.6269 -0.6034  2.7670
  583MOL0     H78664  10.123   3.736   5.844  1.0455  1.1908 -0.3606
  583MOL0     H78665   9.940   4.008   6.121  3.8602 -0.8847  1.0708
  583MOL0     H78666   9.940   4.245   6.080 -3.8472 -0.5924 -1.9352
  583MOL0     H78667   9.995   4.589   5.740 -0.7147  2.0920 -0.4278
  583MOL0     H78668  10.056   4.834   5.646  0.2739  0.8744  1.2128
  583MOL0     H78669  10.406   4.926   5.496 -0.2862  1.7615 -0.4092
  583MOL0     H78670  10.239   4.975   5.458  1.8304 -1.1400 -1.3398
  583MOL0     H78671  10.297   5.193   5.576 -0.0299  2.0931 -1.5744
  583MOL0     H78672  10.476   5.130   5.554  0.9620 -1.3772 -3.3640
  583MOL0     H78673  10.372   5.113   5.307 -0.6498  0.9694  0.3029
  583MOL0     H78674  10.242   5.220   5.366 -0.1910  1.4330 -1.5782
  583MOL0     H78675  10.523   5.310   5.417  1.1431 -0.4416 -1.6278
  583MOL0     H78676  10.374   5.393   5.401  0.4914  0.1024  0.7616
  583MOL0     H78677  10.514   5.441   5.209  0.7949  0.3332 -0.3319
  583MOL0     H78678  10.385   5.356   5.128 -1.6325  1.1274  1.6298
  583MOL0     H78679  10.542   5.146   5.163  1.9691 -0.8714  3.4815
  583MOL0     H78680  10.578   5.263   5.041  0.2159  0.9745  0.4907
  583MOL0     H78681  10.772   5.187   5.151 -0.6968 -0.7277  0.8796
  583MOL0     H78682  10.714   5.213   5.317  0.9857  1.2773  0.9066
  583MOL0     H78683  10.714   5.450   5.275 -1.2922  0.3243 -2.0780
  583MOL0     H78684  10.879   5.390   5.236  0.6596  0.6924  0.2546
  583MOL0     H78685  10.465   4.761   5.746  1.4574 -3.3640 -1.5737
  583MOL0     H78686  10.419   4.537   5.792  2.4860  1.9180 -2.7532
  583MOL0     H78687  10.210   4.177   5.757  0.7517 -0.7771 -0.7517
  583MOL0     H78688  10.203   3.928   5.824  0.3885  2.4576 -1.8863
  583MOL0     H78689  10.674   4.448   6.462 -0.0842 -0.1209  0.8389
  583MOL0     H78690  10.703   4.592   6.664 -0.2781 -1.3664  3.1866
  583MOL0     H78691  10.983   4.653   7.064 -0.1386 -0.1721  1.7657
  583MOL0     H78692  10.923   4.740   7.270  1.7130  0.3370 -1.2337
  583MOL0     H78693  10.704   4.950   7.496 -0.6969  0.0832 -2.1162
  583MOL0     H78694  10.855   4.870   7.461  0.2432 -1.0434  0.8752
  583MOL0     H78695  10.721   4.666   7.366  0.6726 -1.1383  1.0302
  583MOL0     H78696  10.572   4.777   7.370 -0.2877  2.4683  2.0532
  583MOL0     H78697  10.601   4.784   7.618  0.1995  0.4803  0.8584
  583MOL0     H78698  10.738   4.674   7.615  0.5378  0.2572 -1.4361
  583MOL0     H78699  10.471   4.586   7.485 -0.5692 -1.6717  1.4930
  583MOL0     H78700  10.596   4.482   7.517 -2.1056  0.1059 -1.9269
  583MOL0     H78701  10.458   4.569   7.925  1.5429 -0.1787  0.0690
  583MOL0     H78702  10.728   5.070   7.076  0.6988  0.7592 -0.9287
  583MOL0     H78703  10.829   5.004   6.755  0.3519 -0.4981  0.3141
  583MOL0     H78704  10.699   4.884   6.760  0.7907  0.8565  0.3175
  583MOL0     H78705  10.668   5.043   6.832  2.9860  3.0175  2.0382
  584MOL0     O78706   8.066   7.122   3.080 -0.3182  0.1685 -0.0544
  584MOL0     C78707   8.119   7.018   3.136  0.9156  0.1437  0.6663
  584MOL0     O78708   8.239   6.980   3.116  0.1016  0.1034 -0.5099
  584MOL0     C78709   8.329   7.074   3.064  0.3642 -0.0607 -0.4510
  584MOL0     C78710   8.401   7.161   3.139 -0.1786 -0.9519  0.1715
  584MOL0     C78711   8.506   7.230   3.072 -0.2377 -0.3182  0.0694
  584MOL0     C78712   8.532   7.219   2.934 -0.5802  0.6628  0.3394
  584MOL0     O78713   8.619   7.303   2.866 -0.0861  0.6762  0.8763
  584MOL0     C78714   8.580   7.348   2.730  0.1580  0.5361 -0.3868
  584MOL0     C78715   8.649   7.472   2.692  0.0082 -0.8007 -0.5152
  584MOL0     C78716   8.798   7.456   2.688  0.4111 -0.1259  0.8013
  584MOL0     C78717   8.857   7.601   2.649  0.9148  1.1217 -0.0719
  584MOL0     C78718   8.990   7.630   2.709 -0.3667  0.0638  1.2651
  584MOL0     C78719   9.093   7.518   2.713  0.2542 -0.1348  0.2087
  584MOL0     C78720   9.226   7.560   2.768  0.1267 -0.4886  0.2033
  584MOL0     C78721   9.329   7.441   2.787 -0.6041 -0.3106 -0.2026
  584MOL0     N78722   9.358   7.359   2.673 -0.3920 -0.1024  0.8346
  584MOL0     C78723   9.336   7.220   2.672  0.4132  0.6682  0.2280
  584MOL0     C78724   9.401   7.186   2.565  0.4298 -0.4060 -0.5463
  584MOL0     C78725   9.401   7.048   2.507 -0.0716  0.6438  0.4593
  584MOL0     C78726   9.294   7.008   2.415  0.1037 -0.4017  0.2403
  584MOL0     C78727   9.327   6.876   2.346  0.3876  0.3711  0.3727
  584MOL0     C78728   9.213   6.814   2.274 -0.5742 -0.3662  0.0742
  584MOL0     O78729   9.252   6.687   2.235 -0.3076  0.2917 -0.0491
  584MOL0     C78730   9.179   6.573   2.252 -1.1928 -0.6969 -0.2102
  584MOL0     C78731   9.047   6.568   2.275  0.1051  0.0629 -0.0884
  584MOL0     C78732   8.985   6.436   2.286  0.5191 -0.3127 -1.3601
  584MOL0     C78733   9.051   6.314   2.291  0.4942 -0.6621 -0.7496
  584MOL0     C78734   8.976   6.192   2.309  0.4218 -0.7979 -0.6537
  584MOL0     O78735   9.041   6.068   2.288  0.1779  0.1918  0.1493
  584MOL0     C78736   8.963   5.952   2.296  0.2616 -0.4872 -0.4025
  584MOL0     C78737   8.877   5.921   2.193 -1.0334  0.6644 -0.5201
  584MOL0     C78738   8.797   5.806   2.202 -0.0598  0.2193  0.5141
  584MOL0     C78739   8.803   5.717   2.310  0.2549  0.6093 -1.4018
  584MOL0     O78740   8.723   5.607   2.336 -0.3497 -0.2017  0.2576
  584MOL0     C78741   8.715   5.510   2.219  0.0616  0.1556  0.4222
  584MOL0     C78742   8.695   5.373   2.274 -0.4638 -0.8641  0.4203
  584MOL0     C78743   8.782   5.260   2.216  0.0609 -0.4292  0.2721
  584MOL0     C78744   8.710   5.127   2.223 -0.4697 -0.9931  0.2583
  584MOL0     C78745   8.793   5.018   2.157 -0.4206  0.2148  0.0076
  584MOL0     C78746   8.790   5.014   1.999  0.4800 -0.5865 -0.2156
  584MOL0     C78747   8.843   4.875   1.969 -0.0328  0.3048  0.1962
  584MOL0     C78748   8.740   4.764   1.970  0.0856  0.5728 -0.9022
  584MOL0    Cl78749   8.802   4.615   1.896 -0.1913 -0.2246  0.2943
  584MOL0     C78750   8.887   5.754   2.406  1.3519 -0.3986 -0.4444
  584MOL0     C78751   8.969   5.868   2.403 -0.7221  0.1960  1.0375
  584MOL0     O78752   8.859   6.198   2.345  0.5007 -0.4121 -0.5015
  584MOL0     C78753   9.184   6.326   2.278 -1.7803  0.0305  0.2443
  584MOL0     C78754   9.251   6.452   2.258 -0.5136 -0.0665 -0.1612
  584MOL0     N78755   9.461   7.295   2.498 -0.0219 -0.6396 -0.0121
  584MOL0     N78756   9.430   7.399   2.564 -0.2131 -0.0853  0.3234
  584MOL0     C78757   8.456   7.123   2.867 -0.4971  0.4725 -0.2527
  584MOL0     C78758   8.356   7.054   2.929 -0.4089  0.0322 -1.3558
  584MOL0     C78759   8.039   6.931   3.216  0.2519 -0.0777 -0.3545
  584MOL0     C78760   8.013   6.811   3.160 -0.0253  0.1413  0.5273
  584MOL0     C78761   7.944   6.723   3.243 -0.0332 -0.0147 -1.0611
  584MOL0     C78762   7.903   6.754   3.368  0.2630  0.9573  0.5515
  584MOL0     O78763   7.809   6.673   3.423  0.1721 -0.1403  0.8769
  584MOL0     C78764   7.843   6.613   3.549 -0.8039 -0.5287  0.2463
  584MOL0     C78765   7.734   6.537   3.607  1.1692  0.6282 -0.2421
  584MOL0     C78766   7.781   6.408   3.679  0.5325 -0.2368 -0.0348
  584MOL0     C78767   7.648   6.353   3.733 -0.0896  0.1233 -0.1671
  584MOL0     C78768   7.682   6.225   3.796  0.9438 -0.0439 -0.2117
  584MOL0     C78769   7.703   6.126   3.863  0.1553  0.5604 -0.0940
  584MOL0     C78770   7.939   6.870   3.418  0.1735 -0.3096 -1.6682
  584MOL0     C78771   8.028   6.956   3.353 -0.1132 -0.4140  0.6234
  584MOL0     C78772   8.086   7.078   3.425 -0.6396  0.5096  0.3523
  584MOL0     H78773   8.380   7.164   3.246  0.6485 -2.3906  0.4043
  584MOL0     H78774   8.562   7.304   3.128  0.2493 -0.5452 -0.1077
  584MOL0     H78775   8.612   7.271   2.659 -0.9180 -2.2989  1.9933
  584MOL0     H78776   8.473   7.368   2.730  0.0067 -0.1825 -1.2337
  584MOL0     H78777   8.616   7.543   2.767 -0.8510 -0.8861 -0.8066
  584MOL0     H78778   8.624   7.485   2.586 -2.0478  0.2266  0.0608
  584MOL0     H78779   8.836   7.383   2.616  0.8525  0.3134  0.5793
  584MOL0     H78780   8.828   7.430   2.790 -2.9341 -0.4767  1.8393
  584MOL0     H78781   8.854   7.601   2.540 -2.0344  1.1522 -0.0619
  584MOL0     H78782   8.785   7.679   2.677 -0.6796  0.3023 -1.7128
  584MOL0     H78783   9.037   7.717   2.662 -1.0774 -0.6388 -0.8502
  584MOL0     H78784   8.975   7.645   2.817 -1.0729  1.0604  1.0396
  584MOL0     H78785   9.067   7.424   2.762  1.4510 -0.4321  0.3143
  584MOL0     H78786   9.118   7.486   2.612 -1.2681 -1.4515  0.2162
  584MOL0     H78787   9.210   7.600   2.868 -0.1741 -1.0924  0.3985
  584MOL0     H78788   9.268   7.642   2.709 -1.7241  1.6582  1.6942
  584MOL0     H78789   9.418   7.478   2.839 -0.8341 -2.1867  1.6850
  584MOL0     H78790   9.304   7.368   2.865  1.6289 -1.5535 -0.5505
  584MOL0     H78791   9.289   7.151   2.741 -4.1830 -3.5829 -5.9762
  584MOL0     H78792   9.474   7.071   2.429 -0.7902 -2.8350 -1.4354
  584MOL0     H78793   9.436   6.971   2.576 -0.1858 -2.0316 -2.2719
  584MOL0     H78794   9.207   6.995   2.480  1.4370  0.9379  2.4434
  584MOL0     H78795   9.289   7.086   2.337  1.1744 -0.8141 -0.2580
  584MOL0     H78796   9.356   6.812   2.430  0.5065  2.9043  2.4005
  584MOL0     H78797   9.414   6.896   2.282  1.8185 -2.6072  1.2367
  584MOL0     H78798   9.193   6.870   2.182 -0.7190  2.2014  1.5736
  584MOL0     H78799   9.129   6.808   2.343 -0.2108 -0.9314  0.4739
  584MOL0     H78800   8.984   6.656   2.266  1.3102  0.7741 -2.3874
  584MOL0     H78801   8.876   6.442   2.288  0.6104  2.1840 -0.6052
  584MOL0     H78802   8.872   5.982   2.104 -0.7168  0.2011 -0.8626
  584MOL0     H78803   8.722   5.790   2.125 -0.3011 -0.0690  0.8060
  584MOL0     H78804   8.633   5.535   2.151 -0.8542 -3.4011  0.0540
  584MOL0     H78805   8.801   5.520   2.152 -1.3697  0.9771 -1.3852
  584MOL0     H78806   8.710   5.363   2.382  0.6584  0.6851  0.4462
  584MOL0     H78807   8.590   5.353   2.252  0.0410 -3.1355 -0.0843
  584MOL0     H78808   8.808   5.285   2.113 -0.9948 -3.0628 -0.7033
  584MOL0     H78809   8.871   5.255   2.280  0.3561 -0.4208 -0.1370
  584MOL0     H78810   8.612   5.135   2.173 -1.3159 -0.4960  1.9288
  584MOL0     H78811   8.699   5.102   2.329 -0.2577 -0.3065  0.4513
  584MOL0     H78812   8.746   4.925   2.191  0.4351  0.0843  0.8904
  584MOL0     H78813   8.895   5.026   2.194 -0.7420  1.5762  0.6819
  584MOL0     H78814   8.691   5.030   1.955 -0.5777 -2.6340  1.2330
  584MOL0     H78815   8.856   5.082   1.945 -0.3713 -1.7515 -2.8622
  584MOL0     H78816   8.923   4.849   2.038 -1.6476  0.9662  2.4470
  584MOL0     H78817   8.885   4.884   1.868 -0.3317  1.5790  0.1649
  584MOL0     H78818   8.706   4.738   2.071  0.9994  0.3190 -0.6481
  584MOL0     H78819   8.649   4.793   1.917 -1.0657 -1.1559  0.0245
  584MOL0     H78820   8.902   5.704   2.501  1.7366 -1.8453 -1.2331
  584MOL0     H78821   9.046   5.892   2.476  3.1865  0.6889 -2.8463
  584MOL0     H78822   9.250   6.241   2.266  0.8006  1.4985  2.8285
  584MOL0     H78823   9.357   6.458   2.233 -0.4259  2.9509  0.6211
  584MOL0     H78824   8.470   7.105   2.761  2.3969 -0.4489  0.2082
  584MOL0     H78825   8.319   6.978   2.861  0.7118 -0.2093 -1.7189
  584MOL0     H78826   8.038   6.803   3.055 -0.4752 -4.1547  0.5669
  584MOL0     H78827   7.895   6.634   3.205 -2.4931  0.9195 -0.2648
  584MOL0     H78828   7.879   6.695   3.612 -3.1402  1.8408 -1.2969
  584MOL0     H78829   7.925   6.542   3.535 -1.8651 -1.4706 -1.4284
  584MOL0     H78830   7.679   6.502   3.520  0.6917  1.9458 -0.4959
  584MOL0     H78831   7.662   6.590   3.669 -2.4641 -1.3832 -2.3825
  584MOL0     H78832   7.846   6.443   3.760  0.3127  2.4482 -0.9368
  584MOL0     H78833   7.835   6.339   3.612  0.3512  0.5005 -0.9584
  584MOL0     H78834   7.616   6.419   3.815  0.4456  1.0754 -0.6989
  584MOL0     H78835   7.572   6.342   3.655 -0.6453 -3.6262  0.7194
  584MOL0     H78836   7.728   6.036   3.916 -0.1504  0.4068 -0.2065
  584MOL0     H78837   7.926   6.878   3.526 -0.6777 -2.6536 -1.5426
  584MOL0     H78838   8.107   7.051   3.528  0.4606 -2.0458 -0.4567
  584MOL0     H78839   8.173   7.123   3.376  0.0981  2.0028  2.8691
  584MOL0     H78840   8.016   7.162   3.421 -0.1261  0.9408  0.2949
  585MOL0     O78841   8.550   5.759   7.791 -0.6255  0.3066  0.7965
  585MOL0     C78842   8.584   5.860   7.854 -0.5717 -0.2366 -0.2463
  585MOL0     O78843   8.493   5.948   7.907 -0.6828 -0.0834 -0.4256
  585MOL0     C78844   8.373   5.896   7.948 -0.3440 -0.0263  0.6652
  585MOL0     C78845   8.274   5.985   7.975 -1.1496  0.6963 -0.7475
  585MOL0     C78846   8.145   5.933   8.017 -0.5710  0.5612 -0.1276
  585MOL0     C78847   8.110   5.797   8.028 -0.3089  0.1343  0.1245
  585MOL0     O78848   7.980   5.750   8.056  0.0898  0.2047  0.6490
  585MOL0     C78849   7.900   5.823   8.151  0.8781  1.1071  0.6408
  585MOL0     C78850   7.756   5.755   8.152 -0.6557  0.6285 -0.6125
  585MOL0     C78851   7.696   5.745   8.013 -0.3304  0.3053 -0.0443
  585MOL0     C78852   7.678   5.880   7.933  0.2440 -0.1887 -0.0050
  585MOL0     C78853   7.577   5.878   7.816 -0.3719  0.1480  1.2142
  585MOL0     C78854   7.503   6.011   7.793  0.4871 -0.4247  0.2524
  585MOL0     C78855   7.410   6.017   7.667  0.4555 -1.4801 -0.3562
  585MOL0     C78856   7.354   6.159   7.639  0.4738  0.5943 -0.2890
  585MOL0     N78857   7.281   6.221   7.757  0.8240 -0.0717  0.0868
  585MOL0     C78858   7.336   6.301   7.853 -0.7258 -0.5654  0.3904
  585MOL0     C78859   7.240   6.337   7.929 -0.2048  0.5460  0.0516
  585MOL0     C78860   7.246   6.426   8.052  0.7007 -0.0422 -0.1720
  585MOL0     C78861   7.153   6.553   8.019 -0.3207  0.5888  0.0213
  585MOL0     C78862   7.159   6.656   8.129 -0.2655 -0.1211 -0.1729
  585MOL0     C78863   7.304   6.696   8.177 -0.4029 -0.1352 -0.1972
  585MOL0     O78864   7.361   6.586   8.250  0.5261  0.6434  0.8380
  585MOL0     C78865   7.497   6.582   8.274 -0.3568 -0.8312 -0.0334
  585MOL0     C78866   7.578   6.689   8.224 -0.6564 -0.1507 -0.0892
  585MOL0     C78867   7.717   6.679   8.239 -0.7941 -0.0115  0.1161
  585MOL0     C78868   7.774   6.570   8.303 -0.0208  0.5020  0.2291
  585MOL0     C78869   7.920   6.566   8.320 -0.8313  0.1022  0.5281
  585MOL0     O78870   7.976   6.686   8.311 -0.3064 -0.4841 -0.9308
  585MOL0     C78871   8.098   6.699   8.376  0.4396 -0.0259  0.0347
  585MOL0     C78872   8.102   6.709   8.515  0.8722  0.9245  0.2120
  585MOL0     C78873   8.224   6.733   8.571  0.6844  0.3163  0.0567
  585MOL0     C78874   8.340   6.743   8.496  0.1204 -0.3172  0.4956
  585MOL0     O78875   8.457   6.770   8.560 -0.1641  0.3349 -1.0355
  585MOL0     C78876   8.585   6.774   8.498 -0.5002 -0.7245 -0.6326
  585MOL0     C78877   8.709   6.780   8.592  0.2241 -0.7813 -0.7313
  585MOL0     C78878   8.698   6.901   8.685 -0.3356 -0.9518 -1.1544
  585MOL0     C78879   8.826   6.927   8.765 -0.0705 -0.1676 -0.1332
  585MOL0     C78880   8.806   7.040   8.869 -0.0727 -0.0382  0.1012
  585MOL0     C78881   8.927   7.040   8.964  0.2639 -0.1592  0.4557
  585MOL0     C78882   8.960   7.160   9.053 -0.0893 -0.5057  0.1329
  585MOL0     C78883   9.061   7.256   8.995  0.3435 -0.4457  0.5535
  585MOL0    Cl78884   9.008   7.336   8.842  0.9085  0.1886  0.1830
  585MOL0     C78885   8.337   6.714   8.356  0.7901 -0.0417 -0.5099
  585MOL0     C78886   8.214   6.700   8.296 -0.0425  0.3789  0.1636
  585MOL0     O78887   7.973   6.461   8.363  0.1901 -0.8438  0.2777
  585MOL0     C78888   7.693   6.462   8.345  0.5316  0.5092 -0.3520
  585MOL0     C78889   7.557   6.483   8.340  0.2932  0.8272 -0.1639
  585MOL0     N78890   7.122   6.279   7.887 -0.5949  0.1493  0.7014
  585MOL0     N78891   7.148   6.208   7.787  0.2952  0.1288 -0.1075
  585MOL0     C78892   8.215   5.718   7.994 -0.1545  0.1676  0.5289
  585MOL0     C78893   8.342   5.760   7.962 -0.2945 -0.5186  0.2646
  585MOL0     C78894   8.733   5.895   7.847  1.1804  0.0789  0.6537
  585MOL0     C78895   8.821   5.797   7.814 -0.4575 -1.0218 -1.0239
  585MOL0     C78896   8.956   5.815   7.842 -0.5585 -0.3047  0.5427
  585MOL0     C78897   9.009   5.940   7.888 -0.6600 -0.2894  0.3672
  585MOL0     O78898   9.146   5.949   7.896  0.5343  0.2001  0.4364
  585MOL0     C78899   9.235   5.916   7.791 -0.5235 -0.1131 -0.1145
  585MOL0     C78900   9.249   6.039   7.699 -0.2784 -0.0721  0.6514
  585MOL0     C78901   9.263   6.171   7.761  0.7001 -0.2500 -0.0390
  585MOL0     C78902   9.398   6.199   7.822 -1.2227 -0.5739 -0.2194
  585MOL0     C78903   9.400   6.336   7.884 -0.1473  0.1584 -0.9963
  585MOL0     C78904   9.395   6.445   7.937  0.7851 -0.3590  0.9790
  585MOL0     C78905   8.929   6.047   7.920 -0.2135 -1.1079  0.5910
  585MOL0     C78906   8.788   6.033   7.891 -0.2146  0.3302  0.6935
  585MOL0     C78907   8.713   6.154   7.927  0.6065  0.7042 -0.4166
  585MOL0     H78908   8.288   6.086   7.939  3.7339  0.3201 -0.4577
  585MOL0     H78909   8.067   6.005   8.040 -1.6345 -0.6242  0.0992
  585MOL0     H78910   7.942   5.824   8.252 -0.4298 -0.4221  1.2453
  585MOL0     H78911   7.895   5.928   8.120 -0.3769 -0.5056 -6.3131
  585MOL0     H78912   7.687   5.818   8.209  0.2466  1.6546 -0.6174
  585MOL0     H78913   7.762   5.662   8.209 -0.6129  0.6501 -0.5814
  585MOL0     H78914   7.596   5.702   8.025 -0.2832  0.2842  0.2784
  585MOL0     H78915   7.760   5.681   7.951 -1.1132  1.1247 -1.7699
  585MOL0     H78916   7.641   5.944   8.014 -0.3124 -0.9045  0.3189
  585MOL0     H78917   7.778   5.915   7.906 -0.0471 -1.2265 -2.7889
  585MOL0     H78918   7.640   5.844   7.733 -3.0133 -0.1710 -0.8006
  585MOL0     H78919   7.501   5.800   7.825  0.6938 -1.2592 -1.0433
  585MOL0     H78920   7.439   6.029   7.880  1.7839  2.8664  0.6949
  585MOL0     H78921   7.573   6.095   7.795  1.7073 -1.4447  2.1960
  585MOL0     H78922   7.323   5.955   7.688  0.6364 -1.8623 -0.7133
  585MOL0     H78923   7.457   5.964   7.583 -1.5164 -2.3388 -0.9753
  585MOL0     H78924   7.438   6.227   7.618 -0.7732  2.6578  1.0590
  585MOL0     H78925   7.281   6.155   7.558 -3.0532 -5.1387  2.5159
  585MOL0     H78926   7.439   6.331   7.866  0.0301 -1.0070 -3.5356
  585MOL0     H78927   7.211   6.362   8.134  0.3101  1.2146  0.6738
  585MOL0     H78928   7.350   6.458   8.060  0.4067  1.4080 -1.6861
  585MOL0     H78929   7.184   6.595   7.923  1.5181  1.1401  0.8089
  585MOL0     H78930   7.050   6.518   8.013 -1.8427  4.0452  2.7239
  585MOL0     H78931   7.114   6.614   8.219  0.3734  0.8165  0.6101
  585MOL0     H78932   7.107   6.750   8.110  1.4907  0.9074 -0.1991
  585MOL0     H78933   7.317   6.780   8.246  2.7064 -0.4974 -0.1917
  585MOL0     H78934   7.368   6.707   8.089 -0.6621 -0.3976 -0.4185
  585MOL0     H78935   7.544   6.772   8.163  1.7226  1.5069  0.7330
  585MOL0     H78936   7.790   6.748   8.198 -1.5381  0.8305  0.1826
  585MOL0     H78937   8.015   6.706   8.581  2.0683 -0.1891  1.8184
  585MOL0     H78938   8.224   6.758   8.676 -1.1452  4.1109 -0.6826
  585MOL0     H78939   8.596   6.692   8.427  1.0111 -3.9330  2.9721
  585MOL0     H78940   8.586   6.867   8.440 -3.3020  0.8468  1.5951
  585MOL0     H78941   8.696   6.689   8.651 -1.9372 -0.2111 -0.2530
  585MOL0     H78942   8.804   6.793   8.539 -0.3489  0.9422 -1.3939
  585MOL0     H78943   8.661   6.989   8.633  1.9482  1.2710  0.7035
  585MOL0     H78944   8.619   6.884   8.758  0.1186  3.3981  0.6108
  585MOL0     H78945   8.900   6.955   8.690 -1.1060 -2.2096 -2.0331
  585MOL0     H78946   8.840   6.834   8.821  2.2959 -1.2184 -2.2519
  585MOL0     H78947   8.713   7.025   8.923  0.3683 -0.7325  0.6872
  585MOL0     H78948   8.786   7.141   8.832 -3.4281 -0.4344  0.5760
  585MOL0     H78949   8.895   6.965   9.037 -0.5467 -0.6914 -0.4261
  585MOL0     H78950   9.016   6.998   8.917  0.9766 -0.2224  1.8066
  585MOL0     H78951   8.988   7.133   9.155  0.6252 -0.0091  0.0753
  585MOL0     H78952   8.863   7.208   9.063 -0.1157 -0.4611 -0.3243
  585MOL0     H78953   9.089   7.334   9.066 -0.9364  1.2643 -0.7390
  585MOL0     H78954   9.153   7.203   8.967  2.4609  1.6703  3.0410
  585MOL0     H78955   8.426   6.740   8.300  0.8200  3.0670  0.7800
  585MOL0     H78956   8.210   6.703   8.188 -4.0254  0.3316  0.1509
  585MOL0     H78957   7.748   6.382   8.394  1.6728  2.4472  1.7256
  585MOL0     H78958   7.490   6.405   8.373  0.0888  2.6516  4.3700
  585MOL0     H78959   8.198   5.611   7.993  3.3152 -0.4684  0.0374
  585MOL0     H78960   8.401   5.671   7.944 -0.1030 -0.4696  0.6353
  585MOL0     H78961   8.794   5.698   7.777  1.2045 -1.5315 -0.9588
  585MOL0     H78962   9.023   5.730   7.831  0.1198 -0.1771  2.9793
  585MOL0     H78963   9.199   5.842   7.720 -2.6719  1.4717 -0.7965
  585MOL0     H78964   9.331   5.899   7.839 -0.3530  2.8608  0.8176
  585MOL0     H78965   9.173   6.043   7.621  1.8734  1.7294 -1.5221
  585MOL0     H78966   9.331   6.009   7.633 -2.8393 -0.0616 -2.8148
  585MOL0     H78967   9.188   6.188   7.837  1.4097 -1.8519  1.0737
  585MOL0     H78968   9.229   6.240   7.684  0.3447  0.3396  0.6423
  585MOL0     H78969   9.419   6.120   7.895 -0.3266 -0.1806 -0.0435
  585MOL0     H78970   9.471   6.193   7.741 -2.3434  2.3916 -1.5776
  585MOL0     H78971   9.386   6.545   7.973 -1.4328  0.0704 -0.5507
  585MOL0     H78972   8.967   6.143   7.956  1.3521 -0.6753 -1.9501
  585MOL0     H78973   8.684   6.151   8.032 -0.1835 -1.4285 -0.6340
  585MOL0     H78974   8.768   6.247   7.912  1.3180  0.1769 -1.2160
  585MOL0     H78975   8.624   6.155   7.862  0.6092 -0.3601 -0.4510
  586MOL0     O78976   4.659   6.524   4.448 -0.4324 -0.2264  0.6831
  586MOL0     C78977   4.644   6.644   4.472 -0.6562  0.7473 -0.0484
  586MOL0     O78978   4.536   6.702   4.526  0.4323  0.1985 -0.3712
  586MOL0     C78979   4.423   6.628   4.557 -0.6023  0.0370 -0.3783
  586MOL0     C78980   4.351   6.547   4.457  0.5782 -0.7449 -0.4159
  586MOL0     C78981   4.252   6.456   4.501 -0.3900 -0.1565 -0.1462
  586MOL0     C78982   4.219   6.448   4.637 -1.0425 -0.6893 -0.5312
  586MOL0     O78983   4.111   6.363   4.667  0.2870 -0.2174 -0.0661
  586MOL0     C78984   4.154   6.229   4.682 -0.0056  0.1272 -0.2211
  586MOL0     C78985   4.032   6.141   4.715  0.1812 -0.4597  0.1950
  586MOL0     C78986   4.064   5.998   4.740 -0.3596 -0.1032  0.2062
  586MOL0     C78987   4.165   5.934   4.633 -0.6751 -0.2161 -0.7828
  586MOL0     C78988   4.181   5.782   4.652 -0.7796  1.1454  0.5617
  586MOL0     C78989   4.093   5.688   4.564 -0.7834 -1.0412  0.3017
  586MOL0     C78990   3.945   5.722   4.554  0.2592  0.2493  0.2734
  586MOL0     C78991   3.876   5.618   4.473 -0.7560  0.5374  0.5907
  586MOL0     N78992   3.732   5.627   4.483 -0.2485  0.2168  0.8941
  586MOL0     C78993   3.656   5.744   4.463 -0.3992 -0.0246 -0.5936
  586MOL0     C78994   3.532   5.692   4.460  1.5352  0.1863 -0.7583
  586MOL0     C78995   3.417   5.800   4.454 -0.9408 -0.3701  0.5365
  586MOL0     C78996   3.309   5.751   4.361  0.5856  0.5630  0.1340
  586MOL0     C78997   3.222   5.646   4.432 -0.1292  0.7927  1.0227
  586MOL0     C78998   3.210   5.510   4.358  0.2652 -0.7872  0.7487
  586MOL0     O78999   3.102   5.445   4.416 -0.4558  0.3443 -0.4932
  586MOL0     C79000   3.131   5.377   4.537  0.0595  0.5974 -0.5104
  586MOL0     C79001   3.255   5.340   4.599  0.5481  0.4483  0.7668
  586MOL0     C79002   3.249   5.273   4.719 -0.4660  0.1189  0.3092
  586MOL0     C79003   3.134   5.201   4.756  0.0281  0.3321 -0.1230
  586MOL0     C79004   3.131   5.104   4.866 -0.1466 -0.4766  0.7775
  586MOL0     O79005   3.224   5.125   4.964  0.2069 -0.7453 -0.1731
  586MOL0     C79006   3.238   5.055   5.077  0.3233 -0.6257 -0.6731
  586MOL0     C79007   3.184   4.929   5.107 -0.9072 -0.1614 -0.1471
  586MOL0     C79008   3.213   4.867   5.231 -0.6495  0.7239  0.5546
  586MOL0     C79009   3.296   4.927   5.330 -0.6166 -0.2583 -1.0978
  586MOL0     O79010   3.323   4.858   5.445  0.2009  0.6511  0.6334
  586MOL0     C79011   3.427   4.927   5.526 -0.4237 -0.3818  0.4357
  586MOL0     C79012   3.373   5.019   5.633 -0.8698  1.0728 -0.2029
  586MOL0     C79013   3.465   5.112   5.719 -0.0061  0.1371 -0.4067
  586MOL0     C79014   3.386   5.229   5.785  0.2632 -0.5257  1.4547
  586MOL0     C79015   3.466   5.343   5.844 -0.8290  0.1734 -0.2936
  586MOL0     C79016   3.379   5.430   5.937 -0.5971  0.6723  0.2413
  586MOL0     C79017   3.472   5.542   5.966 -0.0818 -0.9142  0.8280
  586MOL0     C79018   3.409   5.670   6.031  0.3192 -0.0161  0.1816
  586MOL0    Cl79019   3.293   5.739   5.910  0.0528  0.1264 -0.0704
  586MOL0     C79020   3.340   5.058   5.300 -0.2842  0.2263  0.0191
  586MOL0     C79021   3.307   5.121   5.186  0.3229 -0.2582  0.3069
  586MOL0     O79022   3.042   5.018   4.861  0.0356  0.6510  0.6491
  586MOL0     C79023   3.011   5.247   4.703 -0.5180 -1.3461 -1.2442
  586MOL0     C79024   3.013   5.336   4.598  0.1624  0.3276 -0.2377
  586MOL0     N79025   3.533   5.563   4.491 -0.1063 -0.6630  0.6719
  586MOL0     N79026   3.649   5.521   4.501  0.0044 -0.5015 -0.3899
  586MOL0     C79027   4.288   6.531   4.731  0.2908 -0.1241  0.5864
  586MOL0     C79028   4.386   6.615   4.690  0.3005  0.1462 -0.2292
  586MOL0     C79029   4.747   6.741   4.436  0.0165  0.2328 -0.2923
  586MOL0     C79030   4.717   6.868   4.406 -0.0461  0.0668 -0.0146
  586MOL0     C79031   4.811   6.969   4.389  0.2596 -0.0731  0.7716
  586MOL0     C79032   4.947   6.930   4.391 -0.7031 -0.6285  0.0411
  586MOL0     O79033   5.029   7.037   4.373  0.0937  0.8278 -0.0868
  586MOL0     C79034   5.165   7.020   4.381  0.3634  0.9331  0.9198
  586MOL0     C79035   5.243   7.150   4.363 -0.3516 -0.1175  0.3304
  586MOL0     C79036   5.390   7.123   4.343 -0.3424  0.0743 -0.6822
  586MOL0     C79037   5.463   7.233   4.273 -0.2784  0.3061 -0.0751
  586MOL0     C79038   5.611   7.212   4.286  0.2672 -0.4564  0.1845
  586MOL0     C79039   5.726   7.182   4.307  0.6091 -0.2021  0.0707
  586MOL0     C79040   4.986   6.798   4.415 -0.0763  0.5531  0.2018
  586MOL0     C79041   4.887   6.695   4.433  0.5048 -0.6965 -0.8375
  586MOL0     C79042   4.934   6.545   4.432 -0.1989  0.3368 -0.7946
  586MOL0     H79043   4.384   6.552   4.354  1.3627  1.1339 -0.1167
  586MOL0     H79044   4.193   6.404   4.426  1.7488 -1.5080 -0.9664
  586MOL0     H79045   4.196   6.191   4.588  1.0396  1.5883 -0.3813
  586MOL0     H79046   4.229   6.213   4.760  0.6708 -0.0899 -0.8987
  586MOL0     H79047   3.970   6.158   4.626  0.3984  2.4335  0.5091
  586MOL0     H79048   3.969   6.184   4.793 -0.0314 -0.0809 -0.1819
  586MOL0     H79049   3.980   5.929   4.753  0.7877 -1.7488 -0.7415
  586MOL0     H79050   4.125   5.998   4.832  0.1631  0.2575 -0.1311
  586MOL0     H79051   4.139   5.960   4.530  1.8805  4.3206 -0.5694
  586MOL0     H79052   4.264   5.981   4.626 -0.0013 -1.5111 -0.1983
  586MOL0     H79053   4.284   5.757   4.628 -0.2881  2.4456  1.2240
  586MOL0     H79054   4.149   5.759   4.754  1.8673  0.9054  1.3941
  586MOL0     H79055   4.128   5.704   4.462  2.2644 -2.8181  0.9234
  586MOL0     H79056   4.095   5.584   4.597 -0.6865 -1.6939 -1.6112
  586MOL0     H79057   3.923   5.820   4.510 -2.5337 -0.3401  0.1182
  586MOL0     H79058   3.896   5.719   4.652  0.4033 -2.5917  0.3578
  586MOL0     H79059   3.914   5.622   4.371 -2.4034 -0.3146 -0.0980
  586MOL0     H79060   3.908   5.519   4.508  1.3044  0.4906 -1.1874
  586MOL0     H79061   3.686   5.847   4.450  1.0789 -0.5304 -1.3713
  586MOL0     H79062   3.374   5.835   4.548  0.2445 -0.1549  1.0233
  586MOL0     H79063   3.469   5.888   4.416 -0.7993  0.2222  2.0317
  586MOL0     H79064   3.239   5.831   4.336 -1.1762 -1.3475 -1.3522
  586MOL0     H79065   3.338   5.706   4.266  0.3770  0.8469 -0.0642
  586MOL0     H79066   3.123   5.691   4.427 -1.4573 -1.9323  0.9814
  586MOL0     H79067   3.231   5.630   4.540 -2.8608 -1.4642  1.0382
  586MOL0     H79068   3.304   5.459   4.383 -0.0717 -1.3154  0.9526
  586MOL0     H79069   3.183   5.518   4.253  1.7750 -1.7966  0.2588
  586MOL0     H79070   3.347   5.377   4.554 -1.1716  0.7265 -2.9159
  586MOL0     H79071   3.346   5.264   4.767  0.0261  0.9624 -0.5003
  586MOL0     H79072   3.119   4.865   5.048 -2.2534 -2.4172  3.4476
  586MOL0     H79073   3.185   4.765   5.256 -0.4629  0.9796  1.9011
  586MOL0     H79074   3.467   4.848   5.590 -0.7592 -0.5812  0.4008
  586MOL0     H79075   3.504   4.982   5.470  1.1508  0.0226  2.8609
  586MOL0     H79076   3.288   5.076   5.593 -1.8459  1.2557  2.0220
  586MOL0     H79077   3.334   4.952   5.710  1.7264 -1.0303 -0.5923
  586MOL0     H79078   3.531   5.060   5.789  2.5768 -0.0251 -2.7643
  586MOL0     H79079   3.540   5.163   5.658  1.7393 -0.8300  0.8533
  586MOL0     H79080   3.321   5.191   5.864 -0.5477  0.4685  1.2956
  586MOL0     H79081   3.319   5.274   5.710 -1.0101 -1.4252  2.0144
  586MOL0     H79082   3.509   5.408   5.767 -1.9313  3.4598  1.6576
  586MOL0     H79083   3.551   5.306   5.901 -0.0018  2.6087  0.1530
  586MOL0     H79084   3.289   5.469   5.889 -1.4974 -0.0914  1.2706
  586MOL0     H79085   3.355   5.382   6.032 -0.8605  0.8793  0.2802
  586MOL0     H79086   3.520   5.580   5.875  2.3867 -0.9743  2.0152
  586MOL0     H79087   3.559   5.522   6.030  0.8728  2.0341  0.5780
  586MOL0     H79088   3.359   5.638   6.123 -0.7282  2.2020  0.4353
  586MOL0     H79089   3.490   5.738   6.060 -1.8552  2.9570 -0.4023
  586MOL0     H79090   3.408   5.109   5.367 -0.1048 -2.0779  1.7436
  586MOL0     H79091   3.352   5.215   5.157  2.9076 -0.5615  2.8141
  586MOL0     H79092   2.914   5.218   4.742  0.4726 -1.7454  1.0538
  586MOL0     H79093   2.927   5.380   4.548  0.5482 -1.2188 -2.4059
  586MOL0     H79094   4.253   6.514   4.832 -0.1021 -1.8373  0.2008
  586MOL0     H79095   4.440   6.664   4.771 -4.3983  2.1948  2.0466
  586MOL0     H79096   4.613   6.899   4.414 -0.3222 -1.1581  1.4910
  586MOL0     H79097   4.766   7.067   4.381  3.8228  1.5371 -3.7951
  586MOL0     H79098   5.210   6.956   4.304  1.7601  1.2626  1.4218
  586MOL0     H79099   5.182   6.973   4.478 -1.0737  0.0714  0.7860
  586MOL0     H79100   5.231   7.211   4.452  2.6896 -1.1427  1.5866
  586MOL0     H79101   5.188   7.206   4.287  0.9013  2.2035  1.0467
  586MOL0     H79102   5.396   7.030   4.284 -0.3762 -0.9658  0.9002
  586MOL0     H79103   5.431   7.099   4.441 -3.3844  0.5457  0.8107
  586MOL0     H79104   5.431   7.230   4.168 -3.3339  0.8493  0.7348
  586MOL0     H79105   5.434   7.332   4.309 -1.0516  0.2100 -0.3884
  586MOL0     H79106   5.832   7.166   4.311  1.2812  2.6320 -2.6146
  586MOL0     H79107   5.093   6.776   4.415 -0.0584  0.3202  3.0740
  586MOL0     H79108   4.892   6.501   4.341 -1.0147 -1.1629  0.2814
  586MOL0     H79109   5.044   6.551   4.434 -0.0891 -0.7901  2.3906
  586MOL0     H79110   4.896   6.493   4.520  1.9928  1.9724  1.2449
  587MOL0     O79111   6.514   4.457   8.696 -0.4909 -0.1580 -0.7340
  587MOL0     C79112   6.544   4.565   8.650 -0.6182  0.6706  0.1544
  587MOL0     O79113   6.479   4.680   8.663 -0.3076 -0.3897  0.3372
  587MOL0     C79114   6.349   4.692   8.699  1.1838  0.3504  0.7640
  587MOL0     C79115   6.303   4.822   8.733  0.2075 -0.4121  0.0280
  587MOL0     C79116   6.181   4.851   8.794 -0.1550 -0.7718 -0.6068
  587MOL0     C79117   6.097   4.743   8.830  0.3938  0.1993 -0.6708
  587MOL0     O79118   5.983   4.754   8.911  0.4622  0.5348 -0.5623
  587MOL0     C79119   5.924   4.882   8.927  0.6482  0.4297  0.0717
  587MOL0     C79120   5.785   4.863   8.983 -0.5717  0.1095  0.3576
  587MOL0     C79121   5.696   4.806   8.874  0.5267 -0.0797  0.4357
  587MOL0     C79122   5.558   4.753   8.918 -0.6047 -0.5384  0.1267
  587MOL0     C79123   5.490   4.858   9.009  1.5161 -0.2026 -0.6207
  587MOL0     C79124   5.340   4.843   9.026  0.2636 -0.1102  1.9324
  587MOL0     C79125   5.262   4.923   9.129 -0.0644 -0.1177  0.4507
  587MOL0     C79126   5.175   4.832   9.227  0.6745 -0.3509 -0.4513
  587MOL0     N79127   5.114   4.916   9.333 -0.2023  0.1410 -0.2286
  587MOL0     C79128   5.009   4.991   9.311 -0.2006 -0.3048 -0.4153
  587MOL0     C79129   4.953   5.015   9.430  0.8593  0.1684  0.5606
  587MOL0     C79130   4.822   5.092   9.433  0.4287  0.5315  0.0380
  587MOL0     C79131   4.837   5.245   9.427  0.0293  0.7951  0.9503
  587MOL0     C79132   4.902   5.325   9.539  0.2870  0.0708  0.5748
  587MOL0     C79133   4.883   5.476   9.516 -0.5358  0.0623 -0.6291
  587MOL0     O79134   4.942   5.518   9.391 -0.5000  0.3643  0.1125
  587MOL0     C79135   5.074   5.487   9.358 -0.6113 -1.0534 -0.6496
  587MOL0     C79136   5.095   5.433   9.232  0.1309 -0.2344 -0.8341
  587MOL0     C79137   5.223   5.385   9.199  0.0860  0.2557 -0.1403
  587MOL0     C79138   5.335   5.400   9.296  0.7428  0.1812 -0.3138
  587MOL0     C79139   5.471   5.357   9.253 -0.8825  1.1256  0.3454
  587MOL0     O79140   5.575   5.402   9.321 -0.0443  0.6703 -0.4126
  587MOL0     C79141   5.699   5.371   9.264  1.1514 -0.5407 -0.3514
  587MOL0     C79142   5.758   5.239   9.284 -0.3399 -0.1061  1.0283
  587MOL0     C79143   5.889   5.222   9.236 -0.0216 -0.1877  0.1398
  587MOL0     C79144   5.977   5.320   9.189 -0.4107  0.7570  1.1703
  587MOL0     O79145   6.114   5.305   9.158 -0.5673 -0.1840  0.2121
  587MOL0     C79146   6.177   5.170   9.149  0.2106  0.1301 -1.0974
  587MOL0     C79147   6.320   5.179   9.095  0.1124  1.1779  0.0481
  587MOL0     C79148   6.306   5.235   8.953 -0.3693  0.1433 -0.4487
  587MOL0     C79149   6.418   5.195   8.864 -0.3122 -0.4854 -0.1116
  587MOL0     C79150   6.415   5.260   8.725  0.2426  0.4375  0.1044
  587MOL0     C79151   6.455   5.416   8.719  0.7798  0.5810  0.2454
  587MOL0     C79152   6.597   5.446   8.767 -0.4848  0.2250  0.3990
  587MOL0     C79153   6.717   5.387   8.689  0.5568  0.5493 -0.4682
  587MOL0    Cl79154   6.785   5.239   8.765  0.1848  0.3551 -0.2202
  587MOL0     C79155   5.927   5.451   9.194  0.4161 -0.3422  0.4031
  587MOL0     C79156   5.783   5.481   9.213 -0.6439  0.7192  0.2346
  587MOL0     O79157   5.479   5.287   9.150 -0.6028 -0.0196  0.2070
  587MOL0     C79158   5.308   5.467   9.415 -0.5258  0.6229 -0.8579
  587MOL0     C79159   5.177   5.501   9.454 -0.3023 -0.3786  0.2906
  587MOL0     N79160   5.020   4.963   9.528  0.1779 -0.3199  0.4844
  587MOL0     N79161   5.121   4.903   9.472  0.8807 -0.4367 -0.6390
  587MOL0     C79162   6.136   4.612   8.790  0.5981 -0.7244  0.5817
  587MOL0     C79163   6.260   4.593   8.730 -0.8073  0.0607  0.5708
  587MOL0     C79164   6.657   4.550   8.551 -0.1553  0.6119 -0.1225
  587MOL0     C79165   6.658   4.630   8.439  0.8444 -0.5374  0.3039
  587MOL0     C79166   6.752   4.613   8.335  0.5651  0.8343 -0.0252
  587MOL0     C79167   6.859   4.516   8.354 -1.2240 -0.5255 -0.2824
  587MOL0     O79168   6.957   4.514   8.258  0.3759  0.2306  0.3264
  587MOL0     C79169   7.071   4.600   8.275  0.5242  0.9668 -0.6013
  587MOL0     C79170   7.192   4.521   8.311  0.4105 -0.2781 -0.7824
  587MOL0     C79171   7.199   4.393   8.241 -0.0816 -0.6931  0.0199
  587MOL0     C79172   7.308   4.315   8.303 -0.8202  0.9171 -0.0376
  587MOL0     C79173   7.444   4.358   8.258 -0.4543  0.0089 -1.2138
  587MOL0     C79174   7.547   4.393   8.219 -0.3109  0.5630 -0.0330
  587MOL0     C79175   6.870   4.440   8.476  1.0911 -0.1126 -0.4766
  587MOL0     C79176   6.766   4.457   8.573  0.0715  0.1649 -0.2014
  587MOL0     C79177   6.791   4.393   8.698  0.2043 -0.6494  0.0024
  587MOL0     H79178   6.367   4.906   8.707  0.3880 -0.6459 -0.2799
  587MOL0     H79179   6.167   4.956   8.815  1.9439 -0.5344 -0.2123
  587MOL0     H79180   5.981   4.936   9.003  0.7401 -0.4897  0.6701
  587MOL0     H79181   5.919   4.928   8.828 -1.8508 -0.0544 -0.0984
  587MOL0     H79182   5.751   4.960   9.021 -3.1078 -0.2166 -0.8620
  587MOL0     H79183   5.785   4.794   9.068 -0.0931 -0.1232  0.1662
  587MOL0     H79184   5.747   4.723   8.823 -2.6126 -1.5560 -0.4994
  587MOL0     H79185   5.674   4.891   8.810  2.1383  0.3681  0.4192
  587MOL0     H79186   5.497   4.715   8.836 -1.6491 -0.5202  0.8794
  587MOL0     H79187   5.575   4.659   8.972  0.0486 -0.9971 -0.8512
  587MOL0     H79188   5.525   4.854   9.113  0.3199  0.4292 -0.1730
  587MOL0     H79189   5.520   4.963   9.001  0.7822  0.1305  0.6090
  587MOL0     H79190   5.290   4.849   8.929 -1.3548  1.8909  2.8227
  587MOL0     H79191   5.336   4.738   9.056 -3.2239 -1.4628 -2.3210
  587MOL0     H79192   5.203   4.995   9.071  0.3069 -0.3504 -0.2256
  587MOL0     H79193   5.340   4.980   9.179  0.0161  1.0355 -0.8997
  587MOL0     H79194   5.101   4.776   9.169 -0.4869  0.9554 -0.2671
  587MOL0     H79195   5.244   4.761   9.274  0.0172 -1.7676 -1.5448
  587MOL0     H79196   4.971   5.014   9.212 -0.9846 -2.0186 -0.5496
  587MOL0     H79197   4.767   5.062   9.343  3.2048 -2.2735 -0.8817
  587MOL0     H79198   4.772   5.076   9.528  1.7935  0.3948  0.7516
  587MOL0     H79199   4.876   5.284   9.333 -0.7230  0.2831  0.4099
  587MOL0     H79200   4.731   5.274   9.436 -0.2969  0.4636 -1.2375
  587MOL0     H79201   5.007   5.297   9.546 -0.1815 -2.3265 -0.6692
  587MOL0     H79202   4.862   5.308   9.640  1.8300  1.4882  1.4725
  587MOL0     H79203   4.928   5.535   9.597 -1.1300  0.5393 -0.6430
  587MOL0     H79204   4.775   5.489   9.513 -0.7795 -1.9199 -1.7450
  587MOL0     H79205   5.005   5.425   9.173 -1.7730 -0.0246  1.8540
  587MOL0     H79206   5.242   5.347   9.100  3.6671  1.5085 -0.0577
  587MOL0     H79207   5.706   5.160   9.338 -3.2212  1.0448  0.1415
  587MOL0     H79208   5.923   5.120   9.253  1.4387 -0.0868 -1.8119
  587MOL0     H79209   6.170   5.118   9.246  2.3791 -0.9536 -1.4562
  587MOL0     H79210   6.126   5.105   9.078 -1.0821  1.1808 -1.1610
  587MOL0     H79211   6.384   5.253   9.143  0.3717  0.9524  0.0466
  587MOL0     H79212   6.357   5.077   9.101  0.5754  1.3490  0.1372
  587MOL0     H79213   6.207   5.210   8.913  0.8324 -2.6449 -1.9600
  587MOL0     H79214   6.313   5.343   8.968 -0.4127  0.3363 -1.6824
  587MOL0     H79215   6.417   5.088   8.844  3.4495 -0.7829  0.5326
  587MOL0     H79216   6.514   5.223   8.908  0.5232 -0.4392 -1.8807
  587MOL0     H79217   6.315   5.256   8.680 -0.4112 -3.6647  1.5068
  587MOL0     H79218   6.476   5.206   8.652  0.4521  2.4636 -1.2945
  587MOL0     H79219   6.437   5.453   8.617  2.9530 -2.3548 -1.3501
  587MOL0     H79220   6.402   5.480   8.790  1.1827  0.7484  0.3974
  587MOL0     H79221   6.609   5.411   8.869  1.1738  0.5029  0.3272
  587MOL0     H79222   6.605   5.555   8.766  0.6500  0.1870  1.7850
  587MOL0     H79223   6.697   5.375   8.583  0.3973  3.3342 -0.8395
  587MOL0     H79224   6.798   5.460   8.677  0.6089  0.1643 -2.8219
  587MOL0     H79225   5.983   5.528   9.141 -1.0703  1.3676  1.1922
  587MOL0     H79226   5.743   5.581   9.197 -0.7377  0.5285 -0.7686
  587MOL0     H79227   5.393   5.483   9.481 -0.5104  0.3882 -0.8223
  587MOL0     H79228   5.160   5.550   9.549  0.2372  3.2215 -1.2926
  587MOL0     H79229   6.069   4.532   8.819 -0.5901 -0.5272 -1.4527
  587MOL0     H79230   6.286   4.489   8.710 -1.6129 -0.0245 -0.1056
  587MOL0     H79231   6.582   4.707   8.431  0.0203 -1.1809  1.6566
  587MOL0     H79232   6.751   4.679   8.248 -2.4375  2.5283  1.1683
  587MOL0     H79233   7.058   4.669   8.359 -1.1035 -0.3308  0.2714
  587MOL0     H79234   7.093   4.654   8.182  2.2796  2.2772  0.5159
  587MOL0     H79235   7.181   4.515   8.420  2.5431  0.9696 -0.4203
  587MOL0     H79236   7.284   4.578   8.295 -0.9801  1.9661 -1.2396
  587MOL0     H79237   7.204   4.411   8.134 -2.0904  1.8354  0.2687
  587MOL0     H79238   7.109   4.331   8.248  0.8562 -1.9676  1.7521
  587MOL0     H79239   7.297   4.337   8.410  0.3476  1.5556 -0.0387
  587MOL0     H79240   7.304   4.207   8.287  2.3659  0.5432  0.9262
  587MOL0     H79241   7.648   4.420   8.194 -0.1397 -0.1017 -0.0575
  587MOL0     H79242   6.958   4.380   8.496  1.0992  0.4827  1.4303
  587MOL0     H79243   6.893   4.361   8.721  0.1671 -1.4239 -0.8254
  587MOL0     H79244   6.778   4.462   8.782  2.4386 -0.9698  0.6608
  587MOL0     H79245   6.724   4.307   8.704 -1.9054  0.9526  0.6066
  588MOL0     O79246   6.679   4.564   9.610 -0.1075 -0.1113 -0.3505
  588MOL0     C79247   6.707   4.448   9.575 -0.8602 -1.0778  0.2596
  588MOL0     O79248   6.832   4.401   9.595  0.4189  0.0421  0.3957
  588MOL0     C79249   6.939   4.485   9.614 -1.1102  0.4303  1.0155
  588MOL0     C79250   6.942   4.621   9.654 -0.3681 -0.0632  0.2640
  588MOL0     C79251   7.057   4.687   9.678 -0.2831 -0.0362  0.5512
  588MOL0     C79252   7.188   4.625   9.664 -0.4233  1.5730  0.0100
  588MOL0     O79253   7.307   4.681   9.700 -0.6652 -0.1166  0.2274
  588MOL0     C79254   7.336   4.686   9.840 -0.5837 -0.3554  0.2543
  588MOL0     C79255   7.481   4.739   9.857 -0.2258  0.0558 -0.2884
  588MOL0     C79256   7.514   4.890   9.843 -0.2120 -0.7388  0.2594
  588MOL0     C79257   7.649   4.928   9.911 -0.0314  1.1577  0.1985
  588MOL0     C79258   7.684   5.076   9.902 -0.1082 -0.6128  0.0752
  588MOL0     C79259   7.826   5.125   9.910 -0.5088  0.2407 -0.7504
  588MOL0     C79260   7.904   5.091  10.045  0.7676  0.2511 -0.2944
  588MOL0     C79261   8.043   5.167  10.037 -0.3506  0.5459 -0.0624
  588MOL0     N79262   8.135   5.136  10.152  0.1171 -0.5368  0.3322
  588MOL0     C79263   8.204   5.018  10.154  0.7149 -0.5117  0.3659
  588MOL0     C79264   8.282   5.036  10.261  0.7080 -0.5114  0.1512
  588MOL0     C79265   8.358   4.928  10.321  0.7044  0.3037 -0.7853
  588MOL0     C79266   8.273   4.837  10.404  0.5659 -0.0501 -0.2452
  588MOL0     C79267   8.350   4.714  10.451 -0.3361 -1.0725  0.4862
  588MOL0     C79268   8.445   4.747  10.563 -0.0940  0.3485 -1.0906
  588MOL0     O79269   8.461   4.653  10.675 -0.6648  0.2298 -0.0692
  588MOL0     C79270   8.554   4.687  10.773 -0.2097  0.9727 -0.3547
  588MOL0     C79271   8.619   4.812  10.797 -0.1451  1.1270 -0.3153
  588MOL0     C79272   8.723   4.812  10.896  0.1608 -0.1504  0.0361
  588MOL0     C79273   8.768   4.692  10.966 -0.5355  0.0457  1.3799
  588MOL0     C79274   8.885   4.705  11.056  0.1213 -0.2787  0.4271
  588MOL0     O79275   8.899   4.829  11.115 -0.0208  1.2492 -0.0077
  588MOL0     C79276   9.009   4.854  11.198  0.3758 -0.2392 -0.0249
  588MOL0     C79277   8.993   4.928  11.320 -0.4905  0.2468  0.4166
  588MOL0     C79278   9.110   4.967  11.389 -0.2436 -0.3693  0.3835
  588MOL0     C79279   9.245   4.947  11.338 -0.5833 -0.4742 -0.7615
  588MOL0     O79280   9.348   4.996  11.419 -0.2420 -0.1570 -0.1957
  588MOL0     C79281   9.483   4.964  11.394  0.6614 -0.4366  0.7497
  588MOL0     C79282   9.518   4.825  11.431 -1.0838 -0.5816 -0.7187
  588MOL0     C79283   9.660   4.824  11.469  0.6772  0.7692  0.3650
  588MOL0     C79284   9.686   4.853  11.622 -0.0539  0.2362  0.3707
  588MOL0     C79285   9.841   4.881  11.624  0.2852 -0.1477 -0.5897
  588MOL0     C79286   9.895   4.997  11.545 -0.6091  0.1293  0.0163
  588MOL0     C79287   9.822   5.129  11.559 -0.4653  0.2985 -0.9261
  588MOL0     C79288   9.861   5.236  11.467 -0.0899 -0.5197  0.2885
  588MOL0    Cl79289  10.022   5.298  11.510  0.1390  0.0965  0.3042
  588MOL0     C79290   9.252   4.881  11.221  0.0463  0.8675  0.4614
  588MOL0     C79291   9.141   4.824  11.157  0.9285  0.0787  0.7875
  588MOL0     O79292   8.950   4.602  11.069  0.2461  0.0762 -0.2542
  588MOL0     C79293   8.696   4.575  10.935 -0.1097  0.3111 -0.3871
  588MOL0     C79294   8.585   4.578  10.854 -0.2293  0.6308 -0.1723
  588MOL0     N79295   8.261   5.166  10.312 -0.1873  0.3869  0.5057
  588MOL0     N79296   8.173   5.235  10.238 -0.3524  0.0117  0.5800
  588MOL0     C79297   7.188   4.495   9.613  0.3328  0.3413  0.0891
  588MOL0     C79298   7.066   4.424   9.587 -0.0456 -0.3657 -0.6442
  588MOL0     C79299   6.609   4.357   9.522 -0.9940  0.4155  0.5993
  588MOL0     C79300   6.496   4.422   9.477 -0.0763 -0.4959  0.3373
  588MOL0     C79301   6.385   4.345   9.462  0.7141 -0.1960  0.1132
  588MOL0     C79302   6.389   4.210   9.461  0.8471 -0.2187 -0.1716
  588MOL0     O79303   6.268   4.142   9.427 -0.0780 -0.4273  0.1075
  588MOL0     C79304   6.265   3.996   9.421 -0.2218  0.0166 -0.2934
  588MOL0     C79305   6.128   3.932   9.423  0.7907  0.1756  0.8752
  588MOL0     C79306   6.025   4.038   9.386 -0.3638  0.3230  0.3051
  588MOL0     C79307   5.881   3.991   9.404 -1.2164 -0.9892  0.2650
  588MOL0     C79308   5.855   3.879   9.312 -0.8167 -0.3131  0.5295
  588MOL0     C79309   5.839   3.809   9.217  0.5701 -0.0153  0.1221
  588MOL0     C79310   6.514   4.144   9.464 -0.2357 -0.3234  0.7134
  588MOL0     C79311   6.626   4.213   9.504 -0.3535 -0.5328  0.0819
  588MOL0     C79312   6.747   4.132   9.522  0.2081 -0.0732 -0.5663
  588MOL0     H79313   6.852   4.679   9.675 -1.6822 -2.1756  0.7940
  588MOL0     H79314   7.042   4.786   9.721 -2.8301 -1.1388  2.4709
  588MOL0     H79315   7.267   4.748   9.898  0.0620  0.5861  0.0317
  588MOL0     H79316   7.347   4.581   9.870 -2.4534 -0.3497  1.1099
  588MOL0     H79317   7.551   4.680   9.798  0.1111 -1.9736  1.9553
  588MOL0     H79318   7.517   4.701   9.954  1.9597 -1.3565 -1.5526
  588MOL0     H79319   7.436   4.955   9.883 -0.1996 -0.7995  0.3831
  588MOL0     H79320   7.514   4.918   9.738 -1.8878 -1.2015  0.1079
  588MOL0     H79321   7.646   4.889  10.013 -2.4409 -0.0737 -0.2491
  588MOL0     H79322   7.727   4.872   9.858 -0.1450  1.4906 -0.3280
  588MOL0     H79323   7.650   5.108   9.803  0.3364 -3.1529 -0.9602
  588MOL0     H79324   7.627   5.132   9.977  1.6471  0.0866  0.9404
  588MOL0     H79325   7.876   5.085   9.822 -0.4715  1.3512 -1.2558
  588MOL0     H79326   7.832   5.233   9.894 -2.3306  0.4759 -0.1060
  588MOL0     H79327   7.904   4.983  10.057 -0.0068  0.4317  1.7542
  588MOL0     H79328   7.857   5.136  10.133  1.7738  1.5766 -0.3911
  588MOL0     H79329   8.100   5.158   9.944  0.7791 -3.3932  0.8376
  588MOL0     H79330   8.027   5.275  10.047  5.0217  1.6787 -0.8831
  588MOL0     H79331   8.201   4.925  10.099  2.7245 -0.3750 -0.0521
  588MOL0     H79332   8.409   4.875  10.240  0.6493 -0.1568 -0.5188
  588MOL0     H79333   8.441   4.971  10.378  2.2466 -3.4791  0.1124
  588MOL0     H79334   8.212   4.889  10.478 -1.9168  0.2313 -2.3604
  588MOL0     H79335   8.196   4.796  10.338 -1.0632  2.1571  0.1418
  588MOL0     H79336   8.413   4.686  10.366 -0.8655 -1.6861  0.2918
  588MOL0     H79337   8.282   4.633  10.479 -2.9805  1.1978  1.0852
  588MOL0     H79338   8.407   4.840  10.606  0.3354 -0.4546  1.1949
  588MOL0     H79339   8.543   4.773  10.520  0.6676  1.0296  0.9089
  588MOL0     H79340   8.592   4.898  10.737  2.3166  0.6090 -2.3089
  588MOL0     H79341   8.779   4.904  10.904 -0.1292 -0.0607  1.3153
  588MOL0     H79342   8.898   4.960  11.362 -1.6869 -1.9365 -0.4293
  588MOL0     H79343   9.109   5.018  11.485  2.1792 -1.4954  1.0885
  588MOL0     H79344   9.499   4.977  11.287 -1.2398  1.2021  0.6130
  588MOL0     H79345   9.540   5.040  11.449 -0.3678  2.7620 -2.2479
  588MOL0     H79346   9.455   4.803  11.518  0.7578 -2.1323  0.2845
  588MOL0     H79347   9.488   4.756  11.352 -0.7895  1.1102 -2.3786
  588MOL0     H79348   9.694   4.724  11.439  0.0756  1.2096 -1.9936
  588MOL0     H79349   9.718   4.893  11.406  3.6931 -0.2804  1.7628
  588MOL0     H79350   9.663   4.765  11.682 -1.6092  3.0067  4.2039
  588MOL0     H79351   9.626   4.933  11.666  0.9764 -1.2615  4.9797
  588MOL0     H79352   9.883   4.790  11.581 -2.0067 -1.6629  0.1988
  588MOL0     H79353   9.864   4.893  11.730 -1.3916 -4.1466  0.3918
  588MOL0     H79354   9.997   5.013  11.582 -0.1752  3.8501 -2.2837
  588MOL0     H79355   9.910   4.970  11.440 -1.1877  0.6040 -0.1963
  588MOL0     H79356   9.830   5.170  11.661  0.6767 -1.8328 -0.0886
  588MOL0     H79357   9.718   5.111  11.533 -0.8656  2.5880 -1.1258
  588MOL0     H79358   9.872   5.200  11.364 -0.1593  0.7495 -0.1862
  588MOL0     H79359   9.796   5.324  11.465  0.0505 -0.4273 -1.1479
  588MOL0     H79360   9.350   4.852  11.185 -1.2701 -6.0115  0.9834
  588MOL0     H79361   9.158   4.772  11.063  1.3753  1.4831  0.0682
  588MOL0     H79362   8.724   4.480  10.980 -0.0025  0.4521 -0.1563
  588MOL0     H79363   8.517   4.495  10.833 -2.2592  2.4431 -1.1351
  588MOL0     H79364   7.282   4.443   9.597 -0.7243 -0.9863 -2.2863
  588MOL0     H79365   7.074   4.324   9.547  1.2134  0.1069 -1.6675
  588MOL0     H79366   6.490   4.529   9.465  0.9363 -0.7047 -3.3240
  588MOL0     H79367   6.289   4.393   9.443  1.4197  0.5147 -1.8375
  588MOL0     H79368   6.330   3.953   9.498  0.6999 -1.4942 -1.8408
  588MOL0     H79369   6.309   3.985   9.321 -0.0013  0.8767 -0.3044
  588MOL0     H79370   6.106   3.897   9.525 -0.4430 -0.0026  0.5668
  588MOL0     H79371   6.125   3.841   9.363  1.4932  1.2169 -0.7899
  588MOL0     H79372   6.042   4.075   9.285  1.7609  2.6429  1.3940
  588MOL0     H79373   6.030   4.127   9.450 -0.7644 -0.2850  1.2048
  588MOL0     H79374   5.851   3.971   9.507 -2.5846 -0.2742  0.0318
  588MOL0     H79375   5.812   4.073   9.383  0.2726  0.9452  2.4692
  588MOL0     H79376   5.818   3.743   9.135  1.4331  0.6822 -0.6792
  588MOL0     H79377   6.523   4.037   9.443 -1.2898 -0.3452  0.2644
  588MOL0     H79378   6.828   4.177   9.464  0.7896  1.1112  1.0858
  588MOL0     H79379   6.786   4.140   9.624  1.5019  6.2093 -1.1024
  588MOL0     H79380   6.728   4.026   9.503  0.5190 -0.1785 -0.2955
  589MOL0     O79381   1.541  11.091   6.653  0.9318 -0.5598  0.3688
  589MOL0     C79382   1.560  10.975   6.676 -0.2237  0.6449  0.4942
  589MOL0     O79383   1.682  10.919   6.688 -0.3915 -0.3107  0.0030
  589MOL0     C79384   1.788  11.000   6.707  0.4772 -0.2356 -0.2174
  589MOL0     C79385   1.835  11.001   6.838 -0.0649  0.0075  0.0268
  589MOL0     C79386   1.949  11.078   6.871  0.8518 -0.2687  0.7163
  589MOL0     C79387   2.004  11.160   6.777 -1.2429  0.0459 -0.2589
  589MOL0     O79388   2.114  11.229   6.826  1.1323 -0.4994  0.0695
  589MOL0     C79389   2.160  11.341   6.754 -0.6446 -0.6416  0.1119
  589MOL0     C79390   2.284  11.321   6.662 -0.8401  0.0476 -0.8785
  589MOL0     C79391   2.319  11.451   6.589  1.0980 -0.1732 -0.3806
  589MOL0     C79392   2.469  11.446   6.556  0.0071 -0.2456  0.2021
  589MOL0     C79393   2.498  11.585   6.511  0.5597 -0.0935 -0.0439
  589MOL0     C79394   2.489  11.710   6.607  0.1698  0.0256  0.0894
  589MOL0     C79395   2.557  11.836   6.550 -0.0469  0.7396 -0.1543
  589MOL0     C79396   2.711  11.831   6.544  0.2759  0.5299 -0.6960
  589MOL0     N79397   2.763  11.956   6.482 -0.1179 -0.9226 -0.6055
  589MOL0     C79398   2.828  12.048   6.565 -0.0308 -0.2309  0.3934
  589MOL0     C79399   2.917  12.115   6.484 -0.7204 -0.1031  0.3953
  589MOL0     C79400   2.989  12.236   6.530  0.1849 -0.3922  0.0361
  589MOL0     C79401   3.132  12.241   6.479  0.4615 -0.4649 -0.5797
  589MOL0     C79402   3.229  12.137   6.540 -0.5941  0.6493  0.0974
  589MOL0     C79403   3.255  12.183   6.683 -0.0643  0.3535 -0.4574
  589MOL0     O79404   3.362  12.282   6.705 -0.6210  0.7134 -0.6666
  589MOL0     C79405   3.475  12.250   6.769 -0.2043 -0.0357  0.2008
  589MOL0     C79406   3.533  12.351   6.850  0.2849 -0.4194 -1.3128
  589MOL0     C79407   3.654  12.332   6.909  0.7004 -0.4442 -1.0112
  589MOL0     C79408   3.718  12.205   6.902  0.6845  0.2839 -0.1029
  589MOL0     C79409   3.840  12.175   6.977  0.6498  0.8299 -0.0102
  589MOL0     O79410   3.901  12.290   7.022 -0.4535 -0.1723  0.1200
  589MOL0     C79411   4.021  12.271   7.082 -0.3895 -0.1841  0.4673
  589MOL0     C79412   4.133  12.252   6.995 -0.4791 -0.2704 -0.5247
  589MOL0     C79413   4.263  12.269   7.042 -0.8136 -0.5819  0.3069
  589MOL0     C79414   4.286  12.320   7.170 -0.2962 -0.1425 -0.5018
  589MOL0     O79415   4.409  12.348   7.228 -0.2125 -0.3218  0.1911
  589MOL0     C79416   4.530  12.306   7.164 -0.2919 -0.3244  0.4514
  589MOL0     C79417   4.649  12.376   7.234 -0.0318  0.1315  0.4737
  589MOL0     C79418   4.776  12.352   7.151  0.1162  0.3407  0.0100
  589MOL0     C79419   4.860  12.247   7.221 -0.4195  0.2150  0.6707
  589MOL0     C79420   4.990  12.222   7.137 -0.1782 -1.0660 -0.2737
  589MOL0     C79421   5.072  12.110   7.198  0.1980  0.3633 -0.6112
  589MOL0     C79422   5.217  12.106   7.159 -0.4284  0.2890  0.2588
  589MOL0     C79423   5.306  12.218   7.231 -0.8542  0.8462 -0.9460
  589MOL0    Cl79424   5.317  12.367   7.148 -0.1578 -0.1858 -0.7194
  589MOL0     C79425   4.179  12.342   7.262  1.2370 -0.5445 -0.3550
  589MOL0     C79426   4.048  12.311   7.213 -0.4657  1.1554 -0.8723
  589MOL0     O79427   3.871  12.056   7.001 -0.2214  0.1378 -0.8588
  589MOL0     C79428   3.660  12.107   6.815 -0.3641 -0.1945  0.6371
  589MOL0     C79429   3.539  12.130   6.747 -0.3329 -0.4143 -0.5639
  589MOL0     N79430   2.905  12.068   6.360 -0.3382  0.0216  1.0057
  589MOL0     N79431   2.815  11.976   6.357  0.3086 -0.9569 -0.1625
  589MOL0     C79432   1.954  11.156   6.643 -0.5372 -0.8388 -0.1810
  589MOL0     C79433   1.840  11.076   6.605 -1.1980  0.1899 -0.6270
  589MOL0     C79434   1.449  10.877   6.656  0.8953  0.1723  0.6221
  589MOL0     C79435   1.481  10.738   6.636  0.2262 -0.7146  0.7276
  589MOL0     C79436   1.388  10.634   6.631 -0.0874 -0.5392  0.2851
  589MOL0     C79437   1.251  10.670   6.626  0.1852 -0.0279 -0.1507
  589MOL0     O79438   1.168  10.558   6.625 -0.2851  0.6927  0.1311
  589MOL0     C79439   1.030  10.586   6.595  0.1079  0.1814  0.7608
  589MOL0     C79440   0.955  10.455   6.586 -0.2832  0.8471  0.1504
  589MOL0     C79441   0.810  10.458   6.557 -0.0406 -0.1205 -0.2823
  589MOL0     C79442   0.725  10.437   6.683 -0.0684  0.7869 -0.4306
  589MOL0     C79443   0.587  10.429   6.635  0.0229  0.0815 -0.0730
  589MOL0     C79444   0.472  10.420   6.599 -0.6647 -0.0263 -1.2536
  589MOL0     C79445   1.216  10.809   6.630  0.3536 -0.2420 -0.2283
  589MOL0     C79446   1.309  10.914   6.649 -0.3309  0.8573 -0.1437
  589MOL0     C79447   1.256  11.055   6.617 -0.1344  1.1072 -0.2246
  589MOL0     H79448   1.783  10.938   6.910  0.2398  0.7783  0.9409
  589MOL0     H79449   1.983  11.069   6.974 -2.1933 -1.9473  1.7006
  589MOL0     H79450   2.077  11.397   6.710 -1.0977  0.7709  2.5390
  589MOL0     H79451   2.189  11.417   6.828 -2.4404  1.7210 -1.4748
  589MOL0     H79452   2.262  11.236   6.598 -2.3822  0.4120 -0.8666
  589MOL0     H79453   2.367  11.294   6.729 -1.7032 -0.4658  0.0127
  589MOL0     H79454   2.298  11.539   6.650 -2.1909 -2.1052  1.5366
  589MOL0     H79455   2.267  11.476   6.496  1.1964  2.3712  0.1686
  589MOL0     H79456   2.530  11.427   6.644 -0.4726 -2.4267  0.1212
  589MOL0     H79457   2.497  11.372   6.480  5.5916  2.9949 -1.4041
  589MOL0     H79458   2.602  11.573   6.481  0.2589  0.7748 -1.5417
  589MOL0     H79459   2.447  11.607   6.417 -2.9137 -1.9078  1.2133
  589MOL0     H79460   2.383  11.723   6.632 -0.2501  2.5167 -2.4659
  589MOL0     H79461   2.540  11.677   6.698  0.5565 -2.8179 -1.0625
  589MOL0     H79462   2.534  11.923   6.610 -1.0820 -0.9012  1.9440
  589MOL0     H79463   2.521  11.850   6.447 -0.3606 -0.8730 -0.2986
  589MOL0     H79464   2.760  11.816   6.641  0.6297  0.8809 -0.8151
  589MOL0     H79465   2.750  11.754   6.477  1.4526  1.0435 -0.6278
  589MOL0     H79466   2.815  12.047   6.673 -2.0436 -1.2776  0.1845
  589MOL0     H79467   2.925  12.319   6.499 -0.2506 -0.4472  0.7783
  589MOL0     H79468   2.990  12.234   6.639 -0.5268 -0.7790  0.0474
  589MOL0     H79469   3.118  12.226   6.371 -0.7017  1.1240 -0.6923
  589MOL0     H79470   3.169  12.343   6.495  1.2508 -0.7413 -0.6005
  589MOL0     H79471   3.323  12.127   6.484 -2.8944 -2.0502 -3.7506
  589MOL0     H79472   3.185  12.038   6.549 -3.1898  1.6035 -1.0357
  589MOL0     H79473   3.274  12.094   6.745  1.6991  1.1493  0.2251
  589MOL0     H79474   3.166  12.222   6.732 -0.4363 -2.2157  1.0946
  589MOL0     H79475   3.485  12.448   6.860  2.9173  0.7277  3.1297
  589MOL0     H79476   3.690  12.410   6.976 -0.8776 -3.0138  3.2714
  589MOL0     H79477   4.117  12.231   6.889 -2.9193  1.4328 -0.5846
  589MOL0     H79478   4.341  12.255   6.968  2.1402  2.4760  2.5314
  589MOL0     H79479   4.548  12.199   7.177 -0.1151 -0.4855 -0.9582
  589MOL0     H79480   4.525  12.325   7.057  0.0991  2.5083  0.8507
  589MOL0     H79481   4.621  12.481   7.242 -1.2938 -0.2002  0.6662
  589MOL0     H79482   4.663  12.346   7.338  2.4986 -2.6411 -0.5169
  589MOL0     H79483   4.744  12.316   7.053 -0.8956 -1.3279  0.9168
  589MOL0     H79484   4.838  12.440   7.130 -0.9160  1.3449  1.0438
  589MOL0     H79485   4.801  12.154   7.220 -2.1833  1.3014  0.4345
  589MOL0     H79486   4.887  12.273   7.324 -0.2276  0.2554  0.6107
  589MOL0     H79487   5.032  12.323   7.134 -3.8545  0.5913 -3.4050
  589MOL0     H79488   4.965  12.191   7.035 -0.3292 -1.0388 -0.2455
  589MOL0     H79489   5.068  12.114   7.307  2.6823 -0.7270 -0.4336
  589MOL0     H79490   5.019  12.017   7.172  1.5590  0.5363 -4.7657
  589MOL0     H79491   5.223  12.122   7.051  0.6270  0.4671  0.3270
  589MOL0     H79492   5.259  12.008   7.184  0.1996  0.6333  0.5698
  589MOL0     H79493   5.271  12.231   7.334  2.3494  2.5459  0.0625
  589MOL0     H79494   5.409  12.183   7.244 -1.1372  0.4008  0.2055
  589MOL0     H79495   4.189  12.392   7.357  1.7935 -1.6856  0.2127
  589MOL0     H79496   3.959  12.338   7.269 -0.8859  1.2102 -1.5527
  589MOL0     H79497   3.715  12.013   6.806 -1.2924 -0.6655 -0.4543
  589MOL0     H79498   3.497  12.055   6.681  0.7620 -3.0616  1.5775
  589MOL0     H79499   1.998  11.237   6.587 -0.3730 -1.5859 -1.1659
  589MOL0     H79500   1.802  11.060   6.504  0.1802 -0.4246 -1.0830
  589MOL0     H79501   1.579  10.695   6.615 -1.5405 -3.5235 -3.1866
  589MOL0     H79502   1.430  10.538   6.658 -1.6979 -1.0231  1.2345
  589MOL0     H79503   1.012  10.645   6.504 -2.7590  1.9505  2.3211
  589MOL0     H79504   0.990  10.646   6.677  0.3790  0.7165  0.5069
  589MOL0     H79505   0.969  10.395   6.677 -2.4930  0.2630  0.1610
  589MOL0     H79506   1.000  10.386   6.514 -0.9538 -0.4493  0.9506
  589MOL0     H79507   0.791  10.378   6.485 -2.1857 -3.2756  3.3766
  589MOL0     H79508   0.770  10.543   6.501  1.7981  1.4275  0.6665
  589MOL0     H79509   0.749  10.334   6.713  0.5350  1.2852  0.8763
  589MOL0     H79510   0.738  10.502   6.770 -2.5241  0.2540  0.4316
  589MOL0     H79511   0.373  10.415   6.558 -0.7413  2.2910 -1.5190
  589MOL0     H79512   1.109  10.826   6.622 -0.3923 -4.8605 -3.7035
  589MOL0     H79513   1.147  11.062   6.618 -0.1434  1.0466 -0.5623
  589MOL0     H79514   1.290  11.130   6.689  0.9459 -0.0482  0.5205
  589MOL0     H79515   1.291  11.079   6.516  1.8969  2.6205  0.7675
  590MOL0     O79516   0.548   4.973  10.663  0.5295 -0.1265 -0.3432
  590MOL0     C79517   0.605   4.977  10.766 -0.4195 -1.1427  0.1542
  590MOL0     O79518   0.540   4.986  10.889  0.1755 -0.1438 -0.3245
  590MOL0     C79519   0.405   4.989  10.887 -0.2397 -0.3700  0.3710
  590MOL0     C79520   0.326   4.883  10.864  1.2462  0.1607  0.1556
  590MOL0     C79521   0.180   4.900  10.855  0.0884  0.7300  0.0326
  590MOL0     C79522   0.125   5.022  10.870  0.0401 -0.3139  0.2230
  590MOL0     O79523  -0.011   5.056  10.869 -0.2320  0.1549 -0.0655
  590MOL0     C79524  -0.122   4.966  10.904 -0.2763 -0.2387  0.8447
  590MOL0     C79525  -0.220   5.023  11.019 -0.8592  0.4324  0.0209
  590MOL0     C79526  -0.355   4.959  11.022 -0.2403 -0.3864 -0.5974
  590MOL0     C79527  -0.447   5.018  11.133 -0.4070  0.0223  0.5673
  590MOL0     C79528  -0.545   4.914  11.187  0.1067  0.6916  0.7904
  590MOL0     C79529  -0.672   4.961  11.264  0.3363 -0.4079 -0.3604
  590MOL0     C79530  -0.752   5.062  11.181 -0.2428 -0.1323 -0.5784
  590MOL0     C79531  -0.905   5.030  11.176 -0.3082 -0.0370  0.5895
  590MOL0     N79532  -0.963   5.063  11.303 -0.2360 -0.4971 -0.3731
  590MOL0     C79533  -0.967   4.980  11.410 -0.0836  0.5911 -0.8165
  590MOL0     C79534  -1.070   5.024  11.488  0.3223 -0.0327 -0.1818
  590MOL0     C79535  -1.130   4.954  11.613  0.0220 -1.1247 -0.7499
  590MOL0     C79536  -1.036   4.859  11.685  0.5400  0.0061 -0.7538
  590MOL0     C79537  -0.903   4.926  11.730 -0.1510  0.0236 -0.6288
  590MOL0     C79538  -0.841   4.857  11.846  0.7135  0.6149 -0.3713
  590MOL0     O79539  -0.832   4.715  11.814  0.2618 -0.6333 -0.5239
  590MOL0     C79540  -0.776   4.633  11.903  0.0066  0.0522 -0.3023
  590MOL0     C79541  -0.715   4.668  12.015 -0.1969  0.9947 -0.1343
  590MOL0     C79542  -0.677   4.579  12.107 -0.0133 -0.6982  0.5352
  590MOL0     C79543  -0.712   4.443  12.090 -0.2491  0.5765 -0.3614
  590MOL0     C79544  -0.669   4.344  12.192  0.3535 -0.5221  0.0940
  590MOL0     O79545  -0.723   4.219  12.191 -0.3606 -0.6113  0.3427
  590MOL0     C79546  -0.707   4.146  12.299 -0.2279  0.4216 -0.2314
  590MOL0     C79547  -0.592   4.063  12.308 -0.6459  0.1247 -0.8076
  590MOL0     C79548  -0.578   3.958  12.398  0.3594 -0.5529  0.2250
  590MOL0     C79549  -0.688   3.933  12.483  0.6873 -0.1251 -0.0435
  590MOL0     O79550  -0.682   3.844  12.587  0.1504  0.5073  0.6398
  590MOL0     C79551  -0.595   3.731  12.566 -0.9173  0.5198  0.0627
  590MOL0     C79552  -0.613   3.628  12.684  0.2177  0.8036 -0.0855
  590MOL0     C79553  -0.627   3.693  12.821  0.1040 -0.2004 -1.3835
  590MOL0     C79554  -0.623   3.595  12.935 -0.1579 -0.0812 -1.1098
  590MOL0     C79555  -0.667   3.667  13.069  0.0559  0.7840  0.6698
  590MOL0     C79556  -0.636   3.577  13.196 -0.4302  0.1618 -0.6511
  590MOL0     C79557  -0.634   3.654  13.334 -0.0967  0.5191 -0.7524
  590MOL0     C79558  -0.514   3.743  13.346  0.9532 -0.3115  0.5405
  590MOL0    Cl79559  -0.517   3.818  13.508  0.5205 -0.2059  0.6641
  590MOL0     C79560  -0.803   4.015  12.477 -0.6747  0.1814  0.0874
  590MOL0     C79561  -0.815   4.122  12.382 -0.0420 -0.9849 -0.5415
  590MOL0     O79562  -0.600   4.389  12.280  0.3700  0.4919 -0.0692
  590MOL0     C79563  -0.774   4.405  11.969 -1.6060  0.1236 -0.6374
  590MOL0     C79564  -0.798   4.501  11.874  0.5231 -0.0489  0.0485
  590MOL0     N79565  -1.126   5.135  11.421 -0.9799  0.1705 -0.3851
  590MOL0     N79566  -1.060   5.153  11.312  0.4653  0.2283  0.1087
  590MOL0     C79567   0.214   5.129  10.872  0.1978 -0.4335 -0.2289
  590MOL0     C79568   0.347   5.111  10.876 -0.3840 -0.0722  0.2652
  590MOL0     C79569   0.757   4.977  10.765  1.1736  0.2036  0.1712
  590MOL0     C79570   0.819   4.978  10.883 -0.3225 -0.5998  0.0291
  590MOL0     C79571   0.959   4.977  10.902  0.0922 -0.0992  0.2603
  590MOL0     C79572   1.040   4.967  10.791 -0.3508  0.2114 -0.3581
  590MOL0     O79573   1.173   4.944  10.796 -0.3028  0.5664  0.7215
  590MOL0     C79574   1.225   4.823  10.735 -1.1252 -0.4102 -0.4160
  590MOL0     C79575   1.299   4.855  10.605 -0.0820  0.5166 -0.2748
  590MOL0     C79576   1.373   4.720  10.558  0.2212 -0.9732  0.9785
  590MOL0     C79577   1.277   4.615  10.502  0.5978  0.4833  0.8803
  590MOL0     C79578   1.222   4.664  10.378 -0.2907  0.2606  0.2348
  590MOL0     C79579   1.172   4.717  10.284 -0.1323 -1.1330  0.5655
  590MOL0     C79580   0.978   4.957  10.662 -0.1201  0.5703 -0.6652
  590MOL0     C79581   0.836   4.958  10.648  0.3717 -1.3145 -0.5002
  590MOL0     C79582   0.782   4.926  10.509  1.4907  0.2514  0.1659
  590MOL0     H79583   0.375   4.787  10.858 -0.9732 -0.9779 -1.4134
  590MOL0     H79584   0.120   4.811  10.849 -0.1498  0.5783  3.2095
  590MOL0     H79585  -0.181   4.948  10.813  0.1953  2.5721 -0.1260
  590MOL0     H79586  -0.083   4.876  10.953 -1.3622 -0.8963  0.5429
  590MOL0     H79587  -0.222   5.132  11.014  0.0190  0.6994  3.1070
  590MOL0     H79588  -0.172   5.005  11.116 -2.0465 -3.1220  0.0860
  590MOL0     H79589  -0.329   4.855  11.044  1.8976  0.7862  3.4697
  590MOL0     H79590  -0.398   4.950  10.922 -0.3540 -2.6080 -0.4022
  590MOL0     H79591  -0.399   5.066  11.218 -1.1698  0.3614  0.8137
  590MOL0     H79592  -0.497   5.092  11.070  0.0299 -0.1288  0.0375
  590MOL0     H79593  -0.589   4.861  11.102  2.1705 -0.9059  0.6276
  590MOL0     H79594  -0.477   4.850  11.243  2.6737  1.6467 -1.0310
  590MOL0     H79595  -0.716   4.866  11.294  1.7698 -0.9653  0.1009
  590MOL0     H79596  -0.648   5.007  11.360  1.5290 -3.1958  0.8020
  590MOL0     H79597  -0.722   5.072  11.076 -0.2399  0.0945 -0.5549
  590MOL0     H79598  -0.737   5.162  11.222  0.7829  0.1423 -1.5509
  590MOL0     H79599  -0.949   5.092  11.098  0.6814 -0.1118 -0.0384
  590MOL0     H79600  -0.932   4.927  11.151  0.1797 -0.0838  0.2488
  590MOL0     H79601  -0.920   4.886  11.436 -0.7507  0.7560  1.1826
  590MOL0     H79602  -1.141   5.030  11.690 -0.0023 -1.6319 -0.2507
  590MOL0     H79603  -1.225   4.912  11.580 -1.4215  3.3476 -3.1013
  590MOL0     H79604  -1.099   4.828  11.769 -1.6694  1.7582 -1.6563
  590MOL0     H79605  -1.005   4.772  11.626  3.9416  1.4275 -1.2850
  590MOL0     H79606  -0.923   5.029  11.761  1.4577  0.2845 -0.3310
  590MOL0     H79607  -0.836   4.941  11.645  1.4738  1.3118  0.8001
  590MOL0     H79608  -0.919   4.857  11.922  1.1583 -0.2378  0.1055
  590MOL0     H79609  -0.745   4.905  11.867  0.5431  0.9514 -0.3652
  590MOL0     H79610  -0.674   4.762  12.051  3.8579 -1.1568  1.4809
  590MOL0     H79611  -0.633   4.610  12.202 -0.1274  2.0199 -0.2230
  590MOL0     H79612  -0.516   4.105  12.243 -2.9589  1.6885 -2.6832
  590MOL0     H79613  -0.482   3.911  12.413  1.7100  1.7244 -0.7363
  590MOL0     H79614  -0.614   3.690  12.467 -1.2208 -0.3263  0.4588
  590MOL0     H79615  -0.492   3.767  12.569 -0.1250 -1.5481 -0.5656
  590MOL0     H79616  -0.707   3.572  12.675 -1.2457  2.4202  3.2222
  590MOL0     H79617  -0.527   3.561  12.687  0.7261  1.3645 -1.3424
  590MOL0     H79618  -0.545   3.763  12.842 -0.3728  0.3542 -1.3306
  590MOL0     H79619  -0.715   3.759  12.824  0.2016 -0.0980  0.2771
  590MOL0     H79620  -0.522   3.553  12.943  0.1711  0.5860 -1.6848
  590MOL0     H79621  -0.683   3.507  12.911 -2.6452  1.8573 -2.4507
  590MOL0     H79622  -0.772   3.696  13.070 -0.5538 -1.2791  0.6032
  590MOL0     H79623  -0.611   3.761  13.077  1.5372  0.2274 -2.0569
  590MOL0     H79624  -0.709   3.496  13.210 -2.8612  2.3838  0.4505
  590MOL0     H79625  -0.533   3.541  13.189  0.7597  3.1460 -0.0809
  590MOL0     H79626  -0.634   3.571  13.405  1.1031 -0.0395 -1.3837
  590MOL0     H79627  -0.721   3.720  13.348 -0.1371 -0.1437  3.2969
  590MOL0     H79628  -0.424   3.682  13.328  0.3870 -1.4937  1.5897
  590MOL0     H79629  -0.534   3.827  13.278 -2.5611 -0.1044  1.6599
  590MOL0     H79630  -0.886   4.008  12.546 -1.1424 -0.2431 -0.5163
  590MOL0     H79631  -0.912   4.170  12.373 -0.7496 -2.5437 -1.7536
  590MOL0     H79632  -0.799   4.299  11.960 -0.4629 -0.2282  0.0903
  590MOL0     H79633  -0.846   4.470  11.782 -1.8249 -2.6204  1.9716
  590MOL0     H79634   0.174   5.230  10.873  0.6723 -0.2481  1.1643
  590MOL0     H79635   0.402   5.205  10.884 -1.9855  0.7714  2.2910
  590MOL0     H79636   0.772   4.994  10.980 -3.3372 -0.8449 -1.2809
  590MOL0     H79637   0.997   4.997  11.002  0.5363 -2.7577  0.6790
  590MOL0     H79638   1.143   4.752  10.723  0.5072 -3.1404  2.7307
  590MOL0     H79639   1.291   4.779  10.811 -0.0126  1.4013 -0.2766
  590MOL0     H79640   1.368   4.939  10.619 -0.4884  0.8932 -0.4806
  590MOL0     H79641   1.235   4.894  10.526 -1.8873 -1.9183 -0.1201
  590MOL0     H79642   1.411   4.675  10.651 -0.7529 -3.7648  0.1035
  590MOL0     H79643   1.461   4.746  10.499 -1.9162  1.1817 -1.4682
  590MOL0     H79644   1.326   4.520  10.481  0.6766  1.2639 -3.2319
  590MOL0     H79645   1.199   4.588  10.574 -0.7226  0.0197 -0.6778
  590MOL0     H79646   1.141   4.774  10.198  2.4088 -1.1681 -0.4521
  590MOL0     H79647   1.041   4.953  10.574 -1.2835 -0.6057 -1.4895
  590MOL0     H79648   0.853   4.925  10.426  0.2384  1.3352 -0.9657
  590MOL0     H79649   0.746   4.823  10.502  1.9258  0.1086  0.0160
  590MOL0     H79650   0.701   4.995  10.484 -0.1797 -0.4844  3.0310
  591MOL0     O79651   3.949   7.896   4.042  0.2663  0.6735  0.1073
  591MOL0     C79652   4.031   7.856   4.128  0.1664  0.0865 -0.1011
  591MOL0     O79653   4.036   7.722   4.169  0.3750 -0.3724 -0.0630
  591MOL0     C79654   3.969   7.629   4.098 -0.8070  0.3680  0.1806
  591MOL0     C79655   3.870   7.562   4.166 -0.1114 -0.3137  0.5140
  591MOL0     C79656   3.808   7.448   4.118 -0.5324  0.1155  0.5974
  591MOL0     C79657   3.840   7.401   3.986 -0.3277 -0.4650  0.5785
  591MOL0     O79658   3.778   7.287   3.937  0.0084  0.1512  0.1820
  591MOL0     C79659   3.812   7.243   3.806  0.0012  1.0390 -0.9017
  591MOL0     C79660   3.740   7.109   3.778  0.1743  0.2082  0.4192
  591MOL0     C79661   3.809   7.026   3.669  0.1744 -0.5486  0.7386
  591MOL0     C79662   3.817   6.876   3.692  0.3531 -0.6580 -0.5451
  591MOL0     C79663   3.827   6.806   3.561  0.5847  0.5226 -0.8636
  591MOL0     C79664   3.962   6.822   3.499 -0.5102  1.2591 -0.6308
  591MOL0     C79665   3.953   6.801   3.338 -0.0345 -0.2322  0.0411
  591MOL0     C79666   4.085   6.740   3.289  0.2605  0.2136  0.4858
  591MOL0     N79667   4.205   6.827   3.295 -0.2854  0.6775 -0.9498
  591MOL0     C79668   4.314   6.802   3.378 -0.4507  0.9347  0.2670
  591MOL0     C79669   4.410   6.889   3.334  0.0579 -0.0146  0.6584
  591MOL0     C79670   4.552   6.903   3.384  0.1334 -0.0380  0.0736
  591MOL0     C79671   4.628   6.775   3.369  0.9910  0.2344 -0.2400
  591MOL0     C79672   4.650   6.745   3.220 -1.1454 -0.3907 -0.4347
  591MOL0     C79673   4.764   6.835   3.165 -1.0702 -0.4310  0.3222
  591MOL0     O79674   4.893   6.822   3.217  0.0287 -0.1358 -0.3800
  591MOL0     C79675   4.999   6.908   3.210 -0.7585  0.3379  0.4135
  591MOL0     C79676   5.111   6.871   3.288  0.1275  0.5358  0.9308
  591MOL0     C79677   5.220   6.957   3.304  0.2284 -0.0720 -0.7363
  591MOL0     C79678   5.227   7.076   3.229  0.0407  0.8487  0.1543
  591MOL0     C79679   5.339   7.170   3.254  0.5563 -1.0134  0.0386
  591MOL0     O79680   5.430   7.146   3.357 -0.2680 -0.6373  0.0092
  591MOL0     C79681   5.511   7.258   3.399  0.0447 -0.1221 -0.0803
  591MOL0     C79682   5.648   7.218   3.411  0.4420 -0.7416  0.1049
  591MOL0     C79683   5.736   7.305   3.477  0.8993 -0.6265 -0.4708
  591MOL0     C79684   5.702   7.449   3.498  0.4340  1.2058  0.2089
  591MOL0     O79685   5.791   7.546   3.533  0.0668 -0.4379 -0.7821
  591MOL0     C79686   5.914   7.503   3.592  0.2504  1.0394  0.5049
  591MOL0     C79687   5.963   7.643   3.637 -0.4743 -0.1837 -0.6648
  591MOL0     C79688   5.923   7.658   3.786  0.1865  0.2180  0.3928
  591MOL0     C79689   5.979   7.792   3.836  0.3626 -0.5037 -0.9968
  591MOL0     C79690   5.957   7.820   3.988 -0.0243  0.3233  0.8449
  591MOL0     C79691   5.817   7.806   4.046  0.1014  0.6521  0.1667
  591MOL0     C79692   5.825   7.732   4.188 -0.5580  0.4734 -0.1529
  591MOL0     C79693   5.862   7.579   4.178 -0.2940 -1.0495  0.1350
  591MOL0    Cl79694   5.715   7.502   4.105  0.1240 -0.5118  0.0444
  591MOL0     C79695   5.567   7.481   3.473 -0.2241  0.2832  0.6709
  591MOL0     C79696   5.471   7.393   3.421 -1.1110  1.0047 -0.3005
  591MOL0     O79697   5.339   7.271   3.181 -0.0581  0.0312 -0.0564
  591MOL0     C79698   5.117   7.103   3.143 -0.3475  1.1577 -0.0517
  591MOL0     C79699   5.007   7.020   3.131 -0.2747  0.1918 -0.4217
  591MOL0     N79700   4.357   6.959   3.223 -0.0282  0.0413  0.3582
  591MOL0     N79701   4.238   6.909   3.199 -0.7856  0.7739  0.0973
  591MOL0     C79702   3.933   7.484   3.920  0.3977 -0.4007 -0.3741
  591MOL0     C79703   3.998   7.591   3.972 -0.3549 -0.2461 -0.2586
  591MOL0     C79704   4.143   7.945   4.181 -0.5628 -1.0207 -0.5921
  591MOL0     C79705   4.185   7.922   4.316 -0.8887 -0.2434  1.3546
  591MOL0     C79706   4.288   7.995   4.369 -0.4077 -0.5038  0.4910
  591MOL0     C79707   4.349   8.090   4.298  0.8598 -0.2437  0.4073
  591MOL0     O79708   4.450   8.166   4.330 -0.3329 -1.3518 -1.0643
  591MOL0     C79709   4.427   8.252   4.449 -0.1360 -0.3622 -0.9229
  591MOL0     C79710   4.434   8.398   4.430  0.4412 -0.4225  0.8440
  591MOL0     C79711   4.559   8.450   4.375 -0.1867 -0.3487 -0.5816
  591MOL0     C79712   4.554   8.602   4.363  0.5997 -1.5059  0.2083
  591MOL0     C79713   4.525   8.682   4.480 -1.2817  0.2739 -0.1618
  591MOL0     C79714   4.523   8.742   4.582 -0.4548 -0.1939 -0.0246
  591MOL0     C79715   4.294   8.130   4.172  0.4284  0.3953  0.0234
  591MOL0     C79716   4.185   8.059   4.113  0.8597  0.1987 -0.7724
  591MOL0     C79717   4.151   8.089   3.969 -0.5144 -0.5839 -0.5452
  591MOL0     H79718   3.840   7.603   4.262  0.4232  3.2594 -0.6909
  591MOL0     H79719   3.723   7.409   4.173  0.2557  1.5636  2.9821
  591MOL0     H79720   3.810   7.323   3.731  2.4731 -0.0508 -2.2319
  591MOL0     H79721   3.913   7.202   3.814 -0.9617 -1.0924  3.8537
  591MOL0     H79722   3.642   7.142   3.742  0.9800  3.1800  0.7071
  591MOL0     H79723   3.731   7.060   3.876  1.7490  0.0699  0.5189
  591MOL0     H79724   3.905   7.073   3.648 -0.7772  0.8297 -0.8717
  591MOL0     H79725   3.747   7.037   3.579  2.2030  0.7242 -0.5790
  591MOL0     H79726   3.896   6.847   3.762 -0.3854  0.0291  0.6132
  591MOL0     H79727   3.732   6.852   3.757  2.8444  1.5144  4.0125
  591MOL0     H79728   3.816   6.700   3.585 -0.5455  1.0288  1.0613
  591MOL0     H79729   3.747   6.840   3.495  0.1858 -1.2514 -1.3437
  591MOL0     H79730   4.004   6.922   3.510 -2.2836  2.0255 -0.4965
  591MOL0     H79731   4.013   6.734   3.540 -6.1621 -2.5943 -0.6777
  591MOL0     H79732   3.948   6.899   3.289  0.9435 -1.4421 -2.7039
  591MOL0     H79733   3.866   6.737   3.315 -1.9598  1.9625  0.8094
  591MOL0     H79734   4.093   6.642   3.337 -4.4488 -0.5965  0.1258
  591MOL0     H79735   4.083   6.723   3.181 -1.4937 -0.5547  0.6079
  591MOL0     H79736   4.319   6.729   3.459  1.8754  0.4965 -0.2105
  591MOL0     H79737   4.595   6.996   3.345  0.6354 -1.6734 -3.6057
  591MOL0     H79738   4.542   6.931   3.490  4.1937  1.6861  0.1917
  591MOL0     H79739   4.718   6.772   3.431  0.3150 -1.1877  0.7197
  591MOL0     H79740   4.568   6.696   3.416  0.9963 -1.7736 -3.2985
  591MOL0     H79741   4.557   6.746   3.162 -2.1176  1.2866  1.0249
  591MOL0     H79742   4.688   6.643   3.218  1.1337  0.3386  1.4954
  591MOL0     H79743   4.719   6.934   3.179 -0.5036 -0.2938  1.3089
  591MOL0     H79744   4.772   6.813   3.058  1.6300  0.5658  0.2248
  591MOL0     H79745   5.107   6.773   3.335 -0.6793  1.6333  3.3383
  591MOL0     H79746   5.298   6.917   3.367 -0.4767 -0.3751 -0.0345
  591MOL0     H79747   5.679   7.119   3.378  0.1195 -1.5059  1.9373
  591MOL0     H79748   5.839   7.272   3.484  0.9305 -0.9010 -1.8386
  591MOL0     H79749   5.896   7.438   3.678  0.1335  0.5043  0.0805
  591MOL0     H79750   5.983   7.462   3.517 -0.6991  1.7528 -0.8001
  591MOL0     H79751   6.072   7.649   3.635 -0.4454 -0.7623 -2.5621
  591MOL0     H79752   5.927   7.727   3.577 -0.5253  0.3689  0.1264
  591MOL0     H79753   5.814   7.658   3.793  0.1009 -0.9520 -0.5463
  591MOL0     H79754   5.968   7.575   3.842 -0.3420  2.0779  3.8407
  591MOL0     H79755   5.930   7.871   3.779 -0.3928  0.6429  1.1255
  591MOL0     H79756   6.084   7.805   3.810 -0.1263  2.6188 -1.8227
  591MOL0     H79757   5.982   7.926   3.991  0.8395  0.3151 -2.1252
  591MOL0     H79758   6.028   7.767   4.052 -0.1377 -1.8752 -0.7241
  591MOL0     H79759   5.777   7.907   4.053  2.6312  1.7597 -0.0985
  591MOL0     H79760   5.751   7.740   3.989 -0.6575 -0.4089  2.1409
  591MOL0     H79761   5.726   7.736   4.233 -0.8183 -2.2213 -0.3164
  591MOL0     H79762   5.888   7.790   4.256  0.0176 -1.3626  0.9550
  591MOL0     H79763   5.954   7.555   4.123  0.0765  0.1068  0.2207
  591MOL0     H79764   5.865   7.547   4.283 -1.1012  2.0561  1.2145
  591MOL0     H79765   5.537   7.585   3.482 -4.3445 -0.8652  2.2201
  591MOL0     H79766   5.368   7.421   3.405 -2.1530 -2.4602 -0.4509
  591MOL0     H79767   5.115   7.199   3.091  1.7678  2.5734  2.2920
  591MOL0     H79768   4.920   7.050   3.074 -0.8128 -0.3828  0.0839
  591MOL0     H79769   3.956   7.474   3.815 -0.0012  2.1103 -0.7449
  591MOL0     H79770   4.081   7.645   3.928 -2.2566 -0.0722 -3.9502
  591MOL0     H79771   4.156   7.831   4.367 -3.6045 -0.5682 -0.5476
  591MOL0     H79772   4.311   7.976   4.474  3.0431 -0.4028 -0.1228
  591MOL0     H79773   4.505   8.231   4.523  0.1080  1.7818 -0.5020
  591MOL0     H79774   4.330   8.231   4.496 -0.3523 -0.5051 -1.4341
  591MOL0     H79775   4.417   8.443   4.527  0.8044 -1.5859  1.4686
  591MOL0     H79776   4.353   8.424   4.361 -0.1107 -3.4295  0.2261
  591MOL0     H79777   4.578   8.411   4.274  0.3982 -0.4346 -0.4448
  591MOL0     H79778   4.640   8.427   4.446 -1.8871  0.8609  1.8829
  591MOL0     H79779   4.655   8.626   4.330  0.5576  1.9499  2.1687
  591MOL0     H79780   4.490   8.630   4.278  0.7304  1.8643  1.0905
  591MOL0     H79781   4.509   8.788   4.678  0.0837  0.2924 -0.1730
  591MOL0     H79782   4.340   8.211   4.116 -1.5587  0.5690 -1.4729
  591MOL0     H79783   4.042   8.096   3.962 -0.5943  0.7925  1.3574
  591MOL0     H79784   4.196   8.185   3.942  1.2805 -0.4540  2.4443
  591MOL0     H79785   4.193   8.015   3.900  1.0214  2.3006 -2.9521
  592MOL0     O79786  10.350   9.439   7.167 -0.4653  0.0742  0.2151
  592MOL0     C79787  10.454   9.500   7.190 -0.2003  0.1291  0.0512
  592MOL0     O79788  10.473   9.604   7.270  0.4619  0.3120 -0.3940
  592MOL0     C79789  10.369   9.680   7.310 -0.5467 -0.2401  0.2691
  592MOL0     C79790  10.382   9.743   7.431 -0.1307 -0.3686  0.2578
  592MOL0     C79791  10.281   9.831   7.476  0.1284 -0.2223 -0.9512
  592MOL0     C79792  10.168   9.851   7.400  0.4846  0.3219 -1.1308
  592MOL0     O79793  10.088   9.953   7.444 -0.6348  0.9779 -0.4374
  592MOL0     C79794   9.990   9.997   7.355  0.1247 -0.1394 -0.6894
  592MOL0     C79795   9.920  10.119   7.412  0.0991  0.3284 -0.4758
  592MOL0     C79796  10.015  10.246   7.436  0.8718  0.2202  0.1938
  592MOL0     C79797  10.055  10.338   7.304 -0.4860 -0.6872 -0.1552
  592MOL0     C79798  10.153  10.289   7.201  0.8583  0.3018  0.5179
  592MOL0     C79799  10.276  10.221   7.254 -0.2979  0.2955 -0.4920
  592MOL0     C79800  10.354  10.184   7.130  0.6074 -0.2059  0.1192
  592MOL0     C79801  10.477  10.105   7.163 -0.2988 -0.2487 -0.1090
  592MOL0     N79802  10.547  10.050   7.041 -0.5388 -0.4606  0.2308
  592MOL0     C79803  10.512   9.933   6.985 -0.3555 -0.6926  0.2692
  592MOL0     C79804  10.612   9.879   6.924 -0.4152 -0.3313  0.6574
  592MOL0     C79805  10.634   9.744   6.862  0.3374 -0.3784  0.5001
  592MOL0     C79806  10.602   9.757   6.710  0.7048  0.2514 -0.2927
  592MOL0     C79807  10.579   9.625   6.652 -0.5122  0.4049  0.1366
  592MOL0     C79808  10.704   9.538   6.648  0.3672 -0.0663 -0.4719
  592MOL0     O79809  10.701   9.483   6.518  0.1711 -0.4507  0.3639
  592MOL0     C79810  10.763   9.368   6.481 -0.2474  0.4969 -0.8296
  592MOL0     C79811  10.833   9.284   6.567 -0.0970  0.0023 -0.8799
  592MOL0     C79812  10.897   9.165   6.524 -0.6513 -0.1684  0.1851
  592MOL0     C79813  10.891   9.121   6.394  0.0839 -0.3806  0.0225
  592MOL0     C79814  10.965   8.990   6.349  1.4240 -0.2969  1.0423
  592MOL0     O79815  11.083   8.958   6.407  0.9560 -0.3373 -0.2955
  592MOL0     C79816  11.148   8.861   6.340 -0.1571 -0.2580 -1.0398
  592MOL0     C79817  11.223   8.878   6.223  0.1686  1.2185  0.1434
  592MOL0     C79818  11.288   8.764   6.159 -0.2557  0.4065 -0.0328
  592MOL0     C79819  11.278   8.634   6.212  0.5406 -0.0437 -0.7435
  592MOL0     O79820  11.328   8.524   6.145  0.4906  0.3257  0.7057
  592MOL0     C79821  11.463   8.501   6.164 -0.0513  0.0454  0.4565
  592MOL0     C79822  11.488   8.354   6.170 -0.6486  0.3830 -0.1960
  592MOL0     C79823  11.462   8.283   6.303 -0.2341 -0.0803 -0.2308
  592MOL0     C79824  11.463   8.136   6.268 -0.2350 -0.6656  0.1713
  592MOL0     C79825  11.435   8.056   6.393  0.2806 -0.6373 -0.9237
  592MOL0     C79826  11.436   7.913   6.352  0.5471  0.0143 -1.2271
  592MOL0     C79827  11.427   7.821   6.472  0.0020 -0.2097 -0.0951
  592MOL0     C79828  11.454   7.678   6.424  0.2146 -0.4227 -0.4483
  592MOL0    Cl79829  11.315   7.607   6.347  0.2761  0.0325 -0.0104
  592MOL0     C79830  11.207   8.622   6.339 -0.3661 -0.2460  0.6687
  592MOL0     C79831  11.132   8.729   6.393 -0.5030 -0.6468 -1.0740
  592MOL0     O79832  10.914   8.924   6.255  0.2927 -1.1172  0.7788
  592MOL0     C79833  10.817   9.201   6.307 -0.0078  0.2606  0.6244
  592MOL0     C79834  10.757   9.316   6.351 -0.0625 -0.1420 -0.3798
  592MOL0     N79835  10.718   9.972   6.934 -0.0198  0.3525  1.3757
  592MOL0     N79836  10.679  10.077   7.005 -0.2410  0.5297  0.5574
  592MOL0     C79837  10.157   9.781   7.283 -0.1179 -0.5688 -0.5654
  592MOL0     C79838  10.257   9.699   7.240  0.2607 -0.2990  0.3937
  592MOL0     C79839  10.586   9.431   7.154  0.4176 -0.8136  0.3648
  592MOL0     C79840  10.706   9.473   7.215  0.0392  0.6745  1.0287
  592MOL0     C79841  10.830   9.438   7.154  0.3354  0.2160 -0.5764
  592MOL0     C79842  10.837   9.339   7.066 -0.4658  0.0863 -0.0575
  592MOL0     O79843  10.969   9.326   7.015  0.6830 -0.3755  0.2011
  592MOL0     C79844  11.012   9.216   6.929 -0.7576  0.3390  0.0479
  592MOL0     C79845  11.011   9.077   7.003 -0.5150 -0.1749 -0.7695
  592MOL0     C79846  11.118   9.086   7.123 -0.0054 -0.5039  0.7788
  592MOL0     C79847  11.171   8.954   7.172  0.9242  0.4048 -0.2556
  592MOL0     C79848  11.055   8.906   7.253 -0.5494  0.5433  0.7112
  592MOL0     C79849  10.967   8.857   7.329  0.8535  0.1344 -0.6784
  592MOL0     C79850  10.721   9.287   7.017 -0.8120  0.4248  1.2302
  592MOL0     C79851  10.596   9.324   7.059  0.3733 -0.0892 -0.4372
  592MOL0     C79852  10.483   9.247   6.995 -0.0052 -1.0426 -0.0133
  592MOL0     H79853  10.464   9.729   7.502 -1.0749 -0.6961  1.3093
  592MOL0     H79854  10.292   9.881   7.572 -1.5371  0.8719 -1.2966
  592MOL0     H79855  10.038  10.030   7.262  0.3687  0.1183 -0.4739
  592MOL0     H79856   9.917   9.919   7.330  0.1675 -0.7054  0.8766
  592MOL0     H79857   9.862  10.100   7.503 -0.3166  0.7864 -0.6411
  592MOL0     H79858   9.835  10.147   7.349  0.4093  0.1627 -0.9698
  592MOL0     H79859  10.102  10.221   7.497  2.1841  2.2515 -0.7282
  592MOL0     H79860   9.959  10.320   7.495  1.5525 -0.3050  1.5388
  592MOL0     H79861   9.962  10.358   7.251 -0.6942 -2.1585 -0.3742
  592MOL0     H79862  10.084  10.438   7.337  1.0417 -0.8168 -1.0121
  592MOL0     H79863  10.089  10.217   7.148 -1.2090  1.4687  1.3288
  592MOL0     H79864  10.176  10.370   7.131  0.4781 -1.6157 -2.0236
  592MOL0     H79865  10.335  10.281   7.324 -4.6696  1.9912  2.1442
  592MOL0     H79866  10.258  10.129   7.310  3.3703 -0.0215  0.4279
  592MOL0     H79867  10.375  10.275   7.072  0.8720 -0.9721 -1.0181
  592MOL0     H79868  10.293  10.125   7.060  1.7026 -1.5465  0.2633
  592MOL0     H79869  10.550  10.172   7.208  0.5537 -1.0259 -0.2905
  592MOL0     H79870  10.450  10.028   7.236  1.2953 -2.1903 -1.4355
  592MOL0     H79871  10.416   9.887   7.006 -1.0696  1.2074  1.4457
  592MOL0     H79872  10.735   9.702   6.868  0.2680 -2.1062 -4.7393
  592MOL0     H79873  10.552   9.683   6.900  0.3801 -0.2516  0.7896
  592MOL0     H79874  10.515   9.821   6.697 -1.3533 -2.8539 -3.4427
  592MOL0     H79875  10.680   9.810   6.654  2.4758 -1.9070 -0.0308
  592MOL0     H79876  10.556   9.644   6.546 -0.7501 -0.2178  0.0734
  592MOL0     H79877  10.502   9.572   6.710 -0.8347  1.3876  0.6417
  592MOL0     H79878  10.681   9.459   6.719  1.4750  1.6086  1.8648
  592MOL0     H79879  10.797   9.592   6.667  0.8877 -0.8884 -0.6052
  592MOL0     H79880  10.831   9.314   6.671 -0.9353 -1.6895 -0.3834
  592MOL0     H79881  10.954   9.101   6.591 -0.5554  2.2895  2.6379
  592MOL0     H79882  11.226   8.973   6.171  0.5191  2.1253  1.7622
  592MOL0     H79883  11.329   8.769   6.058  0.3656  0.5748  0.2194
  592MOL0     H79884  11.508   8.544   6.073 -2.6199  1.4817 -0.2479
  592MOL0     H79885  11.503   8.537   6.259 -1.4630 -2.9120  2.2802
  592MOL0     H79886  11.428   8.308   6.092 -1.4084  0.9799  0.0223
  592MOL0     H79887  11.594   8.332   6.154 -0.4390  1.3813 -0.2526
  592MOL0     H79888  11.530   8.311   6.383 -0.2646 -3.1605  0.9906
  592MOL0     H79889  11.364   8.318   6.336 -0.9093 -0.6864 -1.4818
  592MOL0     H79890  11.562   8.117   6.225 -0.7228 -1.8026 -0.4986
  592MOL0     H79891  11.383   8.116   6.195 -0.8075  1.1054  0.2644
  592MOL0     H79892  11.338   8.084   6.437 -1.3894 -1.9837 -3.4508
  592MOL0     H79893  11.507   8.076   6.472 -2.4669  0.3310  1.5443
  592MOL0     H79894  11.358   7.880   6.282  0.6633 -1.8747 -0.5283
  592MOL0     H79895  11.525   7.877   6.300  0.1972 -4.4368  0.8395
  592MOL0     H79896  11.332   7.840   6.523  0.6342  0.6548  0.7860
  592MOL0     H79897  11.504   7.839   6.547 -1.3598  0.0327  1.2794
  592MOL0     H79898  11.545   7.666   6.364 -0.0180 -0.4240 -0.8011
  592MOL0     H79899  11.482   7.621   6.512  1.3012  1.1580  0.2838
  592MOL0     H79900  11.203   8.523   6.383  2.0869 -1.4630 -1.5684
  592MOL0     H79901  11.074   8.720   6.484  0.6479 -1.8989 -0.4278
  592MOL0     H79902  10.808   9.176   6.202  0.9496  1.7735  0.1441
  592MOL0     H79903  10.711   9.390   6.287  0.1396 -0.1975 -0.5936
  592MOL0     H79904  10.070   9.784   7.217  1.0277  0.3874 -2.0978
  592MOL0     H79905  10.256   9.655   7.141 -0.5927 -1.8387  1.0424
  592MOL0     H79906  10.718   9.561   7.277  2.2790  2.0696 -1.1776
  592MOL0     H79907  10.925   9.482   7.180 -0.1318 -0.1383  2.0068
  592MOL0     H79908  11.099   9.258   6.877 -1.2621  0.6158 -0.5856
  592MOL0     H79909  10.929   9.215   6.858 -0.6496 -0.4203 -0.0707
  592MOL0     H79910  11.044   8.991   6.943 -1.2113 -1.3652  0.4936
  592MOL0     H79911  10.908   9.063   7.037  0.4458 -0.9994  2.1118
  592MOL0     H79912  11.088   9.157   7.201  0.4901  3.0690 -1.9905
  592MOL0     H79913  11.203   9.144   7.085 -1.0349  0.0818 -0.7661
  592MOL0     H79914  11.195   8.878   7.097  0.8000  0.8515 -0.7465
  592MOL0     H79915  11.260   8.958   7.236  1.7815  1.8961 -1.4800
  592MOL0     H79916  10.903   8.793   7.386  0.8667  1.2273  0.6233
  592MOL0     H79917  10.739   9.199   6.955 -1.1818  2.2941 -1.7212
  592MOL0     H79918  10.407   9.313   6.952  0.6939 -0.2817 -0.0979
  592MOL0     H79919  10.519   9.171   6.925  0.4609 -0.5430 -0.3247
  592MOL0     H79920  10.443   9.196   7.083  3.7649 -0.7350  2.0771
  593MOL0     O79921  10.011   2.430   9.486  0.5501  0.3612  0.4101
  593MOL0     C79922   9.940   2.474   9.575  0.6138  0.2412  0.2405
  593MOL0     O79923   9.995   2.548   9.683  1.1189  0.2394  0.5654
  593MOL0     C79924  10.132   2.563   9.685  1.5835  0.7999  0.2055
  593MOL0     C79925  10.204   2.454   9.735 -0.6320 -1.4043 -1.0923
  593MOL0     C79926  10.348   2.452   9.712  0.4937 -0.7130  0.3563
  593MOL0     C79927  10.406   2.562   9.652 -0.4586  0.0378 -0.7803
  593MOL0     O79928  10.540   2.584   9.634  0.1743  0.2679  0.1781
  593MOL0     C79929  10.624   2.495   9.709  0.1798  0.4089 -0.0490
  593MOL0     C79930  10.767   2.541   9.685 -0.4793 -0.2977  2.1219
  593MOL0     C79931  10.812   2.556   9.542 -0.1163  0.2358 -0.0539
  593MOL0     C79932  10.969   2.565   9.521  0.8653 -0.1604 -0.1081
  593MOL0     C79933  11.006   2.541   9.374  0.8285  0.5280  0.2297
  593MOL0     C79934  11.157   2.530   9.337  0.5363  0.3415 -0.1072
  593MOL0     C79935  11.187   2.518   9.188 -0.4871  0.1192  0.0540
  593MOL0     C79936  11.167   2.367   9.145 -0.4793  0.1573 -0.5423
  593MOL0     N79937  11.280   2.285   9.182 -0.2951  0.3615 -0.5096
  593MOL0     C79938  11.295   2.209   9.299  0.4686  0.3080  0.1280
  593MOL0     C79939  11.415   2.140   9.284  0.5575 -0.2458  0.6265
  593MOL0     C79940  11.475   2.034   9.378 -0.0636 -0.8641 -0.7074
  593MOL0     C79941  11.622   2.002   9.356 -0.0204 -0.5933 -0.0043
  593MOL0     C79942  11.689   1.936   9.472 -0.6392 -0.0370 -0.6054
  593MOL0     C79943  11.840   1.912   9.447 -0.0510  0.8304 -0.4006
  593MOL0     O79944  11.892   1.789   9.508  0.2865 -0.4669 -0.4091
  593MOL0     C79945  12.025   1.744   9.494  0.9055 -0.2310 -0.2425
  593MOL0     C79946  12.068   1.693   9.372 -1.0648  0.3351 -0.2196
  593MOL0     C79947  12.202   1.649   9.353 -0.7292 -0.0064  0.1036
  593MOL0     C79948  12.286   1.638   9.463  0.7034 -0.7434  0.3964
  593MOL0     C79949  12.426   1.605   9.448 -0.0078 -0.1022  0.3788
  593MOL0     O79950  12.493   1.559   9.555  0.1204  0.4726 -0.3001
  593MOL0     C79951  12.625   1.527   9.539  0.9989  0.0308  0.2319
  593MOL0     C79952  12.725   1.626   9.540 -0.3437  0.5596  0.4682
  593MOL0     C79953  12.860   1.588   9.542 -0.2212  0.5857 -0.0623
  593MOL0     C79954  12.895   1.451   9.543 -0.4960 -0.1970 -0.4674
  593MOL0     O79955  13.028   1.400   9.546  0.2401 -0.0216 -0.5216
  593MOL0     C79956  13.115   1.454   9.649  0.3794 -0.3098  1.1496
  593MOL0     C79957  13.256   1.398   9.639 -0.7937  0.2887 -0.2555
  593MOL0     C79958  13.349   1.447   9.753 -0.5030 -1.0036  0.2863
  593MOL0     C79959  13.479   1.364   9.756 -0.0262  0.0582  0.5949
  593MOL0     C79960  13.582   1.449   9.823  0.3472  1.1891 -0.2849
  593MOL0     C79961  13.712   1.362   9.832  0.1496 -0.2886  0.3970
  593MOL0     C79962  13.815   1.437   9.911 -0.9018 -0.5257  0.1018
  593MOL0     C79963  13.870   1.562   9.842 -0.4843  0.4364 -0.0695
  593MOL0    Cl79964  13.940   1.517   9.667  0.1108 -0.1543  0.2875
  593MOL0     C79965  12.790   1.355   9.539 -0.9378  0.6108  0.0215
  593MOL0     C79966  12.661   1.395   9.531  0.7871  0.6417 -0.1582
  593MOL0     O79967  12.477   1.610   9.336  0.0897 -0.0591 -0.8069
  593MOL0     C79968  12.233   1.681   9.593 -0.2589  0.2341 -0.1046
  593MOL0     C79969  12.108   1.737   9.604 -0.2533 -0.1833 -0.8108
  593MOL0     N79970  11.467   2.178   9.160  0.6999  0.1554  0.4595
  593MOL0     N79971  11.389   2.261   9.105  0.2046  0.5177 -0.4512
  593MOL0     C79972  10.326   2.660   9.607  0.4556  0.0133  0.2109
  593MOL0     C79973  10.189   2.657   9.617 -0.0477  0.3717  0.3137
  593MOL0     C79974   9.795   2.451   9.563  0.1110  0.5056  0.5557
  593MOL0     C79975   9.737   2.422   9.436  0.1280  0.4426  0.1854
  593MOL0     C79976   9.604   2.395   9.421  0.0869  0.0241 -0.6089
  593MOL0     C79977   9.517   2.392   9.531  1.1686  1.1549  0.0499
  593MOL0     O79978   9.383   2.376   9.495 -0.4001 -0.5313  0.1039
  593MOL0     C79979   9.294   2.303   9.584 -0.2087 -0.2178  0.9089
  593MOL0     C79980   9.205   2.386   9.670 -0.7783  0.6644  0.1739
  593MOL0     C79981   9.137   2.310   9.781  0.9751  0.9584 -0.2284
  593MOL0     C79982   9.034   2.200   9.743 -1.4841 -0.0945  0.1834
  593MOL0     C79983   8.919   2.277   9.694  0.2704  0.1182  0.1644
  593MOL0     C79984   8.824   2.354   9.650 -0.4755 -0.3712 -0.1320
  593MOL0     C79985   9.569   2.403   9.656 -0.4141  0.2230 -0.9151
  593MOL0     C79986   9.706   2.430   9.674 -0.4126  0.0197  1.3412
  593MOL0     C79987   9.762   2.420   9.811  1.0068  0.1106  0.1330
  593MOL0     H79988  10.163   2.372   9.793  0.0195  0.1711  1.8050
  593MOL0     H79989  10.401   2.367   9.753  0.2572 -2.6117 -2.9604
  593MOL0     H79990  10.599   2.505   9.815 -0.4893 -0.9587 -0.0701
  593MOL0     H79991  10.624   2.392   9.675 -1.8319  0.2108  0.4197
  593MOL0     H79992  10.834   2.472   9.737  1.5390 -0.0729 -0.0069
  593MOL0     H79993  10.778   2.642   9.725 -4.0846  0.1464  2.2560
  593MOL0     H79994  10.776   2.658   9.522  0.4217  1.7080  4.9375
  593MOL0     H79995  10.775   2.474   9.481 -0.4626  1.7507 -1.9740
  593MOL0     H79996  11.014   2.661   9.549  2.2998 -0.9095  0.2179
  593MOL0     H79997  11.004   2.486   9.587  1.4961  0.0238 -0.2196
  593MOL0     H79998  10.950   2.449   9.353 -0.5446  0.5404  3.3012
  593MOL0     H79999  10.962   2.616   9.308  0.9358  0.2446 -0.1751
  593MOL0     H80000  11.199   2.626   9.367 -0.7900  1.0830 -0.5370
  593MOL0     H80001  11.207   2.454   9.397 -0.5682  0.2272  0.7000
  593MOL0     H80002  11.291   2.544   9.164  0.2262 -1.4476  1.2559
  593MOL0     H80003  11.119   2.587   9.137 -2.4133 -1.2604  0.6561
  593MOL0     H80004  11.076   2.330   9.193  1.3586 -1.0521  2.2679
  593MOL0     H80005  11.160   2.374   9.036 -0.5904  3.3967 -0.4314
  593MOL0     H80006  11.217   2.205   9.375  0.5527 -1.4779  0.1693
  593MOL0     H80007  11.468   2.086   9.474  3.4855 -2.5448  0.6565
  593MOL0     H80008  11.416   1.942   9.379  1.2100 -1.6970 -0.4839
  593MOL0     H80009  11.636   1.948   9.262  0.7193 -2.6847  1.2327
  593MOL0     H80010  11.670   2.098   9.339  0.4349 -1.0418 -1.4070
  593MOL0     H80011  11.634   1.842   9.483  0.2630 -0.3551  1.6172
  593MOL0     H80012  11.680   1.991   9.567  0.0504 -0.4452 -0.3009
  593MOL0     H80013  11.881   2.007   9.481 -3.3125  2.1965  0.0142
  593MOL0     H80014  11.859   1.904   9.340  1.2323  0.1942 -0.1476
  593MOL0     H80015  11.996   1.677   9.293 -1.6370 -2.1210  0.7172
  593MOL0     H80016  12.216   1.619   9.250 -0.6915 -0.9700  0.3777
  593MOL0     H80017  12.705   1.733   9.533  0.2755  0.7528  1.5383
  593MOL0     H80018  12.940   1.660   9.542  2.9460 -2.4212 -3.9766
  593MOL0     H80019  13.121   1.563   9.646 -2.4017 -0.0893  0.1713
  593MOL0     H80020  13.066   1.440   9.745 -0.5256  0.7023  0.8562
  593MOL0     H80021  13.239   1.290   9.632 -1.5845  0.3252  0.7976
  593MOL0     H80022  13.294   1.441   9.546 -1.2121  1.1992 -0.0222
  593MOL0     H80023  13.385   1.547   9.729 -0.5899 -1.0810 -0.1728
  593MOL0     H80024  13.311   1.452   9.856  0.3549 -1.2992  0.6299
  593MOL0     H80025  13.515   1.340   9.656 -2.8010 -0.7884 -0.2788
  593MOL0     H80026  13.460   1.265   9.799  1.4596 -0.1468  0.8386
  593MOL0     H80027  13.538   1.483   9.917  1.2939 -2.8990  1.8666
  593MOL0     H80028  13.607   1.534   9.759  0.2449  1.8786  0.5664
  593MOL0     H80029  13.689   1.270   9.886  0.1088 -0.1863  0.5509
  593MOL0     H80030  13.737   1.348   9.726 -1.8326 -0.6090 -0.0572
  593MOL0     H80031  13.902   1.374   9.932 -0.3698  0.5160  1.1528
  593MOL0     H80032  13.765   1.463  10.005  2.3395 -0.6310  1.9792
  593MOL0     H80033  13.806   1.650   9.832  3.3572  3.6868  1.3278
  593MOL0     H80034  13.953   1.600   9.902  0.3579  3.3101 -2.7704
  593MOL0     H80035  12.807   1.248   9.548 -2.1073  0.5005  1.2521
  593MOL0     H80036  12.573   1.332   9.543 -0.1301  1.8243 -0.5683
  593MOL0     H80037  12.309   1.694   9.670 -0.2075  2.8499 -0.5022
  593MOL0     H80038  12.062   1.773   9.696 -0.1712  0.7389 -1.1164
  593MOL0     H80039  10.362   2.742   9.545  2.0583  0.2902  1.4425
  593MOL0     H80040  10.122   2.730   9.572 -1.3875  0.4898  2.3905
  593MOL0     H80041   9.796   2.422   9.344  3.6783  2.1260  2.2375
  593MOL0     H80042   9.575   2.388   9.317  1.1632 -2.0307 -0.8311
  593MOL0     H80043   9.358   2.238   9.644  1.2109 -0.8613 -1.1810
  593MOL0     H80044   9.242   2.219   9.538  0.6923 -1.7347  2.5343
  593MOL0     H80045   9.142   2.448   9.606  1.2730  0.3803 -2.2854
  593MOL0     H80046   9.273   2.458   9.717 -0.1488  0.6105 -0.6314
  593MOL0     H80047   9.081   2.375   9.850 -2.1648  0.5227 -2.1709
  593MOL0     H80048   9.218   2.263   9.837  0.1776  1.0368  1.0514
  593MOL0     H80049   9.073   2.132   9.666 -1.6749 -0.5204  0.4545
  593MOL0     H80050   9.005   2.139   9.830  0.0686 -2.6753 -0.9667
  593MOL0     H80051   8.733   2.393   9.609 -1.0390 -3.8782 -2.6858
  593MOL0     H80052   9.505   2.388   9.742 -0.3169  1.3066 -0.6446
  593MOL0     H80053   9.829   2.335   9.824  0.0977 -0.5296  0.7556
  593MOL0     H80054   9.806   2.516   9.839 -3.8783  3.0787 -1.1397
  593MOL0     H80055   9.683   2.418   9.886  1.1831 -0.2762  0.3164
  594MOL0     O80056   0.537   6.765   7.626 -0.9712  0.1275  0.9766
  594MOL0     C80057   0.639   6.801   7.675  0.1151  0.3093  0.2978
  594MOL0     O80058   0.697   6.919   7.653 -0.5026 -0.1525  0.7766
  594MOL0     C80059   0.666   6.997   7.537 -0.4544  0.0767  0.2554
  594MOL0     C80060   0.637   6.949   7.405  0.9721 -1.0514  1.5973
  594MOL0     C80061   0.616   7.040   7.295 -0.5961 -0.9937  0.6238
  594MOL0     C80062   0.623   7.174   7.313  0.1947  0.3763  0.1396
  594MOL0     O80063   0.612   7.266   7.216 -0.1954  0.1930 -0.6345
  594MOL0     C80064   0.515   7.265   7.111  0.0965  0.5661 -0.9264
  594MOL0     C80065   0.586   7.336   6.994 -0.3761  0.9654 -0.9388
  594MOL0     C80066   0.608   7.488   7.024  0.3597 -0.3956 -0.3686
  594MOL0     C80067   0.662   7.559   6.900  0.5420 -0.3501  0.0599
  594MOL0     C80068   0.624   7.708   6.906 -0.2082  0.0806 -0.6796
  594MOL0     C80069   0.682   7.785   6.794 -0.6639  0.6295 -0.3455
  594MOL0     C80070   0.672   7.933   6.832  0.0698 -0.7596  0.1582
  594MOL0     C80071   0.737   8.027   6.727  0.1955  0.7523 -0.2947
  594MOL0     N80072   0.751   8.158   6.789  0.0578  0.6136  0.6534
  594MOL0     C80073   0.651   8.254   6.796 -0.9459  0.5513  0.3087
  594MOL0     C80074   0.682   8.328   6.897  0.1808  0.8231 -0.2624
  594MOL0     C80075   0.600   8.447   6.943  0.0605 -0.3719  0.2113
  594MOL0     C80076   0.679   8.575   6.930 -0.3342 -0.2986 -0.3593
  594MOL0     C80077   0.595   8.685   6.994 -0.3189 -0.7071 -0.1497
  594MOL0     C80078   0.645   8.717   7.131 -0.5912  0.1413  0.5637
  594MOL0     O80079   0.785   8.748   7.129  0.0809 -0.3912  0.0818
  594MOL0     C80080   0.836   8.775   7.253  0.3101 -0.5737 -0.0213
  594MOL0     C80081   0.764   8.769   7.374  0.1426  0.1948  0.3815
  594MOL0     C80082   0.834   8.792   7.494 -0.3053 -0.0114 -0.1087
  594MOL0     C80083   0.980   8.831   7.490  0.8838  0.2099 -0.2208
  594MOL0     C80084   1.066   8.858   7.610  0.6000 -0.4264  0.2893
  594MOL0     O80085   0.992   8.858   7.731 -0.4562 -0.2651  0.4521
  594MOL0     C80086   1.072   8.840   7.840  0.2867 -0.0820  0.7490
  594MOL0     C80087   1.140   8.945   7.899  0.2009  0.0780  0.3429
  594MOL0     C80088   1.214   8.931   8.017 -0.3195  0.5557 -1.0016
  594MOL0     C80089   1.239   8.804   8.072  0.4179 -0.0048  0.6531
  594MOL0     O80090   1.334   8.773   8.168 -0.0215  0.2902 -0.2243
  594MOL0     C80091   1.451   8.855   8.177  0.2354 -0.1567  0.4759
  594MOL0     C80092   1.548   8.788   8.272  0.0248  0.1692 -0.0507
  594MOL0     C80093   1.543   8.853   8.413 -0.9843 -0.0824  0.1376
  594MOL0     C80094   1.624   8.772   8.518 -0.4028 -0.5206 -0.2079
  594MOL0     C80095   1.606   8.851   8.651 -0.5009  0.4564  0.0240
  594MOL0     C80096   1.479   8.789   8.720  0.1279  0.1839 -0.7153
  594MOL0     C80097   1.475   8.851   8.860  0.2155 -0.9194  0.5347
  594MOL0     C80098   1.583   8.795   8.956  0.1255 -0.1129 -0.2919
  594MOL0    Cl80099   1.515   8.837   9.119 -0.3666 -0.3453 -0.3139
  594MOL0     C80100   1.154   8.704   8.021 -0.5002  0.9995 -0.9842
  594MOL0     C80101   1.069   8.722   7.910 -0.9987 -0.6144  0.5019
  594MOL0     O80102   1.186   8.881   7.598 -0.2535 -0.7307 -0.3065
  594MOL0     C80103   1.048   8.834   7.369  0.5302 -0.7368  0.0433
  594MOL0     C80104   0.972   8.804   7.255  0.9551 -0.8361  0.5161
  594MOL0     N80105   0.797   8.273   6.952 -0.7544 -0.0568 -0.4413
  594MOL0     N80106   0.845   8.170   6.885 -0.3753 -0.4096  0.2939
  594MOL0     C80107   0.655   7.220   7.439  0.0031 -0.4481 -0.8015
  594MOL0     C80108   0.686   7.136   7.549 -0.0589  1.0927 -0.0437
  594MOL0     C80109   0.697   6.717   7.780 -0.2158  0.0398 -0.8780
  594MOL0     C80110   0.749   6.595   7.747 -0.1774  0.5234 -0.6109
  594MOL0     C80111   0.813   6.520   7.845  0.0228 -0.0615  0.3701
  594MOL0     C80112   0.815   6.557   7.979 -0.0841  0.4507 -0.1675
  594MOL0     O80113   0.864   6.468   8.067  0.4680  0.8378 -0.3026
  594MOL0     C80114   0.981   6.513   8.138 -0.0971 -0.2778 -0.1984
  594MOL0     C80115   1.118   6.474   8.070 -0.3527 -0.3397 -0.1046
  594MOL0     C80116   1.145   6.324   8.051 -0.1917  0.4350 -0.3301
  594MOL0     C80117   1.245   6.260   8.146 -0.0397 -0.0722  0.1342
  594MOL0     C80118   1.214   6.291   8.287 -0.9715  0.7667 -0.2400
  594MOL0     C80119   1.215   6.325   8.407  0.1912  0.4669 -0.4546
  594MOL0     C80120   0.755   6.672   8.016 -0.2268 -0.1996 -0.2637
  594MOL0     C80121   0.696   6.762   7.916  0.1864 -0.1695 -0.3477
  594MOL0     C80122   0.651   6.899   7.958 -0.7226  0.0706 -0.4318
  594MOL0     H80123   0.623   6.842   7.390 -0.7955 -0.5533 -1.0352
  594MOL0     H80124   0.586   6.998   7.200 -0.6441  2.0328 -0.8252
  594MOL0     H80125   0.478   7.164   7.090 -0.2756  0.1513  1.5134
  594MOL0     H80126   0.420   7.313   7.134 -0.7273 -1.7693  0.9399
  594MOL0     H80127   0.519   7.330   6.908 -1.6720 -2.1499  0.1618
  594MOL0     H80128   0.679   7.285   6.968 -2.1434 -2.3660 -1.1484
  594MOL0     H80129   0.691   7.493   7.095  0.7119 -3.5967 -0.4289
  594MOL0     H80130   0.510   7.525   7.058 -0.5196 -1.1376 -1.9762
  594MOL0     H80131   0.768   7.530   6.896  0.8180  0.7551 -1.4876
  594MOL0     H80132   0.606   7.518   6.816 -1.4647  0.7901  0.7512
  594MOL0     H80133   0.517   7.730   6.915  0.0631  1.2611 -0.1305
  594MOL0     H80134   0.672   7.746   6.997  0.7631 -2.1033 -0.2170
  594MOL0     H80135   0.788   7.764   6.783 -1.0412 -1.4766 -0.2861
  594MOL0     H80136   0.630   7.770   6.699  2.2561  0.0401 -1.9519
  594MOL0     H80137   0.713   7.944   6.933  1.5148 -1.2482 -0.3487
  594MOL0     H80138   0.566   7.959   6.832  0.1806 -0.2942 -0.7080
  594MOL0     H80139   0.836   7.991   6.696 -0.7692 -3.1032  0.5000
  594MOL0     H80140   0.669   8.017   6.642  0.4111 -4.1383 -0.1872
  594MOL0     H80141   0.558   8.268   6.743 -0.8908 -1.6559 -0.4518
  594MOL0     H80142   0.515   8.460   6.875  1.0061 -0.0894 -0.9639
  594MOL0     H80143   0.564   8.428   7.044  2.5775 -0.5164  1.1506
  594MOL0     H80144   0.774   8.562   6.984 -0.3410 -1.5685 -0.6371
  594MOL0     H80145   0.697   8.603   6.826  1.8642  0.9062  0.2831
  594MOL0     H80146   0.488   8.666   7.008 -0.6110  1.4983  0.9797
  594MOL0     H80147   0.606   8.773   6.931 -3.1893  1.4551  2.0887
  594MOL0     H80148   0.623   8.629   7.192 -0.3777  1.0078  1.9315
  594MOL0     H80149   0.587   8.800   7.172 -0.0015  1.7926 -1.7112
  594MOL0     H80150   0.658   8.747   7.384  0.3484 -1.9675 -1.4289
  594MOL0     H80151   0.783   8.790   7.590  1.7287  0.3678  1.0224
  594MOL0     H80152   1.129   9.047   7.863  2.2117  0.7775  1.5508
  594MOL0     H80153   1.259   9.013   8.073 -4.0717  2.4165 -0.4044
  594MOL0     H80154   1.502   8.854   8.081  0.4091  0.6964  0.5456
  594MOL0     H80155   1.433   8.958   8.211 -1.0887 -0.5634  1.0815
  594MOL0     H80156   1.523   8.683   8.290 -0.3428 -0.2608 -2.7097
  594MOL0     H80157   1.650   8.792   8.232 -0.0445 -0.9719 -0.3789
  594MOL0     H80158   1.602   8.945   8.408 -2.0379  0.6141  0.2412
  594MOL0     H80159   1.445   8.884   8.451 -0.5419 -1.8217  3.0069
  594MOL0     H80160   1.730   8.770   8.490 -0.4703  0.8184 -0.6468
  594MOL0     H80161   1.577   8.674   8.530 -1.6022 -0.2013 -1.8771
  594MOL0     H80162   1.594   8.958   8.632 -1.1584  0.5658  0.9883
  594MOL0     H80163   1.705   8.844   8.698 -0.3122  0.7588 -0.3257
  594MOL0     H80164   1.387   8.826   8.675 -0.4138 -1.0932 -0.7005
  594MOL0     H80165   1.481   8.679   8.713 -0.3537  0.2654 -3.5880
  594MOL0     H80166   1.377   8.816   8.893 -0.6793 -0.6958 -1.6675
  594MOL0     H80167   1.482   8.960   8.855 -0.6735 -0.8905 -0.3478
  594MOL0     H80168   1.593   8.687   8.947  1.7397 -0.0223  0.0182
  594MOL0     H80169   1.683   8.838   8.941  1.6268 -2.4038  2.2137
  594MOL0     H80170   1.159   8.604   8.063 -1.1640  0.3600 -2.3777
  594MOL0     H80171   1.006   8.638   7.885 -1.4941 -0.9002  2.5578
  594MOL0     H80172   1.156   8.840   7.365  0.8466 -3.8882  1.0214
  594MOL0     H80173   1.014   8.774   7.160 -0.2565  0.9155 -0.6337
  594MOL0     H80174   0.664   7.328   7.439 -0.6762 -0.3860 -1.0068
  594MOL0     H80175   0.706   7.167   7.651 -0.3311 -1.8485  1.0081
  594MOL0     H80176   0.747   6.557   7.646  0.8304  0.2958 -0.5590
  594MOL0     H80177   0.839   6.418   7.821 -2.7541 -0.7429 -0.0641
  594MOL0     H80178   0.979   6.468   8.238  4.3226  2.5593  1.4444
  594MOL0     H80179   0.993   6.621   8.147  1.8544 -0.3011 -1.8360
  594MOL0     H80180   1.201   6.525   8.119  1.4566 -2.4605 -0.8197
  594MOL0     H80181   1.098   6.515   7.971 -1.7759  1.2033  0.7597
  594MOL0     H80182   1.173   6.300   7.948  3.2020 -0.8476  0.7545
  594MOL0     H80183   1.049   6.285   8.083  1.3081 -1.8425  1.7177
  594MOL0     H80184   1.254   6.160   8.103 -0.6771  1.2835 -3.5038
  594MOL0     H80185   1.341   6.306   8.123  1.3421 -0.9522  3.4540
  594MOL0     H80186   1.211   6.340   8.513 -2.1707 -2.9552  0.0864
  594MOL0     H80187   0.748   6.687   8.124  1.6283  0.5859 -0.2172
  594MOL0     H80188   0.694   6.978   7.895 -1.1826  1.1899  0.6210
  594MOL0     H80189   0.545   6.924   7.961 -1.3622 -2.2597 -1.4130
  594MOL0     H80190   0.703   6.908   8.054  0.1178  0.7475 -0.9319
  595MOL0     O80191   5.112   2.403   6.678  0.2147 -1.2544 -0.3195
  595MOL0     C80192   5.178   2.323   6.751 -0.1918  0.4003 -0.9258
  595MOL0     O80193   5.268   2.357   6.855  0.4291 -0.0980 -0.3258
  595MOL0     C80194   5.261   2.489   6.902 -1.0356 -0.2372  0.2875
  595MOL0     C80195   5.136   2.548   6.941 -0.2863 -0.2605  0.6774
  595MOL0     C80196   5.133   2.680   6.985  0.3361  0.1907  0.0886
  595MOL0     C80197   5.248   2.753   7.019 -0.1367  0.5309  0.0473
  595MOL0     O80198   5.254   2.881   7.048  0.2100 -0.4798 -0.3410
  595MOL0     C80199   5.140   2.961   7.045  0.0592  0.2856  0.4695
  595MOL0     C80200   5.170   3.102   7.085 -0.1080 -0.1590 -0.4536
  595MOL0     C80201   5.058   3.202   7.057  0.6123  0.2214  0.7653
  595MOL0     C80202   5.088   3.337   7.120  0.1986 -0.3261 -0.1697
  595MOL0     C80203   4.991   3.443   7.058  0.4911 -0.0154  0.7233
  595MOL0     C80204   5.008   3.587   7.097  0.1062 -0.4390 -0.0567
  595MOL0     C80205   5.016   3.599   7.251 -0.4496 -0.2076 -0.1624
  595MOL0     C80206   4.969   3.730   7.308 -0.2731 -0.1517  0.2300
  595MOL0     N80207   4.825   3.759   7.283 -0.3022 -0.2596  0.0509
  595MOL0     C80208   4.770   3.864   7.217  1.4987 -0.0091 -0.8686
  595MOL0     C80209   4.640   3.864   7.260 -0.9746  0.0771 -0.0005
  595MOL0     C80210   4.533   3.960   7.223  0.4758 -0.4255 -0.1218
  595MOL0     C80211   4.595   4.105   7.262  0.2542  1.4908  0.1925
  595MOL0     C80212   4.497   4.209   7.218 -0.1579  0.1101 -0.2045
  595MOL0     C80213   4.549   4.349   7.232  0.1007 -0.7345  0.1012
  595MOL0     O80214   4.468   4.444   7.172  0.0779  0.4581 -0.0187
  595MOL0     C80215   4.522   4.562   7.145  0.1823  0.3845  0.0759
  595MOL0     C80216   4.661   4.597   7.135 -0.2453  0.0614 -0.0570
  595MOL0     C80217   4.695   4.723   7.097  0.4382 -0.5299 -0.6012
  595MOL0     C80218   4.598   4.821   7.066 -0.6552 -0.8941  0.9384
  595MOL0     C80219   4.637   4.953   7.014  0.3662 -0.8375 -0.8917
  595MOL0     O80220   4.769   4.977   6.999 -0.5755  0.1400 -0.1727
  595MOL0     C80221   4.814   5.079   6.915 -1.4486  0.1730  0.0957
  595MOL0     C80222   4.927   5.139   6.967 -0.2132 -0.3310 -0.8193
  595MOL0     C80223   4.972   5.261   6.904 -0.0006  0.4428 -0.1645
  595MOL0     C80224   4.909   5.310   6.791 -0.3572  0.2403 -0.5102
  595MOL0     O80225   4.949   5.438   6.764  0.6969 -0.4989  0.1032
  595MOL0     C80226   4.911   5.501   6.637 -0.1410 -0.0523 -0.5838
  595MOL0     C80227   4.999   5.630   6.610  0.3160 -0.3382  0.2639
  595MOL0     C80228   5.098   5.613   6.503 -0.4562 -0.3247 -0.0954
  595MOL0     C80229   5.181   5.752   6.480 -0.3398 -0.7624 -0.2817
  595MOL0     C80230   5.239   5.768   6.341 -0.0229 -0.4834  0.0817
  595MOL0     C80231   5.318   5.896   6.329  0.8325  0.1712 -1.6071
  595MOL0     C80232   5.373   5.912   6.182 -0.0378  1.0101 -0.8042
  595MOL0     C80233   5.465   6.035   6.168 -0.3182  0.1507 -0.4217
  595MOL0    Cl80234   5.385   6.183   6.206 -0.4233 -0.0914  0.4112
  595MOL0     C80235   4.798   5.244   6.743  0.4545  0.0952  0.2988
  595MOL0     C80236   4.746   5.127   6.794  0.3309  0.4145 -0.0561
  595MOL0     O80237   4.545   5.024   6.975 -0.0791 -0.5142 -0.5827
  595MOL0     C80238   4.465   4.787   7.088 -0.3907 -0.2083  0.6935
  595MOL0     C80239   4.427   4.658   7.127 -0.1536 -0.4850  0.2402
  595MOL0     N80240   4.627   3.757   7.348 -0.6294 -0.9227 -0.1509
  595MOL0     N80241   4.733   3.692   7.363 -0.3064  0.5801 -0.5443
  595MOL0     C80242   5.370   2.692   6.979  0.9300 -0.3667 -0.2518
  595MOL0     C80243   5.384   2.567   6.925 -0.8320  0.8580 -0.0483
  595MOL0     C80244   5.170   2.180   6.716  0.3563  0.2379  0.4917
  595MOL0     C80245   5.051   2.127   6.655  1.4413  0.2587 -0.4153
  595MOL0     C80246   5.026   2.003   6.594 -0.0556 -0.7408 -0.2673
  595MOL0     C80247   5.136   1.929   6.596 -0.9848  0.8049 -0.1744
  595MOL0     O80248   5.134   1.801   6.538 -0.3582 -0.6653 -0.6330
  595MOL0     C80249   5.023   1.720   6.575  0.5314 -0.0037 -0.3359
  595MOL0     C80250   5.070   1.572   6.593 -0.6214  0.0633  0.2023
  595MOL0     C80251   4.950   1.467   6.586 -1.1620 -0.3380  0.2278
  595MOL0     C80252   4.837   1.491   6.680  0.7267  0.2635 -0.6515
  595MOL0     C80253   4.745   1.376   6.668  0.4929 -0.3182  0.9435
  595MOL0     C80254   4.684   1.270   6.652  0.1268 -1.1398  0.2603
  595MOL0     C80255   5.265   1.972   6.637  0.1684 -0.3584  0.3461
  595MOL0     C80256   5.284   2.098   6.694 -0.3035  0.3561  0.3949
  595MOL0     C80257   5.422   2.142   6.729  0.5864 -0.9473  0.2575
  595MOL0     H80258   5.047   2.487   6.940 -0.3181 -0.2635 -1.3195
  595MOL0     H80259   5.029   2.707   7.006  0.8075 -0.3891  3.9496
  595MOL0     H80260   5.096   2.969   6.945  0.8633  2.9041  0.2458
  595MOL0     H80261   5.068   2.917   7.115  0.2964 -0.2770  0.3677
  595MOL0     H80262   5.261   3.147   7.045  0.1229  1.6069  1.8609
  595MOL0     H80263   5.179   3.091   7.193  0.6910 -1.2395 -0.6149
  595MOL0     H80264   4.960   3.171   7.094 -0.1926 -1.1892 -2.2986
  595MOL0     H80265   5.046   3.217   6.949 -0.9143 -4.6356  0.0583
  595MOL0     H80266   5.079   3.324   7.228  1.0666 -3.2473 -0.3728
  595MOL0     H80267   5.194   3.360   7.106  0.9374 -0.9570  3.3593
  595MOL0     H80268   5.002   3.452   6.950  4.2895 -4.9134  0.3333
  595MOL0     H80269   4.886   3.424   7.083 -0.2216  0.2027 -1.8228
  595MOL0     H80270   5.101   3.622   7.050  0.4851  0.0648  1.0306
  595MOL0     H80271   4.928   3.646   7.053  0.3164 -0.9031 -1.0984
  595MOL0     H80272   5.118   3.585   7.288 -0.3771 -2.2868 -1.0042
  595MOL0     H80273   4.947   3.523   7.289 -2.6563 -0.5965 -4.3230
  595MOL0     H80274   4.986   3.733   7.416  0.5682  0.6181  0.0895
  595MOL0     H80275   5.021   3.817   7.266 -2.3425  2.9230  3.4340
  595MOL0     H80276   4.817   3.923   7.139 -0.5902  1.0913 -1.3552
  595MOL0     H80277   4.521   3.950   7.115  2.1329 -2.7202 -0.1737
  595MOL0     H80278   4.435   3.942   7.270 -1.1198 -1.1622 -3.4523
  595MOL0     H80279   4.619   4.114   7.368  0.2981  2.8841  0.0749
  595MOL0     H80280   4.688   4.118   7.206  1.7278 -0.6838  1.9320
  595MOL0     H80281   4.412   4.208   7.287  1.9769 -1.7482  2.5782
  595MOL0     H80282   4.467   4.176   7.117  1.5114 -3.4303  0.2809
  595MOL0     H80283   4.650   4.359   7.192 -0.2137  0.8902 -0.3676
  595MOL0     H80284   4.556   4.370   7.339  0.9726  4.3689 -0.6859
  595MOL0     H80285   4.743   4.527   7.146 -1.8300 -2.0062 -0.8563
  595MOL0     H80286   4.800   4.749   7.086  0.6936  0.1288  2.4454
  595MOL0     H80287   4.958   5.103   7.064  0.8986  0.3525 -0.8992
  595MOL0     H80288   5.056   5.321   6.937  1.1495  0.1836 -2.4281
  595MOL0     H80289   4.911   5.434   6.550  1.4567 -3.7603  1.9835
  595MOL0     H80290   4.808   5.535   6.643  0.2271  0.8116  2.4889
  595MOL0     H80291   4.926   5.700   6.568 -0.4571 -2.2030 -1.6864
  595MOL0     H80292   5.047   5.663   6.702 -0.9564  0.6891  0.5860
  595MOL0     H80293   5.163   5.527   6.524 -1.4241 -1.1841 -0.5448
  595MOL0     H80294   5.055   5.586   6.406 -3.9381  1.4554  0.8011
  595MOL0     H80295   5.270   5.753   6.544  0.2245 -0.8887 -1.0464
  595MOL0     H80296   5.109   5.831   6.505  0.8331  0.0596  0.6492
  595MOL0     H80297   5.157   5.773   6.269 -1.0519 -1.0150  1.1825
  595MOL0     H80298   5.302   5.682   6.315  0.7386 -0.0860  0.5647
  595MOL0     H80299   5.249   5.973   6.366  1.7479 -0.0418  0.7756
  595MOL0     H80300   5.402   5.897   6.399 -0.4875  1.4969  0.0689
  595MOL0     H80301   5.287   5.911   6.115  0.7994 -0.3618 -1.9099
  595MOL0     H80302   5.440   5.829   6.157  1.2794  1.7909  0.0237
  595MOL0     H80303   5.543   6.015   6.241 -1.8263 -0.1410  1.1845
  595MOL0     H80304   5.508   6.036   6.067  1.5560 -2.2900  0.2556
  595MOL0     H80305   4.756   5.287   6.653 -2.5460 -1.5147  0.7908
  595MOL0     H80306   4.658   5.081   6.750  0.3851  0.6912 -0.4622
  595MOL0     H80307   4.400   4.874   7.087 -1.2412 -0.8227 -0.5346
  595MOL0     H80308   4.325   4.632   7.155 -0.6672  1.6845  0.5498
  595MOL0     H80309   5.452   2.757   7.009 -0.9162  0.6342  3.1140
  595MOL0     H80310   5.478   2.519   6.899  0.2139 -0.3351  4.8972
  595MOL0     H80311   4.967   2.194   6.670  1.6229  0.3195  0.3245
  595MOL0     H80312   4.928   1.969   6.563 -1.1061  0.1484  1.9160
  595MOL0     H80313   4.952   1.710   6.493 -2.0557 -2.9078  1.9701
  595MOL0     H80314   4.969   1.746   6.667 -0.1947  0.7568 -0.9569
  595MOL0     H80315   5.127   1.564   6.686 -2.2317  1.2964  1.3634
  595MOL0     H80316   5.137   1.562   6.507 -1.3864 -1.0824 -0.2940
  595MOL0     H80317   4.992   1.366   6.592 -0.8636 -0.1538  1.4779
  595MOL0     H80318   4.916   1.473   6.482  1.8881 -0.1260 -0.8418
  595MOL0     H80319   4.857   1.528   6.781 -2.6082  0.9755 -0.1324
  595MOL0     H80320   4.770   1.573   6.654  0.2813  0.4521  0.9885
  595MOL0     H80321   4.628   1.183   6.625 -0.2332 -0.0263 -3.1771
  595MOL0     H80322   5.345   1.899   6.631 -0.0586 -0.4645 -1.8783
  595MOL0     H80323   5.429   2.154   6.837 -1.0869 -0.3522  0.3261
  595MOL0     H80324   5.485   2.071   6.676  0.4731 -0.1464 -0.9944
  595MOL0     H80325   5.451   2.242   6.694  3.4304 -0.8289  2.5981
  596MOL0     O80326   1.166   5.485   2.623  0.3621  0.5829  0.1308
  596MOL0     C80327   1.156   5.383   2.698  0.0336  0.3258  0.7142
  596MOL0     O80328   1.257   5.331   2.768 -0.0202  0.4274 -0.0591
  596MOL0     C80329   1.362   5.416   2.775  0.8040  0.2011  1.5650
  596MOL0     C80330   1.457   5.402   2.676  0.7457 -0.1704  0.2027
  596MOL0     C80331   1.575   5.484   2.686  0.2824 -0.0233  0.0371
  596MOL0     C80332   1.585   5.595   2.774  0.6455  0.2632 -0.0581
  596MOL0     O80333   1.690   5.679   2.795 -0.1075 -0.1868  0.1310
  596MOL0     C80334   1.819   5.626   2.755  0.6831 -0.4431 -0.0496
  596MOL0     C80335   1.936   5.689   2.826  1.2338  0.0480 -0.0053
  596MOL0     C80336   1.936   5.703   2.973  0.6009  0.5428  0.3246
  596MOL0     C80337   2.088   5.721   3.021 -0.0325 -0.6076 -0.6317
  596MOL0     C80338   2.102   5.743   3.170 -0.2484 -0.7139  0.9369
  596MOL0     C80339   2.235   5.801   3.201 -0.3437 -0.2359  0.0774
  596MOL0     C80340   2.287   5.764   3.335  0.1177  0.3141 -1.4758
  596MOL0     C80341   2.424   5.820   3.358 -0.1401 -0.4158  0.1764
  596MOL0     N80342   2.461   5.793   3.503  0.3121 -1.2862  0.6054
  596MOL0     C80343   2.572   5.720   3.546  1.0483  0.4683 -1.1097
  596MOL0     C80344   2.577   5.726   3.683 -0.3885 -0.4130 -0.5161
  596MOL0     C80345   2.670   5.656   3.781  0.1531 -0.7942 -0.4736
  596MOL0     C80346   2.594   5.553   3.855 -0.3713 -0.2155  0.0836
  596MOL0     C80347   2.681   5.503   3.976 -0.6445 -0.2460 -0.1126
  596MOL0     C80348   2.626   5.378   4.042  0.6608 -0.1021  0.1094
  596MOL0     O80349   2.608   5.276   3.938  0.5304  0.1675  0.3005
  596MOL0     C80350   2.542   5.170   4.000 -0.2438  0.9718 -1.1034
  596MOL0     C80351   2.405   5.170   4.021  0.1529  0.9500  0.1665
  596MOL0     C80352   2.344   5.048   4.078  0.2223 -0.4957 -0.1180
  596MOL0     C80353   2.427   4.944   4.109 -0.2067  0.5857 -1.5475
  596MOL0     C80354   2.381   4.821   4.184 -0.1254 -0.3364 -0.9012
  596MOL0     O80355   2.243   4.814   4.234  0.2917 -0.2399  0.3530
  596MOL0     C80356   2.205   4.722   4.323 -0.2931 -0.5786  0.6499
  596MOL0     C80357   2.064   4.692   4.307 -0.6833  0.0610 -0.2661
  596MOL0     C80358   2.014   4.605   4.401  0.1493  0.3670 -0.9270
  596MOL0     C80359   2.093   4.550   4.495  0.4981  0.3436  0.0473
  596MOL0     O80360   2.027   4.481   4.597  0.0146 -0.5786 -0.7434
  596MOL0     C80361   2.082   4.366   4.657 -0.3716  0.3188 -0.3536
  596MOL0     C80362   2.160   4.405   4.786 -0.2276  1.1472 -0.0164
  596MOL0     C80363   2.072   4.478   4.890  0.2591  0.5746 -0.4810
  596MOL0     C80364   2.144   4.526   5.014 -0.7291  0.5929  0.4651
  596MOL0     C80365   2.058   4.611   5.098  0.5965  0.4239  0.1457
  596MOL0     C80366   2.083   4.590   5.246  0.1754 -1.0756 -0.8365
  596MOL0     C80367   2.069   4.726   5.317 -0.1185  0.2443  0.3440
  596MOL0     C80368   2.099   4.742   5.471  0.6623  0.0118  0.8070
  596MOL0    Cl80369   2.054   4.904   5.541 -0.1631  0.7212 -0.1753
  596MOL0     C80370   2.234   4.573   4.501 -0.4430  0.5842 -0.1760
  596MOL0     C80371   2.292   4.670   4.419 -0.0522 -0.6379 -0.5047
  596MOL0     O80372   2.465   4.727   4.206 -0.1421 -0.8578 -1.0660
  596MOL0     C80373   2.570   4.954   4.081 -0.2470  1.3532 -0.7973
  596MOL0     C80374   2.621   5.060   4.022 -0.1594  0.3292 -0.4418
  596MOL0     N80375   2.484   5.819   3.720  0.4648  0.5165  0.4768
  596MOL0     N80376   2.417   5.863   3.614 -0.1667  0.9121  0.2542
  596MOL0     C80377   1.485   5.610   2.871 -0.3917 -0.6130 -0.4925
  596MOL0     C80378   1.383   5.517   2.873 -0.3055  0.0512 -0.5398
  596MOL0     C80379   1.023   5.322   2.716  0.0903  0.4644 -0.2645
  596MOL0     C80380   0.931   5.342   2.610 -0.4090 -0.4453  0.4646
  596MOL0     C80381   0.802   5.290   2.608 -0.0667 -0.2221  0.2494
  596MOL0     C80382   0.761   5.227   2.720 -0.1050  0.2560  0.2103
  596MOL0     O80383   0.648   5.150   2.726  0.0969 -0.0648 -0.2654
  596MOL0     C80384   0.546   5.162   2.632  0.7694 -0.4597  1.0095
  596MOL0     C80385   0.408   5.109   2.667 -0.3510  0.0366 -0.3520
  596MOL0     C80386   0.352   5.194   2.786 -0.0081  0.1642 -0.0569
  596MOL0     C80387   0.198   5.154   2.802  0.3418 -0.3891  0.1298
  596MOL0     C80388   0.138   5.270   2.876 -0.1371 -0.1267 -0.0758
  596MOL0     C80389   0.098   5.373   2.915 -0.4976  0.0603  0.9613
  596MOL0     C80390   0.846   5.214   2.829 -0.3008 -0.5375  0.6063
  596MOL0     C80391   0.978   5.262   2.836  0.3565 -0.2448 -0.6245
  596MOL0     C80392   1.049   5.245   2.969  0.4159 -0.4353  1.3669
  596MOL0     H80393   1.459   5.331   2.594  1.0357 -2.2792  1.9781
  596MOL0     H80394   1.654   5.458   2.616 -0.4620 -0.5293 -0.6363
  596MOL0     H80395   1.818   5.524   2.794 -0.2743  0.2196  1.7797
  596MOL0     H80396   1.822   5.625   2.646 -1.1237 -0.2469 -0.1317
  596MOL0     H80397   1.943   5.792   2.790  1.6749  1.1413  2.9240
  596MOL0     H80398   2.026   5.630   2.806  1.7395  0.9611 -0.5333
  596MOL0     H80399   1.877   5.619   3.010 -1.2465  1.5902 -0.1204
  596MOL0     H80400   1.884   5.794   3.005  1.3236  0.7360  0.9829
  596MOL0     H80401   2.130   5.622   2.999 -0.5333 -0.5390 -1.9582
  596MOL0     H80402   2.118   5.807   2.961 -0.7321  0.2212  0.1870
  596MOL0     H80403   2.032   5.818   3.208 -1.3158 -0.7873 -0.8153
  596MOL0     H80404   2.074   5.651   3.223 -1.2088 -1.4239 -0.7296
  596MOL0     H80405   2.295   5.758   3.120 -0.9335  1.4155 -1.2911
  596MOL0     H80406   2.229   5.909   3.186 -4.0272 -0.2282  0.5217
  596MOL0     H80407   2.276   5.655   3.346 -0.3689  0.3842 -1.2551
  596MOL0     H80408   2.220   5.813   3.406  2.0292  0.0987  0.5857
  596MOL0     H80409   2.499   5.767   3.300  1.4114 -1.2409  2.7929
  596MOL0     H80410   2.441   5.925   3.330 -2.9827  0.5056  1.4467
  596MOL0     H80411   2.642   5.665   3.484  1.6356  1.9381 -1.8066
  596MOL0     H80412   2.755   5.612   3.728 -1.9850 -1.0358 -4.0153
  596MOL0     H80413   2.718   5.728   3.847  0.5670  0.2649 -1.8759
  596MOL0     H80414   2.500   5.595   3.892 -1.4933 -2.1396 -0.4878
  596MOL0     H80415   2.582   5.467   3.789 -0.0941 -0.1486 -0.0582
  596MOL0     H80416   2.694   5.579   4.053 -0.6969  0.4016 -0.7327
  596MOL0     H80417   2.782   5.482   3.937 -0.1092  2.8909 -0.6357
  596MOL0     H80418   2.530   5.400   4.090 -0.6430  1.1072 -2.7535
  596MOL0     H80419   2.700   5.339   4.112 -0.7825 -1.7313  0.8147
  596MOL0     H80420   2.356   5.261   3.987 -1.4452 -1.0381 -3.3953
  596MOL0     H80421   2.239   5.048   4.108  0.5757 -0.2144  1.1825
  596MOL0     H80422   1.994   4.727   4.232 -0.3010  0.1067 -0.6047
  596MOL0     H80423   1.908   4.587   4.391  0.4415 -3.1185  0.6255
  596MOL0     H80424   2.001   4.295   4.677 -0.8917  0.1692 -2.6832
  596MOL0     H80425   2.165   4.325   4.599  1.5768  1.2313  1.6526
  596MOL0     H80426   2.188   4.308   4.828  0.3471  0.8736 -0.9931
  596MOL0     H80427   2.246   4.468   4.762  0.1198 -0.0088 -2.0031
  596MOL0     H80428   2.033   4.569   4.844 -0.3053 -0.0282 -1.2228
  596MOL0     H80429   1.990   4.410   4.912 -0.7458  1.6770 -0.7312
  596MOL0     H80430   2.234   4.580   4.984 -0.8621  0.4580 -0.1961
  596MOL0     H80431   2.172   4.438   5.072  1.2730 -0.4401 -1.8628
  596MOL0     H80432   1.956   4.577   5.075  0.7046 -2.2609  3.0028
  596MOL0     H80433   2.066   4.713   5.061  0.9171 -0.0934 -1.2743
  596MOL0     H80434   2.023   4.507   5.284  0.6350 -0.5019  1.2910
  596MOL0     H80435   2.187   4.560   5.262  0.7409 -0.4300 -3.0523
  596MOL0     H80436   1.965   4.751   5.296 -0.6801  0.3793  2.8801
  596MOL0     H80437   2.137   4.802   5.278 -0.1227 -0.4094 -0.9829
  596MOL0     H80438   2.038   4.663   5.515  0.7939 -0.8810 -0.5392
  596MOL0     H80439   2.201   4.710   5.491  0.3193 -2.6437 -1.1413
  596MOL0     H80440   2.301   4.529   4.574  1.5965  0.1732 -2.2040
  596MOL0     H80441   2.397   4.697   4.424 -0.4509  1.1538 -1.3171
  596MOL0     H80442   2.631   4.868   4.106 -2.2838  0.4554  1.4412
  596MOL0     H80443   2.724   5.065   3.989 -0.7347  2.7494 -2.0918
  596MOL0     H80444   1.491   5.688   2.947  2.8252 -3.5879  2.6538
  596MOL0     H80445   1.293   5.519   2.934 -2.5543  1.6554 -3.5927
  596MOL0     H80446   0.961   5.396   2.521  2.7328  2.9544  3.2859
  596MOL0     H80447   0.733   5.290   2.525 -0.7776  1.7661  0.7765
  596MOL0     H80448   0.581   5.111   2.542 -0.9332  0.4068 -0.2219
  596MOL0     H80449   0.525   5.269   2.624 -0.5112 -0.7898 -0.4354
  596MOL0     H80450   0.412   5.003   2.693 -1.6513  0.5488  2.2276
  596MOL0     H80451   0.338   5.116   2.583 -2.1165  0.0063  1.0818
  596MOL0     H80452   0.377   5.299   2.773  3.9068 -0.7212 -0.9595
  596MOL0     H80453   0.404   5.166   2.878  3.1275  2.1168 -1.0620
  596MOL0     H80454   0.149   5.123   2.709  1.5169 -0.8508 -0.3454
  596MOL0     H80455   0.203   5.070   2.872  3.0989 -1.7304 -1.5117
  596MOL0     H80456   0.056   5.467   2.948 -1.5311  0.4029 -1.1689
  596MOL0     H80457   0.795   5.167   2.912  0.2673 -1.5331  0.4034
  596MOL0     H80458   1.110   5.335   2.974  1.2114 -0.4544 -3.1237
  596MOL0     H80459   0.980   5.243   3.053 -1.1013 -2.8440  0.2015
  596MOL0     H80460   1.114   5.157   2.967 -1.2405 -1.7109 -0.0917
  597MOL0     O80461   8.288   0.775   3.771 -0.7958 -0.2259 -0.6502
  597MOL0     C80462   8.201   0.788   3.686 -0.1965  0.0373 -0.0264
  597MOL0     O80463   8.221   0.832   3.557 -0.1690  0.0417  0.2034
  597MOL0     C80464   8.349   0.822   3.511 -0.0098 -0.2662 -0.2941
  597MOL0     C80465   8.433   0.705   3.532  0.6058 -1.4432 -0.5101
  597MOL0     C80466   8.558   0.701   3.476  0.3696  0.4059  0.0163
  597MOL0     C80467   8.616   0.817   3.424 -0.4622 -0.1590 -0.0597
  597MOL0     O80468   8.748   0.801   3.384 -0.0447  0.3385  0.6731
  597MOL0     C80469   8.833   0.912   3.348  0.7025 -0.3679  0.0523
  597MOL0     C80470   8.960   0.868   3.281  0.0323 -0.7128  0.2028
  597MOL0     C80471   8.944   0.790   3.150 -0.2450 -0.4814  0.7794
  597MOL0     C80472   8.881   0.880   3.034 -0.2497 -0.3392 -0.3831
  597MOL0     C80473   8.884   0.798   2.905 -0.5708 -0.2048 -0.0630
  597MOL0     C80474   8.792   0.880   2.809  0.4985 -0.2630 -0.0117
  597MOL0     C80475   8.845   1.022   2.763 -0.2437 -0.7105 -0.3074
  597MOL0     C80476   8.909   1.010   2.626 -0.0709 -0.0945  0.0093
  597MOL0     N80477   8.911   1.138   2.554 -0.1800 -0.4285 -0.2649
  597MOL0     C80478   8.823   1.182   2.454  0.6027 -0.1666 -0.2433
  597MOL0     C80479   8.876   1.304   2.416  1.2088 -0.4961 -0.3068
  597MOL0     C80480   8.804   1.392   2.325  0.5275 -0.5436 -0.1395
  597MOL0     C80481   8.763   1.521   2.404 -0.1016  0.6303  0.5711
  597MOL0     C80482   8.667   1.609   2.321  0.5058 -0.2962 -0.0255
  597MOL0     C80483   8.601   1.716   2.411 -0.0125 -0.5730  0.4308
  597MOL0     O80484   8.702   1.809   2.456  0.5945 -0.6063  0.1968
  597MOL0     C80485   8.763   1.901   2.368 -0.3967  0.1287 -0.5379
  597MOL0     C80486   8.899   1.920   2.394  0.4089 -0.3459  0.0525
  597MOL0     C80487   8.981   1.996   2.306 -0.8354  0.1579 -0.7533
  597MOL0     C80488   8.925   2.061   2.196 -0.7515  0.0985 -0.1544
  597MOL0     C80489   9.002   2.139   2.103 -0.0765  0.0142 -0.1165
  597MOL0     O80490   8.956   2.163   1.980 -0.0481  0.0995  0.7305
  597MOL0     C80491   9.024   2.244   1.899 -1.1593 -0.0629  0.1186
  597MOL0     C80492   8.948   2.342   1.839 -0.7382 -0.1877  0.6639
  597MOL0     C80493   9.004   2.426   1.734  0.2776 -0.4636  0.2608
  597MOL0     C80494   9.140   2.403   1.699  2.0058  0.8184  0.2004
  597MOL0     O80495   9.183   2.490   1.603  0.4359 -1.0526 -0.2192
  597MOL0     C80496   9.315   2.466   1.548  0.0807  0.1082  0.3783
  597MOL0     C80497   9.365   2.552   1.436  0.7911 -0.9017  0.4670
  597MOL0     C80498   9.276   2.554   1.307 -0.3422 -0.2734 -0.6416
  597MOL0     C80499   9.248   2.414   1.247  0.3322  0.2474  0.2677
  597MOL0     C80500   9.236   2.405   1.095  1.2137 -0.1322  1.3267
  597MOL0     C80501   9.115   2.472   1.034  0.4209  0.0041 -0.7103
  597MOL0     C80502   8.973   2.421   1.092  0.3790 -0.0372  0.0185
  597MOL0     C80503   8.893   2.536   1.146 -0.0419  0.8025 -0.9274
  597MOL0    Cl80504   8.920   2.570   1.321 -0.5894 -0.3766  0.1561
  597MOL0     C80505   9.223   2.303   1.762 -0.2186 -0.1645 -0.2249
  597MOL0     C80506   9.164   2.219   1.860 -0.5664 -0.3465  0.2058
  597MOL0     O80507   9.102   2.188   2.149  0.0414 -0.6474  0.3665
  597MOL0     C80508   8.781   2.050   2.178 -0.0287 -0.3015 -0.3285
  597MOL0     C80509   8.699   1.969   2.266 -0.3280 -0.1041  1.2339
  597MOL0     N80510   8.990   1.333   2.488  0.9914  0.1463 -0.8849
  597MOL0     N80511   9.010   1.230   2.567 -0.4701 -0.2102  0.7600
  597MOL0     C80512   8.542   0.935   3.404 -0.5133 -0.4608 -1.0442
  597MOL0     C80513   8.408   0.933   3.443 -0.8763  1.0207  1.5021
  597MOL0     C80514   8.069   0.796   3.743  0.7568  0.6244  1.8438
  597MOL0     C80515   8.051   0.798   3.883 -0.5453  0.1703 -0.2861
  597MOL0     C80516   7.926   0.803   3.938  0.4746 -0.2750  0.4405
  597MOL0     C80517   7.813   0.806   3.860 -0.0386 -0.4684  0.2689
  597MOL0     O80518   7.691   0.819   3.925 -0.4101  0.2424  0.3837
  597MOL0     C80519   7.572   0.781   3.861  0.4142  0.6187 -0.1099
  597MOL0     C80520   7.484   0.714   3.966 -0.8755 -0.5418  1.1634
  597MOL0     C80521   7.343   0.675   3.915  0.2002 -0.5461  0.1435
  597MOL0     C80522   7.349   0.588   3.793  0.3590  0.8197 -0.1037
  597MOL0     C80523   7.431   0.462   3.814  0.5946 -0.6391 -0.0305
  597MOL0     C80524   7.489   0.362   3.846  0.1060 -0.0522  0.5634
  597MOL0     C80525   7.823   0.792   3.722 -0.8920 -0.3987  0.0613
  597MOL0     C80526   7.952   0.785   3.658 -0.1385  0.6057 -0.7004
  597MOL0     C80527   7.955   0.755   3.509 -0.8316 -0.5372 -0.5478
  597MOL0     H80528   8.392   0.613   3.572  0.6766 -1.0440  0.5087
  597MOL0     H80529   8.604   0.603   3.470 -1.4713 -0.5924  1.2646
  597MOL0     H80530   8.781   0.990   3.291 -2.8423 -1.2259  1.8300
  597MOL0     H80531   8.867   0.962   3.440  0.0885  3.2154 -1.4926
  597MOL0     H80532   9.013   0.802   3.350 -2.0043 -1.4032  1.1804
  597MOL0     H80533   9.014   0.957   3.246 -1.9036 -0.0411 -1.2794
  597MOL0     H80534   8.880   0.702   3.166  0.6303 -1.9450 -2.7818
  597MOL0     H80535   9.039   0.745   3.119 -0.6167  0.2419 -1.5309
  597MOL0     H80536   8.780   0.917   3.053  0.4466  2.1040 -1.1421
  597MOL0     H80537   8.941   0.970   3.022 -0.2129 -0.1292  1.1544
  597MOL0     H80538   8.984   0.807   2.862 -1.3562  3.2137 -1.4660
  597MOL0     H80539   8.848   0.697   2.926 -1.2840 -0.3945 -2.0043
  597MOL0     H80540   8.764   0.826   2.718 -1.7029 -0.7240  0.8734
  597MOL0     H80541   8.692   0.895   2.850  1.0751 -3.1281  2.8872
  597MOL0     H80542   8.907   1.075   2.836  0.5740 -2.7492  0.5542
  597MOL0     H80543   8.756   1.084   2.749 -0.0259 -0.4060 -0.3540
  597MOL0     H80544   9.012   0.981   2.650 -0.5508 -3.1594 -1.2212
  597MOL0     H80545   8.854   0.933   2.572  1.0198 -0.0512 -1.2096
  597MOL0     H80546   8.737   1.146   2.399 -0.2646  2.8366 -1.0815
  597MOL0     H80547   8.871   1.422   2.243  1.6282 -0.8566  0.6231
  597MOL0     H80548   8.724   1.335   2.277  1.8893 -1.7520 -1.0361
  597MOL0     H80549   8.714   1.479   2.493  2.1973 -3.0818  0.2805
  597MOL0     H80550   8.849   1.578   2.440  0.7555 -0.0535 -0.3298
  597MOL0     H80551   8.586   1.547   2.281 -0.0776 -0.0459  0.7416
  597MOL0     H80552   8.727   1.644   2.237  1.3177 -1.6918 -0.0622
  597MOL0     H80553   8.544   1.662   2.488  0.1512 -0.7634  0.4205
  597MOL0     H80554   8.531   1.785   2.363  1.2503  2.2058  2.2539
  597MOL0     H80555   8.954   1.864   2.470  2.5199  1.3376 -0.1331
  597MOL0     H80556   9.087   1.996   2.328 -0.9122 -1.5934 -0.2729
  597MOL0     H80557   8.846   2.353   1.875 -0.3451 -0.1453  1.7975
  597MOL0     H80558   8.949   2.508   1.691  0.9684  1.0992  2.1997
  597MOL0     H80559   9.392   2.468   1.627 -0.6779  2.1096  1.1283
  597MOL0     H80560   9.306   2.365   1.508 -3.8762 -0.9195  3.2371
  597MOL0     H80561   9.360   2.649   1.486 -3.9201 -1.1459  0.9093
  597MOL0     H80562   9.471   2.535   1.412  0.7485 -3.4274  1.7604
  597MOL0     H80563   9.184   2.604   1.338 -1.1561 -2.7558  1.2406
  597MOL0     H80564   9.314   2.623   1.230 -3.3107  4.0268  1.3093
  597MOL0     H80565   9.162   2.359   1.287  0.1203  0.2986 -0.1057
  597MOL0     H80566   9.344   2.365   1.261  2.4451  3.1985 -2.4632
  597MOL0     H80567   9.244   2.304   1.053 -0.0696  0.9645 -1.8444
  597MOL0     H80568   9.323   2.461   1.063  0.7278  0.6004  1.2709
  597MOL0     H80569   9.137   2.579   1.042  2.3090 -0.4338  0.6254
  597MOL0     H80570   9.120   2.457   0.926  1.9877  2.5080 -1.0743
  597MOL0     H80571   9.000   2.357   1.176  1.4635  2.6489  1.8907
  597MOL0     H80572   8.909   2.371   1.020 -1.0451 -1.1715  1.9914
  597MOL0     H80573   8.906   2.628   1.090  0.3560  0.7141 -0.9816
  597MOL0     H80574   8.788   2.508   1.130  0.0804 -0.6064  0.4101
  597MOL0     H80575   9.329   2.293   1.740 -0.1345  0.4109 -0.0923
  597MOL0     H80576   9.221   2.142   1.911  1.7483  1.7523  0.9584
  597MOL0     H80577   8.732   2.112   2.103  0.2690  0.4512  0.0911
  597MOL0     H80578   8.594   1.970   2.236  0.0050 -1.4649 -0.1383
  597MOL0     H80579   8.591   1.023   3.366 -1.1746 -0.4126 -1.8071
  597MOL0     H80580   8.349   1.018   3.411 -0.0505  1.0772  0.0207
  597MOL0     H80581   8.134   0.812   3.952  0.1152  1.3703 -1.2881
  597MOL0     H80582   7.905   0.816   4.044 -0.1955  1.1299  0.1579
  597MOL0     H80583   7.600   0.719   3.775  1.0717  4.1972 -2.6732
  597MOL0     H80584   7.516   0.870   3.833 -2.1878 -0.9911 -0.3825
  597MOL0     H80585   7.478   0.776   4.057 -1.1370  0.9998  0.1313
  597MOL0     H80586   7.522   0.616   3.995 -1.9220 -1.5355 -0.6984
  597MOL0     H80587   7.281   0.764   3.898  1.8831  0.6855  0.1001
  597MOL0     H80588   7.297   0.623   3.999 -0.8850  1.0482  0.5847
  597MOL0     H80589   7.250   0.558   3.757 -0.1406  0.7809  1.2259
  597MOL0     H80590   7.396   0.638   3.708  1.5518  1.4423  0.8996
  597MOL0     H80591   7.547   0.279   3.881  0.2670  0.6474  2.0483
  597MOL0     H80592   7.739   0.801   3.654 -1.4861  1.2280  0.9472
  597MOL0     H80593   7.865   0.706   3.472 -1.4192  1.6152 -2.1794
  597MOL0     H80594   7.954   0.852   3.457 -1.4446  0.5713  1.4485
  597MOL0     H80595   8.034   0.682   3.487 -0.1598 -0.4616  1.4198
  598MOL0     O80596   0.902   7.777   1.626 -0.6341 -0.7212 -0.0493
  598MOL0     C80597   1.001   7.826   1.564  1.0191  0.3882  1.6015
  598MOL0     O80598   1.007   7.825   1.425 -0.0246  0.2990 -0.2112
  598MOL0     C80599   0.928   7.744   1.358  0.0415 -0.0549  0.8937
  598MOL0     C80600   0.923   7.604   1.371 -0.0733  0.9524  1.2902
  598MOL0     C80601   0.829   7.527   1.302 -0.2928  0.1834 -0.4913
  598MOL0     C80602   0.741   7.579   1.211 -0.0812  0.3465  0.7423
  598MOL0     O80603   0.636   7.512   1.146 -0.4889  0.6963  0.0468
  598MOL0     C80604   0.672   7.375   1.131 -0.1592 -0.6976  0.3679
  598MOL0     C80605   0.619   7.327   0.999  0.0785  0.5454  0.2582
  598MOL0     C80606   0.487   7.382   0.969 -0.3898  1.0278  0.4631
  598MOL0     C80607   0.406   7.298   0.868 -0.7664  0.0730 -0.4393
  598MOL0     C80608   0.455   7.311   0.723  0.3260 -0.4073  0.0243
  598MOL0     C80609   0.408   7.190   0.628  0.2881  0.5806  0.1226
  598MOL0     C80610   0.491   7.056   0.653 -0.2660 -0.5125 -0.9410
  598MOL0     C80611   0.428   6.943   0.577  0.4822  0.2583  0.8557
  598MOL0     N80612   0.498   6.817   0.602  0.2548  0.2151  0.4916
  598MOL0     C80613   0.538   6.717   0.511  0.4222 -1.0556 -0.4785
  598MOL0     C80614   0.590   6.616   0.586  0.5663  0.8120  0.9344
  598MOL0     C80615   0.641   6.483   0.546  0.2437 -0.7130  0.6126
  598MOL0     C80616   0.738   6.422   0.649 -0.4981 -0.0135 -0.2498
  598MOL0     C80617   0.862   6.505   0.666 -0.5775  0.0495  0.3781
  598MOL0     C80618   0.937   6.534   0.540 -0.1540 -0.4156  0.6178
  598MOL0     O80619   1.066   6.570   0.581 -0.0469  0.2420  0.6756
  598MOL0     C80620   1.106   6.701   0.599  0.1510  0.1822  0.1422
  598MOL0     C80621   1.009   6.804   0.596  0.3149  0.4941 -0.3699
  598MOL0     C80622   1.059   6.937   0.607  0.3180 -0.3600 -0.0041
  598MOL0     C80623   1.196   6.969   0.622  0.5571  0.1169  0.2044
  598MOL0     C80624   1.237   7.111   0.614  0.0216  0.5078  0.0620
  598MOL0     O80625   1.147   7.196   0.563 -0.0598 -0.0885 -0.4364
  598MOL0     C80626   1.188   7.304   0.502  0.1004  0.7099 -0.1160
  598MOL0     C80627   1.106   7.416   0.507 -0.6290  0.9789  0.8550
  598MOL0     C80628   1.135   7.525   0.425 -0.1478  0.4465  0.1822
  598MOL0     C80629   1.253   7.537   0.348  0.1773 -0.6057  0.2845
  598MOL0     O80630   1.302   7.634   0.275 -1.1446  0.4188  0.6885
  598MOL0     C80631   1.255   7.762   0.307 -0.5602  0.0295 -0.6613
  598MOL0     C80632   1.346   7.876   0.253  0.3602  1.7245  1.1538
  598MOL0     C80633   1.276   8.004   0.263  0.8818  0.5734  0.2790
  598MOL0     C80634   1.353   8.126   0.243 -0.1201 -0.5154 -0.4173
  598MOL0     C80635   1.286   8.257   0.275  0.3293  0.2367 -0.5858
  598MOL0     C80636   1.392   8.368   0.286  0.3019  1.3357  0.3220
  598MOL0     C80637   1.492   8.388   0.175  0.3080 -0.4284 -0.0356
  598MOL0     C80638   1.565   8.520   0.195  0.1911  0.1138 -0.1781
  598MOL0    Cl80639   1.700   8.514   0.090  0.0352  0.2411 -0.0092
  598MOL0     C80640   1.329   7.422   0.338 -0.6490 -0.5623  0.3614
  598MOL0     C80641   1.297   7.311   0.411  0.4091 -0.2685  0.9564
  598MOL0     O80642   1.354   7.137   0.657 -0.2669 -0.8194 -0.5653
  598MOL0     C80643   1.289   6.861   0.609 -0.2193 -0.4052  0.9717
  598MOL0     C80644   1.243   6.732   0.619 -0.4639  0.1756 -0.2803
  598MOL0     N80645   0.565   6.641   0.721 -0.0454  0.0833  0.5587
  598MOL0     N80646   0.530   6.770   0.729  0.6783 -0.2309  0.8232
  598MOL0     C80647   0.746   7.714   1.190  0.2742  0.0004 -0.3607
  598MOL0     C80648   0.838   7.798   1.270  0.4691  0.4803  0.3650
  598MOL0     C80649   1.101   7.891   1.638 -0.1163  0.2886  1.1148
  598MOL0     C80650   1.229   7.881   1.585 -0.0759  0.7730 -0.1624
  598MOL0     C80651   1.338   7.946   1.642 -0.1657  0.1494 -0.1242
  598MOL0     C80652   1.321   8.014   1.755 -0.1193 -0.0384 -0.2082
  598MOL0     O80653   1.435   8.062   1.811 -0.4957  0.6022  0.8623
  598MOL0     C80654   1.454   8.198   1.857 -0.3802  0.0674  0.5133
  598MOL0     C80655   1.438   8.292   1.746  0.0128  0.0016 -0.2047
  598MOL0     C80656   1.453   8.438   1.781 -0.4254 -0.3893 -0.9769
  598MOL0     C80657   1.444   8.534   1.665 -0.1010 -0.3064  0.5914
  598MOL0     C80658   1.309   8.554   1.606  0.9565  0.7424  0.2153
  598MOL0     C80659   1.194   8.558   1.553 -1.0072  0.0871 -0.4364
  598MOL0     C80660   1.201   8.024   1.820  0.5349  0.4758 -0.2255
  598MOL0     C80661   1.090   7.974   1.761  0.8343  0.7275 -0.2992
  598MOL0     C80662   0.964   7.998   1.846 -0.3906  0.2523 -0.3801
  598MOL0     H80663   0.988   7.562   1.447 -1.2653  0.1873  1.9261
  598MOL0     H80664   0.828   7.420   1.323  0.7224 -0.0006 -1.3245
  598MOL0     H80665   0.778   7.350   1.133  0.0284  0.0233 -0.2978
  598MOL0     H80666   0.618   7.324   1.211  0.5333 -1.6412  0.2499
  598MOL0     H80667   0.625   7.218   1.010  1.7488  0.2628 -2.4617
  598MOL0     H80668   0.689   7.352   0.918 -1.0206  0.7678 -0.6410
  598MOL0     H80669   0.490   7.483   0.927  1.6695  0.7718 -0.1380
  598MOL0     H80670   0.423   7.375   1.058  0.3256 -0.8745  0.8837
  598MOL0     H80671   0.407   7.193   0.900  0.9348  0.5298  1.2110
  598MOL0     H80672   0.303   7.331   0.880 -1.4749 -1.7535 -1.2881
  598MOL0     H80673   0.429   7.412   0.691  0.4055  0.1407  1.6075
  598MOL0     H80674   0.565   7.309   0.725  0.4901  0.2576 -3.0617
  598MOL0     H80675   0.301   7.171   0.637  0.2671  0.0967 -0.9326
  598MOL0     H80676   0.416   7.221   0.524 -0.6790  1.2751  0.2401
  598MOL0     H80677   0.506   7.035   0.759  0.1886  1.0671 -0.6552
  598MOL0     H80678   0.589   7.076   0.609 -0.7905  1.4047 -1.3672
  598MOL0     H80679   0.324   6.919   0.603  0.8358  0.8971  3.1058
  598MOL0     H80680   0.432   6.960   0.469 -0.4662  0.5072  0.8449
  598MOL0     H80681   0.528   6.714   0.403  2.5271 -0.9349 -0.7065
  598MOL0     H80682   0.554   6.418   0.537  0.6675 -1.8842  3.8997
  598MOL0     H80683   0.684   6.502   0.447 -0.4679  3.5491  0.9259
  598MOL0     H80684   0.698   6.418   0.751  1.8232  3.8901  1.0178
  598MOL0     H80685   0.773   6.326   0.610  0.1903  0.1466 -0.0322
  598MOL0     H80686   0.917   6.437   0.732 -0.7361 -0.6002 -0.1537
  598MOL0     H80687   0.857   6.603   0.715 -0.3040  1.1551 -1.6941
  598MOL0     H80688   0.887   6.611   0.481  0.8511  1.4351  2.0862
  598MOL0     H80689   0.952   6.442   0.483 -1.3583 -0.5951  0.5695
  598MOL0     H80690   0.902   6.791   0.579  0.2935  1.6131 -1.2012
  598MOL0     H80691   0.988   7.017   0.590  1.5694  0.5266 -1.3637
  598MOL0     H80692   1.029   7.418   0.584  0.4403 -0.9261  2.0490
  598MOL0     H80693   1.050   7.592   0.437  0.3014  0.6602  2.6549
  598MOL0     H80694   1.150   7.777   0.278 -0.7022  0.5939  0.1171
  598MOL0     H80695   1.251   7.786   0.414  0.9202  2.3812 -1.0552
  598MOL0     H80696   1.436   7.874   0.316  0.0928  1.6692  1.5347
  598MOL0     H80697   1.371   7.857   0.148 -2.2984  2.5686  0.2852
  598MOL0     H80698   1.185   7.993   0.203 -0.8682 -1.6306  3.0864
  598MOL0     H80699   1.237   8.017   0.364 -0.3061  2.6317 -0.3763
  598MOL0     H80700   1.377   8.132   0.137  4.5381  1.2656  0.4739
  598MOL0     H80701   1.454   8.119   0.284  2.3807 -1.9154 -5.8664
  598MOL0     H80702   1.238   8.257   0.374 -0.7214 -2.2043 -1.0303
  598MOL0     H80703   1.219   8.282   0.193  0.4139  0.4878 -0.5816
  598MOL0     H80704   1.327   8.456   0.292  1.3070  2.3805 -2.6510
  598MOL0     H80705   1.439   8.361   0.385 -2.2337 -1.3617  1.4851
  598MOL0     H80706   1.449   8.378   0.075  1.5669 -1.0412 -0.5393
  598MOL0     H80707   1.566   8.307   0.172 -0.2522 -1.0478  1.5762
  598MOL0     H80708   1.505   8.604   0.159 -1.8391  0.2709  3.0956
  598MOL0     H80709   1.582   8.532   0.303 -3.1530  3.6653  0.1869
  598MOL0     H80710   1.405   7.398   0.265 -0.3473 -0.7602  0.7339
  598MOL0     H80711   1.363   7.231   0.382  0.9045  0.4233  0.0925
  598MOL0     H80712   1.394   6.886   0.618  0.3387 -2.2999  0.1614
  598MOL0     H80713   1.317   6.656   0.640  0.2329  0.0030 -2.9586
  598MOL0     H80714   0.672   7.751   1.120  0.9096  0.0205 -1.0339
  598MOL0     H80715   0.820   7.905   1.274  1.6284  0.6623  1.8795
  598MOL0     H80716   1.256   7.819   1.500  2.6192  1.8973 -0.2181
  598MOL0     H80717   1.441   7.936   1.608  0.0268 -2.0476  0.9629
  598MOL0     H80718   1.558   8.213   1.889  0.5130  2.2426 -2.8524
  598MOL0     H80719   1.389   8.231   1.938 -0.2701 -0.1631  0.6973
  598MOL0     H80720   1.345   8.273   1.691 -0.5634  0.9427  0.4068
  598MOL0     H80721   1.517   8.263   1.676 -1.2346 -1.9716 -0.8609
  598MOL0     H80722   1.553   8.457   1.822 -0.6658  0.6209 -0.8474
  598MOL0     H80723   1.380   8.467   1.856 -1.4917 -0.9683 -1.7662
  598MOL0     H80724   1.476   8.633   1.699  1.1696  0.6116 -2.9273
  598MOL0     H80725   1.522   8.505   1.594 -0.4159 -2.0260  0.8965
  598MOL0     H80726   1.088   8.558   1.540 -1.1545 -0.0759  0.6617
  598MOL0     H80727   1.197   8.061   1.922  1.5123 -1.8934  0.7468
  598MOL0     H80728   0.949   7.928   1.929 -1.7248 -0.8644 -1.4925
  598MOL0     H80729   0.957   8.101   1.880  1.6524  0.1323  0.5581
  598MOL0     H80730   0.873   7.983   1.786 -0.4119  1.5537 -0.7000
  599MOL0     O80731   0.056   7.192   8.502 -1.2329 -0.7255 -0.3512
  599MOL0     C80732   0.025   7.128   8.402  0.9771 -0.3704  0.3585
  599MOL0     O80733   0.115   7.052   8.338  0.4472  0.2598  0.2059
  599MOL0     C80734   0.248   7.084   8.361 -1.0384  0.4805  0.1579
  599MOL0     C80735   0.294   7.194   8.288 -0.1886 -0.3914  0.7936
  599MOL0     C80736   0.430   7.222   8.259  0.5813 -0.2310  0.5310
  599MOL0     C80737   0.530   7.140   8.316  0.1425  0.8276 -0.2669
  599MOL0     O80738   0.657   7.191   8.303  0.4714 -0.2303 -0.4271
  599MOL0     C80739   0.756   7.093   8.311  0.0504 -0.2385  0.7002
  599MOL0     C80740   0.888   7.137   8.242  0.0954 -1.2873  0.1150
  599MOL0     C80741   0.985   7.023   8.256  0.6618 -0.9976 -0.5912
  599MOL0     C80742   1.090   7.048   8.375  0.9935  1.0164  0.7120
  599MOL0     C80743   1.213   7.133   8.321 -0.2223 -0.2337 -0.5280
  599MOL0     C80744   1.316   7.145   8.440 -0.2084 -0.4995  1.1295
  599MOL0     C80745   1.449   7.195   8.375 -0.5093  0.2936 -0.3354
  599MOL0     C80746   1.568   7.222   8.472  0.0632  0.4901 -0.1948
  599MOL0     N80747   1.681   7.255   8.392 -0.3512  0.5233  0.2616
  599MOL0     C80748   1.709   7.369   8.314  1.4032 -0.1404  0.0849
  599MOL0     C80749   1.824   7.348   8.245  0.8708 -0.6019 -0.2532
  599MOL0     C80750   1.872   7.440   8.136 -0.3319 -0.1021 -0.0675
  599MOL0     C80751   1.971   7.535   8.200  0.1805 -0.1612 -0.8571
  599MOL0     C80752   1.906   7.653   8.283 -0.0770  1.4833  0.0144
  599MOL0     C80753   2.008   7.710   8.377 -0.0343  0.4138 -0.2785
  599MOL0     O80754   2.070   7.828   8.321  0.0166 -0.1438  0.4603
  599MOL0     C80755   2.150   7.916   8.391  0.5016 -0.1516  0.3331
  599MOL0     C80756   2.181   8.030   8.325  0.8208 -1.1560  0.0617
  599MOL0     C80757   2.260   8.132   8.378 -0.1556  0.2265 -1.5286
  599MOL0     C80758   2.286   8.130   8.516 -0.1105  0.0167 -0.6223
  599MOL0     C80759   2.358   8.240   8.579  0.0712 -0.1615 -0.8620
  599MOL0     O80760   2.360   8.249   8.719  0.2925  0.8307 -0.1053
  599MOL0     C80761   2.419   8.369   8.768  0.7740  0.8085 -0.3110
  599MOL0     C80762   2.335   8.449   8.845 -0.0280  0.3476  0.6262
  599MOL0     C80763   2.384   8.558   8.911  0.2054 -0.4442  0.4253
  599MOL0     C80764   2.524   8.600   8.899  0.0508  1.2908  0.2840
  599MOL0     O80765   2.599   8.705   8.950  0.2810 -0.6988  0.4223
  599MOL0     C80766   2.525   8.783   9.043  0.8638 -0.6324 -0.3249
  599MOL0     C80767   2.606   8.887   9.125 -0.3460 -0.5729  0.4416
  599MOL0     C80768   2.660   9.000   9.038 -0.1568  0.0944  0.1597
  599MOL0     C80769   2.785   8.966   8.963  0.7282 -0.6927 -0.2607
  599MOL0     C80770   2.856   9.089   8.899 -0.4933  0.4742 -0.0480
  599MOL0     C80771   2.785   9.206   8.847 -1.3356  0.2050  0.9294
  599MOL0     C80772   2.874   9.317   8.793  0.4341  0.6544 -0.4037
  599MOL0     C80773   2.806   9.447   8.746 -1.2288 -0.4598 -0.8277
  599MOL0    Cl80774   2.919   9.511   8.629  0.0967 -0.0358  0.0385
  599MOL0     C80775   2.607   8.505   8.826 -0.1839  0.3360 -0.7758
  599MOL0     C80776   2.552   8.399   8.759 -0.2958  0.6328 -0.0445
  599MOL0     O80777   2.400   8.325   8.500  0.0253  0.1916 -0.9217
  599MOL0     C80778   2.248   8.015   8.590 -0.2102 -0.0429 -0.1311
  599MOL0     C80779   2.181   7.908   8.525  0.0183 -0.2187  0.2348
  599MOL0     N80780   1.865   7.224   8.285  0.1372 -0.8100 -0.6412
  599MOL0     N80781   1.776   7.166   8.373  0.1011 -0.3103  0.2491
  599MOL0     C80782   0.490   7.037   8.402  0.6586  0.2417 -0.4131
  599MOL0     C80783   0.353   7.000   8.410  0.2185  0.4732 -0.4782
  599MOL0     C80784  -0.122   7.115   8.365  0.1637 -0.0064 -0.9107
  599MOL0     C80785  -0.209   7.101   8.472 -0.2001 -0.3208  0.1748
  599MOL0     C80786  -0.346   7.080   8.449  0.2218  0.4125  0.4040
  599MOL0     C80787  -0.395   7.071   8.322  0.2561  1.2696 -0.1592
  599MOL0     O80788  -0.527   7.055   8.286 -0.1306 -0.4852  0.2342
  599MOL0     C80789  -0.615   7.005   8.385  0.1469  0.1694 -0.3040
  599MOL0     C80790  -0.712   7.109   8.445  1.2694 -0.2832  0.5821
  599MOL0     C80791  -0.849   7.131   8.370 -0.7900  0.6205 -0.1196
  599MOL0     C80792  -0.845   7.257   8.292  0.1476 -1.0425 -1.2612
  599MOL0     C80793  -0.892   7.363   8.386  0.0959 -0.2006 -0.6039
  599MOL0     C80794  -0.934   7.446   8.458  0.8558 -0.7707 -0.1064
  599MOL0     C80795  -0.308   7.079   8.218  0.0906 -0.4672  0.5250
  599MOL0     C80796  -0.169   7.109   8.235  0.8864  0.0227  0.7812
  599MOL0     C80797  -0.095   7.148   8.111  0.5993 -0.3269 -0.6874
  599MOL0     H80798   0.218   7.248   8.231  0.3661 -1.4219 -0.9942
  599MOL0     H80799   0.453   7.318   8.213 -1.7312  2.2065  3.9664
  599MOL0     H80800   0.786   7.083   8.416  3.8912 -0.5768 -0.2878
  599MOL0     H80801   0.717   6.996   8.278  1.9784 -1.0867  0.7566
  599MOL0     H80802   0.927   7.226   8.292  0.1416 -1.7189  0.8679
  599MOL0     H80803   0.872   7.157   8.135  0.0849  0.2296  0.3753
  599MOL0     H80804   1.032   7.011   8.158 -0.1283 -0.3927 -1.0599
  599MOL0     H80805   0.933   6.929   8.276 -2.3133  0.6724  0.2726
  599MOL0     H80806   1.044   7.101   8.459  2.7289  3.2843  0.3526
  599MOL0     H80807   1.122   6.948   8.405 -0.5534 -0.0109 -0.8768
  599MOL0     H80808   1.255   7.066   8.245 -2.8384 -3.5284  0.6422
  599MOL0     H80809   1.186   7.229   8.278 -2.4795 -0.0477  1.1002
  599MOL0     H80810   1.276   7.221   8.508 -1.2995 -0.2561  0.2466
  599MOL0     H80811   1.337   7.056   8.500 -0.2083 -1.4124 -0.1825
  599MOL0     H80812   1.423   7.273   8.303  1.2308  1.5848  0.3569
  599MOL0     H80813   1.484   7.114   8.311 -0.6860  1.2775 -1.7026
  599MOL0     H80814   1.543   7.304   8.540  2.1515 -0.3254  1.6579
  599MOL0     H80815   1.583   7.135   8.536 -1.0069 -0.2964 -0.9859
  599MOL0     H80816   1.640   7.451   8.300 -0.4283 -1.7365 -0.7221
  599MOL0     H80817   1.931   7.378   8.068  0.7332  0.1919  0.5684
  599MOL0     H80818   1.789   7.483   8.079 -2.7712  0.4439  3.5923
  599MOL0     H80819   2.044   7.478   8.258  1.3076  2.0232  0.0105
  599MOL0     H80820   2.032   7.576   8.119  1.8659  2.6211  1.5716
  599MOL0     H80821   1.828   7.612   8.349 -1.2812  1.9325 -1.0783
  599MOL0     H80822   1.857   7.723   8.214 -0.4989  0.1022 -1.1444
  599MOL0     H80823   2.082   7.632   8.399  0.8611  1.3543  0.1451
  599MOL0     H80824   1.969   7.744   8.473  3.3917 -1.1420  1.8404
  599MOL0     H80825   2.151   8.047   8.222  0.7859 -3.5142 -0.3761
  599MOL0     H80826   2.288   8.216   8.315 -1.0333  0.3247 -1.8026
  599MOL0     H80827   2.233   8.411   8.844 -0.0250  0.1781 -2.0442
  599MOL0     H80828   2.328   8.626   8.974  2.5839  2.7149 -0.5892
  599MOL0     H80829   2.450   8.846   8.993  3.6061  2.1812 -1.1811
  599MOL0     H80830   2.479   8.715   9.116  1.5005 -0.4045  0.2991
  599MOL0     H80831   2.538   8.941   9.191  3.0773  4.4392  0.4910
  599MOL0     H80832   2.684   8.836   9.181 -0.1863 -0.2247  0.5388
  599MOL0     H80833   2.590   9.051   8.970  1.2760 -0.1916 -1.6167
  599MOL0     H80834   2.707   9.074   9.103  1.3894 -1.2731  0.6755
  599MOL0     H80835   2.761   8.900   8.879  1.0367 -1.5757  0.3280
  599MOL0     H80836   2.855   8.902   9.018 -1.2701 -0.1482  3.1584
  599MOL0     H80837   2.923   9.043   8.826  1.0560 -0.4968  1.8890
  599MOL0     H80838   2.915   9.116   8.987  2.4245 -3.2501 -0.6186
  599MOL0     H80839   2.717   9.182   8.765 -2.8816 -0.1838  2.2497
  599MOL0     H80840   2.722   9.257   8.922 -1.5675  2.4045 -0.6495
  599MOL0     H80841   2.925   9.273   8.707  0.3861 -1.9644  0.8402
  599MOL0     H80842   2.941   9.339   8.876 -0.7305  1.4108  0.3611
  599MOL0     H80843   2.710   9.438   8.694 -1.8765 -2.2642  0.5824
  599MOL0     H80844   2.800   9.523   8.825  1.6537 -0.7973 -0.1967
  599MOL0     H80845   2.711   8.531   8.813 -0.0240  0.3528  0.3782
  599MOL0     H80846   2.613   8.329   8.702 -0.4158  1.5612 -1.3467
  599MOL0     H80847   2.262   8.023   8.698  0.5744 -0.1232 -0.2226
  599MOL0     H80848   2.140   7.823   8.578  0.5455 -1.7860 -1.7645
  599MOL0     H80849   0.566   6.983   8.457 -0.5952  0.8694  2.1365
  599MOL0     H80850   0.312   6.910   8.456 -3.1253  1.6357 -0.8854
  599MOL0     H80851  -0.181   7.116   8.576  0.3882  1.2769 -0.1788
  599MOL0     H80852  -0.410   7.064   8.536 -1.5898  0.3046 -0.8787
  599MOL0     H80853  -0.566   6.943   8.460 -0.1117  1.5908  1.0888
  599MOL0     H80854  -0.684   6.938   8.332 -1.7799  1.1969  0.8191
  599MOL0     H80855  -0.667   7.208   8.457  2.0219 -0.5234 -0.1136
  599MOL0     H80856  -0.736   7.075   8.546  1.1640 -0.5999  0.4527
  599MOL0     H80857  -0.941   7.132   8.430 -0.2239  1.4619  0.7767
  599MOL0     H80858  -0.858   7.048   8.300 -1.0158  1.1872 -0.7711
  599MOL0     H80859  -0.745   7.286   8.258 -0.3172  0.2069 -1.6328
  599MOL0     H80860  -0.909   7.241   8.204 -1.2841 -1.6478 -0.1458
  599MOL0     H80861  -0.969   7.534   8.508  0.5502  0.2248 -2.0175
  599MOL0     H80862  -0.363   7.088   8.124 -0.3144  3.2380  0.9354
  599MOL0     H80863  -0.174   7.152   8.035  0.8287  1.3412 -0.8801
  599MOL0     H80864  -0.037   7.241   8.117  1.5623 -0.9033 -0.9018
  599MOL0     H80865  -0.034   7.065   8.076 -1.8484 -2.7641  0.4802
  600MOL0     O80866   6.192   9.128   0.752  0.3212  0.3821  0.2474
  600MOL0     C80867   6.171   9.245   0.719 -0.1239  0.1891  1.0481
  600MOL0     O80868   6.262   9.349   0.718 -0.2002  1.5331  0.4696
  600MOL0     C80869   6.376   9.343   0.797  0.1305  0.0652  0.4672
  600MOL0     C80870   6.420   9.471   0.829  0.4394 -0.2818  0.3261
  600MOL0     C80871   6.536   9.486   0.902 -0.9682 -0.8779 -0.0589
  600MOL0     C80872   6.616   9.370   0.926 -0.4165  0.7491  0.2832
  600MOL0     O80873   6.738   9.367   0.985  0.0578 -0.3218 -0.0976
  600MOL0     C80874   6.750   9.455   1.099 -0.3092 -0.2379 -0.3864
  600MOL0     C80875   6.856   9.394   1.186  0.4997  0.5807 -0.1780
  600MOL0     C80876   6.855   9.463   1.319 -0.2792  0.3345 -0.7282
  600MOL0     C80877   6.986   9.421   1.396  0.9122  1.0512 -0.7130
  600MOL0     C80878   6.969   9.472   1.541  0.2734  0.4883 -0.3929
  600MOL0     C80879   6.870   9.401   1.631  0.1724 -0.5622  0.0797
  600MOL0     C80880   6.892   9.247   1.619  1.1557 -0.1285  0.0733
  600MOL0     C80881   6.762   9.165   1.662 -0.1275 -0.5463  0.0484
  600MOL0     N80882   6.632   9.204   1.607 -0.2476  0.2982  0.0316
  600MOL0     C80883   6.603   9.184   1.472 -0.3409 -0.5525 -0.0714
  600MOL0     C80884   6.494   9.267   1.448 -0.2718  0.0096 -0.7837
  600MOL0     C80885   6.422   9.273   1.318 -0.1582 -0.0057  1.2334
  600MOL0     C80886   6.270   9.280   1.326 -0.5027 -0.0688  0.4580
  600MOL0     C80887   6.198   9.267   1.184 -0.2454 -0.5345  0.2344
  600MOL0     C80888   6.053   9.215   1.199 -0.4624  0.1708 -0.2141
  600MOL0     O80889   6.010   9.174   1.059 -0.6052  0.6488 -0.5822
  600MOL0     C80890   5.878   9.175   1.047  0.0017  0.3336 -0.6289
  600MOL0     C80891   5.820   9.249   0.948 -0.3381 -0.6299 -0.4520
  600MOL0     C80892   5.682   9.238   0.921 -0.1196 -0.4760 -0.1820
  600MOL0     C80893   5.597   9.154   0.994 -0.4796  0.2023 -0.3077
  600MOL0     C80894   5.454   9.149   0.946  0.0341  0.0607 -0.0018
  600MOL0     O80895   5.426   9.241   0.845  0.2822  0.5561 -0.1268
  600MOL0     C80896   5.312   9.241   0.775  0.1060  0.3668  0.3826
  600MOL0     C80897   5.277   9.134   0.697  0.6369 -0.1931  0.3537
  600MOL0     C80898   5.161   9.134   0.622  0.0347 -0.5469 -0.1735
  600MOL0     C80899   5.068   9.239   0.640  0.3666 -0.1237 -0.3182
  600MOL0     O80900   4.943   9.229   0.581 -0.2307  0.8757  0.6672
  600MOL0     C80901   4.843   9.332   0.578  1.0306 -0.3265 -0.1698
  600MOL0     C80902   4.762   9.317   0.446 -0.0822 -0.5405 -0.4216
  600MOL0     C80903   4.664   9.430   0.426 -0.1357  0.6238  0.0493
  600MOL0     C80904   4.570   9.402   0.307 -2.0361  0.3693 -0.0514
  600MOL0     C80905   4.438   9.483   0.324 -0.1439 -0.3828  0.6932
  600MOL0     C80906   4.345   9.447   0.212  0.3830 -0.1527  0.4725
  600MOL0     C80907   4.415   9.462   0.080 -0.0869 -0.2552 -0.3980
  600MOL0     C80908   4.309   9.433  -0.026  0.8071  0.0458 -0.1208
  600MOL0    Cl80909   4.408   9.440  -0.173 -0.5197  0.0468  0.1808
  600MOL0     C80910   5.103   9.352   0.714 -0.6379 -0.3232  0.8067
  600MOL0     C80911   5.228   9.348   0.781  0.1639 -0.2050  0.9202
  600MOL0     O80912   5.378   9.066   0.993  0.8977  0.5199  0.2180
  600MOL0     C80913   5.658   9.081   1.107  0.0779  0.4365  0.3546
  600MOL0     C80914   5.802   9.093   1.125  1.3988  0.0911 -0.1519
  600MOL0     N80915   6.457   9.333   1.570  0.3280  0.2271  0.7423
  600MOL0     N80916   6.532   9.279   1.665  0.1000  0.2411  0.0819
  600MOL0     C80917   6.581   9.250   0.872  0.2971  0.3040  0.9276
  600MOL0     C80918   6.455   9.235   0.814  0.6989  0.8119 -0.2444
  600MOL0     C80919   6.048   9.276   0.649  0.2060 -0.9871  0.9057
  600MOL0     C80920   5.997   9.403   0.666  0.5622  0.4297  0.3440
  600MOL0     C80921   5.875   9.439   0.597 -0.2728 -0.1644  0.2204
  600MOL0     C80922   5.807   9.345   0.520  0.5983  0.0625  0.2867
  600MOL0     O80923   5.698   9.382   0.446 -0.8532  1.1697 -0.4414
  600MOL0     C80924   5.569   9.361   0.518  0.1605 -0.0166 -0.1275
  600MOL0     C80925   5.453   9.326   0.432 -0.1263  1.4090 -0.8500
  600MOL0     C80926   5.460   9.181   0.373  0.6749 -0.1858 -0.5303
  600MOL0     C80927   5.361   9.153   0.259  1.1319 -0.2527  0.0472
  600MOL0     C80928   5.226   9.169   0.298  0.2845 -0.0451 -0.4393
  600MOL0     C80929   5.106   9.180   0.320  0.4928  0.3774 -0.9396
  600MOL0     C80930   5.865   9.214   0.503  0.5528 -0.1028 -0.1617
  600MOL0     C80931   5.983   9.182   0.560  0.1399  0.3219  0.4186
  600MOL0     C80932   6.036   9.040   0.514  0.8942 -0.9122 -0.9414
  600MOL0     H80933   6.370   9.559   0.790  0.9832  0.7449  1.8713
  600MOL0     H80934   6.573   9.587   0.914 -3.8255  0.6388 -2.5657
  600MOL0     H80935   6.778   9.552   1.058  1.5654 -1.3776 -2.0117
  600MOL0     H80936   6.652   9.473   1.145 -1.5515  0.2011 -2.9938
  600MOL0     H80937   6.956   9.405   1.143  0.4934  0.4957 -0.2137
  600MOL0     H80938   6.833   9.288   1.203  0.3256  0.5884 -0.3684
  600MOL0     H80939   6.771   9.446   1.387  1.6164 -2.9099  1.0480
  600MOL0     H80940   6.855   9.572   1.305  0.4616  0.6250  1.2889
  600MOL0     H80941   7.000   9.314   1.384 -0.4336  0.9470 -1.6030
  600MOL0     H80942   7.079   9.460   1.353  2.8099 -0.3650  1.8544
  600MOL0     H80943   7.062   9.453   1.596 -1.3152 -1.0616  1.9254
  600MOL0     H80944   6.943   9.578   1.543 -0.4464  0.3619 -1.7305
  600MOL0     H80945   6.878   9.418   1.739  1.4407 -2.3081  0.3004
  600MOL0     H80946   6.767   9.426   1.603  0.4908 -0.9402 -1.4892
  600MOL0     H80947   6.980   9.221   1.679  0.3701  1.1225  1.8495
  600MOL0     H80948   6.905   9.220   1.514  1.1821  1.7230 -0.4395
  600MOL0     H80949   6.779   9.061   1.635 -0.6210 -0.1207 -2.0458
  600MOL0     H80950   6.754   9.170   1.771  2.1059 -0.8443  0.2830
  600MOL0     H80951   6.659   9.128   1.399 -2.1022 -1.8627 -0.4784
  600MOL0     H80952   6.458   9.352   1.251  0.3857 -1.3687 -0.1446
  600MOL0     H80953   6.448   9.174   1.279 -0.7607 -0.0870  1.0374
  600MOL0     H80954   6.247   9.195   1.391  0.4023 -1.2002 -0.6459
  600MOL0     H80955   6.237   9.376   1.366 -1.4411 -0.1414 -0.1220
  600MOL0     H80956   6.247   9.201   1.113  0.7325  0.4771 -0.0595
  600MOL0     H80957   6.178   9.362   1.132  2.5309 -0.6285 -1.1888
  600MOL0     H80958   5.992   9.291   1.248  0.9981  0.3582  1.4222
  600MOL0     H80959   6.056   9.129   1.266 -2.1390  0.0430 -0.2659
  600MOL0     H80960   5.883   9.316   0.892  0.2574  1.2931  2.2934
  600MOL0     H80961   5.647   9.302   0.840  1.2459  0.2573 -0.2224
  600MOL0     H80962   5.332   9.040   0.699 -1.7367 -1.6855  0.9317
  600MOL0     H80963   5.144   9.057   0.548  2.6909 -0.0141 -1.4857
  600MOL0     H80964   4.779   9.322   0.667  0.5308 -0.9975 -0.5965
  600MOL0     H80965   4.900   9.425   0.583  2.5498 -1.0404 -2.5724
  600MOL0     H80966   4.833   9.307   0.363 -1.1423  0.2830 -1.4651
  600MOL0     H80967   4.710   9.222   0.456 -0.5466 -0.1040  2.0902
  600MOL0     H80968   4.609   9.449   0.519 -2.7340 -2.3004 -0.7427
  600MOL0     H80969   4.722   9.519   0.400 -2.0523  1.7659 -0.4612
  600MOL0     H80970   4.543   9.296   0.296 -0.9509  0.0984 -0.1551
  600MOL0     H80971   4.626   9.438   0.221 -2.1958 -0.3972 -0.4808
  600MOL0     H80972   4.464   9.589   0.323 -2.1449  0.1456  0.7671
  600MOL0     H80973   4.386   9.476   0.420 -0.0885  1.7188  0.9229
  600MOL0     H80974   4.302   9.348   0.233  0.0990  0.2027  1.6972
  600MOL0     H80975   4.259   9.516   0.212  0.4740  0.1087 -3.0605
  600MOL0     H80976   4.498   9.392   0.063 -1.1413 -2.2291  1.9359
  600MOL0     H80977   4.459   9.559   0.059 -2.1790  0.3533 -2.5112
  600MOL0     H80978   4.271   9.331  -0.019 -0.8234  0.5508 -1.0877
  600MOL0     H80979   4.224   9.502  -0.024  0.5462 -0.2713 -0.2139
  600MOL0     H80980   5.047   9.445   0.724 -0.8940 -0.4068  0.2265
  600MOL0     H80981   5.274   9.424   0.843 -0.3519  1.2918 -0.4526
  600MOL0     H80982   5.594   9.018   1.169  0.0043 -0.6792 -0.8065
  600MOL0     H80983   5.852   9.045   1.209  1.2013  2.1532  1.2021
  600MOL0     H80984   6.644   9.163   0.885 -0.9762 -0.6793  0.7300
  600MOL0     H80985   6.431   9.135   0.779  1.0276  0.9199 -0.8052
  600MOL0     H80986   6.052   9.470   0.732 -1.8383  2.1795  0.6948
  600MOL0     H80987   5.829   9.538   0.602  0.7633  0.5854 -2.8175
  600MOL0     H80988   5.537   9.449   0.574 -1.6140 -0.7014 -0.0270
  600MOL0     H80989   5.576   9.279   0.589  0.1201 -0.6087 -0.7938
  600MOL0     H80990   5.445   9.397   0.349 -1.1880  1.3987 -0.7655
  600MOL0     H80991   5.359   9.329   0.488 -0.1267  1.1049 -0.8332
  600MOL0     H80992   5.471   9.096   0.441  1.3035  0.6555  0.4531
  600MOL0     H80993   5.557   9.190   0.324  0.3488  2.3087 -0.8534
  600MOL0     H80994   5.372   9.223   0.176 -2.4713  0.2067 -0.2178
  600MOL0     H80995   5.369   9.050   0.222 -0.9879  0.2046 -1.9648
  600MOL0     H80996   5.000   9.176   0.337  0.7178  0.5763  0.7391
  600MOL0     H80997   5.802   9.145   0.447 -2.5234  2.2311  0.1509
  600MOL0     H80998   6.040   8.974   0.601 -0.0121 -0.1577 -0.3018
  600MOL0     H80999   5.976   9.006   0.430 -2.5172  2.8064 -0.3309
  600MOL0     H81000   6.139   9.069   0.492  1.3419  2.0701  3.6378
  601MOL0     O81001   3.875   5.527   1.377 -0.0810  0.3785 -0.4435
  601MOL0     C81002   3.899   5.421   1.320  0.4753 -0.7223 -0.9929
  601MOL0     O81003   4.005   5.341   1.345 -0.0954 -0.3009  0.5810
  601MOL0     C81004   4.102   5.364   1.436 -0.1051  0.1241 -1.2498
  601MOL0     C81005   4.184   5.260   1.465  0.3969 -0.5946  1.1928
  601MOL0     C81006   4.290   5.267   1.558 -0.3098  0.5479 -1.3635
  601MOL0     C81007   4.301   5.372   1.643 -0.2278  0.4434 -0.4785
  601MOL0     O81008   4.401   5.369   1.737 -0.0833  0.8631  0.1943
  601MOL0     C81009   4.516   5.455   1.710 -0.5668  0.0358 -0.1209
  601MOL0     C81010   4.519   5.564   1.820 -0.0592  0.0822  0.4256
  601MOL0     C81011   4.646   5.649   1.828  0.0222 -0.5342  0.2970
  601MOL0     C81012   4.666   5.734   1.699 -0.2785  0.4986  0.0973
  601MOL0     C81013   4.781   5.837   1.722 -0.9572 -0.5473 -0.2344
  601MOL0     C81014   4.911   5.774   1.772  0.2778  0.3594  0.1014
  601MOL0     C81015   5.040   5.850   1.727 -0.3748 -0.3874  0.9209
  601MOL0     C81016   5.027   6.003   1.730 -0.1666  0.2968 -0.0321
  601MOL0     N81017   5.158   6.067   1.745 -0.0941  0.8658  0.5854
  601MOL0     C81018   5.198   6.187   1.688 -0.9011 -0.2345  0.4195
  601MOL0     C81019   5.323   6.201   1.726  1.1607  0.1090  0.0293
  601MOL0     C81020   5.419   6.299   1.660  0.1569 -0.8451  0.1338
  601MOL0     C81021   5.417   6.441   1.719 -0.6757  1.4018  0.7215
  601MOL0     C81022   5.293   6.522   1.694  1.1581 -0.4988 -0.1819
  601MOL0     C81023   5.312   6.611   1.572  0.0086 -0.4237 -0.0150
  601MOL0     O81024   5.253   6.555   1.456 -0.8000  0.1790  0.4349
  601MOL0     C81025   5.231   6.637   1.353  0.3091 -0.3521 -0.1431
  601MOL0     C81026   5.290   6.765   1.331 -0.0395  0.4044 -0.3343
  601MOL0     C81027   5.243   6.848   1.223 -0.6029 -0.8611 -0.3502
  601MOL0     C81028   5.166   6.800   1.124 -0.2815 -0.3691  0.1747
  601MOL0     C81029   5.137   6.891   1.009  1.1218 -0.3557  0.3143
  601MOL0     O81030   5.176   7.023   1.025 -0.0421 -0.0279  0.5277
  601MOL0     C81031   5.120   7.104   0.928 -0.3447  0.0840  0.5549
  601MOL0     C81032   5.025   7.198   0.961  0.0792  0.7052  0.1397
  601MOL0     C81033   4.980   7.285   0.864 -0.8661 -0.2283 -0.0301
  601MOL0     C81034   5.043   7.290   0.735 -0.8733 -0.3335  0.0166
  601MOL0     O81035   5.013   7.407   0.674  0.2887 -0.0027  0.6470
  601MOL0     C81036   5.071   7.439   0.546  0.5379 -0.1175  0.0764
  601MOL0     C81037   5.029   7.580   0.484  0.5062 -0.2883 -0.3161
  601MOL0     C81038   5.036   7.691   0.589  0.3739 -0.3628 -0.3088
  601MOL0     C81039   4.913   7.755   0.634  0.4770 -0.3351 -0.1118
  601MOL0     C81040   4.942   7.861   0.734 -0.0103 -0.6742  0.9413
  601MOL0     C81041   4.998   7.801   0.864 -0.0070 -0.3524 -1.1914
  601MOL0     C81042   4.952   7.917   0.963  0.5970 -0.0799  0.6620
  601MOL0     C81043   5.031   7.892   1.087  0.7191 -0.5885 -0.2998
  601MOL0    Cl81044   4.994   8.020   1.208  0.5620  0.5142  0.0860
  601MOL0     C81045   5.130   7.191   0.690  0.4610 -0.6970 -0.9180
  601MOL0     C81046   5.175   7.103   0.797  0.9363  0.1044 -0.0365
  601MOL0     O81047   5.070   6.849   0.913 -0.1881 -0.1260  0.6206
  601MOL0     C81048   5.106   6.680   1.146  0.4102 -0.3669  0.3870
  601MOL0     C81049   5.130   6.602   1.257 -0.3751  0.0624 -0.5141
  601MOL0     N81050   5.355   6.110   1.820 -0.9777  0.1929  0.0648
  601MOL0     N81051   5.256   6.030   1.828  0.6865  0.4948  0.1046
  601MOL0     C81052   4.221   5.480   1.614 -0.0440 -0.0059 -0.5217
  601MOL0     C81053   4.121   5.479   1.515 -0.8388  0.6149  0.2895
  601MOL0     C81054   3.790   5.374   1.229 -0.1244 -0.7231  0.2868
  601MOL0     C81055   3.812   5.250   1.184  0.2504  0.4361 -0.1505
  601MOL0     C81056   3.725   5.176   1.099  0.2993 -0.4687 -0.2607
  601MOL0     C81057   3.609   5.240   1.055 -0.4845 -0.2972 -0.5656
  601MOL0     O81058   3.536   5.193   0.957 -0.5430 -0.0217  0.3160
  601MOL0     C81059   3.449   5.080   0.992 -0.9135  1.2653 -0.1096
  601MOL0     C81060   3.373   5.038   0.871  0.3532 -0.1407 -0.1861
  601MOL0     C81061   3.292   5.168   0.826 -0.2659  0.2355  0.8276
  601MOL0     C81062   3.354   5.227   0.691 -0.7413  0.0732 -0.0616
  601MOL0     C81063   3.315   5.135   0.578  0.6800 -0.7877 -0.1873
  601MOL0     C81064   3.271   5.072   0.487  0.2540 -0.9845 -0.2326
  601MOL0     C81065   3.585   5.370   1.096  0.4644 -0.0068  0.3432
  601MOL0     C81066   3.661   5.438   1.186  0.2018 -0.3960 -0.1755
  601MOL0     C81067   3.626   5.584   1.233 -0.3975  0.8706 -0.0430
  601MOL0     H81068   4.176   5.170   1.405 -2.6483 -0.9902  2.0170
  601MOL0     H81069   4.354   5.180   1.571  0.4749  0.8486 -2.9234
  601MOL0     H81070   4.607   5.398   1.733 -0.4782  0.0343 -0.4829
  601MOL0     H81071   4.515   5.496   1.609 -0.3940  0.6179  0.1085
  601MOL0     H81072   4.518   5.513   1.917 -0.2970  1.3290  1.1003
  601MOL0     H81073   4.431   5.629   1.815 -2.1747 -2.6773 -0.2995
  601MOL0     H81074   4.734   5.588   1.851 -0.4886 -0.4978  2.6763
  601MOL0     H81075   4.630   5.718   1.911 -0.8396 -0.3856  0.0165
  601MOL0     H81076   4.691   5.667   1.617 -1.5305  0.5597 -0.3493
  601MOL0     H81077   4.578   5.793   1.672  0.2893  1.3380  0.0297
  601MOL0     H81078   4.800   5.875   1.621 -0.0154 -0.2839  0.0335
  601MOL0     H81079   4.756   5.919   1.790 -0.6902  0.9861 -1.8964
  601MOL0     H81080   4.910   5.769   1.881 -0.3022  0.4550  0.1066
  601MOL0     H81081   4.921   5.668   1.747  0.0360  0.4675 -0.4807
  601MOL0     H81082   5.054   5.819   1.623  3.7322  1.3899  0.7350
  601MOL0     H81083   5.135   5.822   1.774  0.3324 -1.1428 -0.8789
  601MOL0     H81084   4.994   6.031   1.630  1.1359 -3.1917 -1.5863
  601MOL0     H81085   4.957   6.038   1.807  0.5779 -0.7791  1.1705
  601MOL0     H81086   5.144   6.222   1.601 -1.4011 -2.1169 -0.0868
  601MOL0     H81087   5.517   6.252   1.664  0.7740  0.3067 -0.7921
  601MOL0     H81088   5.380   6.309   1.558 -2.5355 -3.1361  0.8236
  601MOL0     H81089   5.430   6.430   1.827 -1.0522 -3.1669  0.4892
  601MOL0     H81090   5.508   6.493   1.689 -0.5892  1.7086  1.5052
  601MOL0     H81091   5.278   6.588   1.780 -1.9660  1.9496 -2.3763
  601MOL0     H81092   5.197   6.469   1.693  1.3769 -0.9003 -1.1135
  601MOL0     H81093   5.418   6.627   1.550  0.8139 -1.2352  2.8081
  601MOL0     H81094   5.257   6.702   1.600  0.2713 -0.0390 -0.7193
  601MOL0     H81095   5.369   6.804   1.393 -0.4716  2.7084 -1.1497
  601MOL0     H81096   5.289   6.945   1.210 -0.4029 -0.3733  2.9528
  601MOL0     H81097   5.003   7.198   1.067 -1.1097  1.6872 -0.0807
  601MOL0     H81098   4.921   7.369   0.899 -0.7479 -0.8074  1.6479
  601MOL0     H81099   5.180   7.436   0.552  0.5381  0.1229  0.2172
  601MOL0     H81100   5.034   7.359   0.481  2.4415 -0.9117 -0.0955
  601MOL0     H81101   5.105   7.591   0.406 -0.1473 -1.5756 -1.1620
  601MOL0     H81102   4.931   7.574   0.436  0.7096  1.1358 -0.9772
  601MOL0     H81103   5.090   7.663   0.680  0.4145  1.0081  0.1194
  601MOL0     H81104   5.093   7.776   0.550  1.7553 -1.6893 -1.3368
  601MOL0     H81105   4.848   7.676   0.675  0.9018  0.2028  1.6763
  601MOL0     H81106   4.861   7.805   0.552  0.6434 -0.9432 -0.6056
  601MOL0     H81107   4.850   7.919   0.740  0.5355  0.3872 -0.4639
  601MOL0     H81108   5.011   7.942   0.705 -0.7179 -0.3259  0.2081
  601MOL0     H81109   4.948   7.706   0.886  0.8529 -1.1098 -2.3610
  601MOL0     H81110   5.105   7.784   0.854 -0.0087 -0.2213 -1.4422
  601MOL0     H81111   4.844   7.905   0.976  0.6801 -1.9174 -0.0602
  601MOL0     H81112   4.970   8.019   0.928  1.2025 -0.8375 -1.3490
  601MOL0     H81113   5.008   7.801   1.143  2.2937 -0.8225  0.0062
  601MOL0     H81114   5.139   7.885   1.071  1.3329 -1.3607  3.4025
  601MOL0     H81115   5.174   7.201   0.591 -0.4635  4.0316 -1.0587
  601MOL0     H81116   5.252   7.029   0.776 -0.3392 -1.2241 -0.1862
  601MOL0     H81117   5.039   6.651   1.066 -0.0186 -0.1699  0.6735
  601MOL0     H81118   5.085   6.503   1.260 -2.5558  0.6650 -4.9064
  601MOL0     H81119   4.228   5.577   1.662  1.8136  0.1617 -1.0861
  601MOL0     H81120   4.055   5.564   1.526 -2.6508 -0.8255  0.9502
  601MOL0     H81121   3.900   5.190   1.205 -0.8144 -2.3868 -2.8806
  601MOL0     H81122   3.748   5.076   1.065 -1.6057 -0.3074 -2.3046
  601MOL0     H81123   3.373   5.113   1.063 -2.4251  2.1426 -2.0422
  601MOL0     H81124   3.513   5.002   1.035 -2.2693  1.3040  2.1407
  601MOL0     H81125   3.299   4.959   0.888  1.4024 -0.6384  2.5224
  601MOL0     H81126   3.440   5.016   0.787 -2.0379  2.2751 -2.9981
  601MOL0     H81127   3.303   5.242   0.906  2.4989  0.4358  0.3661
  601MOL0     H81128   3.187   5.138   0.821  0.2779 -1.9927  1.5191
  601MOL0     H81129   3.329   5.333   0.680 -2.9693 -0.5731 -2.1527
  601MOL0     H81130   3.463   5.228   0.700 -0.8728  0.9169  2.0418
  601MOL0     H81131   3.223   5.027   0.403 -1.0449 -3.4690  1.6853
  601MOL0     H81132   3.504   5.427   1.051  1.0515 -0.7488 -1.7918
  601MOL0     H81133   3.545   5.624   1.170 -1.3798  2.2532  1.9843
  601MOL0     H81134   3.601   5.576   1.339  0.5310  1.8123  0.2628
  601MOL0     H81135   3.709   5.655   1.227 -0.4943  0.9409 -0.6890
  602MOL0     O81136   9.584   0.723   8.235  0.0988 -0.1408 -0.0878
  602MOL0     C81137   9.560   0.608   8.269  0.0095 -0.6496  0.2431
  602MOL0     O81138   9.602   0.505   8.197  0.3860 -0.8410  0.1688
  602MOL0     C81139   9.724   0.504   8.142 -0.3841 -0.8492  0.3286
  602MOL0     C81140   9.841   0.558   8.203  0.2292  1.2295  0.1157
  602MOL0     C81141   9.965   0.554   8.143 -0.5958 -0.2982  1.0206
  602MOL0     C81142   9.979   0.494   8.016  0.6836 -1.0852  0.4221
  602MOL0     O81143  10.092   0.478   7.934  0.2311 -0.3662  0.4483
  602MOL0     C81144  10.216   0.462   8.008 -0.1024 -0.2121 -0.8941
  602MOL0     C81145  10.325   0.432   7.922 -0.4744 -0.2905  0.3155
  602MOL0     C81146  10.307   0.299   7.852 -1.1316  0.6757  0.0281
  602MOL0     C81147  10.410   0.284   7.736  0.5966  0.3682 -0.4432
  602MOL0     C81148  10.348   0.223   7.613  0.0452  0.2457  0.9475
  602MOL0     C81149  10.448   0.146   7.514  0.9420  0.1517  0.0079
  602MOL0     C81150  10.358   0.081   7.403  0.3193  0.1707  0.8304
  602MOL0     C81151  10.443   0.064   7.282  0.6364 -0.8931 -0.0157
  602MOL0     N81152  10.471   0.199   7.213  0.1499 -0.4430 -0.3606
  602MOL0     C81153  10.578   0.288   7.239  0.1563  1.0664 -0.2750
  602MOL0     C81154  10.596   0.356   7.125 -0.3172 -0.0469 -0.2849
  602MOL0     C81155  10.691   0.473   7.117  0.1684  0.0934  0.0035
  602MOL0     C81156  10.637   0.556   6.998  0.0558 -0.6756  0.1149
  602MOL0     C81157  10.693   0.695   6.975  1.1686 -0.1040 -0.2556
  602MOL0     C81158  10.827   0.683   6.905 -0.0833  0.6039  0.9009
  602MOL0     O81159  10.902   0.801   6.882  0.3036 -0.1014 -0.0890
  602MOL0     C81160  10.864   0.880   6.780  0.0151  0.0834 -0.6634
  602MOL0     C81161  10.836   0.842   6.646 -0.7076 -0.0290  0.5111
  602MOL0     C81162  10.782   0.926   6.547  0.3337  0.3394  0.2170
  602MOL0     C81163  10.742   1.057   6.585 -0.3953  0.5954 -2.0695
  602MOL0     C81164  10.657   1.142   6.494  0.4163  0.1705  0.7283
  602MOL0     O81165  10.607   1.260   6.551  0.3019 -0.3301  0.2390
  602MOL0     C81166  10.488   1.316   6.508  0.5556 -0.5817  0.4670
  602MOL0     C81167  10.498   1.454   6.499  0.6347 -1.1580  0.1001
  602MOL0     C81168  10.390   1.521   6.435  0.5726 -0.2696  0.4377
  602MOL0     C81169  10.263   1.463   6.385  0.0530  0.2912 -0.0103
  602MOL0     O81170  10.156   1.534   6.321 -0.8686 -0.5581  0.6986
  602MOL0     C81171  10.172   1.678   6.292  0.9115  1.0187  0.5552
  602MOL0     C81172  10.256   1.703   6.163  0.2377 -0.5649 -0.1372
  602MOL0     C81173  10.201   1.615   6.049 -0.6107 -0.3201 -0.0811
  602MOL0     C81174  10.246   1.668   5.909  0.1274 -0.4862 -1.0234
  602MOL0     C81175  10.213   1.562   5.797  0.9188  0.8126 -1.0550
  602MOL0     C81176  10.253   1.610   5.663  0.2493  0.1197  0.5549
  602MOL0     C81177  10.198   1.528   5.552 -0.9309  0.4804 -0.2606
  602MOL0     C81178  10.315   1.476   5.465 -0.4171  0.2530  0.1625
  602MOL0    Cl81179  10.365   1.318   5.535  0.3654 -0.2271 -0.0768
  602MOL0     C81180  10.259   1.321   6.409  1.0215 -0.5182 -0.3010
  602MOL0     C81181  10.368   1.253   6.468  0.4886  0.6785 -0.1362
  602MOL0     O81182  10.615   1.091   6.391  0.7137  0.0598 -0.7719
  602MOL0     C81183  10.779   1.100   6.715  0.2945 -0.1097 -0.4609
  602MOL0     C81184  10.844   1.016   6.808  0.0362  0.6232 -0.0669
  602MOL0     N81185  10.499   0.323   7.034  0.0243 -0.2360 -0.2227
  602MOL0     N81186  10.425   0.228   7.088  0.1609 -0.0550 -0.0846
  602MOL0     C81187   9.862   0.440   7.951  0.6045  0.0573 -1.3475
  602MOL0     C81188   9.732   0.444   8.018 -0.9104 -0.1425  0.3877
  602MOL0     C81189   9.461   0.596   8.382 -0.2403 -0.0404 -0.2005
  602MOL0     C81190   9.396   0.471   8.379 -0.1348 -0.2085  0.4612
  602MOL0     C81191   9.297   0.447   8.479 -0.6509  0.3931 -0.3543
  602MOL0     C81192   9.250   0.540   8.572 -1.0305  0.1548  0.2469
  602MOL0     O81193   9.168   0.501   8.676  0.5823  0.4824 -0.3293
  602MOL0     C81194   9.193   0.373   8.728 -0.1495  0.9312 -0.7215
  602MOL0     C81195   9.149   0.382   8.869  1.2729  0.5914 -0.0699
  602MOL0     C81196   9.184   0.513   8.947  1.0755  1.1078  0.3075
  602MOL0     C81197   9.325   0.529   8.938 -0.2650 -0.6685  0.7979
  602MOL0     C81198   9.367   0.667   8.987  0.4165  0.4608  0.0686
  602MOL0     C81199   9.395   0.779   9.026  0.4344 -0.6531 -0.4087
  602MOL0     C81200   9.325   0.657   8.579 -0.0682  0.3155 -0.6640
  602MOL0     C81201   9.419   0.691   8.484  0.1757  0.3730  0.9502
  602MOL0     C81202   9.471   0.843   8.484 -0.6237 -0.0584 -0.4100
  602MOL0     H81203   9.837   0.605   8.301  2.2498  1.2700  0.2293
  602MOL0     H81204  10.040   0.603   8.205  0.6993 -1.8205  0.7100
  602MOL0     H81205  10.243   0.556   8.057  1.5039 -0.4529 -1.2381
  602MOL0     H81206  10.210   0.377   8.077 -0.9846  0.6157  0.0749
  602MOL0     H81207  10.420   0.439   7.976 -2.1816 -0.6115  3.5744
  602MOL0     H81208  10.333   0.514   7.849 -0.8596  0.8713  1.5458
  602MOL0     H81209  10.209   0.290   7.804  0.3411  1.9882 -3.5455
  602MOL0     H81210  10.334   0.216   7.918 -4.5553 -1.5865 -1.0987
  602MOL0     H81211  10.442   0.380   7.694 -1.2229  1.4776  0.5501
  602MOL0     H81212  10.493   0.226   7.778 -0.6509 -2.1266 -1.2440
  602MOL0     H81213  10.274   0.154   7.655 -2.3314  2.2839  0.3340
  602MOL0     H81214  10.297   0.302   7.558 -0.5491 -1.4178 -1.0303
  602MOL0     H81215  10.523   0.210   7.467  1.5640  1.0862  2.1631
  602MOL0     H81216  10.500   0.079   7.584 -0.6268 -0.6375  0.4744
  602MOL0     H81217  10.275   0.152   7.399 -0.0521 -0.2719  0.6666
  602MOL0     H81218  10.318  -0.017   7.431  1.1362 -1.3219 -2.7765
  602MOL0     H81219  10.540   0.020   7.305  0.6065 -0.4483  1.0383
  602MOL0     H81220  10.381   0.006   7.213 -2.1392 -0.8605  2.2471
  602MOL0     H81221  10.639   0.292   7.328  1.8814 -2.0960 -1.1904
  602MOL0     H81222  10.683   0.532   7.208  0.4388  1.8683 -1.0653
  602MOL0     H81223  10.796   0.448   7.105  0.1336 -0.1391  0.1773
  602MOL0     H81224  10.652   0.496   6.908 -2.6809  0.4361 -1.2174
  602MOL0     H81225  10.530   0.579   6.998  0.0907  0.2399  3.9590
  602MOL0     H81226  10.702   0.744   7.073  1.2032 -1.1766  0.2929
  602MOL0     H81227  10.622   0.750   6.913  0.4565 -2.6108 -1.7948
  602MOL0     H81228  10.829   0.626   6.812  0.9089 -2.1404  2.4924
  602MOL0     H81229  10.890   0.627   6.975 -0.4346 -0.4179  0.4169
  602MOL0     H81230  10.856   0.736   6.631  0.1387 -0.1502  2.2445
  602MOL0     H81231  10.761   0.879   6.451 -0.3002  0.5800  0.2331
  602MOL0     H81232  10.587   1.503   6.537 -1.0809  1.3418  1.2140
  602MOL0     H81233  10.411   1.624   6.407  1.2617 -0.2053  1.1534
  602MOL0     H81234  10.072   1.720   6.281 -0.0528 -1.5415 -1.3666
  602MOL0     H81235  10.224   1.729   6.374  1.6403 -0.7288  1.2193
  602MOL0     H81236  10.265   1.808   6.134  2.2734 -0.6079  0.1846
  602MOL0     H81237  10.359   1.675   6.190  1.2502  1.3494 -1.6997
  602MOL0     H81238  10.245   1.515   6.053  0.6867 -0.4070 -6.0922
  602MOL0     H81239  10.092   1.618   6.059 -0.5391  2.9375  1.0539
  602MOL0     H81240  10.351   1.699   5.914 -0.4521  1.4020  0.7495
  602MOL0     H81241  10.188   1.760   5.910  1.7148  0.6203  2.1165
  602MOL0     H81242  10.105   1.544   5.805  1.2808 -1.5640 -0.6561
  602MOL0     H81243  10.270   1.472   5.823 -0.1367  1.5970  6.0919
  602MOL0     H81244  10.203   1.706   5.650  1.8639  0.6425 -2.8681
  602MOL0     H81245  10.363   1.607   5.666  0.4052 -4.5125 -0.8400
  602MOL0     H81246  10.126   1.589   5.498 -0.2008 -0.2715 -2.1645
  602MOL0     H81247  10.147   1.436   5.583 -0.7644  0.5008  0.0879
  602MOL0     H81248  10.289   1.456   5.361  0.4048 -1.3350  0.2291
  602MOL0     H81249  10.408   1.533   5.470  1.1351 -2.1578  1.0262
  602MOL0     H81250  10.173   1.268   6.368 -1.3607  5.0219 -3.6680
  602MOL0     H81251  10.364   1.146   6.485 -0.7966  0.8255  0.5739
  602MOL0     H81252  10.742   1.196   6.748  1.4552 -0.2526  1.3530
  602MOL0     H81253  10.850   1.050   6.911 -4.1526 -1.0514  0.9377
  602MOL0     H81254   9.884   0.384   7.860  3.2683 -3.0132  0.9645
  602MOL0     H81255   9.644   0.395   7.977 -1.5396  1.1093  0.1858
  602MOL0     H81256   9.420   0.386   8.316  0.0457  1.0720 -1.2835
  602MOL0     H81257   9.254   0.347   8.478 -1.3341  0.6319 -3.0197
  602MOL0     H81258   9.297   0.339   8.734 -0.7851 -1.2181 -1.2574
  602MOL0     H81259   9.135   0.296   8.678  2.4528 -0.5486 -1.6636
  602MOL0     H81260   9.191   0.297   8.923  2.8486  0.8447 -0.8446
  602MOL0     H81261   9.041   0.378   8.888  1.4589  1.2254  1.2009
  602MOL0     H81262   9.151   0.519   9.051 -0.4728  4.2548 -0.2243
  602MOL0     H81263   9.130   0.597   8.901  1.2780  0.2586 -1.5768
  602MOL0     H81264   9.371   0.456   9.005  1.4179  1.9860  2.7568
  602MOL0     H81265   9.381   0.516   8.844  1.5395  0.3104  1.6763
  602MOL0     H81266   9.429   0.870   9.071  0.0916 -1.6090  1.9239
  602MOL0     H81267   9.292   0.723   8.660 -2.2241  0.0878 -1.2874
  602MOL0     H81268   9.566   0.864   8.434  0.2145 -0.2166  1.0685
  602MOL0     H81269   9.395   0.911   8.444 -2.2895 -1.6395 -0.0855
  602MOL0     H81270   9.495   0.871   8.586  0.4767 -0.5847 -0.5031
  603MOL0     O81271   6.998   3.159   9.880 -0.3436 -0.0637  0.5675
  603MOL0     C81272   6.907   3.237   9.901  0.3045  0.2864 -0.3266
  603MOL0     O81273   6.852   3.321   9.803 -0.5863  0.1564 -0.9793
  603MOL0     C81274   6.909   3.328   9.677  0.2790  0.2734 -0.4095
  603MOL0     C81275   6.813   3.314   9.576 -0.7891  0.4220 -0.8090
  603MOL0     C81276   6.863   3.320   9.446 -0.2740 -0.2884  0.5151
  603MOL0     C81277   6.989   3.357   9.410  0.0254  0.5786 -0.0565
  603MOL0     O81278   7.028   3.365   9.279 -0.2557 -0.5023 -0.0018
  603MOL0     C81279   7.130   3.462   9.250  0.7093 -0.3440 -0.2223
  603MOL0     C81280   7.241   3.420   9.165  1.1545  0.1882 -0.0599
  603MOL0     C81281   7.352   3.346   9.249  0.5018 -0.5364 -0.4017
  603MOL0     C81282   7.468   3.343   9.162 -0.1880 -0.0254 -0.5430
  603MOL0     C81283   7.586   3.294   9.243 -0.3543  0.8960 -0.2129
  603MOL0     C81284   7.721   3.318   9.172 -0.8743 -0.4698 -0.2814
  603MOL0     C81285   7.779   3.456   9.189  0.5104 -0.2452 -0.4511
  603MOL0     C81286   7.860   3.449   9.319 -0.4795 -0.7994 -0.6807
  603MOL0     N81287   7.944   3.573   9.338  0.4616 -0.0734 -0.1753
  603MOL0     C81288   8.024   3.591   9.444 -1.0885  0.0901 -0.6428
  603MOL0     C81289   8.069   3.716   9.440  0.8476 -0.9252  0.2469
  603MOL0     C81290   8.165   3.788   9.517 -0.1775 -0.5252 -0.5997
  603MOL0     C81291   8.302   3.767   9.456  0.1866 -0.9814  0.3752
  603MOL0     C81292   8.362   3.900   9.406 -0.5417 -0.1103  0.8660
  603MOL0     C81293   8.482   3.868   9.314  0.5093 -0.2745  0.7084
  603MOL0     O81294   8.560   3.987   9.290  0.5592  0.6704 -0.0332
  603MOL0     C81295   8.660   4.030   9.376 -0.2251  0.2694  0.3629
  603MOL0     C81296   8.765   4.104   9.317  0.5340  0.0335 -0.0013
  603MOL0     C81297   8.876   4.139   9.405 -0.1399  0.0401  0.1599
  603MOL0     C81298   8.872   4.114   9.543  0.4670  0.5162 -0.0650
  603MOL0     C81299   8.972   4.158   9.640 -0.3501 -0.2770 -0.9000
  603MOL0     O81300   9.064   4.242   9.592 -0.1493 -0.2321  0.1076
  603MOL0     C81301   9.168   4.284   9.673  0.7370 -0.0750 -0.5573
  603MOL0     C81302   9.249   4.201   9.748  0.4556  0.4366 -0.8343
  603MOL0     C81303   9.369   4.256   9.806  0.4656  0.1676 -0.2143
  603MOL0     C81304   9.394   4.391   9.799 -0.4559  0.3202 -0.3905
  603MOL0     O81305   9.492   4.461   9.863  0.7482  0.0890  1.0917
  603MOL0     C81306   9.540   4.402   9.978  0.3444 -0.3584  0.3650
  603MOL0     C81307   9.631   4.495  10.049  0.1674 -0.0333  0.9665
  603MOL0     C81308   9.559   4.630  10.089 -1.2748  0.3042  0.9260
  603MOL0     C81309   9.491   4.604  10.223  0.5640 -0.1426 -0.6766
  603MOL0     C81310   9.462   4.724  10.309 -0.0279 -0.0725  0.3038
  603MOL0     C81311   9.384   4.830  10.222 -0.9116 -0.1156  0.3527
  603MOL0     C81312   9.342   4.945  10.309 -1.0020 -0.2689  0.9172
  603MOL0     C81313   9.248   5.043  10.231  0.7607  0.6124  0.3034
  603MOL0    Cl81314   9.348   5.162  10.136 -0.1528  0.1809  0.3359
  603MOL0     C81315   9.307   4.467   9.727  0.5425 -0.2959  0.1441
  603MOL0     C81316   9.192   4.424   9.662  0.0926 -0.3283 -0.8831
  603MOL0     O81317   8.965   4.129   9.760  0.0360  0.5057 -0.0458
  603MOL0     C81318   8.769   4.032   9.590  0.1556 -0.0531  0.8338
  603MOL0     C81319   8.663   3.996   9.507  0.0465  0.0778 -0.0180
  603MOL0     N81320   8.005   3.776   9.335  0.1743 -0.0762  0.3238
  603MOL0     N81321   7.922   3.699   9.285 -0.5233  0.7690 -0.6045
  603MOL0     C81322   7.084   3.374   9.518  0.6199 -1.2636  0.0853
  603MOL0     C81323   7.040   3.361   9.653  0.6804 -0.8649  0.6351
  603MOL0     C81324   6.873   3.258  10.048  0.0130  1.0048 -0.2328
  603MOL0     C81325   6.961   3.205  10.149  0.4204 -0.9823  0.3648
  603MOL0     C81326   6.925   3.195  10.280 -0.6576  0.5000  0.8886
  603MOL0     C81327   6.797   3.235  10.315  0.2169  0.5274  0.5865
  603MOL0     O81328   6.765   3.218  10.447 -0.2870  0.3799 -0.6626
  603MOL0     C81329   6.645   3.145  10.482 -1.3965 -0.6642  0.3858
  603MOL0     C81330   6.655   3.002  10.423  0.7823 -0.5295 -0.0562
  603MOL0     C81331   6.549   2.904  10.480  0.1086 -0.3960  0.0998
  603MOL0     C81332   6.625   2.776  10.537  1.2098  0.2354 -0.3011
  603MOL0     C81333   6.719   2.712  10.445  1.2444 -0.0177 -0.1135
  603MOL0     C81334   6.805   2.676  10.372 -0.9061  0.3150  0.1029
  603MOL0     C81335   6.707   3.279  10.219 -0.4960  0.4511 -0.4010
  603MOL0     C81336   6.742   3.293  10.082 -0.4011 -0.4063  0.1824
  603MOL0     C81337   6.637   3.336   9.989 -0.2443 -0.7888  0.2924
  603MOL0     H81338   6.714   3.279   9.605 -1.3855  2.2765 -0.4804
  603MOL0     H81339   6.794   3.293   9.366  1.0911 -0.7592 -0.5462
  603MOL0     H81340   7.080   3.546   9.200 -0.4051 -0.2167  1.0255
  603MOL0     H81341   7.177   3.504   9.340 -0.7144 -0.6172  0.6930
  603MOL0     H81342   7.271   3.518   9.127 -0.1796  0.4523 -0.5008
  603MOL0     H81343   7.203   3.368   9.075  0.1675  0.5244  0.1482
  603MOL0     H81344   7.306   3.249   9.270 -0.8251 -0.4444 -2.6415
  603MOL0     H81345   7.372   3.396   9.344 -0.0690 -3.0201  1.1201
  603MOL0     H81346   7.459   3.275   9.076 -0.2829  0.2147 -0.7252
  603MOL0     H81347   7.482   3.445   9.126 -2.4186  0.7396  0.5928
  603MOL0     H81348   7.596   3.358   9.331  3.1670 -0.1538  0.3155
  603MOL0     H81349   7.572   3.186   9.259 -1.1044  1.0911  0.5125
  603MOL0     H81350   7.781   3.234   9.208 -0.7958  0.4079  1.8188
  603MOL0     H81351   7.708   3.317   9.064 -1.9655  1.8548 -0.2401
  603MOL0     H81352   7.703   3.534   9.187  1.0232  0.3055 -3.8536
  603MOL0     H81353   7.841   3.484   9.104  2.3700 -0.5484  0.7444
  603MOL0     H81354   7.793   3.446   9.405  0.7835  0.0277  0.3718
  603MOL0     H81355   7.924   3.360   9.323 -3.7498 -3.2857  0.1094
  603MOL0     H81356   8.060   3.527   9.524 -1.4585  0.9143  0.1952
  603MOL0     H81357   8.143   3.895   9.527  0.3812 -0.5939  2.0514
  603MOL0     H81358   8.168   3.741   9.616  0.4458 -1.3106 -0.9762
  603MOL0     H81359   8.367   3.731   9.536  1.7408  0.5728 -0.1256
  603MOL0     H81360   8.306   3.695   9.374  0.5205 -0.5909  0.0435
  603MOL0     H81361   8.389   3.974   9.482 -0.2948  2.3033 -1.4089
  603MOL0     H81362   8.289   3.949   9.340 -0.7681  2.7118  3.0084
  603MOL0     H81363   8.452   3.833   9.215  0.8681 -1.0614  0.8742
  603MOL0     H81364   8.541   3.788   9.359  2.4576 -0.6974 -2.2837
  603MOL0     H81365   8.773   4.125   9.211  3.6272  2.4395  0.5471
  603MOL0     H81366   8.952   4.202   9.360 -0.8187  1.1138  0.4800
  603MOL0     H81367   9.220   4.097   9.761  2.7546 -0.0690  0.7034
  603MOL0     H81368   9.435   4.192   9.864  0.5652  0.8119  0.3920
  603MOL0     H81369   9.460   4.378  10.048  0.6471 -4.1958 -0.3681
  603MOL0     H81370   9.602   4.315   9.955  0.5269 -1.4589  4.3612
  603MOL0     H81371   9.668   4.444  10.139 -1.6583  3.8445  4.2396
  603MOL0     H81372   9.719   4.519   9.989 -0.9653 -0.5991 -1.0113
  603MOL0     H81373   9.629   4.714  10.099 -1.3161  0.7511 -1.8024
  603MOL0     H81374   9.480   4.657  10.018 -0.3374  2.8093  0.7642
  603MOL0     H81375   9.544   4.521  10.270 -1.1084 -1.7577 -1.5079
  603MOL0     H81376   9.397   4.552  10.200 -1.6141  0.6910  4.8302
  603MOL0     H81377   9.540   4.784  10.356 -3.4959  1.6375  4.5910
  603MOL0     H81378   9.400   4.694  10.394  0.7854 -1.2705  0.4953
  603MOL0     H81379   9.461   4.869  10.155  1.4026 -0.1270  2.8493
  603MOL0     H81380   9.301   4.796  10.159 -1.5535  3.2774 -0.7988
  603MOL0     H81381   9.433   4.998  10.339 -0.4409 -0.1250 -0.9444
  603MOL0     H81382   9.293   4.919  10.403  2.1352  0.5673  2.9382
  603MOL0     H81383   9.177   4.987  10.169  0.3634 -2.8478  3.5778
  603MOL0     H81384   9.190   5.100  10.303 -0.6960 -2.5479  1.8280
  603MOL0     H81385   9.316   4.575   9.718 -0.2247 -0.3236 -1.1068
  603MOL0     H81386   9.134   4.494   9.602  1.7405  0.4885 -1.6020
  603MOL0     H81387   8.767   3.994   9.692 -3.2804 -2.3405  0.0815
  603MOL0     H81388   8.600   3.916   9.545 -1.4587  1.5576  0.7069
  603MOL0     H81389   7.191   3.386   9.504  0.7652  0.8323  2.2577
  603MOL0     H81390   7.107   3.357   9.739  0.8908 -0.9573  0.4698
  603MOL0     H81391   7.062   3.177  10.119  1.0539 -0.8937  2.2794
  603MOL0     H81392   6.995   3.144  10.345 -1.2261 -2.1977 -0.4684
  603MOL0     H81393   6.553   3.196  10.454 -0.8253  0.5704  0.6769
  603MOL0     H81394   6.644   3.125  10.589  1.2655 -1.7301  0.2989
  603MOL0     H81395   6.759   2.968  10.422  0.9687 -0.4479 -4.7337
  603MOL0     H81396   6.630   3.022  10.319  0.8428 -1.7902 -0.3185
  603MOL0     H81397   6.486   2.869  10.398  1.4322  0.5576 -1.3776
  603MOL0     H81398   6.486   2.946  10.559  0.2075 -0.1835  0.0682
  603MOL0     H81399   6.676   2.808  10.628 -0.9542  2.4864  0.2335
  603MOL0     H81400   6.550   2.703  10.569  1.3835  0.6976  1.2374
  603MOL0     H81401   6.883   2.651  10.304  0.2859  1.9222  0.8267
  603MOL0     H81402   6.606   3.305  10.248 -0.6325 -2.5230  2.4226
  603MOL0     H81403   6.666   3.434   9.949  0.9210 -0.0878  2.6964
  603MOL0     H81404   6.633   3.280   9.896 -0.9293  0.8744 -0.7379
  603MOL0     H81405   6.540   3.353  10.037 -0.3835  2.1951 -0.8370
  604MOL0     O81406   5.034   5.534   2.849 -0.1621 -0.6718 -0.5021
  604MOL0     C81407   4.927   5.562   2.788 -1.1656  0.0458 -0.4711
  604MOL0     O81408   4.924   5.658   2.685 -0.7126 -0.9170  0.0445
  604MOL0     C81409   5.039   5.729   2.652 -0.6859  0.3357  0.0437
  604MOL0     C81410   5.166   5.667   2.634  0.0835  0.1758  0.2877
  604MOL0     C81411   5.268   5.741   2.594 -1.1225  0.4985  0.2813
  604MOL0     C81412   5.257   5.882   2.589 -0.7279 -0.6516  0.8185
  604MOL0     O81413   5.357   5.964   2.578 -0.2108  0.7334  0.4308
  604MOL0     C81414   5.493   5.919   2.594  0.9810  0.1842 -0.1871
  604MOL0     C81415   5.593   6.035   2.589 -0.0895 -0.7525 -0.1206
  604MOL0     C81416   5.737   5.981   2.627  0.6110  0.1374 -0.3433
  604MOL0     C81417   5.855   6.081   2.595  0.2337 -0.1070 -0.2813
  604MOL0     C81418   5.986   5.997   2.592 -0.1025  0.1606 -0.3751
  604MOL0     C81419   6.014   5.897   2.481 -0.3420  0.4491  0.2365
  604MOL0     C81420   6.156   5.826   2.479 -0.0870  0.2702 -0.2874
  604MOL0     C81421   6.263   5.895   2.390  0.6491 -0.5284 -1.5616
  604MOL0     N81422   6.230   5.907   2.251  0.0071  0.7205  0.4882
  604MOL0     C81423   6.201   5.801   2.175  0.3612  0.1968  0.1677
  604MOL0     C81424   6.126   5.838   2.069 -0.1103  0.1136  0.5414
  604MOL0     C81425   6.064   5.761   1.951 -0.1393 -1.3111  0.0395
  604MOL0     C81426   6.029   5.609   1.981 -0.5624 -1.0720  0.9311
  604MOL0     C81427   5.917   5.548   1.903  0.5237 -0.3090  0.2388
  604MOL0     C81428   5.939   5.554   1.752 -0.6024 -0.0093  0.3253
  604MOL0     O81429   5.859   5.453   1.695 -0.3726 -0.0596  0.3881
  604MOL0     C81430   5.723   5.467   1.679 -1.2309  0.2669 -0.1031
  604MOL0     C81431   5.658   5.353   1.652  0.2657  1.0814  0.0542
  604MOL0     C81432   5.512   5.357   1.656 -0.3841 -0.2056  0.1695
  604MOL0     C81433   5.444   5.476   1.674 -0.2938 -0.0266 -0.1083
  604MOL0     C81434   5.293   5.492   1.655 -0.0291  0.1530  0.1555
  604MOL0     O81435   5.230   5.373   1.625  0.3674  0.3406 -0.2693
  604MOL0     C81436   5.104   5.390   1.574 -0.3446  0.4647  0.2558
  604MOL0     C81437   5.075   5.354   1.441  0.0056 -0.5318 -0.0169
  604MOL0     C81438   4.944   5.368   1.386 -0.7557  0.5976 -1.1229
  604MOL0     C81439   4.841   5.401   1.474 -0.7465  0.7608 -0.5969
  604MOL0     O81440   4.714   5.403   1.436 -0.3058 -0.7327 -0.1776
  604MOL0     C81441   4.659   5.290   1.364 -0.5144  0.0809  0.1880
  604MOL0     C81442   4.630   5.181   1.466  0.3308 -0.1908  0.4375
  604MOL0     C81443   4.552   5.071   1.397 -0.6392 -0.6193 -0.4441
  604MOL0     C81444   4.529   4.951   1.498 -0.3056 -0.2478 -0.2658
  604MOL0     C81445   4.421   4.856   1.438 -0.6463 -0.1594 -0.1301
  604MOL0     C81446   4.454   4.798   1.296  0.2221 -0.4725  0.0420
  604MOL0     C81447   4.360   4.695   1.235 -0.4910  0.7507 -0.5434
  604MOL0     C81448   4.218   4.752   1.204 -1.3469  0.9285  0.0048
  604MOL0    Cl81449   4.215   4.841   1.046  0.1058 -0.6244  0.4435
  604MOL0     C81450   4.869   5.426   1.607  0.8514 -0.6446 -0.2002
  604MOL0     C81451   5.001   5.419   1.661 -0.0434 -1.1059 -0.8052
  604MOL0     O81452   5.241   5.602   1.655  0.7100 -0.6733 -0.0377
  604MOL0     C81453   5.525   5.591   1.670  0.2877 -0.2730  0.8394
  604MOL0     C81454   5.657   5.589   1.693 -0.1301  0.2139  0.3669
  604MOL0     N81455   6.114   5.972   2.073 -0.0297 -0.2865  0.5268
  604MOL0     N81456   6.173   6.012   2.180 -0.6052 -0.0412 -0.3382
  604MOL0     C81457   5.128   5.936   2.610  0.4416 -0.8044 -0.5145
  604MOL0     C81458   5.020   5.866   2.646 -0.1423  0.2648 -0.5790
  604MOL0     C81459   4.800   5.497   2.817  0.4031  0.5823 -0.4565
  604MOL0     C81460   4.685   5.579   2.843  0.3048 -0.5154  0.1877
  604MOL0     C81461   4.553   5.522   2.869  0.4141  0.0007  0.3006
  604MOL0     C81462   4.535   5.390   2.896 -0.7734  0.5443  0.4369
  604MOL0     O81463   4.411   5.347   2.952  0.8779 -0.0745 -0.0785
  604MOL0     C81464   4.407   5.216   3.007  0.4840  1.0190  0.4348
  604MOL0     C81465   4.293   5.210   3.106  1.1675 -0.4223  0.0686
  604MOL0     C81466   4.283   5.337   3.194  0.0663  0.9212 -0.5836
  604MOL0     C81467   4.204   5.297   3.322 -0.0924 -0.4121  0.1837
  604MOL0     C81468   4.291   5.227   3.411  0.6701  0.0388 -0.0879
  604MOL0     C81469   4.373   5.173   3.481  0.6923  0.1793 -1.7939
  604MOL0     C81470   4.647   5.306   2.861  0.0349  0.4223 -0.6636
  604MOL0     C81471   4.778   5.354   2.819  0.2474  0.4439 -0.5706
  604MOL0     C81472   4.901   5.260   2.801 -0.3411  0.2957  0.1214
  604MOL0     H81473   5.169   5.561   2.655 -2.2899 -0.0262 -0.1768
  604MOL0     H81474   5.368   5.698   2.597 -1.2285  0.3075  1.3677
  604MOL0     H81475   5.497   5.872   2.693 -3.0337 -0.3789 -0.1237
  604MOL0     H81476   5.528   5.858   2.511 -1.2094  1.1317 -1.8978
  604MOL0     H81477   5.570   6.112   2.663 -3.1466 -1.8218  0.1848
  604MOL0     H81478   5.587   6.081   2.490 -2.7397 -2.8054 -1.0255
  604MOL0     H81479   5.751   5.880   2.588  1.7754  0.8180 -1.7859
  604MOL0     H81480   5.733   5.971   2.736 -1.1222  1.7075 -0.2314
  604MOL0     H81481   5.846   6.125   2.496 -2.5143  1.0162  0.3693
  604MOL0     H81482   5.832   6.165   2.661 -3.5883 -0.4266 -0.9919
  604MOL0     H81483   6.060   6.078   2.593  0.4104 -0.3043 -0.1897
  604MOL0     H81484   6.002   5.944   2.687 -0.6821  0.9829  0.1969
  604MOL0     H81485   5.938   5.818   2.476 -0.9677  0.8992  1.8632
  604MOL0     H81486   5.995   5.955   2.390 -0.1809  2.2357  1.2935
  604MOL0     H81487   6.149   5.722   2.447 -0.9291  0.2485 -0.0633
  604MOL0     H81488   6.194   5.829   2.582 -0.1777  0.7195 -0.2633
  604MOL0     H81489   6.290   5.992   2.432  3.1924  0.1020 -4.2661
  604MOL0     H81490   6.356   5.839   2.404  1.2946  1.3399  3.5785
  604MOL0     H81491   6.228   5.696   2.183  0.4857 -0.1042 -2.8278
  604MOL0     H81492   5.972   5.817   1.935  1.8198  3.0779  2.3382
  604MOL0     H81493   6.126   5.782   1.863  0.1835  1.1530  0.7823
  604MOL0     H81494   6.118   5.547   1.968  0.1166  0.2183 -1.0778
  604MOL0     H81495   6.001   5.590   2.085 -0.6511 -0.7662  0.9658
  604MOL0     H81496   5.826   5.600   1.934  1.0267  1.3102 -0.8164
  604MOL0     H81497   5.901   5.442   1.925 -0.7289  0.2595  2.3789
  604MOL0     H81498   6.043   5.520   1.743 -0.5825  0.2524 -0.4421
  604MOL0     H81499   5.930   5.654   1.708 -1.5046 -1.4723 -3.0698
  604MOL0     H81500   5.720   5.266   1.635 -3.0007 -1.2390 -1.0904
  604MOL0     H81501   5.457   5.265   1.642  3.3620 -2.8509  1.3209
  604MOL0     H81502   5.154   5.319   1.375  3.0510  2.9971  1.3427
  604MOL0     H81503   4.937   5.346   1.280 -0.2689 -0.3854 -0.9717
  604MOL0     H81504   4.570   5.324   1.310  0.7808 -0.1918 -2.2709
  604MOL0     H81505   4.742   5.263   1.297 -1.1544  2.5763 -1.7750
  604MOL0     H81506   4.721   5.139   1.508  0.9753 -0.5347 -1.2348
  604MOL0     H81507   4.562   5.215   1.546 -0.3696 -3.7294  1.4966
  604MOL0     H81508   4.455   5.115   1.372 -0.1317 -0.0944 -1.5400
  604MOL0     H81509   4.614   5.028   1.317  1.6776 -1.3728  1.6045
  604MOL0     H81510   4.483   4.991   1.588 -1.1723 -0.6285 -0.5326
  604MOL0     H81511   4.620   4.892   1.516 -1.6387 -1.4238  3.8757
  604MOL0     H81512   4.331   4.916   1.422 -0.9815 -0.4527  0.6129
  604MOL0     H81513   4.403   4.769   1.502 -0.0143 -2.0863 -2.4200
  604MOL0     H81514   4.465   4.880   1.225 -3.8953  0.3667  0.1423
  604MOL0     H81515   4.558   4.766   1.308  0.2950  0.6086  3.0475
  604MOL0     H81516   4.345   4.618   1.311 -1.7082  1.8467  0.3567
  604MOL0     H81517   4.415   4.653   1.150  3.3107  2.5663  0.7752
  604MOL0     H81518   4.147   4.670   1.206  2.5037 -2.7329 -0.0309
  604MOL0     H81519   4.200   4.813   1.293  0.6992 -1.7298  2.4279
  604MOL0     H81520   4.794   5.453   1.680  0.2938 -0.3563 -0.8668
  604MOL0     H81521   5.022   5.447   1.764 -4.2582 -0.6791  0.1360
  604MOL0     H81522   5.484   5.692   1.667 -0.6148 -0.6017  1.6407
  604MOL0     H81523   5.711   5.679   1.720 -0.0134  0.5028 -0.7816
  604MOL0     H81524   5.127   6.044   2.616  0.3691 -0.8083 -0.4607
  604MOL0     H81525   4.929   5.923   2.662  0.0613  0.4997 -0.2512
  604MOL0     H81526   4.699   5.686   2.833 -2.3509 -0.1121 -0.0908
  604MOL0     H81527   4.468   5.589   2.878  1.4452  1.6699 -1.4848
  604MOL0     H81528   4.500   5.183   3.054 -0.7773 -0.6853  1.8540
  604MOL0     H81529   4.386   5.158   2.917 -1.9140  2.0604  0.2433
  604MOL0     H81530   4.318   5.131   3.177  4.0216  1.1891  1.0206
  604MOL0     H81531   4.204   5.202   3.044  0.9619 -1.6359  0.4988
  604MOL0     H81532   4.244   5.429   3.151 -1.6633  0.9738  0.9661
  604MOL0     H81533   4.387   5.358   3.223 -0.1215 -0.3261  1.1558
  604MOL0     H81534   4.178   5.388   3.377  1.8831 -0.0441  0.6046
  604MOL0     H81535   4.111   5.244   3.302 -2.0957  2.3399  1.6023
  604MOL0     H81536   4.459   5.137   3.534  1.1809  0.2670 -2.5148
  604MOL0     H81537   4.649   5.199   2.880  0.7819  0.7542  1.4416
  604MOL0     H81538   4.938   5.236   2.901  3.9030  2.5859 -0.6514
  604MOL0     H81539   4.856   5.173   2.751  0.3435 -1.0600  1.7711
  604MOL0     H81540   4.977   5.296   2.731  0.6291  2.4074  2.1391
  605MOL0     O81541   0.260   9.224   2.480 -0.0192 -0.3668 -0.1794
  605MOL0     C81542   0.318   9.280   2.392  0.5224 -0.1361  0.9358
  605MOL0     O81543   0.295   9.250   2.257 -0.0445  0.2535  0.2889
  605MOL0     C81544   0.237   9.126   2.228  0.0540 -0.6266  0.0311
  605MOL0     C81545   0.288   9.003   2.268  0.2773  0.0151  1.1654
  605MOL0     C81546   0.233   8.882   2.217  0.1059  0.5742 -0.6239
  605MOL0     C81547   0.128   8.886   2.124 -0.2022  0.0624  0.2296
  605MOL0     O81548   0.097   8.765   2.074 -0.2762 -0.2237  1.1521
  605MOL0     C81549  -0.011   8.763   1.976  0.3578 -1.4113 -0.6890
  605MOL0     C81550  -0.028   8.622   1.934 -0.5577  0.1866 -0.4805
  605MOL0     C81551  -0.155   8.592   1.857 -0.1604 -0.2272  0.6906
  605MOL0     C81552  -0.137   8.646   1.713  0.4589  0.0081  0.4942
  605MOL0     C81553  -0.251   8.602   1.624  0.0799 -0.0526 -0.2609
  605MOL0     C81554  -0.368   8.710   1.624 -0.3731 -0.2597 -0.7171
  605MOL0     C81555  -0.472   8.663   1.524  0.7894  0.2480  1.1317
  605MOL0     C81556  -0.539   8.776   1.445 -0.3294  0.0608 -0.1257
  605MOL0     N81557  -0.451   8.858   1.363 -0.1702 -0.6171 -0.0836
  605MOL0     C81558  -0.440   9.001   1.368 -0.7433 -1.1795 -0.4177
  605MOL0     C81559  -0.370   9.027   1.250 -0.4081  0.2673  0.2099
  605MOL0     C81560  -0.322   9.170   1.218  0.0505  0.5583 -0.0405
  605MOL0     C81561  -0.197   9.200   1.303  0.2529 -0.0536  0.4273
  605MOL0     C81562  -0.058   9.154   1.239  0.6499 -0.6329  0.0189
  605MOL0     C81563   0.054   9.177   1.336 -0.4655 -0.4959  0.6942
  605MOL0     O81564   0.170   9.124   1.277  0.1003  0.0709  0.5599
  605MOL0     C81565   0.284   9.110   1.352  0.7359  0.5770  0.8947
  605MOL0     C81566   0.363   9.000   1.320  1.2036  0.2714  0.3052
  605MOL0     C81567   0.486   8.995   1.376 -0.2492 -0.2205 -0.0009
  605MOL0     C81568   0.535   9.090   1.471  0.5199  0.4896 -0.0595
  605MOL0     C81569   0.666   9.073   1.541  0.3190  0.9829 -0.2019
  605MOL0     O81570   0.664   9.118   1.669 -0.0807 -0.2950 -0.2823
  605MOL0     C81571   0.792   9.145   1.727  0.4632 -0.1706 -0.1176
  605MOL0     C81572   0.840   9.072   1.836 -0.2834  0.2095  0.1525
  605MOL0     C81573   0.964   9.103   1.899 -0.3560  0.0543 -0.2946
  605MOL0     C81574   1.039   9.217   1.857 -0.4127  0.4716 -0.7812
  605MOL0     O81575   1.148   9.270   1.928  1.5479 -0.0648  0.1089
  605MOL0     C81576   1.245   9.173   1.974 -0.4252  0.5279 -0.1352
  605MOL0     C81577   1.374   9.232   1.936 -0.1591 -0.3002  0.0282
  605MOL0     C81578   1.502   9.187   2.019  0.4507  0.5565 -0.0590
  605MOL0     C81579   1.536   9.044   1.981 -0.8369 -0.5449  0.0322
  605MOL0     C81580   1.671   8.996   2.029 -0.4187  0.0279  0.7089
  605MOL0     C81581   1.686   8.850   1.982 -0.9579 -0.5833  0.6920
  605MOL0     C81582   1.820   8.777   2.016  0.5797  0.1284  0.8031
  605MOL0     C81583   1.821   8.636   1.960  0.5802  0.4890 -0.3053
  605MOL0    Cl81584   1.694   8.533   2.019 -0.0266  0.0674  0.4435
  605MOL0     C81585   0.985   9.291   1.747 -0.0594  0.2662  0.7420
  605MOL0     C81586   0.868   9.254   1.682 -0.3706 -0.1362  0.3819
  605MOL0     O81587   0.758   9.011   1.482 -0.1258  0.5562  0.1614
  605MOL0     C81588   0.454   9.200   1.489 -0.1316 -0.2590 -0.4752
  605MOL0     C81589   0.319   9.206   1.437 -0.6213  0.1238  0.4902
  605MOL0     N81590  -0.337   8.905   1.187  0.6350  0.0290 -0.5116
  605MOL0     N81591  -0.391   8.808   1.248 -0.6396 -0.4893  0.0613
  605MOL0     C81592   0.058   9.014   2.098 -0.1572 -0.2717  0.9279
  605MOL0     C81593   0.121   9.135   2.145  0.7859  0.3515  0.2833
  605MOL0     C81594   0.422   9.386   2.428  0.7276  0.0765  0.3491
  605MOL0     C81595   0.557   9.381   2.380  1.0382 -0.6890 -0.5339
  605MOL0     C81596   0.655   9.479   2.422  0.1473  0.4168  0.6647
  605MOL0     C81597   0.612   9.585   2.515 -0.2656 -1.1740  0.3762
  605MOL0     O81598   0.704   9.686   2.542  1.1567  0.0047  0.6574
  605MOL0     C81599   0.664   9.823   2.541 -0.3462  0.1049  0.9788
  605MOL0     C81600   0.784   9.919   2.532  0.7476 -0.2293  0.0297
  605MOL0     C81601   0.851   9.928   2.389  0.0357 -0.0843 -0.1053
  605MOL0     C81602   0.758   9.952   2.273  0.0442  0.2373  0.9470
  605MOL0     C81603   0.819  10.004   2.154 -0.8000  0.0620  0.5873
  605MOL0     C81604   0.865  10.025   2.043 -0.0132 -0.4933 -1.1588
  605MOL0     C81605   0.480   9.579   2.563  0.5438 -0.8762 -0.9075
  605MOL0     C81606   0.385   9.487   2.525  1.0217  0.6737 -1.2641
  605MOL0     C81607   0.243   9.480   2.589  0.0186 -0.2055 -0.2293
  605MOL0     H81608   0.386   8.990   2.314  2.1162  0.5437 -2.2879
  605MOL0     H81609   0.278   8.788   2.248 -0.6272  0.8211  1.3472
  605MOL0     H81610  -0.108   8.800   2.012  1.2744  1.4003 -0.8728
  605MOL0     H81611   0.019   8.836   1.901  0.9635  1.3500  2.0242
  605MOL0     H81612  -0.029   8.560   2.023 -4.2764 -0.3592 -0.7202
  605MOL0     H81613   0.063   8.590   1.882  0.1030  1.4449 -0.1306
  605MOL0     H81614  -0.245   8.638   1.899  1.2033  2.9049  0.4231
  605MOL0     H81615  -0.169   8.483   1.857  2.9317 -0.7752  2.9077
  605MOL0     H81616  -0.125   8.754   1.707  0.3648  0.1344  2.0668
  605MOL0     H81617  -0.046   8.605   1.668 -1.8886 -2.0524 -2.8138
  605MOL0     H81618  -0.215   8.597   1.521 -0.2713  0.5485 -0.4174
  605MOL0     H81619  -0.289   8.504   1.656 -4.4871  1.5842  0.0825
  605MOL0     H81620  -0.418   8.741   1.716 -1.1348 -1.6409 -0.6313
  605MOL0     H81621  -0.314   8.800   1.593 -0.0030  0.5662  2.0512
  605MOL0     H81622  -0.549   8.603   1.574 -0.3661 -0.0203 -0.8485
  605MOL0     H81623  -0.430   8.589   1.456 -0.3218 -2.9265  3.6338
  605MOL0     H81624  -0.611   8.729   1.377  2.9882 -2.0773 -2.4745
  605MOL0     H81625  -0.601   8.843   1.507 -0.5353 -1.3508  1.2539
  605MOL0     H81626  -0.464   9.076   1.443 -0.3139  0.9231 -2.2555
  605MOL0     H81627  -0.295   9.179   1.112  0.9142  1.6096  0.2575
  605MOL0     H81628  -0.395   9.246   1.248  2.1936  2.3076  1.0034
  605MOL0     H81629  -0.197   9.308   1.319  0.7204 -0.0590  0.4816
  605MOL0     H81630  -0.210   9.169   1.407  0.6767 -1.1256  0.1789
  605MOL0     H81631  -0.041   9.211   1.148  1.7650 -0.0053  0.5912
  605MOL0     H81632  -0.056   9.047   1.215 -1.3385 -0.4817 -1.0054
  605MOL0     H81633   0.027   9.129   1.431 -0.3461 -0.6422  0.6538
  605MOL0     H81634   0.052   9.286   1.344  1.1286 -0.3390 -0.5932
  605MOL0     H81635   0.319   8.937   1.244  1.7293 -0.0869  0.2970
  605MOL0     H81636   0.544   8.904   1.363  1.0730  0.3992  1.3494
  605MOL0     H81637   0.775   8.997   1.881  3.0752 -1.9932  1.7262
  605MOL0     H81638   0.999   9.051   1.988 -1.7289 -1.9894 -0.8889
  605MOL0     H81639   1.237   9.153   2.081 -0.2156  4.0158  0.6400
  605MOL0     H81640   1.232   9.078   1.922 -2.6197  0.9930 -0.5551
  605MOL0     H81641   1.393   9.219   1.829  3.2330 -1.9376  0.6920
  605MOL0     H81642   1.375   9.340   1.948 -1.2508 -0.3187  0.4700
  605MOL0     H81643   1.588   9.242   1.982 -0.4027  1.5831 -0.5706
  605MOL0     H81644   1.483   9.209   2.125 -2.9118  1.4734 -0.7254
  605MOL0     H81645   1.532   9.042   1.871 -1.5478  0.8312  0.0119
  605MOL0     H81646   1.458   8.980   2.024 -1.5375  1.6351  2.2287
  605MOL0     H81647   1.667   8.997   2.138 -1.4431  0.8767  0.6751
  605MOL0     H81648   1.753   9.060   1.995 -0.8736  0.1593 -0.1637
  605MOL0     H81649   1.603   8.799   2.031 -0.5118 -0.4907  1.5687
  605MOL0     H81650   1.669   8.858   1.874 -1.4501 -0.9392  0.7441
  605MOL0     H81651   1.836   8.772   2.124  0.8893 -2.1732  0.7017
  605MOL0     H81652   1.905   8.833   1.977  1.1062  0.4749  2.3904
  605MOL0     H81653   1.841   8.640   1.852 -1.1269  0.7446 -0.6396
  605MOL0     H81654   1.909   8.594   2.009 -1.1625 -1.9257  0.9564
  605MOL0     H81655   1.047   9.372   1.710  0.9489 -0.4839  0.7545
  605MOL0     H81656   0.841   9.319   1.600  1.7169 -2.9032 -2.7554
  605MOL0     H81657   0.496   9.279   1.550  0.3351 -0.3989 -0.6088
  605MOL0     H81658   0.255   9.290   1.459  0.1355  1.1720 -1.1017
  605MOL0     H81659  -0.029   9.025   2.034  0.3003 -0.8012  0.2041
  605MOL0     H81660   0.075   9.224   2.104  3.2119 -0.3163 -4.7510
  605MOL0     H81661   0.567   9.299   2.310  0.1657 -0.2306 -1.2083
  605MOL0     H81662   0.759   9.477   2.391 -0.2646 -1.3465 -0.7694
  605MOL0     H81663   0.616   9.856   2.633 -2.6769  2.2383 -0.8551
  605MOL0     H81664   0.578   9.820   2.473 -0.4380 -5.5967  0.9115
  605MOL0     H81665   0.854   9.881   2.607  2.7473  2.8618 -0.0541
  605MOL0     H81666   0.743  10.017   2.560 -2.8615 -1.9932  1.4840
  605MOL0     H81667   0.906   9.837   2.360 -2.4632 -1.5860 -0.4459
  605MOL0     H81668   0.930  10.004   2.397  2.3926 -2.2182 -1.5143
  605MOL0     H81669   0.712   9.856   2.248 -2.7158  0.9905  2.6965
  605MOL0     H81670   0.678  10.015   2.313  1.5378  2.0092  1.3224
  605MOL0     H81671   0.901  10.062   1.949  2.0247 -1.3417 -0.7637
  605MOL0     H81672   0.458   9.654   2.638 -1.5503 -0.7835 -1.5384
  605MOL0     H81673   0.164   9.461   2.516  1.4625  1.6407 -2.4053
  605MOL0     H81674   0.237   9.414   2.676  0.5986  0.4877  0.3459
  605MOL0     H81675   0.226   9.579   2.633 -0.5320  0.1209 -1.1360
  606MOL0     O81676  10.380  10.626   5.023  0.4267 -0.1109  0.0765
  606MOL0     C81677  10.396  10.598   5.143 -0.2241  0.3011 -0.6135
  606MOL0     O81678  10.313  10.644   5.245  0.0368 -0.5955 -0.0875
  606MOL0     C81679  10.223  10.746   5.227 -0.0665 -0.1007  0.0872
  606MOL0     C81680  10.110  10.739   5.156 -0.8793 -0.3667 -0.0774
  606MOL0     C81681  10.012  10.839   5.166 -0.6262  0.3390  0.3650
  606MOL0     C81682  10.020  10.940   5.262 -0.0531  0.8528 -0.5100
  606MOL0     O81683   9.918  11.024   5.297  0.1527  0.2655 -0.5222
  606MOL0     C81684   9.943  11.151   5.352  0.0761  0.1164  0.0552
  606MOL0     C81685   9.838  11.251   5.293  0.0679  0.0761  0.2389
  606MOL0     C81686   9.877  11.279   5.135  0.8029 -0.1770 -0.4176
  606MOL0     C81687   9.818  11.413   5.092 -0.3526  0.2995  0.0597
  606MOL0     C81688   9.935  11.517   5.110 -0.4604  0.2136  0.0061
  606MOL0     C81689  10.012  11.525   5.238  0.3753 -0.2394 -0.5662
  606MOL0     C81690  10.115  11.641   5.232 -0.6637  0.3537 -0.1759
  606MOL0     C81691  10.196  11.646   5.365  1.1681 -0.8274  0.0017
  606MOL0     N81692  10.260  11.515   5.396 -0.1419 -0.1895 -0.3050
  606MOL0     C81693  10.360  11.447   5.336  0.4606 -0.0360 -0.4322
  606MOL0     C81694  10.361  11.320   5.386  0.0511 -0.0210 -0.0772
  606MOL0     C81695  10.464  11.213   5.377  0.9305  0.9387 -0.5608
  606MOL0     C81696  10.479  11.145   5.516  0.2348  0.2936  0.1098
  606MOL0     C81697  10.594  11.048   5.519  0.0767 -0.2969 -0.1637
  606MOL0     C81698  10.645  11.037   5.657  0.3042 -0.2124  0.2576
  606MOL0     O81699  10.733  10.920   5.655 -0.7185  0.3047 -0.3760
  606MOL0     C81700  10.820  10.900   5.759 -0.3219 -0.0990  0.5034
  606MOL0     C81701  10.949  10.835   5.736  0.4247 -0.1040  1.2042
  606MOL0     C81702  11.045  10.866   5.823 -1.3040  0.1200  0.2474
  606MOL0     C81703  11.008  10.902   5.955 -0.7672 -0.3040 -0.3209
  606MOL0     C81704  11.124  10.919   6.038  0.3118  0.4939 -0.1103
  606MOL0     O81705  11.101  10.999   6.140 -0.5101 -0.4171 -0.1391
  606MOL0     C81706  11.202  11.025   6.236 -0.1696 -1.0487 -0.4816
  606MOL0     C81707  11.267  10.942   6.326  0.1754 -0.5276 -0.0919
  606MOL0     C81708  11.365  10.989   6.413 -0.4896  0.0005 -0.8803
  606MOL0     C81709  11.390  11.126   6.433 -0.5227  0.4941 -0.0957
  606MOL0     O81710  11.484  11.147   6.529 -1.2728 -0.2722 -0.1076
  606MOL0     C81711  11.506  11.272   6.595  0.4391  0.5278  0.2608
  606MOL0     C81712  11.651  11.297   6.607  0.3969 -0.0414  0.5995
  606MOL0     C81713  11.712  11.354   6.485 -0.1592  0.2446  0.0358
  606MOL0     C81714  11.646  11.489   6.437  0.3530 -1.3115  0.1962
  606MOL0     C81715  11.732  11.535   6.327 -0.0109 -0.2857 -0.3888
  606MOL0     C81716  11.650  11.593   6.210  0.4420 -0.2551 -0.3441
  606MOL0     C81717  11.735  11.659   6.106  0.0385 -0.2561 -0.4295
  606MOL0     C81718  11.826  11.557   6.028 -0.2336  0.1220 -0.3989
  606MOL0    Cl81719  11.756  11.399   6.001  0.2999  0.4322 -0.0954
  606MOL0     C81720  11.338  11.216   6.345 -0.2375 -1.7752  1.2912
  606MOL0     C81721  11.246  11.165   6.246 -0.5931  0.3142  0.0426
  606MOL0     O81722  11.213  10.836   6.028  0.4849 -0.2030 -0.0702
  606MOL0     C81723  10.880  10.937   5.992  0.3691 -0.4164 -0.0070
  606MOL0     C81724  10.787  10.943   5.881  0.1755 -1.0418 -0.7658
  606MOL0     N81725  10.240  11.314   5.465 -0.2536  0.0002  0.0614
  606MOL0     N81726  10.201  11.431   5.480  0.1359  0.6978 -0.2390
  606MOL0     C81727  10.144  10.947   5.336 -0.1521 -0.3501  0.0611
  606MOL0     C81728  10.245  10.852   5.310  0.1324  0.8465 -0.4963
  606MOL0     C81729  10.495  10.497   5.177  0.3400  0.0984 -0.1196
  606MOL0     C81730  10.451  10.391   5.256 -0.4901  0.0012 -0.1916
  606MOL0     C81731  10.508  10.262   5.249  0.1373 -0.1129 -0.1225
  606MOL0     C81732  10.633  10.240   5.187  1.0108  0.2795  0.0935
  606MOL0     O81733  10.683  10.106   5.185 -0.6550 -0.0616  0.6407
  606MOL0     C81734  10.798  10.068   5.103 -0.4350 -0.0658 -0.6271
  606MOL0     C81735  10.831   9.915   5.112  0.7032 -0.0305 -0.0562
  606MOL0     C81736  10.896   9.861   5.242  0.3495  0.0873  0.6453
  606MOL0     C81737  10.917   9.711   5.231 -0.0593 -0.0140 -0.3853
  606MOL0     C81738  10.968   9.655   5.359  1.2843 -0.0419  1.2090
  606MOL0     C81739  11.002   9.585   5.454  0.2660 -0.3009  0.2834
  606MOL0     C81740  10.673  10.350   5.106 -0.1240 -0.4468  0.2958
  606MOL0     C81741  10.614  10.475   5.103 -0.4353 -0.3895 -0.0445
  606MOL0     C81742  10.681  10.573   5.015  0.4419 -0.4997 -0.5562
  606MOL0     H81743  10.115  10.678   5.067  0.3587 -0.3209 -0.0489
  606MOL0     H81744   9.913  10.828   5.124  0.0366 -1.1346 -0.9246
  606MOL0     H81745   9.933  11.147   5.461  0.6058 -1.8296  0.0744
  606MOL0     H81746  10.036  11.196   5.316  0.8966 -0.7773  0.9882
  606MOL0     H81747   9.843  11.338   5.360 -0.2427  0.0371  0.3173
  606MOL0     H81748   9.739  11.205   5.301 -0.1963  0.6207  0.1968
  606MOL0     H81749   9.856  11.201   5.061  1.4362  0.7096 -1.5700
  606MOL0     H81750   9.985  11.285   5.115  0.3605 -0.1900 -3.2267
  606MOL0     H81751   9.785  11.409   4.988 -0.5881 -1.7595  0.1712
  606MOL0     H81752   9.732  11.428   5.159  0.5237 -2.8199  2.1232
  606MOL0     H81753  10.010  11.476   5.041 -0.4500 -1.8124  1.1296
  606MOL0     H81754   9.898  11.612   5.071 -2.4084  0.2068  1.6364
  606MOL0     H81755   9.942  11.545   5.320 -0.2430  1.5670 -1.4721
  606MOL0     H81756  10.066  11.431   5.251  1.6493 -0.3321 -4.9791
  606MOL0     H81757  10.078  11.738   5.198  0.5285  0.3893 -1.4703
  606MOL0     H81758  10.186  11.610   5.154 -1.3598  1.6090 -1.3442
  606MOL0     H81759  10.271  11.724   5.352  1.6319 -1.0527  1.2049
  606MOL0     H81760  10.129  11.678   5.445  3.3064 -0.1869  1.6316
  606MOL0     H81761  10.443  11.484   5.276 -0.0557  0.2007 -1.0189
  606MOL0     H81762  10.438  11.137   5.302  3.9646  0.2238 -1.0225
  606MOL0     H81763  10.563  11.248   5.347  2.1853 -0.6559  1.4194
  606MOL0     H81764  10.505  11.226   5.583 -0.0264  0.2220  0.2962
  606MOL0     H81765  10.397  11.088   5.560  0.9711 -3.1216 -2.4271
  606MOL0     H81766  10.674  11.092   5.459  1.5527  0.5938  2.2952
  606MOL0     H81767  10.551  10.954   5.484 -1.6093  0.8291 -1.2292
  606MOL0     H81768  10.561  11.030   5.727  0.5218  1.2991  0.6990
  606MOL0     H81769  10.691  11.134   5.680 -2.1744  0.8487  1.0846
  606MOL0     H81770  10.961  10.769   5.650 -1.8565 -0.1307  0.8504
  606MOL0     H81771  11.138  10.823   5.787 -2.0835  0.3280 -2.2185
  606MOL0     H81772  11.254  10.835   6.313  1.4271 -0.5226 -1.7608
  606MOL0     H81773  11.402  10.913   6.481 -3.8827 -0.1366  1.0409
  606MOL0     H81774  11.445  11.354   6.555 -1.7918 -1.1401  0.0862
  606MOL0     H81775  11.472  11.257   6.697  0.0465  1.5376  0.2947
  606MOL0     H81776  11.680  11.348   6.699  3.3839 -1.4101  0.5303
  606MOL0     H81777  11.706  11.203   6.619  0.8130 -0.3453 -2.8779
  606MOL0     H81778  11.815  11.379   6.510 -0.1922  0.8713 -0.4343
  606MOL0     H81779  11.705  11.276   6.409  1.9892  1.1632 -1.1855
  606MOL0     H81780  11.676  11.566   6.509 -3.0546 -0.2574  0.6505
  606MOL0     H81781  11.542  11.488   6.405 -0.4520  2.1800  2.1929
  606MOL0     H81782  11.799  11.456   6.293 -0.5268 -0.9752  0.1567
  606MOL0     H81783  11.785  11.624   6.361 -0.4572 -1.4862  3.9424
  606MOL0     H81784  11.594  11.508   6.171  0.5451  0.0060 -1.0703
  606MOL0     H81785  11.577  11.667   6.245 -1.6402 -1.4317 -2.0036
  606MOL0     H81786  11.785  11.748   6.145  0.0443 -0.4713  0.0607
  606MOL0     H81787  11.668  11.711   6.036 -0.4510  0.5825  0.6207
  606MOL0     H81788  11.852  11.608   5.934  0.2317  1.6871  0.5479
  606MOL0     H81789  11.916  11.551   6.089  0.5127  0.6959 -1.4080
  606MOL0     H81790  11.351  11.324   6.338  0.7680 -2.0181 -2.0730
  606MOL0     H81791  11.203  11.243   6.185  1.0085  2.2867  1.3101
  606MOL0     H81792  10.853  10.978   6.089 -1.8931 -1.3746 -0.1637
  606MOL0     H81793  10.688  10.986   5.894 -0.4721 -3.2772  4.1432
  606MOL0     H81794  10.166  11.010   5.421 -0.7586  1.5331 -1.1293
  606MOL0     H81795  10.332  10.855   5.374 -0.4414  2.1091  0.2712
  606MOL0     H81796  10.378  10.414   5.333  1.9422 -0.6651  2.4911
  606MOL0     H81797  10.454  10.195   5.316 -2.5183 -0.3321 -2.3338
  606MOL0     H81798  10.888  10.124   5.129 -0.2994 -0.8428  0.6117
  606MOL0     H81799  10.776  10.099   5.000  2.7481 -1.5332 -1.8696
  606MOL0     H81800  10.899   9.898   5.028  0.8659  3.4865 -0.7682
  606MOL0     H81801  10.738   9.860   5.092  0.1085  1.2554 -0.9964
  606MOL0     H81802  10.831   9.887   5.326 -2.9268 -1.3564 -1.2460
  606MOL0     H81803  10.992   9.913   5.251  1.8497 -1.6760 -2.9980
  606MOL0     H81804  10.821   9.665   5.205  0.6059 -1.6203 -0.1155
  606MOL0     H81805  10.983   9.700   5.145 -0.0467  1.8495 -0.6632
  606MOL0     H81806  11.051   9.520   5.524 -0.3595 -0.8002  0.2738
  606MOL0     H81807  10.766  10.329   5.054 -0.2051 -1.4343  0.5318
  606MOL0     H81808  10.640  10.673   5.032  0.7979 -0.5347  0.5997
  606MOL0     H81809  10.788  10.572   5.040  0.0234 -2.2029  1.4751
  606MOL0     H81810  10.650  10.540   4.916 -1.0986  1.6081 -0.8276
  607MOL0     O81811   1.699   0.536   9.932  0.3163  0.7366 -0.5453
  607MOL0     C81812   1.794   0.509   9.858 -0.0348 -1.0920  0.0679
  607MOL0     O81813   1.837   0.380   9.812  0.6272  0.1825 -0.4592
  607MOL0     C81814   1.788   0.269   9.884 -0.2844 -0.0141 -0.3884
  607MOL0     C81815   1.654   0.219   9.889 -0.3026  0.2829  1.3392
  607MOL0     C81816   1.612   0.114   9.968 -0.0647  0.2130 -0.1977
  607MOL0     C81817   1.695   0.057  10.060 -1.1831 -0.1679  0.3300
  607MOL0     O81818   1.648  -0.049  10.142  0.5291 -0.1515  0.8084
  607MOL0     C81819   1.721  -0.140  10.232 -0.7483  0.2426 -0.1875
  607MOL0     C81820   1.724  -0.089  10.371 -0.8471 -1.0310 -0.5309
  607MOL0     C81821   1.591  -0.072  10.445  0.3976 -0.9788  0.1058
  607MOL0     C81822   1.599  -0.034  10.597  0.5761 -1.1429  1.0137
  607MOL0     C81823   1.458  -0.050  10.655  0.8589 -0.0687 -0.4020
  607MOL0     C81824   1.451  -0.017  10.805  0.2674 -0.9369 -0.8136
  607MOL0     C81825   1.471   0.140  10.838 -0.8481  0.4495  0.2887
  607MOL0     C81826   1.465   0.151  10.990  0.0533 -1.0256  0.2208
  607MOL0     N81827   1.460   0.296  11.044 -0.7673 -0.0771  0.2432
  607MOL0     C81828   1.382   0.390  10.988  1.0123  0.6052  0.2118
  607MOL0     C81829   1.386   0.494  11.082  0.1823 -0.1191  0.5731
  607MOL0     C81830   1.332   0.635  11.053  0.0096 -0.9224 -0.0884
  607MOL0     C81831   1.443   0.722  11.011  0.2359 -0.4815  0.2373
  607MOL0     C81832   1.527   0.780  11.128 -0.4161 -0.5338 -0.7026
  607MOL0     C81833   1.493   0.926  11.159  0.7120  0.2925  0.0442
  607MOL0     O81834   1.359   0.900  11.214  0.4085  0.3781  0.1158
  607MOL0     C81835   1.281   1.012  11.246  0.1953  1.0016  0.0606
  607MOL0     C81836   1.141   1.000  11.268 -0.8380 -0.4479 -0.2304
  607MOL0     C81837   1.073   1.114  11.310  0.2090 -0.7473  0.1329
  607MOL0     C81838   1.142   1.234  11.342 -0.1144  0.0287 -0.3251
  607MOL0     C81839   1.058   1.351  11.390 -0.0962 -0.1235 -0.6128
  607MOL0     O81840   0.926   1.332  11.388 -0.3001 -0.3459  0.2788
  607MOL0     C81841   0.841   1.444  11.394 -0.0397  0.4212 -0.7279
  607MOL0     C81842   0.770   1.467  11.517 -0.1519 -0.3568  1.1453
  607MOL0     C81843   0.698   1.578  11.519  1.0197  0.2906  1.0070
  607MOL0     C81844   0.669   1.653  11.403  0.0733 -0.2888 -0.6043
  607MOL0     O81845   0.575   1.755  11.409 -0.6620 -0.2210  0.7779
  607MOL0     C81846   0.460   1.733  11.327  0.3139  0.0110 -0.2923
  607MOL0     C81847   0.341   1.778  11.414  0.1022  0.0631 -0.0133
  607MOL0     C81848   0.319   1.685  11.540 -0.1926  0.7738  0.1868
  607MOL0     C81849   0.246   1.550  11.505 -0.4296 -0.0417 -0.6799
  607MOL0     C81850   0.263   1.454  11.623  0.3701  0.6434 -0.0140
  607MOL0     C81851   0.219   1.308  11.580  0.4296 -0.6742  0.4216
  607MOL0     C81852   0.293   1.214  11.684 -0.0887  0.2177  0.3111
  607MOL0     C81853   0.214   1.205  11.820  0.8179 -0.6530 -0.1888
  607MOL0    Cl81854   0.271   1.063  11.926  0.1944 -0.0217  0.0647
  607MOL0     C81855   0.721   1.618  11.286  0.4711 -0.6135  0.4183
  607MOL0     C81856   0.810   1.511  11.282 -0.6555  0.3200 -0.8941
  607MOL0     O81857   1.112   1.459  11.429  0.3671  0.6976 -0.4305
  607MOL0     C81858   1.280   1.242  11.335 -0.1251 -0.0738  0.5944
  607MOL0     C81859   1.349   1.133  11.286  0.7512  0.9081  0.5643
  607MOL0     N81860   1.460   0.455  11.193  0.6542  0.0972 -0.5627
  607MOL0     N81861   1.500   0.338  11.170  0.5679  0.1554 -0.0369
  607MOL0     C81862   1.832   0.089  10.057 -0.2338  0.6689 -0.2388
  607MOL0     C81863   1.877   0.200   9.975  0.3053  0.2826  0.3151
  607MOL0     C81864   1.900   0.618   9.836  0.1645  0.1676  0.2127
  607MOL0     C81865   1.989   0.599   9.727 -0.2510 -1.1691  0.6246
  607MOL0     C81866   2.091   0.687   9.697  0.3585  0.2586  0.0915
  607MOL0     C81867   2.104   0.810   9.771 -0.4367 -0.3854  0.8758
  607MOL0     O81868   2.199   0.902   9.756  0.6020 -0.4634 -0.4360
  607MOL0     C81869   2.314   0.875   9.672 -0.0989 -0.2195 -0.0052
  607MOL0     C81870   2.383   1.010   9.636 -0.3699  0.1123 -0.0056
  607MOL0     C81871   2.310   1.088   9.524  0.6591 -0.5709 -0.4863
  607MOL0     C81872   2.300   1.032   9.388 -0.2186 -0.4519  0.1783
  607MOL0     C81873   2.433   1.027   9.314 -0.1311 -0.4962  0.4581
  607MOL0     C81874   2.534   1.029   9.239  0.1320 -0.2276  0.4748
  607MOL0     C81875   2.000   0.835   9.868 -0.3596 -0.1931 -0.2038
  607MOL0     C81876   1.910   0.735   9.914 -0.3643 -0.0051  0.4629
  607MOL0     C81877   1.838   0.773  10.038  0.1359  0.1763 -0.1063
  607MOL0     H81878   1.579   0.252   9.818  0.3526 -0.4941  0.2717
  607MOL0     H81879   1.506   0.100   9.982 -1.0330  5.1271 -0.8749
  607MOL0     H81880   1.674  -0.239  10.235 -1.6565  0.6541 -0.3779
  607MOL0     H81881   1.827  -0.148  10.207 -0.0912 -0.8831  2.5895
  607MOL0     H81882   1.775   0.007  10.384  0.0688 -1.2072 -2.4632
  607MOL0     H81883   1.778  -0.167  10.425 -2.8163 -1.8605  0.3529
  607MOL0     H81884   1.539  -0.168  10.436 -2.9902  0.5856  1.0251
  607MOL0     H81885   1.533   0.004  10.391 -0.4570  0.5404  2.9801
  607MOL0     H81886   1.677  -0.091  10.649  2.5948 -0.0410 -0.6744
  607MOL0     H81887   1.619   0.073  10.605 -4.4635  0.4596 -2.9921
  607MOL0     H81888   1.384   0.004  10.595 -1.4003 -1.1828  1.2105
  607MOL0     H81889   1.429  -0.156  10.652  0.0587  0.1192  0.3133
  607MOL0     H81890   1.349  -0.044  10.832 -0.4405  1.2240 -1.1404
  607MOL0     H81891   1.525  -0.075  10.862  0.5739 -0.7245 -0.9931
  607MOL0     H81892   1.384   0.195  10.801 -0.0966  0.2458 -1.8770
  607MOL0     H81893   1.564   0.189  10.809 -2.3906  3.2582 -0.3195
  607MOL0     H81894   1.374   0.101  11.025 -1.1224  0.9275  0.1468
  607MOL0     H81895   1.550   0.103  11.040  0.5821  1.2618  1.6715
  607MOL0     H81896   1.344   0.392  10.887  3.0440  1.4495 -0.5969
  607MOL0     H81897   1.251   0.638  10.980 -0.6383  1.9555  0.6263
  607MOL0     H81898   1.277   0.678  11.137  3.4121 -1.3077  2.6070
  607MOL0     H81899   1.510   0.674  10.938  0.2287  0.1650 -0.2062
  607MOL0     H81900   1.397   0.805  10.957  1.9113  0.1868 -0.2467
  607MOL0     H81901   1.632   0.767  11.100  0.6061  0.3099  2.3694
  607MOL0     H81902   1.509   0.730  11.224 -0.5552 -2.0901 -1.5086
  607MOL0     H81903   1.491   0.982  11.065  1.2194 -0.1786 -0.2535
  607MOL0     H81904   1.558   0.958  11.241 -0.6219  0.1574  1.1999
  607MOL0     H81905   1.084   0.909  11.258 -2.4434  0.4430  0.4054
  607MOL0     H81906   0.965   1.112  11.322  0.1170  2.1473  0.3494
  607MOL0     H81907   0.793   1.416  11.610  1.8486 -1.7187 -0.0410
  607MOL0     H81908   0.650   1.612  11.610 -0.4931  0.4113  0.2103
  607MOL0     H81909   0.448   1.797  11.239  1.2019  0.1755 -0.2987
  607MOL0     H81910   0.446   1.626  11.308 -0.0117  0.1859 -1.1145
  607MOL0     H81911   0.358   1.877  11.459 -2.0868  0.7003 -0.4360
  607MOL0     H81912   0.251   1.786  11.352 -0.6916  1.2616  1.2237
  607MOL0     H81913   0.413   1.670  11.595  0.5137  1.2473 -0.8555
  607MOL0     H81914   0.255   1.747  11.604  0.2103  1.7877 -0.3776
  607MOL0     H81915   0.272   1.511  11.406 -1.2769  1.1445 -1.4060
  607MOL0     H81916   0.145   1.588  11.485 -0.2870 -1.0380 -3.8488
  607MOL0     H81917   0.212   1.482  11.716 -0.2342  0.6932 -0.3548
  607MOL0     H81918   0.371   1.454  11.642  0.4045  1.7206 -0.1552
  607MOL0     H81919   0.111   1.291  11.567  0.1872  1.2874 -0.4242
  607MOL0     H81920   0.258   1.294  11.479  0.8760  0.8379  0.3660
  607MOL0     H81921   0.396   1.246  11.702  0.0842 -0.4916  0.6172
  607MOL0     H81922   0.306   1.111  11.648 -1.3531  0.0408  0.2960
  607MOL0     H81923   0.212   1.301  11.873  2.7440  0.1489 -1.4293
  607MOL0     H81924   0.110   1.178  11.799 -0.6618  3.6741  0.3924
  607MOL0     H81925   0.710   1.686  11.202 -0.4907 -0.5176  0.6129
  607MOL0     H81926   0.868   1.496  11.191  2.4464 -2.2446  1.2950
  607MOL0     H81927   1.338   1.330  11.359 -1.2432  0.4297  1.5069
  607MOL0     H81928   1.457   1.142  11.272  0.4642  1.6872 -1.3718
  607MOL0     H81929   1.910   0.034  10.109 -0.2287 -1.1253 -1.9973
  607MOL0     H81930   1.985   0.207   9.974  0.5354 -2.1639  0.5756
  607MOL0     H81931   1.995   0.507   9.671 -2.1219 -2.0897  1.8353
  607MOL0     H81932   2.156   0.642   9.623  0.2427 -1.0359  0.7504
  607MOL0     H81933   2.272   0.839   9.577 -3.1239  4.3333 -0.7420
  607MOL0     H81934   2.381   0.801   9.717  1.0208  0.1382 -1.0126
  607MOL0     H81935   2.485   0.987   9.607  0.1594  2.3671 -0.1015
  607MOL0     H81936   2.383   1.080   9.720  2.4708 -0.2688  0.3978
  607MOL0     H81937   2.341   1.193   9.514 -2.7238  0.8031  1.8549
  607MOL0     H81938   2.207   1.104   9.557  1.5793  5.8905  0.6466
  607MOL0     H81939   2.256   0.932   9.391 -0.0785 -0.6151 -1.8964
  607MOL0     H81940   2.236   1.098   9.329 -1.6775 -2.1833 -0.2777
  607MOL0     H81941   2.617   1.041   9.173 -1.0445 -0.7730 -1.1469
  607MOL0     H81942   2.021   0.931   9.915  3.7171 -0.5097 -0.9463
  607MOL0     H81943   1.730   0.782  10.022  0.2923 -1.3027 -2.4304
  607MOL0     H81944   1.857   0.690  10.108 -1.2697 -0.0493  0.0465
  607MOL0     H81945   1.879   0.866  10.078 -0.2364 -0.3171  1.4889
  608MOL0     O81946  10.488   2.757   0.481 -0.8106  0.0591 -1.0564
  608MOL0     C81947  10.444   2.693   0.385  0.4733  0.6560 -0.0838
  608MOL0     O81948  10.436   2.742   0.261 -0.5668  0.7475  0.2124
  608MOL0     C81949  10.480   2.869   0.239  0.3742 -0.7717  0.6182
  608MOL0     C81950  10.616   2.906   0.239  0.5480  0.5230 -0.5623
  608MOL0     C81951  10.661   3.043   0.230  0.5483  0.6073 -0.0930
  608MOL0     C81952  10.571   3.143   0.229 -0.1495 -0.4635  0.1351
  608MOL0     O81953  10.606   3.275   0.222  0.5771 -1.1828 -0.8337
  608MOL0     C81954  10.711   3.307   0.126 -1.0112 -0.8718  0.4385
  608MOL0     C81955  10.708   3.451   0.091  0.0653  0.1509 -0.4254
  608MOL0     C81956  10.572   3.487   0.034 -0.4732  0.0857  0.7491
  608MOL0     C81957  10.522   3.625   0.088 -0.2132 -0.7217 -1.3849
  608MOL0     C81958  10.486   3.612   0.243  0.2328  0.6977  0.0971
  608MOL0     C81959  10.395   3.725   0.289 -0.5189 -0.2127  0.1578
  608MOL0     C81960  10.360   3.725   0.442 -0.6759 -0.6600  0.3008
  608MOL0     C81961  10.294   3.598   0.487  0.3186  0.1148 -0.0341
  608MOL0     N81962  10.263   3.625   0.628  0.0976  0.0858 -0.2454
  608MOL0     C81963  10.352   3.648   0.731 -1.1180  0.4727 -0.0556
  608MOL0     C81964  10.286   3.679   0.842  0.1186  1.1791 -0.6225
  608MOL0     C81965  10.350   3.702   0.979  1.1896 -0.4533  0.3303
  608MOL0     C81966  10.314   3.596   1.077 -0.7959  0.3481  0.2968
  608MOL0     C81967  10.363   3.457   1.031  0.3405 -0.0478 -0.3666
  608MOL0     C81968  10.515   3.428   1.065 -0.0847 -0.1236  0.6345
  608MOL0     O81969  10.548   3.296   1.103  0.1711  0.7538  0.2993
  608MOL0     C81970  10.491   3.252   1.224  0.6078 -0.6312  1.3212
  608MOL0     C81971  10.499   3.323   1.339  0.1298 -0.9768 -0.8559
  608MOL0     C81972  10.449   3.275   1.464 -0.1815 -0.2056  0.0713
  608MOL0     C81973  10.396   3.144   1.477  0.3556  0.0167  0.7884
  608MOL0     C81974  10.341   3.113   1.607  0.0184  1.5548 -0.3869
  608MOL0     O81975  10.318   3.204   1.702 -0.7831 -0.9936 -0.0953
  608MOL0     C81976  10.259   3.175   1.816  1.0068 -0.6862  1.0741
  608MOL0     C81977  10.324   3.220   1.933 -0.1254 -0.5312 -0.6706
  608MOL0     C81978  10.267   3.206   2.055  0.6457 -0.0456 -0.3364
  608MOL0     C81979  10.140   3.141   2.078 -0.1177  0.3753 -0.3428
  608MOL0     O81980  10.096   3.109   2.205 -0.1340  0.0332 -0.5218
  608MOL0     C81981   9.984   3.025   2.217  0.5078  0.4580 -0.1689
  608MOL0     C81982   9.966   3.001   2.372  0.6346  0.5122 -0.8543
  608MOL0     C81983   9.827   2.938   2.398  0.3356 -0.6345  1.2892
  608MOL0     C81984   9.816   2.793   2.339  0.1940  0.8492 -0.2850
  608MOL0     C81985   9.667   2.756   2.344  0.1570  0.1317 -0.1650
  608MOL0     C81986   9.641   2.619   2.263 -0.3325  0.4798 -0.5225
  608MOL0     C81987   9.499   2.597   2.226  0.4150  0.4663  0.1145
  608MOL0     C81988   9.471   2.443   2.217  0.2635 -0.6257 -0.0415
  608MOL0    Cl81989   9.582   2.374   2.098 -0.0738 -0.2055 -0.0600
  608MOL0     C81990  10.077   3.102   1.959 -0.2302 -0.1854  0.7581
  608MOL0     C81991  10.132   3.119   1.828  0.4370 -0.6015 -1.4146
  608MOL0     O81992  10.322   2.985   1.616 -0.1438  0.0607  0.8363
  608MOL0     C81993  10.388   3.070   1.359  0.1241  0.8782  1.0766
  608MOL0     C81994  10.442   3.118   1.233  0.4753 -0.6245  0.6289
  608MOL0     N81995  10.153   3.676   0.799 -0.2030 -0.3075 -0.6026
  608MOL0     N81996  10.138   3.647   0.678  0.6104  0.2716 -0.1336
  608MOL0     C81997  10.440   3.114   0.244  1.0950 -0.8614  0.3179
  608MOL0     C81998  10.395   2.985   0.248 -0.7070  0.7648 -0.0123
  608MOL0     C81999  10.407   2.548   0.388  0.4831 -0.2573  0.5465
  608MOL0     C82000  10.383   2.479   0.266 -0.3125  0.4809  0.5517
  608MOL0     C82001  10.357   2.340   0.275 -0.6380  0.8939  0.5864
  608MOL0     C82002  10.357   2.265   0.396 -0.1977  0.0585 -0.5630
  608MOL0     O82003  10.338   2.135   0.393 -0.1219 -0.2967 -0.6952
  608MOL0     C82004  10.333   2.058   0.513  0.0173 -0.7197  0.1008
  608MOL0     C82005  10.305   1.914   0.477  0.0220  0.5917 -0.2975
  608MOL0     C82006  10.158   1.879   0.421  0.1115 -0.2276  0.1759
  608MOL0     C82007  10.045   1.956   0.489 -0.7168  0.4404  0.9043
  608MOL0     C82008   9.912   1.924   0.434  0.6846 -0.2102 -0.5943
  608MOL0     C82009   9.804   1.899   0.393 -0.1399  0.1704  0.5023
  608MOL0     C82010  10.373   2.343   0.513 -0.0472  0.0003  0.6734
  608MOL0     C82011  10.394   2.475   0.507  0.0249 -0.5162 -0.6030
  608MOL0     C82012  10.410   2.535   0.645  0.1885  0.0853 -0.1872
  608MOL0     H82013  10.679   2.818   0.247  0.0401  0.3289  2.0249
  608MOL0     H82014  10.768   3.058   0.225  1.2678 -3.3464  0.1519
  608MOL0     H82015  10.812   3.297   0.167  0.3513  2.0247 -1.8340
  608MOL0     H82016  10.712   3.244   0.036 -3.0173  1.8699 -1.6751
  608MOL0     H82017  10.773   3.468   0.005 -2.0038  1.0293 -1.9037
  608MOL0     H82018  10.741   3.511   0.176  0.2345  0.3647 -0.6425
  608MOL0     H82019  10.491   3.417   0.057  0.3163 -1.3347 -0.6162
  608MOL0     H82020  10.571   3.485  -0.075 -1.8345 -4.7138  0.6124
  608MOL0     H82021  10.597   3.703   0.076  1.7426 -2.4881 -1.2906
  608MOL0     H82022  10.425   3.644   0.041 -1.9539 -1.9674  1.4288
  608MOL0     H82023  10.429   3.519   0.245  1.7307 -0.2943 -1.0233
  608MOL0     H82024  10.582   3.596   0.294  1.1577 -2.3637 -2.3251
  608MOL0     H82025  10.436   3.821   0.256 -2.1893  0.9532  1.3046
  608MOL0     H82026  10.302   3.729   0.233 -2.6102  0.0326  3.4092
  608MOL0     H82027  10.285   3.804   0.443 -0.2032 -0.2146  0.6132
  608MOL0     H82028  10.444   3.731   0.512  0.1238 -0.7674 -0.6222
  608MOL0     H82029  10.203   3.582   0.429  0.6777  2.2216 -1.2790
  608MOL0     H82030  10.353   3.506   0.483 -2.2608 -1.8277  2.1761
  608MOL0     H82031  10.460   3.641   0.726 -1.2491 -1.1564 -2.2258
  608MOL0     H82032  10.455   3.733   0.977  0.3577  2.7935  0.6496
  608MOL0     H82033  10.296   3.790   1.017  1.9608 -0.2356  0.9526
  608MOL0     H82034  10.361   3.627   1.171  0.4575  0.8265 -0.4625
  608MOL0     H82035  10.209   3.569   1.092 -0.5418 -1.9439 -1.5442
  608MOL0     H82036  10.349   3.448   0.923  1.3754  0.9655 -0.6089
  608MOL0     H82037  10.295   3.384   1.075  1.0697 -1.6769 -1.8119
  608MOL0     H82038  10.548   3.508   1.132  0.5598  0.8618 -0.8111
  608MOL0     H82039  10.569   3.451   0.972 -0.5903 -1.6090 -0.0525
  608MOL0     H82040  10.548   3.420   1.331 -1.2264  0.1160  2.3732
  608MOL0     H82041  10.452   3.333   1.556 -4.1989  1.4323 -0.5905
  608MOL0     H82042  10.412   3.283   1.923 -1.1404  1.1480  0.4908
  608MOL0     H82043  10.320   3.234   2.145 -0.3967 -0.8403  0.5543
  608MOL0     H82044   9.896   3.070   2.171  0.9959 -0.0372 -1.6361
  608MOL0     H82045  10.004   2.924   2.180 -2.3796  0.5375 -2.1912
  608MOL0     H82046  10.040   2.926   2.400 -0.5592  0.0452  1.2764
  608MOL0     H82047   9.983   3.096   2.424  1.5359  1.7478 -3.2270
  608MOL0     H82048   9.822   2.935   2.507  2.3326  3.2763  1.6441
  608MOL0     H82049   9.745   2.998   2.359  1.9174  0.2249 -0.9945
  608MOL0     H82050   9.875   2.728   2.404  1.1495  0.4124 -1.5349
  608MOL0     H82051   9.850   2.775   2.236 -1.0119 -0.7133 -0.4382
  608MOL0     H82052   9.608   2.835   2.295 -0.6443 -0.7310 -0.6342
  608MOL0     H82053   9.633   2.754   2.448  0.9810  1.5525  0.1517
  608MOL0     H82054   9.686   2.621   2.163 -3.0851 -1.4270 -1.9419
  608MOL0     H82055   9.684   2.538   2.322 -0.7199 -1.6662 -2.9990
  608MOL0     H82056   9.484   2.641   2.127 -2.5375  0.0647  0.2808
  608MOL0     H82057   9.431   2.646   2.296  0.5535 -1.6846  1.8617
  608MOL0     H82058   9.472   2.394   2.314 -1.7726 -1.5495 -0.4331
  608MOL0     H82059   9.367   2.424   2.186  0.4282  0.3353 -1.2716
  608MOL0     H82060   9.974   3.075   1.977 -0.0248 -1.2964  0.3793
  608MOL0     H82061  10.070   3.089   1.744 -2.1890  0.8654 -0.1142
  608MOL0     H82062  10.337   2.976   1.370 -1.5291  1.6509  0.4166
  608MOL0     H82063  10.431   3.069   1.136  0.6649  1.6806 -0.6417
  608MOL0     H82064  10.370   3.197   0.246  2.8261  0.6371  0.6706
  608MOL0     H82065  10.289   2.973   0.268 -0.8512  3.4813  1.2278
  608MOL0     H82066  10.373   2.530   0.171  0.5794  0.5444  0.4862
  608MOL0     H82067  10.343   2.303   0.174 -0.4938  3.8205 -0.5980
  608MOL0     H82068  10.252   2.101   0.573 -1.3668 -1.0995 -1.4339
  608MOL0     H82069  10.422   2.079   0.572  1.5451  2.9706 -3.0528
  608MOL0     H82070  10.326   1.855   0.566 -0.4971  1.1008  0.1759
  608MOL0     H82071  10.371   1.894   0.392  0.7514  0.5785  0.2703
  608MOL0     H82072  10.146   1.771   0.434  1.5957 -1.3015 -5.1227
  608MOL0     H82073  10.149   1.893   0.313  1.0429 -0.9460 -0.0077
  608MOL0     H82074  10.042   1.936   0.596 -2.2200  2.1472  1.2447
  608MOL0     H82075  10.056   2.059   0.453  0.4716 -0.3341 -1.0930
  608MOL0     H82076   9.700   1.875   0.378  0.0436 -0.7736  0.7294
  608MOL0     H82077  10.362   2.294   0.610  0.5777  2.2388  1.9288
  608MOL0     H82078  10.383   2.455   0.715  4.1935 -1.0093  0.3574
  608MOL0     H82079  10.512   2.559   0.677  0.5028 -1.1428 -0.2222
  608MOL0     H82080  10.345   2.623   0.655  1.0448  0.7863 -0.6465
  609MOL0     O82081   2.183  11.089   9.174 -0.3560  0.0539  0.2489
  609MOL0     C82082   2.221  11.210   9.191 -0.4576 -0.1034 -0.3580
  609MOL0     O82083   2.346  11.249   9.251 -0.2605 -0.0985  0.2814
  609MOL0     C82084   2.436  11.155   9.280 -0.3334 -0.0275  0.2977
  609MOL0     C82085   2.545  11.127   9.193 -0.4150 -0.9362  0.0880
  609MOL0     C82086   2.628  11.019   9.223  0.0260 -0.6735  0.3287
  609MOL0     C82087   2.618  10.942   9.331  0.3120  0.8617 -1.2523
  609MOL0     O82088   2.700  10.839   9.348 -0.8549  0.2653  0.6866
  609MOL0     C82089   2.635  10.710   9.362 -0.2774  0.1029  0.1389
  609MOL0     C82090   2.664  10.650   9.503 -0.4210 -0.7904  1.1613
  609MOL0     C82091   2.579  10.525   9.534  0.0947 -0.6995  0.5154
  609MOL0     C82092   2.571  10.486   9.679  1.1254 -0.0851 -0.8689
  609MOL0     C82093   2.512  10.347   9.708 -0.4409  0.1400  0.9157
  609MOL0     C82094   2.517  10.315   9.859  0.0785 -0.4870  0.2354
  609MOL0     C82095   2.387  10.350   9.938  0.0187 -0.2314  0.4783
  609MOL0     C82096   2.390  10.280  10.074 -0.1476  0.1283 -0.9758
  609MOL0     N82097   2.255  10.291  10.137  0.3948  0.4594 -0.1010
  609MOL0     C82098   2.172  10.191  10.185 -0.3878 -0.7253  0.0204
  609MOL0     C82099   2.077  10.263  10.254 -0.0475  0.2499 -0.0092
  609MOL0     C82100   1.965  10.209  10.337  1.2675  0.2117 -0.2209
  609MOL0     C82101   1.827  10.191  10.258 -0.7273 -0.7498 -0.2059
  609MOL0     C82102   1.855  10.141  10.111 -0.0591 -0.2490  0.1968
  609MOL0     C82103   1.723  10.122  10.033  0.5870  0.7348  0.1605
  609MOL0     O82104   1.635  10.226  10.049 -0.5455 -0.9791  0.2184
  609MOL0     C82105   1.512  10.216  10.000  0.4104 -1.2121  0.3330
  609MOL0     C82106   1.427  10.327  10.022 -0.6552  0.4082  0.4561
  609MOL0     C82107   1.296  10.343   9.968  0.4516  0.2562 -0.4389
  609MOL0     C82108   1.240  10.244   9.891  1.1810 -0.1493  0.3586
  609MOL0     C82109   1.099  10.240   9.841 -0.5098 -0.2205  0.1665
  609MOL0     O82110   1.037  10.366   9.853  1.0883 -0.0134  0.7526
  609MOL0     C82111   0.907  10.394   9.810  0.1706 -0.3792  0.1449
  609MOL0     C82112   0.846  10.348   9.690 -0.4580  0.0632  0.0739
  609MOL0     C82113   0.715  10.395   9.654  0.2907 -0.5907  0.2987
  609MOL0     C82114   0.648  10.486   9.736  0.5630  0.1390  0.1952
  609MOL0     O82115   0.525  10.523   9.697  0.0194  0.2353  0.8403
  609MOL0     C82116   0.514  10.649   9.639  0.7433  1.0496 -0.4155
  609MOL0     C82117   0.531  10.636   9.483 -0.3148  0.5599 -0.1959
  609MOL0     C82118   0.618  10.745   9.434  0.7085 -0.4581  0.3331
  609MOL0     C82119   0.762  10.709   9.466 -0.5267  0.3338  0.7916
  609MOL0     C82120   0.858  10.818   9.415 -0.0653 -0.0828  0.1635
  609MOL0     C82121   0.998  10.795   9.480 -0.3064 -0.0426  0.4320
  609MOL0     C82122   1.098  10.913   9.463  1.0287 -0.4040 -0.7370
  609MOL0     C82123   1.051  11.046   9.540  1.3942 -0.8112  0.8209
  609MOL0    Cl82124   1.184  11.169   9.534 -0.2255  0.7013 -0.1833
  609MOL0     C82125   0.707  10.531   9.852 -0.6800 -0.3058  0.2024
  609MOL0     C82126   0.833  10.487   9.890 -0.3781 -0.3310 -0.4680
  609MOL0     O82127   1.046  10.134   9.805 -0.2305 -0.4997 -0.0091
  609MOL0     C82128   1.321  10.133   9.867 -0.7467  0.0330  0.1012
  609MOL0     C82129   1.453  10.119   9.914  0.7026  1.4749 -0.1047
  609MOL0     N82130   2.094  10.401  10.240  0.4079 -0.2831 -0.2799
  609MOL0     N82131   2.210  10.412  10.170 -0.7281 -0.5326  0.8379
  609MOL0     C82132   2.511  10.972   9.422  0.4103  0.0666 -1.1369
  609MOL0     C82133   2.427  11.088   9.399 -0.8293  0.3509 -0.2217
  609MOL0     C82134   2.128  11.316   9.136 -0.6749 -0.8349 -0.5971
  609MOL0     C82135   2.016  11.271   9.065 -0.7968  0.1846 -0.5231
  609MOL0     C82136   1.909  11.350   9.026  0.1986 -0.6234 -0.1571
  609MOL0     C82137   1.910  11.489   9.061  0.3139 -0.4518 -0.2212
  609MOL0     O82138   1.805  11.567   9.012  0.3778  0.0096 -0.4231
  609MOL0     C82139   1.795  11.703   9.064 -0.0383  0.0978  1.0281
  609MOL0     C82140   1.654  11.767   9.057  0.2703 -0.5773  0.3943
  609MOL0     C82141   1.548  11.662   9.115 -0.4975  0.0591  1.1064
  609MOL0     C82142   1.399  11.707   9.086  0.0511  0.0055  0.3972
  609MOL0     C82143   1.366  11.701   8.938 -0.1419 -0.3641  0.0056
  609MOL0     C82144   1.336  11.712   8.816  0.0070  0.4458  0.0129
  609MOL0     C82145   2.020  11.530   9.135 -0.3767 -0.5659 -0.1984
  609MOL0     C82146   2.121  11.453   9.179 -0.5126 -0.1022  0.4882
  609MOL0     C82147   2.238  11.514   9.257 -0.1456  0.7155  0.4991
  609MOL0     H82148   2.551  11.187   9.103 -2.1707  0.8017  1.0538
  609MOL0     H82149   2.707  10.987   9.156 -0.4966 -1.0657 -0.1051
  609MOL0     H82150   2.529  10.710   9.335 -0.1716 -3.3079 -0.7093
  609MOL0     H82151   2.684  10.644   9.290 -2.3452 -0.2840 -0.9763
  609MOL0     H82152   2.646  10.724   9.582  0.7143  1.5855 -0.6944
  609MOL0     H82153   2.769  10.618   9.505 -0.3909 -0.6505  2.1656
  609MOL0     H82154   2.618  10.440   9.477  1.5428  1.4850 -2.0370
  609MOL0     H82155   2.476  10.540   9.498  0.7291 -0.9015 -1.5078
  609MOL0     H82156   2.666  10.491   9.733  0.1872  1.4718  0.7676
  609MOL0     H82157   2.509  10.569   9.712  0.7334  0.0687 -1.9885
  609MOL0     H82158   2.411  10.329   9.668 -0.5994 -1.5843  1.9848
  609MOL0     H82159   2.575  10.283   9.645  2.3432  2.1939  1.4255
  609MOL0     H82160   2.543  10.209   9.854  3.5315  0.2659 -1.8269
  609MOL0     H82161   2.597  10.375   9.904 -1.0026  0.9503  0.3256
  609MOL0     H82162   2.298  10.311   9.887  0.5430 -3.9961  2.0860
  609MOL0     H82163   2.377  10.458   9.951  2.4310 -0.2111  3.0194
  609MOL0     H82164   2.412  10.172  10.075  2.2612  0.5559  0.1946
  609MOL0     H82165   2.470  10.321  10.136 -1.6544 -1.5542  2.3815
  609MOL0     H82166   2.188  10.084  10.177  3.4204 -0.2576 -0.3260
  609MOL0     H82167   2.002  10.109  10.363 -2.1521 -2.2668 -3.6908
  609MOL0     H82168   1.940  10.270  10.425 -2.3949 -2.3346  0.7455
  609MOL0     H82169   1.750  10.134  10.311 -0.6943 -0.9015 -0.3188
  609MOL0     H82170   1.774  10.284  10.233  1.3009 -0.4898 -4.3692
  609MOL0     H82171   1.918  10.052  10.114  1.1196  0.4487 -1.5547
  609MOL0     H82172   1.918  10.213  10.057  2.1738 -0.2775  2.5671
  609MOL0     H82173   1.689  10.025  10.071  1.7069  0.3756  0.2855
  609MOL0     H82174   1.752  10.114   9.928 -2.5426 -0.8895 -0.7064
  609MOL0     H82175   1.478  10.390  10.094 -0.0425 -1.1765  1.4710
  609MOL0     H82176   1.245  10.437   9.985  0.6983  0.0188  1.9069
  609MOL0     H82177   0.896  10.268   9.636  0.0955  0.5512 -0.1515
  609MOL0     H82178   0.672  10.369   9.558 -0.6090  1.0081  0.2366
  609MOL0     H82179   0.407  10.667   9.653  0.3745 -0.4759 -1.0367
  609MOL0     H82180   0.575  10.727   9.684  0.8552  1.0471 -0.5615
  609MOL0     H82181   0.565  10.541   9.441 -0.6319 -0.0544  0.8960
  609MOL0     H82182   0.434  10.634   9.434 -1.1083 -1.2006  1.3253
  609MOL0     H82183   0.620  10.753   9.325  0.3429  0.2878  0.3807
  609MOL0     H82184   0.594  10.843   9.476 -1.4348 -0.9087  0.2752
  609MOL0     H82185   0.786  10.609   9.429 -1.4147 -0.7728  3.0235
  609MOL0     H82186   0.783  10.706   9.573  1.2682 -0.7033  0.4565
  609MOL0     H82187   0.817  10.918   9.433  1.3840  1.0936 -2.5083
  609MOL0     H82188   0.863  10.814   9.306  1.1556 -1.2485  0.2292
  609MOL0     H82189   0.984  10.765   9.584  1.6465  1.3150  1.1322
  609MOL0     H82190   1.033  10.712   9.418  0.3501  1.6272 -1.5818
  609MOL0     H82191   1.114  10.924   9.356  0.0407 -0.1473 -0.8717
  609MOL0     H82192   1.183  10.879   9.522  0.8287 -2.4098 -1.5281
  609MOL0     H82193   0.960  11.078   9.488  0.6676  1.5573  3.3531
  609MOL0     H82194   1.016  11.036   9.643 -3.1804  2.5086 -0.0693
  609MOL0     H82195   0.647  10.599   9.911 -2.5405 -1.0604 -0.7434
  609MOL0     H82196   0.891  10.517   9.976  0.7407  2.7168 -2.1461
  609MOL0     H82197   1.286  10.052   9.805 -0.5591  0.6763 -0.8667
  609MOL0     H82198   1.516  10.041   9.874 -2.2314  0.3226 -2.9076
  609MOL0     H82199   2.495  10.922   9.517  0.4028  1.7177 -0.2414
  609MOL0     H82200   2.350  11.104   9.475  2.4996 -0.8643  3.7915
  609MOL0     H82201   2.014  11.168   9.032  3.7295  1.0986 -4.9568
  609MOL0     H82202   1.825  11.306   8.974 -0.4658  0.5661 -0.1406
  609MOL0     H82203   1.875  11.770   9.030  1.9591 -1.8695  1.6294
  609MOL0     H82204   1.807  11.690   9.172  0.3404 -1.0334  0.8505
  609MOL0     H82205   1.621  11.794   8.956  2.0202 -0.5980 -0.2195
  609MOL0     H82206   1.655  11.864   9.109 -5.1041 -0.0096  0.0006
  609MOL0     H82207   1.557  11.648   9.223 -1.6482 -0.4853  1.1403
  609MOL0     H82208   1.553  11.561   9.074 -4.3643 -0.0296  0.5084
  609MOL0     H82209   1.329  11.634   9.126 -2.1823 -0.7609 -4.2624
  609MOL0     H82210   1.383  11.804   9.134  2.1635 -2.0668  6.2570
  609MOL0     H82211   1.310  11.728   8.713  0.6715  0.2719 -0.1859
  609MOL0     H82212   2.020  11.636   9.158 -2.2328 -0.2320 -1.4997
  609MOL0     H82213   2.233  11.620   9.284  2.5316  0.4368  2.4381
  609MOL0     H82214   2.255  11.464   9.353 -1.8549  4.9109  3.2782
  609MOL0     H82215   2.331  11.521   9.200 -1.5901  1.3542 -1.9275
  610MOL0     O82216   4.830   6.689   6.980  0.1233 -0.8207 -0.3856
  610MOL0     C82217   4.950   6.708   6.948  0.0333 -0.0606 -0.0969
  610MOL0     O82218   5.019   6.622   6.859 -0.1923 -1.4110  0.7209
  610MOL0     C82219   4.971   6.499   6.844  0.0389 -0.5966 -0.1278
  610MOL0     C82220   4.993   6.434   6.724 -0.8624  0.3065  0.1317
  610MOL0     C82221   4.945   6.302   6.701  0.0436  0.0301  0.5524
  610MOL0     C82222   4.893   6.222   6.802  0.6103  0.0736 -0.5844
  610MOL0     O82223   4.856   6.091   6.781  0.0847  0.5653  0.1508
  610MOL0     C82224   4.846   6.000   6.895 -1.1954  0.0486 -0.7212
  610MOL0     C82225   4.785   5.867   6.848 -0.1917 -0.4030  0.6115
  610MOL0     C82226   4.713   5.801   6.974 -0.2716 -0.2460 -0.0746
  610MOL0     C82227   4.704   5.646   6.949 -0.0686 -0.7121 -0.8989
  610MOL0     C82228   4.627   5.575   7.055 -0.2757 -0.1664 -0.2435
  610MOL0     C82229   4.645   5.425   7.053 -0.5252 -0.3123 -0.3180
  610MOL0     C82230   4.587   5.353   7.177 -0.0652 -0.0084  0.8130
  610MOL0     C82231   4.440   5.324   7.143  0.6276  0.2837  0.5255
  610MOL0     N82232   4.385   5.270   7.275 -0.1513 -0.3118  0.0219
  610MOL0     C82233   4.415   5.148   7.326 -0.2786 -0.5059 -0.1226
  610MOL0     C82234   4.343   5.157   7.448 -0.9602  0.7425 -0.3042
  610MOL0     C82235   4.340   5.057   7.563 -0.1761  0.3568  0.2918
  610MOL0     C82236   4.199   5.013   7.583 -0.2731  0.9518  0.8746
  610MOL0     C82237   4.136   4.941   7.459  0.8799  0.4221 -0.1198
  610MOL0     C82238   3.983   4.924   7.468  0.0788  0.4711 -0.4759
  610MOL0     O82239   3.956   4.849   7.593  0.2080  0.2254 -0.4040
  610MOL0     C82240   3.830   4.806   7.606  0.5034  0.4064  0.0519
  610MOL0     C82241   3.801   4.731   7.716  0.7367 -0.3906 -0.8237
  610MOL0     C82242   3.681   4.674   7.744 -0.1178  0.0503  0.4493
  610MOL0     C82243   3.572   4.707   7.663 -0.8512  0.2166  0.0251
  610MOL0     C82244   3.431   4.646   7.690  0.1292  0.1565  0.6755
  610MOL0     O82245   3.330   4.724   7.636 -0.1793  0.4675  0.2773
  610MOL0     C82246   3.203   4.671   7.619 -0.3532  0.0611 -0.5352
  610MOL0     C82247   3.170   4.537   7.603 -0.7357 -0.0749 -0.4044
  610MOL0     C82248   3.040   4.497   7.588  0.0695  0.9555  0.4722
  610MOL0     C82249   2.937   4.592   7.577  0.0950 -0.1503 -0.4791
  610MOL0     O82250   2.812   4.568   7.540  0.2102 -0.5890  0.3603
  610MOL0     C82251   2.791   4.475   7.437  0.9202  0.0492  0.6032
  610MOL0     C82252   2.677   4.527   7.351  0.3076 -0.1920  0.0169
  610MOL0     C82253   2.649   4.431   7.230  0.2424 -0.0661 -0.4094
  610MOL0     C82254   2.565   4.516   7.127 -0.1522  0.8457  0.7216
  610MOL0     C82255   2.499   4.432   7.018  0.1377  1.1529  0.1338
  610MOL0     C82256   2.454   4.515   6.891  0.4298 -0.4637 -0.7129
  610MOL0     C82257   2.321   4.599   6.921  0.1844 -0.9255  0.7149
  610MOL0     C82258   2.224   4.617   6.804  0.0535  1.3635  0.2839
  610MOL0    Cl82259   2.268   4.743   6.678  0.0317 -0.5655 -0.1559
  610MOL0     C82260   2.975   4.726   7.596  0.8247 -0.1233  0.6632
  610MOL0     C82261   3.103   4.758   7.612  0.0848 -0.7073  0.2355
  610MOL0     O82262   3.423   4.571   7.785  1.0232  0.6005 -0.3552
  610MOL0     C82263   3.598   4.788   7.547  0.4043  0.2666  0.2550
  610MOL0     C82264   3.728   4.832   7.521  0.1465 -0.2360 -0.4832
  610MOL0     N82265   4.286   5.286   7.466 -0.4168 -0.2108 -0.1221
  610MOL0     N82266   4.328   5.359   7.362  0.5229  0.2789  0.1623
  610MOL0     C82267   4.884   6.291   6.931  0.3066  0.2326  0.4807
  610MOL0     C82268   4.919   6.424   6.950  0.2898  0.3160 -0.4831
  610MOL0     C82269   5.012   6.841   6.974 -1.1269  0.3035  0.2643
  610MOL0     C82270   5.128   6.873   6.903 -1.0334 -0.9186 -0.4214
  610MOL0     C82271   5.204   6.984   6.932  0.1587  0.0179 -0.9151
  610MOL0     C82272   5.160   7.086   7.025 -0.4610 -0.0876  0.6122
  610MOL0     O82273   5.212   7.208   7.046  0.3616 -0.3353  0.3574
  610MOL0     C82274   5.342   7.238   7.004 -0.1076 -0.2936  0.5769
  610MOL0     C82275   5.397   7.351   7.082 -0.5593  0.3278  0.4027
  610MOL0     C82276   5.447   7.297   7.217 -0.1571  0.4204 -1.0420
  610MOL0     C82277   5.522   7.403   7.306  0.6844  1.1267 -0.1134
  610MOL0     C82278   5.432   7.514   7.330 -0.0487 -0.4269 -0.3069
  610MOL0     C82279   5.368   7.620   7.335  0.0964  0.1604 -0.1991
  610MOL0     C82280   5.047   7.062   7.085  0.0243 -0.0040  0.1532
  610MOL0     C82281   4.968   6.940   7.070  0.9261  0.7484 -0.6867
  610MOL0     C82282   4.840   6.927   7.146  0.3483  0.1910  0.5401
  610MOL0     H82283   5.050   6.486   6.648 -0.5659 -0.1781  0.0130
  610MOL0     H82284   4.958   6.268   6.598 -0.6514  0.0834  0.4412
  610MOL0     H82285   4.944   5.987   6.941 -0.5120  0.3678 -2.0438
  610MOL0     H82286   4.782   6.052   6.967 -2.4100  1.3016 -2.6390
  610MOL0     H82287   4.854   5.798   6.797 -3.1337 -2.7654 -0.4751
  610MOL0     H82288   4.703   5.888   6.779 -2.3486 -2.9812  2.1992
  610MOL0     H82289   4.609   5.835   6.981  0.4110  1.8686  0.3271
  610MOL0     H82290   4.769   5.813   7.067 -0.4936  1.1875 -0.0982
  610MOL0     H82291   4.664   5.620   6.850  1.9607  0.1681 -2.0012
  610MOL0     H82292   4.807   5.610   6.950 -0.0029 -0.5074 -0.0425
  610MOL0     H82293   4.668   5.609   7.150 -4.4326 -1.1312  2.1513
  610MOL0     H82294   4.521   5.601   7.061 -0.2772 -0.4159  1.7412
  610MOL0     H82295   4.618   5.380   6.957 -0.6894 -0.3693 -0.2461
  610MOL0     H82296   4.752   5.402   7.055 -0.7161 -1.8800 -3.2942
  610MOL0     H82297   4.590   5.413   7.268  0.8243 -0.2595  0.9647
  610MOL0     H82298   4.636   5.257   7.197  1.5641  1.1247  2.5940
  610MOL0     H82299   4.384   5.411   7.106  0.0863  0.0135  0.7012
  610MOL0     H82300   4.434   5.250   7.063 -1.3918  1.0816 -0.1190
  610MOL0     H82301   4.479   5.073   7.282  1.1857  1.7960 -2.0921
  610MOL0     H82302   4.399   4.969   7.536  1.1079  0.0491  3.6883
  610MOL0     H82303   4.367   5.093   7.662  0.3790 -0.9421  0.6398
  610MOL0     H82304   4.200   4.945   7.669  0.0122  0.9047  0.8339
  610MOL0     H82305   4.139   5.101   7.605 -1.6246 -0.2145  2.0598
  610MOL0     H82306   4.169   4.837   7.450 -0.1487  0.2598 -5.0882
  610MOL0     H82307   4.168   4.992   7.367 -0.3531  1.2183 -0.1432
  610MOL0     H82308   3.952   4.859   7.384 -3.0917 -1.1532  1.7255
  610MOL0     H82309   3.925   5.015   7.455 -2.0671 -0.7742 -0.1798
  610MOL0     H82310   3.882   4.714   7.787 -1.1096 -0.4937  1.3885
  610MOL0     H82311   3.672   4.605   7.828  0.9826 -0.9921 -0.2560
  610MOL0     H82312   3.256   4.471   7.588  0.8897  1.3234  2.0732
  610MOL0     H82313   3.025   4.391   7.571  3.3687  0.3034  0.9858
  610MOL0     H82314   2.878   4.460   7.373  0.4241 -2.0646  0.3629
  610MOL0     H82315   2.772   4.374   7.474  0.3304  0.7702  2.4082
  610MOL0     H82316   2.588   4.540   7.413  1.7027  0.2571  2.0171
  610MOL0     H82317   2.708   4.624   7.312  0.9152 -0.8750 -1.2867
  610MOL0     H82318   2.740   4.390   7.187 -1.6637 -1.2288 -3.7669
  610MOL0     H82319   2.584   4.344   7.247  0.6951 -0.1850  0.7301
  610MOL0     H82320   2.639   4.584   7.083  2.7661 -0.6617  2.9675
  610MOL0     H82321   2.484   4.571   7.176 -1.5785  0.3034 -0.8956
  610MOL0     H82322   2.417   4.366   7.049  1.3012 -1.5102 -1.9845
  610MOL0     H82323   2.563   4.348   6.988 -2.4044  0.0473 -2.7625
  610MOL0     H82324   2.532   4.583   6.855  0.7608 -1.5068 -2.0570
  610MOL0     H82325   2.439   4.454   6.802  1.5512  0.5224 -1.6065
  610MOL0     H82326   2.339   4.698   6.963 -0.4044  0.1103 -1.3533
  610MOL0     H82327   2.267   4.554   7.005 -1.0048 -0.5772  0.1613
  610MOL0     H82328   2.196   4.521   6.759 -0.3360  1.3312  0.5874
  610MOL0     H82329   2.124   4.641   6.843 -1.9961 -2.4356 -2.0614
  610MOL0     H82330   2.910   4.808   7.568  1.1692 -0.3445 -0.8805
  610MOL0     H82331   3.124   4.863   7.629  0.7336 -1.3251  4.1552
  610MOL0     H82332   3.512   4.805   7.482  0.6296  0.0852 -0.0889
  610MOL0     H82333   3.738   4.893   7.432 -1.4989 -1.5112 -1.6049
  610MOL0     H82334   4.868   6.240   7.025  3.3976 -0.7388  0.6019
  610MOL0     H82335   4.908   6.473   7.046 -0.5840 -3.1459  1.3439
  610MOL0     H82336   5.179   6.812   6.829  0.9581  1.7665 -1.4273
  610MOL0     H82337   5.299   7.000   6.883  0.9702  1.1098  0.9073
  610MOL0     H82338   5.323   7.273   6.902 -1.4063  0.6485  1.1113
  610MOL0     H82339   5.410   7.152   6.998 -0.8188 -0.7392 -2.0267
  610MOL0     H82340   5.324   7.432   7.090 -1.0371  0.1547 -1.5757
  610MOL0     H82341   5.479   7.399   7.028  0.4635  0.5470  2.1048
  610MOL0     H82342   5.519   7.218   7.194 -0.4275  0.7280 -3.2142
  610MOL0     H82343   5.362   7.250   7.267 -0.8980  0.5682 -2.1380
  610MOL0     H82344   5.558   7.358   7.399 -4.1413  0.4097  1.6781
  610MOL0     H82345   5.611   7.440   7.255  2.0043 -1.9547 -0.2746
  610MOL0     H82346   5.305   7.704   7.354  1.3630  0.6004  2.4725
  610MOL0     H82347   4.989   7.135   7.141 -2.0465  1.3179 -3.3864
  610MOL0     H82348   4.817   7.010   7.214 -1.1747  3.6019 -3.7450
  610MOL0     H82349   4.757   6.919   7.076  1.5023 -1.8569 -0.7104
  610MOL0     H82350   4.845   6.838   7.210  0.9508  0.3021  0.6607
  611MOL0     O82351   7.857   5.721   1.403  0.4052 -0.3110  0.5233
  611MOL0     C82352   7.809   5.795   1.318 -0.0276  0.0539  0.7983
  611MOL0     O82353   7.844   5.791   1.184 -0.1002 -0.0552  0.1306
  611MOL0     C82354   7.919   5.679   1.140  0.3897 -0.7403 -0.2747
  611MOL0     C82355   8.051   5.659   1.184 -1.0391 -0.7964  0.1619
  611MOL0     C82356   8.119   5.541   1.140  0.7058 -0.9103 -0.6555
  611MOL0     C82357   8.055   5.442   1.065 -0.6965 -0.4300  0.3399
  611MOL0     O82358   8.102   5.304   1.051  0.2212 -0.5464 -0.5680
  611MOL0     C82359   8.235   5.268   1.083 -0.4428  0.0055  0.5354
  611MOL0     C82360   8.266   5.114   1.068  0.3445  0.6305  0.0083
  611MOL0     C82361   8.240   5.070   0.924  0.6783  0.0050  0.2780
  611MOL0     C82362   8.301   4.927   0.887 -0.0721 -0.2615  0.3138
  611MOL0     C82363   8.285   4.879   0.739  0.4932  0.5191  0.0204
  611MOL0     C82364   8.365   4.964   0.628  0.3377 -0.4093 -0.8468
  611MOL0     C82365   8.314   4.938   0.490 -0.9122  0.2062  0.0069
  611MOL0     C82366   8.275   5.065   0.413  0.3176  0.8894 -0.3393
  611MOL0     N82367   8.387   5.118   0.334  0.1474 -0.2649  0.6815
  611MOL0     C82368   8.518   5.140   0.382  0.1724 -0.2615 -0.5801
  611MOL0     C82369   8.582   5.170   0.261  0.1068 -0.2191 -0.2718
  611MOL0     C82370   8.728   5.199   0.249 -0.3933 -0.1066 -1.5907
  611MOL0     C82371   8.777   5.343   0.223 -0.5825 -0.9555 -0.2867
  611MOL0     C82372   8.740   5.399   0.084 -0.5465 -0.5792 -0.1606
  611MOL0     C82373   8.795   5.327  -0.041  0.0827 -0.2762  0.4132
  611MOL0     O82374   8.931   5.349  -0.072 -0.2833  0.0423 -0.0196
  611MOL0     C82375   8.952   5.468  -0.141  0.1714  0.5605 -0.5187
  611MOL0     C82376   8.874   5.509  -0.244  0.6944  0.5811 -0.1854
  611MOL0     C82377   8.915   5.606  -0.334  0.3376 -0.5914  0.6941
  611MOL0     C82378   9.033   5.687  -0.302 -0.6744  0.1764 -1.2870
  611MOL0     C82379   9.075   5.813  -0.376  0.0201 -0.8015  1.0320
  611MOL0     O82380   9.214   5.857  -0.357  1.0041  0.3008 -0.3440
  611MOL0     C82381   9.277   5.953  -0.427  0.5566  0.3165  0.6390
  611MOL0     C82382   9.394   6.008  -0.377  1.1570  0.6863 -0.7113
  611MOL0     C82383   9.453   6.115  -0.446  0.6839 -0.7718  0.2086
  611MOL0     C82384   9.429   6.131  -0.585  0.0228  0.0701 -0.4127
  611MOL0     O82385   9.518   6.207  -0.647 -0.1415 -0.3158  0.6638
  611MOL0     C82386   9.474   6.248  -0.782  0.4224 -0.4340 -0.7571
  611MOL0     C82387   9.552   6.356  -0.841 -0.6096 -0.4417  0.4171
  611MOL0     C82388   9.704   6.320  -0.860  1.3405  0.4805  0.8088
  611MOL0     C82389   9.793   6.441  -0.873 -0.2469 -0.4729 -0.9822
  611MOL0     C82390   9.938   6.411  -0.903 -0.0039 -0.4957 -0.1238
  611MOL0     C82391  10.039   6.371  -0.789 -0.8105 -0.6356 -0.6409
  611MOL0     C82392  10.056   6.494  -0.704 -0.9409  0.3631  0.1006
  611MOL0     C82393  10.104   6.449  -0.564  0.4341 -0.9244 -0.1490
  611MOL0    Cl82394  10.110   6.600  -0.458 -0.6844 -0.2289 -0.1924
  611MOL0     C82395   9.319   6.067  -0.639 -0.2081 -0.2065  0.0174
  611MOL0     C82396   9.237   5.983  -0.561 -0.2992 -0.5308  0.2206
  611MOL0     O82397   8.991   5.868  -0.452 -0.8261  0.4936 -0.4917
  611MOL0     C82398   9.105   5.652  -0.186 -0.2244 -0.3514  0.4110
  611MOL0     C82399   9.060   5.543  -0.104 -0.0357 -0.6317 -0.3051
  611MOL0     N82400   8.490   5.171   0.158  0.2091  0.4597  0.4533
  611MOL0     N82401   8.376   5.133   0.203 -0.4673  0.6435 -1.1151
  611MOL0     C82402   7.931   5.477   1.012 -0.7309  1.3225 -0.3870
  611MOL0     C82403   7.861   5.597   1.045 -0.5743 -1.0041 -0.2861
  611MOL0     C82404   7.697   5.887   1.370 -0.4160  0.2518  0.1277
  611MOL0     C82405   7.613   5.949   1.273  0.3281 -0.2258 -0.3914
  611MOL0     C82406   7.507   6.033   1.314  0.2676  0.0196 -0.1957
  611MOL0     C82407   7.507   6.086   1.441  0.6064 -0.1203  0.7918
  611MOL0     O82408   7.428   6.186   1.488 -0.3638 -0.4556  0.2424
  611MOL0     C82409   7.347   6.259   1.399 -0.1900  1.0931 -0.8541
  611MOL0     C82410   7.420   6.369   1.318 -0.2015 -0.6535 -0.1035
  611MOL0     C82411   7.313   6.426   1.223 -0.1960  0.6717 -0.2321
  611MOL0     C82412   7.351   6.556   1.150 -0.4427  0.4348 -0.2206
  611MOL0     C82413   7.417   6.662   1.235 -0.1367  0.0512 -0.9439
  611MOL0     C82414   7.478   6.740   1.303  0.7509  0.6529  0.6424
  611MOL0     C82415   7.592   6.036   1.534 -0.3963 -0.7122  0.1982
  611MOL0     C82416   7.693   5.938   1.500  0.7496  0.6318  0.5490
  611MOL0     C82417   7.786   5.887   1.604 -0.4597  0.9994 -0.3637
  611MOL0     H82418   8.100   5.736   1.243 -2.2557  0.4611 -0.4360
  611MOL0     H82419   8.217   5.533   1.185  0.2602  1.0165  0.8083
  611MOL0     H82420   8.302   5.333   1.026  3.5750 -2.4542  1.9726
  611MOL0     H82421   8.262   5.292   1.186  2.5074 -0.1401 -0.1055
  611MOL0     H82422   8.209   5.052   1.137  1.7470  0.8285  1.3978
  611MOL0     H82423   8.368   5.081   1.088  0.3358  0.7548  0.2630
  611MOL0     H82424   8.277   5.144   0.852  2.0801 -0.5316  0.4209
  611MOL0     H82425   8.132   5.061   0.910  0.5678  0.4162  0.8062
  611MOL0     H82426   8.405   4.920   0.918 -0.6338 -2.8833  1.9585
  611MOL0     H82427   8.252   4.856   0.955  3.6274 -3.4036  0.0395
  611MOL0     H82428   8.306   4.773   0.726  0.2493  0.6448 -1.6117
  611MOL0     H82429   8.178   4.887   0.721  0.0309  1.4285  2.6522
  611MOL0     H82430   8.360   5.072   0.644  0.7690 -0.4047 -0.7329
  611MOL0     H82431   8.469   4.932   0.643  0.0422 -0.5710  1.1476
  611MOL0     H82432   8.228   4.871   0.499 -2.0921  1.8918  2.0831
  611MOL0     H82433   8.399   4.890   0.439  0.1253 -0.4100  2.1730
  611MOL0     H82434   8.184   5.044   0.355  0.5721  3.4288 -1.8390
  611MOL0     H82435   8.233   5.134   0.487 -2.4178 -3.7401  2.8916
  611MOL0     H82436   8.561   5.128   0.481  0.1629 -3.4303 -0.8633
  611MOL0     H82437   8.769   5.165   0.344 -1.1105 -2.1961 -1.9769
  611MOL0     H82438   8.780   5.135   0.178  0.9671 -0.0763 -0.6488
  611MOL0     H82439   8.740   5.417   0.295  1.0420  1.8599 -2.1246
  611MOL0     H82440   8.886   5.348   0.230 -0.6662  3.9140  1.4472
  611MOL0     H82441   8.777   5.502   0.080  3.6349 -1.8841 -0.4008
  611MOL0     H82442   8.631   5.399   0.082 -0.6087  0.8457  1.1261
  611MOL0     H82443   8.715   5.360  -0.108  0.6223  0.3841  0.0853
  611MOL0     H82444   8.790   5.218  -0.037 -4.2111 -0.3444 -1.5718
  611MOL0     H82445   8.788   5.455  -0.283  1.7273  1.4659 -4.1549
  611MOL0     H82446   8.862   5.648  -0.418 -0.9067 -0.6147  1.4486
  611MOL0     H82447   9.428   6.006  -0.274  0.4118  0.2181 -0.4707
  611MOL0     H82448   9.533   6.165  -0.392  1.7534 -0.7690 -1.3145
  611MOL0     H82449   9.475   6.157  -0.843  0.0637 -1.2250  0.3666
  611MOL0     H82450   9.372   6.286  -0.785  0.3997 -0.4525 -4.1625
  611MOL0     H82451   9.521   6.382  -0.942 -0.7476  0.7396  0.7455
  611MOL0     H82452   9.543   6.454  -0.792  1.7869  0.1681 -0.1919
  611MOL0     H82453   9.742   6.259  -0.777 -0.0981 -1.2589  0.2483
  611MOL0     H82454   9.706   6.255  -0.948  0.1904 -2.6069  2.8760
  611MOL0     H82455   9.781   6.509  -0.788 -1.6574 -0.2330 -1.3518
  611MOL0     H82456   9.762   6.494  -0.963  0.4671 -0.5099 -1.2579
  611MOL0     H82457   9.964   6.485  -0.979 -1.5850  0.0685 -0.1399
  611MOL0     H82458   9.933   6.312  -0.951 -2.0176 -0.1030 -0.8248
  611MOL0     H82459   9.997   6.293  -0.724 -2.8325  0.2561 -0.7924
  611MOL0     H82460  10.130   6.327  -0.832  0.8058  2.4708 -0.7038
  611MOL0     H82461   9.963   6.549  -0.687  0.4209  1.9791  3.2608
  611MOL0     H82462  10.130   6.559  -0.752 -0.6057  2.4690  3.1855
  611MOL0     H82463  10.032   6.377  -0.525 -2.4918  2.3231  0.9953
  611MOL0     H82464  10.202   6.403  -0.577  0.7612  0.1788 -2.0405
  611MOL0     H82465   9.296   6.074  -0.745  0.0959 -2.1294 -0.2035
  611MOL0     H82466   9.151   5.949  -0.618  0.6407  0.9930 -2.2630
  611MOL0     H82467   9.186   5.718  -0.156 -0.3963 -0.3226  0.8226
  611MOL0     H82468   9.107   5.499  -0.017  1.0782 -3.3179 -2.1321
  611MOL0     H82469   7.880   5.399   0.956  0.1244  0.7978 -0.4563
  611MOL0     H82470   7.768   5.624   0.995  0.2949  3.0971 -0.0694
  611MOL0     H82471   7.619   5.931   1.167  0.9336 -0.7189 -0.2815
  611MOL0     H82472   7.433   6.073   1.245 -1.3937  0.9936  2.0263
  611MOL0     H82473   7.263   6.298   1.457  0.9801  1.1244  0.8757
  611MOL0     H82474   7.292   6.185   1.339 -1.0923  0.5652  0.5643
  611MOL0     H82475   7.505   6.333   1.260 -0.3211 -2.1734  0.6051
  611MOL0     H82476   7.468   6.446   1.378  0.4836 -1.3597  0.2833
  611MOL0     H82477   7.231   6.455   1.289 -0.0772  1.6730 -0.5073
  611MOL0     H82478   7.279   6.348   1.154 -1.7694 -0.4738  1.7464
  611MOL0     H82479   7.428   6.540   1.075  1.0621 -0.2292  1.4164
  611MOL0     H82480   7.268   6.602   1.095  1.9601  1.0356 -3.6099
  611MOL0     H82481   7.542   6.800   1.365  1.5972  2.1528 -1.5650
  611MOL0     H82482   7.582   6.096   1.624 -0.0746  0.1596 -0.3347
  611MOL0     H82483   7.767   5.781   1.627  0.4331  0.8893 -0.1145
  611MOL0     H82484   7.890   5.904   1.576  0.2304  1.5420  2.3203
  611MOL0     H82485   7.761   5.948   1.691  0.9778  0.7735  0.2223
  612MOL0     O82486   5.230   4.980  10.803  0.2746 -0.3413 -0.0174
  612MOL0     C82487   5.131   4.915  10.844 -0.7384  0.1053  0.6702
  612MOL0     O82488   5.039   4.853  10.767  0.4428  0.0957  1.0523
  612MOL0     C82489   5.042   4.882  10.631  0.3532 -0.3376  1.2785
  612MOL0     C82490   5.001   5.004  10.569 -0.1080  0.0431  0.5553
  612MOL0     C82491   5.023   5.020  10.432 -0.0984  0.0403  0.1533
  612MOL0     C82492   5.074   4.916  10.358  0.0898 -0.1754  0.4748
  612MOL0     O82493   5.093   4.920  10.225 -0.0592  0.2274 -0.2025
  612MOL0     C82494   5.130   5.043  10.164  0.1667  0.4363  0.4560
  612MOL0     C82495   5.262   5.088  10.225  0.0040 -0.3529 -0.2638
  612MOL0     C82496   5.335   5.193  10.141  0.4183  0.0969  0.3593
  612MOL0     C82497   5.470   5.208  10.205 -0.1642 -0.5745  1.2399
  612MOL0     C82498   5.569   5.294  10.124 -0.1844  0.3136 -0.4190
  612MOL0     C82499   5.710   5.282  10.167 -0.3367 -0.2339 -0.3955
  612MOL0     C82500   5.787   5.362  10.066 -0.9251  0.8771 -0.1454
  612MOL0     C82501   5.934   5.343  10.076 -0.0690  0.1135 -0.3339
  612MOL0     N82502   5.985   5.417  10.199  0.5169  0.6709 -0.0408
  612MOL0     C82503   5.997   5.552  10.222 -1.2378  1.0299  0.8723
  612MOL0     C82504   6.021   5.573  10.348  0.4716  0.4525 -0.7196
  612MOL0     C82505   6.049   5.710  10.412  0.5634 -0.9507  0.2258
  612MOL0     C82506   6.191   5.763  10.393 -0.3551 -0.0870 -0.9936
  612MOL0     C82507   6.221   5.869  10.501  0.4645  0.7385  0.8049
  612MOL0     C82508   6.356   5.926  10.493  0.1870 -0.1107 -0.4352
  612MOL0     O82509   6.378   6.002  10.373  0.1235 -0.1600 -0.3513
  612MOL0     C82510   6.507   6.031  10.340 -0.2538  0.4676  0.1907
  612MOL0     C82511   6.622   6.028  10.422  0.8766 -0.3688 -0.9248
  612MOL0     C82512   6.748   6.056  10.371  0.1856  0.1611  0.4098
  612MOL0     C82513   6.773   6.088  10.238  0.2964  0.6640 -0.8346
  612MOL0     C82514   6.910   6.125  10.197  1.1676  0.4111 -0.0196
  612MOL0     O82515   6.917   6.154  10.061  0.2153  0.1607  0.4720
  612MOL0     C82516   7.044   6.181   9.992  0.8414 -0.0800 -0.1298
  612MOL0     C82517   7.073   6.316   9.949  0.3648  0.1236  0.5763
  612MOL0     C82518   7.202   6.341   9.895 -1.1488 -0.2022 -0.4892
  612MOL0     C82519   7.303   6.245   9.897 -1.1735 -0.4842 -0.7762
  612MOL0     O82520   7.430   6.289   9.868  0.4734 -0.8616 -0.0760
  612MOL0     C82521   7.515   6.216   9.772 -0.5531  0.1783 -0.1470
  612MOL0     C82522   7.634   6.308   9.736  0.0940  0.4793  0.1559
  612MOL0     C82523   7.603   6.407   9.622  0.0964 -0.1970  0.3118
  612MOL0     C82524   7.716   6.504   9.591 -0.0373  0.3531  0.8893
  612MOL0     C82525   7.844   6.441   9.530  0.4681  0.0402 -0.3530
  612MOL0     C82526   7.938   6.540   9.460  0.1019  0.0185  0.6852
  612MOL0     C82527   8.007   6.631   9.561  1.2915 -0.2484 -0.9480
  612MOL0     C82528   8.125   6.705   9.513  0.3250  0.2337 -0.6364
  612MOL0    Cl82529   8.190   6.808   9.642 -0.0529 -0.2527 -0.1372
  612MOL0     C82530   7.265   6.113   9.941  0.7592 -0.5066 -1.2390
  612MOL0     C82531   7.131   6.080   9.984 -1.2203 -0.6375 -0.1359
  612MOL0     O82532   7.004   6.130  10.270  0.3425 -0.4682  0.5733
  612MOL0     C82533   6.658   6.094  10.161  0.2030  0.4651  0.8010
  612MOL0     C82534   6.538   6.062  10.203  1.5610 -0.5143  0.3456
  612MOL0     N82535   6.001   5.450  10.410  0.2892 -0.1142 -0.5368
  612MOL0     N82536   5.981   5.362  10.320 -0.4720  0.1837  1.1876
  612MOL0     C82537   5.095   4.790  10.412 -0.8923 -0.8139 -0.4746
  612MOL0     C82538   5.086   4.775  10.551 -0.3196 -0.3298  0.4077
  612MOL0     C82539   5.106   4.929  10.987  0.5059  0.6389 -1.1447
  612MOL0     C82540   5.223   4.903  11.066 -0.3831 -0.7158 -0.7120
  612MOL0     C82541   5.215   4.912  11.204 -0.6200 -0.8654 -0.1653
  612MOL0     C82542   5.092   4.949  11.264  0.3622 -0.1796 -0.3538
  612MOL0     O82543   5.106   4.972  11.402  0.4014 -0.3925 -0.8553
  612MOL0     C82544   4.993   5.022  11.475 -0.3892  0.8388 -0.0721
  612MOL0     C82545   4.973   5.174  11.461  0.5667 -0.5293 -0.8250
  612MOL0     C82546   4.840   5.211  11.532  0.2691  0.7128 -1.0409
  612MOL0     C82547   4.741   5.284  11.446  0.1578 -0.1367  0.7745
  612MOL0     C82548   4.674   5.193  11.348 -0.3452  0.0125 -1.0580
  612MOL0     C82549   4.617   5.131  11.253 -0.3045 -0.2489 -0.2527
  612MOL0     C82550   4.980   4.969  11.184 -0.3371  0.7630 -0.3050
  612MOL0     C82551   4.983   4.960  11.047  0.0878 -0.1296  0.6707
  612MOL0     C82552   4.849   4.957  10.971 -0.6318 -0.6586 -0.3690
  612MOL0     H82553   4.974   5.082  10.640  0.2188  0.3242  0.3715
  612MOL0     H82554   4.987   5.106  10.377  0.4880 -0.0978 -0.4545
  612MOL0     H82555   5.147   5.017  10.059 -0.4097  3.0604 -0.3687
  612MOL0     H82556   5.052   5.120  10.169 -1.8067 -1.5497  2.2460
  612MOL0     H82557   5.313   4.991  10.228 -2.3095 -1.6349  0.9999
  612MOL0     H82558   5.252   5.132  10.325  3.7034 -3.5704  1.7820
  612MOL0     H82559   5.276   5.285  10.149 -2.9347 -1.9145  0.4930
  612MOL0     H82560   5.336   5.169  10.035 -0.7020  1.6211 -0.0317
  612MOL0     H82561   5.467   5.246  10.307 -1.1746  1.1446  0.6212
  612MOL0     H82562   5.515   5.109  10.213  0.7532 -0.4251 -1.2427
  612MOL0     H82563   5.555   5.269  10.018  2.3071 -0.6706 -0.5795
  612MOL0     H82564   5.555   5.401  10.137  1.5363  0.4458  0.6474
  612MOL0     H82565   5.726   5.316  10.270  0.8571 -1.2791 -0.2143
  612MOL0     H82566   5.755   5.183  10.172  1.1927  0.4771  2.7488
  612MOL0     H82567   5.756   5.466  10.076 -3.2904  0.3005 -0.7664
  612MOL0     H82568   5.764   5.346   9.960  0.2506  1.9884 -0.6022
  612MOL0     H82569   5.952   5.235  10.083  2.0501  0.5186  2.7874
  612MOL0     H82570   5.985   5.363   9.981  1.5882  0.3441  0.5676
  612MOL0     H82571   6.014   5.619  10.138  0.3658  0.1273  0.4371
  612MOL0     H82572   5.983   5.794  10.391 -1.6169 -1.5259  3.9027
  612MOL0     H82573   6.041   5.700  10.520  3.1428  0.8610  0.6652
  612MOL0     H82574   6.271   5.689  10.407  0.8780  1.3096 -0.3949
  612MOL0     H82575   6.206   5.796  10.290  4.4312 -2.2465 -1.2659
  612MOL0     H82576   6.199   5.830  10.601  2.9412  0.8330  1.4530
  612MOL0     H82577   6.152   5.954  10.499 -1.6750 -0.9248 -1.1856
  612MOL0     H82578   6.422   5.839  10.492 -2.3423 -2.1949  0.0852
  612MOL0     H82579   6.374   6.001  10.569 -0.5778  1.3085 -1.6006
  612MOL0     H82580   6.611   6.004  10.528  0.1958  2.3882 -0.2987
  612MOL0     H82581   6.833   6.048  10.439  0.9103  1.2186 -0.3463
  612MOL0     H82582   7.001   6.397   9.958 -1.4785 -1.0907 -1.8025
  612MOL0     H82583   7.226   6.437   9.852  2.2043 -1.2084 -1.1785
  612MOL0     H82584   7.556   6.124   9.816  1.0712  0.9394 -0.0144
  612MOL0     H82585   7.454   6.188   9.686 -0.1250 -2.9754  0.4698
  612MOL0     H82586   7.657   6.377   9.817 -0.4229  2.4127 -1.2721
  612MOL0     H82587   7.717   6.248   9.696 -0.7712 -0.2271 -0.6615
  612MOL0     H82588   7.572   6.344   9.537  1.3703  0.4222 -0.6460
  612MOL0     H82589   7.518   6.473   9.640 -0.7387 -1.0111 -0.5063
  612MOL0     H82590   7.755   6.551   9.682  2.5970 -1.3221  0.7168
  612MOL0     H82591   7.685   6.574   9.514  2.0879 -0.5103 -0.8543
  612MOL0     H82592   7.805   6.373   9.453 -2.8592  4.0698 -2.6389
  612MOL0     H82593   7.892   6.388   9.612 -0.3067  0.6032  0.4902
  612MOL0     H82594   8.012   6.490   9.397  1.2331  0.0169  1.9670
  612MOL0     H82595   7.881   6.602   9.389 -2.4590 -0.7483  1.9400
  612MOL0     H82596   8.015   6.579   9.657 -1.9816  2.9353  1.3589
  612MOL0     H82597   7.940   6.714   9.585  0.2225 -1.1014 -0.9299
  612MOL0     H82598   8.199   6.628   9.490  0.8403 -0.2239  2.1140
  612MOL0     H82599   8.103   6.772   9.429 -2.5479  0.0298 -0.1483
  612MOL0     H82600   7.332   6.028   9.936  1.2711 -0.1602 -0.4650
  612MOL0     H82601   7.104   5.984  10.027 -2.9709 -0.1183  0.0016
  612MOL0     H82602   6.677   6.110  10.055 -1.7169 -2.3997 -0.0559
  612MOL0     H82603   6.451   6.064  10.138  1.9817 -0.0595 -0.2116
  612MOL0     H82604   5.112   4.713  10.337  0.3958  2.1904 -3.5074
  612MOL0     H82605   5.103   4.677  10.594  0.6195 -0.2597  0.2104
  612MOL0     H82606   5.318   4.895  11.014 -0.3287  2.9764 -1.4268
  612MOL0     H82607   5.307   4.906  11.261  0.9672  0.7647 -2.3560
  612MOL0     H82608   5.019   5.000  11.579  0.8066  1.6069 -0.1904
  612MOL0     H82609   4.899   4.968  11.456  1.0187 -1.9577  0.4469
  612MOL0     H82610   4.967   5.205  11.357 -1.1247  0.3010 -0.5062
  612MOL0     H82611   5.057   5.221  11.513 -1.2410  1.2374  0.6540
  612MOL0     H82612   4.858   5.277  11.617 -1.5742 -0.2235  0.1445
  612MOL0     H82613   4.797   5.116  11.566  0.9697  1.5766  2.6586
  612MOL0     H82614   4.662   5.331  11.505  1.5295  0.7295  2.0010
  612MOL0     H82615   4.798   5.361  11.395  0.1270 -1.1101 -0.7811
  612MOL0     H82616   4.580   5.083  11.165 -1.0300 -3.9161  1.8373
  612MOL0     H82617   4.890   5.008  11.231 -0.1564  1.3195 -0.4143
  612MOL0     H82618   4.802   4.859  10.972 -3.2805  0.4646  2.8852
  612MOL0     H82619   4.777   5.036  10.997  3.4706  2.5391  2.7001
  612MOL0     H82620   4.859   4.984  10.865 -0.3471 -0.9180 -0.4105
  613MOL0     O82621   8.271   8.073   0.169  0.3385 -0.4764  0.2522
  613MOL0     C82622   8.179   8.028   0.234  0.2414 -0.5925  0.8313
  613MOL0     O82623   8.103   8.104   0.324  0.3674  0.2316 -0.0597
  613MOL0     C82624   8.141   8.227   0.372 -0.5706  0.0371  0.4190
  613MOL0     C82625   8.082   8.340   0.313 -0.0554  0.1409 -0.5512
  613MOL0     C82626   8.124   8.467   0.365 -0.1720 -0.7519  0.3144
  613MOL0     C82627   8.211   8.474   0.471 -0.8876  0.1089 -0.4295
  613MOL0     O82628   8.263   8.589   0.537  0.2092  0.5776 -0.4052
  613MOL0     C82629   8.249   8.721   0.487  0.7017  0.4864  0.7828
  613MOL0     C82630   8.237   8.804   0.609 -0.3202  0.4046 -1.1757
  613MOL0     C82631   8.116   8.765   0.689  0.6443 -0.4498 -0.5130
  613MOL0     C82632   8.129   8.716   0.840  0.6018 -0.2357  0.2366
  613MOL0     C82633   8.179   8.829   0.924 -0.2604 -0.4734  0.0421
  613MOL0     C82634   8.151   8.803   1.068  0.5768  0.7661  0.3000
  613MOL0     C82635   8.205   8.923   1.152 -0.2403 -0.3009  0.3177
  613MOL0     C82636   8.172   8.909   1.295  0.1500 -0.3148  0.6394
  613MOL0     N82637   8.250   8.826   1.381  0.7300  0.9285 -0.0811
  613MOL0     C82638   8.253   8.835   1.520  0.3570 -0.8026  0.1241
  613MOL0     C82639   8.342   8.745   1.561  0.1521  0.5254  0.5039
  613MOL0     C82640   8.380   8.730   1.708  0.8127  0.0552  0.3348
  613MOL0     C82641   8.476   8.839   1.749  0.7964  0.4275 -0.2427
  613MOL0     C82642   8.488   8.836   1.906  0.5134 -0.0490  0.4067
  613MOL0     C82643   8.567   8.941   1.954 -0.7316  0.1672 -0.5536
  613MOL0     O82644   8.503   9.074   1.957  0.5413  0.8539 -0.2280
  613MOL0     C82645   8.459   9.124   2.079  0.1160  0.4115  0.9441
  613MOL0     C82646   8.441   9.263   2.081 -0.5074 -0.7035 -0.1858
  613MOL0     C82647   8.384   9.325   2.196  0.3163 -0.4354 -0.1478
  613MOL0     C82648   8.351   9.257   2.307 -0.4558 -0.4521  0.2067
  613MOL0     C82649   8.289   9.329   2.412  0.4583  0.3777 -0.4022
  613MOL0     O82650   8.225   9.253   2.509  0.0754 -0.5189 -0.8338
  613MOL0     C82651   8.133   9.282   2.607  0.0471 -0.8694 -0.5070
  613MOL0     C82652   8.103   9.194   2.711  0.6367  0.4151  0.1833
  613MOL0     C82653   8.009   9.211   2.813 -0.2699 -0.1636 -0.9874
  613MOL0     C82654   7.927   9.318   2.817 -0.0040 -0.5953  0.7451
  613MOL0     O82655   7.833   9.327   2.917 -0.5356  0.9861  0.5025
  613MOL0     C82656   7.709   9.381   2.880  0.6372 -0.7462 -0.0672
  613MOL0     C82657   7.618   9.374   3.001 -0.2881  0.1235  0.2086
  613MOL0     C82658   7.502   9.466   3.006  0.0049 -0.2775  0.3848
  613MOL0     C82659   7.406   9.406   3.112 -0.2963  0.3156 -0.3924
  613MOL0     C82660   7.304   9.502   3.156  0.1288 -0.6612 -0.3937
  613MOL0     C82661   7.223   9.448   3.279 -0.0384  0.1168 -0.6098
  613MOL0     C82662   7.109   9.550   3.310 -0.0303  0.1141 -0.7411
  613MOL0     C82663   7.095   9.595   3.460  0.5815 -0.0075  0.3305
  613MOL0    Cl82664   7.248   9.665   3.512  0.0395  0.5983 -0.0734
  613MOL0     C82665   7.938   9.410   2.703  0.1542 -0.5620 -0.2295
  613MOL0     C82666   8.050   9.392   2.614  0.1420 -0.1523  0.7759
  613MOL0     O82667   8.270   9.452   2.405  0.0631 -0.3470  0.1368
  613MOL0     C82668   8.373   9.119   2.303 -0.0815  0.5947  0.5611
  613MOL0     C82669   8.425   9.056   2.186  0.4802  0.4546 -1.7371
  613MOL0     N82670   8.374   8.670   1.452 -0.0554 -0.1395  0.4037
  613MOL0     N82671   8.328   8.726   1.348  0.1476 -0.2402  0.3362
  613MOL0     C82672   8.259   8.352   0.532  0.2033 -0.3894 -0.2240
  613MOL0     C82673   8.218   8.227   0.487 -0.0851  0.2587 -0.2302
  613MOL0     C82674   8.134   7.885   0.211  0.0495 -0.1520  0.6089
  613MOL0     C82675   8.037   7.830   0.306 -0.4955 -0.7933  0.7680
  613MOL0     C82676   7.999   7.695   0.287 -0.0249 -0.2744  0.1036
  613MOL0     C82677   8.053   7.615   0.182 -0.3211 -0.3671 -1.1214
  613MOL0     O82678   8.006   7.484   0.185 -0.2304 -0.2459 -0.6449
  613MOL0     C82679   8.060   7.396   0.089  0.6777  0.6445  0.0100
  613MOL0     C82680   8.001   7.257   0.115 -0.5573 -0.6241 -0.7173
  613MOL0     C82681   8.056   7.132   0.039 -0.0467  0.6320 -0.3868
  613MOL0     C82682   8.041   6.996   0.117  0.2433  0.4040  0.3013
  613MOL0     C82683   7.899   6.954   0.139  0.6719  0.0028  0.3553
  613MOL0     C82684   7.783   6.945   0.182 -0.5723  0.5008  0.2105
  613MOL0     C82685   8.138   7.669   0.091  0.0315  0.7455  0.0748
  613MOL0     C82686   8.178   7.802   0.100  0.4844  0.2931 -0.6175
  613MOL0     C82687   8.280   7.844  -0.014  0.2109  0.0567  0.6380
  613MOL0     H82688   8.013   8.339   0.229  1.9747  0.2120 -2.3101
  613MOL0     H82689   8.090   8.560   0.320 -1.2321 -0.8138  0.9634
  613MOL0     H82690   8.332   8.756   0.426  0.4976 -0.2660  0.0620
  613MOL0     H82691   8.162   8.738   0.423 -0.0893 -0.9831  1.4212
  613MOL0     H82692   8.232   8.911   0.584  1.4375  1.1943  1.3706
  613MOL0     H82693   8.331   8.785   0.663 -0.4417 -2.5833 -1.8735
  613MOL0     H82694   8.066   8.690   0.627 -2.0298  1.8348 -1.3442
  613MOL0     H82695   8.046   8.849   0.696  3.2726  1.9407 -1.0685
  613MOL0     H82696   8.033   8.681   0.879 -0.5247 -2.8516 -4.1253
  613MOL0     H82697   8.201   8.634   0.839  1.8924  0.8666 -0.1020
  613MOL0     H82698   8.287   8.842   0.912 -0.3786 -0.8828 -1.8674
  613MOL0     H82699   8.127   8.922   0.897  1.1679  0.9347  1.8242
  613MOL0     H82700   8.043   8.796   1.080  0.3356  0.7237 -1.5660
  613MOL0     H82701   8.193   8.706   1.095 -3.1137 -1.4822 -1.3446
  613MOL0     H82702   8.159   9.016   1.116 -0.1216 -0.2253  0.3619
  613MOL0     H82703   8.313   8.935   1.136 -0.5727  0.6903 -1.5680
  613MOL0     H82704   8.182   9.011   1.333  2.3826  0.2327 -1.2104
  613MOL0     H82705   8.068   8.874   1.289  0.6692 -1.7963 -4.1295
  613MOL0     H82706   8.194   8.900   1.584 -2.3368 -3.2574  0.3178
  613MOL0     H82707   8.289   8.736   1.768  1.0935 -1.0185  0.8917
  613MOL0     H82708   8.425   8.631   1.724 -0.7268 -0.3269  2.9636
  613MOL0     H82709   8.576   8.826   1.707 -0.1139 -0.7652 -2.1992
  613MOL0     H82710   8.442   8.940   1.723  0.1053  0.0585 -0.8045
  613MOL0     H82711   8.526   8.739   1.942  2.8958  0.9738  0.8228
  613MOL0     H82712   8.387   8.846   1.947  0.7953 -2.7805  2.0402
  613MOL0     H82713   8.661   8.950   1.898 -1.1014 -0.4614 -1.2862
  613MOL0     H82714   8.609   8.919   2.053 -0.9493 -0.6728 -0.6446
  613MOL0     H82715   8.466   9.324   1.994  0.2868 -1.2029 -0.3224
  613MOL0     H82716   8.364   9.432   2.191  1.9594 -0.0602  0.5790
  613MOL0     H82717   8.147   9.095   2.706  0.3900  0.1816  1.9605
  613MOL0     H82718   8.001   9.140   2.895 -2.7477  2.2166  1.0100
  613MOL0     H82719   7.721   9.487   2.859  4.7895 -0.3771  2.9959
  613MOL0     H82720   7.668   9.324   2.795  0.2880 -1.4011  0.5209
  613MOL0     H82721   7.580   9.271   3.002  0.3640 -0.1725 -1.6304
  613MOL0     H82722   7.679   9.384   3.091  1.1307 -0.3247 -0.6723
  613MOL0     H82723   7.540   9.567   3.020 -0.8862 -0.0789  1.6054
  613MOL0     H82724   7.461   9.460   2.905 -0.5387 -1.9839  0.6644
  613MOL0     H82725   7.465   9.372   3.198 -0.5126 -1.1786 -0.8000
  613MOL0     H82726   7.364   9.319   3.060  0.0975 -0.0367 -0.1316
  613MOL0     H82727   7.240   9.536   3.075 -1.8556 -2.0731  0.4893
  613MOL0     H82728   7.354   9.596   3.182 -2.9158  1.2365 -0.8596
  613MOL0     H82729   7.179   9.350   3.258  0.6688 -1.1496  3.0096
  613MOL0     H82730   7.300   9.440   3.356  2.3874  0.5217 -2.8532
  613MOL0     H82731   7.021   9.503   3.265  0.2910  1.3453 -2.7835
  613MOL0     H82732   7.126   9.642   3.252 -1.4440 -0.0805 -1.4883
  613MOL0     H82733   7.017   9.672   3.467 -2.3393 -2.6186 -0.9536
  613MOL0     H82734   7.060   9.510   3.518 -2.1541  0.3104 -0.6738
  613MOL0     H82735   7.868   9.493   2.697 -1.6769 -1.7225  2.8565
  613MOL0     H82736   8.048   9.468   2.536 -1.4102 -0.8705  0.0744
  613MOL0     H82737   8.336   9.046   2.375  1.7091 -1.6183 -0.6302
  613MOL0     H82738   8.426   8.948   2.176 -1.1054  0.2062  0.1490
  613MOL0     H82739   8.329   8.351   0.616 -0.9655 -1.2316  0.7833
  613MOL0     H82740   8.245   8.131   0.530 -1.3017  0.1289  0.2620
  613MOL0     H82741   8.005   7.893   0.388 -1.5221  0.0823 -0.2864
  613MOL0     H82742   7.937   7.639   0.355  0.9176 -4.7625 -2.3705
  613MOL0     H82743   8.169   7.399   0.086  0.7090  4.3653  0.4627
  613MOL0     H82744   8.019   7.428  -0.007 -0.0892  1.9360  0.7503
  613MOL0     H82745   7.892   7.264   0.101 -0.4604  0.3583 -1.1106
  613MOL0     H82746   8.011   7.241   0.223 -0.0079  0.9695 -0.5042
  613MOL0     H82747   8.164   7.142   0.020  0.1124  3.1246  1.3154
  613MOL0     H82748   8.002   7.131  -0.056 -1.3829 -0.5594  0.3428
  613MOL0     H82749   8.098   6.924   0.058  0.8642  0.9389  0.2310
  613MOL0     H82750   8.101   6.998   0.208  2.0853 -2.2741 -0.7183
  613MOL0     H82751   7.683   6.937   0.220 -1.4227  2.6402 -1.3799
  613MOL0     H82752   8.174   7.605   0.011  2.7717 -0.7871  2.3483
  613MOL0     H82753   8.253   7.937  -0.065 -1.6074 -0.4610  0.6025
  613MOL0     H82754   8.380   7.862   0.026 -0.0821  1.4351  0.8072
  613MOL0     H82755   8.271   7.765  -0.089 -0.7327  0.8777 -0.1286
  614MOL0     O82756   2.599   3.029   1.013 -0.3446 -0.7073  0.1638
  614MOL0     C82757   2.532   3.073   0.915 -0.8468  1.1209 -0.0069
  614MOL0     O82758   2.456   3.179   0.909  0.0058  0.3942  0.0518
  614MOL0     C82759   2.456   3.282   1.001 -0.1533 -0.9885  0.0048
  614MOL0     C82760   2.532   3.295   1.126  0.4254 -0.2824  0.0180
  614MOL0     C82761   2.515   3.409   1.207 -0.2551 -0.6277 -0.1005
  614MOL0     C82762   2.432   3.514   1.172  1.1963 -0.1204 -0.3109
  614MOL0     O82763   2.434   3.632   1.245  0.6417  0.3061 -0.4707
  614MOL0     C82764   2.473   3.635   1.377 -0.6653  0.7077  0.3073
  614MOL0     C82765   2.445   3.774   1.434 -0.4498 -0.0714  0.1760
  614MOL0     C82766   2.461   3.793   1.583 -0.5315 -0.1262 -0.3519
  614MOL0     C82767   2.486   3.926   1.644 -1.0053 -1.0497  0.1802
  614MOL0     C82768   2.502   3.935   1.794 -0.2954 -0.0492 -0.8156
  614MOL0     C82769   2.480   4.075   1.846 -0.8135 -0.8595  0.7489
  614MOL0     C82770   2.563   4.187   1.810 -0.5358 -0.7528  0.1201
  614MOL0     C82771   2.549   4.315   1.894 -0.2895  0.1424  0.2979
  614MOL0     N82772   2.440   4.402   1.855  0.3961 -0.2353 -0.1542
  614MOL0     C82773   2.310   4.348   1.849 -0.1510  0.3393  0.6598
  614MOL0     C82774   2.236   4.441   1.776 -0.0550 -0.2242 -0.2309
  614MOL0     C82775   2.089   4.431   1.724 -0.5993  0.5673  0.0712
  614MOL0     C82776   2.085   4.369   1.576  0.5914  1.6560 -1.0477
  614MOL0     C82777   2.088   4.214   1.581 -0.4898 -0.1355  0.3255
  614MOL0     C82778   2.053   4.135   1.456 -0.3413 -0.5128  0.2975
  614MOL0     O82779   1.904   4.132   1.443 -0.4517  0.7598  0.0478
  614MOL0     C82780   1.860   4.073   1.324  0.7347  0.2467 -0.2214
  614MOL0     C82781   1.930   4.045   1.208  0.4895  0.2082  0.2420
  614MOL0     C82782   1.870   3.980   1.089  0.1583  0.4223 -0.5206
  614MOL0     C82783   1.733   3.942   1.095  0.0074 -0.4837 -0.0860
  614MOL0     C82784   1.672   3.894   0.968 -1.1228 -0.3013 -0.0346
  614MOL0     O82785   1.545   3.844   0.977 -0.8832 -0.2845  0.1739
  614MOL0     C82786   1.499   3.781   0.865 -0.0382  0.7432  0.7787
  614MOL0     C82787   1.410   3.831   0.767  0.6059  0.4685 -0.8591
  614MOL0     C82788   1.359   3.753   0.667  0.0149  1.0627 -0.3096
  614MOL0     C82789   1.408   3.627   0.634  0.5019 -0.1518 -0.3815
  614MOL0     O82790   1.373   3.566   0.520 -0.4703  1.0642 -0.1820
  614MOL0     C82791   1.455   3.452   0.481  0.5495  0.6091  0.7571
  614MOL0     C82792   1.390   3.414   0.344 -0.0557  0.7774  0.4697
  614MOL0     C82793   1.392   3.510   0.223  0.7649  0.1152 -0.9229
  614MOL0     C82794   1.536   3.535   0.192  0.1069 -0.6579 -0.0101
  614MOL0     C82795   1.560   3.607   0.062  0.3886 -1.1906  1.7979
  614MOL0     C82796   1.701   3.627   0.027  0.1152  0.1422  0.7692
  614MOL0     C82797   1.781   3.697   0.131  0.4448 -0.5565 -0.4869
  614MOL0     C82798   1.880   3.810   0.063  0.0667  1.2403 -0.8741
  614MOL0    Cl82799   1.963   3.890   0.194  0.1058 -0.0964 -0.2187
  614MOL0     C82800   1.490   3.569   0.736 -0.6528  0.0038  0.4523
  614MOL0     C82801   1.533   3.642   0.842 -0.3648 -1.1890  0.0924
  614MOL0     O82802   1.735   3.914   0.870 -0.4109 -0.3503  0.2839
  614MOL0     C82803   1.670   3.953   1.227  0.1269  1.4593  0.4326
  614MOL0     C82804   1.727   4.018   1.329 -0.4685  0.1035 -0.6203
  614MOL0     N82805   2.318   4.547   1.739  0.2446 -0.3812  0.0630
  614MOL0     N82806   2.442   4.516   1.778  0.1626 -0.4489 -0.3526
  614MOL0     C82807   2.362   3.506   1.047 -0.3159  0.2010 -0.2659
  614MOL0     C82808   2.375   3.393   0.965  0.3628 -0.2035  0.3441
  614MOL0     C82809   2.539   3.003   0.791 -0.1191  0.8855 -1.2559
  614MOL0     C82810   2.666   2.957   0.741 -0.2523  0.1296  0.0471
  614MOL0     C82811   2.677   2.898   0.617 -0.8197 -0.1018  0.2565
  614MOL0     C82812   2.564   2.874   0.546 -0.4013 -0.5663 -0.2135
  614MOL0     O82813   2.562   2.786   0.444  0.5299 -0.4092  0.0404
  614MOL0     C82814   2.675   2.782   0.350  0.3047  0.3606  0.0680
  614MOL0     C82815   2.639   2.686   0.240 -0.1069 -0.7994 -0.3389
  614MOL0     C82816   2.526   2.739   0.151  0.6605  0.2054 -0.1145
  614MOL0     C82817   2.555   2.856   0.073  0.0228  0.6962  0.1790
  614MOL0     C82818   2.682   2.842  -0.017 -0.0758  0.2671  0.1210
  614MOL0     C82819   2.786   2.837  -0.082  0.0760 -0.4705  1.0799
  614MOL0     C82820   2.443   2.905   0.597  0.4381  1.0311 -0.5772
  614MOL0     C82821   2.423   2.977   0.714 -0.2690  0.5349 -0.7281
  614MOL0     C82822   2.280   3.020   0.759  0.4388  0.3124  0.8950
  614MOL0     H82823   2.600   3.222   1.169  1.6056  0.9593  0.2946
  614MOL0     H82824   2.573   3.406   1.299  2.1659 -3.7081 -1.5380
  614MOL0     H82825   2.418   3.568   1.444 -2.4521  2.1081  0.3279
  614MOL0     H82826   2.580   3.617   1.372 -0.9711 -0.9372 -2.6578
  614MOL0     H82827   2.356   3.820   1.390  0.3172  2.7784  1.4089
  614MOL0     H82828   2.525   3.840   1.398 -0.6603  0.0974  0.0154
  614MOL0     H82829   2.540   3.731   1.626 -0.9842 -0.1352  0.4869
  614MOL0     H82830   2.369   3.761   1.633  0.0910  0.8700  1.5400
  614MOL0     H82831   2.576   3.963   1.595 -0.2848 -0.3367  1.9389
  614MOL0     H82832   2.399   3.988   1.619 -1.8954 -1.8177  1.2565
  614MOL0     H82833   2.412   3.885   1.833  0.5856 -0.6455  0.5375
  614MOL0     H82834   2.596   3.889   1.826  1.4744  4.1268  0.6753
  614MOL0     H82835   2.375   4.094   1.826 -1.0901 -2.0316  0.9965
  614MOL0     H82836   2.494   4.064   1.954  0.9965  1.1009  0.7765
  614MOL0     H82837   2.543   4.221   1.708  2.2951  1.9591  0.3030
  614MOL0     H82838   2.666   4.151   1.822  0.6745  2.7841  1.7789
  614MOL0     H82839   2.551   4.290   2.001  2.1110 -2.9061 -0.3278
  614MOL0     H82840   2.646   4.363   1.881  0.3073 -0.5248  1.9339
  614MOL0     H82841   2.275   4.253   1.887  0.3996 -0.6832 -1.2950
  614MOL0     H82842   2.033   4.370   1.796  1.7876  1.1278  2.5859
  614MOL0     H82843   2.037   4.527   1.734  1.7881  1.9109  0.2360
  614MOL0     H82844   1.989   4.403   1.534 -1.4482  1.2823  2.8698
  614MOL0     H82845   2.167   4.409   1.515  2.3454  0.2780  0.3109
  614MOL0     H82846   2.024   4.184   1.665 -0.3357  1.0657  0.8854
  614MOL0     H82847   2.189   4.179   1.605 -0.1740  1.4398  1.4577
  614MOL0     H82848   2.086   4.031   1.460  0.0222 -0.4020  0.1510
  614MOL0     H82849   2.107   4.176   1.371 -0.8033 -4.8154 -2.3678
  614MOL0     H82850   2.031   4.083   1.200 -0.1427  1.5521 -2.3115
  614MOL0     H82851   1.934   3.961   1.004 -1.0723 -3.8314 -0.7123
  614MOL0     H82852   1.367   3.928   0.791  0.6170  0.2685  0.0197
  614MOL0     H82853   1.274   3.786   0.609 -0.2525 -0.9071 -1.1121
  614MOL0     H82854   1.561   3.471   0.460  0.3803  0.3612 -0.3811
  614MOL0     H82855   1.448   3.373   0.556 -1.3845  0.5801  0.6004
  614MOL0     H82856   1.430   3.316   0.316 -1.4511  0.2829  0.1372
  614MOL0     H82857   1.284   3.404   0.369  0.0736  0.1741  0.7934
  614MOL0     H82858   1.339   3.458   0.142 -0.6467 -3.2549  1.9063
  614MOL0     H82859   1.339   3.604   0.237  0.6749 -0.2411  1.5398
  614MOL0     H82860   1.591   3.441   0.204 -0.2524 -0.7575  0.9472
  614MOL0     H82861   1.571   3.599   0.273 -0.8493 -1.4111  1.0391
  614MOL0     H82862   1.507   3.703   0.062 -0.8879 -1.8019 -0.7140
  614MOL0     H82863   1.515   3.541  -0.013  0.5054  1.3140 -0.6503
  614MOL0     H82864   1.740   3.525   0.023  3.7636  1.4220 -1.4540
  614MOL0     H82865   1.712   3.680  -0.068 -0.0885  0.7773  1.0939
  614MOL0     H82866   1.845   3.623   0.180  0.9522  1.1239  1.5270
  614MOL0     H82867   1.733   3.742   0.218  1.1546 -2.4281  0.9690
  614MOL0     H82868   1.952   3.765  -0.006  1.6240  2.1836  0.0943
  614MOL0     H82869   1.827   3.869  -0.013 -3.0871 -1.1449 -0.7539
  614MOL0     H82870   1.532   3.469   0.732 -0.6571 -0.0959  2.2929
  614MOL0     H82871   1.588   3.584   0.916 -2.1902 -1.8504  1.0083
  614MOL0     H82872   1.570   3.912   1.234  1.0534 -0.7405  1.7013
  614MOL0     H82873   1.683   4.004   1.427 -0.0117 -4.3391 -0.8649
  614MOL0     H82874   2.301   3.593   1.023 -0.6701  0.2570  0.8020
  614MOL0     H82875   2.332   3.384   0.865  1.4337 -1.9664 -0.0067
  614MOL0     H82876   2.754   2.974   0.802 -0.1828 -0.8962  0.2499
  614MOL0     H82877   2.776   2.862   0.589  1.3418  3.6968  2.2550
  614MOL0     H82878   2.760   2.735   0.399 -1.4327 -1.8125  1.1426
  614MOL0     H82879   2.703   2.880   0.310  4.0870  0.2769  2.1330
  614MOL0     H82880   2.594   2.598   0.288 -0.9936  0.7667  1.8109
  614MOL0     H82881   2.711   2.634   0.176 -1.4730 -4.0105  0.5178
  614MOL0     H82882   2.442   2.749   0.221 -0.7202 -0.7295 -1.5672
  614MOL0     H82883   2.496   2.660   0.082 -2.6148  1.4888 -0.3708
  614MOL0     H82884   2.467   2.872   0.009 -0.0995  0.2684  0.2397
  614MOL0     H82885   2.558   2.943   0.139 -6.4958 -0.7232  3.1725
  614MOL0     H82886   2.870   2.831  -0.149 -0.4673 -1.2859  0.4484
  614MOL0     H82887   2.353   2.869   0.549 -1.1456  0.7652  2.3779
  614MOL0     H82888   2.196   2.965   0.716  0.7460  1.2713 -1.0140
  614MOL0     H82889   2.274   3.015   0.869  2.7616 -2.2065  1.0241
  614MOL0     H82890   2.270   3.125   0.729 -0.4436  0.0185  0.1393
  615MOL0     O82891   4.500   0.806  10.313 -0.2578 -1.0753  0.2094
  615MOL0     C82892   4.488   0.913  10.358  0.3448 -1.8298  0.4581
  615MOL0     O82893   4.379   0.998  10.339 -0.2521  0.0608 -0.0575
  615MOL0     C82894   4.270   0.977  10.250 -0.6677  0.2560 -0.1402
  615MOL0     C82895   4.162   1.069  10.250 -0.2907 -0.7238 -0.6925
  615MOL0     C82896   4.063   1.056  10.156 -1.1279  0.3241  0.3086
  615MOL0     C82897   4.060   0.951  10.056  0.1028 -1.1734  0.3986
  615MOL0     O82898   3.970   0.926   9.952 -0.5922  0.8741  0.0464
  615MOL0     C82899   3.842   0.995   9.965  0.7451  0.2642  0.0881
  615MOL0     C82900   3.727   0.955   9.857 -0.1030 -0.1709 -0.3547
  615MOL0     C82901   3.773   0.980   9.718  0.3435 -0.2767  0.6274
  615MOL0     C82902   3.772   1.129   9.681  0.7092  0.9196  0.4015
  615MOL0     C82903   3.827   1.154   9.537 -0.2286 -0.0506  0.0558
  615MOL0     C82904   3.823   1.303   9.492  0.4983  0.1622  0.2340
  615MOL0     C82905   3.938   1.379   9.547 -0.7371 -0.8829 -0.1990
  615MOL0     C82906   3.939   1.532   9.519  0.3322 -0.1462  0.8402
  615MOL0     N82907   3.843   1.604   9.604 -0.3007  0.1669  0.4081
  615MOL0     C82908   3.858   1.621   9.740 -0.3753 -0.5445  0.1517
  615MOL0     C82909   3.759   1.712   9.773 -0.5310  0.2398 -0.4311
  615MOL0     C82910   3.722   1.750   9.914  0.8790 -0.5101 -0.5394
  615MOL0     C82911   3.812   1.866   9.970 -0.6042 -0.4929 -0.5965
  615MOL0     C82912   3.722   1.990   9.976 -0.0093 -0.5050 -0.0750
  615MOL0     C82913   3.789   2.114  10.027 -0.9964 -0.1273  0.1147
  615MOL0     O82914   3.700   2.222  10.021  0.3958  0.0212 -0.0659
  615MOL0     C82915   3.714   2.337  10.094 -0.3011 -0.5144  0.8315
  615MOL0     C82916   3.828   2.377  10.168  0.4981 -0.0718  0.5778
  615MOL0     C82917   3.825   2.502  10.229 -0.0723  0.5457 -0.3098
  615MOL0     C82918   3.713   2.581  10.228 -0.5820 -0.1185 -0.3084
  615MOL0     C82919   3.707   2.708  10.314 -0.2656  0.5517  0.7697
  615MOL0     O82920   3.814   2.739  10.398  0.5884 -0.1032 -1.0890
  615MOL0     C82921   3.823   2.853  10.469 -0.1848 -1.0523 -0.1183
  615MOL0     C82922   3.878   2.848  10.597 -0.9717 -0.1146 -0.9191
  615MOL0     C82923   3.879   2.964  10.678 -0.2914 -0.0289 -0.9998
  615MOL0     C82924   3.828   3.089  10.642  0.2027  0.0344  0.1254
  615MOL0     O82925   3.842   3.196  10.722 -0.2190 -0.5160 -0.2191
  615MOL0     C82926   3.744   3.300  10.716  0.7224  0.0804 -0.4139
  615MOL0     C82927   3.691   3.340  10.850  0.9262  0.0413 -0.1580
  615MOL0     C82928   3.616   3.221  10.921 -0.6503 -0.4653  0.5011
  615MOL0     C82929   3.467   3.217  10.894  0.5067 -0.4764 -0.4906
  615MOL0     C82930   3.410   3.106  10.982 -0.2364  0.9745  0.2615
  615MOL0     C82931   3.252   3.108  10.962 -0.0648 -0.6247  0.6497
  615MOL0     C82932   3.177   2.992  11.032 -0.5419  0.3313  0.3336
  615MOL0     C82933   3.039   2.982  10.986  0.0225  0.3708 -0.5567
  615MOL0    Cl82934   2.944   3.118  11.027 -0.3645  0.0098  0.5193
  615MOL0     C82935   3.771   3.091  10.514 -0.0974  0.4416 -0.3453
  615MOL0     C82936   3.767   2.975  10.432 -0.0920  0.5284 -0.3982
  615MOL0     O82937   3.601   2.765  10.314  0.1093 -0.1615  1.1226
  615MOL0     C82938   3.601   2.533  10.172  0.1447 -0.6362 -0.5666
  615MOL0     C82939   3.600   2.419  10.096 -0.3366 -1.9620  0.2530
  615MOL0     N82940   3.684   1.744   9.656  0.4848  0.2841  0.3672
  615MOL0     N82941   3.731   1.672   9.559  0.1047 -0.5556  0.8038
  615MOL0     C82942   4.167   0.866  10.062  0.1609 -1.1411  0.0906
  615MOL0     C82943   4.272   0.877  10.149 -0.4219 -0.0946 -0.0069
  615MOL0     C82944   4.594   0.962  10.450  0.4954 -0.6217  0.3578
  615MOL0     C82945   4.547   1.038  10.565 -0.0717  0.7968 -0.8099
  615MOL0     C82946   4.637   1.081  10.659 -0.1072 -0.0262  0.1813
  615MOL0     C82947   4.764   1.033  10.667 -1.4115 -0.0149  0.0034
  615MOL0     O82948   4.837   1.044  10.786 -0.1910 -0.3297  0.4504
  615MOL0     C82949   4.976   0.999  10.790  0.7873  0.1042  0.0739
  615MOL0     C82950   5.027   0.977  10.936  0.5894  0.8104 -0.2468
  615MOL0     C82951   5.176   0.954  10.914  0.1086 -1.1491 -0.8018
  615MOL0     C82952   5.233   0.937  11.054 -0.5731  0.3344  0.8033
  615MOL0     C82953   5.373   0.904  11.048 -0.1387  0.2222  0.0637
  615MOL0     C82954   5.493   0.883  11.055 -0.1141  1.1344  0.0098
  615MOL0     C82955   4.809   0.966  10.550  1.3600  0.4210 -0.2207
  615MOL0     C82956   4.728   0.922  10.448  0.0888  0.4278 -0.0785
  615MOL0     C82957   4.789   0.845  10.335 -0.0701 -0.3302 -0.6477
  615MOL0     H82958   4.133   1.151  10.315 -1.4840  0.7565 -2.9500
  615MOL0     H82959   3.988   1.134  10.158 -1.1177  0.3868 -0.8247
  615MOL0     H82960   3.809   0.963  10.064 -0.3060 -0.5430 -0.4925
  615MOL0     H82961   3.844   1.104   9.966 -0.7641  0.4904 -3.6515
  615MOL0     H82962   3.630   1.002   9.875 -1.6787 -1.4661 -4.3618
  615MOL0     H82963   3.701   0.850   9.873 -2.3986  0.8113  3.9110
  615MOL0     H82964   3.716   0.936   9.636  1.5530  2.3486 -1.7751
  615MOL0     H82965   3.873   0.939   9.704 -0.3583 -1.8440 -0.0946
  615MOL0     H82966   3.669   1.165   9.675 -0.2995 -1.7409  0.1069
  615MOL0     H82967   3.832   1.181   9.755  1.7702 -0.3448  0.4649
  615MOL0     H82968   3.927   1.109   9.536 -1.3461 -3.0286 -4.0193
  615MOL0     H82969   3.774   1.094   9.463  2.1434  2.5510 -4.1665
  615MOL0     H82970   3.837   1.300   9.384  0.9512  1.3506  0.2397
  615MOL0     H82971   3.733   1.355   9.526 -0.2075  0.4240 -1.9065
  615MOL0     H82972   4.032   1.342   9.506 -0.4682  0.1756 -0.5756
  615MOL0     H82973   3.943   1.364   9.655 -2.1719  0.8870  0.1657
  615MOL0     H82974   4.040   1.572   9.533  0.5204 -0.2727 -0.0388
  615MOL0     H82975   3.913   1.560   9.416  0.1021  1.0107  1.2010
  615MOL0     H82976   3.941   1.579   9.796 -0.0867  1.9621  1.7873
  615MOL0     H82977   3.623   1.796   9.909 -0.3929 -3.0994 -1.1393
  615MOL0     H82978   3.716   1.661   9.977  1.1698 -1.6370 -2.0449
  615MOL0     H82979   3.852   1.847  10.070  0.7710 -0.3748 -1.1070
  615MOL0     H82980   3.897   1.885   9.904  0.4028  0.1910  0.8446
  615MOL0     H82981   3.636   1.976  10.042 -1.9823  2.1460 -1.8448
  615MOL0     H82982   3.686   2.016   9.876 -0.5272  0.8699  0.4468
  615MOL0     H82983   3.882   2.144   9.977 -0.1931 -0.5154  1.3266
  615MOL0     H82984   3.832   2.097  10.126  1.1726  1.9712 -0.3485
  615MOL0     H82985   3.906   2.305  10.192  0.2054 -0.6973 -0.2853
  615MOL0     H82986   3.902   2.527  10.302 -0.3015  0.4750 -0.0410
  615MOL0     H82987   3.916   2.751  10.628 -1.6815  0.3443  1.5926
  615MOL0     H82988   3.910   2.948  10.781  1.7591 -5.0825 -2.0929
  615MOL0     H82989   3.787   3.385  10.663 -0.3530  1.9791  1.6366
  615MOL0     H82990   3.653   3.277  10.660 -1.0325 -0.1367  2.3747
  615MOL0     H82991   3.779   3.372  10.907  0.4426  1.2691 -0.0757
  615MOL0     H82992   3.620   3.420  10.827  0.9159 -0.3869 -1.7018
  615MOL0     H82993   3.655   3.120  10.909 -0.0517  0.0100 -2.2052
  615MOL0     H82994   3.623   3.243  11.028 -0.2959 -1.5138  0.7050
  615MOL0     H82995   3.449   3.187  10.791  1.6450 -2.6422 -0.1063
  615MOL0     H82996   3.427   3.316  10.922 -0.9476 -1.3527  0.6970
  615MOL0     H82997   3.438   3.126  11.085  2.6324 -0.6997 -0.0972
  615MOL0     H82998   3.450   3.013  10.942 -1.1232  1.2386 -1.3497
  615MOL0     H82999   3.212   3.207  10.987  1.1437  0.2510 -0.6982
  615MOL0     H83000   3.230   3.106  10.855  2.2043  0.4709  0.0948
  615MOL0     H83001   3.177   3.003  11.140 -1.5582 -0.2327  0.4080
  615MOL0     H83002   3.231   2.901  11.001 -0.0799  1.2197 -1.6421
  615MOL0     H83003   3.034   2.976  10.877  1.5947 -0.4906 -0.6023
  615MOL0     H83004   2.997   2.891  11.030  0.9495  0.3597  0.3397
  615MOL0     H83005   3.722   3.180  10.475 -0.1596  1.3200  1.6016
  615MOL0     H83006   3.745   2.997  10.328  0.4118  2.5389 -0.1102
  615MOL0     H83007   3.510   2.592  10.166  0.9949  0.9195  0.9823
  615MOL0     H83008   3.514   2.396  10.034  0.8137 -0.3389 -2.0768
  615MOL0     H83009   4.173   0.777  10.000 -0.7827  0.0470 -1.8082
  615MOL0     H83010   4.348   0.801  10.135 -0.7519 -0.5412  0.6152
  615MOL0     H83011   4.442   1.060  10.582  0.2716  1.0546  1.1745
  615MOL0     H83012   4.587   1.129  10.742 -2.5133 -1.2365 -0.4735
  615MOL0     H83013   5.038   1.064  10.728  2.1700 -2.2604 -1.1871
  615MOL0     H83014   4.994   0.906  10.735 -1.8990  0.1013 -0.9838
  615MOL0     H83015   4.973   0.900  10.992  0.3358  1.2907  0.1736
  615MOL0     H83016   5.006   1.066  10.995 -0.7972 -0.2140  0.8616
  615MOL0     H83017   5.215   1.049  10.875  0.1384 -0.2422  1.3036
  615MOL0     H83018   5.198   0.870  10.849  2.3309 -0.5494 -0.8936
  615MOL0     H83019   5.217   1.024  11.118  0.6026  2.4140 -1.5616
  615MOL0     H83020   5.191   0.853  11.111  1.7985  0.0316  2.2530
  615MOL0     H83021   5.594   0.847  11.059 -0.7350 -0.5661  2.2356
  615MOL0     H83022   4.913   0.934  10.555  1.6409  1.2502 -0.5937
  615MOL0     H83023   4.767   0.897  10.242  1.1100  0.2513 -0.6130
  615MOL0     H83024   4.896   0.825  10.346 -0.1966 -2.0158 -2.0238
  615MOL0     H83025   4.742   0.746  10.331  0.2203 -0.5322  0.5465
  616MOL0     O83026   3.028   2.536   6.085  0.7870 -0.1788  0.1098
  616MOL0     C83027   3.089   2.486   5.988  0.6451 -0.1845 -1.4081
  616MOL0     O83028   3.030   2.462   5.866  0.0857 -0.2950 -0.7511
  616MOL0     C83029   2.905   2.406   5.849  0.0693 -0.6759 -1.3655
  616MOL0     C83030   2.817   2.356   5.949  0.3310 -0.8267 -0.3208
  616MOL0     C83031   2.689   2.310   5.914 -0.0953  1.1452  0.6029
  616MOL0     C83032   2.641   2.308   5.788  0.5962 -0.2637 -0.3637
  616MOL0     O83033   2.510   2.261   5.758  0.3085  0.1197  0.5592
  616MOL0     C83034   2.455   2.302   5.636 -0.1644  0.8907  1.7384
  616MOL0     C83035   2.311   2.255   5.657 -0.1274 -0.0525 -0.4955
  616MOL0     C83036   2.308   2.103   5.650  0.7061 -0.3433 -0.1476
  616MOL0     C83037   2.180   2.056   5.718 -0.0844  1.0831 -0.0904
  616MOL0     C83038   2.137   1.931   5.659  0.7360 -0.0219 -0.3877
  616MOL0     C83039   2.020   1.871   5.736 -0.3091 -0.5730  0.4715
  616MOL0     C83040   2.036   1.719   5.725 -0.3999  0.6862 -0.9753
  616MOL0     C83041   1.899   1.651   5.723  1.0546 -0.2264  0.7543
  616MOL0     N83042   1.784   1.701   5.634 -0.5891  0.6575  0.4037
  616MOL0     C83043   1.798   1.755   5.509  0.4734 -0.3250  0.6171
  616MOL0     C83044   1.673   1.764   5.452  0.5016 -0.2944 -0.9311
  616MOL0     C83045   1.651   1.817   5.310 -0.4466 -0.0788 -0.2865
  616MOL0     C83046   1.551   1.932   5.314 -0.3118 -0.2540  0.4564
  616MOL0     C83047   1.548   2.033   5.201 -0.1597 -0.3898  0.2241
  616MOL0     C83048   1.442   2.150   5.220  0.0092  0.6947 -0.2847
  616MOL0     O83049   1.306   2.116   5.203  0.0770 -0.0563 -0.0031
  616MOL0     C83050   1.258   2.161   5.085 -0.3229 -0.4647 -0.1295
  616MOL0     C83051   1.170   2.268   5.080 -0.0711  0.7444 -0.1932
  616MOL0     C83052   1.121   2.322   4.968  0.2380  0.0164 -0.1059
  616MOL0     C83053   1.149   2.249   4.840 -0.0340 -0.3390  0.4570
  616MOL0     C83054   1.089   2.281   4.716 -0.3006  0.0108 -0.2087
  616MOL0     O83055   1.133   2.229   4.602 -0.5984  0.7564 -0.8508
  616MOL0     C83056   1.244   2.290   4.550 -0.6465 -0.1966 -0.5470
  616MOL0     C83057   1.323   2.224   4.458  0.9039 -0.7908 -0.0181
  616MOL0     C83058   1.421   2.292   4.388 -0.4831 -0.9373  0.5168
  616MOL0     C83059   1.451   2.430   4.406  0.3379  0.1546 -1.8165
  616MOL0     O83060   1.546   2.511   4.352 -0.5257 -0.1636  0.7422
  616MOL0     C83061   1.537   2.531   4.204 -0.4134 -0.0862  0.2254
  616MOL0     C83062   1.617   2.644   4.161 -0.4807  0.0070  0.6084
  616MOL0     C83063   1.713   2.704   4.269 -0.4437 -0.1975  0.1572
  616MOL0     C83064   1.796   2.813   4.211  0.3331 -0.8538  0.8093
  616MOL0     C83065   1.893   2.880   4.304 -0.3805  0.2043 -0.3579
  616MOL0     C83066   1.810   2.956   4.407 -0.2954  0.1905  0.5465
  616MOL0     C83067   1.866   2.910   4.545  0.2663  0.4266 -0.5004
  616MOL0     C83068   1.816   2.992   4.660  0.0058  0.0173 -0.4348
  616MOL0    Cl83069   1.924   3.129   4.698  0.5396 -0.2366 -0.1470
  616MOL0     C83070   1.381   2.494   4.505 -0.1436  0.2804  0.7272
  616MOL0     C83071   1.273   2.431   4.568 -0.4007 -0.3708 -0.1946
  616MOL0     O83072   0.978   2.341   4.723 -0.7595  0.2768  0.2254
  616MOL0     C83073   1.238   2.139   4.850 -0.1163 -1.1662  0.0806
  616MOL0     C83074   1.295   2.095   4.973  0.4945  0.3648 -0.9672
  616MOL0     N83075   1.586   1.701   5.539 -0.2826  0.6547  0.2295
  616MOL0     N83076   1.657   1.664   5.644  0.2967  0.1581 -0.5558
  616MOL0     C83077   2.729   2.359   5.689 -0.0699  0.4351  0.3078
  616MOL0     C83078   2.861   2.390   5.718 -0.1633  1.4194 -0.7623
  616MOL0     C83079   3.236   2.500   5.997  0.4847 -0.5155  0.8312
  616MOL0     C83080   3.303   2.566   5.894  1.3437 -0.1454  0.7016
  616MOL0     C83081   3.438   2.587   5.897  0.5763  0.0145 -1.1618
  616MOL0     C83082   3.505   2.547   6.017 -0.5149  0.9063 -0.2314
  616MOL0     O83083   3.642   2.560   6.022  0.0196  0.1706 -0.4502
  616MOL0     C83084   3.694   2.690   6.047  0.1277 -0.3320  0.2499
  616MOL0     C83085   3.725   2.713   6.196  0.0768 -0.2121  1.4284
  616MOL0     C83086   3.778   2.857   6.220 -0.6811 -0.5341  0.4270
  616MOL0     C83087   3.806   2.873   6.367 -0.0448 -0.2785  0.8387
  616MOL0     C83088   3.851   3.009   6.400 -0.6625 -0.0711 -0.8529
  616MOL0     C83089   3.879   3.125   6.435  0.4489  0.1579  0.2508
  616MOL0     C83090   3.443   2.487   6.132  0.6054 -0.7880  0.7177
  616MOL0     C83091   3.309   2.454   6.117  0.8169  0.2053  0.5471
  616MOL0     C83092   3.237   2.403   6.239 -0.9822 -0.3982  0.5096
  616MOL0     H83093   2.849   2.352   6.053 -0.6000 -0.1338  0.0097
  616MOL0     H83094   2.620   2.271   5.989  0.0996 -2.0984 -0.7161
  616MOL0     H83095   2.450   2.411   5.631  0.5923  0.8899 -2.3291
  616MOL0     H83096   2.490   2.250   5.546 -2.4175  1.3639  0.5193
  616MOL0     H83097   2.251   2.302   5.578  0.0492  4.5033  1.7600
  616MOL0     H83098   2.277   2.291   5.754 -0.5796  0.1390 -0.7195
  616MOL0     H83099   2.394   2.068   5.708 -0.5971  1.2250  2.9446
  616MOL0     H83100   2.305   2.066   5.547  3.1044 -0.2325 -0.3194
  616MOL0     H83101   2.199   2.034   5.824  0.8998 -1.7311 -0.7580
  616MOL0     H83102   2.103   2.131   5.699  0.8947  1.6510 -2.1141
  616MOL0     H83103   2.113   1.935   5.553 -0.5638  0.5498 -0.0809
  616MOL0     H83104   2.229   1.872   5.668  0.9088  0.5453  2.2348
  616MOL0     H83105   2.030   1.891   5.843 -0.8491  0.7295  0.2874
  616MOL0     H83106   1.929   1.916   5.696  0.1305  0.9631  1.1220
  616MOL0     H83107   2.096   1.691   5.812  1.0247  2.5120 -1.3185
  616MOL0     H83108   2.088   1.683   5.637  0.8330 -2.1469  0.7604
  616MOL0     H83109   1.909   1.548   5.689 -0.9228  0.0032 -0.7103
  616MOL0     H83110   1.867   1.638   5.827  2.3441 -0.8960  1.0875
  616MOL0     H83111   1.884   1.805   5.465 -1.4228 -0.5400 -3.9813
  616MOL0     H83112   1.738   1.867   5.266 -0.6355  0.2733 -0.2641
  616MOL0     H83113   1.617   1.727   5.258 -2.6574  0.1658  0.5866
  616MOL0     H83114   1.451   1.888   5.304  0.1980 -1.0725 -1.5292
  616MOL0     H83115   1.563   1.972   5.415 -0.4087 -1.5335  0.9918
  616MOL0     H83116   1.533   1.972   5.111  2.1829 -0.2920 -0.3000
  616MOL0     H83117   1.646   2.081   5.191 -1.5843  2.3988 -2.0606
  616MOL0     H83118   1.469   2.224   5.143 -0.8095  0.2396 -1.0310
  616MOL0     H83119   1.450   2.196   5.319 -1.2041 -0.6498  0.4797
  616MOL0     H83120   1.127   2.304   5.174 -0.5409  0.2415 -0.2114
  616MOL0     H83121   1.050   2.402   4.985  0.3638 -0.0851  0.9818
  616MOL0     H83122   1.307   2.119   4.435 -1.5339  0.0131 -2.3953
  616MOL0     H83123   1.475   2.239   4.310  0.0376 -0.1284  0.3245
  616MOL0     H83124   1.579   2.452   4.141 -1.9044 -1.4862  0.9302
  616MOL0     H83125   1.437   2.556   4.168 -0.2230 -0.3935 -0.5184
  616MOL0     H83126   1.679   2.621   4.074 -0.6733  3.9420 -0.7812
  616MOL0     H83127   1.559   2.731   4.130 -2.5309 -0.4655  2.8260
  616MOL0     H83128   1.648   2.743   4.349 -0.5203  1.9794 -0.9070
  616MOL0     H83129   1.783   2.632   4.313  0.0349  0.7533  0.9827
  616MOL0     H83130   1.731   2.897   4.184 -0.0657 -0.0039  4.0058
  616MOL0     H83131   1.859   2.779   4.128  1.5676 -1.1808  1.8519
  616MOL0     H83132   1.962   2.951   4.257  0.3022  0.9380  1.6854
  616MOL0     H83133   1.962   2.803   4.338 -2.0673 -3.1753 -3.7689
  616MOL0     H83134   1.825   3.064   4.393  3.1358 -0.2393  0.0546
  616MOL0     H83135   1.705   2.927   4.402  0.0695 -0.9993 -2.7313
  616MOL0     H83136   1.975   2.902   4.545  0.1915 -2.3897  2.1290
  616MOL0     H83137   1.827   2.808   4.556 -0.0099  0.2867 -2.4773
  616MOL0     H83138   1.712   3.021   4.644  0.0603 -0.6416 -2.1592
  616MOL0     H83139   1.812   2.940   4.757 -2.1023  2.2797  0.8075
  616MOL0     H83140   1.406   2.596   4.530 -2.4620  1.3394 -0.9111
  616MOL0     H83141   1.208   2.484   4.637  0.3365 -1.9714  1.8346
  616MOL0     H83142   1.259   2.081   4.761  0.4855 -1.0683  0.1591
  616MOL0     H83143   1.333   1.993   4.973  1.3018  0.4403 -5.8030
  616MOL0     H83144   2.697   2.372   5.586 -0.2719 -0.5073  0.2410
  616MOL0     H83145   2.933   2.430   5.646  0.8127 -2.2833 -2.0357
  616MOL0     H83146   3.240   2.604   5.814 -0.6258 -0.6404  1.9341
  616MOL0     H83147   3.497   2.633   5.819  1.6796  1.9593  0.7219
  616MOL0     H83148   3.624   2.768   6.014 -1.2297 -0.9413  1.5615
  616MOL0     H83149   3.786   2.713   5.992 -0.4350  0.8155 -0.2376
  616MOL0     H83150   3.808   2.648   6.226  0.5288 -1.2833 -1.7494
  616MOL0     H83151   3.640   2.695   6.262 -0.6336  0.1496  0.6281
  616MOL0     H83152   3.698   2.926   6.190 -1.4379 -2.0590 -1.2796
  616MOL0     H83153   3.866   2.871   6.157  1.0242 -2.0266  2.3659
  616MOL0     H83154   3.707   2.862   6.411 -0.9591 -1.1158 -1.2971
  616MOL0     H83155   3.875   2.796   6.403  1.8283  2.2364  3.0635
  616MOL0     H83156   3.896   3.218   6.484 -0.3775  1.2233 -1.4206
  616MOL0     H83157   3.504   2.466   6.219  2.3499  2.9068  0.6172
  616MOL0     H83158   3.184   2.483   6.291 -0.2133  2.1685 -2.3298
  616MOL0     H83159   3.167   2.321   6.223  0.5693 -2.0145  1.7257
  616MOL0     H83160   3.317   2.350   6.290  1.2171  0.7356 -1.5227
  617MOL0     O83161   4.353  10.046   7.468  0.0629  0.0475 -0.1892
  617MOL0     C83162   4.264  10.038   7.557  1.1398  0.4974  0.7431
  617MOL0     O83163   4.269  10.082   7.693  0.3123 -0.4254  0.0856
  617MOL0     C83164   4.335  10.198   7.717 -0.4106 -0.2179  0.1464
  617MOL0     C83165   4.292  10.329   7.677  0.2317 -0.5070 -0.3367
  617MOL0     C83166   4.382  10.435   7.684  0.0122 -0.3804 -0.3301
  617MOL0     C83167   4.510  10.422   7.743  0.2538 -0.0169 -0.2288
  617MOL0     O83168   4.585  10.531   7.759 -0.0814  0.1660 -0.3901
  617MOL0     C83169   4.720  10.510   7.725  0.1723  0.0494  0.1108
  617MOL0     C83170   4.814  10.591   7.815  0.6643 -0.1631 -1.0312
  617MOL0     C83171   4.785  10.581   7.966 -0.4616  0.1583  0.9267
  617MOL0     C83172   4.874  10.675   8.048  0.2774  0.4763 -0.2944
  617MOL0     C83173   4.852  10.645   8.198 -0.5037 -0.0119 -0.0126
  617MOL0     C83174   4.929  10.728   8.291 -1.2938 -0.2493 -0.0725
  617MOL0     C83175   4.865  10.745   8.436 -0.2515  0.1979 -0.0162
  617MOL0     C83176   4.968  10.826   8.516 -0.6263 -0.4125  0.4380
  617MOL0     N83177   4.986  10.970   8.487 -0.1142 -0.3514  0.4566
  617MOL0     C83178   5.102  11.033   8.470 -0.6269 -0.4047  0.1660
  617MOL0     C83179   5.075  11.149   8.398  0.1663  0.2698 -0.0265
  617MOL0     C83180   5.176  11.254   8.360  0.7472  0.1280 -0.2918
  617MOL0     C83181   5.312  11.185   8.332  0.2362 -0.2777  0.5525
  617MOL0     C83182   5.408  11.263   8.232 -0.1578 -1.1878  0.3181
  617MOL0     C83183   5.553  11.204   8.218  0.0859 -0.5050 -0.0533
  617MOL0     O83184   5.613  11.207   8.340 -0.7127  1.0324 -0.6432
  617MOL0     C83185   5.737  11.147   8.358 -0.6527  0.5923 -0.1066
  617MOL0     C83186   5.751  11.091   8.481  1.3306 -0.2683 -1.0552
  617MOL0     C83187   5.863  11.015   8.521  0.4060  0.3578 -0.0935
  617MOL0     C83188   5.974  11.018   8.433  0.6122 -0.0648 -1.6583
  617MOL0     C83189   6.094  10.938   8.466  0.0668 -0.6271 -0.6083
  617MOL0     O83190   6.212  10.967   8.395 -0.0420 -0.7993 -0.4671
  617MOL0     C83191   6.335  10.922   8.447 -0.4515  0.9033 -0.2600
  617MOL0     C83192   6.347  10.904   8.583  0.9777  0.5947 -0.4785
  617MOL0     C83193   6.469  10.858   8.635 -0.2885 -0.3602  0.1607
  617MOL0     C83194   6.580  10.836   8.551 -0.4537 -0.4287 -0.6065
  617MOL0     O83195   6.705  10.799   8.595  0.0143  0.2373 -0.0226
  617MOL0     C83196   6.725  10.788   8.739 -0.5661 -0.0335  0.2862
  617MOL0     C83197   6.876  10.788   8.771  0.0415  0.5837  0.2662
  617MOL0     C83198   6.962  10.670   8.709 -0.1490  0.7656 -0.0514
  617MOL0     C83199   7.035  10.720   8.580  0.2041  0.7048 -0.0646
  617MOL0     C83200   7.118  10.616   8.511 -0.5571  0.9303  0.7178
  617MOL0     C83201   7.180  10.657   8.385  0.0803 -0.6171  0.1211
  617MOL0     C83202   7.254  10.565   8.296 -0.3875 -1.2062  0.3617
  617MOL0     C83203   7.341  10.628   8.195  0.6204 -0.9517 -0.3469
  617MOL0    Cl83204   7.473  10.696   8.293  0.1471 -0.3525  0.1462
  617MOL0     C83205   6.562  10.867   8.412 -0.6384  0.3131  0.1378
  617MOL0     C83206   6.440  10.899   8.355 -0.4724  0.2225 -0.0509
  617MOL0     O83207   6.074  10.833   8.523  0.0174 -0.4856 -0.3454
  617MOL0     C83208   5.966  11.096   8.309 -0.1403  0.5109  0.0109
  617MOL0     C83209   5.841  11.142   8.267  0.5906 -0.1753  0.2429
  617MOL0     N83210   4.937  11.155   8.386 -0.2555 -0.7362  0.0865
  617MOL0     N83211   4.884  11.050   8.440 -1.4570 -0.0770  0.0906
  617MOL0     C83212   4.544  10.299   7.801 -0.6428 -0.0059  0.4870
  617MOL0     C83213   4.456  10.187   7.780  0.5420  0.4002  0.6528
  617MOL0     C83214   4.157   9.949   7.528 -0.2310  0.0299  0.4842
  617MOL0     C83215   4.031   9.993   7.571 -0.4175  0.3131 -0.3167
  617MOL0     C83216   3.916   9.920   7.538 -0.0791  0.2790 -1.0419
  617MOL0     C83217   3.923   9.807   7.459  0.4822  0.3303  0.1174
  617MOL0     O83218   3.801   9.750   7.425  0.0219 -0.9935  0.8493
  617MOL0     C83219   3.783   9.647   7.333  0.7677  0.8060  0.1840
  617MOL0     C83220   3.675   9.555   7.391  0.7345 -0.2469  0.3192
  617MOL0     C83221   3.649   9.440   7.300 -0.7875 -0.5088 -0.2360
  617MOL0     C83222   3.550   9.463   7.186 -0.0058 -0.1397 -0.2184
  617MOL0     C83223   3.419   9.482   7.236  0.1099  0.6614  0.7754
  617MOL0     C83224   3.313   9.508   7.286  0.8414 -0.3100  0.3504
  617MOL0     C83225   4.048   9.769   7.409  0.1402  1.0059 -0.4319
  617MOL0     C83226   4.169   9.839   7.446  0.6276  0.8728  0.2383
  617MOL0     C83227   4.296   9.789   7.390 -0.5212  0.2099 -0.7790
  617MOL0     H83228   4.191  10.343   7.639 -0.8402  1.9867  2.9755
  617MOL0     H83229   4.351  10.521   7.627 -1.1400 -1.1980 -0.9810
  617MOL0     H83230   4.750  10.406   7.742 -0.1587 -0.1963 -0.7589
  617MOL0     H83231   4.741  10.532   7.620  0.2762  0.8309  0.2911
  617MOL0     H83232   4.793  10.690   7.775 -1.9380 -1.1292 -2.2896
  617MOL0     H83233   4.921  10.573   7.799  1.0703 -0.8790  1.9406
  617MOL0     H83234   4.797  10.479   8.004  1.3325 -1.6429 -3.6930
  617MOL0     H83235   4.678  10.601   7.979 -0.2759  1.7604  0.1494
  617MOL0     H83236   4.982  10.662   8.041 -0.0127 -2.4446 -0.3194
  617MOL0     H83237   4.850  10.776   8.013 -0.9745 -0.7368 -3.3644
  617MOL0     H83238   4.748  10.648   8.229  0.7851 -0.8538  5.3580
  617MOL0     H83239   4.884  10.540   8.203  0.6227  0.3539  1.0303
  617MOL0     H83240   5.024  10.685   8.325 -3.0896 -0.6636  5.4322
  617MOL0     H83241   4.943  10.824   8.241 -4.1519 -0.3920 -1.3093
  617MOL0     H83242   4.864  10.645   8.479 -0.4842  0.1190 -0.2040
  617MOL0     H83243   4.761  10.780   8.444 -0.3405 -0.1142  0.1845
  617MOL0     H83244   4.952  10.813   8.624  0.5987 -1.1643  0.5525
  617MOL0     H83245   5.061  10.773   8.490 -1.8549 -1.5151 -2.0145
  617MOL0     H83246   5.192  10.998   8.520  0.1272  2.4757  1.0112
  617MOL0     H83247   5.143  11.299   8.266  0.1362 -1.6185 -0.9467
  617MOL0     H83248   5.179  11.326   8.443  1.5289  0.1688 -0.3493
  617MOL0     H83249   5.362  11.173   8.429  3.4461  2.1361 -0.6377
  617MOL0     H83250   5.292  11.087   8.287  0.0900  0.4173 -0.9287
  617MOL0     H83251   5.418  11.370   8.250 -2.1909 -0.7615 -0.8139
  617MOL0     H83252   5.373  11.274   8.129 -0.4551 -0.2678  0.5126
  617MOL0     H83253   5.612  11.266   8.150  1.5971 -0.8715  0.8608
  617MOL0     H83254   5.548  11.103   8.178  0.1403 -0.1430 -0.9968
  617MOL0     H83255   5.661  11.096   8.542  0.1498 -1.6332 -2.5946
  617MOL0     H83256   5.865  10.947   8.606  0.0653 -3.5759 -2.9813
  617MOL0     H83257   6.271  10.923   8.658 -0.1111 -1.9536 -0.8171
  617MOL0     H83258   6.482  10.833   8.740  0.3765  0.3790  0.2683
  617MOL0     H83259   6.680  10.877   8.783  0.7734  0.8411 -0.0446
  617MOL0     H83260   6.683  10.698   8.785  0.0509  0.9378  2.9548
  617MOL0     H83261   6.918  10.884   8.740  0.2436 -0.0287 -1.5100
  617MOL0     H83262   6.877  10.776   8.880  1.9704  3.6749  0.7036
  617MOL0     H83263   7.033  10.646   8.789 -0.6909  1.4163  0.6398
  617MOL0     H83264   6.899  10.584   8.687  1.6190 -0.0994 -2.0853
  617MOL0     H83265   7.096  10.803   8.618  1.1756 -0.0476  0.0601
  617MOL0     H83266   6.977  10.757   8.495 -0.6550 -4.1384 -1.9030
  617MOL0     H83267   7.044  10.544   8.474 -1.5435  2.1991  0.1403
  617MOL0     H83268   7.192  10.569   8.576 -2.5050 -5.4463 -0.8519
  617MOL0     H83269   7.115  10.724   8.329  0.2756 -1.5594 -1.2746
  617MOL0     H83270   7.244  10.734   8.429 -1.9757 -0.5004  3.2798
  617MOL0     H83271   7.186  10.504   8.235 -1.3610  3.4567 -3.8768
  617MOL0     H83272   7.323  10.498   8.349  0.6174  0.0786  0.7241
  617MOL0     H83273   7.376  10.542   8.138  2.9464 -2.9156  3.6060
  617MOL0     H83274   7.290  10.709   8.141  1.6480 -0.3226 -0.4119
  617MOL0     H83275   6.647  10.877   8.345  0.3179 -2.0594  0.8895
  617MOL0     H83276   6.429  10.911   8.247  1.0392 -3.5167 -0.7715
  617MOL0     H83277   6.048  11.104   8.238  1.9975  1.1335  2.3881
  617MOL0     H83278   5.838  11.200   8.175  2.0660  0.8481  0.8014
  617MOL0     H83279   4.628  10.280   7.867 -1.7593 -0.2919  1.8923
  617MOL0     H83280   4.498  10.097   7.823  0.9103 -0.6855 -1.8465
  617MOL0     H83281   4.026  10.086   7.627 -0.5393  0.3244 -0.3446
  617MOL0     H83282   3.823   9.953   7.583  1.2826  1.9623  0.7197
  617MOL0     H83283   3.873   9.585   7.326 -1.6666 -3.0344  0.5638
  617MOL0     H83284   3.749   9.675   7.233 -2.8978  0.4360  1.2083
  617MOL0     H83285   3.582   9.610   7.405  1.2363  0.9469 -0.8174
  617MOL0     H83286   3.700   9.513   7.489 -1.5652  0.7484  1.3955
  617MOL0     H83287   3.598   9.368   7.364  0.6476  0.2646  1.8920
  617MOL0     H83288   3.744   9.401   7.264  0.8832  1.5023  1.7208
  617MOL0     H83289   3.582   9.557   7.140 -0.3460  0.7076  1.1836
  617MOL0     H83290   3.550   9.379   7.116  2.0718 -1.7800  1.6089
  617MOL0     H83291   3.213   9.520   7.322  0.6323  2.2379 -0.8835
  617MOL0     H83292   4.062   9.686   7.341  0.9491  0.6295  0.1832
  617MOL0     H83293   4.358   9.747   7.469 -2.7537 -3.5939 -0.8311
  617MOL0     H83294   4.285   9.707   7.318  3.1027 -0.9304 -0.2577
  617MOL0     H83295   4.352   9.865   7.335  1.1025  2.4808  3.5772
  618MOL0     O83296   9.771   1.752   7.833  0.3846 -0.7675 -0.4315
  618MOL0     C83297   9.775   1.862   7.889  0.6296 -0.0074  1.5879
  618MOL0     O83298   9.674   1.950   7.902  0.6421  0.6347 -0.1393
  618MOL0     C83299   9.568   1.937   7.818 -1.1544  0.1063  0.5521
  618MOL0     C83300   9.439   1.953   7.874  0.4499  0.8051 -0.5631
  618MOL0     C83301   9.323   1.951   7.787  0.6063  0.4084 -0.1307
  618MOL0     C83302   9.329   1.944   7.646  0.4782 -0.1839 -0.2629
  618MOL0     O83303   9.230   1.949   7.553  0.5680 -0.4293  0.4028
  618MOL0     C83304   9.101   1.990   7.610 -0.4445  0.6435  0.0024
  618MOL0     C83305   9.008   2.012   7.497 -0.8267 -0.2605  0.1464
  618MOL0     C83306   8.875   2.069   7.538  0.8949 -0.8088  0.6028
  618MOL0     C83307   8.808   2.107   7.406  0.6994  0.4069  0.0327
  618MOL0     C83308   8.731   2.232   7.427  1.0709 -0.8016 -0.4973
  618MOL0     C83309   8.666   2.275   7.303 -0.1393  0.2613 -0.2891
  618MOL0     C83310   8.540   2.188   7.267  0.0587 -0.8898 -0.7118
  618MOL0     C83311   8.432   2.152   7.378  0.0309 -0.6228 -0.3981
  618MOL0     N83312   8.368   2.268   7.412 -0.0628 -0.7592 -1.3186
  618MOL0     C83313   8.419   2.382   7.485  0.2491  1.2052 -0.7534
  618MOL0     C83314   8.318   2.470   7.482 -0.5440 -0.0595 -0.5639
  618MOL0     C83315   8.316   2.604   7.540  0.3133 -0.0787  1.1721
  618MOL0     C83316   8.419   2.694   7.464 -0.5969  0.3599 -0.7418
  618MOL0     C83317   8.363   2.731   7.325  0.2663 -0.3942  0.1012
  618MOL0     C83318   8.235   2.825   7.321 -0.2508  0.2280  0.1900
  618MOL0     O83319   8.260   2.946   7.397 -0.3935 -0.2420  0.1991
  618MOL0     C83320   8.163   3.045   7.419 -0.1173 -0.1680  1.1429
  618MOL0     C83321   8.028   3.037   7.368 -0.9427 -0.4594  0.1049
  618MOL0     C83322   7.933   3.140   7.388 -0.6427 -0.3728 -0.0457
  618MOL0     C83323   7.967   3.255   7.455 -0.5065  1.2600  0.6875
  618MOL0     C83324   7.874   3.359   7.477  1.2482 -1.2431  0.6369
  618MOL0     O83325   7.744   3.326   7.460  0.2901 -0.1801 -0.4358
  618MOL0     C83326   7.644   3.420   7.479 -0.3054  0.9012  0.0496
  618MOL0     C83327   7.521   3.372   7.433  0.3436 -0.1020  0.8981
  618MOL0     C83328   7.407   3.460   7.452  0.5123  0.5677 -0.1610
  618MOL0     C83329   7.412   3.584   7.506  0.3167  0.9867  0.0839
  618MOL0     O83330   7.306   3.657   7.513  0.4069  0.3800  0.8114
  618MOL0     C83331   7.286   3.755   7.611 -0.3146  0.3556 -0.3888
  618MOL0     C83332   7.278   3.694   7.753 -0.2242 -0.2643 -0.2284
  618MOL0     C83333   7.207   3.797   7.844 -0.7303 -0.1891 -0.5767
  618MOL0     C83334   7.297   3.914   7.885 -0.2461  0.0106 -0.6805
  618MOL0     C83335   7.236   3.987   8.004  0.1121  0.1856 -0.6155
  618MOL0     C83336   7.114   4.080   7.976  0.6024 -0.5132 -1.0905
  618MOL0     C83337   7.157   4.184   7.876 -0.1747 -0.4909  0.9905
  618MOL0     C83338   7.066   4.306   7.892 -0.4755  0.5711  0.1319
  618MOL0    Cl83339   6.917   4.278   7.812 -0.1650  0.0001 -0.4891
  618MOL0     C83340   7.536   3.631   7.544 -0.4229 -0.3890 -0.5156
  618MOL0     C83341   7.647   3.548   7.535  0.0691  0.2032 -0.1490
  618MOL0     O83342   7.918   3.471   7.497  0.6043 -0.1667 -0.3775
  618MOL0     C83343   8.103   3.253   7.502 -0.9063  0.0925  0.2757
  618MOL0     C83344   8.196   3.152   7.488  0.0478  0.5935 -0.5082
  618MOL0     N83345   8.208   2.417   7.410  0.2715  0.0306 -0.0412
  618MOL0     N83346   8.239   2.294   7.377 -0.2876  0.1625  0.3682
  618MOL0     C83347   9.460   1.935   7.599 -0.1276 -1.2403 -0.4330
  618MOL0     C83348   9.574   1.936   7.678 -0.2330 -0.1782 -0.6641
  618MOL0     C83349   9.910   1.903   7.936 -0.1821  0.0409 -0.3590
  618MOL0     C83350   9.908   2.032   7.994 -0.7512 -0.2696 -0.9445
  618MOL0     C83351  10.026   2.097   8.020 -0.0571 -0.0294  0.2226
  618MOL0     C83352  10.155   2.035   8.002  0.3647 -0.1267  1.2783
  618MOL0     O83353  10.269   2.107   8.045  0.3210 -0.3429 -0.1016
  618MOL0     C83354  10.385   2.105   7.961  1.1242 -0.4700  0.6452
  618MOL0     C83355  10.495   2.123   8.061  0.1415 -0.1208 -0.3414
  618MOL0     C83356  10.623   2.156   7.986  0.7783 -0.2053  0.0505
  618MOL0     C83357  10.730   2.220   8.076 -0.2207 -1.0689 -0.2793
  618MOL0     C83358  10.859   2.241   7.997 -0.3922  0.0232  0.4042
  618MOL0     C83359  10.972   2.249   7.949  0.0652  0.4286 -0.3710
  618MOL0     C83360  10.152   1.904   7.951  0.0552 -0.0321 -0.6695
  618MOL0     C83361  10.034   1.833   7.926 -0.5281  0.0365  0.0392
  618MOL0     C83362  10.044   1.689   7.875  0.0232  0.0961  0.3806
  618MOL0     H83363   9.426   1.991   7.974  0.6348  0.9496 -0.5926
  618MOL0     H83364   9.220   1.953   7.820 -0.6135 -2.1730 -3.1761
  618MOL0     H83365   9.066   1.909   7.674  1.3124 -0.5950 -0.5200
  618MOL0     H83366   9.109   2.085   7.664 -1.7005 -0.5447  2.4335
  618MOL0     H83367   8.986   1.912   7.457  2.2305 -1.2443  0.6503
  618MOL0     H83368   9.049   2.083   7.425 -2.7024  1.5551  0.7998
  618MOL0     H83369   8.895   2.157   7.600  2.3496 -0.7959  0.1435
  618MOL0     H83370   8.814   1.996   7.591 -1.0913 -0.7199 -1.3669
  618MOL0     H83371   8.883   2.116   7.326 -0.4687  1.4308 -0.9983
  618MOL0     H83372   8.744   2.023   7.381  0.9670  0.4948 -1.0036
  618MOL0     H83373   8.663   2.221   7.512  2.3374 -2.2294  0.3767
  618MOL0     H83374   8.805   2.309   7.452  0.4687 -0.5765  0.6768
  618MOL0     H83375   8.643   2.382   7.299  4.0337  1.4076  0.9248
  618MOL0     H83376   8.732   2.260   7.217  2.1736  1.5903  1.1428
  618MOL0     H83377   8.587   2.095   7.233 -0.3483 -3.1796  4.1181
  618MOL0     H83378   8.483   2.237   7.187  0.1809 -0.3055 -0.4402
  618MOL0     H83379   8.362   2.080   7.335  2.5713 -3.3218 -0.3386
  618MOL0     H83380   8.478   2.112   7.469 -2.3072  2.5813  2.4416
  618MOL0     H83381   8.522   2.396   7.517  0.8801 -0.2926 -1.9917
  618MOL0     H83382   8.216   2.645   7.524  0.5293 -0.5087 -1.6838
  618MOL0     H83383   8.336   2.592   7.647 -0.5960  0.8730  1.4622
  618MOL0     H83384   8.438   2.787   7.517 -0.8676  0.4092 -0.7341
  618MOL0     H83385   8.513   2.638   7.456 -1.5304 -1.3128 -0.5782
  618MOL0     H83386   8.338   2.639   7.272  0.1772  2.5153 -5.7542
  618MOL0     H83387   8.448   2.773   7.270  0.6900 -1.4584 -0.0674
  618MOL0     H83388   8.154   2.760   7.352  0.2502  0.2961  1.7346
  618MOL0     H83389   8.220   2.854   7.217 -1.5887 -2.2214 -0.3706
  618MOL0     H83390   8.012   2.954   7.299  0.5555 -0.3416 -0.4259
  618MOL0     H83391   7.836   3.130   7.339 -1.4979 -1.4430  1.7436
  618MOL0     H83392   7.503   3.277   7.385 -2.4744  0.0321  1.5471
  618MOL0     H83393   7.311   3.420   7.422  1.2830 -2.6265  1.0932
  618MOL0     H83394   7.357   3.836   7.593 -1.2039  1.6034  1.4280
  618MOL0     H83395   7.190   3.800   7.581 -1.4226 -2.2476 -1.0533
  618MOL0     H83396   7.209   3.610   7.753  0.5643 -0.9480 -1.2797
  618MOL0     H83397   7.379   3.670   7.787 -1.2668 -1.9651  1.8883
  618MOL0     H83398   7.122   3.838   7.788 -0.2698 -1.5375 -2.3552
  618MOL0     H83399   7.172   3.743   7.932  1.0336 -1.5981 -0.6867
  618MOL0     H83400   7.324   3.983   7.805 -0.2711 -2.8316 -3.3414
  618MOL0     H83401   7.391   3.861   7.906 -0.5163 -0.1624  0.0965
  618MOL0     H83402   7.320   4.033   8.056 -0.0482  2.5117 -2.2545
  618MOL0     H83403   7.197   3.908   8.068  1.6385  0.1699  0.3248
  618MOL0     H83404   7.027   4.020   7.944 -0.9944  0.1824  1.6453
  618MOL0     H83405   7.090   4.128   8.071 -2.0391 -2.7972 -0.4751
  618MOL0     H83406   7.166   4.148   7.773 -1.8037  2.6638 -0.4001
  618MOL0     H83407   7.255   4.225   7.902 -0.7574  0.0624  2.3967
  618MOL0     H83408   7.051   4.315   8.000  3.2060 -3.5973  1.3163
  618MOL0     H83409   7.111   4.397   7.851  1.7789 -1.1863 -1.6440
  618MOL0     H83410   7.551   3.735   7.572  1.5299 -1.0149  0.9131
  618MOL0     H83411   7.739   3.573   7.586 -0.1774  0.4848  0.1617
  618MOL0     H83412   8.142   3.324   7.574  0.6619 -1.3054  0.8783
  618MOL0     H83413   8.295   3.155   7.532  0.6428 -4.6798 -0.9431
  618MOL0     H83414   9.481   1.905   7.497 -1.2451  0.0111 -1.0551
  618MOL0     H83415   9.673   1.924   7.635  0.6337  0.6298  0.9902
  618MOL0     H83416   9.813   2.078   8.019  0.4436  1.6293  0.3189
  618MOL0     H83417  10.024   2.199   8.058  2.1693  1.3446 -2.8792
  618MOL0     H83418  10.385   2.193   7.896  0.7287 -0.9043  0.0445
  618MOL0     H83419  10.394   2.009   7.909  1.8852  0.4832 -1.0754
  618MOL0     H83420  10.511   2.023   8.102  1.4771  0.4744  0.6488
  618MOL0     H83421  10.463   2.183   8.147 -0.1545 -1.4556  0.5132
  618MOL0     H83422  10.601   2.217   7.897 -3.5870  4.3190  3.6930
  618MOL0     H83423  10.663   2.062   7.947  2.5441  0.7269 -0.5123
  618MOL0     H83424  10.685   2.316   8.105 -1.2640 -1.2832 -1.1388
  618MOL0     H83425  10.756   2.163   8.165  1.0856 -0.3502 -0.1680
  618MOL0     H83426  11.069   2.252   7.904  0.8243 -0.9458  1.0529
  618MOL0     H83427  10.246   1.853   7.933 -1.0158 -2.1183 -0.6717
  618MOL0     H83428   9.995   1.680   7.778 -0.1731 -1.2204  0.5852
  618MOL0     H83429  10.144   1.660   7.844  0.9287  1.1091  2.1866
  618MOL0     H83430  10.008   1.608   7.939 -0.0272 -0.7983 -0.7516
  619MOL0     O83431   5.794  10.242  10.146 -0.3668 -0.2779 -0.3029
  619MOL0     C83432   5.758  10.294  10.246  0.3384 -0.3633 -0.8746
  619MOL0     O83433   5.658  10.396  10.256 -0.4808 -0.6331  0.1435
  619MOL0     C83434   5.603  10.453  10.141 -1.2776 -0.4879 -1.1222
  619MOL0     C83435   5.674  10.490  10.032  0.8554  0.3300  0.3040
  619MOL0     C83436   5.618  10.557   9.921  0.6945  0.5830  0.4934
  619MOL0     C83437   5.486  10.605   9.938 -0.2063  0.2129  0.6636
  619MOL0     O83438   5.413  10.663   9.845 -0.2077 -0.3462  0.1300
  619MOL0     C83439   5.467  10.678   9.708 -0.0097  0.1015  0.1422
  619MOL0     C83440   5.347  10.737   9.624 -0.3239  0.2254 -0.0124
  619MOL0     C83441   5.206  10.666   9.640 -0.4260 -0.4719 -0.8368
  619MOL0     C83442   5.114  10.705   9.532 -0.0086  0.1490  0.8130
  619MOL0     C83443   4.961  10.683   9.556 -0.5537 -0.2735  1.0070
  619MOL0     C83444   4.900  10.714   9.413  0.1112  1.7013 -0.5564
  619MOL0     C83445   4.750  10.685   9.422  0.0824 -0.3255 -0.3329
  619MOL0     C83446   4.679  10.771   9.532  0.4825  0.0762  0.2221
  619MOL0     N83447   4.679  10.912   9.486  0.6542  0.5464  0.6491
  619MOL0     C83448   4.605  10.943   9.369  0.6015 -0.0725 -0.4051
  619MOL0     C83449   4.637  11.080   9.350  0.2677  0.0686 -0.6654
  619MOL0     C83450   4.578  11.165   9.245 -1.3166  0.1473 -0.0700
  619MOL0     C83451   4.428  11.142   9.221  0.6348 -0.4204 -0.1036
  619MOL0     C83452   4.411  11.019   9.131  0.7108  1.0199  0.1428
  619MOL0     C83453   4.289  11.020   9.038  0.1491 -0.1365  0.3807
  619MOL0     O83454   4.274  10.892   8.977 -0.0659  0.3782 -0.3042
  619MOL0     C83455   4.209  10.883   8.856  1.0130 -0.8603  0.1727
  619MOL0     C83456   4.218  10.757   8.798 -0.2486  0.7681  0.7596
  619MOL0     C83457   4.151  10.726   8.681 -0.3029 -0.6534 -0.3772
  619MOL0     C83458   4.061  10.824   8.623 -1.2567  0.6738  0.4415
  619MOL0     C83459   3.975  10.799   8.507 -0.0935 -0.2864 -0.0127
  619MOL0     O83460   3.895  10.900   8.468  0.1211  0.6598  0.0484
  619MOL0     C83461   3.832  10.915   8.343  0.4181 -0.2641 -0.1569
  619MOL0     C83462   3.730  11.010   8.334  0.6493  0.3643 -0.0086
  619MOL0     C83463   3.674  11.038   8.207 -0.3327  0.6880 -0.4548
  619MOL0     C83464   3.715  10.979   8.083  0.2651 -0.3026 -0.5425
  619MOL0     O83465   3.658  11.011   7.957  0.1344 -0.1173 -0.0118
  619MOL0     C83466   3.561  11.109   7.940  0.6670  0.9730  0.1220
  619MOL0     C83467   3.531  11.127   7.791  0.4401 -0.4148 -0.1638
  619MOL0     C83468   3.443  11.022   7.722  0.4909  0.2970  0.3615
  619MOL0     C83469   3.419  11.057   7.569 -0.0140  0.1397 -1.2480
  619MOL0     C83470   3.380  10.931   7.497  1.0337  0.1307  0.7793
  619MOL0     C83471   3.252  10.865   7.552  0.2104 -0.2756  0.5852
  619MOL0     C83472   3.230  10.739   7.464  0.2007 -0.3903  0.4113
  619MOL0     C83473   3.109  10.661   7.515 -0.2054 -0.0449  0.7277
  619MOL0    Cl83474   2.974  10.753   7.584  0.3461  0.4159 -0.3356
  619MOL0     C83475   3.815  10.884   8.102 -0.2547  0.0082  1.4279
  619MOL0     C83476   3.869  10.855   8.218  1.0092 -0.1919  0.0072
  619MOL0     O83477   4.003  10.693   8.454 -0.1461 -0.1605 -0.8079
  619MOL0     C83478   4.055  10.959   8.676  0.2577  0.8793 -0.2575
  619MOL0     C83479   4.128  10.984   8.797 -0.3898  0.1370  0.3133
  619MOL0     N83480   4.715  11.116   9.454 -0.6397 -0.1214  0.1663
  619MOL0     N83481   4.748  11.018   9.531 -0.4482  0.3486 -0.1148
  619MOL0     C83482   5.417  10.578  10.055  0.7028 -0.4471 -1.3749
  619MOL0     C83483   5.472  10.499  10.154 -0.1966 -0.7876 -0.9125
  619MOL0     C83484   5.828  10.250  10.372 -0.4586 -0.3149 -0.7168
  619MOL0     C83485   5.954  10.200  10.365  0.4854 -0.1094 -0.1272
  619MOL0     C83486   6.034  10.169  10.483  0.7072 -0.3346 -0.9052
  619MOL0     C83487   5.981  10.185  10.611 -0.6097 -0.0718  0.4139
  619MOL0     O83488   6.051  10.133  10.723  0.2905 -0.1614  0.5023
  619MOL0     C83489   6.189  10.102  10.706  0.3137 -0.0688 -0.0751
  619MOL0     C83490   6.249  10.066  10.847  0.4702  0.3541  0.3295
  619MOL0     C83491   6.219  10.153  10.965  1.5032  0.6607 -0.9070
  619MOL0     C83492   6.319  10.131  11.077 -0.6503 -0.9651  0.3942
  619MOL0     C83493   6.302  10.238  11.177  0.3634 -0.5330 -0.2244
  619MOL0     C83494   6.285  10.312  11.270 -0.5430 -0.2038 -0.4232
  619MOL0     C83495   5.851  10.240  10.624  0.2032  0.4229  0.4088
  619MOL0     C83496   5.778  10.267  10.508 -0.0221 -0.6166 -0.3789
  619MOL0     C83497   5.635  10.318  10.532 -0.4905  0.4651 -0.5305
  619MOL0     H83498   5.778  10.458  10.031  1.1053  1.1217 -0.6410
  619MOL0     H83499   5.677  10.570   9.831  0.4744  2.2213  0.5558
  619MOL0     H83500   5.549  10.750   9.718 -0.5616  0.5689  1.6257
  619MOL0     H83501   5.490  10.578   9.671  0.4166 -0.3541  1.5462
  619MOL0     H83502   5.379  10.737   9.519 -0.7534 -0.3848 -0.1491
  619MOL0     H83503   5.350  10.841   9.659 -0.9586  0.3589 -0.3377
  619MOL0     H83504   5.166  10.712   9.731  3.9448  0.8832  0.6507
  619MOL0     H83505   5.211  10.557   9.638 -0.7635 -0.4853 -0.9681
  619MOL0     H83506   5.130  10.813   9.525 -1.2831  0.2477 -1.1731
  619MOL0     H83507   5.152  10.665   9.438  1.3442  0.6121  1.1328
  619MOL0     H83508   4.948  10.578   9.583 -0.2161 -0.7689 -0.6090
  619MOL0     H83509   4.921  10.750   9.632 -2.9920  0.7509 -1.0678
  619MOL0     H83510   4.921  10.819   9.388  1.6308  0.9437 -2.7685
  619MOL0     H83511   4.946  10.646   9.341 -1.4001  0.2742 -0.2377
  619MOL0     H83512   4.736  10.579   9.445  0.7544 -1.0709 -2.9960
  619MOL0     H83513   4.701  10.699   9.326 -0.0919  0.3189 -0.1577
  619MOL0     H83514   4.574  10.743   9.533  0.7536 -1.0537 -1.1466
  619MOL0     H83515   4.717  10.765   9.635  2.4201  2.9561 -0.1911
  619MOL0     H83516   4.538  10.866   9.330  3.3088 -3.3549  0.9773
  619MOL0     H83517   4.600  11.270   9.268  0.1945 -0.1588 -0.0064
  619MOL0     H83518   4.638  11.141   9.157 -2.0012  0.9628 -0.7856
  619MOL0     H83519   4.373  11.131   9.314 -1.2004  1.5294 -0.8947
  619MOL0     H83520   4.391  11.230   9.168 -2.6604 -0.7948  1.3935
  619MOL0     H83521   4.406  10.924   9.186  0.5528 -0.6692 -2.5844
  619MOL0     H83522   4.498  11.010   9.065 -0.0920 -2.1460 -0.6655
  619MOL0     H83523   4.296  11.099   8.962  1.5414  0.0503  0.6857
  619MOL0     H83524   4.192  11.034   9.088  1.3013 -0.8595  2.9933
  619MOL0     H83525   4.270  10.676   8.849 -2.7115  0.2548  2.6682
  619MOL0     H83526   4.165  10.632   8.628 -0.6398  0.0436 -1.7633
  619MOL0     H83527   3.697  11.065   8.422 -1.9628 -0.4080 -0.4276
  619MOL0     H83528   3.595  11.110   8.188  2.3304  3.3840 -2.0554
  619MOL0     H83529   3.471  11.067   7.986 -1.1355  0.6855 -3.3217
  619MOL0     H83530   3.581  11.204   7.989 -0.2349  1.0904  0.2836
  619MOL0     H83531   3.477  11.221   7.778 -1.8555 -2.0532 -4.1442
  619MOL0     H83532   3.630  11.130   7.744  0.8955  2.9106  0.7667
  619MOL0     H83533   3.482  10.921   7.733 -2.4042 -0.9273  0.3549
  619MOL0     H83534   3.348  11.023   7.775  1.4315 -0.5489  2.1323
  619MOL0     H83535   3.507  11.098   7.519  1.5088  0.8643  1.8075
  619MOL0     H83536   3.347  11.140   7.565  0.5993  0.8603  1.2426
  619MOL0     H83537   3.469  10.867   7.497  2.1566  1.5681 -0.5811
  619MOL0     H83538   3.367  10.970   7.395  1.9499  2.0466  1.3367
  619MOL0     H83539   3.273  10.838   7.656  3.9816  0.4582  0.1638
  619MOL0     H83540   3.161  10.925   7.552  0.8307  0.6863  0.0312
  619MOL0     H83541   3.320  10.683   7.438  0.5771  1.3101 -2.3406
  619MOL0     H83542   3.197  10.773   7.365 -1.6805  0.9334  1.4302
  619MOL0     H83543   3.072  10.599   7.433 -0.4282  1.6442 -0.4935
  619MOL0     H83544   3.148  10.592   7.591 -0.5127 -0.4227  0.5457
  619MOL0     H83545   3.842  10.819   8.020 -1.6980 -0.2244  1.1101
  619MOL0     H83546   3.943  10.776   8.225 -0.4651 -1.7160 -1.0342
  619MOL0     H83547   3.997  11.035   8.625 -0.7544 -0.0964 -0.6058
  619MOL0     H83548   4.111  11.085   8.834  1.8773  0.4812  0.5247
  619MOL0     H83549   5.313  10.608  10.068  1.0943  0.0326  1.0480
  619MOL0     H83550   5.417  10.478  10.245  1.6608 -1.4092  0.1165
  619MOL0     H83551   6.007  10.177  10.274  1.5728  0.2114  0.4121
  619MOL0     H83552   6.130  10.124  10.460  1.0823  1.3621 -3.1196
  619MOL0     H83553   6.256  10.178  10.662  1.2921 -1.3331 -0.8397
  619MOL0     H83554   6.200  10.022  10.632 -0.8003  0.6882 -1.1009
  619MOL0     H83555   6.356  10.084  10.831 -0.0086  1.4070 -2.2719
  619MOL0     H83556   6.213   9.966  10.873  1.8219 -0.5047 -0.9563
  619MOL0     H83557   6.116  10.131  10.996  2.3021 -4.2717 -0.9291
  619MOL0     H83558   6.221  10.258  10.934  1.9773  1.2691  1.0734
  619MOL0     H83559   6.318  10.032  11.123  0.6945 -0.3792  1.7417
  619MOL0     H83560   6.424  10.133  11.048 -0.1391 -2.2233  2.0157
  619MOL0     H83561   6.271  10.384  11.349  1.7804  0.0654 -0.1743
  619MOL0     H83562   5.811  10.258  10.723  1.8436  2.6894  0.7530
  619MOL0     H83563   5.609  10.303  10.637  0.3318  3.1501  0.1265
  619MOL0     H83564   5.620  10.422  10.504 -1.3441  0.4087 -0.3316
  619MOL0     H83565   5.570  10.258  10.467 -1.3787  2.0344 -1.1515
  620MOL0     O83566  10.383   5.722   2.297 -0.3359  0.5559 -0.4472
  620MOL0     C83567  10.449   5.703   2.396  0.0870 -0.1337  0.3422
  620MOL0     O83568  10.426   5.774   2.511 -0.7452  0.0918  0.6762
  620MOL0     C83569  10.368   5.896   2.510  1.3638 -0.9120 -0.3394
  620MOL0     C83570  10.353   5.983   2.403  0.4073  0.5795 -0.4926
  620MOL0     C83571  10.296   6.110   2.406 -0.6517  0.6360 -0.8466
  620MOL0     C83572  10.231   6.148   2.526 -0.6020 -0.0096  0.1880
  620MOL0     O83573  10.156   6.263   2.541 -0.1574  0.1507  0.6076
  620MOL0     C83574  10.144   6.365   2.436 -0.5607 -0.1008  0.7311
  620MOL0     C83575  10.274   6.451   2.413 -0.3833  0.2340  0.2607
  620MOL0     C83576  10.278   6.548   2.296 -0.8719  0.5495 -0.0541
  620MOL0     C83577  10.196   6.677   2.327  0.2265  0.7648  0.0209
  620MOL0     C83578  10.200   6.771   2.207 -0.0665 -0.3086 -0.4638
  620MOL0     C83579  10.122   6.905   2.238  0.0791 -0.1482 -1.4973
  620MOL0     C83580  10.094   7.004   2.115 -0.9001 -0.6273  0.0381
  620MOL0     C83581   9.996   6.950   2.011 -0.6286  0.0076 -0.2375
  620MOL0     N83582   9.859   6.968   2.066 -0.1134 -0.1863  0.5828
  620MOL0     C83583   9.789   7.091   2.073 -0.6101 -0.0197  0.6446
  620MOL0     C83584   9.661   7.052   2.091  0.0040  0.0065  0.1209
  620MOL0     C83585   9.554   7.155   2.104  0.1945 -0.1330  0.1162
  620MOL0     C83586   9.465   7.160   1.981 -0.0894  0.1564  0.1226
  620MOL0     C83587   9.412   7.029   1.935 -0.4309 -0.6818 -0.6923
  620MOL0     C83588   9.304   7.057   1.824  0.0363  0.7385 -0.4233
  620MOL0     O83589   9.205   7.149   1.869  0.8816 -0.6417 -0.3992
  620MOL0     C83590   9.081   7.096   1.903  0.1974  0.6189 -0.9237
  620MOL0     C83591   8.967   7.172   1.889  0.4886 -0.7933 -0.2551
  620MOL0     C83592   8.836   7.124   1.919 -0.1369 -0.4431 -0.5794
  620MOL0     C83593   8.824   6.996   1.952  0.0660 -0.4137 -0.4358
  620MOL0     C83594   8.698   6.938   1.957  0.0081  0.8371 -0.3328
  620MOL0     O83595   8.678   6.825   2.034 -0.2693 -0.0374 -0.6466
  620MOL0     C83596   8.550   6.782   2.053  0.3367  0.1388 -0.7021
  620MOL0     C83597   8.515   6.650   2.001  0.4258  0.0722 -0.7454
  620MOL0     C83598   8.383   6.604   2.007 -0.6670 -0.0891 -0.5870
  620MOL0     C83599   8.284   6.680   2.077  0.3026  0.1803 -0.3880
  620MOL0     O83600   8.151   6.638   2.093 -0.1302 -0.0211  0.1449
  620MOL0     C83601   8.066   6.708   2.004  0.5636  0.1612 -0.7693
  620MOL0     C83602   7.924   6.712   2.067  0.3692  0.4726  0.6001
  620MOL0     C83603   7.904   6.788   2.201 -0.4077 -1.1829  0.1960
  620MOL0     C83604   7.901   6.936   2.175 -0.0499 -0.1872 -0.1075
  620MOL0     C83605   7.761   6.982   2.211 -0.3193  0.6190 -0.4173
  620MOL0     C83606   7.736   7.126   2.185  0.0173 -0.0986  1.0008
  620MOL0     C83607   7.618   7.187   2.267  0.4606  0.3849 -0.4367
  620MOL0     C83608   7.597   7.330   2.233 -0.2138 -0.4953 -0.2363
  620MOL0    Cl83609   7.561   7.373   2.067 -0.3415  0.1785  0.7082
  620MOL0     C83610   8.320   6.807   2.127  0.2379 -0.5953  0.7615
  620MOL0     C83611   8.451   6.858   2.117 -0.2475 -1.0145 -0.2132
  620MOL0     O83612   8.614   6.995   1.890 -0.4094  0.7699  0.9156
  620MOL0     C83613   8.932   6.919   1.993 -0.2870  0.0820 -0.9573
  620MOL0     C83614   9.060   6.964   1.956  0.6874  0.2918 -0.5267
  620MOL0     N83615   9.654   6.909   2.094 -0.6813 -0.7512  0.7579
  620MOL0     N83616   9.775   6.860   2.079 -1.0127  0.5192  0.3615
  620MOL0     C83617  10.227   6.061   2.638  0.2300 -0.1130  0.3669
  620MOL0     C83618  10.295   5.938   2.629  0.0146 -0.2204 -0.4738
  620MOL0     C83619  10.513   5.570   2.402 -0.2905 -0.2409 -0.7564
  620MOL0     C83620  10.483   5.498   2.513 -0.5144  0.1669  0.5215
  620MOL0     C83621  10.516   5.361   2.525  0.4249 -0.6662  0.3228
  620MOL0     C83622  10.581   5.297   2.434 -0.9277  0.3449  0.3692
  620MOL0     O83623  10.608   5.162   2.440 -0.3618  0.3614 -0.6534
  620MOL0     C83624  10.523   5.078   2.370  0.0511  0.0285 -0.7848
  620MOL0     C83625  10.572   4.935   2.384  0.2273  0.9118 -0.7258
  620MOL0     C83626  10.697   4.902   2.299 -0.6688 -0.9672  0.9987
  620MOL0     C83627  10.681   4.915   2.143  1.1136 -0.4437 -0.2401
  620MOL0     C83628  10.736   5.049   2.113 -0.1552 -0.0908  0.6117
  620MOL0     C83629  10.775   5.164   2.082  0.3688  0.9054 -0.3468
  620MOL0     C83630  10.624   5.372   2.314 -0.6874  0.6164 -0.2736
  620MOL0     C83631  10.596   5.511   2.302 -0.4533 -0.2813 -1.0943
  620MOL0     C83632  10.646   5.586   2.181  0.8744  0.0668 -0.0267
  620MOL0     H83633  10.399   5.961   2.308  0.4433  1.1256 -0.6050
  620MOL0     H83634  10.310   6.166   2.314 -1.9838  1.7833 -0.3882
  620MOL0     H83635  10.104   6.329   2.341 -1.6445 -0.4585  1.2990
  620MOL0     H83636  10.068   6.439   2.464 -1.1536 -0.8028  1.0214
  620MOL0     H83637  10.352   6.379   2.388 -0.1052  0.6474 -0.0746
  620MOL0     H83638  10.302   6.496   2.509 -2.0994  0.0211  0.9063
  620MOL0     H83639  10.249   6.497   2.203 -1.7244 -2.1458  1.5898
  620MOL0     H83640  10.384   6.569   2.277 -1.4434  1.1371 -3.3118
  620MOL0     H83641  10.095   6.652   2.361  0.5755  3.0809  3.3384
  620MOL0     H83642  10.245   6.724   2.414 -0.0452  2.4169 -0.6785
  620MOL0     H83643  10.303   6.793   2.179 -0.0874  0.8574  0.3062
  620MOL0     H83644  10.153   6.732   2.116  3.0113 -1.4823 -1.6673
  620MOL0     H83645  10.034   6.878   2.297  1.8082 -1.8138  0.5035
  620MOL0     H83646  10.177   6.962   2.314 -2.3196  1.7939 -1.1018
  620MOL0     H83647  10.185   7.027   2.058 -0.6363  0.3568  0.8228
  620MOL0     H83648  10.060   7.104   2.143 -0.7982 -0.2604 -1.0956
  620MOL0     H83649  10.022   7.005   1.920  0.3451  0.1980  0.1323
  620MOL0     H83650  10.013   6.845   1.987  0.6816  0.1859 -0.2043
  620MOL0     H83651   9.825   7.192   2.059 -2.2086  0.7505  1.7442
  620MOL0     H83652   9.496   7.120   2.189 -0.3241  1.0989  0.2938
  620MOL0     H83653   9.602   7.252   2.123 -0.3216  0.3602 -1.0121
  620MOL0     H83654   9.382   7.219   2.020 -0.5414  0.4188 -1.2122
  620MOL0     H83655   9.512   7.210   1.896 -0.3370 -1.5303 -1.0400
  620MOL0     H83656   9.361   6.985   2.021 -0.9915  1.4772  0.1517
  620MOL0     H83657   9.488   6.969   1.885 -0.6833 -0.3913 -1.4331
  620MOL0     H83658   9.266   6.965   1.778  1.2095 -0.0195  0.0783
  620MOL0     H83659   9.351   7.113   1.742  1.0127  0.9334  0.2548
  620MOL0     H83660   8.970   7.275   1.855  0.2336 -1.6235 -3.0460
  620MOL0     H83661   8.751   7.190   1.912 -0.1916 -0.6974 -3.0933
  620MOL0     H83662   8.597   6.596   1.955  1.9771  0.3190  1.5894
  620MOL0     H83663   8.368   6.507   1.959 -0.3862 -0.6314  0.3852
  620MOL0     H83664   8.094   6.812   1.984  2.8004 -0.0895  0.7277
  620MOL0     H83665   8.069   6.665   1.903  0.7300 -1.4765 -0.1000
  620MOL0     H83666   7.842   6.742   2.000 -0.5709 -2.0204  0.5516
  620MOL0     H83667   7.909   6.607   2.092 -1.5026  0.2540 -1.1338
  620MOL0     H83668   7.813   6.750   2.249  0.6499 -1.0835  2.4076
  620MOL0     H83669   7.977   6.752   2.275 -1.2143  1.1741  2.2793
  620MOL0     H83670   7.921   6.966   2.072  0.4682 -0.7468 -0.1708
  620MOL0     H83671   7.981   6.972   2.241  0.6781 -1.0578 -0.5008
  620MOL0     H83672   7.753   6.974   2.320  1.8328  0.9337 -0.1804
  620MOL0     H83673   7.697   6.918   2.151  2.4790 -2.9540  0.0969
  620MOL0     H83674   7.825   7.184   2.210 -0.8200  1.8179 -0.2477
  620MOL0     H83675   7.727   7.142   2.077  0.0264 -3.5773  0.3784
  620MOL0     H83676   7.633   7.178   2.375 -1.3757  0.1082 -0.1850
  620MOL0     H83677   7.531   7.126   2.242  1.3574 -0.8194 -0.7638
  620MOL0     H83678   7.507   7.361   2.287  0.0775  0.8687 -0.4952
  620MOL0     H83679   7.679   7.389   2.276 -3.4144  3.1036  1.6381
  620MOL0     H83680   8.250   6.877   2.172  0.5926 -0.3147  0.8823
  620MOL0     H83681   8.465   6.958   2.157 -0.6905 -1.0050 -0.0670
  620MOL0     H83682   8.921   6.817   2.030  0.5601 -0.7738 -2.8810
  620MOL0     H83683   9.149   6.902   1.969  2.9101  3.0114 -1.5515
  620MOL0     H83684  10.159   6.091   2.717  1.2769  3.9716 -0.0478
  620MOL0     H83685  10.302   5.873   2.716  0.3787 -0.4765 -0.6896
  620MOL0     H83686  10.430   5.534   2.602 -1.9847  0.8344 -0.5761
  620MOL0     H83687  10.492   5.306   2.616  0.8173 -0.7456  0.3777
  620MOL0     H83688  10.512   5.101   2.264  0.3573  1.4442 -0.5317
  620MOL0     H83689  10.426   5.078   2.421 -0.0631  1.2978 -0.9578
  620MOL0     H83690  10.485   4.875   2.354  0.4312 -0.8005  1.7589
  620MOL0     H83691  10.604   4.910   2.485 -0.5773  1.5047 -0.3070
  620MOL0     H83692  10.724   4.798   2.319  2.5612  0.0622  2.8176
  620MOL0     H83693  10.780   4.963   2.336  0.4939 -1.5116 -0.5942
  620MOL0     H83694  10.735   4.831   2.097 -1.6274 -1.9143 -0.9985
  620MOL0     H83695  10.581   4.900   2.102  2.1810  1.2740 -3.8753
  620MOL0     H83696  10.812   5.261   2.056 -1.1389  0.3360 -6.1919
  620MOL0     H83697  10.675   5.312   2.239  1.0058 -1.7255  2.5282
  620MOL0     H83698  10.681   5.680   2.226 -2.0337  0.0643  2.5507
  620MOL0     H83699  10.723   5.527   2.131  1.6363 -1.0327  2.3035
  620MOL0     H83700  10.564   5.612   2.113  1.8962  2.5840 -0.4286
  621MOL0     O83701  10.879   2.370   9.024  0.3737  0.3968  0.0034
  621MOL0     C83702  10.759   2.330   9.007  0.1276 -0.4230 -0.1538
  621MOL0     O83703  10.716   2.201   9.028 -0.2100 -0.2355 -0.0968
  621MOL0     C83704  10.782   2.114   9.114 -0.1328  0.2833  0.1882
  621MOL0     C83705  10.852   2.166   9.227  0.2943  0.4316 -0.2732
  621MOL0     C83706  10.915   2.072   9.317 -1.1184 -0.1782 -0.6614
  621MOL0     C83707  10.896   1.937   9.317  0.5808 -0.5567  0.5544
  621MOL0     O83708  10.955   1.862   9.419  0.2078 -0.6727 -1.5324
  621MOL0     C83709  10.945   1.720   9.418 -0.3478  0.0900 -0.5776
  621MOL0     C83710  11.043   1.663   9.520  0.3476 -0.1115  0.6509
  621MOL0     C83711  11.004   1.706   9.663 -0.0265 -0.0878 -0.3095
  621MOL0     C83712  11.116   1.786   9.736 -0.3485  0.6459 -0.1782
  621MOL0     C83713  11.074   1.875   9.844  1.1914  0.1883 -0.5983
  621MOL0     C83714  11.034   2.009   9.789 -0.7054 -0.6186  0.4846
  621MOL0     C83715  10.958   2.107   9.877 -0.4825 -1.5124  0.0077
  621MOL0     C83716  10.824   2.154   9.815  1.4081  0.6042  0.4556
  621MOL0     N83717  10.719   2.074   9.873 -0.7575  0.4913 -0.3722
  621MOL0     C83718  10.701   1.940   9.872 -0.3879  0.8266 -0.2893
  621MOL0     C83719  10.583   1.916   9.930  0.2001  1.1362 -0.3522
  621MOL0     C83720  10.517   1.779   9.945 -0.5921 -0.0828  0.3099
  621MOL0     C83721  10.370   1.770   9.979  1.5794  0.5989  0.0349
  621MOL0     C83722  10.274   1.839   9.876 -0.2440 -0.2768 -0.1461
  621MOL0     C83723  10.128   1.837   9.928 -0.1926 -0.5982  0.5586
  621MOL0     O83724  10.055   1.954   9.885 -0.1756  0.3889 -0.0534
  621MOL0     C83725  10.023   1.959   9.752 -1.0497  1.2082  0.9841
  621MOL0     C83726   9.972   2.081   9.705  0.0807 -0.1377 -0.7933
  621MOL0     C83727   9.930   2.096   9.572 -0.9400 -0.5854  0.1876
  621MOL0     C83728   9.946   1.984   9.477 -0.3252 -0.2469 -0.7952
  621MOL0     C83729   9.921   2.002   9.336 -0.0829  0.9495 -0.0425
  621MOL0     O83730   9.877   2.131   9.310 -0.6198  0.3597  0.0240
  621MOL0     C83731   9.911   2.183   9.187 -1.1946 -0.2902  0.0385
  621MOL0     C83732  10.018   2.266   9.174  0.5076 -0.2520  1.1562
  621MOL0     C83733  10.050   2.333   9.060  0.3854  0.1636 -0.0586
  621MOL0     C83734   9.964   2.318   8.949 -0.0285  0.1628  0.6777
  621MOL0     O83735   9.980   2.380   8.825 -0.8702 -0.1139 -0.5574
  621MOL0     C83736  10.060   2.501   8.827 -0.2539 -0.2865 -0.1552
  621MOL0     C83737  10.048   2.572   8.698  0.1297  0.0075  0.1360
  621MOL0     C83738   9.898   2.606   8.663  0.2941  0.2346  0.0348
  621MOL0     C83739   9.873   2.607   8.518 -0.8297  0.0544  0.8458
  621MOL0     C83740   9.727   2.625   8.495  0.2273 -0.0120  0.3154
  621MOL0     C83741   9.707   2.662   8.347 -0.7412  0.2947  0.1998
  621MOL0     C83742   9.551   2.671   8.313 -0.0551  0.4772  0.0199
  621MOL0     C83743   9.517   2.671   8.164 -0.6159 -0.1369  0.2458
  621MOL0    Cl83744   9.564   2.834   8.111  0.4273 -0.1054 -0.2211
  621MOL0     C83745   9.863   2.220   8.947 -0.0527 -0.4250  0.2211
  621MOL0     C83746   9.842   2.150   9.067 -0.8260 -0.3998  0.9753
  621MOL0     O83747   9.958   1.919   9.256 -0.0938 -0.4334 -0.3919
  621MOL0     C83748  10.003   1.867   9.528 -0.5077 -0.1582 -0.2637
  621MOL0     C83749  10.039   1.850   9.656  0.2135 -0.5969 -1.3953
  621MOL0     N83750  10.545   2.030  10.004  0.7293  0.3338 -1.1930
  621MOL0     N83751  10.626   2.128   9.955  0.2545 -0.1386 -0.0536
  621MOL0     C83752  10.820   1.884   9.209  1.1497  0.6784  0.1662
  621MOL0     C83753  10.759   1.973   9.113 -0.7420  0.2069  0.0908
  621MOL0     C83754  10.659   2.427   8.951  0.3878  0.4925 -0.0084
  621MOL0     C83755  10.559   2.362   8.873  0.5592 -0.0266  0.0186
  621MOL0     C83756  10.489   2.450   8.793 -0.3988  0.6617  0.7863
  621MOL0     C83757  10.504   2.580   8.781 -0.1383 -0.3067  0.8703
  621MOL0     O83758  10.430   2.635   8.673 -0.2437 -0.2836 -0.0915
  621MOL0     C83759  10.495   2.737   8.599 -0.2434  0.8688 -1.1017
  621MOL0     C83760  10.434   2.746   8.459 -0.2872  0.3863  0.4244
  621MOL0     C83761  10.280   2.769   8.477 -0.0390  0.3491  0.6978
  621MOL0     C83762  10.248   2.894   8.552  0.0535 -0.6392  0.2703
  621MOL0     C83763  10.106   2.932   8.540  0.8051  0.1963  0.0284
  621MOL0     C83764   9.999   2.983   8.506 -0.2313  0.3146 -0.6365
  621MOL0     C83765  10.596   2.642   8.869 -0.3841  0.0789  0.4408
  621MOL0     C83766  10.675   2.570   8.952 -0.1413  0.0144  0.3761
  621MOL0     C83767  10.797   2.632   9.015  0.7719 -0.7499 -0.3414
  621MOL0     H83768  10.852   2.272   9.250 -2.1659  0.4957 -0.3113
  621MOL0     H83769  10.977   2.114   9.396 -3.5906 -1.3819  2.0904
  621MOL0     H83770  10.841   1.700   9.447 -0.4587  1.8322  0.3727
  621MOL0     H83771  10.949   1.679   9.317 -1.2672 -0.1831 -0.5163
  621MOL0     H83772  11.142   1.698   9.489  0.0356  1.0769  0.9439
  621MOL0     H83773  11.040   1.555   9.504 -0.9886  0.0673 -0.5315
  621MOL0     H83774  10.979   1.609   9.708 -1.5488 -0.5111 -1.9325
  621MOL0     H83775  10.910   1.761   9.669 -0.8441 -1.3801 -0.8343
  621MOL0     H83776  11.186   1.718   9.786  0.0960  1.1864 -0.0507
  621MOL0     H83777  11.185   1.841   9.670  3.6021 -2.9154  0.5156
  621MOL0     H83778  10.986   1.830   9.890  1.2711 -0.0554 -0.6856
  621MOL0     H83779  11.139   1.890   9.931 -0.9002  0.6076  0.9814
  621MOL0     H83780  11.116   2.052   9.732  0.1669 -2.5886  0.1725
  621MOL0     H83781  10.962   1.995   9.708 -1.1995  2.1972  0.3266
  621MOL0     H83782  11.017   2.197   9.896 -3.6944  0.7464 -0.0246
  621MOL0     H83783  10.943   2.052   9.970 -0.3500 -2.3480 -0.4591
  621MOL0     H83784  10.806   2.261   9.830  1.4552  0.7521 -0.4669
  621MOL0     H83785  10.820   2.136   9.707  2.2481 -0.6619  0.6173
  621MOL0     H83786  10.764   1.869   9.818 -0.1735  0.3274  0.6085
  621MOL0     H83787  10.537   1.722   9.854  0.4635  1.6457 -0.5947
  621MOL0     H83788  10.578   1.727  10.019  2.1666  1.1133 -0.9532
  621MOL0     H83789  10.341   1.664   9.974 -2.5198  1.5810 -2.0984
  621MOL0     H83790  10.353   1.813  10.078 -2.5802 -3.3198  1.4011
  621MOL0     H83791  10.278   1.794   9.776 -3.2295 -0.7242 -0.1490
  621MOL0     H83792  10.308   1.943   9.876  1.4675 -0.7922  0.8269
  621MOL0     H83793  10.125   1.838  10.037 -1.5071  0.6530  0.5457
  621MOL0     H83794  10.090   1.740   9.893  3.8458 -1.3283 -2.5333
  621MOL0     H83795   9.958   2.167   9.769  1.0734  1.0323 -2.0680
  621MOL0     H83796   9.908   2.192   9.527  2.9881  0.0420 -0.7811
  621MOL0     H83797  10.071   2.277   9.268  1.3813  0.0935  0.6299
  621MOL0     H83798  10.135   2.401   9.059  0.6167 -0.0569  1.6703
  621MOL0     H83799  10.027   2.565   8.910  0.2127 -0.9726  0.5831
  621MOL0     H83800  10.168   2.483   8.828  0.0677  1.0703 -2.8237
  621MOL0     H83801  10.097   2.669   8.714  0.7201 -0.7370  3.6436
  621MOL0     H83802  10.094   2.516   8.617  2.4751  2.0493 -0.0866
  621MOL0     H83803   9.827   2.539   8.712 -1.0868 -1.5691 -4.0280
  621MOL0     H83804   9.879   2.709   8.697  3.3411  1.1663 -0.7877
  621MOL0     H83805   9.899   2.509   8.476 -0.3461  0.9754 -1.1340
  621MOL0     H83806   9.929   2.678   8.456 -1.5679  2.1283  2.4495
  621MOL0     H83807   9.680   2.703   8.556 -0.7744 -1.4741  1.4865
  621MOL0     H83808   9.676   2.532   8.523  1.4377 -0.6657  0.4308
  621MOL0     H83809   9.750   2.760   8.323 -1.6316 -0.2115 -4.6108
  621MOL0     H83810   9.750   2.589   8.277 -3.8060 -2.2365  0.7306
  621MOL0     H83811   9.510   2.761   8.359  0.9979  0.6788  0.5808
  621MOL0     H83812   9.489   2.593   8.359  2.0764 -0.8318  0.8418
  621MOL0     H83813   9.570   2.595   8.106 -1.1573  0.4756 -1.1162
  621MOL0     H83814   9.409   2.659   8.152 -1.0619  2.2897  1.1299
  621MOL0     H83815   9.811   2.197   8.854  0.1872  0.7184 -0.2098
  621MOL0     H83816   9.751   2.090   9.065 -0.4376 -0.9884 -0.4140
  621MOL0     H83817  10.025   1.782   9.464  0.1033  0.9138 -1.5333
  621MOL0     H83818  10.069   1.750   9.686 -2.0296 -1.5495 -2.0932
  621MOL0     H83819  10.783   1.782   9.213 -3.3724  1.8626 -3.0206
  621MOL0     H83820  10.696   1.920   9.041 -0.5659 -0.5579  0.4877
  621MOL0     H83821  10.530   2.258   8.874 -1.4593  0.4385 -1.9703
  621MOL0     H83822  10.408   2.401   8.739 -1.5470  1.2544  1.9037
  621MOL0     H83823  10.604   2.725   8.594 -0.3725 -0.5068 -1.1613
  621MOL0     H83824  10.472   2.822   8.663 -4.4327  0.2890 -1.5650
  621MOL0     H83825  10.457   2.657   8.400  3.0144  2.2399 -1.4180
  621MOL0     H83826  10.483   2.833   8.413 -3.0718  1.2118 -1.1877
  621MOL0     H83827  10.235   2.684   8.530 -0.3320  1.2623  1.9632
  621MOL0     H83828  10.232   2.762   8.379  1.0807 -2.9308  0.2691
  621MOL0     H83829  10.256   2.876   8.659 -2.2687 -0.2897  0.5489
  621MOL0     H83830  10.320   2.972   8.526  0.5243 -0.7436  1.2351
  621MOL0     H83831   9.904   3.019   8.470 -1.0047 -1.3968 -0.4111
  621MOL0     H83832  10.614   2.748   8.851 -0.3510 -0.0754 -0.5141
  621MOL0     H83833  10.790   2.580   9.111  1.9703 -2.0176 -0.8893
  621MOL0     H83834  10.898   2.627   8.973  1.0862  0.1338  0.2782
  621MOL0     H83835  10.774   2.738   9.022 -3.7704 -1.3046 -3.1294
  622MOL0     O83836   2.030   6.797   6.150 -0.6385  0.4215  0.0912
  622MOL0     C83837   1.921   6.786   6.101  0.4790  0.2445 -0.7849
  622MOL0     O83838   1.889   6.813   5.972 -0.1830  0.2622 -0.5616
  622MOL0     C83839   1.961   6.909   5.908 -0.7980  0.3446 -0.4460
  622MOL0     C83840   2.016   7.030   5.965  0.0211  0.0050  0.1208
  622MOL0     C83841   2.069   7.127   5.893 -0.5325 -0.5200 -0.2538
  622MOL0     C83842   2.097   7.102   5.757  0.0408 -0.3518 -0.2238
  622MOL0     O83843   2.151   7.202   5.667 -0.2309  0.7975 -0.9041
  622MOL0     C83844   2.267   7.271   5.721 -0.5754  0.2061  0.0754
  622MOL0     C83845   2.369   7.318   5.615 -0.8007 -0.0518  0.3552
  622MOL0     C83846   2.288   7.345   5.489 -0.0891  0.0201 -1.1132
  622MOL0     C83847   2.197   7.469   5.523  0.4737  0.1770  0.7056
  622MOL0     C83848   2.092   7.486   5.411  0.1644  0.6924 -0.9123
  622MOL0     C83849   1.990   7.373   5.425 -0.9391  0.0118 -0.7895
  622MOL0     C83850   1.931   7.346   5.288  0.0586  0.9711 -0.0923
  622MOL0     C83851   1.798   7.270   5.307  0.3847  0.4152 -0.0272
  622MOL0     N83852   1.734   7.214   5.195  0.6043 -0.1523 -0.5323
  622MOL0     C83853   1.662   7.290   5.103  0.1373 -0.3378 -0.0622
  622MOL0     C83854   1.637   7.200   5.002  0.7505 -0.0684  0.0166
  622MOL0     C83855   1.538   7.215   4.882 -0.7829  0.1402  0.0048
  622MOL0     C83856   1.584   7.321   4.779  0.4414 -0.3887 -1.5832
  622MOL0     C83857   1.473   7.394   4.700  0.3930 -0.7798 -0.3401
  622MOL0     C83858   1.400   7.493   4.786  0.9080 -0.1095 -0.0680
  622MOL0     O83859   1.307   7.432   4.876 -0.6150 -0.6362  0.2550
  622MOL0     C83860   1.200   7.359   4.831  0.1126 -0.3308 -0.7283
  622MOL0     C83861   1.152   7.256   4.911 -0.1693 -0.1251  0.1078
  622MOL0     C83862   1.029   7.196   4.889  0.4466  0.2585 -0.0607
  622MOL0     C83863   0.963   7.219   4.768  0.1958  0.1716  1.0110
  622MOL0     C83864   0.835   7.139   4.739 -0.7677 -0.3157  0.3512
  622MOL0     O83865   0.761   7.184   4.629  0.7011  0.2805 -0.2502
  622MOL0     C83866   0.657   7.111   4.575 -0.7307  0.2834 -0.5168
  622MOL0     C83867   0.602   6.978   4.617 -0.5758 -0.7654  0.8199
  622MOL0     C83868   0.489   6.923   4.560  0.2793 -0.0380 -0.5899
  622MOL0     C83869   0.440   6.981   4.446 -0.3671  0.5117  0.1563
  622MOL0     O83870   0.327   6.926   4.383  0.4000  0.7791 -0.0716
  622MOL0     C83871   0.235   6.828   4.436  0.1264  0.1513 -1.0651
  622MOL0     C83872   0.272   6.692   4.366 -0.0604 -0.8523  0.5053
  622MOL0     C83873   0.167   6.654   4.267 -1.9479  0.2376 -1.5735
  622MOL0     C83874   0.209   6.530   4.191 -0.0859 -0.6847  0.2046
  622MOL0     C83875   0.110   6.470   4.093 -0.3200 -0.5384  0.7556
  622MOL0     C83876   0.175   6.346   4.016  1.0300 -1.0099 -0.4697
  622MOL0     C83877   0.075   6.266   3.925  1.1497  0.3240 -0.4571
  622MOL0     C83878   0.057   6.119   3.959  0.0659 -0.5124  0.0667
  622MOL0    Cl83879  -0.070   6.048   3.852 -0.1251  0.0434  0.6920
  622MOL0     C83880   0.497   7.101   4.400  0.6935 -0.3752 -0.6500
  622MOL0     C83881   0.604   7.172   4.465 -1.0034  0.4869  0.0451
  622MOL0     O83882   0.806   7.044   4.812 -0.7866  0.2818 -0.1489
  622MOL0     C83883   1.026   7.297   4.670  0.0085  0.3762  0.0072
  622MOL0     C83884   1.134   7.382   4.706 -0.6670  0.2640 -0.6784
  622MOL0     N83885   1.694   7.075   5.040  0.3175 -0.2844 -0.4233
  622MOL0     N83886   1.762   7.088   5.147  0.2432 -0.2474 -0.1284
  622MOL0     C83887   2.045   6.989   5.691  0.0416 -0.0277  0.3288
  622MOL0     C83888   1.971   6.898   5.771  0.6652  0.8257 -0.4063
  622MOL0     C83889   1.805   6.756   6.194 -0.6914 -0.6236 -0.0981
  622MOL0     C83890   1.674   6.798   6.145 -0.0438 -0.0580 -0.3214
  622MOL0     C83891   1.553   6.768   6.220 -0.6154  0.3112  0.9329
  622MOL0     C83892   1.559   6.703   6.342 -1.0896 -0.5828  0.4373
  622MOL0     O83893   1.435   6.672   6.392 -0.8033  0.5299 -0.0291
  622MOL0     C83894   1.401   6.762   6.493 -0.1487  0.2535 -0.7534
  622MOL0     C83895   1.256   6.736   6.541 -0.6696 -0.0767  0.4450
  622MOL0     C83896   1.144   6.768   6.441  0.8004 -0.6656  0.1087
  622MOL0     C83897   1.011   6.769   6.519 -0.8705  0.2027 -0.2582
  622MOL0     C83898   0.894   6.801   6.439 -0.5180 -0.3535  0.2409
  622MOL0     C83899   0.793   6.841   6.401  0.5031  0.2321  0.6170
  622MOL0     C83900   1.685   6.653   6.393  0.3801  0.2002  0.5662
  622MOL0     C83901   1.806   6.681   6.318 -0.3121  0.7970 -0.1845
  622MOL0     C83902   1.940   6.652   6.391 -0.6520  0.3573 -0.4339
  622MOL0     H83903   2.010   7.043   6.073 -2.1517 -3.8419  0.6434
  622MOL0     H83904   2.085   7.222   5.943 -1.7490 -0.1903 -0.4533
  622MOL0     H83905   2.241   7.360   5.779 -2.4251  0.4935 -1.1184
  622MOL0     H83906   2.311   7.202   5.794 -4.0901 -0.2936  1.9545
  622MOL0     H83907   2.431   7.230   5.600 -0.9035 -0.2691  1.1653
  622MOL0     H83908   2.420   7.407   5.652 -1.5060  0.8574 -0.7555
  622MOL0     H83909   2.238   7.255   5.452 -0.7313  0.8457 -2.3112
  622MOL0     H83910   2.357   7.371   5.409  0.8689 -1.1038 -0.6815
  622MOL0     H83911   2.140   7.459   5.616 -0.0089 -0.2196  0.3718
  622MOL0     H83912   2.259   7.558   5.531  0.2139  0.6563 -1.8098
  622MOL0     H83913   2.034   7.576   5.433  0.2629  0.4979  0.2480
  622MOL0     H83914   2.141   7.482   5.314  3.5656 -1.0244  0.6840
  622MOL0     H83915   2.022   7.281   5.474 -1.2982 -0.9180 -2.2523
  622MOL0     H83916   1.900   7.402   5.479 -2.0313  0.5503 -2.8231
  622MOL0     H83917   1.996   7.269   5.246 -1.9298 -1.7185  1.4386
  622MOL0     H83918   1.931   7.435   5.225  2.2848  1.1999  0.1280
  622MOL0     H83919   1.804   7.186   5.377 -0.1129  0.2456 -0.1817
  622MOL0     H83920   1.738   7.353   5.347  0.4356  1.0384 -1.2093
  622MOL0     H83921   1.643   7.396   5.114 -0.3784 -0.6404  2.5759
  622MOL0     H83922   1.513   7.121   4.831 -1.4869  0.6143 -0.5528
  622MOL0     H83923   1.446   7.250   4.930  0.4942  0.3129  2.5149
  622MOL0     H83924   1.658   7.386   4.827 -0.1907 -0.0463 -1.0561
  622MOL0     H83925   1.639   7.263   4.705  0.3923 -0.3445 -1.6540
  622MOL0     H83926   1.400   7.325   4.658 -1.5874 -1.4640  3.7411
  622MOL0     H83927   1.528   7.442   4.618 -1.6233  0.5587 -0.9748
  622MOL0     H83928   1.342   7.550   4.712 -1.0164 -2.2122 -0.2939
  622MOL0     H83929   1.470   7.558   4.839 -0.7824  0.7747  1.1802
  622MOL0     H83930   1.199   7.239   5.008 -0.0687  2.3684  0.5412
  622MOL0     H83931   0.998   7.132   4.971  2.9952  0.5945  1.2694
  622MOL0     H83932   0.630   6.918   4.704  2.9420  1.0591  1.1256
  622MOL0     H83933   0.449   6.831   4.601 -0.6884 -0.6001 -2.6420
  622MOL0     H83934   0.236   6.825   4.545 -0.8953  2.1602 -0.9499
  622MOL0     H83935   0.134   6.867   4.419 -0.5781 -0.7158  0.8422
  622MOL0     H83936   0.363   6.710   4.309  0.4421  1.5054  1.9224
  622MOL0     H83937   0.281   6.613   4.441 -0.4554  0.4501  1.9851
  622MOL0     H83938   0.071   6.628   4.313 -0.4141 -2.1996  0.4824
  622MOL0     H83939   0.152   6.737   4.197  0.4976  2.7128  0.6101
  622MOL0     H83940   0.246   6.452   4.258  2.4737 -0.5762 -0.9578
  622MOL0     H83941   0.293   6.546   4.123 -1.8032 -2.0654 -2.3782
  622MOL0     H83942   0.087   6.537   4.010 -1.2107  0.8281  2.0449
  622MOL0     H83943   0.017   6.450   4.148  0.1729  0.2938  1.9224
  622MOL0     H83944   0.257   6.389   3.958  1.0685  1.7492  1.4271
  622MOL0     H83945   0.230   6.279   4.084 -0.4055 -3.3501 -1.4925
  622MOL0     H83946   0.117   6.285   3.826  0.2997 -0.4553 -0.9928
  622MOL0     H83947  -0.025   6.309   3.928  0.4222 -1.0200 -2.7142
  622MOL0     H83948   0.152   6.065   3.956 -0.3362 -1.1859 -0.7251
  622MOL0     H83949   0.032   6.105   4.065  1.3733  2.7758  0.9385
  622MOL0     H83950   0.452   7.135   4.307 -4.1588 -0.1575  1.4827
  622MOL0     H83951   0.658   7.250   4.411 -2.1981  2.1898  1.2319
  622MOL0     H83952   0.996   7.300   4.566 -1.4264 -1.5731  0.3056
  622MOL0     H83953   1.151   7.462   4.634 -0.3921 -0.1148 -1.0360
  622MOL0     H83954   2.050   6.989   5.583 -0.4260  1.7243  0.2804
  622MOL0     H83955   1.907   6.829   5.717 -1.9674  3.0541 -0.3598
  622MOL0     H83956   1.674   6.848   6.049  0.4481 -1.4724 -1.0830
  622MOL0     H83957   1.457   6.801   6.183  1.4187  2.5594 -3.1944
  622MOL0     H83958   1.410   6.868   6.467 -1.5218 -0.1903 -3.5183
  622MOL0     H83959   1.467   6.738   6.576  0.3138  0.2623 -1.1191
  622MOL0     H83960   1.247   6.804   6.626 -4.1073 -0.0018  0.1412
  622MOL0     H83961   1.255   6.633   6.578  0.5579 -1.0474 -1.9497
  622MOL0     H83962   1.142   6.682   6.373  1.7410 -2.3173  2.0654
  622MOL0     H83963   1.145   6.860   6.381 -0.0396  1.6438  3.3669
  622MOL0     H83964   0.995   6.667   6.556 -3.8422  0.8249  0.4017
  622MOL0     H83965   1.028   6.836   6.603  1.7015  1.3365 -1.5816
  622MOL0     H83966   0.711   6.895   6.357  1.2340  1.6282  0.8969
  622MOL0     H83967   1.686   6.595   6.484 -3.4768 -2.6809 -0.9139
  622MOL0     H83968   1.999   6.581   6.331 -2.4121 -2.0780  0.5424
  622MOL0     H83969   1.997   6.744   6.405  0.4374 -0.4400  0.6235
  622MOL0     H83970   1.928   6.604   6.489  0.8383 -2.6417 -1.5949
  623MOL0     O83971   5.978   3.827   7.019 -0.4554  0.5241  0.4245
  623MOL0     C83972   5.938   3.924   7.080 -0.7815 -0.5519 -0.1991
  623MOL0     O83973   6.024   4.029   7.107 -0.3031 -0.2222  0.2407
  623MOL0     C83974   6.158   4.035   7.070  0.3250  0.4447  0.2682
  623MOL0     C83975   6.198   4.154   7.006 -0.8261  0.2428  0.1576
  623MOL0     C83976   6.323   4.157   6.959 -1.4415 -0.4746 -0.1411
  623MOL0     C83977   6.428   4.064   6.991 -1.0414 -0.0171 -0.6480
  623MOL0     O83978   6.563   4.061   6.943 -0.9363  0.1525  0.5947
  623MOL0     C83979   6.617   4.194   6.916 -0.0908  0.9607  0.3952
  623MOL0     C83980   6.775   4.182   6.931  0.1645  0.3164 -0.6875
  623MOL0     C83981   6.844   4.204   6.802  0.2661  0.6836  0.2057
  623MOL0     C83982   6.816   4.347   6.739 -0.0861  0.3974  1.2436
  623MOL0     C83983   6.920   4.382   6.635 -0.7618  0.1649 -0.7172
  623MOL0     C83984   7.045   4.444   6.703  0.4898  0.8763  0.3698
  623MOL0     C83985   7.164   4.475   6.606 -0.7377 -0.3932 -0.1174
  623MOL0     C83986   7.130   4.579   6.497 -0.0222  0.4362  0.4056
  623MOL0     N83987   7.087   4.706   6.552  1.0484 -0.3851  0.5151
  623MOL0     C83988   7.154   4.775   6.644 -0.7372  0.2292 -0.0401
  623MOL0     C83989   7.080   4.874   6.680  0.2674 -0.3503  0.0789
  623MOL0     C83990   7.115   4.965   6.790  0.7146  0.0016 -0.1106
  623MOL0     C83991   6.987   5.015   6.862  0.6131 -1.2901 -0.5744
  623MOL0     C83992   6.934   4.914   6.964  0.1079  0.7015 -0.7431
  623MOL0     C83993   6.806   4.945   7.046 -0.7384 -0.4061 -0.0225
  623MOL0     O83994   6.813   5.079   7.100  0.2157  0.2030  0.3079
  623MOL0     C83995   6.902   5.116   7.204  1.2699  0.0606  0.1135
  623MOL0     C83996   6.955   5.025   7.299 -0.0979 -0.5520  0.1670
  623MOL0     C83997   7.038   5.071   7.397  0.4106  0.1882  0.4307
  623MOL0     C83998   7.065   5.208   7.411 -0.9673 -0.9224  0.2412
  623MOL0     C83999   7.146   5.266   7.523  0.9466  0.0067  0.5778
  623MOL0     O84000   7.199   5.171   7.625  0.0755 -0.8696  0.6331
  623MOL0     C84001   7.305   5.199   7.708  0.9888 -0.9684 -0.2431
  623MOL0     C84002   7.399   5.295   7.690 -0.2701 -0.0808 -0.0722
  623MOL0     C84003   7.506   5.308   7.781 -0.3452 -0.0522 -0.5172
  623MOL0     C84004   7.525   5.218   7.890 -0.0357  0.1112  0.6227
  623MOL0     O84005   7.646   5.233   7.967  0.4973 -0.2043  0.0879
  623MOL0     C84006   7.743   5.125   7.967  0.8480 -0.1135  0.7351
  623MOL0     C84007   7.869   5.200   7.999  0.1349 -0.1040  0.4597
  623MOL0     C84008   7.890   5.217   8.151  0.0085  0.6218 -1.1238
  623MOL0     C84009   7.994   5.330   8.189  0.7268  0.9231  0.2582
  623MOL0     C84010   7.988   5.349   8.337  0.5910  0.5257  0.5018
  623MOL0     C84011   8.010   5.505   8.365  0.3159  0.8520  0.4888
  623MOL0     C84012   8.147   5.553   8.317  0.3335  0.1101 -0.5927
  623MOL0     C84013   8.268   5.475   8.368  0.4287 -0.1908 -0.1833
  623MOL0    Cl84014   8.417   5.540   8.316 -0.0582 -0.4206  0.2065
  623MOL0     C84015   7.428   5.118   7.910 -0.5964 -0.8781  0.1188
  623MOL0     C84016   7.319   5.105   7.818 -0.5494 -0.3711 -0.1825
  623MOL0     O84017   7.154   5.381   7.539  0.1655 -0.8490 -0.2967
  623MOL0     C84018   7.009   5.302   7.313  0.0377  0.8223 -0.3823
  623MOL0     C84019   6.923   5.249   7.217 -0.6090 -0.0147  0.2585
  623MOL0     N84020   6.956   4.864   6.608 -0.0362 -0.2040 -0.3668
  623MOL0     N84021   6.967   4.764   6.530 -0.2460 -0.2295  1.0275
  623MOL0     C84022   6.378   3.945   7.055  0.2205 -0.0477 -0.1827
  623MOL0     C84023   6.246   3.942   7.100  0.3010 -0.2846  1.3120
  623MOL0     C84024   5.791   3.935   7.096  0.6409  0.5119 -0.2871
  623MOL0     C84025   5.707   3.821   7.055 -0.2854 -0.3892 -0.1935
  623MOL0     C84026   5.569   3.823   7.066  0.1594 -0.6256 -0.6039
  623MOL0     C84027   5.496   3.941   7.114  0.8168 -0.7001  0.6017
  623MOL0     O84028   5.363   3.954   7.135  0.0137 -0.7894  0.1784
  623MOL0     C84029   5.271   3.870   7.060  0.4439 -1.1093  0.7672
  623MOL0     C84030   5.134   3.920   7.031  0.5116  0.2648  0.4830
  623MOL0     C84031   5.144   4.057   6.958  0.6382  0.5290 -0.2083
  623MOL0     C84032   5.007   4.113   6.932  0.6299 -0.2279  0.7445
  623MOL0     C84033   5.004   4.215   6.827  0.6277 -0.5608  0.4477
  623MOL0     C84034   5.018   4.282   6.728  0.1809 -0.5502 -0.0056
  623MOL0     C84035   5.572   4.048   7.158  0.8364 -0.6442 -0.3899
  623MOL0     C84036   5.720   4.047   7.146  1.1058  0.0603  0.5129
  623MOL0     C84037   5.790   4.166   7.210  0.3993  1.0190  0.3946
  623MOL0     H84038   6.124   4.231   6.986 -2.4134 -0.8329  1.6812
  623MOL0     H84039   6.362   4.243   6.906  3.0425 -2.4486 -0.5836
  623MOL0     H84040   6.594   4.226   6.815  0.9622 -2.9538 -1.2808
  623MOL0     H84041   6.582   4.264   6.993 -1.0313  1.1297 -0.1793
  623MOL0     H84042   6.800   4.083   6.970  0.9080 -0.3809 -2.8110
  623MOL0     H84043   6.811   4.260   6.999 -0.6500 -0.2510  0.4354
  623MOL0     H84044   6.810   4.128   6.731 -0.0939  1.6968 -0.7318
  623MOL0     H84045   6.950   4.185   6.821 -0.0743  0.2312  1.7137
  623MOL0     H84046   6.721   4.337   6.687  0.1726 -2.7370  1.1851
  623MOL0     H84047   6.813   4.424   6.816 -0.4261  1.5523  0.0983
  623MOL0     H84048   6.954   4.296   6.576  2.5318  2.0324 -1.8438
  623MOL0     H84049   6.871   4.450   6.566  1.8903 -0.9045 -3.9613
  623MOL0     H84050   7.022   4.540   6.752 -1.5587  1.1003 -0.9010
  623MOL0     H84051   7.083   4.374   6.778  2.1259  0.3789 -0.8746
  623MOL0     H84052   7.186   4.374   6.570 -0.0298 -0.3344  0.1517
  623MOL0     H84053   7.244   4.518   6.665  0.8951 -0.2615 -2.2934
  623MOL0     H84054   7.215   4.590   6.429  0.7364 -0.7800  1.1123
  623MOL0     H84055   7.055   4.530   6.435  1.8569 -2.1907  0.0408
  623MOL0     H84056   7.248   4.743   6.687 -0.3808  3.5222  1.9789
  623MOL0     H84057   7.173   4.920   6.871  1.0077  1.1512  0.3278
  623MOL0     H84058   7.169   5.048   6.744  4.0415 -3.3148 -2.8353
  623MOL0     H84059   7.023   5.098   6.924  1.6727 -0.8939 -1.6727
  623MOL0     H84060   6.920   5.069   6.795 -0.2003 -0.7947  0.6034
  623MOL0     H84061   7.005   4.902   7.046 -2.1469  0.2199  1.2235
  623MOL0     H84062   6.922   4.819   6.910  0.3582 -2.2708  3.9177
  623MOL0     H84063   6.794   4.874   7.128  1.0496 -1.1972 -0.3827
  623MOL0     H84064   6.713   4.931   6.992 -1.2130  0.7410  0.4685
  623MOL0     H84065   6.932   4.920   7.307  2.5501 -1.1485  0.9288
  623MOL0     H84066   7.081   4.993   7.459  3.4173 -1.1180 -2.9318
  623MOL0     H84067   7.394   5.369   7.610  0.5011 -1.7177 -1.7342
  623MOL0     H84068   7.577   5.385   7.754  1.1376 -1.4465 -0.7307
  623MOL0     H84069   7.716   5.047   8.039 -0.0773 -0.9817 -0.4987
  623MOL0     H84070   7.752   5.080   7.868 -0.0532  1.8889 -0.3169
  623MOL0     H84071   7.946   5.133   7.960 -0.4059 -1.3966  1.5055
  623MOL0     H84072   7.877   5.295   7.946  0.2459 -1.4539 -2.1207
  623MOL0     H84073   7.793   5.246   8.194 -1.4453 -1.4341 -2.8333
  623MOL0     H84074   7.928   5.126   8.197  1.3618  1.7385  0.0828
  623MOL0     H84075   7.981   5.424   8.134  0.3685 -0.7276 -2.7209
  623MOL0     H84076   8.098   5.312   8.160  0.6738  1.7843 -0.5207
  623MOL0     H84077   8.064   5.288   8.386 -0.5074 -1.4349 -0.1194
  623MOL0     H84078   7.891   5.307   8.365 -0.6125  1.2944 -2.2422
  623MOL0     H84079   7.930   5.569   8.324 -0.0922  0.6492  0.9600
  623MOL0     H84080   8.001   5.507   8.474 -0.2910 -0.0345  0.4611
  623MOL0     H84081   8.155   5.653   8.361 -0.1002  0.2471 -0.8215
  623MOL0     H84082   8.148   5.552   8.208 -0.3120  0.7422 -0.6195
  623MOL0     H84083   8.256   5.478   8.477  0.5338  1.7650 -0.1732
  623MOL0     H84084   8.246   5.376   8.329 -3.9762  1.1265 -1.6931
  623MOL0     H84085   7.446   5.034   7.976  1.7154 -0.3297  0.2841
  623MOL0     H84086   7.256   5.017   7.826 -0.4397 -0.3922  0.4868
  623MOL0     H84087   7.024   5.409   7.325  0.1347  0.7317  0.3450
  623MOL0     H84088   6.887   5.327   7.150  5.1457  1.3673 -1.8064
  623MOL0     H84089   6.444   3.863   7.080 -1.2125 -0.5937  2.1784
  623MOL0     H84090   6.209   3.859   7.161 -0.1861  0.8744  2.6564
  623MOL0     H84091   5.754   3.735   7.009 -2.6824 -0.0957 -3.5374
  623MOL0     H84092   5.514   3.731   7.050  2.1941 -2.1223  0.4458
  623MOL0     H84093   5.261   3.770   7.105  2.0860 -1.7434 -0.1899
  623MOL0     H84094   5.319   3.844   6.965 -1.4499  0.0772 -0.5902
  623MOL0     H84095   5.094   3.957   7.127 -0.4532 -0.9712  0.5872
  623MOL0     H84096   5.071   3.841   6.989  2.0035  0.8928 -3.3118
  623MOL0     H84097   5.190   4.046   6.859 -0.5710  2.1560 -0.9969
  623MOL0     H84098   5.193   4.136   7.015  1.9989 -1.1519  1.0560
  623MOL0     H84099   4.940   4.030   6.910 -1.4085  1.5975 -0.3761
  623MOL0     H84100   4.963   4.160   7.021  1.1589  1.1666  0.3013
  623MOL0     H84101   5.045   4.334   6.638  2.2015  1.3119  1.5836
  623MOL0     H84102   5.531   4.140   7.198  0.5030  0.5138 -3.1636
  623MOL0     H84103   5.836   4.232   7.136  0.5919  0.5450  0.0896
  623MOL0     H84104   5.726   4.225   7.277 -0.1374 -2.0737  2.8612
  623MOL0     H84105   5.866   4.126   7.277 -1.5973  2.2313  3.6159
  624MOL0     O84106   1.755   8.366   9.146 -0.3373  0.1768 -0.6020
  624MOL0     C84107   1.835   8.461   9.120  0.2418  0.2388  0.2327
  624MOL0     O84108   1.878   8.549   9.214 -0.5835 -0.2713  0.2036
  624MOL0     C84109   1.829   8.527   9.343  0.0522  0.6091 -0.9690
  624MOL0     C84110   1.736   8.614   9.398 -0.2191  0.2508 -1.3544
  624MOL0     C84111   1.698   8.599   9.533 -0.4694 -0.9813  1.3810
  624MOL0     C84112   1.731   8.484   9.594 -0.0502  0.3065  0.2380
  624MOL0     O84113   1.678   8.473   9.720  0.7567  0.5278  0.9692
  624MOL0     C84114   1.673   8.349   9.791  0.1653  1.2666  0.0716
  624MOL0     C84115   1.584   8.367   9.908  0.1610 -0.8680 -0.4218
  624MOL0     C84116   1.450   8.437   9.881  0.2949  0.3632 -0.3066
  624MOL0     C84117   1.437   8.575   9.948 -0.6036 -0.0322 -0.0953
  624MOL0     C84118   1.348   8.667   9.868  0.6158  0.1095 -0.0576
  624MOL0     C84119   1.360   8.807   9.935 -0.0292  0.3902 -0.0403
  624MOL0     C84120   1.260   8.916   9.877  0.3797 -0.1478 -0.4903
  624MOL0     C84121   1.112   8.892   9.904  0.3743  0.8068 -0.4683
  624MOL0     N84122   1.081   8.847  10.046 -0.2636 -0.1368 -0.4250
  624MOL0     C84123   1.105   8.922  10.154 -1.0905  0.3180 -0.0383
  624MOL0     C84124   1.080   8.826  10.252  0.3596 -0.0259 -0.0111
  624MOL0     C84125   1.095   8.849  10.406  0.7153  0.6964  0.9422
  624MOL0     C84126   1.115   8.710  10.485 -0.1927  0.1974  0.4546
  624MOL0     C84127   1.247   8.643  10.465  0.7303  0.4238  0.4518
  624MOL0     C84128   1.264   8.514  10.548  0.2081 -0.5701 -0.7302
  624MOL0     O84129   1.260   8.556  10.682 -0.0223 -0.1346 -0.4050
  624MOL0     C84130   1.310   8.475  10.779 -0.6057 -0.1745 -0.1401
  624MOL0     C84131   1.303   8.334  10.772 -0.1469  0.3770 -0.0271
  624MOL0     C84132   1.345   8.256  10.879 -0.4996 -0.5226  0.1974
  624MOL0     C84133   1.388   8.325  11.001  0.2263 -0.1002  0.5769
  624MOL0     C84134   1.441   8.247  11.120  0.0041 -0.9292  0.1243
  624MOL0     O84135   1.464   8.123  11.108  0.5218  0.0238  0.2841
  624MOL0     C84136   1.505   8.045  11.215 -0.2615  0.1414 -0.9165
  624MOL0     C84137   1.483   7.910  11.202  0.3553 -0.6325 -1.1653
  624MOL0     C84138   1.528   7.811  11.297  0.0034  0.6491 -0.5903
  624MOL0     C84139   1.613   7.850  11.400 -0.0717 -1.1216  0.3006
  624MOL0     O84140   1.676   7.770  11.495 -0.5069 -0.1577 -0.4752
  624MOL0     C84141   1.648   7.633  11.514  0.1777  0.0398 -0.0139
  624MOL0     C84142   1.732   7.555  11.409 -0.1796 -0.3037 -0.0486
  624MOL0     C84143   1.716   7.409  11.434 -0.4828  0.2099 -0.1958
  624MOL0     C84144   1.810   7.372  11.553  0.1837 -0.6369  0.1728
  624MOL0     C84145   1.803   7.226  11.586  0.4904 -0.3399  0.1535
  624MOL0     C84146   1.679   7.192  11.671 -0.1075  0.2119 -0.1775
  624MOL0     C84147   1.707   7.060  11.744 -0.4104  0.4719 -0.2645
  624MOL0     C84148   1.606   7.022  11.857 -0.4208 -0.0250  0.4792
  624MOL0    Cl84149   1.643   6.859  11.926  0.1563 -0.1759 -0.2782
  624MOL0     C84150   1.656   7.988  11.398 -0.9582 -0.2647  0.6287
  624MOL0     C84151   1.603   8.082  11.311 -0.6537  0.0415 -0.1151
  624MOL0     O84152   1.466   8.318  11.219 -0.5054 -0.2404 -0.4301
  624MOL0     C84153   1.386   8.470  11.002  0.2630 -0.4390  0.1372
  624MOL0     C84154   1.341   8.549  10.898  0.1338 -0.6363  0.7577
  624MOL0     N84155   1.042   8.703  10.200 -0.0069 -0.0176  0.9826
  624MOL0     N84156   1.047   8.719  10.072 -0.3278 -0.1582 -1.2439
  624MOL0     C84157   1.815   8.386   9.529  0.0846 -0.2573 -0.2678
  624MOL0     C84158   1.855   8.407   9.403 -0.3727  0.1519 -0.2676
  624MOL0     C84159   1.863   8.490   8.973  0.3404 -0.5639 -0.4160
  624MOL0     C84160   1.969   8.590   8.945 -0.5672  0.7225  0.2562
  624MOL0     C84161   2.014   8.624   8.820  0.5202 -1.1830  1.0225
  624MOL0     C84162   1.959   8.553   8.710  0.4478 -0.2935 -0.1969
  624MOL0     O84163   2.000   8.579   8.587  0.0214 -0.1071  0.6495
  624MOL0     C84164   2.088   8.476   8.537  0.2607 -0.1379 -0.1717
  624MOL0     C84165   2.122   8.498   8.392 -0.6789 -0.3384  0.1526
  624MOL0     C84166   1.997   8.524   8.292 -0.4335  0.4824 -0.1613
  624MOL0     C84167   1.951   8.388   8.242  0.6084 -0.1436 -0.1838
  624MOL0     C84168   2.046   8.320   8.151 -0.3296  0.4905 -0.1409
  624MOL0     C84169   2.139   8.300   8.070  0.4048  0.0625 -1.6076
  624MOL0     C84170   1.866   8.451   8.733  0.0432  0.5965 -0.9870
  624MOL0     C84171   1.814   8.415   8.858 -0.7188  0.6957 -0.5499
  624MOL0     C84172   1.697   8.310   8.872  0.4045 -0.0772 -0.9598
  624MOL0     H84173   1.706   8.706   9.350 -2.1988  1.4109  1.7753
  624MOL0     H84174   1.633   8.676   9.574  1.5899  1.7251 -0.1298
  624MOL0     H84175   1.637   8.271   9.722  1.9012  1.1834 -0.7952
  624MOL0     H84176   1.777   8.326   9.816 -0.2901 -0.9885  0.1621
  624MOL0     H84177   1.649   8.429   9.970 -0.2463  1.1492 -1.8767
  624MOL0     H84178   1.570   8.274   9.963 -1.2881 -1.6984 -2.0940
  624MOL0     H84179   1.372   8.367   9.913  0.5506  0.8165  1.3664
  624MOL0     H84180   1.430   8.447   9.774 -0.9308  0.5066 -0.0880
  624MOL0     H84181   1.404   8.571  10.052  0.8575 -2.5439  0.3468
  624MOL0     H84182   1.537   8.617   9.961 -0.8823  0.5583  0.1611
  624MOL0     H84183   1.384   8.687   9.766 -0.3841 -0.0861 -0.4631
  624MOL0     H84184   1.247   8.626   9.866  1.5290 -2.3196 -2.0284
  624MOL0     H84185   1.355   8.802  10.044  0.5581 -2.0020 -0.0851
  624MOL0     H84186   1.463   8.840   9.917  0.2521  0.1939  1.1606
  624MOL0     H84187   1.276   8.946   9.773 -0.4105  1.2464 -0.2408
  624MOL0     H84188   1.282   9.007   9.934 -0.9652 -0.5936  0.7889
  624MOL0     H84189   1.048   8.977   9.878  1.4990  0.7993 -3.7018
  624MOL0     H84190   1.074   8.810   9.842  1.3503 -0.0875  0.0942
  624MOL0     H84191   1.134   9.027  10.155  0.8635 -0.1148 -2.0614
  624MOL0     H84192   1.189   8.905  10.407  0.0764  1.8136  0.6370
  624MOL0     H84193   1.018   8.907  10.458  2.3550  1.9249  2.1045
  624MOL0     H84194   1.092   8.718  10.592  0.0092  0.9445  0.4494
  624MOL0     H84195   1.042   8.637  10.448  2.4890 -1.8095 -1.2063
  624MOL0     H84196   1.332   8.711  10.479  1.7324 -0.2250 -1.9444
  624MOL0     H84197   1.254   8.622  10.358  1.5124  1.8975  0.1862
  624MOL0     H84198   1.363   8.474  10.525  0.2906 -0.1672 -1.1039
  624MOL0     H84199   1.194   8.431  10.533  0.4169 -0.7856 -0.5137
  624MOL0     H84200   1.269   8.280  10.684  1.3192 -0.6057 -0.0334
  624MOL0     H84201   1.341   8.147  10.873 -0.9812 -0.6218  1.8479
  624MOL0     H84202   1.426   7.887  11.113 -1.4431 -0.4512 -0.0959
  624MOL0     H84203   1.509   7.705  11.285  0.2746  0.8610 -3.6758
  624MOL0     H84204   1.658   7.593  11.616 -0.0640 -1.6795 -0.6245
  624MOL0     H84205   1.541   7.616  11.494  0.8376 -2.9249 -1.6316
  624MOL0     H84206   1.700   7.586  11.309 -0.6715 -0.5384  0.0335
  624MOL0     H84207   1.835   7.587  11.429 -0.5826 -1.5955  6.1698
  624MOL0     H84208   1.614   7.384  11.464  0.7160 -0.3967  3.9632
  624MOL0     H84209   1.745   7.356  11.342 -1.1072 -1.8178  0.7062
  624MOL0     H84210   1.785   7.435  11.639 -2.0554 -0.0743 -0.8298
  624MOL0     H84211   1.913   7.404  11.535  0.2630 -0.6826  0.5260
  624MOL0     H84212   1.896   7.196  11.636  0.2053 -0.9432  0.3406
  624MOL0     H84213   1.802   7.169  11.493 -0.6493  1.9424 -1.3020
  624MOL0     H84214   1.656   7.266  11.748  2.2918  1.0921 -0.2149
  624MOL0     H84215   1.596   7.181  11.600  0.0630 -1.8066 -0.1147
  624MOL0     H84216   1.801   7.079  11.796 -1.5278 -0.1847  2.1066
  624MOL0     H84217   1.726   6.979  11.673  0.1632 -0.3708  0.8239
  624MOL0     H84218   1.613   7.100  11.933  1.0954  1.5147 -1.1521
  624MOL0     H84219   1.505   7.020  11.814  0.5450  1.5755 -2.1056
  624MOL0     H84220   1.740   8.022  11.457 -0.2154  0.1498 -0.6339
  624MOL0     H84221   1.637   8.185  11.307 -0.2496 -0.0533  0.5849
  624MOL0     H84222   1.418   8.512  11.097  1.9842 -0.4230 -0.4219
  624MOL0     H84223   1.333   8.657  10.895 -0.7085 -0.7116 -0.6863
  624MOL0     H84224   1.836   8.292   9.581 -0.2484  0.2686  0.8502
  624MOL0     H84225   1.925   8.330   9.371 -1.4248 -1.0797  0.3197
  624MOL0     H84226   2.028   8.636   9.023 -0.5065 -0.1003  0.7124
  624MOL0     H84227   2.095   8.697   8.808 -1.5093  1.0320 -0.1027
  624MOL0     H84228   2.038   8.380   8.551 -0.5153  0.3140  0.2484
  624MOL0     H84229   2.176   8.473   8.603 -0.4617  1.3998  0.9512
  624MOL0     H84230   2.184   8.411   8.365 -0.2946 -0.1711  0.4907
  624MOL0     H84231   2.193   8.581   8.398 -0.9954 -0.1633  2.1830
  624MOL0     H84232   2.018   8.582   8.202  1.1510  1.5095  0.8272
  624MOL0     H84233   1.911   8.566   8.345 -2.5022 -2.4441 -0.9347
  624MOL0     H84234   1.906   8.338   8.328  0.9492  2.2359  1.4658
  624MOL0     H84235   1.863   8.412   8.182 -1.2871  0.5768  2.6750
  624MOL0     H84236   2.197   8.279   7.983  0.7035  1.3060 -1.7233
  624MOL0     H84237   1.831   8.392   8.649 -0.5811  1.1270 -1.1121
  624MOL0     H84238   1.730   8.225   8.934 -1.5333  0.6473  1.2461
  624MOL0     H84239   1.621   8.367   8.926 -1.0944  0.0553 -3.1131
  624MOL0     H84240   1.654   8.268   8.781 -2.7013 -2.4669  1.3581
  625MOL0     O84241   6.279   2.087   9.591 -0.7767  0.3372 -0.4914
  625MOL0     C84242   6.322   2.203   9.603 -0.2537 -0.3856  0.2837
  625MOL0     O84243   6.452   2.239   9.602  0.4334  0.2459 -0.1204
  625MOL0     C84244   6.551   2.153   9.564  0.3092 -0.8766 -0.0505
  625MOL0     C84245   6.638   2.181   9.461  0.1236 -0.2320  0.3563
  625MOL0     C84246   6.723   2.080   9.416 -0.2196  0.6083  0.4960
  625MOL0     C84247   6.738   1.957   9.492 -0.0433  0.1980  0.3180
  625MOL0     O84248   6.838   1.866   9.456  0.1004 -0.8490 -0.5139
  625MOL0     C84249   6.779   1.734   9.425 -0.2289  0.7935  0.1346
  625MOL0     C84250   6.841   1.679   9.302  0.3304 -0.6167 -0.2995
  625MOL0     C84251   6.815   1.757   9.164 -0.3068 -1.0512 -0.1494
  625MOL0     C84252   6.680   1.818   9.150  0.4664 -0.2364  0.9530
  625MOL0     C84253   6.638   1.854   9.006 -0.0850 -0.1121 -0.1608
  625MOL0     C84254   6.700   1.994   8.986 -0.2960 -0.6329  0.1453
  625MOL0     C84255   6.646   2.053   8.850  0.0805  0.4645  0.7013
  625MOL0     C84256   6.723   2.185   8.812 -0.7672  0.0753  0.3514
  625MOL0     N84257   6.806   2.161   8.691  0.5546 -0.3356  0.2457
  625MOL0     C84258   6.751   2.140   8.565 -0.8934 -0.9130  0.4427
  625MOL0     C84259   6.865   2.115   8.496 -0.6890 -0.6408  1.3011
  625MOL0     C84260   6.874   2.068   8.349 -0.2857  0.3488 -0.0253
  625MOL0     C84261   6.864   1.912   8.346 -0.5855 -0.9994  0.6454
  625MOL0     C84262   6.891   1.867   8.198  1.5730  0.6961  0.1190
  625MOL0     C84263   6.801   1.921   8.083 -0.4345 -1.1034 -0.5624
  625MOL0     O84264   6.667   1.882   8.119 -0.1343 -0.8325  0.2024
  625MOL0     C84265   6.562   1.909   8.033 -0.3086 -0.8178  0.7420
  625MOL0     C84266   6.430   1.877   8.068 -1.0156 -0.3703 -0.6288
  625MOL0     C84267   6.325   1.905   7.980  0.5441 -1.1296 -1.0454
  625MOL0     C84268   6.346   1.936   7.851 -0.6896 -0.3036 -0.2202
  625MOL0     C84269   6.230   1.947   7.747 -0.2399 -0.9862 -0.0738
  625MOL0     O84270   6.101   1.906   7.790 -0.7187 -0.6608  0.1102
  625MOL0     C84271   5.993   1.930   7.710  0.0334 -1.1658  0.1899
  625MOL0     C84272   5.921   1.817   7.676  0.1555  0.0553  0.2719
  625MOL0     C84273   5.803   1.831   7.595 -0.5076 -0.2331  0.4179
  625MOL0     C84274   5.752   1.959   7.552 -0.6685  0.1976  0.1054
  625MOL0     O84275   5.654   1.969   7.466  0.5556 -0.0693  0.5634
  625MOL0     C84276   5.544   2.055   7.505  1.1972  0.0121  0.1011
  625MOL0     C84277   5.410   1.991   7.516 -0.1930  0.4382 -0.1853
  625MOL0     C84278   5.399   1.889   7.627  0.1630  0.8620 -0.7778
  625MOL0     C84279   5.259   1.823   7.635  0.7864 -0.4452  0.7555
  625MOL0     C84280   5.259   1.726   7.749 -0.2845  0.1532 -0.2311
  625MOL0     C84281   5.172   1.599   7.731  0.2296  0.0544 -0.3589
  625MOL0     C84282   5.173   1.505   7.860 -0.3161  0.4001  0.0098
  625MOL0     C84283   5.083   1.525   7.977 -0.3696  0.0937  0.7312
  625MOL0    Cl84284   4.914   1.496   7.949  0.2521  0.0783  0.3877
  625MOL0     C84285   5.835   2.070   7.588 -0.3173 -0.2347  0.5234
  625MOL0     C84286   5.954   2.062   7.663  0.9793 -0.2954 -0.4508
  625MOL0     O84287   6.260   1.999   7.641 -0.5090  0.6964  0.6149
  625MOL0     C84288   6.479   1.960   7.814 -0.5992  0.5018 -0.1418
  625MOL0     C84289   6.584   1.954   7.899  0.0437  0.2235  0.1027
  625MOL0     N84290   6.975   2.128   8.568 -0.5036 -0.3690 -0.2721
  625MOL0     N84291   6.938   2.153   8.686 -0.7632 -0.0006  0.3171
  625MOL0     C84292   6.659   1.945   9.600  0.0276  0.2961 -0.3587
  625MOL0     C84293   6.565   2.037   9.630  0.7110 -0.7176 -0.8060
  625MOL0     C84294   6.230   2.316   9.587  0.9864 -0.3671 -1.0261
  625MOL0     C84295   6.281   2.431   9.533  0.3346  0.3016  1.0653
  625MOL0     C84296   6.208   2.541   9.512  1.2901 -0.0826 -1.1446
  625MOL0     C84297   6.077   2.546   9.565  0.1225  0.5042  0.0617
  625MOL0     O84298   6.020   2.669   9.539 -0.7952  0.3340  0.1811
  625MOL0     C84299   5.887   2.689   9.595 -0.6275 -0.3205 -0.0799
  625MOL0     C84300   5.846   2.839   9.610 -0.0996  0.5617 -0.0709
  625MOL0     C84301   5.963   2.925   9.656  0.0165  0.7826  0.6365
  625MOL0     C84302   5.937   3.075   9.694  0.0844  0.9190 -0.5160
  625MOL0     C84303   6.057   3.159   9.688  0.2703  0.0371  0.5410
  625MOL0     C84304   6.165   3.211   9.693  0.1305 -0.2558 -0.1147
  625MOL0     C84305   6.022   2.432   9.621  0.1099 -0.9267 -0.1503
  625MOL0     C84306   6.093   2.311   9.626 -0.4147 -0.1800  0.0492
  625MOL0     C84307   6.028   2.193   9.681 -0.5399  0.0276 -0.1090
  625MOL0     H84308   6.631   2.267   9.396 -0.6048  0.1811  0.9643
  625MOL0     H84309   6.792   2.108   9.337  0.8287 -0.5849  0.9473
  625MOL0     H84310   6.793   1.666   9.510 -1.5962  0.5972  0.2146
  625MOL0     H84311   6.670   1.729   9.415 -0.2372  2.8527 -1.4195
  625MOL0     H84312   6.798   1.582   9.278  0.1170 -0.7490  0.5802
  625MOL0     H84313   6.949   1.665   9.314  0.6182  1.2884 -0.3587
  625MOL0     H84314   6.844   1.709   9.071 -1.6705  0.5620 -1.4884
  625MOL0     H84315   6.882   1.843   9.170 -0.6120 -0.4069 -3.6646
  625MOL0     H84316   6.611   1.740   9.183  1.5886 -1.5723  0.2696
  625MOL0     H84317   6.672   1.910   9.208  0.8562  1.9410 -2.1961
  625MOL0     H84318   6.673   1.779   8.936  0.3253  2.2523 -2.6585
  625MOL0     H84319   6.529   1.854   8.995 -0.2291  1.7439  0.7296
  625MOL0     H84320   6.671   2.066   9.063 -1.9371  0.5984 -1.5143
  625MOL0     H84321   6.806   1.971   8.979 -0.2945 -0.4027 -0.7726
  625MOL0     H84322   6.538   2.071   8.859 -0.6310 -2.9605  0.3774
  625MOL0     H84323   6.661   1.974   8.776  0.5954  1.2269 -0.0127
  625MOL0     H84324   6.658   2.272   8.796 -0.1182  0.3588 -0.8263
  625MOL0     H84325   6.791   2.223   8.889  0.9335  1.5168 -1.7649
  625MOL0     H84326   6.647   2.118   8.545 -1.1350 -0.7432  1.4565
  625MOL0     H84327   6.795   2.113   8.289  1.2806  0.6500 -1.9864
  625MOL0     H84328   6.965   2.107   8.302 -0.1382 -1.8986 -1.7502
  625MOL0     H84329   6.945   1.868   8.404  1.2655  1.9137  0.4670
  625MOL0     H84330   6.768   1.876   8.386  0.2304 -1.9636  1.8125
  625MOL0     H84331   6.871   1.760   8.194 -0.6820  0.9133  2.6367
  625MOL0     H84332   7.000   1.880   8.192  2.7081 -3.7239  4.4138
  625MOL0     H84333   6.828   1.878   7.987  0.2076 -1.0192 -0.4239
  625MOL0     H84334   6.816   2.029   8.073 -1.1173 -1.0663 -1.3205
  625MOL0     H84335   6.423   1.826   8.163  3.8181 -0.9163 -0.3044
  625MOL0     H84336   6.232   1.923   8.032  2.1463  0.4479  1.5140
  625MOL0     H84337   5.948   1.719   7.713  0.1722  0.1127  0.4131
  625MOL0     H84338   5.741   1.744   7.578 -0.0762 -1.3704  3.8930
  625MOL0     H84339   5.562   2.103   7.602 -0.0231 -0.4146  0.5569
  625MOL0     H84340   5.530   2.140   7.437 -0.2626 -0.0537  0.2947
  625MOL0     H84341   5.347   2.078   7.538 -1.5763 -0.4700 -0.4082
  625MOL0     H84342   5.386   1.940   7.422 -1.1683 -3.1234  1.7989
  625MOL0     H84343   5.487   1.826   7.615  2.3607  3.6752 -0.3033
  625MOL0     H84344   5.425   1.940   7.720  1.3098  1.1962 -1.2596
  625MOL0     H84345   5.236   1.769   7.543  2.3129 -3.6933  2.1204
  625MOL0     H84346   5.184   1.902   7.638 -1.1988 -1.7629 -4.0486
  625MOL0     H84347   5.222   1.778   7.838  2.3691 -0.1587  1.1370
  625MOL0     H84348   5.359   1.693   7.775 -0.4799  1.0742  1.8392
  625MOL0     H84349   5.068   1.630   7.717 -0.4523 -1.2542  1.3585
  625MOL0     H84350   5.208   1.544   7.643 -0.0355 -0.6185 -0.0516
  625MOL0     H84351   5.273   1.523   7.901  0.0353 -1.1840 -0.0930
  625MOL0     H84352   5.151   1.408   7.814 -1.4775  0.7007 -0.0885
  625MOL0     H84353   5.110   1.448   8.051 -0.9438 -0.9900 -0.1575
  625MOL0     H84354   5.092   1.622   8.026 -0.7002  1.1112 -1.1407
  625MOL0     H84355   5.802   2.165   7.549  1.0158 -0.2694 -0.8050
  625MOL0     H84356   6.006   2.153   7.691 -1.1330  0.9697 -0.4077
  625MOL0     H84357   6.502   1.987   7.711  0.6763 -1.7571 -0.5146
  625MOL0     H84358   6.683   1.975   7.860  1.0290 -1.7499  1.3822
  625MOL0     H84359   6.666   1.848   9.648 -1.2866  0.2814 -0.1368
  625MOL0     H84360   6.501   2.014   9.714  1.3938 -1.7677 -0.5566
  625MOL0     H84361   6.382   2.458   9.503 -0.4108 -0.6260 -2.9073
  625MOL0     H84362   6.247   2.630   9.463 -1.1823  2.2400  0.7949
  625MOL0     H84363   5.872   2.644   9.694  1.5756 -1.1402 -0.0558
  625MOL0     H84364   5.815   2.642   9.528 -0.2472 -0.6047 -0.2902
  625MOL0     H84365   5.752   2.853   9.665  1.2888 -0.6325  2.7993
  625MOL0     H84366   5.828   2.877   9.509  0.3969  0.7078 -0.1058
  625MOL0     H84367   6.035   2.921   9.574 -1.1257 -0.2422 -0.3417
  625MOL0     H84368   6.008   2.883   9.747  0.7309  0.1727  0.0183
  625MOL0     H84369   5.870   3.119   9.619  0.2204  1.3696 -0.3766
  625MOL0     H84370   5.901   3.077   9.798  1.4349  0.3379 -0.0220
  625MOL0     H84371   6.262   3.255   9.688  0.4543 -1.0107 -0.5842
  625MOL0     H84372   5.915   2.423   9.635 -0.4331  1.7116 -1.6839
  625MOL0     H84373   5.926   2.217   9.714  0.2715  2.3949  0.8863
  625MOL0     H84374   6.025   2.109   9.610  0.9731 -0.8341  0.8006
  625MOL0     H84375   6.079   2.150   9.767 -0.1878 -0.3730 -0.5108
  626MOL0     O84376   8.757   7.411  10.507  1.1201 -0.2067  0.2535
  626MOL0     C84377   8.737   7.291  10.518 -0.3364  0.5275  0.2583
  626MOL0     O84378   8.835   7.196  10.503  0.8242 -0.7675 -0.0348
  626MOL0     C84379   8.965   7.233  10.500 -0.2470  0.4345  0.3034
  626MOL0     C84380   9.022   7.335  10.418 -0.3039 -0.4478  0.4720
  626MOL0     C84381   9.157   7.357  10.433 -0.2771  0.0135 -0.5809
  626MOL0     C84382   9.238   7.285  10.518  0.1411 -0.3865  0.1136
  626MOL0     O84383   9.370   7.308  10.498  0.5549  0.0178  0.0371
  626MOL0     C84384   9.471   7.263  10.588  0.3826 -0.1277 -0.6124
  626MOL0     C84385   9.605   7.320  10.558  1.0858  0.4251  0.9204
  626MOL0     C84386   9.708   7.228  10.620 -0.1418 -0.5118  0.4691
  626MOL0     C84387   9.846   7.291  10.631 -0.5882 -0.0175 -0.4476
  626MOL0     C84388   9.870   7.380  10.755  0.1673 -0.4842  0.2083
  626MOL0     C84389  10.015   7.438  10.764  1.0313  0.2913  0.6188
  626MOL0     C84390  10.023   7.514  10.892  0.7130  0.2262  0.6138
  626MOL0     C84391  10.155   7.576  10.911 -0.0291  0.5326  0.4066
  626MOL0     N84392  10.263   7.474  10.914 -0.4767  0.4352  0.1513
  626MOL0     C84393  10.287   7.391  11.016 -0.3038  0.0535 -0.6762
  626MOL0     C84394  10.394   7.322  10.975  0.1928  0.0413 -0.1508
  626MOL0     C84395  10.459   7.225  11.058  0.6159  0.3472 -0.0294
  626MOL0     C84396  10.590   7.283  11.092 -1.2254  0.3848  0.8357
  626MOL0     C84397  10.588   7.386  11.207  0.1350  0.7173  1.1652
  626MOL0     C84398  10.728   7.448  11.251  0.1028 -0.4785  0.0367
  626MOL0     O84399  10.787   7.369  11.352 -0.3393 -0.5196  0.4183
  626MOL0     C84400  10.917   7.401  11.382  0.0029  0.5286  0.7791
  626MOL0     C84401  10.994   7.290  11.426 -0.0492  0.0381  0.0202
  626MOL0     C84402  11.132   7.297  11.441 -0.2380  0.0412  1.0370
  626MOL0     C84403  11.202   7.408  11.383 -0.3414  0.3892  0.6346
  626MOL0     C84404  11.348   7.394  11.366 -0.5111  0.5847 -0.4466
  626MOL0     O84405  11.414   7.497  11.314  0.2306  0.1910 -0.8142
  626MOL0     C84406  11.547   7.494  11.272  0.3862 -0.4182 -0.1749
  626MOL0     C84407  11.603   7.618  11.251  0.4136  0.4233  0.4877
  626MOL0     C84408  11.732   7.630  11.203  0.3697  0.0307  0.2462
  626MOL0     C84409  11.804   7.524  11.152 -0.0138 -0.2737 -0.0392
  626MOL0     O84410  11.918   7.532  11.080  0.4140  0.2622  1.0144
  626MOL0     C84411  12.001   7.643  11.098  0.8156 -0.2965  1.0552
  626MOL0     C84412  12.069   7.643  11.236  0.2762  0.0439 -0.0456
  626MOL0     C84413  12.084   7.784  11.303  0.1844  0.1554  0.5517
  626MOL0     C84414  11.960   7.858  11.352 -0.2304  1.1743 -0.4383
  626MOL0     C84415  11.986   7.971  11.462 -0.0406  1.2487 -0.2454
  626MOL0     C84416  11.852   8.028  11.519  0.3850 -0.0118  0.0312
  626MOL0     C84417  11.770   8.105  11.409  0.6828  0.5022  0.2460
  626MOL0     C84418  11.622   8.132  11.442  0.4619 -0.4573 -0.4321
  626MOL0    Cl84419  11.521   7.985  11.441 -0.1703 -0.6127  0.2987
  626MOL0     C84420  11.746   7.398  11.171  0.5770 -0.7994  0.0325
  626MOL0     C84421  11.617   7.384  11.231  0.3378 -1.0097 -0.7908
  626MOL0     O84422  11.404   7.291  11.418 -0.0378  0.8222  0.3570
  626MOL0     C84423  11.132   7.514  11.340 -1.5749  0.0673 -0.0839
  626MOL0     C84424  10.991   7.507  11.337  0.0385 -0.3325 -0.5926
  626MOL0     N84425  10.431   7.359  10.845 -0.1335 -0.0520  0.2814
  626MOL0     N84426  10.351   7.453  10.809  0.1717  0.3395 -0.8480
  626MOL0     C84427   9.177   7.197  10.606 -0.2730 -0.1324  0.7129
  626MOL0     C84428   9.041   7.166  10.592 -0.3047 -0.3540  0.4313
  626MOL0     C84429   8.600   7.246  10.573 -0.0960  0.0105  0.2287
  626MOL0     C84430   8.579   7.110  10.614 -0.2730  0.4870 -0.6800
  626MOL0     C84431   8.467   7.062  10.664 -0.0165  0.1482  0.1147
  626MOL0     C84432   8.361   7.149  10.691  0.1518 -0.7942  0.1264
  626MOL0     O84433   8.243   7.100  10.739 -0.8349 -0.3472  0.0438
  626MOL0     C84434   8.175   7.012  10.649  0.2154 -0.1459  0.2162
  626MOL0     C84435   8.078   7.065  10.555  0.2398 -0.7930  1.5008
  626MOL0     C84436   8.111   7.043  10.400  0.3912  0.4105 -0.0219
  626MOL0     C84437   8.088   7.166  10.324 -0.2608 -0.6058 -0.7157
  626MOL0     C84438   7.941   7.185  10.332  0.9223 -0.5007  0.0334
  626MOL0     C84439   7.819   7.212  10.326  1.1758 -0.3255 -0.0818
  626MOL0     C84440   8.383   7.283  10.665  0.8982 -0.7601 -0.4809
  626MOL0     C84441   8.492   7.336  10.605 -0.7557  0.3143  0.2884
  626MOL0     C84442   8.481   7.486  10.568  0.0827  0.3601 -0.9439
  626MOL0     H84443   8.953   7.381  10.349  0.2517  1.0760  0.8861
  626MOL0     H84444   9.203   7.427  10.365  0.2216 -0.4115 -0.6852
  626MOL0     H84445   9.451   7.283  10.693  2.3032  1.2625 -0.4682
  626MOL0     H84446   9.470   7.153  10.589  1.6928 -0.1742  1.4524
  626MOL0     H84447   9.612   7.425  10.586  0.9898  0.9370 -0.8524
  626MOL0     H84448   9.625   7.314  10.451  1.0305 -2.7362  0.9901
  626MOL0     H84449   9.719   7.131  10.572  1.9259 -0.4431  0.6848
  626MOL0     H84450   9.682   7.199  10.722 -0.1040  0.1970  0.6874
  626MOL0     H84451   9.918   7.210  10.644  0.0611 -0.0512 -3.5887
  626MOL0     H84452   9.879   7.348  10.544 -2.1057  2.0732  0.2465
  626MOL0     H84453   9.807   7.470  10.758  2.7430  1.4792  4.0153
  626MOL0     H84454   9.842   7.328  10.847  1.2568  0.4350  1.0889
  626MOL0     H84455  10.085   7.354  10.766 -1.3049 -1.9297 -1.8050
  626MOL0     H84456  10.031   7.509  10.683  2.4324  0.2987  0.8872
  626MOL0     H84457   9.995   7.453  10.978  2.8494 -1.3853  0.2456
  626MOL0     H84458   9.947   7.593  10.890 -1.1882 -1.5173 -0.0768
  626MOL0     H84459  10.182   7.657  10.843 -1.6327  1.2804  0.6086
  626MOL0     H84460  10.148   7.618  11.012 -0.4189 -0.6663  0.8964
  626MOL0     H84461  10.235   7.386  11.111  0.1515 -2.2183 -0.4868
  626MOL0     H84462  10.411   7.190  11.150  0.9385  0.3895  0.1589
  626MOL0     H84463  10.472   7.135  10.997 -2.0390 -0.3069  0.2610
  626MOL0     H84464  10.660   7.205  11.121 -0.3947  0.0802 -1.7802
  626MOL0     H84465  10.631   7.345  11.011  0.0910 -0.8554  0.5211
  626MOL0     H84466  10.539   7.345  11.296 -0.6320 -1.7242 -0.2836
  626MOL0     H84467  10.515   7.464  11.182  0.7646  1.3107  1.1538
  626MOL0     H84468  10.710   7.550  11.286 -1.1240 -0.6899  0.0510
  626MOL0     H84469  10.804   7.447  11.172  2.0606 -1.0473  1.8348
  626MOL0     H84470  10.953   7.191  11.443 -2.2624  0.8056 -0.5873
  626MOL0     H84471  11.177   7.201  11.467 -1.3294 -0.4656  1.1129
  626MOL0     H84472  11.556   7.711  11.283  0.0536 -0.7236  3.6914
  626MOL0     H84473  11.772   7.730  11.214  3.0570 -1.2669  4.9471
  626MOL0     H84474  12.078   7.634  11.020 -1.8107  1.4157 -1.9839
  626MOL0     H84475  11.947   7.735  11.070 -1.9107 -2.5206 -1.7274
  626MOL0     H84476  12.014   7.585  11.310  1.1140  0.3745  0.8732
  626MOL0     H84477  12.169   7.600  11.222  0.3407  0.2389 -0.1914
  626MOL0     H84478  12.151   7.778  11.389  2.0085  1.9598 -0.6633
  626MOL0     H84479  12.138   7.845  11.230  2.3771 -0.6743  1.4112
  626MOL0     H84480  11.900   7.778  11.395  0.1093  1.7431  1.1813
  626MOL0     H84481  11.895   7.896  11.273 -2.8317  1.5642  1.7458
  626MOL0     H84482  12.047   8.054  11.427  0.6723  0.9135  0.1726
  626MOL0     H84483  12.041   7.915  11.539 -0.1035  2.0121  0.3685
  626MOL0     H84484  11.790   7.945  11.554  0.3976 -0.8234 -1.7393
  626MOL0     H84485  11.870   8.097  11.602 -0.8578 -1.4076  1.5188
  626MOL0     H84486  11.761   8.047  11.316  1.0478  0.0731  0.4775
  626MOL0     H84487  11.831   8.194  11.397  1.8954 -0.5491 -1.9041
  626MOL0     H84488  11.612   8.169  11.545 -1.9402 -1.0328 -0.4123
  626MOL0     H84489  11.582   8.211  11.378  4.5539  2.6057  0.3242
  626MOL0     H84490  11.799   7.305  11.153  1.5581 -0.6976  2.1024
  626MOL0     H84491  11.570   7.287  11.244 -1.4742  0.0114  0.8022
  626MOL0     H84492  11.176   7.599  11.289 -0.4755 -0.9994 -0.9524
  626MOL0     H84493  10.947   7.592  11.285  0.7837  0.4469  0.0303
  626MOL0     H84494   9.230   7.138  10.680 -1.8555 -2.2386  0.2623
  626MOL0     H84495   9.001   7.089  10.657 -0.2632 -0.4440  0.3488
  626MOL0     H84496   8.672   7.054  10.615 -1.1826 -1.0862 -0.5546
  626MOL0     H84497   8.458   6.957  10.688  1.6400  0.0274  0.3161
  626MOL0     H84498   8.122   6.940  10.712 -0.2001  0.6167  0.7479
  626MOL0     H84499   8.238   6.936  10.601 -4.4394 -2.5497 -2.9650
  626MOL0     H84500   8.086   7.171  10.583  1.0139 -1.0843  2.4491
  626MOL0     H84501   7.978   7.025  10.576  0.2337 -0.9730  1.1348
  626MOL0     H84502   8.052   6.965  10.351 -1.9874  1.0504  1.6352
  626MOL0     H84503   8.216   7.010  10.398  0.1805 -0.3095  0.3998
  626MOL0     H84504   8.131   7.251  10.377 -0.8066 -0.8761  0.1839
  626MOL0     H84505   8.110   7.162  10.217 -4.3888 -2.8667 -1.7061
  626MOL0     H84506   7.715   7.237  10.317  1.9747  3.4398 -0.6939
  626MOL0     H84507   8.313   7.358  10.701 -0.0711  0.2702 -4.0860
  626MOL0     H84508   8.395   7.530  10.618 -1.7026 -2.0824 -1.6972
  626MOL0     H84509   8.571   7.531  10.611 -0.6149  0.5194  0.3762
  626MOL0     H84510   8.475   7.493  10.459  3.2249 -0.1063 -1.2536
  627MOL0     O84511   4.415   0.040   1.241 -0.4766 -0.0064  0.2650
  627MOL0     C84512   4.443  -0.074   1.277  0.3017  0.7278 -0.7063
  627MOL0     O84513   4.577  -0.122   1.289 -0.0835 -0.0149  0.4917
  627MOL0     C84514   4.681  -0.020   1.279  0.3527  0.3249  0.3137
  627MOL0     C84515   4.760   0.004   1.393  0.5221 -0.6714 -0.4614
  627MOL0     C84516   4.875   0.087   1.388  0.0962 -0.1488 -0.5151
  627MOL0     C84517   4.913   0.138   1.275  0.0777  0.0726  0.5346
  627MOL0     O84518   5.042   0.199   1.271 -0.5701  0.5084  0.4584
  627MOL0     C84519   5.091   0.270   1.157  0.2091 -0.3110  0.5190
  627MOL0     C84520   5.038   0.418   1.163 -0.1988 -0.4098  0.9580
  627MOL0     C84521   5.118   0.510   1.076 -0.3087 -0.2531 -0.3164
  627MOL0     C84522   5.235   0.565   1.164  0.5889 -0.0627 -0.4358
  627MOL0     C84523   5.309   0.680   1.093 -0.4313  0.5243  0.5436
  627MOL0     C84524   5.392   0.627   0.981  0.5060  0.5862  0.8096
  627MOL0     C84525   5.495   0.712   0.915 -1.1599 -0.8340 -0.0944
  627MOL0     C84526   5.615   0.764   1.009  0.7417  0.8598 -0.7924
  627MOL0     N84527   5.713   0.655   1.029  0.4418 -0.0908  0.2957
  627MOL0     C84528   5.832   0.642   0.950 -0.8017  0.1878 -0.3872
  627MOL0     C84529   5.880   0.530   0.998 -0.4998  0.8070 -0.5469
  627MOL0     C84530   6.007   0.463   0.951  0.5369  0.4244 -0.3529
  627MOL0     C84531   5.997   0.336   0.858  0.7348 -0.2314 -0.2163
  627MOL0     C84532   6.135   0.288   0.811  0.3259  0.0341  0.3750
  627MOL0     C84533   6.116   0.201   0.681  1.0009 -0.5305  0.7538
  627MOL0     O84534   6.205   0.091   0.661 -0.8095  0.1424 -0.5496
  627MOL0     C84535   6.321   0.092   0.581 -0.6402  0.4585  0.1455
  627MOL0     C84536   6.376  -0.030   0.543 -0.0995 -0.2225 -0.2508
  627MOL0     C84537   6.492  -0.033   0.471 -1.2691 -0.6322 -0.1048
  627MOL0     C84538   6.567   0.086   0.435 -0.3660 -0.4518 -0.9323
  627MOL0     C84539   6.693   0.082   0.359  0.3405 -0.3541 -0.1453
  627MOL0     O84540   6.752  -0.033   0.383  0.2429  0.7781  0.0222
  627MOL0     C84541   6.846  -0.100   0.314  0.7619  0.6377 -1.2586
  627MOL0     C84542   6.885  -0.060   0.186  0.5052 -0.8819 -0.4089
  627MOL0     C84543   6.980  -0.136   0.116 -0.8880 -0.1294 -0.2491
  627MOL0     C84544   7.035  -0.250   0.183  0.4102 -0.8514  0.0501
  627MOL0     O84545   7.133  -0.304   0.105 -1.1388 -0.5794  0.1673
  627MOL0     C84546   7.100  -0.442   0.076 -0.2178 -0.4549  0.6994
  627MOL0     C84547   7.215  -0.528   0.149 -0.1379  0.2858 -1.6264
  627MOL0     C84548   7.346  -0.538   0.067 -0.0601  1.2181  0.7107
  627MOL0     C84549   7.445  -0.429   0.102 -0.5818  0.4508  0.5643
  627MOL0     C84550   7.591  -0.467   0.045  0.3528 -0.3737  0.8181
  627MOL0     C84551   7.665  -0.580   0.123  0.6020  0.0500 -0.2223
  627MOL0     C84552   7.822  -0.557   0.091  0.8395  0.0686  0.4320
  627MOL0     C84553   7.892  -0.690   0.087 -0.2945  0.0217 -0.5651
  627MOL0    Cl84554   7.893  -0.747   0.249  0.2636 -0.5916 -0.1723
  627MOL0     C84555   6.987  -0.302   0.304  0.4113 -0.7473  0.3605
  627MOL0     C84556   6.898  -0.217   0.376 -0.0979 -0.2136 -0.0307
  627MOL0     O84557   6.711   0.163   0.261 -0.5628  0.7863  0.4242
  627MOL0     C84558   6.513   0.204   0.466  0.3737 -0.4157 -0.3765
  627MOL0     C84559   6.384   0.207   0.540  0.0949 -0.6064 -0.2687
  627MOL0     N84560   5.794   0.463   1.086  0.2902 -0.1219 -0.1043
  627MOL0     N84561   5.700   0.546   1.104 -0.2775  0.0541 -0.5793
  627MOL0     C84562   4.828   0.125   1.157 -0.3058 -0.5323 -0.2682
  627MOL0     C84563   4.710   0.047   1.160 -0.0800 -0.1495  0.0868
  627MOL0     C84564   4.325  -0.161   1.328 -0.1274 -0.3105  0.1378
  627MOL0     C84565   4.212  -0.098   1.376  0.0407  0.2849  0.3338
  627MOL0     C84566   4.099  -0.166   1.424 -0.6126 -0.1884  0.6613
  627MOL0     C84567   4.096  -0.300   1.423 -0.3523 -0.5145  0.1620
  627MOL0     O84568   3.988  -0.355   1.487 -0.2051 -0.8730 -0.7647
  627MOL0     C84569   4.006  -0.448   1.601  0.0050  0.2332  0.5282
  627MOL0     C84570   3.970  -0.380   1.735 -0.0483 -0.6780 -0.4631
  627MOL0     C84571   3.930  -0.480   1.855  0.7911 -0.7565  0.5647
  627MOL0     C84572   4.045  -0.563   1.903  0.9757 -0.0501 -0.3480
  627MOL0     C84573   4.073  -0.672   1.811  0.7009  0.5422  0.0493
  627MOL0     C84574   4.102  -0.755   1.725  0.4656 -0.1546  0.3424
  627MOL0     C84575   4.209  -0.365   1.376  0.1725 -0.5048 -0.2257
  627MOL0     C84576   4.327  -0.302   1.333  0.8802  0.3536 -0.0834
  627MOL0     C84577   4.444  -0.375   1.288 -0.3696 -0.3404  0.5731
  627MOL0     H84578   4.734  -0.062   1.475  0.9053  0.2820  0.4514
  627MOL0     H84579   4.938   0.107   1.474 -0.0308  1.0462 -0.6825
  627MOL0     H84580   5.200   0.275   1.166  0.3954 -0.3655 -1.2994
  627MOL0     H84581   5.070   0.218   1.064 -0.3469  2.2183 -0.8632
  627MOL0     H84582   5.049   0.444   1.268  1.0103 -2.7616  1.4965
  627MOL0     H84583   4.934   0.417   1.130  0.1909 -1.0702 -0.3205
  627MOL0     H84584   5.064   0.599   1.043  2.1531  0.2210 -3.6169
  627MOL0     H84585   5.149   0.459   0.984 -3.0067 -1.2454 -0.7435
  627MOL0     H84586   5.184   0.607   1.251 -0.7692  1.0162 -1.7154
  627MOL0     H84587   5.305   0.485   1.190 -1.4451 -2.8846 -2.9580
  627MOL0     H84588   5.233   0.741   1.042  0.9082  0.4741 -1.6699
  627MOL0     H84589   5.368   0.742   1.161 -2.4465  1.5350  1.4634
  627MOL0     H84590   5.436   0.532   1.014 -2.7826 -0.7347  1.8661
  627MOL0     H84591   5.317   0.600   0.906  1.7903 -0.1037 -0.2684
  627MOL0     H84592   5.445   0.804   0.882  0.1919  0.5663  1.5422
  627MOL0     H84593   5.551   0.662   0.835  0.2320  0.6527 -0.1052
  627MOL0     H84594   5.670   0.853   0.975  0.7381 -0.1431 -3.7024
  627MOL0     H84595   5.578   0.786   1.110 -0.7296  0.2861 -1.1903
  627MOL0     H84596   5.864   0.702   0.866 -1.3975  0.1443 -0.6566
  627MOL0     H84597   6.070   0.535   0.898  1.6060  0.7467  1.2854
  627MOL0     H84598   6.057   0.446   1.047  0.2573  0.2477 -0.2387
  627MOL0     H84599   5.954   0.245   0.900  5.6011 -1.6991  2.3210
  627MOL0     H84600   5.935   0.372   0.775 -0.1595  2.0678  1.3494
  627MOL0     H84601   6.178   0.229   0.893  1.0288  0.3909  0.2751
  627MOL0     H84602   6.203   0.374   0.804  0.7074 -0.1421  1.5579
  627MOL0     H84603   6.134   0.279   0.606  2.8906  0.4183  2.1041
  627MOL0     H84604   6.015   0.161   0.674  0.9118 -0.1129 -0.6548
  627MOL0     H84605   6.322  -0.120   0.569  3.0657 -1.8785  1.1041
  627MOL0     H84606   6.541  -0.121   0.430  2.3657  1.6533 -1.2046
  627MOL0     H84607   6.845   0.023   0.130  2.1120 -0.6870 -1.3221
  627MOL0     H84608   7.030  -0.099   0.027 -1.6408 -2.7186 -1.8545
  627MOL0     H84609   7.005  -0.468   0.124  1.2904 -2.0488  3.0606
  627MOL0     H84610   7.095  -0.470  -0.029 -1.6611 -1.4607  1.0008
  627MOL0     H84611   7.235  -0.488   0.249  0.0589 -0.8133 -1.2076
  627MOL0     H84612   7.173  -0.627   0.166 -1.8069  1.0188 -1.3474
  627MOL0     H84613   7.381  -0.641   0.079 -1.2913  0.6408 -0.3919
  627MOL0     H84614   7.327  -0.527  -0.040  1.9651  0.5047  0.2303
  627MOL0     H84615   7.456  -0.414   0.210 -2.3392 -4.8037  1.7395
  627MOL0     H84616   7.413  -0.336   0.055 -1.2917  0.1827  0.5104
  627MOL0     H84617   7.647  -0.377   0.071  0.5262 -0.4860  0.8327
  627MOL0     H84618   7.586  -0.474  -0.064 -0.0350  3.0283  0.5027
  627MOL0     H84619   7.651  -0.576   0.232 -4.0117  0.5435 -0.6498
  627MOL0     H84620   7.630  -0.674   0.079  1.1273  1.0408 -2.9605
  627MOL0     H84621   7.858  -0.481   0.161  0.6291 -1.2984  2.0875
  627MOL0     H84622   7.831  -0.509  -0.006 -0.5824  2.0716  1.2286
  627MOL0     H84623   7.826  -0.742   0.017 -0.1416  2.6116 -2.8244
  627MOL0     H84624   7.993  -0.688   0.045 -0.8758  1.4731 -2.0284
  627MOL0     H84625   7.011  -0.398   0.349  1.0546 -0.4624  0.6488
  627MOL0     H84626   6.869  -0.250   0.475 -0.6649  0.4453  0.0288
  627MOL0     H84627   6.561   0.297   0.437  1.4146 -0.6490  0.5047
  627MOL0     H84628   6.354   0.302   0.581  2.6924  0.5759 -0.8887
  627MOL0     H84629   4.864   0.183   1.072  0.6052  2.8067  2.1917
  627MOL0     H84630   4.653   0.031   1.069  3.3622 -1.6402 -2.0153
  627MOL0     H84631   4.215   0.011   1.381 -1.9921  0.3200  3.4976
  627MOL0     H84632   4.023  -0.095   1.453  3.3602  4.8091  0.2456
  627MOL0     H84633   4.111  -0.480   1.599  0.4527  1.5492 -2.1012
  627MOL0     H84634   3.946  -0.537   1.580 -0.5910  0.5732  0.7809
  627MOL0     H84635   3.883  -0.317   1.717  1.1326 -0.0117 -5.3183
  627MOL0     H84636   4.058  -0.321   1.765  0.1738 -0.7302 -1.0007
  627MOL0     H84637   3.857  -0.548   1.808  2.4765 -1.7468 -0.7473
  627MOL0     H84638   3.900  -0.429   1.946  0.4140  0.7197 -0.3589
  627MOL0     H84639   4.136  -0.502   1.904  0.8286  0.2653 -2.2764
  627MOL0     H84640   4.033  -0.607   2.003  2.3735 -0.2886 -0.2621
  627MOL0     H84641   4.132  -0.833   1.659  2.3424 -1.1928  2.3104
  627MOL0     H84642   4.209  -0.473   1.382 -1.3412 -0.4702  2.3534
  627MOL0     H84643   4.522  -0.355   1.362  1.7581 -0.5973 -1.4861
  627MOL0     H84644   4.438  -0.483   1.273 -1.3675 -0.3773  1.1380
  627MOL0     H84645   4.484  -0.344   1.191 -0.4005 -2.7544 -0.2550
  628MOL0     O84646   3.181   3.893   2.050  0.9310 -0.9182  0.2046
  628MOL0     C84647   3.096   3.963   2.116 -0.0875  0.6508 -0.2633
  628MOL0     O84648   2.958   3.944   2.103  0.0392 -0.5002  0.4740
  628MOL0     C84649   2.924   3.838   2.026 -0.6945  0.1132  0.6234
  628MOL0     C84650   2.895   3.854   1.887  0.1498  0.0664  0.1278
  628MOL0     C84651   2.867   3.745   1.798 -0.0969  0.2637 -0.3480
  628MOL0     C84652   2.871   3.612   1.850 -0.6115  0.6224  0.1227
  628MOL0     O84653   2.851   3.497   1.772 -0.4387 -0.2954  0.0288
  628MOL0     C84654   2.808   3.508   1.633 -0.3827 -0.0430 -0.6892
  628MOL0     C84655   2.833   3.375   1.560 -0.0519 -0.3867 -0.1220
  628MOL0     C84656   2.721   3.269   1.563 -0.0840  0.5503  0.5616
  628MOL0     C84657   2.793   3.130   1.542  0.1731 -0.0397  0.5297
  628MOL0     C84658   2.680   3.025   1.542 -0.1946  0.4429 -0.2866
  628MOL0     C84659   2.610   3.029   1.410  0.6434  0.2499 -0.3769
  628MOL0     C84660   2.522   2.907   1.424  0.1475 -1.2426  0.1081
  628MOL0     C84661   2.451   2.882   1.293  0.2398  1.3078 -0.0221
  628MOL0     N84662   2.349   2.984   1.271  0.0495  0.2046  0.5948
  628MOL0     C84663   2.269   2.999   1.159 -0.4617 -0.3901 -0.4453
  628MOL0     C84664   2.186   3.100   1.191 -0.7512  0.1424 -0.7250
  628MOL0     C84665   2.075   3.166   1.109 -0.6775  0.3664  0.3591
  628MOL0     C84666   1.961   3.075   1.078  1.4930 -0.1698 -1.2823
  628MOL0     C84667   1.900   3.006   1.195  0.4503 -0.3634 -0.1010
  628MOL0     C84668   1.849   3.105   1.302  0.0845 -0.9816  0.0161
  628MOL0     O84669   1.747   3.051   1.381  0.0702  0.3332  0.3479
  628MOL0     C84670   1.772   2.932   1.444 -0.4534 -0.5090  0.4389
  628MOL0     C84671   1.889   2.913   1.512  0.1746 -0.5958 -0.7285
  628MOL0     C84672   1.900   2.798   1.592  0.4970 -0.3631  0.6500
  628MOL0     C84673   1.800   2.703   1.602  0.6582  0.4375  0.4948
  628MOL0     C84674   1.821   2.604   1.710  0.9065  0.0935 -0.5539
  628MOL0     O84675   1.936   2.526   1.719 -0.3671  0.1716  0.1314
  628MOL0     C84676   1.948   2.426   1.810  0.1423 -0.1641 -0.3486
  628MOL0     C84677   1.888   2.300   1.795  0.7458 -0.0308  0.3787
  628MOL0     C84678   1.927   2.193   1.866 -0.6793 -0.4512  0.5578
  628MOL0     C84679   2.023   2.199   1.965 -0.5780 -0.5038  0.5107
  628MOL0     O84680   2.057   2.086   2.037 -0.5587 -0.0146  0.0517
  628MOL0     C84681   2.198   2.071   2.046 -0.2548  0.3643  0.5612
  628MOL0     C84682   2.211   1.928   2.113  0.2783  0.7495 -0.8862
  628MOL0     C84683   2.138   1.808   2.032  0.2353 -0.5045 -0.8278
  628MOL0     C84684   1.991   1.778   2.070 -0.1499 -0.3802 -0.2473
  628MOL0     C84685   1.932   1.644   2.016  0.0158 -0.3990  0.5897
  628MOL0     C84686   1.853   1.671   1.884 -0.4032  0.0206 -0.1642
  628MOL0     C84687   1.773   1.549   1.840 -0.1751  0.3707 -1.2872
  628MOL0     C84688   1.646   1.510   1.913  0.1211  0.6992  0.3694
  628MOL0    Cl84689   1.599   1.347   1.838 -0.3391 -0.3534  0.0420
  628MOL0     C84690   2.088   2.323   1.974 -0.1993 -1.0768 -0.0858
  628MOL0     C84691   2.060   2.441   1.890  0.6282  0.0540  0.0296
  628MOL0     O84692   1.725   2.605   1.789  0.1836 -1.0380 -0.1128
  628MOL0     C84693   1.671   2.735   1.545 -0.0187 -0.5773 -0.1014
  628MOL0     C84694   1.658   2.849   1.469 -0.3963 -0.8873  0.4453
  628MOL0     N84695   2.218   3.141   1.324  0.6847 -0.5949  0.6903
  628MOL0     N84696   2.312   3.076   1.361 -0.3366  0.1006 -0.3006
  628MOL0     C84697   2.900   3.601   1.994 -0.1284 -0.4428  0.9135
  628MOL0     C84698   2.926   3.706   2.077  0.1657 -0.2924 -0.4142
  628MOL0     C84699   3.142   4.077   2.192  0.3862 -0.2944 -0.0708
  628MOL0     C84700   3.084   4.203   2.168  0.6535 -0.0091  0.4455
  628MOL0     C84701   3.133   4.311   2.238  0.1552 -0.0913  0.0080
  628MOL0     C84702   3.227   4.302   2.332  0.3153 -0.6873 -0.3140
  628MOL0     O84703   3.254   4.414   2.400  0.0743  0.7776 -1.0622
  628MOL0     C84704   3.387   4.452   2.425  0.6034 -0.5372 -0.5288
  628MOL0     C84705   3.419   4.530   2.556  0.3196  0.0976  0.5506
  628MOL0     C84706   3.428   4.454   2.687 -0.1296 -0.6002  0.0911
  628MOL0     C84707   3.429   4.559   2.802  0.0386  0.4772  0.5098
  628MOL0     C84708   3.302   4.618   2.838  0.6951 -0.4731  0.6652
  628MOL0     C84709   3.196   4.666   2.879 -0.6236  0.2738  0.6113
  628MOL0     C84710   3.281   4.183   2.360  0.4009  0.6764 -0.1019
  628MOL0     C84711   3.236   4.069   2.298  0.5242  0.4844 -0.1254
  628MOL0     C84712   3.279   3.924   2.346 -0.5026 -0.3238  0.3095
  628MOL0     H84713   2.881   3.958   1.859  1.1131  0.0179 -0.5761
  628MOL0     H84714   2.833   3.769   1.698  1.2851  0.9901 -0.6779
  628MOL0     H84715   2.702   3.532   1.619  0.2459  3.8546  0.2108
  628MOL0     H84716   2.866   3.587   1.586 -0.4878  1.0660  0.9340
  628MOL0     H84717   2.930   3.341   1.597  0.6134  2.2310  0.7735
  628MOL0     H84718   2.839   3.398   1.453  0.3739  3.3085  0.5434
  628MOL0     H84719   2.656   3.292   1.478  1.8402 -0.5378 -1.3152
  628MOL0     H84720   2.663   3.263   1.655 -0.3556 -0.0983  0.3564
  628MOL0     H84721   2.852   3.129   1.450 -2.0790  1.5901 -1.0102
  628MOL0     H84722   2.850   3.104   1.632 -1.4769 -2.7744  0.8742
  628MOL0     H84723   2.735   2.933   1.563 -1.6922 -0.3559  0.2688
  628MOL0     H84724   2.618   3.059   1.626  0.5433 -0.1192  0.5070
  628MOL0     H84725   2.544   3.114   1.392 -1.0662 -0.3932  2.2388
  628MOL0     H84726   2.688   3.014   1.335  1.1205  0.3898  0.0867
  628MOL0     H84727   2.450   2.917   1.507  0.8351  0.3014  0.5641
  628MOL0     H84728   2.583   2.819   1.445  0.2190 -0.9812  1.0835
  628MOL0     H84729   2.513   2.874   1.204 -0.3213  2.5908 -0.5504
  628MOL0     H84730   2.395   2.788   1.304 -0.5471  1.1645 -3.9951
  628MOL0     H84731   2.277   2.944   1.066  1.2941 -1.6541  0.3923
  628MOL0     H84732   2.046   3.252   1.169  1.8023  3.2306 -2.1809
  628MOL0     H84733   2.122   3.203   1.017 -1.9422 -0.2691 -0.5701
  628MOL0     H84734   1.881   3.142   1.045  3.2366  4.1951  2.3204
  628MOL0     H84735   1.979   3.008   0.993  1.7902 -0.3272 -1.0989
  628MOL0     H84736   1.972   2.936   1.239  0.3603 -0.5573 -0.2634
  628MOL0     H84737   1.824   2.942   1.152  2.7969 -2.0824 -1.9287
  628MOL0     H84738   1.789   3.191   1.269  0.9998  0.1244  1.1228
  628MOL0     H84739   1.932   3.146   1.360 -0.5109 -0.5855  0.5981
  628MOL0     H84740   1.974   2.978   1.492 -0.8834  1.6626  1.5859
  628MOL0     H84741   1.991   2.788   1.652  1.3223  1.3014 -0.2613
  628MOL0     H84742   1.822   2.276   1.712 -1.7261 -0.5947  2.3781
  628MOL0     H84743   1.874   2.100   1.847 -1.7145  0.2885 -0.2850
  628MOL0     H84744   2.255   2.076   1.953 -0.1617 -3.1593  0.3069
  628MOL0     H84745   2.257   2.143   2.103  1.3935  1.0109 -1.8205
  628MOL0     H84746   2.317   1.903   2.111  0.3041  0.9189 -2.3231
  628MOL0     H84747   2.185   1.926   2.219  1.0883  2.4606 -0.6271
  628MOL0     H84748   2.149   1.838   1.928 -1.5694  1.7212 -0.4548
  628MOL0     H84749   2.201   1.719   2.041  1.0579  0.2474  2.1445
  628MOL0     H84750   1.926   1.862   2.042  0.6704  0.9005  1.4873
  628MOL0     H84751   1.986   1.772   2.179 -0.2145 -3.3323 -0.3181
  628MOL0     H84752   1.853   1.617   2.087 -0.2948 -0.9847  0.0338
  628MOL0     H84753   2.007   1.565   2.001 -1.9147 -2.0561 -1.1238
  628MOL0     H84754   1.784   1.754   1.901 -0.3380 -0.1203  0.8463
  628MOL0     H84755   1.926   1.686   1.804  2.1012 -2.9762  1.2966
  628MOL0     H84756   1.841   1.463   1.847 -1.1643 -0.2904  3.0965
  628MOL0     H84757   1.751   1.564   1.734  4.9092  1.9234 -2.3793
  628MOL0     H84758   1.647   1.486   2.020 -0.3458  0.0715  0.2409
  628MOL0     H84759   1.568   1.582   1.890 -0.0864  0.1886 -0.5863
  628MOL0     H84760   2.179   2.337   2.032 -1.0503  0.1592  1.0222
  628MOL0     H84761   2.125   2.527   1.902  3.6058 -1.8295 -1.4022
  628MOL0     H84762   1.584   2.677   1.572  0.8136 -1.6331  0.4007
  628MOL0     H84763   1.556   2.872   1.440 -0.0592  0.0817  0.0072
  628MOL0     H84764   2.881   3.502   2.033 -1.2640 -1.3140 -1.6639
  628MOL0     H84765   2.956   3.693   2.181  3.7104 -3.5695 -1.6147
  628MOL0     H84766   3.004   4.209   2.095 -0.2929  2.3058  1.5752
  628MOL0     H84767   3.086   4.406   2.211 -1.6991 -1.5066 -2.2244
  628MOL0     H84768   3.426   4.500   2.335  3.1558 -1.3917  0.0303
  628MOL0     H84769   3.448   4.360   2.431  4.7796  1.8956 -1.5190
  628MOL0     H84770   3.340   4.604   2.569  0.8711  0.5200  1.6000
  628MOL0     H84771   3.508   4.588   2.530 -2.2149  3.2621 -1.8900
  628MOL0     H84772   3.515   4.389   2.701 -0.8920 -1.7407 -0.3856
  628MOL0     H84773   3.340   4.389   2.692  0.4529 -1.6727 -2.2380
  628MOL0     H84774   3.480   4.509   2.885  3.0571  2.1583 -0.1685
  628MOL0     H84775   3.494   4.640   2.769 -0.2056  0.4977  0.0679
  628MOL0     H84776   3.109   4.716   2.916 -0.1662 -1.3342  4.3201
  628MOL0     H84777   3.352   4.165   2.441 -0.2024 -0.4290  0.2100
  628MOL0     H84778   3.346   3.930   2.432 -2.1478  3.0960  1.5508
  628MOL0     H84779   3.197   3.869   2.393 -2.1218  0.6173 -1.2711
  628MOL0     H84780   3.324   3.860   2.270 -2.1036 -1.2613  0.0917
  629MOL0     O84781   6.746  11.134   8.712 -0.3651 -0.0723 -0.3059
  629MOL0     C84782   6.712  11.182   8.598 -0.8085  0.2284 -0.2284
  629MOL0     O84783   6.579  11.213   8.560 -0.9319  0.5977 -0.1206
  629MOL0     C84784   6.494  11.267   8.654  0.2023 -0.2635 -0.0622
  629MOL0     C84785   6.531  11.333   8.772 -0.0889  0.3883 -0.1092
  629MOL0     C84786   6.435  11.407   8.845  0.7310  0.1576 -0.2823
  629MOL0     C84787   6.302  11.430   8.799  0.2189 -0.0229  0.0417
  629MOL0     O84788   6.221  11.525   8.864 -0.3005  0.7275  0.0657
  629MOL0     C84789   6.092  11.561   8.803 -0.1054 -0.4555  1.2477
  629MOL0     C84790   6.032  11.679   8.876  0.9832 -0.7086 -0.7758
  629MOL0     C84791   5.981  11.638   9.018  0.5157  0.7050 -0.9870
  629MOL0     C84792   5.834  11.601   9.009 -0.4432 -0.4651  0.0276
  629MOL0     C84793   5.775  11.548   9.143 -0.2591 -0.5387 -0.5003
  629MOL0     C84794   5.627  11.576   9.187 -0.2413 -0.6850  0.6010
  629MOL0     C84795   5.602  11.588   9.339 -0.6167  0.0318  0.2156
  629MOL0     C84796   5.562  11.446   9.399  0.2710 -1.3768  0.2637
  629MOL0     N84797   5.667  11.353   9.402 -0.7308  0.6120 -0.4517
  629MOL0     C84798   5.779  11.371   9.483 -0.8172  0.9665 -0.3850
  629MOL0     C84799   5.866  11.270   9.446  0.6158 -0.9865  0.6309
  629MOL0     C84800   6.006  11.244   9.495  0.5019  0.4912 -0.2302
  629MOL0     C84801   6.007  11.257   9.647  0.6208 -0.1872  0.8365
  629MOL0     C84802   6.140  11.227   9.707 -0.5501 -0.4138 -0.1653
  629MOL0     C84803   6.239  11.337   9.678  0.5579 -0.0957 -0.0660
  629MOL0     O84804   6.354  11.322   9.758  0.1346 -0.3149  0.0851
  629MOL0     C84805   6.457  11.418   9.738  0.7204  0.6470  0.4402
  629MOL0     C84806   6.447  11.534   9.662  0.3380  0.7726  0.7641
  629MOL0     C84807   6.554  11.612   9.628 -0.1646 -0.4233  0.8584
  629MOL0     C84808   6.684  11.586   9.673 -0.2652 -0.6305  0.1321
  629MOL0     C84809   6.804  11.664   9.639  0.3193 -0.1115 -0.1950
  629MOL0     O84810   6.900  11.669   9.729 -0.6662  0.4544 -0.3928
  629MOL0     C84811   7.016  11.728   9.720  0.0500 -0.4432 -0.5322
  629MOL0     C84812   7.053  11.833   9.627 -0.0337  0.9806 -0.8435
  629MOL0     C84813   7.173  11.889   9.649  0.6195 -0.9030 -0.2581
  629MOL0     C84814   7.270  11.839   9.744  0.6345  0.2419  0.4047
  629MOL0     O84815   7.395  11.890   9.765 -0.0364 -0.1101 -0.3508
  629MOL0     C84816   7.435  11.990   9.679 -0.6602  0.2004 -0.2210
  629MOL0     C84817   7.566  12.044   9.719  0.4784 -1.2505  0.4648
  629MOL0     C84818   7.628  12.138   9.614 -0.7141  0.6202 -0.3497
  629MOL0     C84819   7.760  12.191   9.644  0.3820 -0.1537 -1.1721
  629MOL0     C84820   7.814  12.284   9.536  0.0270 -0.7575 -1.2311
  629MOL0     C84821   7.956  12.344   9.556 -0.5988 -0.3658 -0.5503
  629MOL0     C84822   7.951  12.462   9.653 -0.4341  0.8826 -0.0247
  629MOL0     C84823   8.089  12.483   9.706 -0.1787  0.5867 -0.0902
  629MOL0    Cl84824   8.158  12.337   9.777  0.1010 -0.0093 -0.2476
  629MOL0     C84825   7.239  11.729   9.822  1.1015 -0.7537 -0.0451
  629MOL0     C84826   7.112  11.674   9.811 -0.8210  0.7571 -0.4637
  629MOL0     O84827   6.794  11.736   9.537  0.8313  0.6662 -0.2380
  629MOL0     C84828   6.690  11.477   9.767  0.3545  1.5030  0.7296
  629MOL0     C84829   6.577  11.400   9.806 -0.2006  0.1423 -0.7841
  629MOL0     N84830   5.800  11.188   9.352  0.3453 -0.5323 -0.3540
  629MOL0     N84831   5.687  11.244   9.335  0.6740  0.0001  0.4555
  629MOL0     C84832   6.265  11.352   8.684  0.5261 -0.9979  0.9849
  629MOL0     C84833   6.359  11.273   8.617 -0.8219 -0.0732 -0.1034
  629MOL0     C84834   6.814  11.189   8.482  0.7538  0.0216 -0.1753
  629MOL0     C84835   6.891  11.073   8.460  0.2768  0.1315  0.0778
  629MOL0     C84836   6.981  11.081   8.363  0.3823  0.2636  0.1190
  629MOL0     C84837   7.008  11.193   8.287  1.1417 -0.6457  0.3793
  629MOL0     O84838   7.116  11.202   8.197  0.5887 -0.1495 -0.1461
  629MOL0     C84839   7.199  11.084   8.173 -0.7924  0.2242  0.1457
  629MOL0     C84840   7.296  11.108   8.062  0.1379 -0.3601  0.6906
  629MOL0     C84841   7.380  11.231   8.078  0.0051 -0.7562 -0.6677
  629MOL0     C84842   7.459  11.278   7.947  0.1241 -0.1295 -0.4131
  629MOL0     C84843   7.382  11.383   7.877 -0.0922 -0.2117 -0.1671
  629MOL0     C84844   7.319  11.467   7.819 -0.1251  0.4272 -0.9420
  629MOL0     C84845   6.923  11.296   8.305  0.2870  0.1075 -0.5388
  629MOL0     C84846   6.827  11.304   8.404  0.2773 -0.6804  0.0421
  629MOL0     C84847   6.749  11.431   8.423  0.3256  0.7335  0.0155
  629MOL0     H84848   6.628  11.317   8.817 -0.2498 -0.8165 -0.1421
  629MOL0     H84849   6.464  11.453   8.939  1.1534 -2.4812  0.9468
  629MOL0     H84850   6.110  11.586   8.698 -2.0402 -1.5452  0.6037
  629MOL0     H84851   6.015  11.484   8.814 -0.7658  0.2511  1.6807
  629MOL0     H84852   5.958  11.736   8.818 -0.0730  0.2381  1.3868
  629MOL0     H84853   6.125  11.736   8.892  1.3221 -1.4861  0.0637
  629MOL0     H84854   5.982  11.719   9.091 -3.1530 -0.1708  0.2204
  629MOL0     H84855   6.034  11.547   9.049 -0.8022  0.2113 -0.1355
  629MOL0     H84856   5.776  11.687   8.974 -0.4700 -0.8181 -0.8431
  629MOL0     H84857   5.829  11.518   8.937  3.0790  1.4321 -2.7695
  629MOL0     H84858   5.779  11.439   9.152  0.9235 -0.5602 -1.2142
  629MOL0     H84859   5.841  11.608   9.206 -0.8729  0.9287 -1.1983
  629MOL0     H84860   5.605  11.674   9.141  1.2380 -1.0350 -0.9454
  629MOL0     H84861   5.561  11.502   9.140 -1.4856  0.4711  0.4394
  629MOL0     H84862   5.528  11.664   9.369 -0.0796  0.4420  0.5113
  629MOL0     H84863   5.689  11.618   9.397  0.0570 -0.1110 -0.7025
  629MOL0     H84864   5.522  11.457   9.501  2.1345 -1.1466  1.0076
  629MOL0     H84865   5.486  11.402   9.335 -0.7760  0.2849  0.2888
  629MOL0     H84866   5.795  11.445   9.560  2.2992  1.9854 -1.8433
  629MOL0     H84867   6.027  11.142   9.462  0.4772  1.1182 -2.3386
  629MOL0     H84868   6.073  11.314   9.444  2.4989  0.3514  2.0101
  629MOL0     H84869   5.968  11.354   9.677 -2.2223 -0.6979 -0.8357
  629MOL0     H84870   5.938  11.185   9.693  0.7549  0.1568  1.5918
  629MOL0     H84871   6.171  11.126   9.679  0.7745 -0.7520  2.2427
  629MOL0     H84872   6.133  11.215   9.816  0.3397 -0.6208 -0.1217
  629MOL0     H84873   6.202  11.436   9.706  1.2268 -0.6459  3.1285
  629MOL0     H84874   6.264  11.333   9.571 -0.5633 -0.5303 -0.3314
  629MOL0     H84875   6.350  11.562   9.623 -0.3110  2.4399  3.3305
  629MOL0     H84876   6.548  11.702   9.568  0.8479 -0.4072  0.7688
  629MOL0     H84877   6.986  11.870   9.550 -1.4512 -1.6775 -1.0069
  629MOL0     H84878   7.200  11.972   9.585  0.8379 -0.1282  0.7990
  629MOL0     H84879   7.455  11.949   9.580  0.5123 -1.4327  0.6345
  629MOL0     H84880   7.364  12.073   9.677  2.9473  3.5897 -2.3641
  629MOL0     H84881   7.561  12.098   9.814  0.6696 -0.0833 -0.1738
  629MOL0     H84882   7.636  11.961   9.731  1.8911 -0.2142 -0.3898
  629MOL0     H84883   7.622  12.089   9.517 -2.2152 -0.8341  0.3991
  629MOL0     H84884   7.570  12.229   9.601 -4.2232 -1.6164 -1.9821
  629MOL0     H84885   7.830  12.107   9.644 -0.5339 -0.9227 -1.2518
  629MOL0     H84886   7.761  12.230   9.746  2.2307 -2.8192 -0.0664
  629MOL0     H84887   7.748  12.367   9.514  0.3477  0.2534  1.3126
  629MOL0     H84888   7.815  12.221   9.447 -2.0513 -4.4639  1.1045
  629MOL0     H84889   8.025  12.260   9.569 -2.9232 -2.5681 -1.5159
  629MOL0     H84890   7.993  12.391   9.465 -1.6062 -0.7295 -1.1739
  629MOL0     H84891   7.888  12.435   9.739 -0.8623 -0.1165 -0.6310
  629MOL0     H84892   7.905  12.545   9.597 -3.9320 -1.7028 -1.4154
  629MOL0     H84893   8.154  12.524   9.629 -0.2919  0.2727 -0.3539
  629MOL0     H84894   8.066  12.563   9.777 -1.7701  0.0040  0.0895
  629MOL0     H84895   7.316  11.698   9.891  0.3717 -2.1305  0.1775
  629MOL0     H84896   7.077  11.600   9.883 -0.5717 -1.1162 -2.1970
  629MOL0     H84897   6.785  11.471   9.820 -0.2788 -0.7445  1.7222
  629MOL0     H84898   6.578  11.329   9.887 -0.7142  0.6974 -0.2790
  629MOL0     H84899   6.161  11.362   8.652  1.0428  0.4737 -0.3478
  629MOL0     H84900   6.326  11.223   8.527 -0.6351 -0.1127 -0.1508
  629MOL0     H84901   6.874  10.980   8.515  0.4806  0.6682  1.0737
  629MOL0     H84902   7.039  10.991   8.353 -0.9522 -0.4133 -2.2883
  629MOL0     H84903   7.149  10.990   8.147  1.6449 -1.1095 -0.0396
  629MOL0     H84904   7.249  11.062   8.268  0.1385  1.3087 -0.0625
  629MOL0     H84905   7.228  11.120   7.977  1.4161 -0.2367 -0.3408
  629MOL0     H84906   7.367  11.026   8.049 -0.7468 -1.0610  0.0565
  629MOL0     H84907   7.447  11.205   8.161 -0.1330  1.1366  0.0787
  629MOL0     H84908   7.314  11.316   8.095 -0.2070 -0.2014 -3.7202
  629MOL0     H84909   7.542  11.333   7.992 -1.7908  1.3577  1.5684
  629MOL0     H84910   7.484  11.193   7.884  1.0735  1.0368 -1.6525
  629MOL0     H84911   7.265  11.540   7.761  0.8289  1.7942 -0.1392
  629MOL0     H84912   6.928  11.376   8.231  0.2841 -1.4185 -2.2755
  629MOL0     H84913   6.729  11.439   8.530 -1.1858  0.1382 -0.1964
  629MOL0     H84914   6.795  11.524   8.388  1.2435  1.2108  2.2972
  629MOL0     H84915   6.652  11.430   8.371 -0.0431  0.8631  0.6863
  630MOL0     O84916   2.197   3.230   8.877 -0.4237  0.2421 -0.6371
  630MOL0     C84917   2.290   3.159   8.844  0.4961  0.2414  0.3711
  630MOL0     O84918   2.300   3.097   8.725  0.4547  0.3763  0.5709
  630MOL0     C84919   2.214   3.134   8.621  0.5101  0.3095  0.2980
  630MOL0     C84920   2.073   3.106   8.623 -0.4833 -0.2641 -0.7422
  630MOL0     C84921   1.995   3.123   8.513  0.0748  0.2662  0.1665
  630MOL0     C84922   2.047   3.173   8.401  0.7309 -0.7423  0.6305
  630MOL0     O84923   1.985   3.206   8.284  0.8322 -0.6926 -0.5516
  630MOL0     C84924   1.842   3.193   8.284  0.4011 -0.2441  0.8229
  630MOL0     C84925   1.772   3.249   8.145  1.4456 -0.8103  0.5364
  630MOL0     C84926   1.763   3.400   8.145  0.0513 -0.2944  0.2196
  630MOL0     C84927   1.646   3.435   8.035 -0.1382  0.0317 -0.1760
  630MOL0     C84928   1.624   3.589   8.040  0.6584  0.1533 -0.3218
  630MOL0     C84929   1.728   3.663   7.954  0.7189 -0.4330 -0.9099
  630MOL0     C84930   1.709   3.813   7.953 -0.5393 -0.1193 -0.2042
  630MOL0     C84931   1.764   3.884   7.828  0.4298 -0.6668  0.4611
  630MOL0     N84932   1.905   3.855   7.838  0.1009  0.1653  0.5733
  630MOL0     C84933   1.962   3.782   7.745  0.1682  0.2739 -0.0836
  630MOL0     C84934   2.093   3.804   7.752  0.6000 -0.3980 -0.2923
  630MOL0     C84935   2.205   3.757   7.660  0.5551  0.3841  0.2537
  630MOL0     C84936   2.230   3.853   7.535  0.7662 -0.8186  0.1745
  630MOL0     C84937   2.345   3.784   7.450 -0.5564 -0.0853  0.5980
  630MOL0     C84938   2.358   3.858   7.314 -0.1526  0.6438  1.1823
  630MOL0     O84939   2.410   3.994   7.335 -0.5513  0.5962 -0.5534
  630MOL0     C84940   2.544   4.009   7.351 -0.9512  0.6567 -0.0805
  630MOL0     C84941   2.619   4.031   7.227 -0.2860  0.3062  0.6353
  630MOL0     C84942   2.761   4.066   7.231  0.3036  0.4827  0.4787
  630MOL0     C84943   2.820   4.083   7.359  0.1986 -0.1674 -0.0915
  630MOL0     C84944   2.959   4.131   7.374  0.4527  0.1256 -0.5333
  630MOL0     O84945   3.019   4.189   7.266  0.1765  0.1347  0.1804
  630MOL0     C84946   3.146   4.239   7.274 -1.3596  0.2999  0.8409
  630MOL0     C84947   3.181   4.378   7.298 -0.0551 -0.7306 -0.5345
  630MOL0     C84948   3.309   4.418   7.330 -0.1493  0.2344  0.3107
  630MOL0     C84949   3.413   4.326   7.308  1.1936 -0.0713  0.2556
  630MOL0     O84950   3.552   4.348   7.307  0.5991 -0.3476 -0.0487
  630MOL0     C84951   3.595   4.397   7.443 -0.3568  0.8499 -0.2047
  630MOL0     C84952   3.710   4.296   7.492 -0.3849 -0.3176  1.1372
  630MOL0     C84953   3.779   4.371   7.616 -0.1881  0.4059 -0.3202
  630MOL0     C84954   3.881   4.280   7.697  0.5376  0.8665 -0.0445
  630MOL0     C84955   3.808   4.173   7.771 -0.0427 -0.6944  0.7131
  630MOL0     C84956   3.893   4.095   7.865 -1.4813  0.2705  0.0187
  630MOL0     C84957   3.816   3.976   7.936  0.1828 -0.0816  0.2118
  630MOL0     C84958   3.900   3.922   8.057  0.5543  0.7654  0.8458
  630MOL0    Cl84959   3.907   4.027   8.210 -0.3301  0.0500 -0.4705
  630MOL0     C84960   3.386   4.192   7.271  1.0833  0.0557 -0.1117
  630MOL0     C84961   3.250   4.150   7.264  0.6270 -0.0565 -0.2347
  630MOL0     O84962   3.011   4.107   7.484  0.4383 -0.0110  0.2861
  630MOL0     C84963   2.744   4.060   7.480  0.1125 -0.4678  0.8902
  630MOL0     C84964   2.607   4.030   7.474 -1.2291 -0.1624  0.9342
  630MOL0     N84965   2.117   3.882   7.861 -0.1452  0.2797 -0.1726
  630MOL0     N84966   2.009   3.901   7.923 -0.4960 -0.1262 -0.4605
  630MOL0     C84967   2.176   3.210   8.397  0.0680 -0.1989  0.2663
  630MOL0     C84968   2.267   3.200   8.508 -0.1752 -0.0727  0.7217
  630MOL0     C84969   2.398   3.134   8.943  0.1885  0.0312  0.2970
  630MOL0     C84970   2.353   3.147   9.077 -0.0619  0.6100 -0.3484
  630MOL0     C84971   2.445   3.133   9.181 -0.3319 -0.3207  1.2497
  630MOL0     C84972   2.579   3.108   9.154 -0.8690 -0.3502 -0.3938
  630MOL0     O84973   2.665   3.090   9.259 -0.4020  0.9272 -0.5206
  630MOL0     C84974   2.792   3.040   9.234  0.4664  0.4940  1.3004
  630MOL0     C84975   2.869   3.050   9.365  0.3433  0.4357  0.4219
  630MOL0     C84976   3.017   2.991   9.352  1.4516 -0.5673  0.0781
  630MOL0     C84977   3.084   2.982   9.486  0.2200  0.8918 -0.1544
  630MOL0     C84978   3.020   2.894   9.586  0.0538 -0.1807  0.1339
  630MOL0     C84979   2.955   2.829   9.670  0.8689  0.0160  0.9134
  630MOL0     C84980   2.613   3.068   9.023  0.0219 -0.3073  0.0303
  630MOL0     C84981   2.531   3.084   8.915 -0.2610 -0.5219 -0.0565
  630MOL0     C84982   2.577   3.060   8.781 -0.0106 -0.4720 -0.0320
  630MOL0     H84983   2.035   3.057   8.712  2.9097  1.0909  1.6779
  630MOL0     H84984   1.891   3.095   8.518  0.3436 -1.2646 -1.6906
  630MOL0     H84985   1.822   3.086   8.286  2.9331 -0.8881 -1.3579
  630MOL0     H84986   1.791   3.241   8.368  2.9722  1.0775  1.7511
  630MOL0     H84987   1.670   3.209   8.147  1.3526 -0.5655  0.7734
  630MOL0     H84988   1.820   3.204   8.058 -1.1397 -3.1777  0.1965
  630MOL0     H84989   1.856   3.450   8.116  0.2335  3.0165  5.2807
  630MOL0     H84990   1.748   3.433   8.248 -0.5924  4.4882 -1.1718
  630MOL0     H84991   1.671   3.403   7.934 -0.9233  0.9843 -0.6875
  630MOL0     H84992   1.555   3.389   8.075  1.1622 -1.5938  1.0693
  630MOL0     H84993   1.527   3.615   7.995  1.9009 -0.9029 -3.9578
  630MOL0     H84994   1.626   3.621   8.145  5.5233  0.3443 -0.2448
  630MOL0     H84995   1.828   3.645   7.992  0.1182  0.6698  1.3535
  630MOL0     H84996   1.728   3.608   7.859 -0.6155  2.6340 -2.8657
  630MOL0     H84997   1.755   3.845   8.047 -2.7147  1.9537  0.2331
  630MOL0     H84998   1.604   3.840   7.965 -0.3517 -0.5414  4.3366
  630MOL0     H84999   1.729   3.845   7.732 -0.1523  0.5288  0.1765
  630MOL0     H85000   1.739   3.989   7.841  0.0614 -0.9123  1.9811
  630MOL0     H85001   1.908   3.739   7.661  0.1986  1.8846 -0.9680
  630MOL0     H85002   2.297   3.763   7.718  0.3770 -0.1720  0.5935
  630MOL0     H85003   2.187   3.658   7.617  0.7248 -0.3827  1.9001
  630MOL0     H85004   2.139   3.875   7.478  0.1198  0.5790  1.6598
  630MOL0     H85005   2.269   3.948   7.572  1.0491 -1.3330  1.2211
  630MOL0     H85006   2.315   3.681   7.429  1.7405 -0.7382  0.3280
  630MOL0     H85007   2.440   3.779   7.502 -0.2145 -1.5220 -0.1394
  630MOL0     H85008   2.264   3.872   7.260 -0.1628  0.1079  1.0494
  630MOL0     H85009   2.419   3.786   7.258 -1.0706  1.4957 -1.0513
  630MOL0     H85010   2.572   4.027   7.129  1.0666  0.4575 -0.0587
  630MOL0     H85011   2.822   4.083   7.143  0.3434 -4.3761 -0.7179
  630MOL0     H85012   3.107   4.457   7.312  0.0629 -0.3994 -1.6658
  630MOL0     H85013   3.327   4.519   7.364 -0.8433  0.2112  0.7659
  630MOL0     H85014   3.638   4.497   7.447  3.1762 -0.4762 -1.2765
  630MOL0     H85015   3.508   4.390   7.508 -1.1252  1.6606 -1.1079
  630MOL0     H85016   3.657   4.204   7.516  3.0360 -2.4541  1.1939
  630MOL0     H85017   3.779   4.267   7.411 -1.8160 -0.6832  0.0089
  630MOL0     H85018   3.840   4.457   7.589 -1.1384  1.3895  0.5566
  630MOL0     H85019   3.703   4.414   7.682  0.4120  1.0754 -0.0540
  630MOL0     H85020   3.938   4.340   7.769 -0.9836  1.7167  0.4981
  630MOL0     H85021   3.956   4.231   7.634  1.0937  0.2541  1.0717
  630MOL0     H85022   3.770   4.104   7.695  0.2711  1.1882 -1.2693
  630MOL0     H85023   3.718   4.213   7.820 -1.5646  0.1562 -2.4882
  630MOL0     H85024   3.969   4.055   7.798  0.2115  1.7094  0.9996
  630MOL0     H85025   3.935   4.154   7.947 -1.0016  0.0554 -0.0671
  630MOL0     H85026   3.803   3.894   7.864  0.1797  0.2244 -0.1415
  630MOL0     H85027   3.719   4.017   7.965 -0.6464  0.8411 -3.3048
  630MOL0     H85028   3.867   3.826   8.099 -1.0394  2.0700  2.8356
  630MOL0     H85029   3.999   3.901   8.018 -0.6577 -1.3645 -1.3520
  630MOL0     H85030   3.474   4.134   7.246  0.6475  0.2510 -2.3580
  630MOL0     H85031   3.222   4.057   7.216  1.6184  0.9984 -3.0707
  630MOL0     H85032   2.792   4.069   7.577  3.0278 -0.3171 -0.4762
  630MOL0     H85033   2.546   4.021   7.563  0.0547  0.3565  1.8917
  630MOL0     H85034   2.216   3.232   8.298 -1.1433 -1.1862 -0.4661
  630MOL0     H85035   2.372   3.225   8.505  0.3090 -1.6623  2.2369
  630MOL0     H85036   2.246   3.153   9.095 -0.0990  2.2364 -1.0074
  630MOL0     H85037   2.407   3.150   9.281  0.7630  0.6358  1.5227
  630MOL0     H85038   2.849   3.098   9.162  1.6810  0.4229  2.1792
  630MOL0     H85039   2.793   2.938   9.194 -0.1446  1.4296 -1.2953
  630MOL0     H85040   2.812   2.993   9.439  1.6908 -0.9048  0.4905
  630MOL0     H85041   2.888   3.154   9.394 -0.4310  1.0144 -1.0368
  630MOL0     H85042   3.067   3.068   9.291 -0.2737  1.1687  0.7492
  630MOL0     H85043   3.028   2.899   9.294  2.2334 -0.2788 -0.2591
  630MOL0     H85044   3.186   2.948   9.464  1.0100  0.7016  3.3197
  630MOL0     H85045   3.089   3.079   9.535  1.2069  1.6646 -1.7218
  630MOL0     H85046   2.891   2.776   9.737  0.7322 -1.2056 -0.1430
  630MOL0     H85047   2.714   3.034   9.003 -0.4935 -1.3056 -0.9975
  630MOL0     H85048   2.586   3.157   8.732  2.5909 -0.5763  0.0880
  630MOL0     H85049   2.679   3.022   8.795 -0.1398  0.2027  3.8603
  630MOL0     H85050   2.523   2.992   8.714  0.2688  1.4306 -2.3089
  631MOL0     O85051   0.458  10.087   2.621  0.1254  0.0327  0.3911
  631MOL0     C85052   0.350  10.148   2.609 -0.1582  0.4867  0.1149
  631MOL0     O85053   0.321  10.237   2.502 -0.9936 -0.5444  0.1748
  631MOL0     C85054   0.417  10.256   2.406  0.6197  0.7500  1.0715
  631MOL0     C85055   0.559  10.260   2.425 -0.2998 -0.2108  0.0560
  631MOL0     C85056   0.642  10.302   2.314 -0.4210  0.0565 -0.1035
  631MOL0     C85057   0.581  10.317   2.185 -1.3995 -0.3364 -0.3805
  631MOL0     O85058   0.655  10.347   2.071 -0.1505 -0.2366  0.2743
  631MOL0     C85059   0.793  10.390   2.089 -0.2137 -0.3404  0.1575
  631MOL0     C85060   0.839  10.443   1.958  0.4069 -0.9052  0.7683
  631MOL0     C85061   0.926  10.566   1.986  0.3249 -0.4636  0.3433
  631MOL0     C85062   0.973  10.635   1.853  0.3287 -0.2534  0.1174
  631MOL0     C85063   1.080  10.743   1.871 -0.3458 -0.7741 -0.5620
  631MOL0     C85064   1.103  10.839   1.754  0.2143  0.9137 -0.1444
  631MOL0     C85065   1.175  10.772   1.642  0.1184 -0.4849 -0.1995
  631MOL0     C85066   1.157  10.834   1.493  0.0601  0.4372  0.4891
  631MOL0     N85067   1.195  10.973   1.480 -0.4089 -0.2027  0.9715
  631MOL0     C85068   1.317  11.023   1.443  0.9327  0.9950 -0.1915
  631MOL0     C85069   1.320  11.154   1.468  0.4381 -0.0301  0.0787
  631MOL0     C85070   1.437  11.250   1.450 -0.2076  0.2337 -0.8971
  631MOL0     C85071   1.530  11.235   1.336 -0.1617 -0.3030  0.2115
  631MOL0     C85072   1.630  11.357   1.325  0.2981 -0.1755 -0.6281
  631MOL0     C85073   1.705  11.337   1.194 -0.4881 -0.3104  0.1667
  631MOL0     O85074   1.777  11.213   1.198 -0.1598 -0.1090  0.2401
  631MOL0     C85075   1.874  11.194   1.295 -0.3305  0.1080 -0.5285
  631MOL0     C85076   1.894  11.064   1.345 -0.3044  0.8015  0.8695
  631MOL0     C85077   1.970  11.032   1.455  0.4393  0.3096 -0.1833
  631MOL0     C85078   2.042  11.131   1.517 -0.7514  0.3863 -0.3255
  631MOL0     C85079   2.129  11.097   1.633  0.1058 -0.0070 -0.1869
  631MOL0     O85080   2.171  11.202   1.705 -0.2887  0.0361 -0.1520
  631MOL0     C85081   2.240  11.184   1.821 -0.9782 -0.8037 -0.4637
  631MOL0     C85082   2.245  11.083   1.915  0.0635 -0.1162 -0.3844
  631MOL0     C85083   2.313  11.097   2.034 -0.0948  0.4004 -0.6150
  631MOL0     C85084   2.400  11.210   2.050  0.3348 -1.1617 -0.6629
  631MOL0     O85085   2.467  11.246   2.167  0.4078  0.2940  0.2786
  631MOL0     C85086   2.490  11.155   2.270  0.3331  0.6454 -0.3908
  631MOL0     C85087   2.633  11.188   2.321  0.3985 -0.1852 -0.1426
  631MOL0     C85088   2.684  11.083   2.425  0.2808 -0.2172 -0.4612
  631MOL0     C85089   2.806  11.153   2.501  0.4422  0.1573  0.0090
  631MOL0     C85090   2.866  11.067   2.609 -0.0312 -0.3937 -0.8459
  631MOL0     C85091   2.782  11.073   2.744  0.2280  0.2841  0.0525
  631MOL0     C85092   2.833  10.961   2.824 -0.0143  0.3455 -0.7452
  631MOL0     C85093   2.778  10.824   2.799  0.6108 -0.4230 -0.3396
  631MOL0    Cl85094   2.813  10.715   2.943  0.0963  0.0650 -0.0103
  631MOL0     C85095   2.400  11.313   1.959  0.1479 -0.3062  0.1484
  631MOL0     C85096   2.317  11.307   1.850 -0.1174  0.4652  0.0911
  631MOL0     O85097   2.153  10.979   1.661 -0.2471 -0.2578  0.9213
  631MOL0     C85098   2.031  11.268   1.471  0.3007  0.3782  0.5635
  631MOL0     C85099   1.942  11.295   1.362 -0.6567 -0.9456 -0.3064
  631MOL0     N85100   1.198  11.195   1.511 -0.5801 -0.1517  0.5135
  631MOL0     N85101   1.129  11.088   1.523 -0.7633  0.1781 -0.1230
  631MOL0     C85102   0.448  10.285   2.166 -0.0630 -0.5969 -0.6703
  631MOL0     C85103   0.367  10.268   2.277 -0.2504  0.4991  0.1919
  631MOL0     C85104   0.244  10.131   2.703  0.2273 -0.4285 -0.5405
  631MOL0     C85105   0.147  10.233   2.724 -0.9983 -0.3259 -0.9686
  631MOL0     C85106   0.033  10.211   2.792  0.5284  0.0718 -0.7077
  631MOL0     C85107   0.007  10.085   2.858  1.2682 -0.2606  0.2271
  631MOL0     O85108  -0.095  10.055   2.937  0.4006 -0.4301  0.2678
  631MOL0     C85109  -0.194  10.154   2.981  0.6052  0.0693  0.7664
  631MOL0     C85110  -0.310  10.193   2.876 -0.3841 -0.4643 -0.4005
  631MOL0     C85111  -0.416  10.079   2.854  0.1656  0.1934 -0.9662
  631MOL0     C85112  -0.524  10.121   2.754  0.2408  0.5590  0.2469
  631MOL0     C85113  -0.626  10.015   2.767  0.5092  0.4775 -0.3609
  631MOL0     C85114  -0.722   9.938   2.784  0.2519 -0.5340  0.0202
  631MOL0     C85115   0.112   9.987   2.856 -0.1815 -0.2186 -0.2009
  631MOL0     C85116   0.222  10.009   2.774 -0.5806 -0.1157  0.7003
  631MOL0     C85117   0.311   9.887   2.745  0.0819  0.0471 -0.9574
  631MOL0     H85118   0.619  10.252   2.515  0.8736  2.1106 -0.4575
  631MOL0     H85119   0.740  10.310   2.360 -0.5345 -1.4714  0.4577
  631MOL0     H85120   0.805  10.457   2.175 -0.9615  0.8718 -0.6431
  631MOL0     H85121   0.856  10.305   2.114 -0.2626 -0.7361 -1.0176
  631MOL0     H85122   0.756  10.487   1.901  2.1646 -1.2231 -2.2534
  631MOL0     H85123   0.881  10.359   1.900  0.0819 -0.2584 -0.4367
  631MOL0     H85124   1.024  10.544   2.031  1.0876  2.4096  0.2635
  631MOL0     H85125   0.883  10.646   2.048 -0.4778  0.1007 -0.9139
  631MOL0     H85126   1.014  10.565   1.780 -0.0277  0.2415 -0.5728
  631MOL0     H85127   0.880  10.678   1.815 -0.6294 -2.0924  0.2802
  631MOL0     H85128   1.053  10.810   1.953  3.5247 -0.7477  0.8555
  631MOL0     H85129   1.174  10.697   1.902 -0.6098  1.1749  3.8118
  631MOL0     H85130   1.006  10.878   1.722 -0.3559 -0.1931  0.2024
  631MOL0     H85131   1.163  10.926   1.783  1.4782 -0.0509  0.2267
  631MOL0     H85132   1.162  10.664   1.648  0.5913 -0.6815 -2.0845
  631MOL0     H85133   1.281  10.776   1.668 -0.2303  0.1093  1.2875
  631MOL0     H85134   1.222  10.772   1.431  0.6388  1.3220  0.1986
  631MOL0     H85135   1.054  10.819   1.459  0.1337  1.4880 -0.2443
  631MOL0     H85136   1.396  10.955   1.410 -0.9387 -1.7519  0.6631
  631MOL0     H85137   1.394  11.351   1.444  0.3102  0.6523  1.3784
  631MOL0     H85138   1.496  11.248   1.542 -2.3496  1.2270  0.5890
  631MOL0     H85139   1.601  11.152   1.351  1.5574  1.0760 -0.0099
  631MOL0     H85140   1.473  11.211   1.245  1.0718 -5.0839  0.4025
  631MOL0     H85141   1.692  11.371   1.415  0.3976 -2.7836 -0.1953
  631MOL0     H85142   1.584  11.456   1.318 -0.6368 -0.3064  2.2433
  631MOL0     H85143   1.774  11.420   1.176  0.4344 -1.3225 -1.1585
  631MOL0     H85144   1.645  11.345   1.102 -1.0135  0.0673  0.5343
  631MOL0     H85145   1.844  10.981   1.295  0.8427 -1.0277  2.5818
  631MOL0     H85146   1.986  10.928   1.481  0.4360  1.1141  3.6028
  631MOL0     H85147   2.167  11.009   1.899  1.4621 -1.1625 -2.9493
  631MOL0     H85148   2.296  11.030   2.118 -0.2677  0.3562 -0.6838
  631MOL0     H85149   2.410  11.177   2.341 -0.3448 -5.2507  1.2184
  631MOL0     H85150   2.480  11.050   2.242 -1.7064  1.0871 -1.5141
  631MOL0     H85151   2.691  11.185   2.229  2.5487 -4.2831  1.1000
  631MOL0     H85152   2.636  11.294   2.345  0.9111 -0.1603 -0.3131
  631MOL0     H85153   2.611  11.067   2.505  1.8344  2.5614  1.6510
  631MOL0     H85154   2.704  10.983   2.385  0.6563  0.0697 -1.0006
  631MOL0     H85155   2.781  11.250   2.544 -0.5005  0.5256 -1.3112
  631MOL0     H85156   2.884  11.163   2.425 -0.2668 -1.3244 -0.9743
  631MOL0     H85157   2.972  11.092   2.621  1.0721 -2.0898 -5.1609
  631MOL0     H85158   2.878  10.971   2.558  1.4602 -0.7655  0.1467
  631MOL0     H85159   2.798  11.170   2.793  0.4351  0.4552 -0.3539
  631MOL0     H85160   2.674  11.074   2.727 -0.1679  0.0472  2.1946
  631MOL0     H85161   2.810  10.977   2.930 -0.1671 -1.6941 -0.4270
  631MOL0     H85162   2.941  10.955   2.809  0.1830  3.3739 -1.0452
  631MOL0     H85163   2.669  10.832   2.791  0.5614 -0.9443 -0.1823
  631MOL0     H85164   2.826  10.781   2.711  1.9647  1.8295 -0.7725
  631MOL0     H85165   2.468  11.396   1.974 -2.3388  1.7333  0.8366
  631MOL0     H85166   2.318  11.391   1.781  1.3454 -0.6842 -1.3805
  631MOL0     H85167   2.087  11.354   1.506  2.3768  0.4633 -2.6009
  631MOL0     H85168   1.932  11.400   1.334 -2.3267 -0.8785  0.4174
  631MOL0     H85169   0.412  10.297   2.065  0.3725 -1.6355 -0.9671
  631MOL0     H85170   0.261  10.284   2.264 -0.0996  2.1029  0.7261
  631MOL0     H85171   0.167  10.334   2.688  0.0126  0.8855  2.5651
  631MOL0     H85172  -0.051  10.280   2.798 -0.1546 -0.8209  0.4671
  631MOL0     H85173  -0.144  10.249   3.001 -0.0046  0.3341  1.0773
  631MOL0     H85174  -0.245  10.121   3.072  1.0733  2.1968  1.8730
  631MOL0     H85175  -0.273  10.225   2.779  0.0642 -0.4532 -0.2295
  631MOL0     H85176  -0.360  10.288   2.899 -1.2804 -0.8809 -0.5659
  631MOL0     H85177  -0.460  10.056   2.951 -1.1733  0.5330 -1.4746
  631MOL0     H85178  -0.355  10.000   2.809  0.8651 -2.3412  3.8821
  631MOL0     H85179  -0.574  10.214   2.780 -1.5605 -0.7591  1.8190
  631MOL0     H85180  -0.480  10.120   2.654 -1.9192 -1.1842 -0.7718
  631MOL0     H85181  -0.811   9.882   2.802 -1.1594  1.0030 -1.8393
  631MOL0     H85182   0.100   9.903   2.923  2.4310 -0.6596 -0.1804
  631MOL0     H85183   0.256   9.799   2.779  0.8942 -0.2816 -0.4474
  631MOL0     H85184   0.332   9.874   2.638 -1.1361  0.1583 -1.2225
  631MOL0     H85185   0.400   9.904   2.806 -1.3907  0.9561  1.0414
  632MOL0     O85186   4.186   1.016   7.993  0.0084  0.4443  0.1199
  632MOL0     C85187   4.108   0.927   7.967  0.1539 -0.4410 -0.4651
  632MOL0     O85188   3.986   0.907   8.029 -0.2367 -0.0994 -0.1003
  632MOL0     C85189   3.960   0.968   8.152 -0.3037 -0.3861  0.1576
  632MOL0     C85190   4.044   0.986   8.260  0.7444  0.3084 -0.1925
  632MOL0     C85191   3.995   1.048   8.382 -0.8596 -0.1920  0.0057
  632MOL0     C85192   3.873   1.108   8.387  1.1943  0.8398 -0.7493
  632MOL0     O85193   3.835   1.190   8.487 -0.0956  0.1315  0.2924
  632MOL0     C85194   3.859   1.135   8.622  0.0891  0.0018 -0.7435
  632MOL0     C85195   3.953   1.228   8.694 -0.5578 -0.4072  0.1834
  632MOL0     C85196   4.007   1.158   8.820  0.9909 -0.3711  0.5698
  632MOL0     C85197   4.077   1.260   8.921  0.7944 -0.4331  0.1838
  632MOL0     C85198   4.098   1.180   9.052 -0.9356  0.1227 -0.3279
  632MOL0     C85199   4.187   1.243   9.152  0.4441 -0.1703  0.3431
  632MOL0     C85200   4.186   1.163   9.288 -0.2273 -0.1141  0.0463
  632MOL0     C85201   4.275   1.040   9.295 -0.3909 -0.1962 -0.6985
  632MOL0     N85202   4.408   1.053   9.247  0.2677 -1.0586 -1.1359
  632MOL0     C85203   4.515   1.112   9.314  0.2700  0.6903 -0.2733
  632MOL0     C85204   4.617   1.081   9.233 -0.0949  0.1898 -0.3423
  632MOL0     C85205   4.750   1.144   9.246  0.1241 -0.1531 -0.4745
  632MOL0     C85206   4.848   1.059   9.329  0.7706  0.2315 -0.8540
  632MOL0     C85207   4.793   1.026   9.473  0.1115 -0.2567  0.1291
  632MOL0     C85208   4.875   0.923   9.551 -0.4085 -0.1495  0.1521
  632MOL0     O85209   4.882   0.796   9.476  0.0371  0.2212 -0.9342
  632MOL0     C85210   4.940   0.679   9.529 -1.1269  0.3507 -0.3401
  632MOL0     C85211   4.975   0.661   9.672 -0.5427 -0.2074 -0.4147
  632MOL0     C85212   5.003   0.529   9.707  0.2107  1.3288 -0.1245
  632MOL0     C85213   5.025   0.427   9.617  0.0962  0.9054 -0.1908
  632MOL0     C85214   5.061   0.281   9.658 -1.0106  0.4608  0.0181
  632MOL0     O85215   5.039   0.271   9.791  0.5158 -0.6801  0.4710
  632MOL0     C85216   5.085   0.168   9.855  0.0832  1.0241 -0.0865
  632MOL0     C85217   5.204   0.100   9.826  0.4158 -0.6806  1.2275
  632MOL0     C85218   5.256   0.012   9.916  0.0971  0.1735 -0.8054
  632MOL0     C85219   5.183  -0.028  10.035 -0.1398 -1.2602  0.2969
  632MOL0     O85220   5.230  -0.127  10.115  0.3408  0.3057  0.1282
  632MOL0     C85221   5.150  -0.175  10.230 -0.3729 -0.3620  0.7190
  632MOL0     C85222   5.196  -0.312  10.286  0.9546 -0.2221 -0.2379
  632MOL0     C85223   5.191  -0.418  10.174  0.2661  0.5308 -1.0769
  632MOL0     C85224   5.324  -0.459  10.132  0.3840 -0.5625 -0.2269
  632MOL0     C85225   5.389  -0.553  10.229 -0.5373  0.0264  0.7154
  632MOL0     C85226   5.538  -0.566  10.204 -0.0809  0.0737 -0.7714
  632MOL0     C85227   5.596  -0.657  10.322  0.4520 -0.5258 -0.2187
  632MOL0     C85228   5.739  -0.670  10.288 -0.2322 -0.4689  0.0416
  632MOL0    Cl85229   5.833  -0.773  10.389 -0.0974  0.0332 -0.1162
  632MOL0     C85230   5.062   0.037  10.058  0.2443  0.5241 -0.4946
  632MOL0     C85231   5.014   0.132   9.968 -0.6388  0.8808  0.1415
  632MOL0     O85232   5.088   0.187   9.578 -1.0109  0.2630 -0.1956
  632MOL0     C85233   5.004   0.457   9.478  0.7292  0.4991  0.4163
  632MOL0     C85234   4.964   0.573   9.429 -0.1043 -0.1238  0.7249
  632MOL0     N85235   4.573   1.006   9.126 -0.4543 -0.4215  0.0844
  632MOL0     N85236   4.448   0.990   9.135  0.6623  0.0926  0.2974
  632MOL0     C85237   3.790   1.089   8.273  0.0105 -0.3664  0.5155
  632MOL0     C85238   3.827   1.015   8.167 -0.2312  0.0661  0.3108
  632MOL0     C85239   4.127   0.842   7.849 -0.6720  0.6232 -0.0219
  632MOL0     C85240   4.051   0.728   7.830 -0.1490  1.4331 -0.0525
  632MOL0     C85241   4.057   0.646   7.720  0.8828 -1.3511  0.0533
  632MOL0     C85242   4.152   0.676   7.617 -0.6473 -0.3775  0.3147
  632MOL0     O85243   4.180   0.608   7.502  0.4391  0.3939 -0.5375
  632MOL0     C85244   4.084   0.508   7.470  0.2390 -0.2842 -0.2094
  632MOL0     C85245   4.105   0.466   7.324 -0.4934 -0.3731  0.0990
  632MOL0     C85246   4.036   0.327   7.305 -0.2673 -0.2035 -0.1452
  632MOL0     C85247   4.002   0.316   7.159 -0.0583  0.0817 -0.1532
  632MOL0     C85248   3.974   0.177   7.135  0.0330  0.0501  0.1632
  632MOL0     C85249   3.962   0.064   7.097  0.3959  0.2836 -0.5583
  632MOL0     C85250   4.224   0.799   7.633  0.0570  0.5970 -0.1654
  632MOL0     C85251   4.219   0.880   7.740  0.3252  0.3906  0.3657
  632MOL0     C85252   4.287   1.013   7.723  0.3683 -1.1305  0.3954
  632MOL0     H85253   4.140   0.936   8.251  0.8465  0.3001  0.8288
  632MOL0     H85254   4.067   1.053   8.462  2.1016  0.5415 -2.5025
  632MOL0     H85255   3.762   1.138   8.671  0.1694  1.2835 -0.6214
  632MOL0     H85256   3.900   1.033   8.630 -0.3687 -0.2063 -1.0647
  632MOL0     H85257   3.901   1.318   8.727  2.3293  1.2525  0.5979
  632MOL0     H85258   4.030   1.263   8.624 -3.2558  0.8479 -2.3685
  632MOL0     H85259   4.078   1.078   8.796  1.0548 -0.0292 -0.4073
  632MOL0     H85260   3.917   1.116   8.868  0.7136  2.4161  2.7400
  632MOL0     H85261   4.173   1.293   8.881  1.2726  1.1800  2.4513
  632MOL0     H85262   4.016   1.348   8.942  3.1175  1.5020 -0.7689
  632MOL0     H85263   3.999   1.161   9.095 -0.8977 -0.9060 -0.6933
  632MOL0     H85264   4.136   1.079   9.039  1.0643  0.6394  0.9378
  632MOL0     H85265   4.289   1.257   9.116  0.9356  0.6146  1.9472
  632MOL0     H85266   4.155   1.346   9.173  3.3695  0.5833  1.5626
  632MOL0     H85267   4.084   1.131   9.313  0.4802  0.9704  5.7014
  632MOL0     H85268   4.224   1.230   9.366  2.3521 -0.4240 -0.8327
  632MOL0     H85269   4.278   1.005   9.398  2.4568  0.3869 -0.5048
  632MOL0     H85270   4.219   0.968   9.235 -1.0590  1.3200 -1.9860
  632MOL0     H85271   4.506   1.196   9.382 -2.8734  0.1973  0.0464
  632MOL0     H85272   4.795   1.142   9.146 -0.8732 -2.6795 -0.9589
  632MOL0     H85273   4.738   1.243   9.290 -1.8393 -0.3136 -0.5592
  632MOL0     H85274   4.851   0.962   9.279 -1.3545 -0.9621  1.1360
  632MOL0     H85275   4.940   1.115   9.347 -1.1887  2.4018  4.3815
  632MOL0     H85276   4.693   0.983   9.469 -1.9198  4.0505 -1.1932
  632MOL0     H85277   4.793   1.123   9.522  2.4352 -0.5246  0.7881
  632MOL0     H85278   4.837   0.904   9.652 -3.3719 -0.7654 -0.9764
  632MOL0     H85279   4.976   0.963   9.559  0.8066 -2.8972 -0.3491
  632MOL0     H85280   4.962   0.737   9.747  2.3365  0.1056 -0.1333
  632MOL0     H85281   5.003   0.506   9.813  0.6225 -0.4574 -0.4817
  632MOL0     H85282   5.248   0.104   9.727  1.0879 -1.6223  1.4786
  632MOL0     H85283   5.344  -0.049   9.898 -0.5559 -1.3627  0.9106
  632MOL0     H85284   5.184  -0.097  10.298  3.7075  2.4485 -3.8704
  632MOL0     H85285   5.042  -0.186  10.213 -0.8875 -0.1294  3.4408
  632MOL0     H85286   5.297  -0.303  10.326  1.5009 -0.7437 -1.4698
  632MOL0     H85287   5.117  -0.339  10.357 -0.4661  3.6824 -0.0464
  632MOL0     H85288   5.139  -0.506  10.211 -0.7468  1.0084 -1.3244
  632MOL0     H85289   5.127  -0.386  10.090 -0.3318  0.7552 -0.5434
  632MOL0     H85290   5.377  -0.364  10.122  1.1478 -0.7203  1.8342
  632MOL0     H85291   5.328  -0.503  10.032 -0.5338 -1.5912  0.1671
  632MOL0     H85292   5.348  -0.654  10.218  0.0647 -0.0039 -1.7011
  632MOL0     H85293   5.379  -0.518  10.332  1.9969 -2.3395  1.8743
  632MOL0     H85294   5.546  -0.622  10.110 -1.6933 -2.0122  0.2484
  632MOL0     H85295   5.585  -0.467  10.201  1.9336 -0.8500 -2.0099
  632MOL0     H85296   5.554  -0.757  10.332  0.6075 -0.4845  0.9429
  632MOL0     H85297   5.577  -0.617  10.422  0.1324  0.1516 -0.5419
  632MOL0     H85298   5.752  -0.702  10.185  0.8925 -0.3284  0.1212
  632MOL0     H85299   5.778  -0.570  10.308 -0.4518 -0.8011  2.4266
  632MOL0     H85300   5.015   0.032  10.156 -0.5696  0.5854 -0.8781
  632MOL0     H85301   4.922   0.184   9.993  0.1757  1.6534  1.7337
  632MOL0     H85302   5.022   0.382   9.402 -0.4775 -0.5123  1.1019
  632MOL0     H85303   4.935   0.590   9.326  1.7697  1.6785  0.4106
  632MOL0     H85304   3.695   1.140   8.258  1.3917  1.9060 -1.1634
  632MOL0     H85305   3.761   1.012   8.080  0.5637  0.1293 -0.3070
  632MOL0     H85306   3.991   0.685   7.910  3.6330 -0.5134  2.0204
  632MOL0     H85307   3.994   0.558   7.709 -2.1708  0.8129 -1.6281
  632MOL0     H85308   3.985   0.551   7.487 -0.1236 -0.4022 -1.8224
  632MOL0     H85309   4.073   0.420   7.534 -3.7016 -0.4834 -0.8701
  632MOL0     H85310   4.212   0.465   7.298 -0.4397  0.7152  0.2371
  632MOL0     H85311   4.066   0.538   7.253  2.6289  1.3044 -0.0815
  632MOL0     H85312   3.942   0.321   7.361 -0.5253  2.1471 -0.2434
  632MOL0     H85313   4.109   0.251   7.333  0.3425  0.0673 -0.9446
  632MOL0     H85314   3.906   0.369   7.150 -0.1819  0.7915  3.5515
  632MOL0     H85315   4.070   0.361   7.087 -3.3268  2.1488 -2.2356
  632MOL0     H85316   3.925  -0.017   7.036 -2.6426  0.6182  0.6371
  632MOL0     H85317   4.283   0.829   7.547 -0.1858 -0.9065 -0.8807
  632MOL0     H85318   4.225   1.098   7.753  1.3554 -0.6347  1.0567
  632MOL0     H85319   4.380   1.012   7.781 -0.8768  2.4968  2.7822
  632MOL0     H85320   4.309   1.035   7.618 -2.1141  1.6907  0.3134
  633MOL0     O85321   0.346   3.213   7.498  0.3267 -0.0028  0.3271
  633MOL0     C85322   0.463   3.171   7.502 -0.1383 -1.1487  0.2730
  633MOL0     O85323   0.531   3.144   7.619 -0.2380  0.2541 -0.0137
  633MOL0     C85324   0.486   3.164   7.746 -0.2014 -0.8561  0.7773
  633MOL0     C85325   0.363   3.119   7.789  0.9542  0.1982 -0.0121
  633MOL0     C85326   0.317   3.150   7.916  0.6451 -1.3074 -0.3215
  633MOL0     C85327   0.395   3.218   8.014 -0.1021  0.1922  0.5927
  633MOL0     O85328   0.330   3.254   8.136 -0.9368  0.2975  0.7618
  633MOL0     C85329   0.417   3.270   8.250 -0.9300 -0.0709  0.2348
  633MOL0     C85330   0.338   3.264   8.377  0.5020 -0.1477  0.2101
  633MOL0     C85331   0.220   3.364   8.369  0.0895  1.5549  0.7124
  633MOL0     C85332   0.144   3.345   8.503  0.2799  0.6975  0.1359
  633MOL0     C85333   0.038   3.462   8.523  0.7443 -0.2196  0.1570
  633MOL0     C85334  -0.046   3.448   8.655  0.1961  0.1233 -1.0304
  633MOL0     C85335  -0.074   3.590   8.696  0.5207 -1.5106  0.0340
  633MOL0     C85336  -0.164   3.600   8.824  0.3522 -0.3563  0.3164
  633MOL0     N85337  -0.163   3.732   8.873  0.3915  0.5604  0.2013
  633MOL0     C85338  -0.211   3.843   8.812 -0.3162 -0.0813  0.2965
  633MOL0     C85339  -0.202   3.950   8.900 -0.1210 -0.0234 -0.1306
  633MOL0     C85340  -0.275   4.075   8.883 -0.0050  0.0276 -0.1916
  633MOL0     C85341  -0.360   4.113   9.007 -0.0440 -0.6463 -0.6230
  633MOL0     C85342  -0.415   4.251   8.979  0.2403 -0.7642 -0.4822
  633MOL0     C85343  -0.520   4.257   8.872  0.9812 -0.7273 -0.4755
  633MOL0     O85344  -0.606   4.369   8.908  0.0376 -0.0818  0.5631
  633MOL0     C85345  -0.701   4.404   8.810 -0.7045 -0.3242  0.4780
  633MOL0     C85346  -0.718   4.545   8.795 -0.3471 -0.3463  0.2737
  633MOL0     C85347  -0.814   4.590   8.702 -0.3941  0.5636 -0.8277
  633MOL0     C85348  -0.893   4.499   8.631 -0.0219  0.2540  0.4570
  633MOL0     C85349  -0.996   4.556   8.540  0.5144  0.0978  0.0768
  633MOL0     O85350  -0.997   4.692   8.523  0.7282 -0.4294  0.1488
  633MOL0     C85351  -1.095   4.760   8.466  0.3412  0.5550  0.5267
  633MOL0     C85352  -1.194   4.820   8.543 -0.9206  0.3224 -0.3824
  633MOL0     C85353  -1.294   4.894   8.496  1.4622 -0.2543 -0.1922
  633MOL0     C85354  -1.314   4.918   8.363 -1.1607  0.3254  0.4248
  633MOL0     O85355  -1.416   4.991   8.310 -0.0669  0.8543 -0.4414
  633MOL0     C85356  -1.549   4.982   8.364 -0.4144  0.3338  0.5028
  633MOL0     C85357  -1.645   5.072   8.281 -0.7117 -0.0435  0.3654
  633MOL0     C85358  -1.779   5.086   8.359  0.0181  0.4673  0.7323
  633MOL0     C85359  -1.848   4.967   8.411  0.3475  0.7382 -0.1687
  633MOL0     C85360  -1.998   4.994   8.449  0.0422 -0.3953  0.1696
  633MOL0     C85361  -2.101   4.961   8.335 -0.9455 -0.3349 -1.2216
  633MOL0     C85362  -2.249   4.988   8.363 -0.8737 -0.5017 -0.9361
  633MOL0     C85363  -2.280   5.125   8.311 -0.6174 -0.0494  0.1358
  633MOL0    Cl85364  -2.335   5.118   8.144  0.1573 -0.6368 -0.1006
  633MOL0     C85365  -1.219   4.858   8.274 -0.9465 -0.4146 -0.6371
  633MOL0     C85366  -1.107   4.785   8.331  0.0067  0.4835  0.4564
  633MOL0     O85367  -1.068   4.476   8.478 -0.6954  0.3958 -0.2905
  633MOL0     C85368  -0.879   4.360   8.652 -0.6404 -1.2438  0.4997
  633MOL0     C85369  -0.777   4.316   8.733  0.5157 -0.1941  0.2490
  633MOL0     N85370  -0.150   3.892   9.012  0.0102 -0.2686 -0.1772
  633MOL0     N85371  -0.127   3.767   9.003 -0.6472 -1.3681  0.2684
  633MOL0     C85372   0.530   3.238   7.971 -0.2269 -0.5481  0.0274
  633MOL0     C85373   0.570   3.217   7.838 -0.6999 -0.4101 -0.7591
  633MOL0     C85374   0.533   3.159   7.374 -0.2106  0.1750  0.3897
  633MOL0     C85375   0.624   3.055   7.366  0.2171 -0.6444  0.3157
  633MOL0     C85376   0.685   3.032   7.244  0.2347  0.2935  0.0286
  633MOL0     C85377   0.677   3.116   7.132  0.6687 -0.4019 -0.3271
  633MOL0     O85378   0.746   3.091   7.021  0.1539 -0.1257  0.0532
  633MOL0     C85379   0.888   3.075   7.025 -0.4773 -0.3027 -0.2127
  633MOL0     C85380   0.910   2.930   6.985 -0.4353  0.3655  1.4186
  633MOL0     C85381   0.909   2.922   6.831 -0.4554 -0.2743  0.1153
  633MOL0     C85382   0.945   2.788   6.776 -0.7033  0.0835 -0.3450
  633MOL0     C85383   0.836   2.687   6.770  1.1914  0.1085  0.2797
  633MOL0     C85384   0.736   2.612   6.766  0.2679  0.0071  0.1303
  633MOL0     C85385   0.591   3.223   7.138  0.9216 -0.2389  0.2044
  633MOL0     C85386   0.518   3.243   7.260 -0.4230 -0.3045  0.3364
  633MOL0     C85387   0.434   3.373   7.271  0.2939  0.2574 -0.2590
  633MOL0     H85388   0.305   3.058   7.721  1.8454 -1.2418  0.4601
  633MOL0     H85389   0.217   3.122   7.948  0.1361 -1.5719 -2.0291
  633MOL0     H85390   0.482   3.183   8.239 -1.6425 -0.4740 -1.0349
  633MOL0     H85391   0.482   3.358   8.241  0.6045 -1.3203 -2.4537
  633MOL0     H85392   0.402   3.285   8.464  3.1706 -0.3407 -1.6036
  633MOL0     H85393   0.289   3.167   8.388  1.0194 -0.5811 -1.2005
  633MOL0     H85394   0.159   3.327   8.286  0.0511 -0.4504  1.5811
  633MOL0     H85395   0.243   3.470   8.358  1.8562  1.2899  1.5371
  633MOL0     H85396   0.099   3.247   8.523 -1.6509  1.6298  0.5470
  633MOL0     H85397   0.219   3.361   8.581 -1.5088 -2.8362  2.8985
  633MOL0     H85398   0.107   3.547   8.534  0.6788  0.2307 -2.3721
  633MOL0     H85399  -0.028   3.478   8.437  3.8629  1.4270 -2.1734
  633MOL0     H85400  -0.138   3.389   8.647 -0.3404  0.8006 -0.0181
  633MOL0     H85401   0.026   3.400   8.722  1.1441 -0.4593 -2.4241
  633MOL0     H85402  -0.125   3.647   8.618 -2.0350 -1.4412  1.6489
  633MOL0     H85403   0.023   3.633   8.718 -0.6741  0.7651  1.1440
  633MOL0     H85404  -0.270   3.584   8.800 -0.1448  0.5487  1.7803
  633MOL0     H85405  -0.125   3.535   8.903 -1.3004 -0.0492  1.4336
  633MOL0     H85406  -0.254   3.836   8.713 -0.0550 -0.9629  0.2432
  633MOL0     H85407  -0.193   4.146   8.874  0.7868 -0.8177  0.2655
  633MOL0     H85408  -0.335   4.066   8.792  1.1454  0.1057 -0.9815
  633MOL0     H85409  -0.447   4.047   9.019  0.8379 -1.6487  0.5600
  633MOL0     H85410  -0.295   4.123   9.094 -1.3351  1.3994  0.1688
  633MOL0     H85411  -0.333   4.318   8.950 -0.4401 -0.3474 -1.4962
  633MOL0     H85412  -0.468   4.289   9.066  1.1053 -0.2862 -0.1542
  633MOL0     H85413  -0.572   4.161   8.868  1.6151 -1.2921  2.5536
  633MOL0     H85414  -0.473   4.266   8.774  0.4456 -2.5994 -0.9571
  633MOL0     H85415  -0.672   4.616   8.863 -0.8038  0.7432 -0.5098
  633MOL0     H85416  -0.843   4.695   8.703 -0.8836  0.4470  0.6903
  633MOL0     H85417  -1.194   4.816   8.651 -0.4503 -1.7382 -0.4265
  633MOL0     H85418  -1.360   4.942   8.568  4.0970  5.6871 -1.1703
  633MOL0     H85419  -1.574   4.876   8.371  1.1631 -0.3662 -2.6469
  633MOL0     H85420  -1.557   5.012   8.469  2.1258 -2.1475  1.5114
  633MOL0     H85421  -1.600   5.171   8.275 -0.9425  0.0378 -0.0078
  633MOL0     H85422  -1.657   5.037   8.178 -1.3330 -0.2986  0.5190
  633MOL0     H85423  -1.766   5.158   8.440  0.7851  3.0894 -1.5602
  633MOL0     H85424  -1.855   5.127   8.291 -0.5773  2.0786  2.2675
  633MOL0     H85425  -1.805   4.943   8.509 -1.3369  0.2613  0.4929
  633MOL0     H85426  -1.849   4.874   8.353 -1.6662  0.8563 -0.3854
  633MOL0     H85427  -1.997   5.102   8.469  0.5356 -0.7224  2.2186
  633MOL0     H85428  -2.027   4.948   8.544 -1.3252  1.9205  0.9801
  633MOL0     H85429  -2.071   5.008   8.241 -4.2173  3.0743 -0.7999
  633MOL0     H85430  -2.103   4.851   8.326  0.1409 -0.9915  3.8121
  633MOL0     H85431  -2.255   4.980   8.472 -2.8617  2.3276 -0.7125
  633MOL0     H85432  -2.317   4.913   8.322 -2.7050  0.1516  0.6959
  633MOL0     H85433  -2.369   5.161   8.365 -0.0794  0.1395  0.9205
  633MOL0     H85434  -2.199   5.192   8.338 -0.1308 -1.5977  3.0617
  633MOL0     H85435  -1.240   4.875   8.169  2.5261 -1.3202 -1.6147
  633MOL0     H85436  -1.031   4.738   8.270  0.6624  0.1187  1.5341
  633MOL0     H85437  -0.945   4.290   8.601  0.8893 -0.4020 -2.8968
  633MOL0     H85438  -0.769   4.209   8.751 -1.3310 -0.1312  1.8176
  633MOL0     H85439   0.607   3.269   8.041  1.1186  1.1142 -2.0840
  633MOL0     H85440   0.671   3.237   7.804 -1.2116  0.0633 -2.0903
  633MOL0     H85441   0.641   2.985   7.447  3.2597  1.2720  1.4840
  633MOL0     H85442   0.751   2.946   7.240 -0.4756 -0.2891  0.5949
  633MOL0     H85443   0.936   3.086   7.123 -0.3821 -0.5510 -0.2298
  633MOL0     H85444   0.915   3.144   6.944 -2.1840  1.1680  0.4232
  633MOL0     H85445   0.827   2.867   7.019 -1.8246 -1.4620 -4.2613
  633MOL0     H85446   1.007   2.897   7.024  1.1971  3.0572 -0.0551
  633MOL0     H85447   0.966   3.000   6.780 -2.0480  0.7978 -0.0979
  633MOL0     H85448   0.809   2.936   6.787 -0.7763 -2.5520 -0.0054
  633MOL0     H85449   0.985   2.805   6.676  1.7399  0.9914  0.7055
  633MOL0     H85450   1.030   2.754   6.836 -0.8868  1.4938  0.7575
  633MOL0     H85451   0.652   2.544   6.762  1.1039 -1.0059 -0.9330
  633MOL0     H85452   0.594   3.308   7.070 -1.6143  0.2908  0.6715
  633MOL0     H85453   0.329   3.346   7.286 -0.0773  0.0721 -2.8190
  633MOL0     H85454   0.475   3.434   7.352  1.5606  2.3623 -2.3696
  633MOL0     H85455   0.434   3.435   7.181  1.1604  0.9535  0.2071
  634MOL0     O85456   2.903   6.933   1.562 -0.3032  0.0476 -0.0900
  634MOL0     C85457   2.936   6.870   1.465  0.0232 -0.6671  0.1433
  634MOL0     O85458   3.057   6.864   1.412 -1.0120  0.6449  0.7303
  634MOL0     C85459   3.154   6.960   1.420  1.0771 -0.2483 -1.3235
  634MOL0     C85460   3.160   7.046   1.539  0.3352 -0.8746  0.2742
  634MOL0     C85461   3.274   7.124   1.564  0.6336  0.3687 -0.1365
  634MOL0     C85462   3.385   7.124   1.483  0.1572  0.1375 -0.4257
  634MOL0     O85463   3.491   7.202   1.527  0.6828 -0.2281 -0.0196
  634MOL0     C85464   3.610   7.128   1.548  0.1240  0.2102 -0.1882
  634MOL0     C85465   3.715   7.223   1.599  0.8155  0.5548 -0.3650
  634MOL0     C85466   3.736   7.351   1.521 -0.4943  0.3549  0.2834
  634MOL0     C85467   3.808   7.324   1.390 -0.7614 -0.4533  0.4424
  634MOL0     C85468   3.865   7.447   1.324  0.1592  0.1013 -0.6153
  634MOL0     C85469   3.965   7.397   1.220  0.9345 -0.0713 -1.0593
  634MOL0     C85470   4.001   7.507   1.128  0.0932  0.4502 -0.6345
  634MOL0     C85471   3.904   7.526   1.004  0.2135 -0.8924  0.4540
  634MOL0     N85472   3.973   7.606   0.898  0.2688 -0.1725 -0.1586
  634MOL0     C85473   4.030   7.726   0.926 -0.4213  0.2918  0.3937
  634MOL0     C85474   4.119   7.746   0.823  0.6467  0.2873  0.0767
  634MOL0     C85475   4.215   7.845   0.786  0.6528  1.2494  0.2071
  634MOL0     C85476   4.352   7.834   0.858  0.2614  0.1543  0.5467
  634MOL0     C85477   4.440   7.710   0.818  0.7258 -0.2838  0.5221
  634MOL0     C85478   4.571   7.707   0.907  0.0756  0.3952 -0.0010
  634MOL0     O85479   4.515   7.657   1.030  0.0129  0.6809 -0.6334
  634MOL0     C85480   4.609   7.597   1.114 -0.5697 -1.0814  0.1608
  634MOL0     C85481   4.545   7.498   1.192  0.1236 -0.4949  0.7906
  634MOL0     C85482   4.622   7.418   1.277  0.5780 -0.0557 -0.1798
  634MOL0     C85483   4.763   7.429   1.289  0.3780  0.6806 -0.3791
  634MOL0     C85484   4.846   7.341   1.373 -0.1587  0.5318 -0.4869
  634MOL0     O85485   4.982   7.321   1.330  0.2560  0.2778  0.3541
  634MOL0     C85486   5.075   7.263   1.413  0.6895 -0.7466  0.2073
  634MOL0     C85487   5.163   7.163   1.367  0.3229 -0.1875  0.0657
  634MOL0     C85488   5.265   7.117   1.452  0.0531  0.2475 -0.2637
  634MOL0     C85489   5.269   7.149   1.591 -0.1831  0.2021  0.2914
  634MOL0     O85490   5.383   7.128   1.663  0.2018  0.2553  0.3712
  634MOL0     C85491   5.379   7.051   1.782  0.2429 -0.4023  0.8481
  634MOL0     C85492   5.458   6.925   1.756 -0.2597  0.0025 -0.0572
  634MOL0     C85493   5.600   6.941   1.732 -0.1722 -0.3093 -1.1101
  634MOL0     C85494   5.644   6.889   1.597  0.1692  0.6962  0.2861
  634MOL0     C85495   5.798   6.880   1.586  0.1007 -0.3909 -0.8538
  634MOL0     C85496   5.832   6.809   1.455  1.1466 -0.4837 -0.0524
  634MOL0     C85497   5.976   6.771   1.439 -0.3015  0.2442  0.0960
  634MOL0     C85498   6.021   6.666   1.538  0.8607 -0.4429  0.4082
  634MOL0    Cl85499   6.167   6.602   1.456  0.0654  0.0760  0.0073
  634MOL0     C85500   5.172   7.240   1.639  0.0839  0.0108  0.7524
  634MOL0     C85501   5.093   7.310   1.542  1.1405 -0.5657 -0.5872
  634MOL0     O85502   4.796   7.291   1.475  0.0841 -0.1523 -0.3039
  634MOL0     C85503   4.820   7.533   1.213 -0.5338  0.9653 -0.5313
  634MOL0     C85504   4.743   7.622   1.135 -0.1347 -0.8429  0.0455
  634MOL0     N85505   4.095   7.643   0.730  0.1670 -0.4339 -0.4067
  634MOL0     N85506   4.004   7.560   0.773 -0.1544 -0.4363 -0.7206
  634MOL0     C85507   3.381   7.037   1.373 -0.5967 -0.3162 -0.6354
  634MOL0     C85508   3.268   6.965   1.344 -0.5610  0.0741 -0.3957
  634MOL0     C85509   2.837   6.774   1.405  0.7724 -0.5719 -0.5078
  634MOL0     C85510   2.746   6.708   1.494 -0.4852  0.1470 -0.0156
  634MOL0     C85511   2.645   6.618   1.465  0.2024 -0.1212 -0.0159
  634MOL0     C85512   2.631   6.589   1.327  0.0026  1.4231  0.9570
  634MOL0     O85513   2.530   6.498   1.278  0.0493  0.2961 -0.3178
  634MOL0     C85514   2.502   6.386   1.364 -0.1263 -0.2516  0.3448
  634MOL0     C85515   2.472   6.267   1.269  0.8407  0.0335  0.3504
  634MOL0     C85516   2.402   6.151   1.341  0.4401  0.6870 -0.1568
  634MOL0     C85517   2.396   6.013   1.274 -0.8103  0.2124  0.1816
  634MOL0     C85518   2.513   5.972   1.201 -0.3048  0.7458  1.0178
  634MOL0     C85519   2.611   5.937   1.142 -0.0336  0.0346  1.3198
  634MOL0     C85520   2.713   6.654   1.230  0.3359 -0.5611  0.1616
  634MOL0     C85521   2.811   6.753   1.267  0.1051  0.0544 -0.0973
  634MOL0     C85522   2.898   6.821   1.159  0.1867  0.2455 -0.3422
  634MOL0     H85523   3.084   7.055   1.615 -2.1262  0.5598 -2.1742
  634MOL0     H85524   3.272   7.191   1.650  0.1283  0.0748  0.0855
  634MOL0     H85525   3.594   7.051   1.624  0.0929  2.1355  1.8287
  634MOL0     H85526   3.641   7.095   1.448 -1.6426  2.5546 -1.6254
  634MOL0     H85527   3.807   7.177   1.638 -1.7433 -2.4097  2.8223
  634MOL0     H85528   3.655   7.249   1.686 -1.1229 -0.8335 -1.2258
  634MOL0     H85529   3.801   7.417   1.581  1.4747 -0.6922 -0.6088
  634MOL0     H85530   3.638   7.398   1.509 -1.4428 -1.0930  1.8753
  634MOL0     H85531   3.893   7.262   1.420  1.8678  3.8150  2.8674
  634MOL0     H85532   3.744   7.270   1.319  0.3155  1.2408 -1.9408
  634MOL0     H85533   3.780   7.502   1.282  0.8846  1.8939  0.1573
  634MOL0     H85534   3.921   7.519   1.384  2.8648 -0.5367 -2.1856
  634MOL0     H85535   4.051   7.355   1.274 -0.2564  0.6210  1.5478
  634MOL0     H85536   3.917   7.316   1.166  0.3390  0.1371 -0.8512
  634MOL0     H85537   4.092   7.490   1.070 -2.0538  0.2190 -4.2229
  634MOL0     H85538   4.007   7.601   1.185 -2.0963  0.4455 -0.2974
  634MOL0     H85539   3.887   7.429   0.956  1.2697 -0.9690  0.2148
  634MOL0     H85540   3.807   7.572   1.022  0.1219 -0.7692 -0.3530
  634MOL0     H85541   4.039   7.777   1.022  0.5670  1.0745 -0.0958
  634MOL0     H85542   4.225   7.832   0.678  0.6809  0.3851  0.3110
  634MOL0     H85543   4.187   7.950   0.801  4.0979  2.0389  2.3344
  634MOL0     H85544   4.406   7.924   0.826 -0.0092  0.0123 -0.3523
  634MOL0     H85545   4.343   7.838   0.967  5.2137 -1.7314  1.2806
  634MOL0     H85546   4.468   7.711   0.712 -2.5942 -1.0303 -0.4758
  634MOL0     H85547   4.382   7.618   0.827  3.3276 -1.9851  0.8896
  634MOL0     H85548   4.620   7.804   0.923  0.6825 -0.0128  0.6477
  634MOL0     H85549   4.646   7.640   0.863 -0.0405  0.3347 -0.1080
  634MOL0     H85550   4.437   7.496   1.193 -0.1842  2.7363 -2.9265
  634MOL0     H85551   4.570   7.343   1.337 -0.6960  0.6281 -0.3900
  634MOL0     H85552   5.159   7.126   1.265 -0.5773 -0.8670  0.3274
  634MOL0     H85553   5.335   7.051   1.403  0.4264  0.5136 -0.0913
  634MOL0     H85554   5.421   7.105   1.867 -2.9084  0.4530  1.9940
  634MOL0     H85555   5.278   7.024   1.814 -0.4105  0.3531 -0.4856
  634MOL0     H85556   5.461   6.859   1.843 -0.0237 -2.3475 -1.7500
  634MOL0     H85557   5.393   6.878   1.681 -0.8758  1.2750 -0.3514
  634MOL0     H85558   5.635   7.044   1.742 -0.5554 -0.2508 -0.2590
  634MOL0     H85559   5.659   6.881   1.802  0.3349  0.6474 -0.7026
  634MOL0     H85560   5.607   6.959   1.522 -0.0054 -0.7979 -1.0863
  634MOL0     H85561   5.580   6.801   1.580  0.3503  0.3596  1.3045
  634MOL0     H85562   5.850   6.834   1.671 -1.1896 -1.9789 -0.8722
  634MOL0     H85563   5.840   6.981   1.583 -1.2200  0.1847 -3.1935
  634MOL0     H85564   5.771   6.719   1.447  2.7784 -2.1772  3.7435
  634MOL0     H85565   5.797   6.877   1.377 -1.7071  2.8544  3.7298
  634MOL0     H85566   6.038   6.861   1.446 -3.2538  2.4108  0.5303
  634MOL0     H85567   5.981   6.729   1.338  1.6596  1.8437 -0.5297
  634MOL0     H85568   6.044   6.713   1.634  1.5841 -1.1189  0.5773
  634MOL0     H85569   5.952   6.582   1.553  1.6834 -1.4866 -1.4442
  634MOL0     H85570   5.175   7.271   1.743 -1.6221 -3.2379  1.9107
  634MOL0     H85571   5.035   7.393   1.581  0.8956 -1.3197  0.6828
  634MOL0     H85572   4.927   7.539   1.228 -0.7407 -0.2090  1.8782
  634MOL0     H85573   4.788   7.703   1.078  1.4990 -2.4691 -1.0756
  634MOL0     H85574   3.467   7.015   1.311 -0.2140 -0.5384 -0.0309
  634MOL0     H85575   3.285   6.892   1.267 -0.1994 -2.8679  2.2608
  634MOL0     H85576   2.745   6.745   1.596  0.7696 -2.1632  0.9039
  634MOL0     H85577   2.571   6.585   1.536  0.8231 -1.5566  0.0083
  634MOL0     H85578   2.422   6.412   1.433 -2.5345  0.5542 -2.5428
  634MOL0     H85579   2.587   6.375   1.432 -0.5681 -1.3417  0.7372
  634MOL0     H85580   2.567   6.230   1.229 -0.1388 -0.6531 -1.4379
  634MOL0     H85581   2.409   6.303   1.188  2.1219  0.2067 -0.6114
  634MOL0     H85582   2.299   6.182   1.359  0.8651  2.0967 -0.0712
  634MOL0     H85583   2.458   6.135   1.433  1.6379 -1.3204 -1.1466
  634MOL0     H85584   2.373   5.948   1.359  0.3399  2.4303  2.3163
  634MOL0     H85585   2.313   6.011   1.202 -0.9145  2.2171  0.1894
  634MOL0     H85586   2.695   5.903   1.085 -1.0868  0.6173 -0.7125
  634MOL0     H85587   2.702   6.647   1.123  1.7799  3.5267 -0.4337
  634MOL0     H85588   2.977   6.751   1.132 -0.1417  0.2626 -1.3800
  634MOL0     H85589   2.850   6.828   1.061  2.2832 -2.9244 -1.7696
  634MOL0     H85590   2.930   6.924   1.177 -0.6022  0.5134 -0.4551
  635MOL0     O85591   6.287   2.371   3.639  0.4585  0.2013  0.1808
  635MOL0     C85592   6.259   2.470   3.704  0.7867 -0.7372 -0.6769
  635MOL0     O85593   6.318   2.501   3.813  0.5780  0.5336  0.9771
  635MOL0     C85594   6.428   2.427   3.866  0.4328  0.3450 -0.0904
  635MOL0     C85595   6.405   2.331   3.966 -0.0158  0.6234  0.1661
  635MOL0     C85596   6.510   2.248   4.002 -0.3117 -0.5750 -0.2621
  635MOL0     C85597   6.633   2.270   3.943  0.3926 -0.1807 -0.3673
  635MOL0     O85598   6.738   2.186   3.985 -0.1891 -0.0015  0.5916
  635MOL0     C85599   6.831   2.150   3.877  0.2258  0.1416  0.5245
  635MOL0     C85600   6.875   2.009   3.915  0.2996  0.5615  0.3740
  635MOL0     C85601   6.955   1.953   3.804  0.7340 -0.4123 -0.1733
  635MOL0     C85602   6.990   1.811   3.816  0.6055  0.0238  0.0105
  635MOL0     C85603   7.063   1.756   3.686  0.7319  1.0357  0.2606
  635MOL0     C85604   7.200   1.816   3.665 -0.3880  0.1074  0.2607
  635MOL0     C85605   7.282   1.720   3.587  0.1314  0.7316  0.6435
  635MOL0     C85606   7.427   1.759   3.575 -0.0658 -0.0575 -0.3069
  635MOL0     N85607   7.487   1.663   3.474 -0.5547  0.5258  0.0144
  635MOL0     C85608   7.576   1.696   3.376  0.5738  0.2411 -0.5071
  635MOL0     C85609   7.605   1.579   3.313 -0.1828  0.9096  1.1006
  635MOL0     C85610   7.709   1.554   3.200 -0.2576  0.4721 -0.4110
  635MOL0     C85611   7.713   1.662   3.093 -1.0435  0.7892  1.0458
  635MOL0     C85612   7.567   1.685   3.038 -0.7023  0.1960 -0.7309
  635MOL0     C85613   7.497   1.562   2.982  0.2843  0.0385  0.2468
  635MOL0     O85614   7.570   1.530   2.863  0.9738 -0.6189 -0.6132
  635MOL0     C85615   7.529   1.418   2.793 -0.1059 -0.3694  0.0472
  635MOL0     C85616   7.413   1.344   2.816  0.0487 -1.1530 -0.6978
  635MOL0     C85617   7.386   1.230   2.736 -0.7093 -0.8233 -0.9155
  635MOL0     C85618   7.476   1.179   2.646 -0.6801  0.5711 -0.2371
  635MOL0     C85619   7.448   1.050   2.577  0.2023 -0.5968 -0.2537
  635MOL0     O85620   7.543   1.005   2.492 -0.7420  0.7818 -0.5232
  635MOL0     C85621   7.532   0.880   2.429 -0.3467  0.7914 -0.5213
  635MOL0     C85622   7.422   0.840   2.356 -0.5475  0.5226 -0.1857
  635MOL0     C85623   7.415   0.713   2.299  0.4631  0.4313  0.2625
  635MOL0     C85624   7.523   0.627   2.303 -0.0024  0.2358 -0.2961
  635MOL0     O85625   7.533   0.501   2.257 -0.0105  0.6902  0.1500
  635MOL0     C85626   7.419   0.428   2.213 -0.5689  0.1059 -0.3250
  635MOL0     C85627   7.478   0.308   2.139 -0.1454 -0.3763  0.4171
  635MOL0     C85628   7.355   0.235   2.073  0.3348 -0.3186 -1.4877
  635MOL0     C85629   7.377   0.129   1.968  0.9295  0.0491  0.3969
  635MOL0     C85630   7.253   0.091   1.899  0.6069  0.0817  0.7366
  635MOL0     C85631   7.270   0.005   1.775  0.5658 -0.2630 -0.1564
  635MOL0     C85632   7.306  -0.140   1.807  0.4522  0.6809 -0.0606
  635MOL0     C85633   7.374  -0.218   1.701 -0.4243  0.0600 -0.2252
  635MOL0    Cl85634   7.323  -0.386   1.715 -0.0453 -0.2897 -0.0397
  635MOL0     C85635   7.632   0.663   2.378 -0.1565  0.5157  0.2716
  635MOL0     C85636   7.635   0.787   2.445  0.9405 -0.2955 -1.2066
  635MOL0     O85637   7.336   1.006   2.588 -0.5338  0.9292  0.2871
  635MOL0     C85638   7.600   1.254   2.632  0.2542  0.4967 -0.1769
  635MOL0     C85639   7.621   1.367   2.698  0.4917  0.3103 -0.5349
  635MOL0     N85640   7.530   1.479   3.370 -0.0169 -0.5781 -0.3048
  635MOL0     N85641   7.460   1.529   3.461 -0.5574 -0.9831  0.1113
  635MOL0     C85642   6.657   2.358   3.842  0.0298 -0.0740 -0.2247
  635MOL0     C85643   6.552   2.439   3.802  0.2025 -0.1121 -0.2121
  635MOL0     C85644   6.151   2.556   3.661  0.0049  0.7101  0.1598
  635MOL0     C85645   6.140   2.686   3.718  0.7231  0.2869  0.2282
  635MOL0     C85646   6.039   2.775   3.681  0.3554 -0.5259 -0.0981
  635MOL0     C85647   5.938   2.732   3.599 -0.0846  0.7128  0.0833
  635MOL0     O85648   5.834   2.815   3.567  0.2873 -0.2910  0.0430
  635MOL0     C85649   5.709   2.746   3.571  0.5052  0.3211 -0.4032
  635MOL0     C85650   5.613   2.847   3.634 -0.3081  0.1141  0.4416
  635MOL0     C85651   5.474   2.789   3.662  0.1826 -0.3766 -0.1755
  635MOL0     C85652   5.382   2.909   3.707 -0.3560 -0.5191 -0.4152
  635MOL0     C85653   5.342   3.010   3.601 -0.5176  0.2967  0.2431
  635MOL0     C85654   5.323   3.098   3.523 -0.3363 -0.2033 -0.1300
  635MOL0     C85655   5.944   2.604   3.543  0.6318  0.2199 -0.3160
  635MOL0     C85656   6.055   2.515   3.561 -0.0978  0.2870  0.2351
  635MOL0     C85657   6.041   2.384   3.484 -0.1848 -0.3654 -0.7405
  635MOL0     H85658   6.309   2.303   4.008  0.7068 -1.1930  0.7072
  635MOL0     H85659   6.511   2.154   4.055 -2.4024  0.1619  1.2405
  635MOL0     H85660   6.781   2.148   3.780 -2.2053 -1.9420  1.7129
  635MOL0     H85661   6.911   2.223   3.892  0.8979 -0.7837  1.5924
  635MOL0     H85662   6.787   1.946   3.933  0.3962 -0.3243 -1.8672
  635MOL0     H85663   6.938   2.014   4.003 -0.2786  1.6817  0.7443
  635MOL0     H85664   7.044   2.016   3.794 -1.4066  2.7776 -0.3178
  635MOL0     H85665   6.894   1.947   3.714 -0.9659 -2.3800  1.0243
  635MOL0     H85666   7.055   1.790   3.902 -0.1954  1.2708  0.9638
  635MOL0     H85667   6.899   1.755   3.837  1.6285 -1.2008  1.4327
  635MOL0     H85668   7.064   1.648   3.699 -0.9619  0.8801 -0.6104
  635MOL0     H85669   6.996   1.765   3.600  0.4696 -0.9144  0.2274
  635MOL0     H85670   7.201   1.916   3.621 -0.2639  0.6253  1.4059
  635MOL0     H85671   7.250   1.831   3.761 -0.9060  0.0624  0.5412
  635MOL0     H85672   7.247   1.721   3.484  4.5702  2.8458 -1.0698
  635MOL0     H85673   7.270   1.615   3.619  1.8039 -1.2197 -4.2188
  635MOL0     H85674   7.430   1.859   3.530 -1.3538 -0.7518 -2.0397
  635MOL0     H85675   7.478   1.772   3.671  0.4207 -2.4151 -0.1882
  635MOL0     H85676   7.596   1.799   3.348  1.0089  1.0961  2.5982
  635MOL0     H85677   7.806   1.550   3.250  0.3314  1.0862 -1.4792
  635MOL0     H85678   7.693   1.452   3.165  0.4389  0.8604 -1.9309
  635MOL0     H85679   7.754   1.754   3.136 -0.6069  1.8458 -1.4677
  635MOL0     H85680   7.778   1.633   3.010 -3.3265 -4.1695  0.6460
  635MOL0     H85681   7.571   1.762   2.960 -1.6793 -0.3432 -1.3400
  635MOL0     H85682   7.495   1.732   3.105 -2.8469 -0.9009 -2.1281
  635MOL0     H85683   7.393   1.584   2.954  0.3949 -0.9736 -1.0497
  635MOL0     H85684   7.492   1.479   3.053 -2.7695 -0.3029 -0.2291
  635MOL0     H85685   7.334   1.358   2.889  1.1261 -0.5591  0.3997
  635MOL0     H85686   7.304   1.171   2.775  0.1015  0.5311  3.4083
  635MOL0     H85687   7.333   0.901   2.367  0.0686  2.0537 -2.8873
  635MOL0     H85688   7.326   0.677   2.248 -1.3131  0.9160  2.8374
  635MOL0     H85689   7.361   0.394   2.299  0.8069  2.1145  1.4918
  635MOL0     H85690   7.358   0.486   2.143  0.6858  2.4367  0.3973
  635MOL0     H85691   7.549   0.348   2.066 -1.8414  0.5649 -0.7644
  635MOL0     H85692   7.532   0.241   2.207  1.0559 -1.1891 -1.2520
  635MOL0     H85693   7.310   0.184   2.158  1.0745  4.5407  2.2450
  635MOL0     H85694   7.281   0.305   2.034  1.2665  0.2376 -2.3320
  635MOL0     H85695   7.427   0.037   2.000 -0.0800 -0.9302 -0.7345
  635MOL0     H85696   7.448   0.180   1.902  2.2519  0.3279  1.9715
  635MOL0     H85697   7.200   0.181   1.866 -3.7905 -2.4989  0.0338
  635MOL0     H85698   7.177   0.043   1.962 -2.0804  0.2821 -2.1269
  635MOL0     H85699   7.183   0.008   1.709  2.1258 -1.8710 -2.4720
  635MOL0     H85700   7.343   0.067   1.723 -0.3389  2.1311  1.2578
  635MOL0     H85701   7.213  -0.196   1.822  0.7313  0.8678  3.1659
  635MOL0     H85702   7.365  -0.145   1.899 -0.3657 -1.9912  0.4077
  635MOL0     H85703   7.343  -0.180   1.603 -0.6911 -0.5243 -0.3760
  635MOL0     H85704   7.481  -0.199   1.688 -0.2856 -0.2003  0.5066
  635MOL0     H85705   7.711   0.588   2.382 -3.3223 -3.3614 -1.7575
  635MOL0     H85706   7.718   0.817   2.508 -1.0337  0.1532  1.3802
  635MOL0     H85707   7.676   1.194   2.581 -0.6679 -1.2422  0.3891
  635MOL0     H85708   7.720   1.408   2.686  0.1382  1.4803  0.3005
  635MOL0     H85709   6.757   2.373   3.802  1.3026  0.0749  2.7620
  635MOL0     H85710   6.560   2.513   3.723 -1.8518  0.3107 -0.0782
  635MOL0     H85711   6.217   2.740   3.772  1.6769  0.4178 -1.2072
  635MOL0     H85712   6.027   2.878   3.712 -1.8621 -0.3880 -1.2454
  635MOL0     H85713   5.709   2.653   3.629  1.0902 -1.3543 -2.9242
  635MOL0     H85714   5.672   2.708   3.475 -1.1635  0.0783  0.2931
  635MOL0     H85715   5.605   2.930   3.563 -0.4857 -3.5249 -4.2694
  635MOL0     H85716   5.658   2.875   3.729  2.5043 -1.5220 -0.2895
  635MOL0     H85717   5.473   2.702   3.727 -1.7184 -1.1459 -1.1529
  635MOL0     H85718   5.429   2.747   3.571 -0.0912 -1.1975  0.3271
  635MOL0     H85719   5.293   2.872   3.760  1.0188 -0.5018  2.0692
  635MOL0     H85720   5.443   2.956   3.785 -0.4134 -2.2716  0.7494
  635MOL0     H85721   5.311   3.175   3.449  0.6022 -0.7367 -0.8597
  635MOL0     H85722   5.873   2.561   3.474  1.0875 -0.1999 -0.5296
  635MOL0     H85723   5.935   2.364   3.468 -0.1935 -1.0373  0.0477
  635MOL0     H85724   6.099   2.400   3.393  1.0726  0.9039  0.2243
  635MOL0     H85725   6.084   2.294   3.531 -0.9404 -0.9057 -1.0691
  636MOL0     O85726   3.024  11.160   9.133  0.4231  0.5372 -0.0062
  636MOL0     C85727   3.085  11.253   9.071 -0.4379  0.2927  0.6137
  636MOL0     O85728   3.170  11.349   9.120 -0.3848  0.3891 -0.0502
  636MOL0     C85729   3.199  11.322   9.253  0.4295 -1.2450  0.7608
  636MOL0     C85730   3.155  11.410   9.346  0.0727  0.6223  0.7325
  636MOL0     C85731   3.202  11.410   9.477  0.2446 -0.5912  0.4486
  636MOL0     C85732   3.314  11.335   9.505 -0.6503  0.0395 -0.4487
  636MOL0     O85733   3.376  11.347   9.631  0.0869 -0.4706 -0.3867
  636MOL0     C85734   3.312  11.410   9.743  0.4603 -0.2936 -0.4580
  636MOL0     C85735   3.398  11.383   9.868 -0.4034 -0.6439  0.3326
  636MOL0     C85736   3.331  11.417  10.001  0.6543 -0.6361  0.0131
  636MOL0     C85737   3.423  11.375  10.109 -0.3004  0.1641  0.0443
  636MOL0     C85738   3.423  11.466  10.234 -1.1202 -0.4084 -0.7481
  636MOL0     C85739   3.288  11.464  10.312 -0.4315  0.4813 -0.7089
  636MOL0     C85740   3.310  11.535  10.448 -0.7490  0.3952 -1.1897
  636MOL0     C85741   3.362  11.438  10.553  0.3085  0.1952  0.1133
  636MOL0     N85742   3.248  11.398  10.634 -0.3426 -0.2285  0.3133
  636MOL0     C85743   3.194  11.479  10.736 -0.0591 -0.2678 -0.0713
  636MOL0     C85744   3.124  11.394  10.816 -1.0339  0.1480  0.0907
  636MOL0     C85745   3.034  11.429  10.936  0.4565 -0.0224 -0.1118
  636MOL0     C85746   3.065  11.344  11.062  0.1238 -0.1708  0.7683
  636MOL0     C85747   2.960  11.366  11.167  0.0002 -0.1741  0.4009
  636MOL0     C85748   3.010  11.299  11.297 -0.4153 -0.4500 -0.3415
  636MOL0     O85749   2.913  11.320  11.395  0.2263  0.8434 -0.3801
  636MOL0     C85750   2.951  11.282  11.528  1.3549  0.1243  0.2384
  636MOL0     C85751   2.857  11.303  11.624 -0.2760 -1.2582  0.2146
  636MOL0     C85752   2.879  11.280  11.758 -0.6260  1.1877 -1.1294
  636MOL0     C85753   3.013  11.263  11.799  0.0348 -1.1851 -0.8617
  636MOL0     C85754   3.042  11.240  11.946 -0.0361 -0.1424 -0.6549
  636MOL0     O85755   2.941  11.190  12.013 -0.0287 -1.1356  1.0502
  636MOL0     C85756   2.930  11.187  12.149 -0.4608 -0.1555  0.9339
  636MOL0     C85757   2.812  11.236  12.191  0.0748  0.3166  1.2796
  636MOL0     C85758   2.784  11.244  12.330  0.9999 -0.4787 -0.2388
  636MOL0     C85759   2.881  11.215  12.420  0.9014  0.0220  0.9687
  636MOL0     O85760   2.844  11.218  12.551 -0.8427 -0.7000 -0.0566
  636MOL0     C85761   2.918  11.315  12.635  0.5124 -0.4782 -0.5864
  636MOL0     C85762   2.833  11.366  12.750 -0.6791  0.5447  0.0281
  636MOL0     C85763   2.744  11.493  12.716  0.0563 -0.1411 -0.1078
  636MOL0     C85764   2.649  11.454  12.604 -0.5046 -0.2167  0.0666
  636MOL0     C85765   2.564  11.579  12.554 -0.2866 -0.4199 -0.5840
  636MOL0     C85766   2.477  11.549  12.436  0.5473 -0.1835  0.7361
  636MOL0     C85767   2.378  11.665  12.414 -0.0473 -0.4438  0.8295
  636MOL0     C85768   2.242  11.617  12.367 -0.2110 -0.3909 -0.3384
  636MOL0    Cl85769   2.163  11.521  12.496 -0.2862  0.0265 -0.3564
  636MOL0     C85770   3.002  11.167  12.373  0.3431 -0.9690 -0.6305
  636MOL0     C85771   3.033  11.154  12.235  0.4511  0.2771 -0.7632
  636MOL0     O85772   3.157  11.264  11.988  0.4991  0.0783  0.1742
  636MOL0     C85773   3.116  11.256  11.704  0.3003  0.6114 -0.5068
  636MOL0     C85774   3.080  11.263  11.570  0.1089  0.5147  0.6125
  636MOL0     N85775   3.140  11.267  10.765 -0.5398  0.2795 -0.5130
  636MOL0     N85776   3.213  11.267  10.657 -0.2887 -0.8960 -0.0583
  636MOL0     C85777   3.361  11.239   9.415 -0.7277 -0.5928 -1.5575
  636MOL0     C85778   3.301  11.235   9.289 -0.2060  0.6401  0.2471
  636MOL0     C85779   3.060  11.277   8.925  0.7284 -0.5480  0.1063
  636MOL0     C85780   3.100  11.400   8.867  0.5979  0.1203 -0.2761
  636MOL0     C85781   3.065  11.421   8.737  0.4539 -0.4383 -0.2956
  636MOL0     C85782   2.984  11.325   8.661 -1.0433 -0.4375 -0.1747
  636MOL0     O85783   2.969  11.342   8.528 -0.3012  0.5009  0.8059
  636MOL0     C85784   2.916  11.470   8.487  0.9869 -0.4072 -0.0658
  636MOL0     C85785   2.935  11.480   8.337  0.3325  0.3073  1.0446
  636MOL0     C85786   2.855  11.376   8.249 -0.1209 -0.0250 -0.1330
  636MOL0     C85787   2.836  11.402   8.095 -0.6416  0.3820 -0.1762
  636MOL0     C85788   2.776  11.532   8.069  0.2224 -0.6704 -0.0392
  636MOL0     C85789   2.705  11.624   8.052  0.0431 -0.5595  0.9410
  636MOL0     C85790   2.954  11.203   8.717 -0.1773  0.7316  0.6161
  636MOL0     C85791   2.998  11.167   8.847  0.1696 -1.4725 -0.3189
  636MOL0     C85792   2.964  11.029   8.895 -0.5280  0.3129 -0.3656
  636MOL0     H85793   3.081  11.481   9.313 -0.6519 -0.7418 -0.6946
  636MOL0     H85794   3.156  11.473   9.552  0.8670 -2.2108  2.2770
  636MOL0     H85795   3.307  11.518   9.730  1.3387  0.3015  3.0294
  636MOL0     H85796   3.209  11.373   9.748  0.5595 -0.5176 -0.0282
  636MOL0     H85797   3.479  11.456   9.860 -1.0396 -0.0260 -0.7646
  636MOL0     H85798   3.443  11.284   9.867  0.4725 -0.3529 -3.1237
  636MOL0     H85799   3.238  11.362  10.014  1.2125 -1.0645  2.7139
  636MOL0     H85800   3.321  11.526  10.006  0.9988 -0.6751  3.1824
  636MOL0     H85801   3.401  11.271  10.135 -2.2097  1.0683  2.5421
  636MOL0     H85802   3.524  11.385  10.067  0.2717  1.4197  1.6037
  636MOL0     H85803   3.500  11.435  10.305  1.8565 -0.6324 -3.7955
  636MOL0     H85804   3.444  11.566  10.195 -0.5099 -0.3805 -0.3585
  636MOL0     H85805   3.214  11.514  10.248 -2.4145 -2.8673 -1.3041
  636MOL0     H85806   3.254  11.363  10.334  0.0945  0.4281 -0.1321
  636MOL0     H85807   3.214  11.578  10.478 -1.0033 -2.0807  2.0524
  636MOL0     H85808   3.380  11.618  10.436  3.6562 -2.8444 -0.1513
  636MOL0     H85809   3.397  11.344  10.509  1.4148 -0.3960  2.1111
  636MOL0     H85810   3.441  11.482  10.614 -0.6702  0.4698  1.2330
  636MOL0     H85811   3.177  11.586  10.738 -1.7352 -0.4586  2.5654
  636MOL0     H85812   3.063  11.528  10.972  0.5313 -0.3838  0.8526
  636MOL0     H85813   2.930  11.422  10.901 -0.0239  2.5676  0.5545
  636MOL0     H85814   3.076  11.238  11.037  1.6049 -0.1402  1.2213
  636MOL0     H85815   3.165  11.369  11.098  0.4375  0.7795 -0.6788
  636MOL0     H85816   2.867  11.320  11.132 -0.0115  0.2634 -0.1656
  636MOL0     H85817   2.946  11.472  11.187  1.9821  0.3402 -0.6523
  636MOL0     H85818   3.098  11.354  11.331 -0.9595 -0.2199  0.7619
  636MOL0     H85819   3.026  11.193  11.276 -4.2592 -1.4978  1.0044
  636MOL0     H85820   2.752  11.322  11.605 -1.5798 -0.7213  6.0797
  636MOL0     H85821   2.799  11.299  11.829 -0.2143  2.9652 -1.0831
  636MOL0     H85822   2.738  11.264  12.115  0.5884 -3.9025 -1.0992
  636MOL0     H85823   2.693  11.276  12.378  2.1504  3.3465 -0.2811
  636MOL0     H85824   3.017  11.277  12.662  0.6686  0.3752  0.1126
  636MOL0     H85825   2.943  11.398  12.568  1.3746 -0.6377 -0.4687
  636MOL0     H85826   2.781  11.275  12.779  1.8758 -0.9326  0.2457
  636MOL0     H85827   2.910  11.396  12.822  1.6320  1.1809 -2.5265
  636MOL0     H85828   2.688  11.524  12.805 -3.5398  1.5071 -2.7013
  636MOL0     H85829   2.813  11.573  12.688 -0.8508  0.5648 -0.4033
  636MOL0     H85830   2.590  11.370  12.642  1.0661 -1.6127 -0.4422
  636MOL0     H85831   2.707  11.417  12.519  0.4685  0.9767  0.1890
  636MOL0     H85832   2.638  11.652  12.522  1.2504 -0.6582  2.1408
  636MOL0     H85833   2.509  11.622  12.638 -0.9932  0.1902 -1.3344
  636MOL0     H85834   2.540  11.530  12.349 -0.4919  1.6837 -0.4895
  636MOL0     H85835   2.428  11.455  12.462 -0.0931  0.1798  0.8653
  636MOL0     H85836   2.413  11.740  12.343 -0.7696 -0.3424  0.5704
  636MOL0     H85837   2.373  11.723  12.506 -2.3949  1.6447 -0.5040
  636MOL0     H85838   2.191  11.709  12.337  3.4249  1.7073 -0.5727
  636MOL0     H85839   2.259  11.554  12.279  1.5769 -0.8365  0.2898
  636MOL0     H85840   3.062  11.133  12.456  1.7411  0.0784 -1.1727
  636MOL0     H85841   3.128  11.110  12.206  0.4427 -0.5736  0.4175
  636MOL0     H85842   3.217  11.231  11.737 -0.6063 -3.2368 -0.1481
  636MOL0     H85843   3.161  11.258  11.498 -2.1409  0.7835 -2.1166
  636MOL0     H85844   3.435  11.168   9.449 -1.6148 -0.1465  1.6940
  636MOL0     H85845   3.341  11.170   9.212 -0.7989 -0.3094  0.7296
  636MOL0     H85846   3.156  11.475   8.922  2.3414 -1.9222  0.9074
  636MOL0     H85847   3.114  11.502   8.684  1.0721 -1.0332 -0.6496
  636MOL0     H85848   2.976  11.549   8.533 -0.4763  0.3507  0.6031
  636MOL0     H85849   2.814  11.482   8.523  1.5337  2.2234  0.8464
  636MOL0     H85850   3.043  11.478   8.322  0.0689 -2.9264 -1.7161
  636MOL0     H85851   2.914  11.578   8.294  0.5397 -1.1698 -2.8462
  636MOL0     H85852   2.763  11.355   8.306 -1.0577 -0.4404 -1.7286
  636MOL0     H85853   2.916  11.287   8.265 -2.8246 -1.7009  1.6439
  636MOL0     H85854   2.930  11.395   8.038 -0.0022  1.2020  0.7484
  636MOL0     H85855   2.774  11.330   8.040  0.1883  0.0498 -0.7060
  636MOL0     H85856   2.644  11.709   8.030  2.4686  1.6515  2.1755
  636MOL0     H85857   2.916  11.122   8.655 -3.5172  0.6572  2.5362
  636MOL0     H85858   2.931  10.963   8.814 -1.8486  1.5103 -0.8353
  636MOL0     H85859   3.051  11.000   8.955 -1.0253  1.9430  1.2029
  636MOL0     H85860   2.884  11.046   8.967  1.3400  2.2696  1.4134
  637MOL0     O85861   2.256   6.801   0.413 -0.4821 -0.8774 -0.5364
  637MOL0     C85862   2.205   6.887   0.345 -0.0243  0.0498 -0.4230
  637MOL0     O85863   2.189   6.893   0.214  0.0858  0.0299  0.3185
  637MOL0     C85864   2.251   6.813   0.120 -0.4622  0.3585  0.6446
  637MOL0     C85865   2.341   6.711   0.141 -0.5637 -0.9612  0.4424
  637MOL0     C85866   2.402   6.638   0.036  0.2479 -0.3162 -0.2313
  637MOL0     C85867   2.364   6.661  -0.095  0.0016  0.4789  0.4369
  637MOL0     O85868   2.443   6.598  -0.184  0.0548  0.4796  0.0373
  637MOL0     C85869   2.412   6.600  -0.320 -0.2937 -0.4146 -0.9072
  637MOL0     C85870   2.534   6.564  -0.408  0.3022  0.2217  0.0575
  637MOL0     C85871   2.633   6.674  -0.442  0.0645 -1.0824  0.0340
  637MOL0     C85872   2.732   6.643  -0.550 -0.4062  0.8088  0.0427
  637MOL0     C85873   2.811   6.767  -0.591 -0.1096 -0.0290  0.4973
  637MOL0     C85874   2.894   6.816  -0.470 -0.2660  0.0761 -0.5701
  637MOL0     C85875   2.995   6.710  -0.409  0.8371  0.0375  0.0973
  637MOL0     C85876   3.108   6.761  -0.327 -0.3632 -0.6385 -0.2537
  637MOL0     N85877   3.200   6.839  -0.414  0.5424 -0.0830 -0.5661
  637MOL0     C85878   3.211   6.972  -0.429  0.7987  0.0211 -0.2686
  637MOL0     C85879   3.320   6.989  -0.513  0.1085 -0.7230 -0.8847
  637MOL0     C85880   3.363   7.129  -0.559 -0.5540 -0.0581 -0.6628
  637MOL0     C85881   3.417   7.206  -0.436  1.2434 -0.9510 -0.0785
  637MOL0     C85882   3.545   7.152  -0.376 -0.8699 -0.0708  0.7224
  637MOL0     C85883   3.532   7.078  -0.240 -0.3532 -0.0351 -0.5991
  637MOL0     O85884   3.505   7.166  -0.122 -0.3125 -0.3246 -0.1402
  637MOL0     C85885   3.624   7.206  -0.059  0.9423 -0.5449 -0.0705
  637MOL0     C85886   3.741   7.129  -0.046 -0.1059 -0.5927  1.4228
  637MOL0     C85887   3.844   7.181   0.032 -0.1173 -0.0130 -0.1299
  637MOL0     C85888   3.831   7.302   0.092 -0.2802 -0.2493  0.2917
  637MOL0     C85889   3.949   7.341   0.181 -0.6343  0.1770  0.0063
  637MOL0     O85890   3.989   7.235   0.257 -0.3019  0.5766  0.2646
  637MOL0     C85891   4.085   7.266   0.352 -0.2959  0.3006  0.2479
  637MOL0     C85892   4.184   7.167   0.367  0.2744 -0.2045 -1.0044
  637MOL0     C85893   4.296   7.185   0.458  0.9221 -0.3422  0.1870
  637MOL0     C85894   4.290   7.293   0.546 -0.6512 -0.3469  0.4569
  637MOL0     O85895   4.377   7.309   0.656 -0.1993 -1.0999 -0.4987
  637MOL0     C85896   4.516   7.284   0.625 -0.2564 -0.0137  0.7356
  637MOL0     C85897   4.598   7.293   0.754  0.0242 -0.5151  0.6746
  637MOL0     C85898   4.564   7.173   0.857  0.4057 -0.2311 -0.0386
  637MOL0     C85899   4.682   7.137   0.943  0.4088 -0.3076 -0.0933
  637MOL0     C85900   4.658   7.038   1.061  0.4246 -0.4942  0.2233
  637MOL0     C85901   4.768   7.026   1.156  0.3536  0.1625  1.7901
  637MOL0     C85902   4.741   6.924   1.265  0.0390  0.2172 -0.1121
  637MOL0     C85903   4.852   6.947   1.373  0.6744  0.1566  0.7900
  637MOL0    Cl85904   4.864   6.817   1.489  0.0664  0.1984 -0.0484
  637MOL0     C85905   4.189   7.383   0.533  0.3340 -0.5862  0.6780
  637MOL0     C85906   4.088   7.372   0.442 -0.1166 -0.3327  0.6001
  637MOL0     O85907   3.998   7.455   0.181  0.0431  0.0337  0.7108
  637MOL0     C85908   3.714   7.378   0.073  0.2153  0.2327 -0.5280
  637MOL0     C85909   3.608   7.332  -0.002  0.7645 -0.6863 -0.3634
  637MOL0     N85910   3.368   6.865  -0.551 -0.3639 -0.5232 -0.2187
  637MOL0     N85911   3.292   6.780  -0.491 -0.5898  0.1197  0.8629
  637MOL0     C85912   2.257   6.756  -0.120  0.2497 -0.8440  0.0051
  637MOL0     C85913   2.204   6.831  -0.015  0.6479  0.8613 -0.8180
  637MOL0     C85914   2.141   7.003   0.425 -0.2165 -0.5154  0.6160
  637MOL0     C85915   2.145   7.129   0.359  0.1320  0.5243 -0.5313
  637MOL0     C85916   2.079   7.233   0.424  0.5956  0.4749  0.0051
  637MOL0     C85917   2.005   7.217   0.538 -0.6188  0.3663 -0.8415
  637MOL0     O85918   1.943   7.329   0.599 -0.2559  0.0294  1.4294
  637MOL0     C85919   1.923   7.334   0.744  0.1155 -0.6363 -0.2816
  637MOL0     C85920   2.047   7.322   0.828  0.6281 -0.9198 -0.0750
  637MOL0     C85921   2.024   7.386   0.968 -0.1065 -0.2747  0.2535
  637MOL0     C85922   2.150   7.391   1.059  0.3058 -0.5615 -0.7190
  637MOL0     C85923   2.264   7.434   0.989 -0.9814  0.0888  0.4403
  637MOL0     C85924   2.373   7.472   0.949  0.6293 -0.5125  0.7885
  637MOL0     C85925   1.998   7.087   0.595  0.1246  0.1384  0.6080
  637MOL0     C85926   2.076   6.986   0.539  0.3355 -0.0998 -0.8131
  637MOL0     C85927   2.059   6.854   0.624 -0.5019 -0.4331  0.5225
  637MOL0     H85928   2.392   6.695   0.235 -0.4049  1.5500  0.8551
  637MOL0     H85929   2.494   6.582   0.051  1.0683  1.3131  1.1718
  637MOL0     H85930   2.324   6.536  -0.334  1.0964 -3.0083  1.2617
  637MOL0     H85931   2.384   6.704  -0.339 -1.8475  0.1566  3.4380
  637MOL0     H85932   2.496   6.529  -0.505  1.6706 -1.2210  0.0207
  637MOL0     H85933   2.584   6.478  -0.365 -2.0926 -0.1942  2.2776
  637MOL0     H85934   2.688   6.679  -0.348 -2.6792 -2.8206  1.8492
  637MOL0     H85935   2.579   6.768  -0.461  0.9970 -0.9206 -2.2441
  637MOL0     H85936   2.800   6.572  -0.501 -2.1109 -0.3381  0.8338
  637MOL0     H85937   2.691   6.584  -0.632  0.5295 -1.8762  1.3712
  637MOL0     H85938   2.874   6.732  -0.673  0.3100 -1.5279  1.4293
  637MOL0     H85939   2.745   6.850  -0.620  2.0035  0.8524 -2.1879
  637MOL0     H85940   2.952   6.903  -0.503  0.2807 -0.2164 -0.3881
  637MOL0     H85941   2.830   6.847  -0.387 -2.0829  0.2246 -1.9614
  637MOL0     H85942   3.028   6.655  -0.498  2.9405  1.2597  0.0534
  637MOL0     H85943   2.944   6.636  -0.347  0.5391 -0.2136 -0.4429
  637MOL0     H85944   3.070   6.822  -0.244 -2.9082 -1.4455 -0.7132
  637MOL0     H85945   3.164   6.685  -0.272 -1.8083 -1.2857  0.4031
  637MOL0     H85946   3.153   7.051  -0.382  0.3303  0.1339 -1.0287
  637MOL0     H85947   3.445   7.127  -0.631  1.1186  1.7788  1.0699
  637MOL0     H85948   3.283   7.180  -0.614  0.4070  1.8588 -0.3675
  637MOL0     H85949   3.441   7.312  -0.449 -1.2428 -0.0224  2.0463
  637MOL0     H85950   3.349   7.202  -0.351 -0.1355  1.7293 -0.9584
  637MOL0     H85951   3.603   7.241  -0.350  1.1111 -0.0854 -2.9467
  637MOL0     H85952   3.596   7.098  -0.457 -1.8449 -1.2632  0.8800
  637MOL0     H85953   3.633   7.037  -0.240  0.6297  2.2008 -2.0167
  637MOL0     H85954   3.461   6.996  -0.254  0.6600 -1.4053  1.7435
  637MOL0     H85955   3.764   7.033  -0.090  3.6944  0.8579 -0.1054
  637MOL0     H85956   3.929   7.115   0.032  0.4216  0.6382 -1.2758
  637MOL0     H85957   4.173   7.087   0.294  0.0291 -2.0804  0.9667
  637MOL0     H85958   4.373   7.109   0.469  1.5915  0.4104  0.8453
  637MOL0     H85959   4.521   7.184   0.580 -2.3248  1.8486 -4.3948
  637MOL0     H85960   4.547   7.356   0.549  1.3020 -0.0809  1.2830
  637MOL0     H85961   4.697   7.301   0.710 -0.5436  3.4443 -0.3124
  637MOL0     H85962   4.573   7.390   0.799 -0.5837 -0.3223 -0.0555
  637MOL0     H85963   4.473   7.200   0.911 -0.3452  1.7513 -2.1365
  637MOL0     H85964   4.536   7.084   0.800 -0.8733  0.3691 -0.3749
  637MOL0     H85965   4.741   7.222   0.978 -0.6116  1.0817 -1.6177
  637MOL0     H85966   4.741   7.078   0.873 -0.2029 -3.0597  1.5734
  637MOL0     H85967   4.646   6.934   1.028  1.6345  0.1164 -2.3872
  637MOL0     H85968   4.563   7.071   1.104 -0.3884 -1.6235 -0.6127
  637MOL0     H85969   4.867   7.006   1.113  0.1061 -0.2905  1.4255
  637MOL0     H85970   4.778   7.125   1.201 -3.0288 -0.1272  3.4928
  637MOL0     H85971   4.743   6.822   1.226  2.1757 -0.3720  1.3820
  637MOL0     H85972   4.639   6.940   1.302 -0.2101  1.5080 -1.2509
  637MOL0     H85973   4.949   6.931   1.324 -0.2144 -0.7379 -0.7473
  637MOL0     H85974   4.821   7.039   1.423 -0.8021 -0.5428  1.2090
  637MOL0     H85975   4.192   7.466   0.603  0.1001 -0.2903  0.3384
  637MOL0     H85976   4.022   7.458   0.443  0.8126  0.4047 -0.3147
  637MOL0     H85977   3.711   7.478   0.115  1.1890 -0.6048  1.7218
  637MOL0     H85978   3.528   7.397  -0.037  2.5588  1.4351 -0.7288
  637MOL0     H85979   2.219   6.776  -0.220 -2.1349  1.5997  1.2558
  637MOL0     H85980   2.127   6.905  -0.035  1.2158  1.4025 -1.0105
  637MOL0     H85981   2.202   7.135   0.267 -0.7548  1.8580 -1.0223
  637MOL0     H85982   2.089   7.337   0.396 -0.4568  0.6932  0.3746
  637MOL0     H85983   1.850   7.262   0.783 -0.3070  1.2874  2.8405
  637MOL0     H85984   1.877   7.430   0.771  1.9761 -0.3256  2.1944
  637MOL0     H85985   2.120   7.383   0.774 -0.8143 -0.1821 -1.2631
  637MOL0     H85986   2.072   7.219   0.853 -2.7534 -1.5253  1.2961
  637MOL0     H85987   1.959   7.315   1.020 -1.3002 -2.5593 -3.9497
  637MOL0     H85988   1.974   7.483   0.969  2.5149  1.2536 -1.6018
  637MOL0     H85989   2.132   7.463   1.139  0.3222 -2.0200  0.6417
  637MOL0     H85990   2.164   7.290   1.097 -0.9426 -1.0511 -1.5012
  637MOL0     H85991   2.461   7.522   0.915 -0.2643  0.2823 -0.4592
  637MOL0     H85992   1.935   7.076   0.682  1.6994 -1.9511  1.5706
  637MOL0     H85993   1.953   6.854   0.650 -0.3045  1.6372  1.5740
  637MOL0     H85994   2.079   6.770   0.557  0.7686  0.8742 -0.8286
  637MOL0     H85995   2.123   6.855   0.712  1.7217 -1.4144 -0.9913
  638MOL0     O85996   6.946   8.247   1.774 -0.2167 -0.8611  0.3367
  638MOL0     C85997   7.035   8.285   1.848 -0.8544 -0.6844  0.2546
  638MOL0     O85998   7.021   8.369   1.958  0.1578 -0.3214  0.5995
  638MOL0     C85999   6.891   8.368   2.004 -0.4456 -0.3001 -0.2725
  638MOL0     C86000   6.768   8.392   1.930  0.3562 -0.1285  0.2259
  638MOL0     C86001   6.644   8.396   1.987 -0.4072 -0.4021 -0.6851
  638MOL0     C86002   6.628   8.383   2.120 -0.6384 -0.0085 -1.0009
  638MOL0     O86003   6.496   8.387   2.168 -0.6707 -0.6269 -0.4352
  638MOL0     C86004   6.456   8.397   2.304 -0.7636 -0.6173 -0.6861
  638MOL0     C86005   6.311   8.459   2.309  0.0784  0.5234 -0.4819
  638MOL0     C86006   6.226   8.383   2.210  0.2500  0.0632 -0.1425
  638MOL0     C86007   6.084   8.420   2.218  0.3053 -0.0136 -0.4094
  638MOL0     C86008   6.003   8.370   2.092  0.4198 -0.1963 -0.4318
  638MOL0     C86009   5.841   8.372   2.098 -0.3437 -0.7729  0.8069
  638MOL0     C86010   5.793   8.514   2.100 -0.4434  0.0610 -0.4201
  638MOL0     C86011   5.643   8.529   2.125 -0.7184 -0.1214 -0.4679
  638MOL0     N86012   5.564   8.488   2.013 -0.3909  0.5451 -0.2948
  638MOL0     C86013   5.573   8.525   1.884  0.4298 -0.5871  0.7097
  638MOL0     C86014   5.471   8.481   1.822 -0.0280 -0.0271  0.3035
  638MOL0     C86015   5.425   8.504   1.678  0.1331 -0.0038 -1.3301
  638MOL0     C86016   5.399   8.651   1.644  0.0683  1.1475  0.4064
  638MOL0     C86017   5.257   8.660   1.579 -0.2860 -0.1602 -1.2783
  638MOL0     C86018   5.265   8.793   1.502  0.1899 -0.0424  0.4909
  638MOL0     O86019   5.350   8.782   1.385 -0.0566  0.1294  0.3682
  638MOL0     C86020   5.303   8.765   1.255 -0.2732 -0.7480  0.0563
  638MOL0     C86021   5.166   8.754   1.220 -0.7460 -0.0021  0.1938
  638MOL0     C86022   5.127   8.722   1.088  0.4852  0.1231  1.2064
  638MOL0     C86023   5.214   8.752   0.983  0.7609 -0.8122  0.0375
  638MOL0     C86024   5.161   8.740   0.846 -0.0598  0.5687  0.2271
  638MOL0     O86025   5.030   8.716   0.836  0.1622  0.8479 -0.1163
  638MOL0     C86026   4.972   8.741   0.715  0.7993  0.8469 -0.1099
  638MOL0     C86027   4.956   8.869   0.671  0.5909  0.0448  0.1578
  638MOL0     C86028   4.891   8.895   0.552  0.7770  0.2106  0.5107
  638MOL0     C86029   4.842   8.792   0.474 -0.0733  1.3488  0.6625
  638MOL0     O86030   4.776   8.817   0.354 -0.9103 -0.4140  0.0881
  638MOL0     C86031   4.817   8.941   0.289  0.2053  0.5760  0.3044
  638MOL0     C86032   4.785   8.916   0.141  0.3278 -0.9909 -0.8494
  638MOL0     C86033   4.782   9.056   0.075  0.1467  0.3612 -0.6108
  638MOL0     C86034   4.741   9.035  -0.076 -0.6157 -0.3540  0.3176
  638MOL0     C86035   4.825   9.121  -0.177  0.2830  0.1607 -0.2273
  638MOL0     C86036   4.803   9.087  -0.321  0.4254 -0.4961 -0.2961
  638MOL0     C86037   4.868   9.163  -0.437 -0.6028 -0.6587  0.1593
  638MOL0     C86038   4.819   9.307  -0.433  0.0294  0.0650  0.1062
  638MOL0    Cl86039   4.829   9.374  -0.600 -0.6301 -0.3489  0.2330
  638MOL0     C86040   4.853   8.662   0.516 -0.2326  0.5146  0.7357
  638MOL0     C86041   4.912   8.635   0.646  0.5350 -0.4930 -0.4863
  638MOL0     O86042   5.237   8.746   0.754  0.3104 -0.2577  0.6264
  638MOL0     C86043   5.353   8.770   1.020  1.1575 -0.3421 -0.0160
  638MOL0     C86044   5.393   8.768   1.151  0.8012  0.8698  0.9636
  638MOL0     N86045   5.405   8.399   1.904  0.3687 -0.0532 -0.8031
  638MOL0     N86046   5.467   8.391   2.014 -0.5989  0.3337 -0.1046
  638MOL0     C86047   6.739   8.348   2.194  0.1854 -0.2890 -0.1091
  638MOL0     C86048   6.869   8.346   2.143  0.3349  0.5123  0.4140
  638MOL0     C86049   7.179   8.251   1.810  0.3895  0.2638  0.1200
  638MOL0     C86050   7.282   8.234   1.904  0.6802 -0.4239 -0.5961
  638MOL0     C86051   7.404   8.183   1.867  0.6189  0.4182 -0.4614
  638MOL0     C86052   7.435   8.133   1.742 -0.5056  0.0460  0.1330
  638MOL0     O86053   7.566   8.081   1.734  0.4686  0.1339 -0.3527
  638MOL0     C86054   7.607   8.059   1.604 -0.0511  0.1093 -0.1466
  638MOL0     C86055   7.760   8.029   1.604  0.1675  0.8265 -0.2116
  638MOL0     C86056   7.817   8.035   1.452  0.4218  0.1092 -1.1150
  638MOL0     C86057   7.950   7.967   1.444 -0.2611 -0.1254  0.1471
  638MOL0     C86058   7.982   7.951   1.305  0.6324  0.3914 -0.4589
  638MOL0     C86059   8.000   7.950   1.183 -0.0732 -0.0105 -0.5472
  638MOL0     C86060   7.333   8.133   1.646  0.6035 -0.6913  0.4783
  638MOL0     C86061   7.206   8.202   1.678 -0.2361  0.5542 -0.4779
  638MOL0     C86062   7.107   8.198   1.564  0.0427  0.2775  0.3957
  638MOL0     H86063   6.762   8.426   1.827 -1.6053 -1.6842 -0.2279
  638MOL0     H86064   6.561   8.422   1.922  1.5677 -0.0098 -3.2065
  638MOL0     H86065   6.450   8.302   2.358 -1.9711 -0.4945 -0.5607
  638MOL0     H86066   6.530   8.465   2.348  1.4892 -1.7652 -2.5215
  638MOL0     H86067   6.326   8.565   2.289 -0.7072  0.8971  0.8236
  638MOL0     H86068   6.269   8.465   2.410 -0.5662  2.1413 -0.8159
  638MOL0     H86069   6.235   8.275   2.223  0.7417  0.0492 -0.5782
  638MOL0     H86070   6.258   8.405   2.107 -2.2353  1.3784 -0.7207
  638MOL0     H86071   6.048   8.374   2.311 -0.1427 -1.6868 -1.3666
  638MOL0     H86072   6.067   8.528   2.221 -0.3285 -0.1169 -0.2113
  638MOL0     H86073   6.028   8.436   2.008 -1.7401  0.1738 -0.8389
  638MOL0     H86074   6.039   8.271   2.061 -0.6856 -1.8656  3.0805
  638MOL0     H86075   5.805   8.311   2.015 -2.0811  0.8153  0.3351
  638MOL0     H86076   5.811   8.332   2.195  0.7549 -1.6533  0.8037
  638MOL0     H86077   5.835   8.566   2.013  1.7395  0.3224  0.7259
  638MOL0     H86078   5.847   8.561   2.183  1.5033  0.9162 -2.0915
  638MOL0     H86079   5.614   8.492   2.223  0.5676 -0.8722 -0.3457
  638MOL0     H86080   5.626   8.637   2.134  0.3127  0.0571 -0.4426
  638MOL0     H86081   5.649   8.592   1.844  1.9029 -2.9926 -0.7406
  638MOL0     H86082   5.471   8.439   1.603  0.0153 -1.5768 -0.1164
  638MOL0     H86083   5.323   8.464   1.675 -0.9958  2.6180 -0.7608
  638MOL0     H86084   5.423   8.720   1.725  0.0859  0.7455  0.7514
  638MOL0     H86085   5.465   8.676   1.560 -2.6689  1.3956 -1.7975
  638MOL0     H86086   5.165   8.664   1.639 -1.4859  1.4362 -3.1038
  638MOL0     H86087   5.233   8.585   1.503  2.8309  0.2651 -2.8485
  638MOL0     H86088   5.314   8.869   1.563  0.8657  0.5552 -0.7541
  638MOL0     H86089   5.162   8.823   1.481  1.1996  2.9859 -0.7457
  638MOL0     H86090   5.087   8.762   1.294 -1.3492  1.0108 -0.5522
  638MOL0     H86091   5.024   8.690   1.078  0.8795 -0.8826  0.0744
  638MOL0     H86092   4.982   8.952   0.736 -0.6083 -0.5581  1.4446
  638MOL0     H86093   4.881   8.999   0.524  1.5976  0.0168 -0.5486
  638MOL0     H86094   4.760   9.023   0.334 -2.0745 -0.8033  0.0965
  638MOL0     H86095   4.923   8.963   0.305  0.5796 -1.1328  0.4419
  638MOL0     H86096   4.857   8.847   0.094 -0.1027 -1.1934 -1.2222
  638MOL0     H86097   4.684   8.873   0.139 -1.4963  2.9188 -1.9393
  638MOL0     H86098   4.717   9.129   0.125 -0.8999 -0.1902 -1.1236
  638MOL0     H86099   4.886   9.087   0.080  0.6131 -1.0907 -0.7761
  638MOL0     H86100   4.632   9.044  -0.086 -0.3056  4.0671 -1.3560
  638MOL0     H86101   4.771   8.933  -0.099  0.2074  0.3436 -1.9140
  638MOL0     H86102   4.933   9.115  -0.161  0.1910  0.7571  0.7459
  638MOL0     H86103   4.793   9.222  -0.149 -0.0681 -0.2295  0.8414
  638MOL0     H86104   4.830   8.981  -0.324  2.7885 -0.0942  2.2100
  638MOL0     H86105   4.697   9.088  -0.346  0.6826  1.9282 -1.4819
  638MOL0     H86106   4.833   9.127  -0.534  1.2108 -0.5846 -0.5682
  638MOL0     H86107   4.976   9.150  -0.427 -0.8227 -2.9767  0.0290
  638MOL0     H86108   4.718   9.322  -0.395  0.3578  0.7873  0.7333
  638MOL0     H86109   4.892   9.358  -0.369  0.0469  1.1439 -0.7354
  638MOL0     H86110   4.811   8.575   0.468  3.5333 -1.3963  0.5243
  638MOL0     H86111   4.915   8.535   0.687  4.4744  0.1461  1.1522
  638MOL0     H86112   5.426   8.787   0.941 -0.0566  2.2578 -0.6938
  638MOL0     H86113   5.494   8.778   1.190 -0.4324 -0.1213  4.8906
  638MOL0     H86114   6.717   8.326   2.298  1.0976 -0.3314  0.0849
  638MOL0     H86115   6.946   8.322   2.216  0.6108 -1.7421 -0.5300
  638MOL0     H86116   7.263   8.255   2.008 -1.7399  1.4164 -1.3214
  638MOL0     H86117   7.483   8.193   1.941  0.8569  0.8879 -0.7745
  638MOL0     H86118   7.583   8.146   1.544 -0.5981 -0.4041 -0.6808
  638MOL0     H86119   7.545   7.981   1.559 -0.7772  0.1694  0.7106
  638MOL0     H86120   7.780   7.926   1.637 -0.1752  0.6324 -0.5962
  638MOL0     H86121   7.803   8.100   1.674 -1.5810  3.1388 -1.3420
  638MOL0     H86122   7.829   8.140   1.423 -0.5152  1.0928  1.7201
  638MOL0     H86123   7.744   7.997   1.380 -0.2507 -1.4725  0.3199
  638MOL0     H86124   8.026   8.027   1.495  0.5419  0.1146 -1.2585
  638MOL0     H86125   7.945   7.870   1.495 -0.5087  0.7737  1.9156
  638MOL0     H86126   7.982   7.933   1.079 -3.8911 -2.9093  0.3412
  638MOL0     H86127   7.351   8.098   1.545 -1.6689  1.0434 -0.6197
  638MOL0     H86128   7.028   8.123   1.572 -1.8000  2.1866  1.1654
  638MOL0     H86129   7.071   8.300   1.543 -1.3058 -0.3847 -0.7013
  638MOL0     H86130   7.162   8.180   1.471  0.4118  2.9256  0.0174
  639MOL0     O86131   5.495   6.208   3.432 -0.0092 -0.1083 -0.5827
  639MOL0     C86132   5.389   6.235   3.382  0.4039 -0.1012  0.2310
  639MOL0     O86133   5.355   6.351   3.320 -0.3827  0.4160 -0.5460
  639MOL0     C86134   5.453   6.441   3.278 -0.0244 -0.1332  0.6580
  639MOL0     C86135   5.418   6.579   3.274  0.7249 -0.0932 -0.0205
  639MOL0     C86136   5.507   6.679   3.239 -0.6260  0.5536 -0.6307
  639MOL0     C86137   5.638   6.639   3.202 -0.1726 -0.2002  0.5943
  639MOL0     O86138   5.728   6.733   3.153  0.2239 -0.0396  0.0441
  639MOL0     C86139   5.715   6.869   3.209  0.6726  0.6961  0.0452
  639MOL0     C86140   5.840   6.945   3.169  0.6507 -0.2179 -0.0445
  639MOL0     C86141   5.828   6.965   3.022  0.0816  0.0058 -0.0880
  639MOL0     C86142   5.937   7.067   2.975  0.5803 -0.9004 -0.2779
  639MOL0     C86143   6.058   6.995   2.906 -0.7350  0.5493  0.4083
  639MOL0     C86144   6.159   7.083   2.835 -0.3913 -0.4504 -0.3237
  639MOL0     C86145   6.262   7.008   2.742 -0.9794 -0.0215 -0.4231
  639MOL0     C86146   6.396   6.960   2.803  0.3223 -0.2408 -1.4143
  639MOL0     N86147   6.379   6.887   2.935  0.1132 -0.2478  0.0625
  639MOL0     C86148   6.356   6.751   2.957 -0.4273 -0.0600  0.4594
  639MOL0     C86149   6.326   6.742   3.091 -0.1250  0.3676  0.4680
  639MOL0     C86150   6.265   6.630   3.158 -0.0089  0.0171  0.4494
  639MOL0     C86151   6.120   6.648   3.213 -1.3322  0.7611 -0.2749
  639MOL0     C86152   6.063   6.513   3.275  0.3581 -0.2943  0.3010
  639MOL0     C86153   6.160   6.454   3.389 -0.1752 -0.1689 -0.7120
  639MOL0     O86154   6.082   6.364   3.470 -0.0189  0.3286 -0.8253
  639MOL0     C86155   6.046   6.240   3.421 -0.2281  0.0103 -0.2156
  639MOL0     C86156   6.133   6.147   3.358  0.2656 -0.0960 -0.1923
  639MOL0     C86157   6.080   6.026   3.315 -0.3340 -0.4891  0.5438
  639MOL0     C86158   5.949   5.990   3.326 -0.3798 -0.1104  0.2788
  639MOL0     C86159   5.895   5.852   3.301  0.5853 -0.4317  0.2115
  639MOL0     O86160   5.761   5.832   3.329 -0.0524  0.6774 -0.2372
  639MOL0     C86161   5.687   5.723   3.290  0.0007 -0.1753 -0.6417
  639MOL0     C86162   5.708   5.659   3.171  0.1401 -0.7427  0.1168
  639MOL0     C86163   5.654   5.534   3.138 -0.0580 -0.7785  0.2014
  639MOL0     C86164   5.565   5.478   3.226 -0.4551  0.6778  0.3398
  639MOL0     O86165   5.513   5.355   3.190  0.4580  0.2642  0.2464
  639MOL0     C86166   5.414   5.293   3.274 -1.4589  1.5464 -1.0434
  639MOL0     C86167   5.367   5.159   3.212 -0.0353  0.9354  0.0965
  639MOL0     C86168   5.314   5.162   3.070 -0.2675 -0.5037  0.0265
  639MOL0     C86169   5.237   5.030   3.034  0.2795 -1.7931 -0.1511
  639MOL0     C86170   5.103   5.010   3.117  0.3763 -0.9750  0.0037
  639MOL0     C86171   5.003   4.949   3.017  0.0456 -0.0827 -0.6112
  639MOL0     C86172   4.874   4.938   3.090 -0.1442  0.1066 -0.8770
  639MOL0     C86173   4.761   4.923   2.984  0.3420  0.7581  0.1683
  639MOL0    Cl86174   4.771   4.758   2.907  0.1230  1.0092  0.0165
  639MOL0     C86175   5.557   5.528   3.358  0.7290 -1.2016  0.2862
  639MOL0     C86176   5.620   5.649   3.387 -0.1874  0.5493  0.1369
  639MOL0     O86177   5.969   5.768   3.255 -0.3277 -0.4235 -0.6638
  639MOL0     C86178   5.860   6.095   3.378 -0.0318  0.3908 -0.1362
  639MOL0     C86179   5.912   6.212   3.427  0.5175  0.9785 -0.0559
  639MOL0     N86180   6.347   6.867   3.149 -0.8814  0.1675 -0.2392
  639MOL0     N86181   6.370   6.947   3.055 -1.0370  0.0488  0.3383
  639MOL0     C86182   5.675   6.506   3.192 -0.0682  0.1395  0.9535
  639MOL0     C86183   5.582   6.409   3.234  0.0305  0.3108  1.0691
  639MOL0     C86184   5.276   6.137   3.408  0.8089 -0.4390 -0.2623
  639MOL0     C86185   5.139   6.178   3.382 -0.0498 -0.0176 -0.8004
  639MOL0     C86186   5.028   6.101   3.396 -0.6918  0.5763 -0.1122
  639MOL0     C86187   5.037   5.971   3.447  0.0232 -0.1492  0.2164
  639MOL0     O86188   4.921   5.905   3.465 -0.6347  0.5173  0.1417
  639MOL0     C86189   4.920   5.767   3.499  0.3035  1.0416 -0.0677
  639MOL0     C86190   4.773   5.725   3.511 -0.4457  0.4607  0.3406
  639MOL0     C86191   4.767   5.566   3.550 -0.1881 -0.3521  0.8072
  639MOL0     C86192   4.641   5.536   3.633  0.6025  0.0948 -0.0419
  639MOL0     C86193   4.507   5.549   3.570 -0.4972  0.4730 -0.3909
  639MOL0     C86194   4.401   5.549   3.520  0.5063 -0.0521 -0.3573
  639MOL0     C86195   5.171   5.924   3.475 -0.2041  0.0475 -0.5278
  639MOL0     C86196   5.290   6.009   3.474  0.6828 -0.5060 -0.2814
  639MOL0     C86197   5.419   5.938   3.515 -0.4963  0.6334 -0.2983
  639MOL0     H86198   5.318   6.616   3.293  1.5749  1.7439  1.1597
  639MOL0     H86199   5.480   6.785   3.238 -1.0869  0.4370 -1.2876
  639MOL0     H86200   5.628   6.916   3.162 -0.5201 -0.8705  0.5640
  639MOL0     H86201   5.699   6.875   3.317  0.3004  1.0121 -0.0245
  639MOL0     H86202   5.927   6.888   3.204  0.2503  0.9239  3.1591
  639MOL0     H86203   5.828   7.041   3.221 -0.5913 -1.3275  1.8221
  639MOL0     H86204   5.734   7.017   3.002  0.5580  0.9735  0.1335
  639MOL0     H86205   5.832   6.874   2.960 -2.9053  0.9422 -1.8824
  639MOL0     H86206   5.898   7.122   2.890  2.2895 -0.8829 -1.0858
  639MOL0     H86207   5.964   7.147   3.045 -0.4237  1.2305 -2.2047
  639MOL0     H86208   6.116   6.940   2.981 -1.2773 -1.5214 -0.6113
  639MOL0     H86209   6.024   6.926   2.828  1.9651  0.1011 -0.4711
  639MOL0     H86210   6.118   7.168   2.778 -1.2416 -1.5358 -1.3871
  639MOL0     H86211   6.216   7.129   2.917 -1.8494 -0.2724  0.6226
  639MOL0     H86212   6.283   7.065   2.651  0.0085 -1.4401 -1.1345
  639MOL0     H86213   6.216   6.911   2.720  1.3070 -1.2483 -0.1869
  639MOL0     H86214   6.446   6.891   2.735  1.5015 -2.2158  1.2864
  639MOL0     H86215   6.463   7.045   2.819 -0.5188  0.1947  0.0399
  639MOL0     H86216   6.338   6.686   2.871 -1.0739  2.9127 -1.8568
  639MOL0     H86217   6.282   6.541   3.097  1.7628  0.0598  0.8100
  639MOL0     H86218   6.332   6.618   3.245 -0.5692  0.9398  1.0153
  639MOL0     H86219   6.111   6.735   3.278 -0.3398  1.1979 -0.6968
  639MOL0     H86220   6.052   6.668   3.129 -1.6966  1.1145  0.0979
  639MOL0     H86221   6.042   6.434   3.203 -1.0964  0.6537 -0.3676
  639MOL0     H86222   5.960   6.543   3.296 -0.9498 -0.3255 -4.7763
  639MOL0     H86223   6.187   6.539   3.452  2.8411  0.8609 -3.1841
  639MOL0     H86224   6.248   6.404   3.349  0.0293 -0.8675  0.5398
  639MOL0     H86225   6.240   6.158   3.343  0.9134  0.0642  3.6097
  639MOL0     H86226   6.152   5.955   3.273 -3.9916 -1.9843 -4.1779
  639MOL0     H86227   5.771   5.701   3.094  1.8666  1.6115  2.6378
  639MOL0     H86228   5.670   5.502   3.035  0.0383  2.5394 -0.9157
  639MOL0     H86229   5.442   5.260   3.374 -3.0718 -0.4333 -1.1855
  639MOL0     H86230   5.337   5.370   3.281  0.0577  3.0686 -0.2503
  639MOL0     H86231   5.452   5.091   3.203 -2.4537 -2.0715 -2.0777
  639MOL0     H86232   5.301   5.114   3.286  1.5575  1.4379  1.9224
  639MOL0     H86233   5.256   5.248   3.036  0.3273 -0.0884  0.0385
  639MOL0     H86234   5.398   5.153   3.001  0.1304 -1.4268  0.6140
  639MOL0     H86235   5.315   4.963   3.071 -1.4941 -2.7678  2.0496
  639MOL0     H86236   5.222   5.030   2.926  2.1891 -0.1947 -0.4870
  639MOL0     H86237   5.073   5.104   3.164  2.8768  1.7644 -3.2722
  639MOL0     H86238   5.135   4.939   3.194  1.7814 -3.1465 -2.4282
  639MOL0     H86239   4.985   5.029   2.943  0.7490  1.8526  1.2121
  639MOL0     H86240   5.038   4.862   2.960  2.7390  0.2370  0.4236
  639MOL0     H86241   4.858   5.026   3.154 -0.2125  0.0801 -0.8559
  639MOL0     H86242   4.859   4.854   3.159 -5.4439  0.5461 -1.0266
  639MOL0     H86243   4.670   4.945   3.040 -1.4759 -2.7070 -1.0999
  639MOL0     H86244   4.781   4.995   2.905  1.4388  0.1191 -0.1659
  639MOL0     H86245   5.500   5.488   3.441  0.3302 -0.9669  0.1248
  639MOL0     H86246   5.626   5.682   3.490  4.2073  1.1252 -0.1133
  639MOL0     H86247   5.759   6.066   3.405  0.6859  0.2872  2.6895
  639MOL0     H86248   5.845   6.292   3.455 -0.8056  1.0612 -3.0246
  639MOL0     H86249   5.767   6.478   3.142  0.4590 -0.6780  2.3107
  639MOL0     H86250   5.607   6.304   3.239  0.2670  0.1954 -1.3049
  639MOL0     H86251   5.125   6.271   3.327 -1.0184  0.4320  0.1837
  639MOL0     H86252   4.932   6.143   3.366 -0.0191  3.1896  1.1736
  639MOL0     H86253   4.982   5.750   3.588 -0.4504 -1.5496  0.0330
  639MOL0     H86254   4.974   5.723   3.415 -1.4910  0.5152 -0.9783
  639MOL0     H86255   4.727   5.744   3.414 -1.1575 -0.4050  0.4964
  639MOL0     H86256   4.725   5.794   3.581  1.0702  1.7557  0.1413
  639MOL0     H86257   4.853   5.542   3.613  0.8563 -0.1839 -0.5019
  639MOL0     H86258   4.783   5.500   3.464 -1.8164  1.8560 -1.3422
  639MOL0     H86259   4.645   5.434   3.673  0.0508  1.2418  3.2597
  639MOL0     H86260   4.652   5.595   3.725  2.0047  2.0887 -1.4181
  639MOL0     H86261   4.308   5.576   3.474  0.4664  0.8103  0.1960
  639MOL0     H86262   5.179   5.824   3.516 -1.0418  0.2738  0.2146
  639MOL0     H86263   5.464   5.901   3.423  0.8319 -1.2628  1.0166
  639MOL0     H86264   5.494   6.000   3.567  0.2129  0.2060 -0.7991
  639MOL0     H86265   5.393   5.858   3.585  1.5317 -1.1991 -1.5152
  640MOL0     O86266   6.515   1.016   9.302 -0.1591  0.3983 -1.2286
  640MOL0     C86267   6.442   1.059   9.218  0.1978 -0.2936 -0.9426
  640MOL0     O86268   6.480   1.126   9.104  0.5843  0.5089 -0.2089
  640MOL0     C86269   6.613   1.157   9.092  0.9776  0.4007 -0.0406
  640MOL0     C86270   6.715   1.066   9.058  1.2568 -0.9074 -0.0910
  640MOL0     C86271   6.842   1.103   9.049 -1.1009 -0.6756  0.6846
  640MOL0     C86272   6.883   1.236   9.072  0.3623  0.4243  0.1879
  640MOL0     O86273   7.009   1.262   9.064 -0.7631  0.0793  0.4573
  640MOL0     C86274   7.049   1.385   9.010 -0.1436 -0.0744 -0.2633
  640MOL0     C86275   7.203   1.383   8.991  0.2743 -0.3365  0.0386
  640MOL0     C86276   7.235   1.308   8.865 -0.3725  0.4507 -0.0975
  640MOL0     C86277   7.383   1.271   8.874 -1.3837 -0.0830  0.6125
  640MOL0     C86278   7.431   1.189   8.749  0.2963 -0.1107  0.0673
  640MOL0     C86279   7.583   1.154   8.754  0.3064 -0.5595 -0.0017
  640MOL0     C86280   7.676   1.276   8.778  0.1386 -0.5941 -0.2879
  640MOL0     C86281   7.669   1.388   8.669  1.3102  0.3115  0.6449
  640MOL0     N86282   7.768   1.490   8.671  0.0742 -0.6326 -0.5479
  640MOL0     C86283   7.904   1.472   8.702  0.8230 -0.7166 -0.1370
  640MOL0     C86284   7.958   1.593   8.684 -0.0693  0.7319  0.2222
  640MOL0     C86285   8.107   1.603   8.681  0.6637 -0.5607 -0.0560
  640MOL0     C86286   8.185   1.507   8.761 -0.7969 -0.4502  0.0194
  640MOL0     C86287   8.320   1.557   8.806 -0.9747 -0.0393 -0.1060
  640MOL0     C86288   8.404   1.449   8.858 -0.5780  0.4539  0.1976
  640MOL0     O86289   8.510   1.512   8.923 -0.5053 -0.1357  0.6162
  640MOL0     C86290   8.626   1.523   8.849  0.7229  0.2786  0.6006
  640MOL0     C86291   8.734   1.440   8.889  0.2961 -0.3610  0.1385
  640MOL0     C86292   8.861   1.453   8.828 -0.0318  0.4010 -0.4598
  640MOL0     C86293   8.868   1.529   8.713  0.6381  0.0537 -0.7321
  640MOL0     C86294   8.991   1.525   8.630  0.3206  0.2469 -0.3909
  640MOL0     O86295   9.001   1.618   8.537 -0.0030  0.3608  0.2629
  640MOL0     C86296   9.108   1.611   8.450 -0.9370  0.0520  0.1718
  640MOL0     C86297   9.189   1.725   8.445  0.5522 -0.1264 -0.6755
  640MOL0     C86298   9.284   1.737   8.343  0.1349  0.7013 -0.5955
  640MOL0     C86299   9.321   1.634   8.253  0.5481 -0.5772 -0.1759
  640MOL0     O86300   9.412   1.657   8.158 -0.0361 -0.0694 -0.3688
  640MOL0     C86301   9.372   1.622   8.022  0.9462 -0.4649 -0.3356
  640MOL0     C86302   9.484   1.574   7.931 -0.2570 -0.7066 -0.1887
  640MOL0     C86303   9.539   1.446   7.992  0.3282  0.6155 -0.3749
  640MOL0     C86304   9.592   1.348   7.891 -0.9381 -0.2302 -1.3215
  640MOL0     C86305   9.723   1.407   7.836 -0.4809 -0.1815 -0.0979
  640MOL0     C86306   9.807   1.295   7.785 -0.6122  0.5535 -0.5246
  640MOL0     C86307   9.946   1.342   7.742 -0.2716  0.4858 -0.4031
  640MOL0     C86308  10.037   1.222   7.695  0.5091 -1.1223  0.1594
  640MOL0    Cl86309  10.202   1.277   7.664 -0.1694 -0.3138  0.7386
  640MOL0     C86310   9.241   1.516   8.269  0.8141 -0.2504  0.5542
  640MOL0     C86311   9.141   1.502   8.363  0.6451 -0.4531 -0.9370
  640MOL0     O86312   9.080   1.445   8.647 -0.5577  0.5360 -0.7680
  640MOL0     C86313   8.761   1.601   8.671  0.4084 -0.6973  0.5966
  640MOL0     C86314   8.634   1.598   8.728 -0.5063  0.6467  0.1275
  640MOL0     N86315   7.862   1.686   8.637  0.4453  0.5598 -0.2058
  640MOL0     N86316   7.740   1.619   8.641 -0.8878 -0.0769  0.1195
  640MOL0     C86317   6.778   1.320   9.104 -0.5281  0.7642  0.3300
  640MOL0     C86318   6.644   1.286   9.112  0.4854  1.0330  0.5664
  640MOL0     C86319   6.300   1.043   9.247  0.4223  0.0248 -0.1872
  640MOL0     C86320   6.228   1.038   9.130  0.6672  0.3317  0.0581
  640MOL0     C86321   6.085   1.017   9.134  0.2749 -0.0243 -0.3911
  640MOL0     C86322   6.029   0.992   9.258 -0.0523 -0.9741 -0.9908
  640MOL0     O86323   5.892   0.970   9.269  0.2707 -0.6177  0.1970
  640MOL0     C86324   5.831   0.951   9.401  0.3313  0.3202 -0.9076
  640MOL0     C86325   5.835   0.813   9.468 -0.1357 -0.0136 -1.3666
  640MOL0     C86326   5.789   0.707   9.373  0.8957 -0.0567 -0.5707
  640MOL0     C86327   5.829   0.568   9.405 -0.2805 -0.2511  1.3683
  640MOL0     C86328   5.736   0.497   9.492  0.0077  0.0607 -1.1852
  640MOL0     C86329   5.683   0.435   9.580  0.0688 -0.4380  0.0088
  640MOL0     C86330   6.110   0.990   9.370  0.6850  0.6820 -0.1102
  640MOL0     C86331   6.242   1.034   9.376 -1.1064 -0.0869 -0.2448
  640MOL0     C86332   6.318   1.048   9.512  0.2256  0.6475 -0.6596
  640MOL0     H86333   6.687   0.963   9.038 -0.6271 -0.3194 -0.6242
  640MOL0     H86334   6.925   1.039   9.022 -2.2395 -1.4031 -1.3291
  640MOL0     H86335   7.004   1.392   8.910 -0.8993  0.1318  0.0860
  640MOL0     H86336   7.016   1.461   9.082  2.1122 -1.1437  2.0524
  640MOL0     H86337   7.252   1.326   9.070  1.5954  0.1441 -0.4208
  640MOL0     H86338   7.243   1.484   8.987  0.5297 -0.4722 -1.4353
  640MOL0     H86339   7.222   1.376   8.780  2.5783  1.9358  0.5021
  640MOL0     H86340   7.170   1.222   8.850 -1.7403  1.6173 -1.1033
  640MOL0     H86341   7.431   1.369   8.869 -4.0719  1.3027 -0.0237
  640MOL0     H86342   7.409   1.209   8.960  0.8861 -1.9097 -1.2374
  640MOL0     H86343   7.375   1.095   8.756 -1.2474  0.9120  2.4976
  640MOL0     H86344   7.403   1.235   8.654 -1.1855 -0.1667  0.4617
  640MOL0     H86345   7.589   1.075   8.828 -3.3155 -1.7016 -0.7588
  640MOL0     H86346   7.596   1.103   8.658 -2.0753 -0.7370 -0.2971
  640MOL0     H86347   7.781   1.248   8.771  1.1493  2.5588  0.6995
  640MOL0     H86348   7.649   1.308   8.879 -4.2897  0.6503 -1.6397
  640MOL0     H86349   7.684   1.358   8.565  2.9564  2.5795  0.1327
  640MOL0     H86350   7.572   1.437   8.663  1.3733  0.5541  1.4622
  640MOL0     H86351   7.954   1.381   8.733 -2.2977 -1.8185  2.1655
  640MOL0     H86352   8.137   1.584   8.578  3.2617 -2.8960  0.9999
  640MOL0     H86353   8.132   1.702   8.720 -0.2672 -1.0526  1.8940
  640MOL0     H86354   8.133   1.478   8.852 -0.9254  0.0098  0.0934
  640MOL0     H86355   8.191   1.409   8.712 -1.0357 -2.0467  2.9957
  640MOL0     H86356   8.309   1.634   8.883  0.6164 -1.1210  1.2966
  640MOL0     H86357   8.365   1.612   8.723  0.1817  2.6212  2.0943
  640MOL0     H86358   8.435   1.383   8.777  1.0259  3.1547 -1.5173
  640MOL0     H86359   8.344   1.397   8.934 -0.8273  0.7531  0.2072
  640MOL0     H86360   8.708   1.382   8.978 -0.2139  0.3038  0.4326
  640MOL0     H86361   8.942   1.392   8.866 -0.1823  0.7398  0.4503
  640MOL0     H86362   9.177   1.809   8.513  5.4579  1.2277 -1.0781
  640MOL0     H86363   9.333   1.834   8.337 -0.0586  0.9853  1.6162
  640MOL0     H86364   9.290   1.549   8.020  0.4839 -0.3227  3.9310
  640MOL0     H86365   9.332   1.715   7.980  2.9435 -0.1410 -1.6893
  640MOL0     H86366   9.444   1.559   7.830  0.5944 -0.7948 -0.5186
  640MOL0     H86367   9.572   1.640   7.927  1.0377 -2.2883  0.8731
  640MOL0     H86368   9.613   1.472   8.068 -1.6739  1.2576  1.4736
  640MOL0     H86369   9.471   1.383   8.050  1.3205 -0.6568 -0.5566
  640MOL0     H86370   9.508   1.319   7.827 -3.2328  1.8794  0.5186
  640MOL0     H86371   9.619   1.254   7.939 -0.6553  0.0589 -0.9027
  640MOL0     H86372   9.768   1.464   7.918 -1.3584 -0.4160  0.5728
  640MOL0     H86373   9.689   1.472   7.755 -2.3081 -1.4740 -0.4466
  640MOL0     H86374   9.824   1.210   7.852  0.9898 -1.3082 -3.0599
  640MOL0     H86375   9.751   1.252   7.702 -1.2170  3.0165 -1.4706
  640MOL0     H86376   9.989   1.395   7.828 -1.0722 -0.1537  0.4173
  640MOL0     H86377   9.949   1.415   7.660  1.1004  2.6823  1.4559
  640MOL0     H86378  10.043   1.153   7.779 -0.8486 -2.5663 -0.8622
  640MOL0     H86379   9.999   1.175   7.604 -0.1267 -1.0008  0.3571
  640MOL0     H86380   9.270   1.432   8.207  0.5016  0.6708 -0.8876
  640MOL0     H86381   9.072   1.419   8.378  0.0844  0.0917 -0.4396
  640MOL0     H86382   8.762   1.672   8.589 -4.6128  0.1152  0.9626
  640MOL0     H86383   8.552   1.664   8.701 -0.6134  0.8544  0.9390
  640MOL0     H86384   6.806   1.423   9.122  2.9233 -0.2974  1.7668
  640MOL0     H86385   6.569   1.360   9.139 -1.6980 -1.0970  0.6929
  640MOL0     H86386   6.277   1.061   9.036  0.6614  4.3020  0.8415
  640MOL0     H86387   6.030   1.022   9.041 -2.2461 -0.6585  0.9738
  640MOL0     H86388   5.726   0.976   9.384 -0.2659 -2.1909 -1.2186
  640MOL0     H86389   5.864   1.032   9.467 -0.1703  2.1840 -2.8388
  640MOL0     H86390   5.772   0.808   9.557 -0.8295  0.7311 -1.7978
  640MOL0     H86391   5.940   0.797   9.495  0.2556  1.2853 -2.0483
  640MOL0     H86392   5.841   0.715   9.277 -0.3099  1.1717 -1.1542
  640MOL0     H86393   5.684   0.718   9.347  1.1282  0.2586 -1.3940
  640MOL0     H86394   5.840   0.523   9.306 -3.3616  1.0520  0.3135
  640MOL0     H86395   5.927   0.569   9.453  0.9348 -0.6516 -0.9416
  640MOL0     H86396   5.646   0.376   9.661  0.4419 -2.3123 -1.1307
  640MOL0     H86397   6.055   0.975   9.463 -1.0826 -0.2226 -1.2411
  640MOL0     H86398   6.399   0.977   9.528 -1.1827 -1.2087 -1.3110
  640MOL0     H86399   6.354   1.149   9.533  0.0102  0.6670 -0.3783
  640MOL0     H86400   6.245   1.022   9.589 -0.1707  1.1529 -0.8566
  641MOL0     O86401   7.627   0.627   6.816  0.2246 -0.3682  0.8416
  641MOL0     C86402   7.628   0.582   6.934  0.2335 -0.9165  1.1388
  641MOL0     O86403   7.732   0.566   7.006 -0.4305 -0.1951  0.2144
  641MOL0     C86404   7.859   0.592   6.953  0.0362  0.4825 -0.2855
  641MOL0     C86405   7.948   0.485   6.963 -0.4163  1.1209  0.1255
  641MOL0     C86406   8.075   0.507   6.909  0.9727 -0.2970  0.9172
  641MOL0     C86407   8.111   0.628   6.851  0.0386 -0.2992  0.0735
  641MOL0     O86408   8.236   0.650   6.795 -0.5488 -0.6785 -0.1453
  641MOL0     C86409   8.295   0.779   6.794 -0.3144 -0.5547 -0.0522
  641MOL0     C86410   8.451   0.769   6.827 -0.9184  0.5077 -0.1085
  641MOL0     C86411   8.482   0.725   6.979  0.5710 -0.7485  0.6803
  641MOL0     C86412   8.456   0.582   7.018  0.3923  0.5709  0.8076
  641MOL0     C86413   8.473   0.559   7.171 -0.3379 -0.6513  0.6774
  641MOL0     C86414   8.416   0.417   7.207  0.3879 -0.1452  0.5060
  641MOL0     C86415   8.463   0.363   7.334 -0.0922 -0.3058 -0.8672
  641MOL0     C86416   8.395   0.436   7.453 -0.1435  0.1451 -0.7041
  641MOL0     N86417   8.402   0.342   7.566 -0.1757  0.0002  0.0987
  641MOL0     C86418   8.485   0.337   7.677 -0.1873 -0.7877  0.7216
  641MOL0     C86419   8.450   0.238   7.758  0.5793  0.0975 -1.0639
  641MOL0     C86420   8.512   0.193   7.890 -0.0193 -0.5922  0.5058
  641MOL0     C86421   8.474   0.273   8.014 -0.2405 -0.6977 -0.7109
  641MOL0     C86422   8.325   0.300   8.044 -0.3470 -0.1873  0.1696
  641MOL0     C86423   8.266   0.386   7.934 -0.2498  0.5763  0.0040
  641MOL0     O86424   8.156   0.457   7.995 -0.3719 -0.2857 -0.0734
  641MOL0     C86425   8.044   0.495   7.921 -0.1375  1.1194  0.0709
  641MOL0     C86426   8.043   0.500   7.780 -0.3036  0.5295 -0.2264
  641MOL0     C86427   7.922   0.528   7.702 -0.2979 -0.6900 -0.3148
  641MOL0     C86428   7.807   0.568   7.767  0.0043 -0.6450 -1.4953
  641MOL0     C86429   7.691   0.631   7.695 -0.1606 -0.4026  0.2737
  641MOL0     O86430   7.581   0.665   7.782 -0.5258  0.1166  0.1046
  641MOL0     C86431   7.460   0.710   7.729  0.7331 -0.1735  0.0572
  641MOL0     C86432   7.402   0.647   7.619 -0.0562  0.0026 -0.8832
  641MOL0     C86433   7.278   0.689   7.574 -0.1197  0.4463 -0.1513
  641MOL0     C86434   7.210   0.798   7.627 -0.7314  0.4504  0.6124
  641MOL0     O86435   7.085   0.831   7.573  0.1276 -0.3014  0.1382
  641MOL0     C86436   6.989   0.862   7.668  0.6008 -0.4698  0.0368
  641MOL0     C86437   6.856   0.889   7.605  0.6039 -0.3613 -0.8206
  641MOL0     C86438   6.800   0.769   7.542  0.4245 -0.0664  0.3690
  641MOL0     C86439   6.665   0.792   7.473  0.7204  0.3118  0.2936
  641MOL0     C86440   6.584   0.673   7.480  0.5754  0.7288  0.6399
  641MOL0     C86441   6.449   0.674   7.396 -0.2192 -0.6246 -0.3924
  641MOL0     C86442   6.368   0.558   7.442 -1.0433  0.5356  0.6990
  641MOL0     C86443   6.225   0.587   7.402 -0.5643 -0.0737 -0.4922
  641MOL0    Cl86444   6.206   0.622   7.225 -0.2378 -0.4975 -0.2667
  641MOL0     C86445   7.262   0.857   7.734 -0.5434  0.1139 -0.3587
  641MOL0     C86446   7.385   0.817   7.785  0.6380  1.2192 -0.4974
  641MOL0     O86447   7.685   0.645   7.577 -0.1747 -1.3063 -0.1850
  641MOL0     C86448   7.808   0.558   7.910  1.0012  0.7068 -0.5607
  641MOL0     C86449   7.926   0.526   7.983  0.6869 -0.8408  0.0809
  641MOL0     N86450   8.341   0.181   7.695  0.1088 -0.4697  0.2516
  641MOL0     N86451   8.323   0.242   7.575  0.7391  0.2714  0.9686
  641MOL0     C86452   8.012   0.727   6.841  0.7251 -1.9825 -0.0337
  641MOL0     C86453   7.888   0.716   6.897 -0.7870 -0.1251  0.0762
  641MOL0     C86454   7.492   0.585   6.996 -0.0936 -0.3778 -0.4058
  641MOL0     C86455   7.388   0.535   6.928  0.0329 -0.4527 -0.2358
  641MOL0     C86456   7.261   0.517   6.987 -0.3580  0.4444  1.2286
  641MOL0     C86457   7.229   0.571   7.110 -0.3948 -0.3047  0.4407
  641MOL0     O86458   7.100   0.566   7.146  0.9010 -0.4736 -0.6041
  641MOL0     C86459   7.052   0.688   7.224 -0.5819  1.1505 -0.0888
  641MOL0     C86460   6.903   0.710   7.213 -0.0159  0.4096  0.3858
  641MOL0     C86461   6.871   0.705   7.058  0.9207 -0.3353 -0.5028
  641MOL0     C86462   6.732   0.762   7.027  0.8090  0.1304 -0.1808
  641MOL0     C86463   6.736   0.913   7.021  0.3564  0.4113  0.2120
  641MOL0     C86464   6.745   1.037   7.013  0.6848  0.2738 -0.1233
  641MOL0     C86465   7.339   0.625   7.184 -0.2590 -0.2917 -0.1708
  641MOL0     C86466   7.469   0.648   7.121  0.6144  0.7882 -0.9792
  641MOL0     C86467   7.569   0.724   7.205  0.8397  0.4765 -0.4675
  641MOL0     H86468   7.917   0.393   7.012  2.4346  0.7102  1.3268
  641MOL0     H86469   8.149   0.427   6.915 -1.0208 -2.1544  2.1432
  641MOL0     H86470   8.311   0.815   6.692  1.5955  1.5978  0.9084
  641MOL0     H86471   8.250   0.860   6.851 -0.7066  0.0727 -1.2314
  641MOL0     H86472   8.512   0.856   6.802 -1.0715  1.1547  1.6634
  641MOL0     H86473   8.483   0.694   6.753  3.1586  2.7352 -0.8703
  641MOL0     H86474   8.437   0.796   7.049 -0.2821  0.7527 -1.3022
  641MOL0     H86475   8.588   0.753   6.989  0.3584  0.0311  0.8743
  641MOL0     H86476   8.357   0.541   6.994  0.0893 -0.7394  3.8169
  641MOL0     H86477   8.527   0.520   6.962  0.5006  1.3025  0.1279
  641MOL0     H86478   8.581   0.556   7.190 -0.1011 -1.0343 -0.5953
  641MOL0     H86479   8.427   0.645   7.220  1.3548  1.3421 -0.9893
  641MOL0     H86480   8.308   0.423   7.196  0.5224 -0.7081 -1.7496
  641MOL0     H86481   8.448   0.351   7.126 -0.9228 -0.7824  0.4863
  641MOL0     H86482   8.571   0.374   7.345 -0.3238  1.9096 -0.3487
  641MOL0     H86483   8.444   0.256   7.349 -1.7536 -0.1908 -1.9381
  641MOL0     H86484   8.460   0.519   7.483  1.4017 -1.3049  0.1487
  641MOL0     H86485   8.293   0.473   7.439 -0.2049  0.4727  0.4821
  641MOL0     H86486   8.568   0.405   7.694  1.5429 -2.5908 -0.0782
  641MOL0     H86487   8.484   0.089   7.907  0.3122 -1.2634 -2.5238
  641MOL0     H86488   8.620   0.198   7.875 -0.2164  2.3405 -0.5789
  641MOL0     H86489   8.520   0.216   8.096 -0.2863  1.2536  0.7406
  641MOL0     H86490   8.520   0.372   8.015  1.3977 -1.3294  2.7512
  641MOL0     H86491   8.319   0.360   8.136  0.7116  1.4490 -0.7832
  641MOL0     H86492   8.275   0.203   8.051  0.7123 -0.6338  2.0764
  641MOL0     H86493   8.224   0.317   7.860  1.6781  0.0187 -0.6399
  641MOL0     H86494   8.331   0.456   7.881 -2.5999  2.9080 -0.0007
  641MOL0     H86495   8.126   0.471   7.716  0.4238  1.2475  0.3804
  641MOL0     H86496   7.921   0.520   7.594 -0.7453 -1.1506 -0.2796
  641MOL0     H86497   7.456   0.564   7.575 -0.6547 -0.7585 -0.1856
  641MOL0     H86498   7.232   0.645   7.486 -0.3769 -0.1873  0.2940
  641MOL0     H86499   6.976   0.788   7.748  0.0827  0.5656  0.9191
  641MOL0     H86500   7.014   0.956   7.717  1.2511 -0.9576  0.6845
  641MOL0     H86501   6.793   0.935   7.681 -0.3222 -1.3094 -0.9960
  641MOL0     H86502   6.872   0.952   7.516  1.5572 -0.5539 -0.7957
  641MOL0     H86503   6.870   0.726   7.469 -1.5539 -1.4106 -0.8073
  641MOL0     H86504   6.791   0.696   7.623  1.6568 -1.4030 -0.6481
  641MOL0     H86505   6.676   0.829   7.370 -2.9778  0.1981 -0.2628
  641MOL0     H86506   6.605   0.875   7.512  0.1016 -0.4589  1.0099
  641MOL0     H86507   6.552   0.655   7.583 -2.2617 -4.9572 -0.8206
  641MOL0     H86508   6.645   0.591   7.441 -0.0697  0.2544  0.6110
  641MOL0     H86509   6.412   0.774   7.422  1.8032 -0.1764  1.0080
  641MOL0     H86510   6.474   0.666   7.290 -2.2520  3.3700 -1.3499
  641MOL0     H86511   6.380   0.542   7.550  4.1023 -2.2187  0.0266
  641MOL0     H86512   6.407   0.471   7.388 -0.9483  0.3941  0.9949
  641MOL0     H86513   6.153   0.510   7.430  1.1794 -2.0078 -1.0817
  641MOL0     H86514   6.188   0.673   7.459  1.4570  1.4753 -1.4138
  641MOL0     H86515   7.214   0.946   7.775 -4.0254 -1.3979 -0.8102
  641MOL0     H86516   7.419   0.853   7.882  0.7406  0.0710 -0.0975
  641MOL0     H86517   7.723   0.573   7.975  0.7120 -0.1216 -0.7360
  641MOL0     H86518   7.924   0.515   8.091  0.2657 -0.2364  0.1358
  641MOL0     H86519   8.039   0.815   6.783 -2.9197 -0.7011 -0.0287
  641MOL0     H86520   7.822   0.800   6.879 -0.0478  0.7072  1.1392
  641MOL0     H86521   7.411   0.490   6.832 -1.1138 -1.9662  0.1575
  641MOL0     H86522   7.188   0.464   6.928  0.7364 -0.0880  0.3124
  641MOL0     H86523   7.115   0.770   7.188  0.3161  0.3743 -0.3446
  641MOL0     H86524   7.088   0.675   7.326 -0.4063  1.8919 -0.0498
  641MOL0     H86525   6.896   0.812   7.252  0.8363  0.4622  0.4292
  641MOL0     H86526   6.841   0.642   7.272 -1.7184  0.4177 -1.3281
  641MOL0     H86527   6.871   0.599   7.032  2.3933 -0.6078  0.4839
  641MOL0     H86528   6.947   0.761   7.003  1.4287 -0.1855  0.3416
  641MOL0     H86529   6.687   0.732   6.932  3.0512 -0.8546 -0.9953
  641MOL0     H86530   6.664   0.734   7.108 -0.0271  2.4141  0.0079
  641MOL0     H86531   6.775   1.135   6.983 -0.0954  0.2075 -1.2092
  641MOL0     H86532   7.314   0.674   7.277  0.2602  0.2002 -0.2920
  641MOL0     H86533   7.651   0.660   7.241  0.6723  1.7093  2.3845
  641MOL0     H86534   7.613   0.804   7.145 -2.3794  3.5810  1.0150
  641MOL0     H86535   7.531   0.771   7.296  0.6230 -0.6528  0.0411
  642MOL0     O86536   1.878   9.320  10.369  0.1698 -0.1475  0.4399
  642MOL0     C86537   1.975   9.269  10.320  0.5431 -1.1814 -0.2454
  642MOL0     O86538   2.044   9.175  10.375 -0.3324  0.4636  0.6551
  642MOL0     C86539   2.003   9.119  10.498  0.0474  0.0626  0.4844
  642MOL0     C86540   2.057   8.993  10.536 -0.4976 -0.1864  0.4975
  642MOL0     C86541   2.048   8.929  10.650  1.5001 -1.0276 -0.3451
  642MOL0     C86542   1.969   8.982  10.754 -0.0040  0.3837 -0.0190
  642MOL0     O86543   1.951   8.927  10.880 -0.4291  0.0310  0.2734
  642MOL0     C86544   2.051   8.840  10.932 -0.2135  0.1258 -0.0743
  642MOL0     C86545   2.128   8.897  11.048 -1.1812  0.4391 -0.0632
  642MOL0     C86546   2.226   8.789  11.090 -0.1564 -0.7456 -0.3896
  642MOL0     C86547   2.319   8.843  11.200  0.5654  0.3180 -0.6608
  642MOL0     C86548   2.369   8.983  11.170 -0.2977  0.1249  0.3696
  642MOL0     C86549   2.488   9.014  11.261 -0.2185  0.8222 -0.1582
  642MOL0     C86550   2.568   9.127  11.192  0.0392 -0.5579  0.4281
  642MOL0     C86551   2.710   9.125  11.246 -0.0952  0.8440 -0.9007
  642MOL0     N86552   2.782   8.997  11.205  0.5069 -0.1073 -0.0672
  642MOL0     C86553   2.857   8.916  11.288 -0.6482 -0.1911  0.4428
  642MOL0     C86554   2.929   8.839  11.210  0.0577  0.1278 -1.1909
  642MOL0     C86555   3.047   8.752  11.243 -0.0889  0.3907 -0.0059
  642MOL0     C86556   3.167   8.819  11.187 -0.7469  0.2781 -0.7046
  642MOL0     C86557   3.297   8.733  11.222 -0.0401 -0.0254  0.2512
  642MOL0     C86558   3.435   8.809  11.192 -0.1066  0.5354 -0.5679
  642MOL0     O86559   3.554   8.741  11.236 -0.2527  0.6103  0.5219
  642MOL0     C86560   3.661   8.717  11.144 -0.2917  0.1870 -0.4790
  642MOL0     C86561   3.776   8.664  11.193 -0.0032 -0.6311 -0.1177
  642MOL0     C86562   3.887   8.639  11.111  1.1305  0.4600  1.3022
  642MOL0     C86563   3.874   8.660  10.974 -0.2339  0.1316  0.0492
  642MOL0     C86564   3.987   8.610  10.877  0.3590  0.0700 -0.4418
  642MOL0     O86565   3.991   8.665  10.752 -1.2128 -0.6166  1.0663
  642MOL0     C86566   4.067   8.603  10.646  0.9282  0.2006  0.0756
  642MOL0     C86567   4.130   8.692  10.560  0.9855 -0.8859  0.2323
  642MOL0     C86568   4.194   8.648  10.444 -0.3226 -0.0448 -0.8867
  642MOL0     C86569   4.184   8.518  10.397 -0.5613  0.7795  0.5840
  642MOL0     O86570   4.254   8.467  10.287 -0.2647 -0.6490  0.4142
  642MOL0     C86571   4.278   8.558  10.183  0.4050 -0.1704 -0.3266
  642MOL0     C86572   4.337   8.492  10.059  0.2370  1.0619 -0.4910
  642MOL0     C86573   4.455   8.407  10.103  0.0205  0.6071 -0.2116
  642MOL0     C86574   4.510   8.341   9.981 -0.7238 -0.0210 -0.0777
  642MOL0     C86575   4.651   8.278  10.000  0.5183 -0.2387 -0.2761
  642MOL0     C86576   4.666   8.162  10.100  0.9425 -0.1989  0.6320
  642MOL0     C86577   4.790   8.075  10.077  0.1151  0.8970 -0.1021
  642MOL0     C86578   4.923   8.147  10.104  1.2267  0.8446  0.8609
  642MOL0    Cl86579   5.042   8.078   9.989  0.4845  0.0560  0.3435
  642MOL0     C86580   4.119   8.428  10.482  0.3883  1.1981  0.0980
  642MOL0     C86581   4.055   8.469  10.602 -0.8063  0.0951 -0.3357
  642MOL0     O86582   4.064   8.533  10.930  0.5539 -0.6629 -0.1972
  642MOL0     C86583   3.767   8.718  10.924  0.1812  0.2980 -0.3111
  642MOL0     C86584   3.653   8.741  11.006 -0.5599 -0.1497  0.7186
  642MOL0     N86585   2.896   8.862  11.078 -0.4254 -0.6369 -0.4357
  642MOL0     N86586   2.814   8.966  11.075  0.3581 -0.0725 -0.2020
  642MOL0     C86587   1.895   9.100  10.720 -0.5136 -0.0764 -0.1071
  642MOL0     C86588   1.909   9.161  10.599 -0.4087  0.1682 -0.9284
  642MOL0     C86589   2.034   9.316  10.196  0.2847 -0.0602 -0.3196
  642MOL0     C86590   1.943   9.379  10.102  0.0883  0.0029 -0.0321
  642MOL0     C86591   1.989   9.427   9.982 -0.1489  0.0395 -0.0288
  642MOL0     C86592   2.127   9.437   9.963  0.4315  1.7689 -0.0479
  642MOL0     O86593   2.169   9.469   9.835 -0.4543  0.1345  0.4415
  642MOL0     C86594   2.310   9.518   9.809  0.1420  0.0672 -0.2995
  642MOL0     C86595   2.307   9.611   9.680  0.2777  0.8933 -0.2255
  642MOL0     C86596   2.264   9.544   9.546 -0.2976 -0.2520  1.1320
  642MOL0     C86597   2.262   9.647   9.430 -0.5353 -0.2668 -0.4785
  642MOL0     C86598   2.219   9.584   9.305  1.3936  0.7716  0.3169
  642MOL0     C86599   2.170   9.527   9.207  0.9871 -0.3408  1.2169
  642MOL0     C86600   2.219   9.390  10.055 -0.1923 -0.2831  0.1123
  642MOL0     C86601   2.170   9.323  10.169 -0.5369  0.5119 -0.3852
  642MOL0     C86602   2.277   9.274  10.262  0.1750  0.2264  0.4166
  642MOL0     H86603   2.118   8.947  10.458  2.7621  5.8158 -1.1469
  642MOL0     H86604   2.106   8.839  10.667  1.4483 -0.7177  1.8197
  642MOL0     H86605   1.999   8.752  10.969  0.4101 -0.5206 -0.7101
  642MOL0     H86606   2.123   8.800  10.860 -0.2726 -0.6427  0.2924
  642MOL0     H86607   2.059   8.913  11.132  2.1394 -1.1222  3.2573
  642MOL0     H86608   2.173   8.990  11.012  2.1364 -1.9025 -2.5167
  642MOL0     H86609   2.285   8.748  11.007  0.8637  0.8089 -0.4573
  642MOL0     H86610   2.171   8.710  11.143  0.2952  0.4740  1.9991
  642MOL0     H86611   2.262   8.843  11.293  0.2366 -0.9948 -0.8430
  642MOL0     H86612   2.401   8.771  11.206 -0.5339 -0.8476  1.1224
  642MOL0     H86613   2.411   8.985  11.069  0.4325  1.0911  0.6712
  642MOL0     H86614   2.289   9.054  11.193  1.6870  2.1766  1.3693
  642MOL0     H86615   2.470   9.022  11.368  3.3483  3.1154  0.4602
  642MOL0     H86616   2.566   8.937  11.252  1.4395  2.3524  0.3647
  642MOL0     H86617   2.534   9.230  11.209  0.7422 -0.1115 -0.7810
  642MOL0     H86618   2.571   9.107  11.085  1.0492  2.9563 -0.3260
  642MOL0     H86619   2.771   9.196  11.190  2.7498  0.6265  1.6552
  642MOL0     H86620   2.726   9.155  11.350 -0.0593  0.2423 -0.7266
  642MOL0     H86621   2.865   8.919  11.397 -1.2353 -0.4311  0.4979
  642MOL0     H86622   3.052   8.744  11.352  1.9357 -2.2404 -0.2108
  642MOL0     H86623   3.040   8.656  11.192 -1.5067  1.5002 -2.0371
  642MOL0     H86624   3.156   8.836  11.080 -0.4487 -1.9714 -1.1319
  642MOL0     H86625   3.174   8.915  11.239 -0.1731 -0.6515  1.0490
  642MOL0     H86626   3.307   8.642  11.162  3.1994  0.6289 -0.3652
  642MOL0     H86627   3.300   8.716  11.330  3.2977  2.4184  0.6920
  642MOL0     H86628   3.439   8.900  11.253  2.5963 -0.3109  0.6704
  642MOL0     H86629   3.449   8.844  11.089 -2.7233  0.7308 -0.9128
  642MOL0     H86630   3.770   8.639  11.298 -1.8832  0.8844  0.1973
  642MOL0     H86631   3.977   8.595  11.153  1.6570  2.0220  1.8980
  642MOL0     H86632   4.146   8.795  10.590  0.9006 -1.1123  1.1002
  642MOL0     H86633   4.254   8.727  10.401 -0.8305  0.5198 -0.5665
  642MOL0     H86634   4.189   8.616  10.156 -2.5618 -4.9774 -2.2562
  642MOL0     H86635   4.350   8.632  10.217 -0.6913  0.9807 -0.4069
  642MOL0     H86636   4.261   8.440  10.000 -1.9261  2.8936  0.5357
  642MOL0     H86637   4.359   8.568   9.983  1.6052 -0.7796 -2.0459
  642MOL0     H86638   4.529   8.469  10.154  2.5031  0.1829 -3.0621
  642MOL0     H86639   4.422   8.336  10.179 -0.6329  1.5195  0.3864
  642MOL0     H86640   4.518   8.421   9.907 -1.8480  3.6358  3.4211
  642MOL0     H86641   4.435   8.278   9.931 -0.3629 -0.4762 -0.0566
  642MOL0     H86642   4.715   8.361  10.030 -3.0203  2.4453  0.4877
  642MOL0     H86643   4.683   8.234   9.905  0.4123 -0.6067 -0.1425
  642MOL0     H86644   4.665   8.209  10.198 -1.6784  0.7264  0.2303
  642MOL0     H86645   4.578   8.098  10.109  0.9443 -0.0495  1.8260
  642MOL0     H86646   4.785   8.021   9.982  0.1066  2.9985 -1.3505
  642MOL0     H86647   4.780   8.000  10.156 -1.8619  2.3053  1.0738
  642MOL0     H86648   4.912   8.249  10.067  1.9995  0.3876 -0.7262
  642MOL0     H86649   4.955   8.147  10.208  1.8752 -2.0083  0.7386
  642MOL0     H86650   4.118   8.326  10.447  1.6749  1.3796 -0.5244
  642MOL0     H86651   3.999   8.395  10.659  1.5274 -1.2222  0.3715
  642MOL0     H86652   3.750   8.746  10.821 -3.1156  3.9387  0.9531
  642MOL0     H86653   3.571   8.789  10.954  1.5504  0.5540 -2.2412
  642MOL0     H86654   1.832   9.149  10.794  0.1579  1.6361 -0.6078
  642MOL0     H86655   1.861   9.258  10.600 -0.9127 -0.0793  0.2950
  642MOL0     H86656   1.836   9.388  10.117 -0.4114 -1.8498 -1.9445
  642MOL0     H86657   1.925   9.466   9.903  0.3448  1.7143  0.3530
  642MOL0     H86658   2.372   9.430   9.788 -0.1529 -1.3660  3.9199
  642MOL0     H86659   2.347   9.571   9.897 -0.8358  2.1545 -1.0799
  642MOL0     H86660   2.408   9.650   9.670  0.2158  1.4150  1.0134
  642MOL0     H86661   2.240   9.694   9.703  1.0844  1.3972  0.3528
  642MOL0     H86662   2.162   9.506   9.559 -0.9039 -0.8848 -3.6779
  642MOL0     H86663   2.320   9.453   9.524 -1.8908 -1.7135  2.7898
  642MOL0     H86664   2.198   9.725   9.472  1.3821  2.1486 -1.7401
  642MOL0     H86665   2.357   9.698   9.410  0.1944 -1.6982 -0.8225
  642MOL0     H86666   2.148   9.511   9.104  2.4015  2.8030  0.3071
  642MOL0     H86667   2.323   9.384  10.025 -0.0831  0.6580  0.2886
  642MOL0     H86668   2.277   9.164  10.263 -2.7181  0.1211 -0.4667
  642MOL0     H86669   2.376   9.307  10.231 -0.8656  0.3818 -3.2733
  642MOL0     H86670   2.252   9.298  10.366 -0.0213 -2.6434  1.1226
  643MOL0     O86671   0.160   6.764   0.506 -0.8859 -0.2166  0.0815
  643MOL0     C86672   0.103   6.691   0.432  0.3204 -0.6055  0.3694
  643MOL0     O86673   0.088   6.557   0.439  0.8651 -0.0296  0.6424
  643MOL0     C86674   0.162   6.463   0.514 -0.5098 -0.2315 -0.3961
  643MOL0     C86675   0.145   6.325   0.497 -0.2279  0.1909 -0.0026
  643MOL0     C86676   0.215   6.216   0.566  0.3963 -0.1017 -0.5623
  643MOL0     C86677   0.302   6.260   0.665  0.8030 -0.3127  1.2054
  643MOL0     O86678   0.360   6.174   0.756 -0.6008 -0.8492  0.3371
  643MOL0     C86679   0.495   6.167   0.740 -0.2900 -0.2534 -0.1234
  643MOL0     C86680   0.525   6.021   0.714  0.7850 -0.4475  0.2005
  643MOL0     C86681   0.669   5.999   0.680 -0.4763  0.8405 -0.7258
  643MOL0     C86682   0.753   6.037   0.804 -1.0555 -0.0099 -0.5343
  643MOL0     C86683   0.859   5.930   0.827 -0.4879 -0.4134 -0.2661
  643MOL0     C86684   0.988   5.988   0.904 -0.5053 -0.9657  1.2183
  643MOL0     C86685   1.102   5.892   0.924 -0.4543 -0.0722  0.5646
  643MOL0     C86686   1.162   5.832   0.798 -0.5719 -0.5051  0.8009
  643MOL0     N86687   1.192   5.932   0.688  0.6543 -0.4658  0.1599
  643MOL0     C86688   1.223   6.059   0.696  0.1330 -0.0851  0.0834
  643MOL0     C86689   1.226   6.111   0.579 -0.6404 -0.0335  0.8688
  643MOL0     C86690   1.255   6.261   0.569  0.9940  0.0268 -0.6653
  643MOL0     C86691   1.367   6.285   0.473  0.6625  0.4297  0.9862
  643MOL0     C86692   1.463   6.397   0.505  1.1428 -0.9613 -0.1893
  643MOL0     C86693   1.457   6.504   0.392  0.1665  0.1042 -0.2795
  643MOL0     O86694   1.327   6.570   0.354  0.4149 -0.9768  0.7693
  643MOL0     C86695   1.345   6.682   0.270 -0.0070 -0.2436  0.4785
  643MOL0     C86696   1.260   6.781   0.283 -0.1336 -0.0973  0.4826
  643MOL0     C86697   1.258   6.900   0.206  0.5535 -0.1378  0.9606
  643MOL0     C86698   1.357   6.912   0.106  0.2706  0.2588 -0.8118
  643MOL0     C86699   1.375   7.036   0.024 -0.6133  0.0066  1.3994
  643MOL0     O86700   1.270   7.117   0.031  0.4662  0.6958  0.5092
  643MOL0     C86701   1.272   7.253  -0.012 -0.0531 -0.6301  0.4258
  643MOL0     C86702   1.323   7.300  -0.133  0.5658  0.0571  0.2892
  643MOL0     C86703   1.297   7.436  -0.178 -0.0966  0.3081 -0.9162
  643MOL0     C86704   1.230   7.528  -0.099 -0.4884  0.7300 -0.3269
  643MOL0     O86705   1.212   7.653  -0.144 -0.3854  0.4793  0.0729
  643MOL0     C86706   1.143   7.758  -0.073  0.1285 -0.0557  0.3572
  643MOL0     C86707   1.138   7.881  -0.168 -0.1724  0.3008  0.8569
  643MOL0     C86708   1.090   8.010  -0.107 -0.2407  0.7585  0.3747
  643MOL0     C86709   1.111   8.120  -0.203  0.1539 -0.1196 -0.5917
  643MOL0     C86710   1.098   8.255  -0.119  0.6361  0.0494  0.8387
  643MOL0     C86711   1.144   8.384  -0.192  0.2059 -0.4383 -0.4424
  643MOL0     C86712   1.060   8.510  -0.158  0.6188 -0.3189 -0.4466
  643MOL0     C86713   1.065   8.545  -0.008  0.0163  0.3110  1.0920
  643MOL0    Cl86714   1.225   8.601   0.047  0.4915 -0.2935 -0.5079
  643MOL0     C86715   1.187   7.484   0.020  0.4589  0.1558  0.3015
  643MOL0     C86716   1.202   7.351   0.067 -0.6135  0.1077 -0.0399
  643MOL0     O86717   1.482   7.055  -0.039  0.4807 -0.1067  0.1205
  643MOL0     C86718   1.439   6.800   0.078 -0.2330 -0.7957 -0.2870
  643MOL0     C86719   1.439   6.696   0.165 -0.0656  0.2402 -0.2826
  643MOL0     N86720   1.194   6.004   0.491 -0.3056  0.0243  0.1442
  643MOL0     N86721   1.176   5.892   0.562 -0.4711  1.1241  0.4649
  643MOL0     C86722   0.328   6.397   0.684  0.5667 -0.4392 -0.6188
  643MOL0     C86723   0.265   6.498   0.611  0.8947 -0.4802 -0.0895
  643MOL0     C86724   0.027   6.748   0.312 -0.0636  0.3476 -0.1849
  643MOL0     C86725  -0.001   6.663   0.197  0.0816 -0.0676 -0.0578
  643MOL0     C86726  -0.066   6.698   0.081  0.2658  0.6988  0.6901
  643MOL0     C86727  -0.121   6.827   0.080 -0.2632 -0.2597 -0.5819
  643MOL0     O86728  -0.194   6.878  -0.021  0.3833 -0.6267 -0.3551
  643MOL0     C86729  -0.291   6.790  -0.069  1.2212  0.9019 -0.4486
  643MOL0     C86730  -0.394   6.855  -0.158 -0.0331  0.1298 -1.0620
  643MOL0     C86731  -0.327   6.897  -0.288 -0.2979 -0.6436 -0.0839
  643MOL0     C86732  -0.420   6.973  -0.391 -0.0271 -0.4275 -0.0327
  643MOL0     C86733  -0.522   6.885  -0.452 -0.8333  0.6555 -0.5606
  643MOL0     C86734  -0.588   6.800  -0.498  0.3313 -0.1522  0.6411
  643MOL0     C86735  -0.097   6.910   0.186 -0.5306 -0.3625  0.4544
  643MOL0     C86736  -0.017   6.879   0.300 -0.4984 -0.0657  0.3540
  643MOL0     C86737   0.013   7.001   0.388  0.3324 -1.3712 -1.2951
  643MOL0     H86738   0.088   6.286   0.414  0.8753  0.0815 -0.7252
  643MOL0     H86739   0.194   6.112   0.547 -2.3767  0.7195 -2.5546
  643MOL0     H86740   0.528   6.215   0.647 -1.4735  0.8922  0.0239
  643MOL0     H86741   0.546   6.200   0.831  1.8041 -5.1613  0.8411
  643MOL0     H86742   0.467   5.989   0.626  0.8487 -0.8671  0.3061
  643MOL0     H86743   0.499   5.957   0.799 -0.2681 -0.4388 -0.0931
  643MOL0     H86744   0.700   6.076   0.609 -0.4909  1.0193 -0.5386
  643MOL0     H86745   0.689   5.898   0.644  4.1713  1.4333 -0.3419
  643MOL0     H86746   0.803   6.129   0.772  0.5838 -0.7824 -0.2862
  643MOL0     H86747   0.684   6.057   0.886 -1.7105  0.7861 -1.2596
  643MOL0     H86748   0.829   5.855   0.902  1.7346 -0.1525  0.9690
  643MOL0     H86749   0.887   5.869   0.741  2.4244  0.7962 -0.2663
  643MOL0     H86750   1.031   6.071   0.846 -0.5957 -1.6128  0.2025
  643MOL0     H86751   0.955   6.034   0.998 -1.4875  1.5338 -0.2402
  643MOL0     H86752   1.073   5.823   1.003  2.7783 -1.7144  0.5037
  643MOL0     H86753   1.187   5.942   0.974 -0.1426  1.0897 -1.0278
  643MOL0     H86754   1.258   5.786   0.824  2.3586  2.6249 -3.0591
  643MOL0     H86755   1.099   5.756   0.750 -1.1268  0.1367  0.5091
  643MOL0     H86756   1.236   6.120   0.785 -2.8234  3.3243 -1.5666
  643MOL0     H86757   1.168   6.325   0.553 -0.4577 -1.6666  0.0576
  643MOL0     H86758   1.274   6.292   0.672 -0.8316  0.8268 -0.5267
  643MOL0     H86759   1.430   6.195   0.470  0.0152 -0.0023 -0.1892
  643MOL0     H86760   1.332   6.287   0.370  3.1357 -0.7198  0.0347
  643MOL0     H86761   1.562   6.352   0.507  0.5980 -2.2929 -1.2667
  643MOL0     H86762   1.429   6.433   0.603  0.2775 -3.3268  0.4679
  643MOL0     H86763   1.495   6.457   0.301  4.0702 -1.7636  2.0841
  643MOL0     H86764   1.529   6.584   0.414 -1.3671  1.5001 -0.0962
  643MOL0     H86765   1.175   6.770   0.350 -0.8604 -1.2681 -0.5854
  643MOL0     H86766   1.185   6.975   0.235  0.0439  0.0631 -0.7190
  643MOL0     H86767   1.380   7.246  -0.208  0.0015 -0.6210  0.3344
  643MOL0     H86768   1.329   7.466  -0.277  2.3114 -0.3867 -0.4070
  643MOL0     H86769   1.042   7.725  -0.048 -1.2969  4.4905  1.6702
  643MOL0     H86770   1.194   7.788   0.019  1.8451 -1.4244 -0.1039
  643MOL0     H86771   1.238   7.898  -0.208 -0.9492 -0.6563 -1.7432
  643MOL0     H86772   1.073   7.849  -0.250  2.3017 -0.5397 -0.8996
  643MOL0     H86773   0.989   8.002  -0.066 -0.0275  1.7814  1.1137
  643MOL0     H86774   1.155   8.030  -0.022 -0.0930 -1.2209  0.7705
  643MOL0     H86775   1.033   8.131  -0.278 -0.9547 -3.9766 -0.2166
  643MOL0     H86776   1.211   8.115  -0.248  1.0907  0.0990  1.3466
  643MOL0     H86777   1.149   8.245  -0.022 -1.3253 -1.1437  1.8210
  643MOL0     H86778   0.993   8.261  -0.089  0.5699  0.1173  0.5878
  643MOL0     H86779   1.251   8.404  -0.198  0.4602 -2.1431 -3.6731
  643MOL0     H86780   1.117   8.358  -0.294  0.4413 -0.8974 -0.3911
  643MOL0     H86781   0.959   8.488  -0.191  0.7150  0.8537 -1.5887
  643MOL0     H86782   1.084   8.597  -0.220 -1.0918 -0.4996 -1.4306
  643MOL0     H86783   0.996   8.628   0.003 -1.8646 -1.4054  3.2836
  643MOL0     H86784   1.030   8.471   0.065 -0.3802 -0.3457  0.2541
  643MOL0     H86785   1.122   7.550   0.078 -2.2703  0.7434 -3.0737
  643MOL0     H86786   1.158   7.318   0.160  0.9932 -3.7581 -0.4715
  643MOL0     H86787   1.517   6.789   0.004  0.5355 -0.5933  0.4757
  643MOL0     H86788   1.509   6.615   0.149  0.9719  1.2703 -1.1147
  643MOL0     H86789   0.390   6.433   0.765 -1.8561  1.2316  0.6515
  643MOL0     H86790   0.286   6.603   0.628 -0.0621 -0.5634  1.9427
  643MOL0     H86791   0.041   6.563   0.207 -1.7156 -0.8749 -0.1113
  643MOL0     H86792  -0.088   6.622   0.007  0.0221  1.8022 -0.3953
  643MOL0     H86793  -0.350   6.745   0.012  0.1123 -0.2928 -1.8543
  643MOL0     H86794  -0.251   6.704  -0.122 -1.4936 -0.1472 -0.9967
  643MOL0     H86795  -0.429   6.943  -0.103 -0.6174 -1.4534  1.2956
  643MOL0     H86796  -0.480   6.791  -0.179  1.4322 -2.0445 -0.7488
  643MOL0     H86797  -0.288   6.811  -0.342  0.8344 -0.7187  0.8256
  643MOL0     H86798  -0.241   6.962  -0.270  0.5311 -1.4116 -1.1926
  643MOL0     H86799  -0.463   7.068  -0.360  0.8490  1.6813 -4.4524
  643MOL0     H86800  -0.361   6.990  -0.482  0.7731 -3.6161 -0.2446
  643MOL0     H86801  -0.634   6.730  -0.564 -1.4440  1.9193 -0.4419
  643MOL0     H86802  -0.128   7.014   0.187 -1.8081 -0.7184  1.9250
  643MOL0     H86803  -0.024   7.099   0.354  0.1969 -0.2523  1.7772
  643MOL0     H86804  -0.045   6.992   0.480 -1.7044 -0.4557 -2.4139
  643MOL0     H86805   0.120   7.009   0.410  0.3577  3.0206 -1.9407
  644MOL0     O86806  10.518   8.002  10.292  0.7802  0.8870 -0.0059
  644MOL0     C86807  10.614   8.007  10.211  0.0141  0.4307  0.0052
  644MOL0     O86808  10.620   7.973  10.079  0.0107 -0.4150  0.5095
  644MOL0     C86809  10.491   7.946  10.032 -0.0031 -0.1892 -0.0999
  644MOL0     C86810  10.449   7.815  10.028  0.4519  0.0873 -0.2988
  644MOL0     C86811  10.337   7.773   9.981  0.3422 -0.6248 -0.0057
  644MOL0     C86812  10.245   7.873   9.943 -0.3206 -0.8480 -0.2071
  644MOL0     O86813  10.123   7.847   9.888 -0.0735  0.3701  0.5714
  644MOL0     C86814  10.091   7.708   9.844  0.4229  0.6903  0.1592
  644MOL0     C86815   9.980   7.729   9.739  0.6508 -0.4683  0.4790
  644MOL0     C86816   9.932   7.602   9.674 -0.5925 -0.0767  0.4176
  644MOL0     C86817   9.839   7.622   9.551 -0.1491 -0.1785  0.0790
  644MOL0     C86818   9.714   7.714   9.592  0.5247  1.2612  0.7165
  644MOL0     C86819   9.586   7.715   9.494  0.5484  0.5710  0.0247
  644MOL0     C86820   9.599   7.824   9.382  0.1133  0.6629 -0.2971
  644MOL0     C86821   9.503   7.793   9.262 -0.4023 -0.0205 -0.9065
  644MOL0     N86822   9.534   7.655   9.211  0.4806 -0.2850 -0.0368
  644MOL0     C86823   9.668   7.606   9.194 -0.5450 -0.6128 -0.4113
  644MOL0     C86824   9.643   7.475   9.154 -0.1354  0.7953  0.8734
  644MOL0     C86825   9.756   7.371   9.126  0.7915 -0.3223 -0.6414
  644MOL0     C86826   9.832   7.343   9.255  0.2174 -0.7107 -0.0674
  644MOL0     C86827   9.750   7.292   9.376 -0.1147 -0.0040 -0.6526
  644MOL0     C86828   9.842   7.247   9.491  0.0574  0.1763 -0.1349
  644MOL0     O86829   9.910   7.124   9.452  0.6467 -0.6185 -0.4482
  644MOL0     C86830  10.022   7.083   9.517  0.5869  1.1537 -0.0393
  644MOL0     C86831  10.105   7.007   9.433  0.1466 -0.1438  0.0315
  644MOL0     C86832  10.227   6.961   9.486 -0.2460  0.1842  0.3058
  644MOL0     C86833  10.275   6.995   9.619 -0.4365  0.2810 -0.2871
  644MOL0     C86834  10.400   6.953   9.674  0.1066 -0.1160 -0.5525
  644MOL0     O86835  10.421   6.992   9.803 -0.4309  0.5787 -0.2287
  644MOL0     C86836  10.542   6.976   9.870 -0.5202 -0.0472  0.4058
  644MOL0     C86837  10.664   7.019   9.810 -0.0005 -0.4416 -0.1388
  644MOL0     C86838  10.778   7.009   9.897  0.1161  0.8283 -0.4653
  644MOL0     C86839  10.770   6.953  10.023 -0.5004  0.7401  0.1059
  644MOL0     O86840  10.887   6.903  10.088  0.5332 -0.1692  0.6332
  644MOL0     C86841  11.002   6.983  10.052 -0.4164 -0.5168 -1.0438
  644MOL0     C86842  11.120   6.933  10.136 -1.1918 -0.5122 -0.7869
  644MOL0     C86843  11.246   6.968  10.065  0.9481  0.8207  0.5243
  644MOL0     C86844  11.273   7.123  10.049  0.3464  0.1740 -0.3938
  644MOL0     C86845  11.408   7.149   9.983 -0.4200  0.0964  0.6541
  644MOL0     C86846  11.430   7.294   9.929  0.3662 -0.9567  0.0562
  644MOL0     C86847  11.361   7.329   9.789 -0.1319  0.3780  0.0697
  644MOL0     C86848  11.409   7.477   9.747 -0.0748  0.3140 -0.0901
  644MOL0    Cl86849  11.589   7.498   9.696  0.1459  0.5077 -0.0402
  644MOL0     C86850  10.652   6.912  10.075 -0.3274 -0.0863 -0.5007
  644MOL0     C86851  10.535   6.930  10.001  0.0951 -0.5738  0.5186
  644MOL0     O86852  10.474   6.880   9.611 -0.1866 -0.1892 -0.7611
  644MOL0     C86853  10.189   7.079   9.693 -0.1344 -1.1263  0.0598
  644MOL0     C86854  10.060   7.125   9.642  0.0845 -0.0805  0.3774
  644MOL0     N86855   9.507   7.448   9.148  0.0634 -0.3452  0.4590
  644MOL0     N86856   9.446   7.556   9.182  1.2325 -0.0097  0.1930
  644MOL0     C86857  10.289   8.001   9.934  0.7482 -0.4940  0.0790
  644MOL0     C86858  10.417   8.037   9.981 -0.3558 -0.0839  0.3059
  644MOL0     C86859  10.737   8.081  10.253  0.5681  0.4761 -0.6132
  644MOL0     C86860  10.853   8.035  10.198 -0.3129 -0.4727  0.2517
  644MOL0     C86861  10.977   8.090  10.241 -1.0394 -0.5261  0.8866
  644MOL0     C86862  10.982   8.185  10.345  0.7749 -0.6659 -0.9121
  644MOL0     O86863  11.095   8.231  10.405  0.3178  0.4539 -0.1566
  644MOL0     C86864  11.213   8.156  10.388  1.0147 -0.2057 -0.1194
  644MOL0     C86865  11.290   8.186  10.254 -0.2980  0.0562 -0.2872
  644MOL0     C86866  11.434   8.116  10.263 -0.3141 -0.1900 -0.2675
  644MOL0     C86867  11.547   8.166  10.165  0.1069  0.5651  0.3673
  644MOL0     C86868  11.570   8.304  10.199 -0.9894 -0.6882 -0.1125
  644MOL0     C86869  11.603   8.419  10.237  0.0143  0.0617  0.7300
  644MOL0     C86870  10.858   8.233  10.396  0.4960 -0.2243  0.2444
  644MOL0     C86871  10.735   8.184  10.353  0.5417  0.3906  0.1103
  644MOL0     C86872  10.606   8.249  10.406 -0.3470 -0.2575 -0.2618
  644MOL0     H86873  10.513   7.743  10.078 -2.5526 -1.9433  0.9206
  644MOL0     H86874  10.310   7.668   9.990  3.7673 -1.5970  0.1931
  644MOL0     H86875  10.171   7.664   9.783 -0.2865 -2.3420  1.2274
  644MOL0     H86876  10.053   7.630   9.910 -2.1413  0.4876 -1.4079
  644MOL0     H86877  10.011   7.800   9.662  2.4907 -0.2545  1.3576
  644MOL0     H86878   9.889   7.770   9.784 -0.2578 -1.8610 -0.0293
  644MOL0     H86879   9.877   7.539   9.745 -2.1994  1.5027  0.6751
  644MOL0     H86880  10.021   7.549   9.642 -0.3621 -0.4111  1.5799
  644MOL0     H86881   9.901   7.654   9.467 -3.8543  1.1146 -2.4388
  644MOL0     H86882   9.808   7.518   9.537 -1.3894  0.0822  0.7527
  644MOL0     H86883   9.681   7.675   9.689 -0.6877 -0.3417 -0.2740
  644MOL0     H86884   9.758   7.813   9.610  0.7316  1.4425 -0.6552
  644MOL0     H86885   9.570   7.617   9.449  2.2894  1.1655 -2.0364
  644MOL0     H86886   9.499   7.736   9.557 -0.9639 -4.5682  0.0744
  644MOL0     H86887   9.701   7.821   9.343 -0.0384  1.3352 -0.7465
  644MOL0     H86888   9.593   7.929   9.410 -0.3166  1.1397 -2.0724
  644MOL0     H86889   9.397   7.791   9.290 -0.1604  0.6755  0.1489
  644MOL0     H86890   9.517   7.867   9.183  0.5897  0.2658 -0.4682
  644MOL0     H86891   9.761   7.658   9.212  1.0853 -2.9577 -1.4486
  644MOL0     H86892   9.715   7.280   9.083  4.6368 -1.6990 -1.8215
  644MOL0     H86893   9.824   7.411   9.050 -0.0995 -0.9217 -1.7748
  644MOL0     H86894   9.916   7.276   9.234  1.6205  1.4183 -1.5505
  644MOL0     H86895   9.883   7.434   9.287  2.7427 -2.0345 -0.1178
  644MOL0     H86896   9.677   7.214   9.351  0.6953 -1.9000  2.3310
  644MOL0     H86897   9.697   7.380   9.413  1.9658  0.7680  0.6396
  644MOL0     H86898   9.777   7.225   9.576 -2.1193  1.1626 -1.4696
  644MOL0     H86899   9.905   7.334   9.512  1.2671 -0.6857 -0.0942
  644MOL0     H86900  10.077   6.982   9.331  1.1049 -1.4234  0.0511
  644MOL0     H86901  10.291   6.927   9.405 -2.2049  2.0351 -2.2152
  644MOL0     H86902  10.670   7.064   9.711  0.3304  1.7773  0.8388
  644MOL0     H86903  10.870   7.052   9.859  0.6621  1.3054  1.2776
  644MOL0     H86904  11.035   6.963   9.949  1.7376 -3.0841  0.0104
  644MOL0     H86905  10.996   7.091  10.064 -3.0587 -0.7562  0.3489
  644MOL0     H86906  11.134   6.978  10.235  2.5767 -1.5643 -0.6841
  644MOL0     H86907  11.117   6.825  10.153  1.6813 -0.4972  0.2827
  644MOL0     H86908  11.338   6.938  10.116  1.2339  0.4926 -0.1760
  644MOL0     H86909  11.242   6.915   9.970  2.0559  0.9451  0.3913
  644MOL0     H86910  11.263   7.174  10.145 -1.6896  1.1227 -1.0730
  644MOL0     H86911  11.200   7.157   9.975  1.0715 -1.9142 -2.1808
  644MOL0     H86912  11.409   7.077   9.901 -1.0457 -0.2380  0.9256
  644MOL0     H86913  11.489   7.136  10.055 -1.3286  0.5792  1.7925
  644MOL0     H86914  11.402   7.366  10.006  2.2483 -0.6892  0.5279
  644MOL0     H86915  11.535   7.320   9.914 -0.2593  5.0382  2.9757
  644MOL0     H86916  11.253   7.336   9.801  0.2906  3.1798  4.7070
  644MOL0     H86917  11.386   7.268   9.701  0.8508  2.3661 -1.1189
  644MOL0     H86918  11.342   7.514   9.669 -0.6204  0.5332  0.4738
  644MOL0     H86919  11.386   7.547   9.827  0.5120  0.5271 -0.1073
  644MOL0     H86920  10.643   6.862  10.171  3.8438  1.3498  0.9011
  644MOL0     H86921  10.437   6.904  10.040 -0.3920  1.9477  1.1624
  644MOL0     H86922  10.213   7.111   9.793 -1.9617 -3.4447  1.3563
  644MOL0     H86923  10.015   7.191   9.715  1.6613  0.4178  0.9441
  644MOL0     H86924  10.230   8.079   9.887  0.3973 -0.7687  0.0562
  644MOL0     H86925  10.447   8.141   9.967 -1.4838  0.3839  1.2506
  644MOL0     H86926  10.874   7.958  10.125 -0.4255  1.1012 -1.5196
  644MOL0     H86927  11.069   8.053  10.196  1.3584  0.4305  4.4666
  644MOL0     H86928  11.208   8.047  10.393  0.2944 -0.1528  0.3810
  644MOL0     H86929  11.258   8.196  10.480  0.2657  1.4160 -0.4145
  644MOL0     H86930  11.306   8.293  10.237 -0.6755 -0.1037 -1.7097
  644MOL0     H86931  11.230   8.154  10.169  0.9459 -1.1351 -0.7585
  644MOL0     H86932  11.405   8.012  10.248 -2.9439  0.6599 -1.7160
  644MOL0     H86933  11.481   8.122  10.361 -0.3003  0.4472 -0.3087
  644MOL0     H86934  11.636   8.102  10.174 -1.0288 -2.0806 -3.9235
  644MOL0     H86935  11.509   8.170  10.062  0.5183 -1.0976  0.1226
  644MOL0     H86936  11.642   8.509  10.280 -0.0937 -1.1359  3.5754
  644MOL0     H86937  10.869   8.317  10.463  3.0934 -0.9712  0.8722
  644MOL0     H86938  10.630   8.354  10.429  1.0157 -0.8502  1.2240
  644MOL0     H86939  10.536   8.250  10.322  0.3360 -5.7946 -1.2687
  644MOL0     H86940  10.559   8.204  10.493 -2.6396  1.4513 -0.5347
  645MOL0     O86941   2.144   8.755   5.788  0.4895  0.1181  0.6732
  645MOL0     C86942   2.153   8.785   5.667  0.8239  1.0249 -0.1878
  645MOL0     O86943   2.085   8.721   5.560 -0.1575  0.1167 -0.0123
  645MOL0     C86944   2.012   8.610   5.586  0.3435 -0.7927 -0.7643
  645MOL0     C86945   2.079   8.484   5.596  0.0241 -0.2657  0.6178
  645MOL0     C86946   2.001   8.365   5.587 -0.9609 -0.8734  0.7475
  645MOL0     C86947   1.863   8.369   5.601  0.0709  0.4583 -0.0775
  645MOL0     O86948   1.795   8.248   5.599 -0.5090 -0.1217  0.8689
  645MOL0     C86949   1.684   8.241   5.693  0.2732 -0.4569  0.3557
  645MOL0     C86950   1.736   8.257   5.830 -0.4425 -0.1526 -0.0352
  645MOL0     C86951   1.841   8.165   5.898  0.2583  0.0654 -0.0414
  645MOL0     C86952   1.823   8.194   6.046 -1.1125 -0.2686  0.1315
  645MOL0     C86953   1.938   8.127   6.130  0.2717 -0.0612 -0.5209
  645MOL0     C86954   1.917   8.148   6.285 -1.2442  0.3260  0.1742
  645MOL0     C86955   1.962   8.287   6.332 -0.0184  0.8076 -0.3457
  645MOL0     C86956   1.989   8.263   6.480 -0.7015  0.3637  0.7689
  645MOL0     N86957   2.132   8.268   6.516  0.1906  0.7585 -0.1469
  645MOL0     C86958   2.230   8.174   6.477 -0.0438  0.6755 -0.3651
  645MOL0     C86959   2.347   8.212   6.523  0.2249  1.2858  0.1374
  645MOL0     C86960   2.478   8.138   6.528  0.0950  0.3011  0.4052
  645MOL0     C86961   2.459   8.026   6.626  0.6379 -1.0992 -0.5776
  645MOL0     C86962   2.467   8.066   6.772 -1.0746 -1.1119  0.3594
  645MOL0     C86963   2.424   7.956   6.866  0.3426 -0.9050  0.2301
  645MOL0     O86964   2.531   7.860   6.869 -0.7007 -0.4058  0.6879
  645MOL0     C86965   2.628   7.859   6.964 -0.4698  0.7098  0.1242
  645MOL0     C86966   2.659   7.962   7.057  0.8075  0.0475  1.3704
  645MOL0     C86967   2.757   7.944   7.149 -0.4022  0.4351  0.1836
  645MOL0     C86968   2.836   7.830   7.152 -0.1169 -1.0602 -0.0389
  645MOL0     C86969   2.946   7.827   7.254  0.4228  0.3917 -0.2743
  645MOL0     O86970   2.985   7.941   7.310 -0.8353  0.3687 -0.5903
  645MOL0     C86971   3.087   7.951   7.403  1.4386  0.0164 -0.5681
  645MOL0     C86972   3.198   7.873   7.406  0.8411 -0.6212  0.0998
  645MOL0     C86973   3.300   7.882   7.496 -0.0659 -0.8882  0.2846
  645MOL0     C86974   3.302   7.988   7.585 -0.2536  1.3948 -0.3293
  645MOL0     O86975   3.402   7.996   7.675 -0.8300 -0.6416  0.1550
  645MOL0     C86976   3.466   8.122   7.687  0.6526  0.1277 -0.3012
  645MOL0     C86977   3.612   8.100   7.731 -0.1968 -0.4277  0.2026
  645MOL0     C86978   3.690   8.232   7.746  0.0368  0.1223  0.1597
  645MOL0     C86979   3.668   8.341   7.639  0.4835  0.6896 -0.5535
  645MOL0     C86980   3.732   8.476   7.697 -0.2861  0.0427  1.1121
  645MOL0     C86981   3.733   8.581   7.581 -0.4708  0.4924 -0.6592
  645MOL0     C86982   3.663   8.721   7.632 -0.4592  0.1050 -0.1680
  645MOL0     C86983   3.618   8.798   7.510 -0.0878  0.5381 -0.2046
  645MOL0    Cl86984   3.489   8.706   7.419  0.1758 -0.6023 -0.1785
  645MOL0     C86985   3.195   8.076   7.572 -0.1184 -0.0643 -0.3921
  645MOL0     C86986   3.083   8.066   7.488 -0.0249  0.6862 -0.4688
  645MOL0     O86987   2.994   7.710   7.275  0.2736  0.1007  0.2430
  645MOL0     C86988   2.806   7.729   7.047 -0.0692  0.0478  0.5160
  645MOL0     C86989   2.708   7.741   6.951  0.1534  0.2221  0.4870
  645MOL0     N86990   2.323   8.334   6.582  0.3761  0.9017  0.1507
  645MOL0     N86991   2.201   8.367   6.585 -0.0284 -0.0521 -0.3458
  645MOL0     C86992   1.800   8.490   5.578  0.5273 -0.8571 -0.7383
  645MOL0     C86993   1.874   8.613   5.570 -0.3981 -0.3042  0.7277
  645MOL0     C86994   2.230   8.901   5.635 -0.1507 -0.2586 -0.3701
  645MOL0     C86995   2.201   8.961   5.515  0.4915  0.9469 -0.0220
  645MOL0     C86996   2.286   9.054   5.456 -0.8762  0.5887  0.6478
  645MOL0     C86997   2.392   9.107   5.532  0.2346  0.2705 -0.6926
  645MOL0     O86998   2.455   9.214   5.486  0.7622 -0.2103 -0.2878
  645MOL0     C86999   2.577   9.260   5.545  0.0179 -0.1758 -0.5743
  645MOL0     C87000   2.649   9.359   5.459 -0.3082  0.8380 -0.0102
  645MOL0     C87001   2.704   9.299   5.323  1.0895 -0.6265 -0.9544
  645MOL0     C87002   2.803   9.188   5.342 -0.2646 -0.7616  0.2756
  645MOL0     C87003   2.922   9.245   5.410  0.8503 -0.1155  0.2041
  645MOL0     C87004   3.024   9.286   5.460 -0.5090 -0.0207  0.9898
  645MOL0     C87005   2.403   9.068   5.665 -0.2062 -0.5375 -0.7180
  645MOL0     C87006   2.335   8.959   5.715 -0.4379 -0.3206  0.4133
  645MOL0     C87007   2.368   8.904   5.862 -0.2727  0.2923  0.5245
  645MOL0     H87008   2.186   8.477   5.580 -0.3677 -3.0081 -1.5650
  645MOL0     H87009   2.052   8.272   5.566  1.7235  0.9293 -1.5538
  645MOL0     H87010   1.611   8.321   5.681  0.3345 -0.2918  1.0304
  645MOL0     H87011   1.631   8.146   5.683  0.8786 -0.6155 -1.9470
  645MOL0     H87012   1.654   8.273   5.900 -0.0364  0.8492  0.2348
  645MOL0     H87013   1.788   8.353   5.829 -0.8786  0.1017  1.0288
  645MOL0     H87014   1.938   8.171   5.848 -0.0556  0.3452 -0.6311
  645MOL0     H87015   1.817   8.059   5.888 -0.5438  0.3628 -1.4828
  645MOL0     H87016   1.825   8.302   6.063  1.3776 -0.5369  2.2644
  645MOL0     H87017   1.727   8.163   6.087 -0.8454  0.3872  1.2976
  645MOL0     H87018   1.934   8.022   6.099 -1.0585  0.3055 -1.6882
  645MOL0     H87019   2.038   8.156   6.098  0.4109 -2.4290 -2.4871
  645MOL0     H87020   1.814   8.126   6.313 -1.6457  2.4364  0.5481
  645MOL0     H87021   1.980   8.072   6.334 -2.0479  0.7271  1.8961
  645MOL0     H87022   1.883   8.360   6.312 -0.6947  0.8621  2.1580
  645MOL0     H87023   2.047   8.312   6.268  3.3111 -2.7999  2.2105
  645MOL0     H87024   1.938   8.340   6.538 -0.8394  1.0609 -0.2539
  645MOL0     H87025   1.962   8.165   6.520 -0.0306  0.7110  2.1444
  645MOL0     H87026   2.211   8.075   6.438  1.4666 -0.3559  1.3457
  645MOL0     H87027   2.504   8.093   6.431  2.1544  0.6046  0.7759
  645MOL0     H87028   2.568   8.195   6.552 -0.0001  0.7764 -0.3388
  645MOL0     H87029   2.364   7.976   6.608 -0.4718 -0.1865  2.2427
  645MOL0     H87030   2.542   7.954   6.617  1.2635 -0.5207  0.3654
  645MOL0     H87031   2.405   8.151   6.802  1.7596  0.2786  2.8414
  645MOL0     H87032   2.570   8.097   6.793 -0.3803 -2.0893 -1.4093
  645MOL0     H87033   2.336   7.906   6.824  1.7345 -2.7714 -0.5910
  645MOL0     H87034   2.396   7.996   6.964  2.3543  0.7079  0.2233
  645MOL0     H87035   2.610   8.060   7.051  0.9910  0.1768  1.9915
  645MOL0     H87036   2.785   8.020   7.221 -1.6144  0.1859  0.9383
  645MOL0     H87037   3.209   7.783   7.346  3.2920 -0.0412 -0.4020
  645MOL0     H87038   3.379   7.808   7.489  0.6816  0.0270 -1.9629
  645MOL0     H87039   3.463   8.178   7.593  4.3768  2.1638  0.5879
  645MOL0     H87040   3.411   8.174   7.766  0.4084 -1.0530  0.3263
  645MOL0     H87041   3.622   8.048   7.827  0.1622  0.7999  0.8414
  645MOL0     H87042   3.667   8.047   7.652  0.1568  2.8737 -1.9490
  645MOL0     H87043   3.663   8.271   7.845 -3.2609 -1.5942  0.0734
  645MOL0     H87044   3.795   8.202   7.741  0.0911  0.4694 -3.7253
  645MOL0     H87045   3.560   8.358   7.628  0.3463  0.5165  0.4764
  645MOL0     H87046   3.725   8.307   7.552  0.8328 -0.2204  0.0115
  645MOL0     H87047   3.837   8.466   7.725  0.0908 -0.8283 -0.5159
  645MOL0     H87048   3.664   8.506   7.777  0.8990 -0.9578  2.5597
  645MOL0     H87049   3.832   8.600   7.539  0.8774  1.2644  2.4930
  645MOL0     H87050   3.668   8.536   7.506 -0.9510 -0.3648  0.2374
  645MOL0     H87051   3.730   8.782   7.694 -1.6836 -0.5833  1.9479
  645MOL0     H87052   3.580   8.691   7.697  0.8537 -1.1853  0.9857
  645MOL0     H87053   3.576   8.893   7.543  1.2873  1.3588 -0.7439
  645MOL0     H87054   3.702   8.806   7.440 -0.4640 -4.4336 -1.6438
  645MOL0     H87055   3.212   8.163   7.634 -1.8912 -2.5757  4.0383
  645MOL0     H87056   3.006   8.143   7.496  1.4519  2.1488  0.3615
  645MOL0     H87057   2.880   7.650   7.036  3.5804  3.0022  1.7298
  645MOL0     H87058   2.693   7.675   6.867  0.5372 -0.4663  0.9531
  645MOL0     H87059   1.693   8.503   5.571  0.8698  2.1694 -1.8806
  645MOL0     H87060   1.827   8.709   5.552 -0.2169 -0.3355  0.0431
  645MOL0     H87061   2.117   8.919   5.462  1.3555 -0.0988 -0.6057
  645MOL0     H87062   2.265   9.103   5.361  0.9055 -0.1136 -0.1555
  645MOL0     H87063   2.641   9.180   5.583 -1.4988 -1.0538  0.2835
  645MOL0     H87064   2.555   9.333   5.624  4.1309  2.5994 -1.6957
  645MOL0     H87065   2.735   9.396   5.516  0.8961 -1.7122 -0.0138
  645MOL0     H87066   2.577   9.440   5.448 -0.2839  1.6535  4.0913
  645MOL0     H87067   2.734   9.375   5.251 -2.9916  2.0317 -0.1888
  645MOL0     H87068   2.614   9.260   5.276 -0.4618  2.8563 -1.1659
  645MOL0     H87069   2.752   9.112   5.403 -1.5094 -1.4911 -1.5980
  645MOL0     H87070   2.826   9.151   5.242  0.1559 -0.7835  0.3808
  645MOL0     H87071   3.104   9.345   5.501 -0.5653  0.9722 -0.2664
  645MOL0     H87072   2.465   9.125   5.733 -2.8826 -1.3657  2.6755
  645MOL0     H87073   2.277   8.936   5.914 -0.8861  3.4893 -2.1795
  645MOL0     H87074   2.366   8.795   5.852  1.4804  0.3897 -1.7889
  645MOL0     H87075   2.461   8.942   5.904  0.8019 -0.7247 -0.8495
  646MOL0     O87076   9.184   3.659  10.146  0.0060  0.6099 -0.2339
  646MOL0     C87077   9.175   3.538  10.170 -0.1023 -0.5089  0.7368
  646MOL0     O87078   9.274   3.460  10.217  0.0667 -0.0284 -0.7601
  646MOL0     C87079   9.379   3.516  10.280 -0.0270 -0.7383 -0.1615
  646MOL0     C87080   9.498   3.470  10.245 -0.1858  0.1228  0.1352
  646MOL0     C87081   9.611   3.516  10.312  0.0919  0.0337  0.0925
  646MOL0     C87082   9.600   3.617  10.408  0.5844 -0.3435  0.0174
  646MOL0     O87083   9.716   3.676  10.453 -0.2365 -0.9960  0.1866
  646MOL0     C87084   9.705   3.800  10.538 -0.3894  0.6210 -0.7118
  646MOL0     C87085   9.856   3.839  10.571  0.2162 -0.5701  0.4663
  646MOL0     C87086   9.931   3.749  10.661  0.0268  0.8017  1.0944
  646MOL0     C87087  10.069   3.806  10.699 -0.2917  1.1815 -0.3736
  646MOL0     C87088  10.162   3.682  10.751 -0.3865  0.4968  0.8649
  646MOL0     C87089  10.306   3.724  10.759 -0.3163 -0.4762  0.6224
  646MOL0     C87090  10.405   3.607  10.768 -0.1243  0.8092  0.3042
  646MOL0     C87091  10.396   3.524  10.898 -0.3533  0.6656  0.7081
  646MOL0     N87092  10.494   3.413  10.910  0.6111  0.8896  0.3956
  646MOL0     C87093  10.553   3.370  11.027  0.5282 -0.0333 -0.5334
  646MOL0     C87094  10.607   3.247  11.009 -0.4565  0.4315 -0.1557
  646MOL0     C87095  10.657   3.160  11.111  0.4532  0.6636 -0.7275
  646MOL0     C87096  10.787   3.216  11.175  0.5580 -0.2515  0.1986
  646MOL0     C87097  10.893   3.234  11.070  0.0097 -0.3231 -0.3087
  646MOL0     C87098  10.941   3.107  10.998  0.5122  0.2148  0.0181
  646MOL0     O87099  10.972   3.002  11.098  0.1029  0.0175  0.4673
  646MOL0     C87100  11.009   2.872  11.046  0.4630 -0.4314 -0.2401
  646MOL0     C87101  11.006   2.849  10.909 -0.4013  0.0438  0.5047
  646MOL0     C87102  11.046   2.731  10.853 -0.0283  0.4601 -0.1628
  646MOL0     C87103  11.081   2.623  10.939 -0.5518 -0.2084  0.7006
  646MOL0     C87104  11.112   2.489  10.882 -0.4481  0.4437 -0.3344
  646MOL0     O87105  11.089   2.466  10.751  0.1654 -0.5789 -0.4162
  646MOL0     C87106  11.166   2.379  10.679  0.1819  0.4370 -0.6755
  646MOL0     C87107  11.106   2.276  10.598  0.9037 -0.1579  0.9816
  646MOL0     C87108  11.185   2.166  10.557 -0.2794  0.0599 -0.6866
  646MOL0     C87109  11.320   2.166  10.584  0.0276  0.0164  0.7102
  646MOL0     O87110  11.399   2.062  10.541 -0.9356 -0.5195 -0.0003
  646MOL0     C87111  11.361   1.923  10.520  0.7191 -0.0961 -0.8660
  646MOL0     C87112  11.282   1.888  10.393 -0.4176  0.1743 -0.2146
  646MOL0     C87113  11.326   1.756  10.329 -0.2470  0.3730 -0.5855
  646MOL0     C87114  11.275   1.640  10.417 -0.4511  0.4465  0.2871
  646MOL0     C87115  11.336   1.508  10.371 -0.7940 -0.2294 -0.7387
  646MOL0     C87116  11.285   1.386  10.453  1.0484  0.0718  0.1437
  646MOL0     C87117  11.324   1.257  10.395  0.4062  0.2668  0.2695
  646MOL0     C87118  11.311   1.136  10.490 -0.1715 -0.9344 -1.1816
  646MOL0    Cl87119  11.320   0.988  10.406 -0.3200  0.1691 -0.6067
  646MOL0     C87120  11.383   2.271  10.650  0.1039 -0.4235 -0.4140
  646MOL0     C87121  11.299   2.373  10.711 -0.2509 -0.2343  0.2042
  646MOL0     O87122  11.160   2.408  10.959 -0.2055  0.5068  0.4291
  646MOL0     C87123  11.078   2.652  11.078 -0.8363 -0.4234 -0.3876
  646MOL0     C87124  11.052   2.777  11.133 -0.1655  0.0840  0.5908
  646MOL0     N87125  10.575   3.215  10.875 -0.0160 -1.1271  0.4410
  646MOL0     N87126  10.507   3.314  10.813 -0.6634 -0.5116  0.6164
  646MOL0     C87127   9.472   3.662  10.447 -0.6214  0.1742  0.2574
  646MOL0     C87128   9.360   3.609  10.386 -1.3338  0.1406 -0.1892
  646MOL0     C87129   9.045   3.475  10.128  0.7303 -0.0860  0.6050
  646MOL0     C87130   8.923   3.540  10.151 -0.1878 -0.0109  0.9381
  646MOL0     C87131   8.805   3.472  10.125  0.4233  0.7411 -0.1381
  646MOL0     C87132   8.803   3.335  10.084  0.4463  0.2683  0.0240
  646MOL0     O87133   8.679   3.270  10.087 -0.5466 -0.0112 -0.3974
  646MOL0     C87134   8.671   3.136  10.058 -0.4105  0.1488 -0.0904
  646MOL0     C87135   8.531   3.095  10.067  0.6975 -0.3038 -0.2813
  646MOL0     C87136   8.501   2.948  10.027  1.0458 -0.0034 -0.7659
  646MOL0     C87137   8.439   2.857  10.127  0.6244  1.2122  0.0144
  646MOL0     C87138   8.514   2.843  10.250 -0.2817  0.7551  0.2609
  646MOL0     C87139   8.574   2.833  10.353  1.0347 -0.1602  0.0371
  646MOL0     C87140   8.928   3.273  10.044 -0.1201  0.3577  0.7589
  646MOL0     C87141   9.048   3.350  10.064 -0.1534 -0.0691 -0.2520
  646MOL0     C87142   9.172   3.293  10.000 -0.0534  0.7190  0.4730
  646MOL0     H87143   9.503   3.396  10.165 -0.0248 -2.2947  2.2594
  646MOL0     H87144   9.704   3.488  10.264  0.4443  1.6306 -0.2336
  646MOL0     H87145   9.659   3.881  10.480  2.7022  2.0011 -1.4560
  646MOL0     H87146   9.644   3.794  10.628  1.8479  1.6765  0.9995
  646MOL0     H87147   9.855   3.942  10.608  0.9383  0.6108 -2.4977
  646MOL0     H87148   9.922   3.839  10.484 -1.8763 -2.0820 -1.2168
  646MOL0     H87149   9.955   3.658  10.605  1.1011  1.7475 -0.0284
  646MOL0     H87150   9.874   3.717  10.749 -0.0200 -0.0417  0.7678
  646MOL0     H87151  10.115   3.860  10.616 -1.9671  2.0689 -0.7624
  646MOL0     H87152  10.051   3.872  10.785 -2.3579 -2.1578  2.0329
  646MOL0     H87153  10.126   3.632  10.841 -3.5466 -0.6703 -0.8584
  646MOL0     H87154  10.161   3.599  10.680  0.3541  1.4908 -0.3594
  646MOL0     H87155  10.338   3.778  10.669  1.0781 -1.1699  0.6638
  646MOL0     H87156  10.313   3.795  10.842  2.9112  1.1786 -0.8838
  646MOL0     H87157  10.506   3.647  10.763 -0.1157  0.6898 -0.7157
  646MOL0     H87158  10.395   3.546  10.678  1.7607  0.3176  0.3856
  646MOL0     H87159  10.406   3.584  10.989 -2.0329  1.3225  0.4865
  646MOL0     H87160  10.297   3.479  10.896 -0.1669  0.2417  0.7769
  646MOL0     H87161  10.549   3.429  11.119 -0.2821 -2.3421  1.0072
  646MOL0     H87162  10.596   3.134  11.198 -1.1645 -1.2712 -2.3451
  646MOL0     H87163  10.685   3.066  11.063  0.2330 -0.1701  0.7306
  646MOL0     H87164  10.758   3.309  11.224  0.1591 -0.9315  1.2961
  646MOL0     H87165  10.818   3.141  11.248 -0.5965  0.1193  1.1095
  646MOL0     H87166  10.984   3.279  11.112 -0.9824 -0.7563  2.5241
  646MOL0     H87167  10.838   3.300  11.002  0.2676  1.6186  1.2624
  646MOL0     H87168  11.028   3.127  10.936 -0.0701 -1.9729 -1.6442
  646MOL0     H87169  10.860   3.072  10.933 -1.7920 -0.1608  2.8700
  646MOL0     H87170  10.971   2.918  10.832  0.8844 -1.7864 -1.8243
  646MOL0     H87171  11.053   2.719  10.746  2.0770  0.4579 -0.0552
  646MOL0     H87172  10.999   2.293  10.593  0.9789  0.8602  2.2831
  646MOL0     H87173  11.123   2.096  10.502  1.7009 -0.4403 -2.3799
  646MOL0     H87174  11.447   1.855  10.519  0.0978 -0.9644  0.6598
  646MOL0     H87175  11.304   1.894  10.609  2.5485 -1.3764 -0.0542
  646MOL0     H87176  11.180   1.875  10.429  0.6918 -2.3600  2.4302
  646MOL0     H87177  11.278   1.973  10.325  0.8930  2.2122  2.0961
  646MOL0     H87178  11.286   1.756  10.228 -0.9655 -0.1281 -0.3078
  646MOL0     H87179  11.434   1.740  10.326 -0.4701 -1.7287  0.7130
  646MOL0     H87180  11.173   1.630  10.379  0.4442  3.1633 -3.4894
  646MOL0     H87181  11.294   1.643  10.524 -0.5690  3.0396  0.2979
  646MOL0     H87182  11.445   1.510  10.380 -0.9507  0.9615  1.8375
  646MOL0     H87183  11.308   1.487  10.267  2.2371 -1.2032 -1.4528
  646MOL0     H87184  11.324   1.397  10.555  1.7850 -2.3239  0.1889
  646MOL0     H87185  11.177   1.399  10.464  0.7160 -0.0980 -2.2994
  646MOL0     H87186  11.431   1.257  10.372  0.3017 -0.4740 -0.2473
  646MOL0     H87187  11.257   1.245  10.310  2.3170 -0.2800 -1.2196
  646MOL0     H87188  11.378   1.131  10.576 -2.2405 -1.2060  0.5073
  646MOL0     H87189  11.209   1.139  10.530  0.8068  0.1213  1.3938
  646MOL0     H87190  11.486   2.258  10.683 -0.6393 -0.9777  1.8655
  646MOL0     H87191  11.342   2.439  10.784  1.5033  0.3667 -1.2942
  646MOL0     H87192  11.117   2.587  11.155  2.2867  1.2328 -0.3850
  646MOL0     H87193  11.064   2.791  11.240  4.6850 -0.7944  0.3743
  646MOL0     H87194   9.450   3.735  10.524 -0.8257 -0.1353  0.4970
  646MOL0     H87195   9.263   3.649  10.416 -1.8807 -1.1475 -0.1350
  646MOL0     H87196   8.927   3.646  10.170  4.1736 -0.2050  2.0163
  646MOL0     H87197   8.710   3.522  10.141  0.1645  0.0471  0.5858
  646MOL0     H87198   8.717   3.076  10.138 -2.6047  0.1484  1.2530
  646MOL0     H87199   8.717   3.112   9.962 -0.6237  0.2533 -0.2197
  646MOL0     H87200   8.470   3.156   9.999  2.1112 -0.6727 -1.9700
  646MOL0     H87201   8.495   3.115  10.168 -0.1474  0.5984 -0.7396
  646MOL0     H87202   8.590   2.900   9.986  1.1897  0.3964 -0.9325
  646MOL0     H87203   8.428   2.957   9.946 -2.2213 -1.5166  1.7931
  646MOL0     H87204   8.345   2.906  10.152  0.0093  0.3886 -0.6357
  646MOL0     H87205   8.420   2.759  10.082  1.2886  1.7470 -1.4965
  646MOL0     H87206   8.628   2.831  10.445 -1.8943  0.5201  1.9199
  646MOL0     H87207   8.922   3.171  10.009 -0.7946  0.4548  0.5941
  646MOL0     H87208   9.135   3.254   9.905  2.0771  4.0618 -1.9844
  646MOL0     H87209   9.255   3.356   9.966  0.1620 -0.3773 -1.1385
  646MOL0     H87210   9.200   3.208  10.062 -1.5422  1.9843  3.0496
  647MOL0     O87211   4.170  11.361   3.569 -0.5597  0.7613 -0.2089
  647MOL0     C87212   4.115  11.294   3.486  0.1368  0.1810  0.2096
  647MOL0     O87213   3.997  11.229   3.501  0.0810  0.1587 -0.5297
  647MOL0     C87214   3.952  11.200   3.633 -0.5543 -0.6851  1.4478
  647MOL0     C87215   3.955  11.068   3.682 -0.1542  0.0184  0.6680
  647MOL0     C87216   3.899  11.049   3.813 -0.0603 -0.9493 -0.1416
  647MOL0     C87217   3.847  11.154   3.890 -0.2368  0.4273  0.2423
  647MOL0     O87218   3.777  11.122   4.001  0.1810  0.0790 -1.0740
  647MOL0     C87219   3.641  11.082   3.986 -0.4254  0.0911 -0.3670
  647MOL0     C87220   3.574  11.100   4.126 -0.1442  0.5161  0.0525
  647MOL0     C87221   3.426  11.038   4.132  0.2549  0.4842  0.6500
  647MOL0     C87222   3.342  11.095   4.251  0.4955 -0.6248 -0.3634
  647MOL0     C87223   3.214  11.030   4.276  0.1774 -1.0832 -0.7947
  647MOL0     C87224   3.106  11.061   4.172 -0.2976  0.0789 -0.1018
  647MOL0     C87225   2.959  11.026   4.218 -0.2550  0.6652  0.4155
  647MOL0     C87226   2.953  10.904   4.306  0.0653 -0.1564  0.1268
  647MOL0     N87227   2.814  10.858   4.312 -0.3371 -0.2675  0.1546
  647MOL0     C87228   2.757  10.750   4.242  0.4133  0.4877  0.6888
  647MOL0     C87229   2.622  10.755   4.255 -0.1442 -0.0740  0.6813
  647MOL0     C87230   2.523  10.655   4.203  0.5253  1.3723 -0.4765
  647MOL0     C87231   2.512  10.533   4.295 -0.3533 -0.4333 -0.2574
  647MOL0     C87232   2.439  10.569   4.425  0.0021  0.0740  0.7131
  647MOL0     C87233   2.306  10.643   4.409  0.7889 -0.3509 -0.2039
  647MOL0     O87234   2.219  10.639   4.528 -0.3643 -0.2884  0.0679
  647MOL0     C87235   2.156  10.524   4.572 -0.2325  0.1094 -0.3820
  647MOL0     C87236   2.165  10.394   4.525  0.2532  0.3393  0.4628
  647MOL0     C87237   2.106  10.292   4.597  0.6399 -0.0140  0.3888
  647MOL0     C87238   2.020  10.314   4.705  0.3615  0.1409  0.0971
  647MOL0     C87239   1.976  10.207   4.795  0.4607  0.1182 -0.1039
  647MOL0     O87240   1.880  10.254   4.882 -0.1811  0.6442 -0.8993
  647MOL0     C87241   1.849  10.167   4.977  0.0402 -0.4873 -0.1823
  647MOL0     C87242   1.722  10.116   4.972 -0.3373 -0.7906  0.3817
  647MOL0     C87243   1.672  10.024   5.067  0.1088 -0.0423  0.6534
  647MOL0     C87244   1.748  10.001   5.182  0.4187  0.5280  0.0391
  647MOL0     O87245   1.681   9.921   5.276  0.3235 -0.5316 -0.5868
  647MOL0     C87246   1.740   9.909   5.404  0.2339  0.3868 -0.3609
  647MOL0     C87247   1.627   9.903   5.519  1.0124  0.0141 -1.0945
  647MOL0     C87248   1.567  10.041   5.526  0.1009  0.4480  0.1150
  647MOL0     C87249   1.507  10.066   5.665  0.1487 -0.1474 -0.2517
  647MOL0     C87250   1.412  10.187   5.662 -0.2110  0.5098  0.0250
  647MOL0     C87251   1.496  10.312   5.661 -0.7662 -0.3951 -0.5147
  647MOL0     C87252   1.411  10.444   5.680  0.1471  0.0829 -0.5962
  647MOL0     C87253   1.400  10.481   5.824 -0.9976 -0.5733  0.4601
  647MOL0    Cl87254   1.563  10.484   5.906 -0.1753 -0.0116 -0.3509
  647MOL0     C87255   1.875  10.059   5.188  0.4052  0.2313  0.5515
  647MOL0     C87256   1.922  10.145   5.087 -1.0411 -1.1981 -0.5818
  647MOL0     O87257   2.026  10.096   4.793 -0.0633  0.2435 -0.0978
  647MOL0     C87258   2.020  10.447   4.750 -0.7343  0.0326 -0.7223
  647MOL0     C87259   2.081  10.551   4.682  0.2830  0.3911 -0.0679
  647MOL0     N87260   2.600  10.874   4.321  0.6005  0.0816  0.6637
  647MOL0     N87261   2.714  10.933   4.354  0.3089  0.4045  0.0677
  647MOL0     C87262   3.838  11.283   3.834 -0.2691 -0.7788  0.1644
  647MOL0     C87263   3.899  11.309   3.709 -0.5356 -0.4889 -0.0129
  647MOL0     C87264   4.155  11.304   3.343 -0.5139  0.0040 -0.5804
  647MOL0     C87265   4.225  11.418   3.299  0.8808  0.6425  0.3125
  647MOL0     C87266   4.245  11.444   3.166  0.8911  0.6332 -0.0681
  647MOL0     C87267   4.198  11.353   3.072 -0.3769 -0.0086  0.1924
  647MOL0     O87268   4.224  11.364   2.943 -0.9527  1.4612 -0.1584
  647MOL0     C87269   4.327  11.447   2.886  0.1475 -0.8723 -0.2084
  647MOL0     C87270   4.391  11.365   2.773 -0.6524  0.1186  0.4339
  647MOL0     C87271   4.472  11.237   2.815  0.6674  0.0635  0.3068
  647MOL0     C87272   4.540  11.165   2.690  0.3760  0.1726  0.7847
  647MOL0     C87273   4.447  11.129   2.580 -0.4514 -0.7632 -0.1449
  647MOL0     C87274   4.364  11.083   2.508  0.8439  0.6178  0.0850
  647MOL0     C87275   4.146  11.236   3.112  0.2515  1.1372 -0.2263
  647MOL0     C87276   4.115  11.207   3.246 -0.6442 -0.8025 -0.2853
  647MOL0     C87277   4.056  11.081   3.272 -0.4586 -0.4325 -0.0292
  647MOL0     H87278   4.008  10.988   3.631  2.5195  2.6606 -1.0805
  647MOL0     H87279   3.919  10.951   3.855  4.9642 -0.6315 -1.1307
  647MOL0     H87280   3.585  11.119   3.899  3.8121  0.9729 -2.9755
  647MOL0     H87281   3.670  10.980   3.959  5.0753  1.3559 -0.3995
  647MOL0     H87282   3.573  11.206   4.153  0.2634 -0.3309  3.9499
  647MOL0     H87283   3.631  11.036   4.193 -0.5644  1.4519  1.3460
  647MOL0     H87284   3.425  10.929   4.136 -0.1376  0.2523 -2.6557
  647MOL0     H87285   3.372  11.060   4.039 -1.2969 -1.7078  0.9543
  647MOL0     H87286   3.406  11.095   4.341  2.0513  1.1606 -1.3911
  647MOL0     H87287   3.337  11.204   4.238 -4.2261 -0.4221  1.3342
  647MOL0     H87288   3.223  10.926   4.307 -2.6535 -1.8879 -2.2490
  647MOL0     H87289   3.178  11.065   4.373  0.6942 -1.9401 -0.2839
  647MOL0     H87290   3.107  11.161   4.127 -5.0119 -0.2938 -1.5688
  647MOL0     H87291   3.127  10.987   4.094  0.2981 -0.9897  1.0435
  647MOL0     H87292   2.899  11.013   4.127  1.4066 -1.3047 -0.4891
  647MOL0     H87293   2.919  11.119   4.260 -0.5396 -0.4240  2.6889
  647MOL0     H87294   3.008  10.819   4.265  0.2325 -1.1471  2.2567
  647MOL0     H87295   2.985  10.948   4.402  0.0153  0.5815 -0.1892
  647MOL0     H87296   2.807  10.674   4.184 -2.2279 -2.1270  1.5868
  647MOL0     H87297   2.424  10.689   4.172  0.3790 -1.0827 -3.1631
  647MOL0     H87298   2.571  10.630   4.107  2.7426 -1.4445  1.2055
  647MOL0     H87299   2.467  10.445   4.248 -0.5106 -1.9765  2.5490
  647MOL0     H87300   2.612  10.498   4.319 -0.9791 -1.2452  1.3808
  647MOL0     H87301   2.515  10.614   4.490 -0.7308  0.9568  0.9701
  647MOL0     H87302   2.413  10.478   4.479 -2.5225  2.1607  3.2919
  647MOL0     H87303   2.244  10.617   4.323  1.7011  0.0079 -0.9893
  647MOL0     H87304   2.315  10.749   4.383 -4.4495  0.2390 -0.7352
  647MOL0     H87305   2.219  10.365   4.435 -2.3394 -6.2057  0.4049
  647MOL0     H87306   2.113  10.191   4.558 -0.4921 -1.2295  3.1172
  647MOL0     H87307   1.652  10.149   4.895 -0.7291 -0.7069  0.7715
  647MOL0     H87308   1.570   9.989   5.074 -0.3753  1.0070 -0.5352
  647MOL0     H87309   1.786   9.810   5.402  1.3042  0.6294  3.5456
  647MOL0     H87310   1.813   9.989   5.420  1.2083 -0.3484 -1.0077
  647MOL0     H87311   1.547   9.829   5.506  0.0567  1.0630 -1.2926
  647MOL0     H87312   1.681   9.879   5.611  0.2818 -0.8123 -0.8652
  647MOL0     H87313   1.634  10.127   5.520 -1.2862  1.8636  2.9846
  647MOL0     H87314   1.487  10.043   5.452  0.1918 -1.3477 -0.0810
  647MOL0     H87315   1.578  10.070   5.748 -0.4075  1.9766  0.1862
  647MOL0     H87316   1.446   9.980   5.694 -0.9360  0.4662 -0.6864
  647MOL0     H87317   1.346  10.189   5.749 -1.6349  0.9884 -1.0367
  647MOL0     H87318   1.349  10.191   5.573 -0.6817  1.4602  0.3903
  647MOL0     H87319   1.572  10.304   5.740 -1.4102 -4.2439 -0.0478
  647MOL0     H87320   1.557  10.318   5.570  0.0511 -0.4023  0.0173
  647MOL0     H87321   1.314  10.431   5.632 -1.4766 -0.7936  2.6398
  647MOL0     H87322   1.466  10.528   5.636 -1.9443  1.6177 -0.4049
  647MOL0     H87323   1.354  10.579   5.838  1.4748  1.1089 -2.1156
  647MOL0     H87324   1.340  10.410   5.881 -2.4183 -0.7989 -1.2178
  647MOL0     H87325   1.932  10.042   5.279 -1.3558  0.2996  1.7301
  647MOL0     H87326   2.019  10.193   5.094  1.7273 -6.2596  1.7854
  647MOL0     H87327   1.994  10.472   4.853  3.8087 -1.6445  1.1013
  647MOL0     H87328   2.078  10.653   4.718 -2.3912 -0.5432  2.7725
  647MOL0     H87329   3.775  11.350   3.892 -2.1730 -0.0302 -2.5660
  647MOL0     H87330   3.894  11.408   3.665 -1.1359 -1.7396 -2.9810
  647MOL0     H87331   4.263  11.497   3.364  1.1884  0.5713  0.2166
  647MOL0     H87332   4.291  11.536   3.128  2.0892  0.2612  0.4146
  647MOL0     H87333   4.406  11.482   2.953  1.1978 -2.4549 -0.5549
  647MOL0     H87334   4.283  11.539   2.845  1.2284 -0.1127  0.2796
  647MOL0     H87335   4.470  11.419   2.719  1.9090 -2.4246  1.4312
  647MOL0     H87336   4.306  11.348   2.706 -0.3507  0.7592 -0.1288
  647MOL0     H87337   4.404  11.169   2.867 -1.6989  2.2272  0.2952
  647MOL0     H87338   4.549  11.275   2.883  0.9178 -1.5930  0.9853
  647MOL0     H87339   4.615  11.234   2.649  1.0452 -1.0017 -0.0371
  647MOL0     H87340   4.596  11.077   2.723  1.5401 -0.4677 -2.4565
  647MOL0     H87341   4.301  11.037   2.434 -1.2256  1.0009  1.5399
  647MOL0     H87342   4.113  11.171   3.031  3.7650  0.6082 -1.4005
  647MOL0     H87343   3.950  11.089   3.297  0.0181  2.0700  1.5786
  647MOL0     H87344   4.066  11.016   3.184 -0.2652  1.0332 -1.1238
  647MOL0     H87345   4.106  11.035   3.358  0.7932 -1.0606 -1.0566
  648MOL0     O87346   7.386   1.467   9.722  0.4226  0.2774 -0.4887
  648MOL0     C87347   7.344   1.409   9.824 -0.5917 -0.0922  0.9934
  648MOL0     O87348   7.415   1.346   9.920 -0.5731  0.0043  0.5867
  648MOL0     C87349   7.551   1.345   9.902 -0.4452  0.4546 -0.3704
  648MOL0     C87350   7.620   1.330   9.781 -0.0516 -0.8615  0.2802
  648MOL0     C87351   7.763   1.334   9.776  0.4450  0.0106  0.4012
  648MOL0     C87352   7.839   1.347   9.887  0.6571  0.2869 -0.5054
  648MOL0     O87353   7.972   1.334   9.873 -0.0217  0.4369 -0.1515
  648MOL0     C87354   8.046   1.438   9.941  0.5100  0.3919  0.0835
  648MOL0     C87355   8.181   1.470   9.864  1.2030 -0.5087 -0.7780
  648MOL0     C87356   8.256   1.342   9.841  0.5837 -0.6658  0.5537
  648MOL0     C87357   8.395   1.379   9.833 -1.1442 -0.3171  0.0282
  648MOL0     C87358   8.472   1.253   9.796  0.0675 -0.4395 -1.1261
  648MOL0     C87359   8.617   1.299   9.769  0.2155 -0.7773 -1.2552
  648MOL0     C87360   8.625   1.337   9.620  0.2455  0.8837 -0.4066
  648MOL0     C87361   8.767   1.361   9.585  0.0262 -0.6952  0.0584
  648MOL0     N87362   8.850   1.239   9.567  0.3749 -0.2895  0.3422
  648MOL0     C87363   8.835   1.149   9.460 -0.2233 -0.4801 -0.2357
  648MOL0     C87364   8.938   1.068   9.485  0.0855  0.8054  0.1491
  648MOL0     C87365   8.970   0.948   9.408  0.6136 -0.5907  0.1099
  648MOL0     C87366   9.117   0.895   9.412 -0.6693 -0.6029 -1.3078
  648MOL0     C87367   9.213   0.979   9.317  0.9002 -0.2678 -0.3928
  648MOL0     C87368   9.362   0.955   9.360 -0.6283  0.0203  0.9978
  648MOL0     O87369   9.434   1.044   9.274 -0.2945 -0.7695 -0.7027
  648MOL0     C87370   9.568   1.004   9.261  1.2319 -0.4771  0.8078
  648MOL0     C87371   9.648   0.955   9.356  0.5502  0.3002 -0.7120
  648MOL0     C87372   9.779   0.930   9.336 -0.8191 -0.2334 -0.1055
  648MOL0     C87373   9.846   0.967   9.218  0.1530 -0.1685  0.8022
  648MOL0     C87374   9.971   0.916   9.179 -0.4426  0.8798 -0.0609
  648MOL0     O87375  10.043   0.863   9.284 -0.0168 -0.1941  0.3165
  648MOL0     C87376  10.172   0.814   9.273  0.2570 -0.7812  0.3863
  648MOL0     C87377  10.265   0.858   9.175 -0.3114  0.2172  0.6187
  648MOL0     C87378  10.389   0.803   9.168 -0.4107 -0.3577  0.3463
  648MOL0     C87379  10.428   0.695   9.260 -0.5552 -0.6158 -0.6470
  648MOL0     O87380  10.548   0.633   9.245  0.0823  0.7349 -0.4386
  648MOL0     C87381  10.627   0.636   9.127  0.1038 -0.1777  0.1039
  648MOL0     C87382  10.710   0.502   9.148 -0.0104 -0.3820  0.5215
  648MOL0     C87383  10.788   0.491   9.010 -0.1982 -0.7706 -0.3926
  648MOL0     C87384  10.916   0.413   9.020 -0.5920 -0.9163 -0.5969
  648MOL0     C87385  10.993   0.368   8.892 -0.1379  0.1648  0.5675
  648MOL0     C87386  11.062   0.492   8.825  0.6640 -0.5031  0.8931
  648MOL0     C87387  11.170   0.550   8.912  0.0451 -0.0878  0.2301
  648MOL0     C87388  11.281   0.617   8.823 -0.4068  0.3985  0.4076
  648MOL0    Cl87389  11.447   0.615   8.894 -0.1459 -0.2046  0.2769
  648MOL0     C87390  10.342   0.662   9.362 -0.4641  0.0309 -0.5936
  648MOL0     C87391  10.216   0.716   9.366  0.7443 -0.7272 -0.5848
  648MOL0     O87392  10.001   0.913   9.056  0.9404  0.5068  0.4319
  648MOL0     C87393   9.762   1.032   9.112  0.2320  0.1282  0.0867
  648MOL0     C87394   9.622   1.054   9.143 -0.3396  0.2530 -0.0380
  648MOL0     N87395   9.013   1.104   9.590  0.7485 -0.7398  0.7957
  648MOL0     N87396   8.959   1.204   9.646  0.6175  0.4057  0.1748
  648MOL0     C87397   7.772   1.369  10.008  0.7652 -0.1629 -0.2753
  648MOL0     C87398   7.628   1.365  10.021  0.5235 -0.3935 -0.3450
  648MOL0     C87399   7.201   1.442   9.862  0.3739 -0.4446 -0.1328
  648MOL0     C87400   7.139   1.537   9.777  0.2590  0.0303  0.0460
  648MOL0     C87401   7.009   1.577   9.796 -0.1004  0.1924  0.5097
  648MOL0     C87402   6.936   1.525   9.904 -0.1734  0.7059 -0.3671
  648MOL0     O87403   6.806   1.578   9.903 -0.5937  0.6096 -0.5366
  648MOL0     C87404   6.701   1.513   9.972  0.0692 -1.1762  0.9777
  648MOL0     C87405   6.661   1.583  10.103 -0.0108  0.4830  0.0441
  648MOL0     C87406   6.764   1.576  10.214  1.0759  0.4569 -0.3172
  648MOL0     C87407   6.722   1.486  10.334 -0.2451 -0.1338 -0.2096
  648MOL0     C87408   6.724   1.344  10.298 -1.1278  0.1172 -0.0929
  648MOL0     C87409   6.726   1.227  10.275 -0.0217 -0.5038  0.8485
  648MOL0     C87410   6.986   1.419   9.987  0.0068  0.3144  0.5873
  648MOL0     C87411   7.120   1.385   9.968 -0.4516 -0.1005 -0.9854
  648MOL0     C87412   7.166   1.267  10.046  0.2481 -0.6100  0.2393
  648MOL0     H87413   7.570   1.305   9.688 -1.3049 -0.3061  0.7849
  648MOL0     H87414   7.811   1.330   9.679  0.7446 -1.3836  0.5847
  648MOL0     H87415   7.991   1.532   9.950  1.4382  1.1477 -1.6360
  648MOL0     H87416   8.060   1.397  10.041 -2.2179  0.8779  0.7538
  648MOL0     H87417   8.240   1.544   9.919  0.2715 -0.0928 -0.3094
  648MOL0     H87418   8.160   1.517   9.768  0.3004  0.7296  0.0015
  648MOL0     H87419   8.228   1.293   9.748 -0.6478  1.5455 -0.3206
  648MOL0     H87420   8.262   1.276   9.928  1.3131 -3.1265 -1.2613
  648MOL0     H87421   8.417   1.451   9.753  0.9852  1.5828  2.1251
  648MOL0     H87422   8.427   1.421   9.929  2.1816  0.8667 -1.4243
  648MOL0     H87423   8.473   1.190   9.885  4.6137  2.4686  1.2641
  648MOL0     H87424   8.430   1.194   9.715 -1.7212  0.1682 -0.6882
  648MOL0     H87425   8.641   1.387   9.830 -3.7350  0.6480 -1.4888
  648MOL0     H87426   8.680   1.212   9.793 -1.1749 -2.0983 -2.2135
  648MOL0     H87427   8.572   1.433   9.617  0.2897  0.9183 -0.1314
  648MOL0     H87428   8.589   1.260   9.551  3.6138 -2.0514  0.8300
  648MOL0     H87429   8.767   1.408   9.487  0.9009  2.9892  1.6475
  648MOL0     H87430   8.814   1.441   9.644 -0.4878  2.2941 -3.2599
  648MOL0     H87431   8.757   1.152   9.386 -0.7699 -0.3069  0.3405
  648MOL0     H87432   8.907   0.864   9.439  0.6961 -0.6621  0.0894
  648MOL0     H87433   8.951   0.968   9.302  2.2129 -0.5579 -0.2042
  648MOL0     H87434   9.159   0.897   9.513 -4.2344  2.8426  0.3898
  648MOL0     H87435   9.109   0.790   9.382 -4.3747 -1.1824  0.9963
  648MOL0     H87436   9.186   1.085   9.311  2.6729  0.1616 -1.6963
  648MOL0     H87437   9.208   0.939   9.215 -2.2297  1.1515 -0.8930
  648MOL0     H87438   9.386   0.851   9.336 -2.4947 -0.2838  0.2267
  648MOL0     H87439   9.370   0.984   9.465 -1.9614  0.6673  0.9417
  648MOL0     H87440   9.615   0.937   9.458  2.0230  1.7218  0.0510
  648MOL0     H87441   9.840   0.877   9.409 -0.1160  1.9305  0.9704
  648MOL0     H87442  10.225   0.932   9.106 -2.4432 -0.8437  0.6253
  648MOL0     H87443  10.465   0.830   9.096  0.5641 -3.2724  0.1540
  648MOL0     H87444  10.561   0.629   9.039  1.1878 -1.3513 -0.6607
  648MOL0     H87445  10.694   0.722   9.128 -0.2480  0.1015 -0.1780
  648MOL0     H87446  10.766   0.510   9.242 -1.1640 -0.3385  1.2247
  648MOL0     H87447  10.636   0.424   9.166 -2.0785  1.3508 -0.0963
  648MOL0     H87448  10.717   0.455   8.934 -2.5142 -0.4215  1.4877
  648MOL0     H87449  10.826   0.586   8.970  0.4747 -1.3833 -1.2398
  648MOL0     H87450  10.878   0.320   9.064 -2.1825 -1.9009 -3.7021
  648MOL0     H87451  10.985   0.457   9.092 -0.1153 -2.1542 -0.2624
  648MOL0     H87452  10.933   0.312   8.819 -0.5651  1.2476  0.0766
  648MOL0     H87453  11.069   0.298   8.928  2.1118  2.3936  0.3446
  648MOL0     H87454  11.088   0.469   8.721  0.8615  5.3688 -0.6786
  648MOL0     H87455  10.987   0.570   8.824 -0.8682 -1.7636  4.3225
  648MOL0     H87456  11.209   0.465   8.970 -2.1545 -1.8427 -0.6919
  648MOL0     H87457  11.131   0.623   8.984 -2.3570  0.2714 -1.2912
  648MOL0     H87458  11.281   0.564   8.727  1.3036 -0.4658  0.8547
  648MOL0     H87459  11.257   0.723   8.808 -0.6278  0.3195  0.1792
  648MOL0     H87460  10.364   0.581   9.431 -0.3194  0.9197  0.4204
  648MOL0     H87461  10.147   0.696   9.447  0.8816  0.7944 -0.0668
  648MOL0     H87462   9.808   1.046   9.015  0.6416  1.6039  0.4646
  648MOL0     H87463   9.551   1.107   9.080 -4.0388 -1.8623  2.0099
  648MOL0     H87464   7.838   1.368  10.094 -1.0979 -1.5808  1.2289
  648MOL0     H87465   7.584   1.371  10.120 -2.4722  1.3816 -1.6573
  648MOL0     H87466   7.177   1.610   9.706 -2.2337  1.7995  0.4123
  648MOL0     H87467   6.969   1.653   9.729  1.9798  1.1199  0.2495
  648MOL0     H87468   6.718   1.405   9.981  1.0076 -0.8618  5.1641
  648MOL0     H87469   6.609   1.526   9.914  0.3699 -0.6924  0.5973
  648MOL0     H87470   6.568   1.539  10.139 -0.1188 -0.9135 -1.8064
  648MOL0     H87471   6.646   1.690  10.091  1.7878  0.6307 -1.3795
  648MOL0     H87472   6.790   1.676  10.250  1.2034  0.2969  0.0405
  648MOL0     H87473   6.853   1.524  10.176  2.9814  2.5006  1.0349
  648MOL0     H87474   6.794   1.508  10.413 -0.7304 -0.8588  0.4541
  648MOL0     H87475   6.622   1.515  10.368 -0.0991  0.7751 -0.5378
  648MOL0     H87476   6.730   1.121  10.269  2.3341 -0.7636  4.2290
  648MOL0     H87477   6.924   1.370  10.061  1.4558 -1.2195  0.8532
  648MOL0     H87478   7.090   1.219  10.109  2.1981 -1.4273  2.1245
  648MOL0     H87479   7.193   1.185   9.979 -0.1102 -1.0062  0.5691
  648MOL0     H87480   7.255   1.298  10.101  0.3606  0.8595 -0.7142
  649MOL0     O87481   9.834   4.205   2.099  0.3434 -0.2235 -0.2895
  649MOL0     C87482   9.772   4.104   2.060  0.0310 -0.0177  0.2002
  649MOL0     O87483   9.647   4.096   1.994  0.2337 -0.0781 -0.5264
  649MOL0     C87484   9.563   4.204   2.002  0.8124  0.2562  0.0783
  649MOL0     C87485   9.471   4.207   1.899 -0.0795  0.6028 -0.1039
  649MOL0     C87486   9.365   4.305   1.894 -0.6064 -0.0969  0.2844
  649MOL0     C87487   9.370   4.409   1.987 -0.0190  0.0558  0.0295
  649MOL0     O87488   9.280   4.510   1.968 -0.4543  0.2277  0.4280
  649MOL0     C87489   9.324   4.647   1.976  0.4879 -0.5507 -0.4194
  649MOL0     C87490   9.253   4.734   1.872 -0.1544 -0.3547  0.1001
  649MOL0     C87491   9.299   4.878   1.860 -0.4508 -0.4353 -0.0222
  649MOL0     C87492   9.447   4.888   1.831  1.6292 -0.3426 -0.3874
  649MOL0     C87493   9.489   5.029   1.792  0.3021  0.0166 -0.2055
  649MOL0     C87494   9.487   5.131   1.908  0.3419 -0.6011 -0.6205
  649MOL0     C87495   9.504   5.273   1.854  0.3884 -0.0148  0.5509
  649MOL0     C87496   9.446   5.392   1.934 -0.1033 -0.1816 -0.4173
  649MOL0     N87497   9.438   5.519   1.854  0.0570 -0.0093 -0.5076
  649MOL0     C87498   9.359   5.529   1.740  0.6373 -0.7962  0.5014
  649MOL0     C87499   9.353   5.659   1.722  0.2415 -0.5299 -0.0952
  649MOL0     C87500   9.294   5.718   1.588 -0.1753  0.2373  0.1318
  649MOL0     C87501   9.417   5.749   1.499 -0.4192  0.1235  0.0600
  649MOL0     C87502   9.379   5.803   1.363  0.0728 -0.0301 -0.2604
  649MOL0     C87503   9.279   5.716   1.272  0.2066  1.1435  0.4002
  649MOL0     O87504   9.332   5.580   1.255 -0.7490  0.1102  0.4991
  649MOL0     C87505   9.440   5.560   1.177  0.6983  0.1545  0.0214
  649MOL0     C87506   9.494   5.648   1.084  0.0611  0.4446 -0.4668
  649MOL0     C87507   9.608   5.603   1.013 -0.9321  0.4770  0.2544
  649MOL0     C87508   9.670   5.482   1.054  0.0481  0.0272  0.2490
  649MOL0     C87509   9.798   5.448   0.981  0.5498 -0.6289 -0.1306
  649MOL0     O87510   9.875   5.551   0.933  0.6364  0.0533 -0.1733
  649MOL0     C87511  10.008   5.531   0.916 -0.2835  0.2708 -0.8509
  649MOL0     C87512  10.066   5.473   0.808  0.1671 -0.3571 -0.0408
  649MOL0     C87513  10.210   5.472   0.804 -0.0188  0.4039  0.7539
  649MOL0     C87514  10.289   5.507   0.911  0.3023  0.7747 -0.3690
  649MOL0     O87515  10.426   5.491   0.919  0.2027  0.0452  0.0081
  649MOL0     C87516  10.519   5.585   0.871  1.1541 -0.6676  1.2405
  649MOL0     C87517  10.546   5.692   0.978  0.0106 -1.0016 -0.7229
  649MOL0     C87518  10.612   5.636   1.111  0.1297 -0.1070  0.5341
  649MOL0     C87519  10.663   5.747   1.202 -0.3032  0.5026 -0.1744
  649MOL0     C87520  10.782   5.712   1.286 -0.9916  0.0220 -0.2178
  649MOL0     C87521  10.772   5.581   1.364 -0.3285  0.3365 -1.0757
  649MOL0     C87522  10.880   5.572   1.468 -0.0765 -0.5997 -0.3793
  649MOL0     C87523  10.845   5.488   1.594 -0.0683 -0.2660 -0.0246
  649MOL0    Cl87524  10.696   5.525   1.672 -0.1782  0.2235  0.2455
  649MOL0     C87525  10.222   5.544   1.029 -0.3714 -0.2228 -0.4169
  649MOL0     C87526  10.082   5.568   1.033 -0.9012  0.1008 -0.3463
  649MOL0     O87527   9.829   5.331   0.993  0.3639 -0.1009 -0.2735
  649MOL0     C87528   9.614   5.399   1.153 -0.1532 -0.7322  0.2718
  649MOL0     C87529   9.497   5.435   1.205  0.6264  0.2002 -0.4141
  649MOL0     N87530   9.414   5.732   1.827  0.1499 -0.3633 -1.8470
  649MOL0     N87531   9.456   5.643   1.914 -0.2045  0.5805 -0.0014
  649MOL0     C87532   9.457   4.409   2.094  0.0777  0.1264  0.4652
  649MOL0     C87533   9.553   4.299   2.105  0.6355 -0.1113 -0.5970
  649MOL0     C87534   9.842   3.976   2.069  0.1100  0.6129 -0.3062
  649MOL0     C87535   9.978   3.975   2.059  0.2142 -0.0012 -0.2016
  649MOL0     C87536  10.060   3.860   2.072 -0.6920 -0.0297  0.2572
  649MOL0     C87537  10.011   3.735   2.097 -0.5651  0.2674  0.2308
  649MOL0     O87538  10.109   3.635   2.118  0.3906  0.3749  0.4065
  649MOL0     C87539  10.075   3.514   2.191 -0.1060  0.8181 -0.1074
  649MOL0     C87540  10.189   3.473   2.289  0.9640 -0.4868 -0.5316
  649MOL0     C87541  10.240   3.594   2.369 -1.1077  0.6090  0.0780
  649MOL0     C87542  10.337   3.535   2.478  0.3376  0.9616 -0.8410
  649MOL0     C87543  10.387   3.641   2.560 -0.3766 -0.1233 -0.6958
  649MOL0     C87544  10.426   3.721   2.636 -0.5563  0.7763 -1.0619
  649MOL0     C87545   9.869   3.730   2.108 -0.1518  0.8185 -0.7019
  649MOL0     C87546   9.787   3.847   2.098  0.0189 -0.0620 -1.1286
  649MOL0     C87547   9.642   3.817   2.126  1.0088 -0.1648  0.1647
  649MOL0     H87548   9.473   4.130   1.822 -1.0367 -1.7229  2.0645
  649MOL0     H87549   9.280   4.296   1.826 -0.1644 -0.4816 -0.2264
  649MOL0     H87550   9.323   4.685   2.078  1.0791 -3.7449  0.8942
  649MOL0     H87551   9.432   4.655   1.960  0.9400  0.6239  2.6015
  649MOL0     H87552   9.147   4.713   1.887  0.1498 -2.1212 -0.0593
  649MOL0     H87553   9.276   4.688   1.775 -2.5969  1.9593 -1.7517
  649MOL0     H87554   9.288   4.926   1.958 -2.6314 -3.7916  1.5838
  649MOL0     H87555   9.236   4.926   1.785  0.4038 -0.8612 -1.0454
  649MOL0     H87556   9.504   4.859   1.919  0.2478 -1.6116  0.1305
  649MOL0     H87557   9.475   4.823   1.748  1.9989 -0.3464 -0.2608
  649MOL0     H87558   9.590   5.033   1.750  0.4837  1.2068  0.2968
  649MOL0     H87559   9.421   5.082   1.726  1.3030  1.6934  0.0608
  649MOL0     H87560   9.392   5.120   1.962 -1.2300 -3.0614 -3.6127
  649MOL0     H87561   9.561   5.111   1.986  0.6020  0.1822 -0.6554
  649MOL0     H87562   9.461   5.281   1.754 -0.5300 -0.9235  0.8584
  649MOL0     H87563   9.612   5.292   1.847  0.2326  0.6714 -0.0369
  649MOL0     H87564   9.343   5.365   1.962 -0.4367 -1.9103 -2.9565
  649MOL0     H87565   9.506   5.388   2.025  0.5818  0.1531 -0.8444
  649MOL0     H87566   9.338   5.448   1.671  0.4187 -1.5091  1.3750
  649MOL0     H87567   9.222   5.646   1.546  1.5145 -0.5730 -1.5177
  649MOL0     H87568   9.239   5.809   1.614 -0.9941  0.2609 -1.5591
  649MOL0     H87569   9.488   5.819   1.545 -0.5369 -0.8928  1.8771
  649MOL0     H87570   9.464   5.652   1.480 -1.6737 -1.3075  3.4721
  649MOL0     H87571   9.467   5.835   1.307 -1.4571  4.4377 -0.4960
  649MOL0     H87572   9.323   5.894   1.388 -1.9252 -1.1542 -0.4481
  649MOL0     H87573   9.260   5.767   1.177  0.8455  1.8326  0.6250
  649MOL0     H87574   9.183   5.705   1.322  0.5737 -2.0906  0.5690
  649MOL0     H87575   9.459   5.748   1.061  0.8796  0.5975 -1.1018
  649MOL0     H87576   9.654   5.667   0.937 -1.0479 -1.2324 -1.3145
  649MOL0     H87577  10.000   5.441   0.728 -0.5997  0.3979  0.2752
  649MOL0     H87578  10.262   5.429   0.719 -2.4880  1.7104 -1.5876
  649MOL0     H87579  10.613   5.540   0.834  0.6698 -0.4442 -0.3666
  649MOL0     H87580  10.468   5.630   0.785  1.0066  2.0096  2.6515
  649MOL0     H87581  10.617   5.766   0.940 -0.3590 -0.7853 -0.9912
  649MOL0     H87582  10.454   5.743   1.006  0.9892  0.1157  0.6615
  649MOL0     H87583  10.532   5.584   1.164  2.1727 -4.8377 -0.5415
  649MOL0     H87584  10.684   5.563   1.073  0.4897  0.3570  0.3151
  649MOL0     H87585  10.581   5.769   1.270 -1.3522 -0.0579 -1.2208
  649MOL0     H87586  10.680   5.836   1.140 -1.9847  0.3512 -0.9026
  649MOL0     H87587  10.796   5.797   1.353  0.3092 -0.3502  0.0183
  649MOL0     H87588  10.867   5.709   1.217 -2.4126 -0.9372 -2.0358
  649MOL0     H87589  10.683   5.588   1.426  1.6497  0.0150  1.9886
  649MOL0     H87590  10.775   5.496   1.295 -0.5369  0.9271 -1.8260
  649MOL0     H87591  10.905   5.673   1.503 -2.9542  0.4296 -1.0189
  649MOL0     H87592  10.967   5.525   1.421  1.0017  0.2075  0.7393
  649MOL0     H87593  10.851   5.381   1.570  2.5569 -0.1090 -0.3697
  649MOL0     H87594  10.931   5.500   1.660 -0.2306 -2.0863  0.5758
  649MOL0     H87595  10.283   5.578   1.112  0.9111 -1.1000 -0.9656
  649MOL0     H87596  10.043   5.625   1.117 -2.9941  1.3975 -2.0885
  649MOL0     H87597   9.677   5.318   1.188 -0.3953 -1.1709 -0.3165
  649MOL0     H87598   9.445   5.385   1.287  1.1344 -0.7891 -0.6779
  649MOL0     H87599   9.453   4.493   2.162  1.2128  1.3022 -0.8451
  649MOL0     H87600   9.617   4.308   2.192 -0.3627  0.6137  0.0862
  649MOL0     H87601  10.040   4.061   2.035  0.6223 -0.2728 -0.1313
  649MOL0     H87602  10.167   3.867   2.056 -1.0292 -0.0304 -2.4279
  649MOL0     H87603  10.078   3.428   2.124  1.4724  1.1058 -0.4406
  649MOL0     H87604   9.983   3.522   2.250 -1.4730  4.6412 -2.4568
  649MOL0     H87605  10.272   3.446   2.223 -0.2411  3.4932 -4.0929
  649MOL0     H87606  10.161   3.387   2.350 -0.3271  1.9249  2.5215
  649MOL0     H87607  10.155   3.625   2.431 -0.7597 -0.3144  1.0632
  649MOL0     H87608  10.283   3.680   2.316 -1.6580  0.2002 -1.0685
  649MOL0     H87609  10.279   3.475   2.549  0.7767 -0.5158 -1.6941
  649MOL0     H87610  10.422   3.474   2.446  0.4683  1.2565 -1.0636
  649MOL0     H87611  10.455   3.799   2.703 -0.9679 -0.6948  0.9203
  649MOL0     H87612   9.821   3.637   2.138  1.1393  1.0917  2.5154
  649MOL0     H87613   9.621   3.738   2.200 -2.5661 -0.0562 -0.5743
  649MOL0     H87614   9.590   3.900   2.174 -0.4871  0.7278 -2.7859
  649MOL0     H87615   9.596   3.778   2.034 -1.4047 -1.0017  1.6147
  650MOL0     O87616  10.289   9.787   1.447 -0.2582  0.2770  0.8167
  650MOL0     C87617  10.188   9.724   1.459 -0.2009  0.7496 -0.0169
  650MOL0     O87618  10.185   9.580   1.437  0.5928  0.0143  0.0827
  650MOL0     C87619  10.302   9.524   1.391 -0.0711 -0.1641 -0.7247
  650MOL0     C87620  10.332   9.520   1.260 -0.2617  0.0948 -0.2447
  650MOL0     C87621  10.450   9.460   1.213  0.5003  0.3613 -0.0451
  650MOL0     C87622  10.536   9.397   1.308  0.1679 -0.3118  0.0133
  650MOL0     O87623  10.655   9.347   1.266 -0.3250  0.8640  0.1698
  650MOL0     C87624  10.671   9.294   1.138  0.5715 -0.4521  0.8771
  650MOL0     C87625  10.732   9.148   1.128  0.4110 -0.5161 -0.0158
  650MOL0     C87626  10.634   9.043   1.175  1.2815 -0.8944 -0.8549
  650MOL0     C87627  10.698   8.901   1.131  0.3465  0.0539 -0.5297
  650MOL0     C87628  10.591   8.792   1.115  0.3078 -0.5347 -0.3800
  650MOL0     C87629  10.650   8.653   1.124 -0.2669 -0.1833  0.4616
  650MOL0     C87630  10.743   8.621   1.004 -0.2485  0.0058 -0.0876
  650MOL0     C87631  10.699   8.614   0.856 -0.4614  0.0906  0.2606
  650MOL0     N87632  10.729   8.740   0.794 -0.0939  0.1451  0.6279
  650MOL0     C87633  10.846   8.798   0.803  0.1248  0.9735  0.1855
  650MOL0     C87634  10.834   8.914   0.735  0.5508  0.6017 -0.1932
  650MOL0     C87635  10.934   9.017   0.698  0.1611 -0.5926  0.1214
  650MOL0     C87636  11.028   9.063   0.804 -0.0606  0.5172  0.2984
  650MOL0     C87637  11.130   9.181   0.767 -0.7501 -0.5916 -0.2870
  650MOL0     C87638  11.271   9.159   0.814 -0.9066  1.0181 -0.0735
  650MOL0     O87639  11.347   9.264   0.764  0.2254  0.1001  0.1398
  650MOL0     C87640  11.463   9.306   0.815 -0.2634  1.0233  1.0127
  650MOL0     C87641  11.545   9.228   0.902 -0.5051  0.2187 -0.4893
  650MOL0     C87642  11.680   9.276   0.935  0.0935 -0.3740 -0.6243
  650MOL0     C87643  11.719   9.404   0.883 -0.7808  0.5179  0.9821
  650MOL0     C87644  11.853   9.460   0.917 -1.0254  0.3458 -0.2020
  650MOL0     O87645  11.888   9.577   0.852  0.7509  0.4071 -0.2537
  650MOL0     C87646  11.998   9.630   0.906  0.0443 -0.6303  1.6068
  650MOL0     C87647  11.999   9.697   1.029  0.7986  0.3528 -0.9631
  650MOL0     C87648  12.114   9.750   1.078  0.6510 -0.7844 -0.1940
  650MOL0     C87649  12.239   9.724   1.014  0.2464  0.2348 -0.7580
  650MOL0     O87650  12.354   9.764   1.082  0.4411  0.9331  0.2954
  650MOL0     C87651  12.479   9.753   1.017  0.1834  0.4888  0.0168
  650MOL0     C87652  12.573   9.827   1.106 -0.8608 -0.5677 -0.1893
  650MOL0     C87653  12.725   9.808   1.063  0.5204  0.1979 -0.2822
  650MOL0     C87654  12.815   9.920   1.125 -0.7662 -0.6482 -0.3821
  650MOL0     C87655  12.791   9.937   1.276  0.6609 -0.9396  0.3789
  650MOL0     C87656  12.840  10.066   1.339  0.0444 -0.2963 -0.5407
  650MOL0     C87657  12.837  10.048   1.489 -0.5225  0.7609 -0.2080
  650MOL0     C87658  12.912  10.161   1.564  1.2257  1.0754  0.4283
  650MOL0    Cl87659  13.081  10.169   1.508 -0.0562 -0.4016  0.2103
  650MOL0     C87660  12.241   9.654   0.899  0.0216 -0.5765  0.0571
  650MOL0     C87661  12.123   9.606   0.843  0.1177  0.5488 -0.0016
  650MOL0     O87662  11.913   9.412   1.011  0.5027  0.6731  0.1383
  650MOL0     C87663  11.636   9.475   0.801  0.4916 -0.8448 -0.0593
  650MOL0     C87664  11.511   9.420   0.759  0.2823 -0.2037 -1.0064
  650MOL0     N87665  10.703   8.933   0.692  0.0811  0.7210 -0.0913
  650MOL0     N87666  10.644   8.825   0.726 -0.7771  0.3763  0.6340
  650MOL0     C87667  10.502   9.404   1.442 -1.1795 -0.4120 -1.7613
  650MOL0     C87668  10.388   9.471   1.487 -0.1375  0.0854 -0.4385
  650MOL0     C87669  10.056   9.788   1.481  0.0507  0.1101  0.4726
  650MOL0     C87670   9.949   9.703   1.504 -0.9898 -0.4992  0.0584
  650MOL0     C87671   9.828   9.756   1.545  0.0711  0.9401  1.0088
  650MOL0     C87672   9.805   9.891   1.550  0.9498  0.5077 -0.3320
  650MOL0     O87673   9.687   9.950   1.581 -0.6602 -0.6836 -0.0093
  650MOL0     C87674   9.553   9.889   1.580 -0.3755 -0.7855 -0.6233
  650MOL0     C87675   9.502   9.857   1.717 -1.0418 -0.8559 -0.6244
  650MOL0     C87676   9.518   9.978   1.819 -0.5475  0.2314  0.1696
  650MOL0     C87677   9.612   9.946   1.946  0.0008 -0.0059  0.1286
  650MOL0     C87678   9.756   9.933   1.917  0.5115 -0.1095  0.8033
  650MOL0     C87679   9.876   9.950   1.887 -0.6883  0.6003 -0.5847
  650MOL0     C87680   9.910   9.978   1.511  0.3536  1.2099  0.1626
  650MOL0     C87681  10.041   9.933   1.484  0.1896  0.0802  0.0115
  650MOL0     C87682  10.151  10.033   1.458  0.0971 -0.2892 -0.1218
  650MOL0     H87683  10.265   9.573   1.193  1.1119  0.1842 -1.5881
  650MOL0     H87684  10.464   9.481   1.107 -1.4126  2.1432 -0.0288
  650MOL0     H87685  10.578   9.290   1.081  1.1421 -0.4446 -0.0857
  650MOL0     H87686  10.732   9.359   1.074 -0.2855 -1.0406 -0.5939
  650MOL0     H87687  10.821   9.139   1.191 -0.1363 -1.1650  0.6733
  650MOL0     H87688  10.756   9.128   1.023 -2.0616  0.5146 -0.8422
  650MOL0     H87689  10.536   9.056   1.127  1.5356 -1.8525 -1.6702
  650MOL0     H87690  10.611   9.039   1.282 -0.6182 -3.1514 -1.2661
  650MOL0     H87691  10.765   8.906   1.046 -0.9119 -2.7189 -1.8021
  650MOL0     H87692  10.773   8.870   1.205  1.3322  0.5107 -1.3157
  650MOL0     H87693  10.526   8.808   1.201  2.0169  2.3940  0.5287
  650MOL0     H87694  10.543   8.803   1.018  0.3341  0.7998 -0.2659
  650MOL0     H87695  10.711   8.639   1.214 -0.4878 -1.3545  0.4391
  650MOL0     H87696  10.570   8.579   1.122 -0.3122 -0.1272 -0.1598
  650MOL0     H87697  10.783   8.521   1.019  0.1633  0.3187  1.0254
  650MOL0     H87698  10.835   8.676   1.028  1.3503 -2.6463  0.1847
  650MOL0     H87699  10.754   8.531   0.810  0.4307  1.1468 -0.6174
  650MOL0     H87700  10.593   8.587   0.849 -0.3547  0.1015 -2.2055
  650MOL0     H87701  10.935   8.743   0.834 -1.7383 -2.9116 -0.6892
  650MOL0     H87702  10.982   8.975   0.610  0.6845 -2.3162  1.1742
  650MOL0     H87703  10.887   9.107   0.657  0.6624  1.0083  2.7634
  650MOL0     H87704  10.973   9.109   0.887  1.1261  2.5032  0.0617
  650MOL0     H87705  11.088   8.978   0.837  0.4744  1.1475  0.9779
  650MOL0     H87706  11.093   9.274   0.811  0.2822  0.2336 -1.1181
  650MOL0     H87707  11.137   9.209   0.662 -1.0711  3.7949  0.6600
  650MOL0     H87708  11.310   9.067   0.769  0.0492  1.4877 -0.2392
  650MOL0     H87709  11.276   9.148   0.923  0.8715  0.0925 -0.2086
  650MOL0     H87710  11.507   9.140   0.954 -1.1147  0.9610  0.3572
  650MOL0     H87711  11.755   9.226   0.995  0.7095  1.9432  0.6613
  650MOL0     H87712  11.900   9.713   1.069  1.2239  3.1563 -0.8172
  650MOL0     H87713  12.104   9.794   1.177 -0.1461  1.6619 -1.2918
  650MOL0     H87714  12.509   9.649   1.009  0.2337  0.5476 -0.5531
  650MOL0     H87715  12.466   9.800   0.919  0.5549 -0.8304 -0.6907
  650MOL0     H87716  12.558   9.934   1.095  3.6246  0.1815 -0.8795
  650MOL0     H87717  12.553   9.797   1.210  2.0745  1.7615  1.2007
  650MOL0     H87718  12.768   9.711   1.091  4.2331  1.4912 -0.8321
  650MOL0     H87719  12.752   9.811   0.957  0.9293 -0.4650 -0.2048
  650MOL0     H87720  12.795  10.020   1.084 -2.1816  0.8561  3.5050
  650MOL0     H87721  12.919   9.899   1.096  0.5330  1.6350  2.1444
  650MOL0     H87722  12.844   9.859   1.332 -0.3636 -1.3682  0.7708
  650MOL0     H87723  12.685   9.929   1.301  0.7594  1.0558  1.6338
  650MOL0     H87724  12.941  10.096   1.309  0.4283  2.6452  3.0010
  650MOL0     H87725  12.786  10.152   1.299 -0.7625 -1.1185 -1.2635
  650MOL0     H87726  12.892   9.956   1.508 -1.6615 -0.2589 -1.7101
  650MOL0     H87727  12.733  10.036   1.520 -0.2645  0.6461  0.6625
  650MOL0     H87728  12.870  10.256   1.530  1.0804  0.2206 -1.9829
  650MOL0     H87729  12.886  10.156   1.670 -0.9828  0.3721 -0.0953
  650MOL0     H87730  12.325   9.620   0.840 -1.0945 -1.2873 -1.1785
  650MOL0     H87731  12.140   9.549   0.752  2.1093  0.4391  0.3819
  650MOL0     H87732  11.666   9.569   0.756  0.4830 -0.7356  0.1589
  650MOL0     H87733  11.452   9.472   0.684 -1.0415  0.2185  0.2849
  650MOL0     H87734  10.572   9.362   1.513 -1.9851 -2.1923 -1.9602
  650MOL0     H87735  10.354   9.480   1.590 -1.6488  2.5616 -1.0747
  650MOL0     H87736   9.966   9.596   1.496  1.9555 -0.3269  2.3484
  650MOL0     H87737   9.739   9.696   1.562 -0.5557  1.7611  0.7283
  650MOL0     H87738   9.548   9.801   1.516  1.0091  1.3784 -4.0319
  650MOL0     H87739   9.488   9.965   1.535  1.4484  0.9475 -0.4964
  650MOL0     H87740   9.554   9.768   1.753  0.5525 -0.0380 -0.8159
  650MOL0     H87741   9.396   9.833   1.713 -1.0384 -0.9015 -4.4542
  650MOL0     H87742   9.416   9.999   1.854 -0.4822  1.8971 -0.5364
  650MOL0     H87743   9.554  10.061   1.757  0.2692 -2.2638 -2.9429
  650MOL0     H87744   9.602  10.027   2.018 -1.5899  1.5549 -1.7160
  650MOL0     H87745   9.577   9.857   2.000  0.9871  0.8928  2.3670
  650MOL0     H87746   9.975   9.967   1.849 -1.0700  0.3743 -1.7193
  650MOL0     H87747   9.906  10.086   1.520 -2.1656  1.1746  0.1880
  650MOL0     H87748  10.195  10.004   1.362  3.1508 -0.7340  1.2834
  650MOL0     H87749  10.114  10.136   1.453  2.1001  0.5911  1.6418
  650MOL0     H87750  10.227  10.029   1.536 -0.8075  0.9089  0.8711
  651MOL0     O87751   0.556   9.820   3.752 -0.2947 -0.0113  0.0334
  651MOL0     C87752   0.460   9.773   3.817 -0.2445  0.1683 -0.9783
  651MOL0     O87753   0.344   9.844   3.848 -0.2422 -0.5751  0.2658
  651MOL0     C87754   0.331   9.981   3.817  0.2583  0.6127  0.4513
  651MOL0     C87755   0.240  10.032   3.735  0.9661  0.7528  0.9423
  651MOL0     C87756   0.218  10.168   3.722  0.2587 -0.0452  0.7554
  651MOL0     C87757   0.292  10.259   3.798  0.0177 -0.4928 -0.1156
  651MOL0     O87758   0.293  10.392   3.763  0.4160 -0.8875  0.3080
  651MOL0     C87759   0.223  10.451   3.653  0.3944 -0.0940  0.9616
  651MOL0     C87760   0.238  10.594   3.683 -0.1077  0.2480 -0.7937
  651MOL0     C87761   0.208  10.701   3.572 -0.6914 -0.1329 -0.4004
  651MOL0     C87762   0.074  10.773   3.583  0.3075  0.4398 -0.3928
  651MOL0     C87763   0.034  10.831   3.447 -1.0788 -0.1749  0.5860
  651MOL0     C87764   0.132  10.945   3.410  0.7779 -0.5867 -0.5836
  651MOL0     C87765   0.106  11.065   3.496 -0.0621  0.4664  0.4165
  651MOL0     C87766   0.180  11.189   3.456 -0.5779  0.2196 -0.2081
  651MOL0     N87767   0.326  11.171   3.453 -0.6641  0.0486  0.4681
  651MOL0     C87768   0.400  11.187   3.339 -0.4371  0.5555 -0.1316
  651MOL0     C87769   0.523  11.153   3.388  0.0221  0.5253 -0.1176
  651MOL0     C87770   0.649  11.134   3.309  0.2394 -0.7642  0.1269
  651MOL0     C87771   0.711  11.271   3.296 -1.1599 -0.2988 -0.0909
  651MOL0     C87772   0.863  11.252   3.252  0.2853 -0.2492  0.5969
  651MOL0     C87773   0.924  11.377   3.208  0.2726 -0.1056 -0.9699
  651MOL0     O87774   0.972  11.458   3.328  0.2977  1.0255  0.4535
  651MOL0     C87775   1.038  11.569   3.302 -0.1666 -0.5120 -0.8042
  651MOL0     C87776   1.046  11.636   3.174 -0.6923  0.1816  0.6533
  651MOL0     C87777   1.119  11.753   3.160  0.5952  0.8264  0.4809
  651MOL0     C87778   1.178  11.813   3.276 -0.1847 -0.7340  0.3019
  651MOL0     C87779   1.226  11.955   3.269 -1.0367  0.4084  0.1129
  651MOL0     O87780   1.240  12.014   3.155  0.5450  0.5236  0.8906
  651MOL0     C87781   1.308  12.130   3.133  0.3700  0.0869  0.2173
  651MOL0     C87782   1.237  12.236   3.099  0.5912 -0.2983  1.1202
  651MOL0     C87783   1.293  12.355   3.071 -0.8821 -0.7192 -0.0619
  651MOL0     C87784   1.433  12.375   3.073 -0.6896  0.9097  0.2187
  651MOL0     O87785   1.491  12.500   3.047  0.4114  0.5763 -1.0063
  651MOL0     C87786   1.424  12.622   3.086  0.6981 -0.3207  0.5701
  651MOL0     C87787   1.502  12.678   3.209  0.1934  0.4950  0.7439
  651MOL0     C87788   1.424  12.797   3.274 -0.6563  0.3649 -0.9156
  651MOL0     C87789   1.484  12.827   3.407  0.1423 -0.0822  0.3756
  651MOL0     C87790   1.399  12.929   3.490 -1.1949  0.0381  0.4021
  651MOL0     C87791   1.490  12.959   3.616  0.2549  0.1643 -0.2445
  651MOL0     C87792   1.439  13.082   3.700  0.5449 -0.0206 -0.6074
  651MOL0     C87793   1.501  13.208   3.639  0.1721  0.1464 -0.1305
  651MOL0    Cl87794   1.384  13.302   3.537 -0.4527  0.2368  0.2283
  651MOL0     C87795   1.521  12.256   3.100 -0.2977  0.1507 -0.1838
  651MOL0     C87796   1.451  12.133   3.129 -0.4284 -0.9516  0.0905
  651MOL0     O87797   1.241  12.022   3.381 -0.0822  0.6952 -0.5886
  651MOL0     C87798   1.180  11.734   3.398 -0.0487 -0.6493 -0.4774
  651MOL0     C87799   1.102  11.616   3.415 -0.6687  0.2500  0.0099
  651MOL0     N87800   0.516  11.111   3.520  0.4224  0.1027 -0.5266
  651MOL0     N87801   0.393  11.121   3.557  0.0193  0.9585  0.2872
  651MOL0     C87802   0.394  10.211   3.881  0.3191 -0.5609  0.0475
  651MOL0     C87803   0.406  10.068   3.889 -0.5560 -0.1352 -0.6072
  651MOL0     C87804   0.472   9.625   3.872  1.1160  0.6541 -0.2286
  651MOL0     C87805   0.462   9.610   4.013  0.3884  0.4243  0.8103
  651MOL0     C87806   0.482   9.482   4.071 -0.6628  0.0100 -0.0650
  651MOL0     C87807   0.515   9.364   3.995  0.2945 -0.2755  0.5044
  651MOL0     O87808   0.550   9.244   4.048 -0.1771  0.3213 -0.3420
  651MOL0     C87809   0.590   9.231   4.188  0.4908  0.5171  0.7198
  651MOL0     C87810   0.637   9.092   4.218  0.9143  0.3869 -0.3897
  651MOL0     C87811   0.724   9.094   4.344 -0.0533 -0.9279 -0.4859
  651MOL0     C87812   0.690   8.964   4.416 -0.2983  0.2826 -0.3355
  651MOL0     C87813   0.774   8.933   4.526  0.5545 -0.0319 -0.2619
  651MOL0     C87814   0.862   8.898   4.601 -0.2658 -0.5183 -0.1118
  651MOL0     C87815   0.514   9.387   3.863  0.0749 -0.8921 -0.1548
  651MOL0     C87816   0.500   9.507   3.796  1.0602  0.9871  0.7241
  651MOL0     C87817   0.516   9.511   3.651  0.8064 -0.6374 -0.5710
  651MOL0     H87818   0.175   9.967   3.677  2.2269  0.8224 -0.6223
  651MOL0     H87819   0.147  10.197   3.645  0.6165  0.0436  0.4555
  651MOL0     H87820   0.262  10.432   3.553  0.3857  1.5509  0.6208
  651MOL0     H87821   0.121  10.413   3.665  1.0310 -1.5489  2.0179
  651MOL0     H87822   0.329  10.625   3.735 -0.6030  2.1156 -0.9534
  651MOL0     H87823   0.167  10.622   3.762  0.9608 -2.0363  1.1051
  651MOL0     H87824   0.217  10.656   3.473 -1.6717 -2.9946  0.7255
  651MOL0     H87825   0.279  10.783   3.588  0.6167 -1.2729 -0.1750
  651MOL0     H87826  -0.001  10.694   3.598  1.8587 -0.6986  1.9390
  651MOL0     H87827   0.065  10.843   3.666 -3.2653  0.9566 -1.0620
  651MOL0     H87828   0.039  10.757   3.367 -2.2329 -0.4557  0.7590
  651MOL0     H87829  -0.071  10.859   3.446 -1.5989 -2.0272  0.4531
  651MOL0     H87830   0.237  10.919   3.426  1.1073  1.2015  0.4504
  651MOL0     H87831   0.112  10.962   3.304 -0.5694 -1.1997 -0.4461
  651MOL0     H87832   0.135  11.044   3.600  1.3559  1.3764  0.2267
  651MOL0     H87833  -0.000  11.089   3.500  0.0229  0.8960  0.0754
  651MOL0     H87834   0.144  11.205   3.354  0.9341  1.2340 -0.6184
  651MOL0     H87835   0.158  11.285   3.505  0.3787  0.7498 -0.7944
  651MOL0     H87836   0.371  11.228   3.243 -1.1514  2.6507  0.9209
  651MOL0     H87837   0.705  11.052   3.353 -0.8389 -2.2425 -1.1493
  651MOL0     H87838   0.624  11.121   3.203 -0.0117  1.5495 -0.1620
  651MOL0     H87839   0.664  11.332   3.217  0.4003  0.8784 -0.1541
  651MOL0     H87840   0.704  11.323   3.392 -0.8054  0.3653 -0.4137
  651MOL0     H87841   0.862  11.170   3.180  0.1111 -1.1405  1.5957
  651MOL0     H87842   0.913  11.219   3.343 -0.1056  2.3250  1.8600
  651MOL0     H87843   0.848  11.437   3.157 -1.3285  0.0690  1.4450
  651MOL0     H87844   1.009  11.354   3.143  0.4755 -1.1896 -0.3461
  651MOL0     H87845   1.005  11.594   3.083 -3.0053 -2.2753  2.6491
  651MOL0     H87846   1.108  11.818   3.074 -0.9464  0.2532  0.2181
  651MOL0     H87847   1.129  12.231   3.090  0.3432  1.2993  2.6044
  651MOL0     H87848   1.229  12.439   3.047 -0.7641 -0.9597 -1.2931
  651MOL0     H87849   1.414  12.693   3.003 -0.6334 -1.0347  0.0875
  651MOL0     H87850   1.321  12.609   3.123  0.6835  0.7508  0.9560
  651MOL0     H87851   1.525  12.599   3.280  2.2774  0.2801 -0.0899
  651MOL0     H87852   1.602  12.711   3.179  0.8132 -2.5760 -1.0019
  651MOL0     H87853   1.429  12.889   3.214 -2.4305  3.1815  2.8145
  651MOL0     H87854   1.324  12.764   3.300 -0.4259  0.8762  0.7431
  651MOL0     H87855   1.586  12.859   3.384 -0.1876  0.3374 -0.5963
  651MOL0     H87856   1.494  12.740   3.471  2.1947 -1.5685 -1.7869
  651MOL0     H87857   1.299  12.892   3.514 -0.1092 -3.7087 -0.1286
  651MOL0     H87858   1.386  13.004   3.413  3.2918  0.6587 -0.0151
  651MOL0     H87859   1.473  12.876   3.685  0.5762 -0.0399 -0.4108
  651MOL0     H87860   1.594  12.980   3.590  0.3974  2.5998  1.8954
  651MOL0     H87861   1.495  13.081   3.794  0.2282  1.8193 -0.3620
  651MOL0     H87862   1.330  13.085   3.708  0.7142  2.0727  2.1290
  651MOL0     H87863   1.527  13.271   3.724 -0.7763 -0.4552  0.6223
  651MOL0     H87864   1.594  13.191   3.584  0.0601  0.0469 -0.2879
  651MOL0     H87865   1.628  12.246   3.093 -0.5086 -2.2431 -0.7311
  651MOL0     H87866   1.519  12.052   3.152 -0.4455 -1.5288 -1.7336
  651MOL0     H87867   1.219  11.762   3.496 -3.7248  1.8655  0.4952
  651MOL0     H87868   1.095  11.566   3.511  2.6892 -0.0147  0.2193
  651MOL0     H87869   0.455  10.283   3.934 -0.8576  0.1692  0.4480
  651MOL0     H87870   0.484  10.026   3.953  0.8358  0.8744 -1.5726
  651MOL0     H87871   0.440   9.694   4.078  0.4686  1.4407 -0.4462
  651MOL0     H87872   0.470   9.468   4.178  0.2391  1.3098  0.2249
  651MOL0     H87873   0.509   9.258   4.256  0.2012  0.4388  0.4072
  651MOL0     H87874   0.667   9.306   4.209  3.8182 -2.2123 -0.7922
  651MOL0     H87875   0.696   9.058   4.132  1.8575  0.3274  0.2681
  651MOL0     H87876   0.554   9.021   4.223  0.8929  0.4331 -0.0772
  651MOL0     H87877   0.717   9.178   4.414 -0.9131 -1.2697 -0.1459
  651MOL0     H87878   0.833   9.099   4.333  0.2143  1.6989  2.1503
  651MOL0     H87879   0.586   8.973   4.447 -0.0743  0.1038  0.5001
  651MOL0     H87880   0.706   8.878   4.349  0.1699  1.5359 -1.8921
  651MOL0     H87881   0.949   8.887   4.663 -1.3198  0.1841  1.5717
  651MOL0     H87882   0.542   9.305   3.797 -0.4460 -0.3659 -1.0461
  651MOL0     H87883   0.565   9.603   3.618 -0.9409 -0.5932 -3.2876
  651MOL0     H87884   0.578   9.431   3.610 -0.4625 -2.5520  1.0897
  651MOL0     H87885   0.417   9.516   3.606  0.7696 -1.1613 -0.5485
  652MOL0     O87886   3.335   4.709   6.942  0.3280  0.5076  0.3191
  652MOL0     C87887   3.373   4.726   7.059 -0.3990  0.5397 -0.8915
  652MOL0     O87888   3.303   4.750   7.173  0.0834 -0.0588  0.2341
  652MOL0     C87889   3.168   4.767   7.165  0.2065 -0.2303 -0.6004
  652MOL0     C87890   3.083   4.684   7.088 -0.3018 -0.2271 -0.7309
  652MOL0     C87891   2.946   4.704   7.081  1.2726  0.3518 -0.2325
  652MOL0     C87892   2.888   4.801   7.160 -0.4380 -0.6288  0.2672
  652MOL0     O87893   2.757   4.816   7.140 -0.3767 -0.1852  0.3011
  652MOL0     C87894   2.691   4.957   7.140  0.8717  0.2765 -0.9319
  652MOL0     C87895   2.698   5.012   7.006 -0.7536  0.0678 -0.2781
  652MOL0     C87896   2.596   4.970   6.902 -0.0030 -0.0041 -0.3627
  652MOL0     C87897   2.633   5.034   6.767 -0.4904  0.3973 -0.2334
  652MOL0     C87898   2.541   4.979   6.665 -0.0749  0.1726 -0.3592
  652MOL0     C87899   2.550   5.040   6.523  1.3139 -0.5382 -0.3509
  652MOL0     C87900   2.429   5.011   6.432  0.8824  0.1769 -0.2258
  652MOL0     C87901   2.395   5.116   6.318  0.2306 -0.8141 -1.2328
  652MOL0     N87902   2.510   5.135   6.232 -0.2046  0.9452 -0.4507
  652MOL0     C87903   2.524   5.107   6.099  0.0318 -0.4240  0.9132
  652MOL0     C87904   2.627   5.170   6.053 -0.4935 -0.0959  0.6263
  652MOL0     C87905   2.690   5.174   5.907 -0.0561 -0.2358  0.1886
  652MOL0     C87906   2.713   5.034   5.847  0.1711 -0.7632 -0.4209
  652MOL0     C87907   2.804   4.957   5.923 -1.2046 -1.0595 -0.4222
  652MOL0     C87908   2.943   5.007   5.953 -0.2889 -0.2233 -0.2226
  652MOL0     O87909   3.048   4.959   5.866  0.5913 -0.1040 -0.6072
  652MOL0     C87910   3.153   4.897   5.929 -0.3847  0.1176 -0.0705
  652MOL0     C87911   3.203   4.774   5.901 -0.4252  0.4697  0.5542
  652MOL0     C87912   3.326   4.722   5.956  0.5840  0.5649  0.4777
  652MOL0     C87913   3.388   4.813   6.041 -0.9493 -0.2244 -0.2016
  652MOL0     C87914   3.523   4.779   6.090 -0.5468 -0.5820 -0.2715
  652MOL0     O87915   3.559   4.637   6.088 -0.3401 -0.3092 -0.3356
  652MOL0     C87916   3.675   4.589   6.138 -0.2450 -0.0231 -0.4266
  652MOL0     C87917   3.775   4.543   6.046  0.2277  0.8734  0.0004
  652MOL0     C87918   3.898   4.496   6.094  0.4657  0.9093 -0.4210
  652MOL0     C87919   3.906   4.475   6.230  0.9622 -0.4974 -0.6892
  652MOL0     O87920   4.013   4.421   6.298  0.2552 -0.5016  0.9232
  652MOL0     C87921   4.134   4.399   6.223  0.4563 -0.0699 -1.3635
  652MOL0     C87922   4.231   4.342   6.319 -0.4009 -0.0311 -0.6429
  652MOL0     C87923   4.238   4.440   6.445  0.9352  0.6519  0.5918
  652MOL0     C87924   4.362   4.426   6.536  0.4075 -0.0414  0.2735
  652MOL0     C87925   4.393   4.283   6.568  0.1125  0.4443 -0.9517
  652MOL0     C87926   4.517   4.264   6.647  0.2059  0.2457 -0.0406
  652MOL0     C87927   4.507   4.299   6.791  0.4713  0.4862 -0.5033
  652MOL0     C87928   4.644   4.309   6.863 -0.6685 -0.3709  0.1758
  652MOL0    Cl87929   4.686   4.146   6.929 -0.3030 -0.1560  0.0696
  652MOL0     C87930   3.803   4.506   6.323 -0.2671 -0.1820  0.5595
  652MOL0     C87931   3.688   4.575   6.278 -0.2185 -0.5859  0.2479
  652MOL0     O87932   3.596   4.862   6.136  0.8130  0.2461 -0.6053
  652MOL0     C87933   3.341   4.938   6.068  0.5108  0.1710  0.3866
  652MOL0     C87934   3.229   4.984   6.007  0.0466 -0.7873 -0.0678
  652MOL0     N87935   2.690   5.237   6.159 -0.6993  0.2188 -0.9102
  652MOL0     N87936   2.611   5.221   6.263  0.0324 -0.2183 -0.8498
  652MOL0     C87937   2.960   4.880   7.244 -0.5903  0.1946 -1.0553
  652MOL0     C87938   3.105   4.861   7.245  0.0508  0.6918  1.2392
  652MOL0     C87939   3.508   4.697   7.077  0.2905  0.1944 -0.3934
  652MOL0     C87940   3.564   4.571   7.065 -0.0481 -0.7812  0.4269
  652MOL0     C87941   3.699   4.559   7.119 -0.2110  1.0730 -0.5320
  652MOL0     C87942   3.784   4.673   7.139 -0.2425 -0.4052 -0.6797
  652MOL0     O87943   3.918   4.656   7.172  0.1720  0.0026 -0.5348
  652MOL0     C87944   3.940   4.561   7.276  0.7220  0.2341  0.0940
  652MOL0     C87945   4.089   4.576   7.296 -0.5795 -0.4547 -1.0731
  652MOL0     C87946   4.157   4.464   7.384 -0.3522 -0.4752 -0.8005
  652MOL0     C87947   4.179   4.508   7.536  0.6306  0.7484  0.5266
  652MOL0     C87948   4.305   4.582   7.538 -0.8121 -0.2460  0.0159
  652MOL0     C87949   4.396   4.660   7.514  0.6256  0.2080  0.1680
  652MOL0     C87950   3.727   4.798   7.123  0.7164  0.5044 -0.4657
  652MOL0     C87951   3.584   4.807   7.109  0.8019 -0.5303  0.1337
  652MOL0     C87952   3.524   4.951   7.109 -0.2682  0.3932 -0.4731
  652MOL0     H87953   3.123   4.602   7.030 -2.8047  0.2273 -3.3222
  652MOL0     H87954   2.884   4.650   7.010  3.4120 -1.6829 -0.6706
  652MOL0     H87955   2.587   4.949   7.175 -0.0432 -1.5393 -3.7275
  652MOL0     H87956   2.733   5.025   7.215 -1.3801  0.2143  0.4963
  652MOL0     H87957   2.797   4.992   6.965  1.6252  0.1116  4.7633
  652MOL0     H87958   2.691   5.120   7.020 -0.3639  0.3351 -1.8906
  652MOL0     H87959   2.502   5.013   6.939 -0.9129 -1.9405 -0.2411
  652MOL0     H87960   2.595   4.862   6.884  0.3183  0.2880 -2.2666
  652MOL0     H87961   2.622   5.143   6.768 -2.0829  0.2717 -0.6608
  652MOL0     H87962   2.732   5.007   6.729 -1.9285  0.9882 -5.0467
  652MOL0     H87963   2.557   4.871   6.662 -2.3156 -0.2543  1.0938
  652MOL0     H87964   2.440   4.999   6.702  0.7960  1.5844  1.4203
  652MOL0     H87965   2.563   5.148   6.512 -0.2194 -0.2082  0.6517
  652MOL0     H87966   2.636   4.987   6.482  2.4194  1.2773 -0.5041
  652MOL0     H87967   2.338   4.989   6.487  0.1575 -2.2181 -2.2278
  652MOL0     H87968   2.450   4.914   6.386 -2.5383 -1.7011  1.7663
  652MOL0     H87969   2.312   5.092   6.252 -0.2158 -1.1760 -0.5455
  652MOL0     H87970   2.365   5.208   6.371 -1.9443 -2.1199 -0.0563
  652MOL0     H87971   2.459   5.041   6.043  1.0754 -0.1048 -0.7422
  652MOL0     H87972   2.617   5.230   5.848 -1.5665  0.8704  2.9179
  652MOL0     H87973   2.785   5.227   5.904  2.3387 -4.1182  0.8402
  652MOL0     H87974   2.616   4.984   5.851  0.5086 -1.3980  2.5862
  652MOL0     H87975   2.755   5.045   5.747  0.9671 -2.5427 -0.3138
  652MOL0     H87976   2.822   4.861   5.874  0.2243 -2.0765  1.9166
  652MOL0     H87977   2.759   4.931   6.019  0.5404  0.3566  0.8386
  652MOL0     H87978   2.974   4.976   6.053 -0.9537 -1.0483 -0.2519
  652MOL0     H87979   2.951   5.115   5.940  0.9281 -0.4332 -1.4371
  652MOL0     H87980   3.142   4.716   5.832  2.1041 -2.0180  0.2433
  652MOL0     H87981   3.361   4.622   5.936  1.5972  0.0575  4.1075
  652MOL0     H87982   3.765   4.555   5.938 -0.2196 -0.3677 -0.1095
  652MOL0     H87983   3.985   4.478   6.033  2.7160  0.9473  2.5293
  652MOL0     H87984   4.123   4.336   6.135  0.0761 -0.7525 -0.8388
  652MOL0     H87985   4.175   4.491   6.180 -1.3989  0.0806 -2.9276
  652MOL0     H87986   4.196   4.244   6.352 -0.4978  0.6647  1.4520
  652MOL0     H87987   4.326   4.323   6.269 -1.6444 -3.1016 -2.0560
  652MOL0     H87988   4.226   4.540   6.404 -0.9460  1.0006  1.8375
  652MOL0     H87989   4.153   4.413   6.509 -0.8441  1.0991 -1.4632
  652MOL0     H87990   4.329   4.480   6.625  1.6333 -2.4500  2.3110
  652MOL0     H87991   4.442   4.487   6.492  0.4622 -0.6740 -0.5248
  652MOL0     H87992   4.410   4.229   6.475  1.0948 -1.5012  0.3007
  652MOL0     H87993   4.304   4.253   6.625 -0.2475 -2.3593 -2.8000
  652MOL0     H87994   4.540   4.159   6.624 -1.8225 -0.4759  0.9779
  652MOL0     H87995   4.597   4.326   6.607  2.0033 -0.9688  1.4823
  652MOL0     H87996   4.445   4.226   6.843  3.0890 -0.8104  1.0590
  652MOL0     H87997   4.453   4.394   6.791 -2.2468 -0.9467 -2.5836
  652MOL0     H87998   4.715   4.352   6.791 -2.6505  1.7444 -0.6312
  652MOL0     H87999   4.636   4.389   6.937  1.0502  0.3298 -0.3450
  652MOL0     H88000   3.823   4.488   6.428  2.4750 -0.0416  0.1262
  652MOL0     H88001   3.607   4.602   6.345 -2.8066  1.4015 -3.2981
  652MOL0     H88002   3.383   5.011   6.136 -0.9479 -1.0143  2.6964
  652MOL0     H88003   3.202   5.088   6.021  0.2065 -1.0870  3.1942
  652MOL0     H88004   2.915   4.955   7.308 -2.5227 -4.6713  4.1110
  652MOL0     H88005   3.164   4.935   7.298  2.5777  0.1224 -0.5841
  652MOL0     H88006   3.500   4.488   7.039  0.2222 -0.7723 -0.2930
  652MOL0     H88007   3.728   4.456   7.134 -0.6665  0.8101 -1.4112
  652MOL0     H88008   3.915   4.457   7.253 -0.0793  0.6915 -1.1945
  652MOL0     H88009   3.886   4.586   7.368  3.9317  1.5623  1.8022
  652MOL0     H88010   4.118   4.667   7.348 -1.0916 -0.2567 -1.1269
  652MOL0     H88011   4.131   4.560   7.196 -1.6366 -0.7387 -1.4847
  652MOL0     H88012   4.253   4.433   7.343  1.5227  0.8130  2.3523
  652MOL0     H88013   4.088   4.379   7.379 -2.7219  1.3924 -1.9141
  652MOL0     H88014   4.086   4.559   7.564 -1.5491 -3.2423  1.3431
  652MOL0     H88015   4.182   4.418   7.599  0.0716  1.1310  1.1215
  652MOL0     H88016   4.473   4.734   7.501  0.0418  1.5132  3.2397
  652MOL0     H88017   3.782   4.888   7.148 -2.5117  2.5746 -0.2115
  652MOL0     H88018   3.448   4.964   7.031 -1.3507 -0.0099  0.4887
  652MOL0     H88019   3.475   4.974   7.204 -2.0331  0.3282 -1.3258
  652MOL0     H88020   3.606   5.016   7.078  0.3644  0.1828  0.7390
  653MOL0     O88021   9.432   0.195   0.687  0.8684 -0.0404  0.0537
  653MOL0     C88022   9.346   0.272   0.740 -0.3537 -0.0123 -0.2220
  653MOL0     O88023   9.372   0.365   0.837  0.5767  0.1692 -0.3687
  653MOL0     C88024   9.494   0.376   0.899  0.6683  0.6797  0.1431
  653MOL0     C88025   9.496   0.382   1.034  0.7178 -0.3241 -1.2331
  653MOL0     C88026   9.612   0.400   1.110 -0.1719 -0.3526 -0.9785
  653MOL0     C88027   9.730   0.410   1.048 -0.9883 -0.3682  0.3323
  653MOL0     O88028   9.861   0.428   1.105  0.4515  1.3437 -0.0764
  653MOL0     C88029   9.874   0.358   1.232 -0.4198 -0.1012  0.2929
  653MOL0     C88030  10.008   0.368   1.283 -0.9663  0.8153  0.4992
  653MOL0     C88031  10.105   0.266   1.207 -0.0550  0.6867  0.5030
  653MOL0     C88032  10.239   0.266   1.274 -0.2249  0.7652  0.4984
  653MOL0     C88033  10.320   0.137   1.246 -0.0087  0.1650  0.1662
  653MOL0     C88034  10.308   0.027   1.350 -0.9923  1.0527 -0.3690
  653MOL0     C88035  10.400  -0.096   1.326  0.1377  0.4885  0.7965
  653MOL0     C88036  10.548  -0.070   1.365  1.0772 -0.1101  1.1250
  653MOL0     N88037  10.629  -0.194   1.359  0.2821  0.3529  0.2933
  653MOL0     C88038  10.631  -0.290   1.255 -0.1127  0.6581 -0.7240
  653MOL0     C88039  10.743  -0.368   1.289 -0.5262  0.0921  0.5278
  653MOL0     C88040  10.791  -0.496   1.219 -0.0790 -0.5656 -0.5556
  653MOL0     C88041  10.931  -0.469   1.156  0.7332  0.7383  0.5683
  653MOL0     C88042  10.919  -0.469   0.996  1.1340 -1.1950  0.0393
  653MOL0     C88043  11.032  -0.416   0.925 -0.4379  0.0407 -0.0165
  653MOL0     O88044  11.005  -0.293   0.859 -0.4107  0.6571  0.7135
  653MOL0     C88045  10.991  -0.290   0.719  0.3356 -0.2608  0.2466
  653MOL0     C88046  10.863  -0.241   0.671  0.1072 -0.1963 -0.1964
  653MOL0     C88047  10.844  -0.229   0.535  0.3389 -0.0193  0.9212
  653MOL0     C88048  10.953  -0.260   0.439  1.1694  0.9827 -0.1044
  653MOL0     C88049  10.925  -0.237   0.296 -0.4173  0.5890  0.5980
  653MOL0     O88050  10.785  -0.235   0.264 -0.1394  0.3788 -0.8315
  653MOL0     C88051  10.749  -0.247   0.136 -0.6406  0.1977  0.7518
  653MOL0     C88052  10.666  -0.349   0.103  0.1395 -0.4148 -0.1361
  653MOL0     C88053  10.627  -0.371  -0.026  0.4538 -0.7271 -0.2159
  653MOL0     C88054  10.667  -0.287  -0.130  0.2508  0.2703 -0.2527
  653MOL0     O88055  10.639  -0.322  -0.260 -0.7110 -0.2141 -0.1622
  653MOL0     C88056  10.590  -0.220  -0.351 -0.1323 -0.8165 -0.6130
  653MOL0     C88057  10.503  -0.292  -0.452 -0.1898  0.0990 -1.2798
  653MOL0     C88058  10.547  -0.434  -0.483  0.0675 -0.3509  0.5443
  653MOL0     C88059  10.464  -0.482  -0.601  0.0631 -0.5420  0.4603
  653MOL0     C88060  10.499  -0.625  -0.635  0.0238  0.9869 -0.5189
  653MOL0     C88061  10.443  -0.671  -0.778 -0.9796  0.5245 -0.2985
  653MOL0     C88062  10.289  -0.651  -0.777 -0.0544 -0.9799 -0.1152
  653MOL0     C88063  10.222  -0.723  -0.893  0.4689  0.7295 -1.0107
  653MOL0    Cl88064  10.290  -0.892  -0.936 -0.0545  0.5127  0.3734
  653MOL0     C88065  10.749  -0.177  -0.092 -1.1595  0.2466  0.0276
  653MOL0     C88066  10.800  -0.152   0.037 -0.0805  0.5845  0.4490
  653MOL0     O88067  11.022  -0.240   0.215  0.2872  0.1847  0.4842
  653MOL0     C88068  11.072  -0.300   0.496  0.2794  0.6123  0.9391
  653MOL0     C88069  11.093  -0.324   0.632  1.5940  0.2169 -0.0972
  653MOL0     N88070  10.796  -0.326   1.413 -0.6173 -0.2815  0.7153
  653MOL0     N88071  10.732  -0.208   1.440  0.1056 -0.3564 -0.0042
  653MOL0     C88072   9.730   0.411   0.899 -0.3088 -0.0015 -0.5429
  653MOL0     C88073   9.612   0.392   0.832 -0.3212 -1.1741  0.7485
  653MOL0     C88074   9.207   0.281   0.691 -0.1637  0.3133 -0.2402
  653MOL0     C88075   9.120   0.369   0.751 -0.1395 -0.5346  0.7911
  653MOL0     C88076   8.989   0.384   0.719  0.0756  0.0352 -1.0329
  653MOL0     C88077   8.933   0.297   0.628 -0.6133  0.5814 -0.1108
  653MOL0     O88078   8.798   0.303   0.590 -0.2038 -0.7102  0.3037
  653MOL0     C88079   8.768   0.272   0.457  0.3432 -0.0601  0.2338
  653MOL0     C88080   8.645   0.338   0.408  0.6752 -0.2314  0.2518
  653MOL0     C88081   8.515   0.292   0.476  0.7543  0.4756  0.3919
  653MOL0     C88082   8.399   0.356   0.413  0.0566  0.6719  0.2301
  653MOL0     C88083   8.392   0.498   0.446 -0.2508  0.4833  0.1413
  653MOL0     C88084   8.394   0.618   0.478  0.5219 -0.1492 -0.2873
  653MOL0     C88085   9.016   0.211   0.560 -0.0065  0.9684  0.1568
  653MOL0     C88086   9.146   0.196   0.600  0.0880  1.4463  0.9987
  653MOL0     C88087   9.223   0.077   0.551 -0.7675 -0.0728 -0.0799
  653MOL0     H88088   9.401   0.390   1.085  0.8373  0.1488 -1.0842
  653MOL0     H88089   9.614   0.409   1.218  1.0561  1.6540 -1.1218
  653MOL0     H88090   9.811   0.407   1.307 -0.9786 -1.6744  0.8770
  653MOL0     H88091   9.835   0.257   1.218  2.5286 -1.4798  1.1997
  653MOL0     H88092  10.007   0.339   1.388  3.1935 -2.8011 -0.1646
  653MOL0     H88093  10.046   0.469   1.268  1.2750 -0.2320 -1.6507
  653MOL0     H88094  10.125   0.301   1.105  0.0944  0.2871  0.3915
  653MOL0     H88095  10.047   0.173   1.213 -0.9877  1.1504 -0.8772
  653MOL0     H88096  10.300   0.352   1.246 -0.2441  1.4079  2.3274
  653MOL0     H88097  10.228   0.282   1.381  3.2534 -1.2063  1.2879
  653MOL0     H88098  10.291   0.106   1.145  0.8139  1.8361 -0.6310
  653MOL0     H88099  10.425   0.165   1.246 -0.2609  1.2317  1.7281
  653MOL0     H88100  10.319   0.067   1.451  0.9703 -0.6226  0.1494
  653MOL0     H88101  10.202   0.000   1.346 -0.8010 -0.0493  1.2124
  653MOL0     H88102  10.388  -0.125   1.221 -2.9100 -0.5377  1.3468
  653MOL0     H88103  10.361  -0.182   1.381 -2.8480 -0.5223 -2.4892
  653MOL0     H88104  10.596   0.008   1.306  2.9976 -2.5533 -0.8024
  653MOL0     H88105  10.552  -0.036   1.469  1.9225 -2.6221  1.9897
  653MOL0     H88106  10.555  -0.311   1.180 -2.3632  0.5309  1.4361
  653MOL0     H88107  10.797  -0.574   1.296 -1.4638 -0.1303  0.0238
  653MOL0     H88108  10.715  -0.527   1.147 -0.5824  2.4795 -1.4518
  653MOL0     H88109  10.985  -0.384   1.198  1.7471  1.6531 -2.3005
  653MOL0     H88110  10.982  -0.563   1.176 -1.2325 -0.2568  1.2013
  653MOL0     H88111  10.830  -0.409   0.971 -0.0535 -1.2062  3.6287
  653MOL0     H88112  10.895  -0.571   0.965  0.4172 -1.2267  0.6643
  653MOL0     H88113  11.062  -0.488   0.848  1.9820  1.9349 -0.9678
  653MOL0     H88114  11.123  -0.405   0.985  0.5939  1.1378 -1.6679
  653MOL0     H88115  10.782  -0.223   0.741 -1.3168  0.3710 -1.9077
  653MOL0     H88116  10.746  -0.194   0.505 -0.9093 -1.7798  2.7055
  653MOL0     H88117  10.623  -0.413   0.179 -1.7162 -0.2743 -1.0182
  653MOL0     H88118  10.562  -0.455  -0.050 -0.4816  0.3960 -1.8592
  653MOL0     H88119  10.530  -0.142  -0.303  0.0998 -1.3439  0.5672
  653MOL0     H88120  10.679  -0.178  -0.399  1.8609 -2.3031  1.5711
  653MOL0     H88121  10.409  -0.311  -0.400 -0.0212 -1.5185 -1.5207
  653MOL0     H88122  10.492  -0.235  -0.545 -3.0776 -1.1076 -1.7587
  653MOL0     H88123  10.650  -0.455  -0.515 -0.4253 -1.8249 -0.1666
  653MOL0     H88124  10.529  -0.501  -0.398  0.9817  0.8387  1.7053
  653MOL0     H88125  10.481  -0.420  -0.689  1.1484 -0.6770  0.5634
  653MOL0     H88126  10.361  -0.483  -0.563 -0.3408  0.9700 -0.4968
  653MOL0     H88127  10.456  -0.689  -0.558  1.5172 -0.7890 -1.0919
  653MOL0     H88128  10.608  -0.632  -0.629 -0.1048  0.3096  2.0657
  653MOL0     H88129  10.471  -0.610  -0.865  0.1448 -0.7169 -0.8356
  653MOL0     H88130  10.478  -0.774  -0.791  0.2981  1.0030 -0.7835
  653MOL0     H88131  10.264  -0.545  -0.787 -1.5757 -1.2948  0.0408
  653MOL0     H88132  10.247  -0.685  -0.681 -0.7139 -1.2957 -0.5021
  653MOL0     H88133  10.115  -0.734  -0.876  1.0208 -1.8009  1.7275
  653MOL0     H88134  10.242  -0.658  -0.979  1.0493 -0.9469 -2.2057
  653MOL0     H88135  10.777  -0.102  -0.166 -1.0726 -0.1748 -0.3714
  653MOL0     H88136  10.856  -0.066   0.072 -0.4597  0.1631  2.1979
  653MOL0     H88137  11.157  -0.326   0.432 -1.4393 -0.0898 -1.1967
  653MOL0     H88138  11.194  -0.338   0.671  1.4622  1.9184  0.9664
  653MOL0     H88139   9.822   0.439   0.848  0.2000 -2.5890 -1.2148
  653MOL0     H88140   9.615   0.394   0.724  0.5378 -1.2519  0.7630
  653MOL0     H88141   9.145   0.433   0.835  0.7196 -1.2239  1.0859
  653MOL0     H88142   8.929   0.465   0.758  3.6265  2.5492 -0.3415
  653MOL0     H88143   8.758   0.163   0.451  5.1051 -0.6525 -0.6487
  653MOL0     H88144   8.845   0.304   0.387  2.4729 -2.4288  1.3404
  653MOL0     H88145   8.629   0.325   0.301  1.5061 -1.4622  0.2599
  653MOL0     H88146   8.659   0.447   0.416  0.1447 -0.1708  0.4552
  653MOL0     H88147   8.517   0.308   0.584 -0.1104  1.1275  0.3203
  653MOL0     H88148   8.490   0.186   0.460 -2.9066  1.1021  0.9864
  653MOL0     H88149   8.405   0.346   0.305 -1.8834 -2.5105  0.3087
  653MOL0     H88150   8.308   0.301   0.438  1.5247 -1.9254  0.1713
  653MOL0     H88151   8.356   0.713   0.508 -0.9130 -1.2309  1.5013
  653MOL0     H88152   8.976   0.136   0.493  1.7863 -1.1557  1.3188
  653MOL0     H88153   9.273   0.024   0.633  1.1141 -0.6368 -1.5184
  653MOL0     H88154   9.154   0.004   0.508  0.4374 -1.6727  0.5793
  653MOL0     H88155   9.291   0.093   0.467 -0.4663 -2.1123 -0.2694
  654MOL0     O88156   3.499   9.516   8.081 -0.6838  0.2287  0.3975
  654MOL0     C88157   3.548   9.605   8.002 -0.2159 -0.0802  0.0461
  654MOL0     O88158   3.677   9.655   8.016  0.2526  0.1920  0.5536
  654MOL0     C88159   3.770   9.625   8.107  0.5756  0.2805 -0.0428
  654MOL0     C88160   3.900   9.648   8.065  0.5806  0.5378  0.0491
  654MOL0     C88161   4.008   9.613   8.138 -0.4298  0.1338  0.1898
  654MOL0     C88162   3.995   9.532   8.256  0.6859  0.9495  0.7153
  654MOL0     O88163   4.108   9.473   8.301 -0.8493 -1.4243 -0.3030
  654MOL0     C88164   4.119   9.410   8.430 -0.0188  0.6016  0.3688
  654MOL0     C88165   4.255   9.335   8.440 -1.5189 -0.1961  0.3377
  654MOL0     C88166   4.283   9.230   8.328 -0.0204  0.8786  0.3290
  654MOL0     C88167   4.405   9.140   8.365 -0.6125 -0.0276 -1.1512
  654MOL0     C88168   4.436   9.024   8.273  0.5198  0.0087  0.2978
  654MOL0     C88169   4.535   8.920   8.321 -0.7324 -0.0864  0.4157
  654MOL0     C88170   4.521   8.887   8.470 -0.1122 -0.6657  0.0408
  654MOL0     C88171   4.632   8.782   8.498 -0.3280  0.2651 -0.6325
  654MOL0     N88172   4.592   8.697   8.612 -0.1636  0.2971 -0.2975
  654MOL0     C88173   4.477   8.699   8.698  0.1851 -0.9521  0.9388
  654MOL0     C88174   4.481   8.574   8.756 -0.3253 -0.3856  0.5680
  654MOL0     C88175   4.384   8.518   8.857  0.4472  0.4300  0.3975
  654MOL0     C88176   4.378   8.600   8.972 -0.2879 -0.9184 -0.7007
  654MOL0     C88177   4.417   8.519   9.094 -0.0757  0.7756  0.8081
  654MOL0     C88178   4.386   8.591   9.227  0.0017  0.8235  0.8380
  654MOL0     O88179   4.434   8.719   9.223 -0.2524 -0.3809  0.0282
  654MOL0     C88180   4.561   8.759   9.261 -0.4983 -0.8308 -0.1968
  654MOL0     C88181   4.607   8.882   9.225 -0.5777  0.0170  0.4083
  654MOL0     C88182   4.737   8.927   9.282  0.5484 -0.5063  1.1284
  654MOL0     C88183   4.808   8.843   9.369 -0.6493 -0.3665  0.2389
  654MOL0     C88184   4.933   8.891   9.428 -0.6007  1.7102 -0.7075
  654MOL0     O88185   5.005   8.782   9.492  0.3238 -0.1193  0.2665
  654MOL0     C88186   5.102   8.804   9.587 -0.6254 -1.1358  0.3573
  654MOL0     C88187   5.203   8.711   9.593  0.5054 -0.0017 -0.4145
  654MOL0     C88188   5.313   8.716   9.682  0.3311  0.2332 -0.0828
  654MOL0     C88189   5.329   8.827   9.764 -0.2751 -0.2634 -0.2725
  654MOL0     O88190   5.433   8.834   9.847  0.1014  0.7887 -0.0763
  654MOL0     C88191   5.469   8.720   9.935 -0.1171 -0.6335 -0.4897
  654MOL0     C88192   5.626   8.717   9.959  0.7199  0.6508  0.8099
  654MOL0     C88193   5.702   8.644   9.845  1.0471 -0.1608 -0.9265
  654MOL0     C88194   5.789   8.753   9.789  0.1111 -0.7130 -0.1773
  654MOL0     C88195   5.905   8.711   9.693 -0.1051 -0.2973  0.9226
  654MOL0     C88196   5.861   8.647   9.560 -0.3275 -0.6783 -0.6974
  654MOL0     C88197   5.970   8.586   9.465 -0.0236  0.1579  0.2880
  654MOL0     C88198   5.917   8.517   9.348  0.4890  0.2309 -0.8051
  654MOL0    Cl88199   5.846   8.642   9.235  0.4583  0.0460  0.1411
  654MOL0     C88200   5.236   8.928   9.755 -0.5948 -0.4423 -0.8720
  654MOL0     C88201   5.126   8.919   9.671 -0.1329 -0.1332 -0.5048
  654MOL0     O88202   4.970   9.002   9.419 -0.4153  0.9450  0.2834
  654MOL0     C88203   4.778   8.708   9.378  0.6601 -0.3327 -1.2493
  654MOL0     C88204   4.653   8.668   9.324 -0.3534 -0.4120 -0.2082
  654MOL0     N88205   4.594   8.516   8.715 -0.1433  0.2880 -0.3849
  654MOL0     N88206   4.660   8.591   8.639 -0.5635  0.0320  0.1794
  654MOL0     C88207   3.863   9.502   8.289  0.2373  0.7704 -0.8046
  654MOL0     C88208   3.753   9.545   8.221  0.2958  0.4577  0.3335
  654MOL0     C88209   3.462   9.653   7.894  0.2264 -0.8776 -0.1735
  654MOL0     C88210   3.320   9.626   7.906 -0.3738 -0.7378 -0.2471
  654MOL0     C88211   3.230   9.680   7.807 -0.3229 -0.2869 -0.7757
  654MOL0     C88212   3.283   9.733   7.690 -0.2589  0.9173  0.0678
  654MOL0     O88213   3.213   9.784   7.592 -0.2490 -0.2321  0.8059
  654MOL0     C88214   3.076   9.746   7.563  0.2893  0.7259  0.1397
  654MOL0     C88215   3.050   9.783   7.421  0.3794  0.3169  0.3180
  654MOL0     C88216   3.020   9.940   7.398 -0.4243  0.8627  0.0049
  654MOL0     C88217   3.128  10.024   7.453 -0.6268  1.1724 -0.3289
  654MOL0     C88218   3.102  10.166   7.411 -1.1341  0.1554 -0.7371
  654MOL0     C88219   3.066  10.273   7.372  0.6142  0.0322 -0.8454
  654MOL0     C88220   3.414   9.763   7.686 -0.5487  0.9732  0.8238
  654MOL0     C88221   3.511   9.720   7.781  0.0935 -0.6578 -0.0660
  654MOL0     C88222   3.649   9.752   7.744 -0.9193 -0.8589 -0.2817
  654MOL0     H88223   3.915   9.702   7.972  2.4629 -2.1492 -1.3267
  654MOL0     H88224   4.107   9.650   8.114 -0.6221 -0.5422 -1.8537
  654MOL0     H88225   4.085   9.471   8.514 -0.6085 -0.9034  1.2612
  654MOL0     H88226   4.058   9.319   8.424  0.7089  0.0261  1.3042
  654MOL0     H88227   4.258   9.288   8.538  2.5363 -3.7109 -1.1404
  654MOL0     H88228   4.332   9.413   8.439 -2.0672  0.3656 -1.1424
  654MOL0     H88229   4.288   9.294   8.240  0.4740  1.5434  0.8259
  654MOL0     H88230   4.196   9.165   8.315 -0.6513  1.5514  1.0600
  654MOL0     H88231   4.493   9.201   8.386 -0.4799 -0.3879 -0.6445
  654MOL0     H88232   4.383   9.100   8.465 -0.5266  1.7732 -0.3753
  654MOL0     H88233   4.337   8.980   8.261 -0.5050  2.1398  0.4987
  654MOL0     H88234   4.472   9.057   8.175  2.1643 -1.1991  0.4455
  654MOL0     H88235   4.519   8.837   8.252  1.3128  1.9497 -2.7844
  654MOL0     H88236   4.633   8.965   8.301 -1.6782  0.6484 -3.3285
  654MOL0     H88237   4.415   8.859   8.479 -0.6285  1.1415 -0.0134
  654MOL0     H88238   4.531   8.981   8.526  0.8763 -0.6894 -0.0837
  654MOL0     H88239   4.652   8.717   8.413 -0.0835 -2.5381  1.4272
  654MOL0     H88240   4.723   8.835   8.528 -1.4802  2.1002 -0.1791
  654MOL0     H88241   4.393   8.767   8.703 -0.1032 -1.3794  2.8739
  654MOL0     H88242   4.284   8.508   8.814 -0.2495 -0.8808  2.2162
  654MOL0     H88243   4.420   8.419   8.887 -0.9118  0.4891  2.4622
  654MOL0     H88244   4.437   8.692   8.964 -2.4133  0.8105  1.7163
  654MOL0     H88245   4.277   8.639   8.987  0.2315  0.5369 -0.8495
  654MOL0     H88246   4.523   8.493   9.089  0.0786  1.6473 -2.0445
  654MOL0     H88247   4.363   8.424   9.084 -2.7342  2.4279 -5.2865
  654MOL0     H88248   4.429   8.537   9.312  1.0604 -0.9192 -0.7152
  654MOL0     H88249   4.278   8.595   9.245 -0.4979 -2.1730 -0.7709
  654MOL0     H88250   4.560   8.952   9.157 -1.9858  0.0980  1.4312
  654MOL0     H88251   4.780   9.021   9.250 -2.3690  0.6478  0.2450
  654MOL0     H88252   5.197   8.623   9.529  0.5751  0.3935 -0.9730
  654MOL0     H88253   5.385   8.636   9.693  2.9465  2.5105  0.6198
  654MOL0     H88254   5.424   8.747  10.030 -2.4929  1.2287 -2.0200
  654MOL0     H88255   5.437   8.618   9.912 -3.7529  0.6746 -1.9721
  654MOL0     H88256   5.664   8.815   9.990 -0.0226  0.3145  2.9779
  654MOL0     H88257   5.646   8.641  10.035  0.6181 -2.8941 -2.4101
  654MOL0     H88258   5.764   8.559   9.874  2.8188  2.0429  2.4752
  654MOL0     H88259   5.634   8.609   9.767 -0.2394 -2.0869  0.9321
  654MOL0     H88260   5.846   8.794   9.872 -2.1268  1.3294  0.4720
  654MOL0     H88261   5.728   8.829   9.738  1.7599  1.0231  0.3287
  654MOL0     H88262   5.968   8.641   9.749 -1.5565 -3.1467 -0.8186
  654MOL0     H88263   5.965   8.799   9.665 -0.3644 -0.3434  0.2046
  654MOL0     H88264   5.788   8.567   9.579 -1.9804 -0.1779 -4.2073
  654MOL0     H88265   5.799   8.714   9.500  0.1611  0.9533  0.5469
  654MOL0     H88266   6.026   8.510   9.521  0.2856 -0.4459 -0.8206
  654MOL0     H88267   6.029   8.672   9.432 -1.5916  0.3928 -2.1524
  654MOL0     H88268   5.993   8.467   9.287  0.2811 -0.1190 -0.7769
  654MOL0     H88269   5.835   8.451   9.376 -0.5190  0.9248 -1.9957
  654MOL0     H88270   5.253   9.006   9.829  0.8772 -2.7254  1.3887
  654MOL0     H88271   5.055   9.001   9.661  0.7930  0.5209 -2.3828
  654MOL0     H88272   4.846   8.633   9.419  0.3767 -0.4947 -1.0668
  654MOL0     H88273   4.648   8.559   9.327 -0.2949 -0.4188 -0.3424
  654MOL0     H88274   3.845   9.441   8.376  2.8097 -0.5741 -1.1083
  654MOL0     H88275   3.666   9.490   8.256  1.9565 -2.2158  0.5781
  654MOL0     H88276   3.280   9.569   7.989 -1.5512  0.9682  0.3985
  654MOL0     H88277   3.123   9.670   7.814 -0.3970  1.0950  0.8953
  654MOL0     H88278   3.029   9.809   7.640  2.3344  0.9537  1.2649
  654MOL0     H88279   3.065   9.639   7.583 -0.6082  0.9793  1.1589
  654MOL0     H88280   2.954   9.745   7.384  1.0649  0.0665 -1.2715
  654MOL0     H88281   3.122   9.738   7.351 -0.1652  2.7803 -1.9921
  654MOL0     H88282   2.924   9.970   7.442 -0.7850 -1.1602  0.7186
  654MOL0     H88283   3.007   9.962   7.291 -0.7687  1.9970  0.2641
  654MOL0     H88284   3.127  10.013   7.562  3.6671  1.2530 -0.0805
  654MOL0     H88285   3.226   9.990   7.418 -0.8643  1.2286 -1.0745
  654MOL0     H88286   3.018  10.367   7.352  1.2495  0.9819  1.7406
  654MOL0     H88287   3.436   9.819   7.596  0.1739  1.6734  1.4187
  654MOL0     H88288   3.713   9.665   7.760  1.6587  1.1707  1.4518
  654MOL0     H88289   3.664   9.785   7.641  1.8495 -0.2038  0.2357
  654MOL0     H88290   3.687   9.826   7.816 -1.9921 -0.9728  0.4202
  655MOL0     O88291   2.611   0.689   4.958  0.2599 -0.2844  1.2072
  655MOL0     C88292   2.620   0.580   5.011  0.2188 -0.9153 -0.1073
  655MOL0     O88293   2.526   0.483   4.997 -0.6713  0.5933 -0.1091
  655MOL0     C88294   2.395   0.505   4.989 -0.3303 -0.2361 -0.4213
  655MOL0     C88295   2.325   0.460   4.874  0.6669  0.1280  0.5968
  655MOL0     C88296   2.184   0.467   4.880 -0.1196  0.4341  0.5060
  655MOL0     C88297   2.110   0.517   4.987 -0.1454  0.0243 -0.0348
  655MOL0     O88298   1.978   0.526   4.966  1.5058 -0.0883 -0.6945
  655MOL0     C88299   1.882   0.596   5.051  0.8929 -0.2617 -0.3403
  655MOL0     C88300   1.745   0.539   5.022  0.2546 -0.1993 -0.2812
  655MOL0     C88301   1.630   0.632   5.072  0.1755  1.4570  0.5274
  655MOL0     C88302   1.508   0.618   4.970 -0.0426 -0.7729 -0.8767
  655MOL0     C88303   1.383   0.680   5.037  0.7643  0.1246 -0.1127
  655MOL0     C88304   1.409   0.821   5.101 -0.4624  0.6714 -0.5594
  655MOL0     C88305   1.281   0.884   5.159  0.1747 -0.1459  0.0630
  655MOL0     C88306   1.296   1.034   5.191  0.1997  0.3284  0.0811
  655MOL0     N88307   1.165   1.086   5.241 -1.0567 -0.8413  0.9704
  655MOL0     C88308   1.089   1.040   5.342 -0.1288  0.3141  0.6805
  655MOL0     C88309   0.987   1.123   5.346  0.4288 -0.2920  0.4552
  655MOL0     C88310   0.885   1.117   5.457  0.3858  0.9269 -0.8098
  655MOL0     C88311   0.745   1.071   5.398  0.1400  0.2639  0.0626
  655MOL0     C88312   0.681   1.168   5.305 -0.1866  0.6571  0.1292
  655MOL0     C88313   0.602   1.283   5.381  0.9933  0.8726  0.0853
  655MOL0     O88314   0.660   1.414   5.362 -0.8863 -0.3931  0.5948
  655MOL0     C88315   0.567   1.515   5.386 -0.1441 -0.3758  0.1068
  655MOL0     C88316   0.589   1.629   5.307  0.6692  0.9257 -0.1123
  655MOL0     C88317   0.500   1.731   5.316 -0.8669 -0.0949 -0.1068
  655MOL0     C88318   0.394   1.732   5.401  1.2474  0.4478  0.0641
  655MOL0     C88319   0.297   1.846   5.429 -0.2828  0.2002 -0.0831
  655MOL0     O88320   0.259   1.924   5.329  0.4024 -0.1839  0.2203
  655MOL0     C88321   0.167   2.026   5.342 -0.0318 -0.7764  0.0574
  655MOL0     C88322   0.048   2.013   5.411  0.6294 -1.1171 -0.4251
  655MOL0     C88323  -0.061   2.099   5.404 -0.7200  0.0072  0.0954
  655MOL0     C88324  -0.045   2.217   5.327  0.0148 -0.4537 -0.9591
  655MOL0     O88325  -0.152   2.305   5.331  0.4751  0.1932  0.4728
  655MOL0     C88326  -0.182   2.346   5.193 -0.5612 -0.8989 -0.0418
  655MOL0     C88327  -0.337   2.318   5.170  0.7553 -0.4488 -0.9592
  655MOL0     C88328  -0.388   2.394   5.051 -0.0590  0.7231 -0.7055
  655MOL0     C88329  -0.511   2.333   4.996  0.0093  0.2851 -0.7981
  655MOL0     C88330  -0.553   2.397   4.867 -0.7729 -1.0101  1.1000
  655MOL0     C88331  -0.577   2.289   4.760 -1.0112  0.6905 -0.2242
  655MOL0     C88332  -0.596   2.346   4.622 -0.5728 -0.1602 -0.0343
  655MOL0     C88333  -0.649   2.246   4.524  0.9927 -0.2823  0.8964
  655MOL0    Cl88334  -0.826   2.230   4.547 -0.4640  0.1602  0.0143
  655MOL0     C88335   0.075   2.237   5.259  0.5602 -0.1294 -0.2404
  655MOL0     C88336   0.178   2.142   5.273  0.0993  0.4697  0.8152
  655MOL0     O88337   0.261   1.858   5.545 -0.2610  1.0644 -0.9620
  655MOL0     C88338   0.361   1.617   5.468 -1.0964 -0.1160  0.7761
  655MOL0     C88339   0.447   1.503   5.458  0.0926 -0.3416 -0.2464
  655MOL0     N88340   1.000   1.223   5.246  0.6530 -0.0436 -0.9572
  655MOL0     N88341   1.117   1.210   5.193  0.4556  0.4610 -0.0252
  655MOL0     C88342   2.177   0.574   5.098 -0.8304  0.7809 -0.6988
  655MOL0     C88343   2.318   0.565   5.096  0.1159  0.1569 -0.2390
  655MOL0     C88344   2.741   0.560   5.094  0.5012 -0.3544 -0.5997
  655MOL0     C88345   2.753   0.426   5.156  1.0682 -0.4255  0.4576
  655MOL0     C88346   2.866   0.393   5.227  0.2187  0.0839 -0.2459
  655MOL0     C88347   2.967   0.486   5.261 -0.1540  0.4742 -0.3656
  655MOL0     O88348   3.083   0.454   5.334 -0.4180  0.0822 -0.0553
  655MOL0     C88349   3.100   0.338   5.422 -0.5926  0.1863  0.3190
  655MOL0     C88350   3.035   0.339   5.571 -0.2850 -0.2937 -1.2472
  655MOL0     C88351   3.018   0.204   5.646  0.2485 -0.0491  0.1971
  655MOL0     C88352   2.900   0.125   5.585 -0.6994  0.2971 -0.4069
  655MOL0     C88353   2.766   0.173   5.625  0.5114  1.0732  0.6288
  655MOL0     C88354   2.658   0.226   5.621  0.1194 -0.2811  0.4931
  655MOL0     C88355   2.958   0.607   5.196  0.4689 -0.1576 -0.6051
  655MOL0     C88356   2.846   0.651   5.122 -0.9409  0.2596 -0.2054
  655MOL0     C88357   2.846   0.802   5.088  0.5663  0.6919  0.6304
  655MOL0     H88358   2.379   0.416   4.790 -0.0009  0.7905 -0.1973
  655MOL0     H88359   2.121   0.438   4.796  0.0082  1.7923 -0.0757
  655MOL0     H88360   1.899   0.587   5.158 -3.5374 -2.4176  0.3866
  655MOL0     H88361   1.883   0.702   5.021 -0.2786  0.5916  2.3404
  655MOL0     H88362   1.742   0.437   5.061 -1.7938 -1.1731 -2.7116
  655MOL0     H88363   1.741   0.529   4.914 -0.1843 -0.4459 -0.2441
  655MOL0     H88364   1.659   0.737   5.080 -3.0700  2.5065 -0.0690
  655MOL0     H88365   1.604   0.596   5.172 -1.1669  2.1375  0.4446
  655MOL0     H88366   1.538   0.678   4.883  1.7358  0.4469  0.5168
  655MOL0     H88367   1.497   0.513   4.939  2.1853 -1.6719  1.0701
  655MOL0     H88368   1.302   0.693   4.965  1.2490 -0.6106 -0.8027
  655MOL0     H88369   1.352   0.604   5.109  3.8231 -2.7191 -1.5344
  655MOL0     H88370   1.491   0.819   5.174 -2.3326  1.0281  1.6669
  655MOL0     H88371   1.458   0.868   5.015 -1.1433 -0.1295 -1.4078
  655MOL0     H88372   1.254   0.828   5.249  0.5528  1.1710  1.0190
  655MOL0     H88373   1.203   0.877   5.082 -0.0785 -0.6414  0.3600
  655MOL0     H88374   1.361   1.037   5.278 -2.9845 -0.9718  2.7174
  655MOL0     H88375   1.325   1.081   5.096 -2.6056 -0.6897 -1.4278
  655MOL0     H88376   1.111   0.951   5.400  0.8255 -0.3524 -0.6396
  655MOL0     H88377   0.913   1.042   5.532 -1.3486  2.2486  1.3179
  655MOL0     H88378   0.865   1.207   5.516 -0.8734 -0.4432  0.9797
  655MOL0     H88379   0.767   0.979   5.342  3.6471 -0.6845  2.5990
  655MOL0     H88380   0.680   1.042   5.481  0.7704  2.0443  1.2123
  655MOL0     H88381   0.609   1.123   5.237  0.5599 -1.1675  0.4901
  655MOL0     H88382   0.757   1.225   5.250 -1.6735  1.7138 -0.9034
  655MOL0     H88383   0.593   1.261   5.487 -1.5565  0.9315 -0.0467
  655MOL0     H88384   0.501   1.277   5.340  1.6442  2.1990 -1.9286
  655MOL0     H88385   0.674   1.637   5.240  0.2732  3.5916 -0.3975
  655MOL0     H88386   0.511   1.815   5.248 -0.4938  0.1328  0.2287
  655MOL0     H88387   0.036   1.924   5.472  2.1454 -2.1789 -1.5780
  655MOL0     H88388  -0.160   2.088   5.446 -0.3412 -0.6289  0.8696
  655MOL0     H88389  -0.153   2.451   5.180 -0.8922 -0.6181  1.3820
  655MOL0     H88390  -0.128   2.285   5.120 -1.2010  0.5215 -1.7674
  655MOL0     H88391  -0.352   2.210   5.167 -0.5184 -0.2906 -0.8899
  655MOL0     H88392  -0.391   2.362   5.254  1.7797 -2.1354  0.6628
  655MOL0     H88393  -0.413   2.497   5.079 -0.4205  0.2779  0.6773
  655MOL0     H88394  -0.307   2.391   4.977  1.0922 -2.2814  0.5268
  655MOL0     H88395  -0.582   2.342   5.079 -1.6049 -0.0630 -2.1014
  655MOL0     H88396  -0.496   2.227   4.978  0.9015 -0.3685  2.9155
  655MOL0     H88397  -0.468   2.459   4.837 -2.4043  0.8548  0.0946
  655MOL0     H88398  -0.633   2.471   4.881  1.4791  1.5894  1.1708
  655MOL0     H88399  -0.498   2.215   4.743 -1.4431  0.3500 -0.7491
  655MOL0     H88400  -0.667   2.233   4.788  0.5337 -1.5923  0.5046
  655MOL0     H88401  -0.502   2.385   4.582 -0.5980  0.2336  0.2911
  655MOL0     H88402  -0.673   2.424   4.618  0.3445  0.7295 -1.1441
  655MOL0     H88403  -0.633   2.287   4.424  0.0117 -1.5491  0.1857
  655MOL0     H88404  -0.591   2.153   4.533 -1.7489 -2.6384 -2.7535
  655MOL0     H88405   0.084   2.318   5.188 -1.6418  1.1482  0.8401
  655MOL0     H88406   0.261   2.143   5.203 -1.8039 -0.0092 -1.5882
  655MOL0     H88407   0.280   1.608   5.540 -0.2251 -1.4230  1.6334
  655MOL0     H88408   0.412   1.414   5.510  1.3999 -0.9108 -0.3165
  655MOL0     H88409   2.131   0.639   5.172  1.8320  2.5536 -0.4306
  655MOL0     H88410   2.350   0.607   5.191  1.7027 -3.1023  0.8367
  655MOL0     H88411   2.676   0.350   5.146  2.9768 -2.4969  0.6984
  655MOL0     H88412   2.873   0.292   5.264  0.0047  0.5436  1.1302
  655MOL0     H88413   3.206   0.315   5.436 -0.0634  2.5448  0.6238
  655MOL0     H88414   3.059   0.251   5.370 -2.4299  0.1432  1.7632
  655MOL0     H88415   2.934   0.379   5.557 -0.2452 -0.4991 -2.1994
  655MOL0     H88416   3.093   0.406   5.635 -0.2135  1.1230 -2.7227
  655MOL0     H88417   3.008   0.216   5.754 -0.1655  0.1568  0.1400
  655MOL0     H88418   3.107   0.147   5.617 -1.2453 -3.0212  1.0536
  655MOL0     H88419   2.915   0.109   5.478 -0.1047 -0.3200 -0.2368
  655MOL0     H88420   2.899   0.027   5.633 -5.8916  0.6861  0.9638
  655MOL0     H88421   2.563   0.273   5.609 -0.4517 -1.5087  0.0765
  655MOL0     H88422   3.037   0.674   5.230  1.3316 -1.3061 -0.2763
  655MOL0     H88423   2.882   0.860   5.174 -0.0668  0.3700  1.1219
  655MOL0     H88424   2.895   0.823   4.993  0.5806  1.3308  0.7764
  655MOL0     H88425   2.744   0.838   5.069  2.0142  3.4996 -3.0896
  656MOL0     O88426  10.360   0.737   4.091 -0.2246  0.0805  0.2181
  656MOL0     C88427  10.410   0.834   4.025 -0.1049  0.4021 -0.5288
  656MOL0     O88428  10.436   0.951   4.081 -0.6708  0.3303 -0.3006
  656MOL0     C88429  10.384   0.964   4.210 -0.4470 -0.4092 -0.1053
  656MOL0     C88430  10.249   0.993   4.221  0.0169  0.3050 -0.4081
  656MOL0     C88431  10.187   1.013   4.347  0.5954 -0.8235  0.2290
  656MOL0     C88432  10.260   0.991   4.459 -0.3474 -0.4429 -0.1636
  656MOL0     O88433  10.219   1.019   4.584 -0.5891 -0.3465 -0.1079
  656MOL0     C88434  10.083   1.062   4.620  0.2379 -0.1616  0.2599
  656MOL0     C88435  10.078   1.154   4.750 -0.4953  0.1215 -0.3565
  656MOL0     C88436   9.941   1.187   4.797 -0.1783  0.0103 -0.5801
  656MOL0     C88437   9.834   1.078   4.788  0.8562 -0.0378 -0.4783
  656MOL0     C88438   9.690   1.134   4.834  0.3399  0.6134 -0.3298
  656MOL0     C88439   9.688   1.189   4.976 -1.1376 -1.1496  0.0003
  656MOL0     C88440   9.737   1.100   5.086  0.0986  0.9944 -0.1502
  656MOL0     C88441   9.686   1.136   5.230  0.3726 -0.6458 -0.5724
  656MOL0     N88442   9.730   1.261   5.282  0.2532  0.2814 -0.8665
  656MOL0     C88443   9.668   1.334   5.384 -0.2247  0.4057 -0.0081
  656MOL0     C88444   9.750   1.436   5.403  0.3897 -0.0162 -0.1709
  656MOL0     C88445   9.704   1.526   5.511  0.1152  0.3947 -0.2135
  656MOL0     C88446   9.594   1.621   5.467  0.7400 -0.1130 -1.4260
  656MOL0     C88447   9.602   1.695   5.336 -0.1216 -0.0589  0.0859
  656MOL0     C88448   9.493   1.654   5.227 -0.2657 -0.1219 -0.0504
  656MOL0     O88449   9.377   1.720   5.289 -0.8403 -0.3216  0.8574
  656MOL0     C88450   9.259   1.709   5.231  1.5491 -0.4818  0.2757
  656MOL0     C88451   9.222   1.623   5.117  0.1770 -0.2430 -0.6142
  656MOL0     C88452   9.085   1.615   5.077  0.8522  0.3754  0.2561
  656MOL0     C88453   8.983   1.687   5.142  0.0263  0.6781 -0.7959
  656MOL0     C88454   8.838   1.686   5.100 -0.7013  0.6073 -0.0054
  656MOL0     O88455   8.828   1.671   4.964  0.4887  0.0471  0.6956
  656MOL0     C88456   8.725   1.736   4.894 -0.3843 -0.3922  0.2678
  656MOL0     C88457   8.753   1.852   4.810 -0.5459  0.3323 -0.5058
  656MOL0     C88458   8.654   1.925   4.750 -0.0623 -0.2030 -0.3242
  656MOL0     C88459   8.518   1.884   4.774  0.7587  0.0080 -0.1001
  656MOL0     O88460   8.415   1.963   4.731 -0.0888 -0.2040  0.1781
  656MOL0     C88461   8.387   1.936   4.602  0.5323 -0.4305  0.7546
  656MOL0     C88462   8.244   1.992   4.568 -0.0186  0.0032 -0.2029
  656MOL0     C88463   8.261   2.148   4.598  1.0748  0.0829 -0.9428
  656MOL0     C88464   8.160   2.239   4.533 -0.7780  0.3816  0.6207
  656MOL0     C88465   8.200   2.246   4.382 -0.0125  0.6018  0.2164
  656MOL0     C88466   8.101   2.312   4.292 -0.1677  0.6617  0.5064
  656MOL0     C88467   8.045   2.448   4.325  1.1348 -0.2469  0.2920
  656MOL0     C88468   8.145   2.560   4.345  0.7189 -0.4262 -0.3847
  656MOL0    Cl88469   8.223   2.602   4.197  0.1840  0.1228 -0.4162
  656MOL0     C88470   8.490   1.767   4.843 -0.7634 -0.2841 -0.0055
  656MOL0     C88471   8.594   1.696   4.910 -0.4007  0.4066  0.6934
  656MOL0     O88472   8.750   1.715   5.174 -0.0114  0.5297 -0.7890
  656MOL0     C88473   9.022   1.765   5.255  0.4581  0.8640 -1.6985
  656MOL0     C88474   9.151   1.773   5.301 -0.3267  0.3922  0.0469
  656MOL0     N88475   9.858   1.437   5.321  0.6709  0.3946  0.0441
  656MOL0     N88476   9.840   1.336   5.239  0.0176 -0.5354  0.7079
  656MOL0     C88477  10.399   0.971   4.450 -0.2566 -0.0022 -0.1819
  656MOL0     C88478  10.463   0.954   4.323  0.9220 -0.7550  0.5879
  656MOL0     C88479  10.482   0.806   3.900  0.1899 -0.8627 -0.5771
  656MOL0     C88480  10.550   0.686   3.886  0.2764 -0.7361 -0.1165
  656MOL0     C88481  10.626   0.652   3.777  0.1130  0.2885 -0.6528
  656MOL0     C88482  10.643   0.741   3.677  0.8371 -0.2106  0.6370
  656MOL0     O88483  10.730   0.689   3.581 -0.3004  0.4612 -0.4134
  656MOL0     C88484  10.727   0.740   3.448  0.6268 -0.5774  0.0952
  656MOL0     C88485  10.594   0.698   3.383 -0.2797 -0.0779 -0.1683
  656MOL0     C88486  10.570   0.765   3.245 -0.0303 -0.0934 -0.3420
  656MOL0     C88487  10.613   0.689   3.128 -0.6308 -1.0640 -0.2891
  656MOL0     C88488  10.752   0.689   3.105 -1.5374  0.3423  0.3498
  656MOL0     C88489  10.872   0.676   3.091 -0.2652  0.4433  0.1894
  656MOL0     C88490  10.588   0.869   3.686  0.1366 -0.0262 -0.2193
  656MOL0     C88491  10.497   0.897   3.790 -0.4279  0.1618 -0.6972
  656MOL0     C88492  10.437   1.036   3.792  0.5018  0.5585  0.4224
  656MOL0     H88493  10.198   0.986   4.125 -1.0303  2.4760 -0.0668
  656MOL0     H88494  10.092   1.065   4.336  1.8037  0.9298 -3.6876
  656MOL0     H88495  10.026   1.105   4.537 -2.3668 -2.9578  0.4361
  656MOL0     H88496  10.020   0.974   4.635  0.0298 -0.1081 -0.2758
  656MOL0     H88497  10.124   1.252   4.742 -0.6786  0.1236 -1.5777
  656MOL0     H88498  10.132   1.107   4.833 -2.3180 -0.5601  0.5166
  656MOL0     H88499   9.910   1.280   4.749 -0.1025 -1.4673 -3.7550
  656MOL0     H88500   9.971   1.208   4.900  0.8489 -2.8507 -0.1945
  656MOL0     H88501   9.826   1.050   4.683  2.8250  1.6053 -1.1399
  656MOL0     H88502   9.854   0.991   4.851 -0.8398  0.3968  0.7458
  656MOL0     H88503   9.654   1.213   4.768  0.6128  2.2966  1.4628
  656MOL0     H88504   9.621   1.049   4.830 -1.8920  2.3996 -1.7128
  656MOL0     H88505   9.749   1.279   4.970  2.1833 -3.3292 -4.9481
  656MOL0     H88506   9.585   1.222   4.995 -0.8212  0.4534 -0.9775
  656MOL0     H88507   9.846   1.102   5.080  0.2155 -0.2845  0.9481
  656MOL0     H88508   9.717   0.994   5.067  0.6370  0.4143  2.1598
  656MOL0     H88509   9.578   1.139   5.213  0.5223  3.0338 -1.8024
  656MOL0     H88510   9.700   1.058   5.305 -3.2697 -1.1031 -0.1892
  656MOL0     H88511   9.600   1.292   5.457 -0.8636  0.2223 -0.6995
  656MOL0     H88512   9.667   1.458   5.588 -1.5030 -0.2887 -1.5230
  656MOL0     H88513   9.792   1.579   5.547 -0.5506  2.3376 -1.2565
  656MOL0     H88514   9.496   1.575   5.483  0.5922  0.7470  0.3666
  656MOL0     H88515   9.600   1.698   5.545 -0.8350 -2.4167  1.1840
  656MOL0     H88516   9.695   1.666   5.286 -1.1103 -1.5880 -0.9473
  656MOL0     H88517   9.597   1.800   5.368 -1.9635 -0.4919  1.3713
  656MOL0     H88518   9.490   1.546   5.210  3.0972 -0.2543 -0.4850
  656MOL0     H88519   9.532   1.698   5.134  4.2875 -3.5247 -0.0967
  656MOL0     H88520   9.305   1.571   5.072  3.2001  1.9892  1.9365
  656MOL0     H88521   9.057   1.552   4.994  0.0976  2.1365 -0.8885
  656MOL0     H88522   8.856   1.884   4.799  1.4850 -3.9755  2.8768
  656MOL0     H88523   8.683   2.015   4.697  2.2212 -0.1264  0.9651
  656MOL0     H88524   8.455   1.992   4.537 -0.3258  3.8543  3.1721
  656MOL0     H88525   8.381   1.829   4.578 -0.1388 -0.0054 -1.1278
  656MOL0     H88526   8.224   1.974   4.462  2.8998  0.5629 -0.9298
  656MOL0     H88527   8.168   1.955   4.637 -0.3025  1.2686  0.1845
  656MOL0     H88528   8.226   2.152   4.702  1.6652 -0.2780 -0.7293
  656MOL0     H88529   8.360   2.191   4.586  2.4836 -1.9929  1.9916
  656MOL0     H88530   8.158   2.334   4.587  1.2328  0.7299  0.1354
  656MOL0     H88531   8.062   2.190   4.540  0.1618 -1.7817 -0.1343
  656MOL0     H88532   8.231   2.148   4.343 -0.4173  0.3596  0.4894
  656MOL0     H88533   8.292   2.304   4.369  0.9851 -1.4313 -3.0840
  656MOL0     H88534   8.150   2.314   4.194  0.2601  0.1176  0.7015
  656MOL0     H88535   8.015   2.244   4.288  1.5841 -1.6587 -0.4622
  656MOL0     H88536   7.984   2.440   4.415 -0.7948 -1.2917 -1.0573
  656MOL0     H88537   7.983   2.472   4.238  3.1652  1.5578 -0.7711
  656MOL0     H88538   8.095   2.648   4.385 -1.5733 -1.4127 -0.9433
  656MOL0     H88539   8.219   2.535   4.422 -1.6439 -1.3266  1.7500
  656MOL0     H88540   8.391   1.725   4.856 -1.6112  1.5071 -0.3797
  656MOL0     H88541   8.581   1.611   4.976  2.4024 -0.7963 -0.1694
  656MOL0     H88542   8.942   1.806   5.316 -0.1470 -0.2148 -1.7515
  656MOL0     H88543   9.183   1.835   5.384 -0.1089  3.0176 -1.8486
  656MOL0     H88544  10.464   0.969   4.537 -1.5485 -1.8233  0.8058
  656MOL0     H88545  10.570   0.937   4.335  1.5637  0.5668 -2.4204
  656MOL0     H88546  10.534   0.616   3.968  0.1428  0.1992  0.6675
  656MOL0     H88547  10.693   0.566   3.781  1.0853  1.0389 -0.5030
  656MOL0     H88548  10.808   0.696   3.389 -1.0831 -1.2780 -1.8714
  656MOL0     H88549  10.735   0.849   3.449 -3.1849 -0.1251  2.3955
  656MOL0     H88550  10.504   0.694   3.445 -0.7718 -0.6927 -0.8902
  656MOL0     H88551  10.621   0.594   3.360  1.4026 -0.0976  1.6018
  656MOL0     H88552  10.615   0.863   3.226 -1.8681  1.3123  1.9985
  656MOL0     H88553  10.462   0.774   3.226 -0.1790  0.7069  0.7866
  656MOL0     H88554  10.566   0.590   3.137  0.0979 -1.5967 -2.0113
  656MOL0     H88555  10.568   0.736   3.040  0.3775  3.1329  1.2315
  656MOL0     H88556  10.978   0.679   3.079 -0.2120 -1.9595 -0.3559
  656MOL0     H88557  10.618   0.947   3.616  0.3716 -1.8882 -2.2964
  656MOL0     H88558  10.446   1.074   3.690 -1.2972  0.8715  0.3558
  656MOL0     H88559  10.336   1.048   3.832  0.1799 -0.4172 -0.0722
  656MOL0     H88560  10.496   1.102   3.857  2.7354 -0.3539 -0.5599
  657MOL0     O88561   1.954   5.079   3.438  0.2386  0.2074  0.2224
  657MOL0     C88562   1.872   4.987   3.436 -0.3634 -0.0532 -1.5661
  657MOL0     O88563   1.741   4.993   3.415 -0.2998 -0.0328  0.5192
  657MOL0     C88564   1.697   5.113   3.362  0.4426 -0.6003  0.5668
  657MOL0     C88565   1.764   5.191   3.262  0.0650 -0.7319 -0.0460
  657MOL0     C88566   1.704   5.319   3.216 -0.2312  0.9041 -0.0195
  657MOL0     C88567   1.588   5.366   3.274  0.7637  0.7272  0.3849
  657MOL0     O88568   1.533   5.481   3.221  0.0583  0.1283 -0.3637
  657MOL0     C88569   1.437   5.550   3.305 -0.1107  0.1376  0.1297
  657MOL0     C88570   1.403   5.681   3.239  0.3130  0.0123 -0.7633
  657MOL0     C88571   1.503   5.800   3.268 -0.7519  0.1674  0.3702
  657MOL0     C88572   1.446   5.927   3.205  0.1080 -1.1986  0.1850
  657MOL0     C88573   1.550   6.038   3.201  0.5611  0.1002  0.0972
  657MOL0     C88574   1.602   6.077   3.347 -0.7405 -0.6497  0.2767
  657MOL0     C88575   1.704   6.190   3.357 -0.4977  1.3680  0.6983
  657MOL0     C88576   1.837   6.137   3.295 -0.9276  0.3226  0.6516
  657MOL0     N88577   1.845   6.174   3.151 -0.3363 -0.1562 -0.4256
  657MOL0     C88578   1.859   6.298   3.092 -0.1590 -0.6003  0.3384
  657MOL0     C88579   1.859   6.278   2.957  0.0498 -0.1748 -0.1541
  657MOL0     C88580   1.875   6.399   2.865 -0.1441  0.1404 -0.9439
  657MOL0     C88581   1.752   6.469   2.811  0.3558 -0.3581 -0.7387
  657MOL0     C88582   1.672   6.554   2.915 -0.6220 -0.9619 -0.4685
  657MOL0     C88583   1.739   6.690   2.938  0.0472 -0.7167  0.2032
  657MOL0     O88584   1.825   6.675   3.048 -0.0257  0.4309  0.2514
  657MOL0     C88585   1.911   6.776   3.082 -0.0628 -0.1331 -0.2592
  657MOL0     C88586   1.999   6.748   3.183 -0.4915  0.0439 -0.8996
  657MOL0     C88587   2.085   6.842   3.234  0.1113 -0.2271  0.4145
  657MOL0     C88588   2.101   6.964   3.171 -0.0082 -0.1095  0.3933
  657MOL0     C88589   2.176   7.076   3.226 -0.7576 -0.3114  0.0667
  657MOL0     O88590   2.198   7.073   3.369 -0.2892 -1.1504  0.1148
  657MOL0     C88591   2.257   7.175   3.441 -0.2127  0.9682  0.3053
  657MOL0     C88592   2.243   7.312   3.417  0.3424  0.1434  0.7982
  657MOL0     C88593   2.292   7.406   3.507 -0.5778  0.1270 -0.1744
  657MOL0     C88594   2.349   7.368   3.630 -0.7621  0.3652  0.0501
  657MOL0     O88595   2.383   7.454   3.729  0.0870 -0.1144  0.1149
  657MOL0     C88596   2.362   7.595   3.710 -0.7697 -0.6419  1.3497
  657MOL0     C88597   2.218   7.636   3.737 -0.1962 -0.1212  0.1803
  657MOL0     C88598   2.192   7.639   3.887 -0.0045 -0.0422 -0.1625
  657MOL0     C88599   2.040   7.655   3.897 -0.7247 -0.1798 -0.2393
  657MOL0     C88600   2.010   7.618   4.044  0.3761  0.0384 -0.0282
  657MOL0     C88601   1.871   7.669   4.091 -0.2850  0.4655  0.6344
  657MOL0     C88602   1.823   7.601   4.220 -0.1929 -0.0180  0.0101
  657MOL0     C88603   1.687   7.646   4.246 -0.5221 -0.0241  1.0685
  657MOL0    Cl88604   1.614   7.561   4.384  0.5910  0.3338  0.3218
  657MOL0     C88605   2.354   7.231   3.663  0.1972  0.3885  0.2075
  657MOL0     C88606   2.308   7.139   3.570 -0.3512 -0.0528  0.6913
  657MOL0     O88607   2.214   7.169   3.153 -0.7071  0.0636  0.7806
  657MOL0     C88608   2.017   6.994   3.059  0.4392 -0.3778 -0.5580
  657MOL0     C88609   1.915   6.905   3.017 -0.6622 -0.6133 -0.5707
  657MOL0     N88610   1.863   6.143   2.928 -0.1121 -0.6646 -0.2717
  657MOL0     N88611   1.858   6.082   3.043  0.0431  0.0525  0.0027
  657MOL0     C88612   1.529   5.291   3.371 -0.4452  1.1382 -0.4091
  657MOL0     C88613   1.587   5.169   3.424  0.0439 -0.3800 -0.3416
  657MOL0     C88614   1.933   4.855   3.476 -0.2893 -0.2329 -0.4448
  657MOL0     C88615   2.052   4.808   3.422  0.4229 -0.0489  0.4947
  657MOL0     C88616   2.112   4.688   3.469 -0.3128  0.2337  0.1544
  657MOL0     C88617   2.055   4.614   3.564 -0.1329  0.1752 -0.8433
  657MOL0     O88618   2.114   4.503   3.609 -0.5923 -0.0716 -0.6743
  657MOL0     C88619   2.065   4.445   3.732 -0.4978  0.6797  0.3673
  657MOL0     C88620   2.156   4.323   3.755  0.2099 -0.3387  0.0907
  657MOL0     C88621   2.148   4.222   3.650 -0.4591  0.5501  0.7736
  657MOL0     C88622   2.226   4.089   3.682  0.5999  0.3869  0.8267
  657MOL0     C88623   2.182   3.976   3.610 -0.2508  0.9120 -0.9234
  657MOL0     C88624   2.151   3.865   3.575  0.2008 -0.0854  0.4227
  657MOL0     C88625   1.932   4.652   3.618  0.3957 -0.0990  0.4022
  657MOL0     C88626   1.872   4.769   3.578 -0.4004  0.5132  0.0411
  657MOL0     C88627   1.754   4.823   3.659  0.9368 -0.3874 -1.1001
  657MOL0     H88628   1.854   5.159   3.211 -1.1565 -1.4092 -1.8507
  657MOL0     H88629   1.755   5.371   3.136 -0.2377  0.5032 -0.2854
  657MOL0     H88630   1.347   5.488   3.299 -0.8316  0.9236  2.0917
  657MOL0     H88631   1.478   5.564   3.405 -3.1953  1.6176  1.3323
  657MOL0     H88632   1.305   5.717   3.271  0.6162 -0.3493  0.6708
  657MOL0     H88633   1.388   5.651   3.135 -2.8047  1.7565 -0.9359
  657MOL0     H88634   1.598   5.783   3.217 -0.7909  3.7461 -1.1996
  657MOL0     H88635   1.513   5.823   3.375  0.0875  2.3583 -0.1309
  657MOL0     H88636   1.406   5.907   3.105 -0.9095  0.8662  0.1208
  657MOL0     H88637   1.365   5.963   3.269 -0.8098  1.5700 -2.2716
  657MOL0     H88638   1.621   6.006   3.125 -0.4986  2.0877 -1.8464
  657MOL0     H88639   1.505   6.129   3.161  2.1565  0.2610 -1.4331
  657MOL0     H88640   1.525   6.105   3.419 -1.2268 -1.4184  0.0703
  657MOL0     H88641   1.653   5.996   3.399  1.5419  0.6879  0.2244
  657MOL0     H88642   1.735   6.207   3.461  3.7831  0.3904 -0.2286
  657MOL0     H88643   1.664   6.280   3.309 -3.8453  0.5521  1.6958
  657MOL0     H88644   1.917   6.172   3.361  0.5175 -1.3460 -0.1242
  657MOL0     H88645   1.856   6.030   3.305  0.0940  0.3860 -0.3881
  657MOL0     H88646   1.854   6.393   3.143 -2.4073  0.5000 -1.7756
  657MOL0     H88647   1.950   6.471   2.900  0.5268 -0.5278 -0.9756
  657MOL0     H88648   1.931   6.355   2.782  3.7822 -2.1321  2.5151
  657MOL0     H88649   1.801   6.535   2.738  0.1660  0.6583  0.0374
  657MOL0     H88650   1.684   6.399   2.762 -1.0544 -1.5164  2.5700
  657MOL0     H88651   1.660   6.493   3.004  1.6702 -0.1818  0.4437
  657MOL0     H88652   1.577   6.573   2.864 -0.7416 -3.5945 -1.3473
  657MOL0     H88653   1.661   6.765   2.958  1.4120  1.4199 -2.0307
  657MOL0     H88654   1.788   6.729   2.849 -1.6779  2.8459  0.6645
  657MOL0     H88655   1.992   6.649   3.228 -0.1949 -0.9635 -2.9832
  657MOL0     H88656   2.151   6.834   3.320  0.0889 -1.1434  0.3490
  657MOL0     H88657   2.176   7.340   3.337  1.7408  2.2943  0.2848
  657MOL0     H88658   2.259   7.508   3.491 -0.4429  0.7369  2.8207
  657MOL0     H88659   2.435   7.652   3.769  1.6738  2.3594 -3.8584
  657MOL0     H88660   2.379   7.622   3.606  2.7952 -1.7871  1.5067
  657MOL0     H88661   2.206   7.734   3.690 -2.3069 -1.0094 -1.2906
  657MOL0     H88662   2.152   7.560   3.694 -0.8162 -0.3664  1.5009
  657MOL0     H88663   2.217   7.542   3.931  2.3421  0.6292  0.1316
  657MOL0     H88664   2.254   7.718   3.930 -0.5030  0.6519 -0.6972
  657MOL0     H88665   1.980   7.582   3.843 -2.6687 -1.9415  3.8456
  657MOL0     H88666   2.000   7.754   3.874 -1.6890 -0.9194 -1.9467
  657MOL0     H88667   2.076   7.672   4.113  0.9832 -0.3934 -0.2574
  657MOL0     H88668   2.017   7.510   4.053 -0.0869 -0.1563 -1.6290
  657MOL0     H88669   1.882   7.777   4.106  0.3150  0.4706  0.2058
  657MOL0     H88670   1.797   7.648   4.014  0.2135 -0.3640  0.3646
  657MOL0     H88671   1.883   7.628   4.307 -0.2180 -1.8246  0.6456
  657MOL0     H88672   1.821   7.491   4.227 -4.1343 -0.0428  0.5673
  657MOL0     H88673   1.684   7.755   4.256 -3.6780  0.0781 -0.0292
  657MOL0     H88674   1.621   7.640   4.159 -1.5458 -0.7582  1.8880
  657MOL0     H88675   2.385   7.214   3.766 -2.4566 -0.0302  1.0062
  657MOL0     H88676   2.319   7.032   3.587 -0.9245 -0.4022 -0.9809
  657MOL0     H88677   2.035   7.093   3.018 -0.2877  2.6224  5.2940
  657MOL0     H88678   1.851   6.931   2.933  1.2636 -1.0004 -2.2370
  657MOL0     H88679   1.438   5.320   3.423 -1.2276  0.3782 -1.3114
  657MOL0     H88680   1.529   5.119   3.501 -2.9226  0.9238 -1.5482
  657MOL0     H88681   2.096   4.860   3.338 -1.4706 -0.0685 -0.5719
  657MOL0     H88682   2.207   4.647   3.436 -1.2100 -2.5556  0.8076
  657MOL0     H88683   1.961   4.411   3.731  0.6330 -3.1288 -0.4828
  657MOL0     H88684   2.077   4.514   3.817 -2.9938  0.4807  0.9602
  657MOL0     H88685   2.130   4.287   3.855  0.0609  0.9820  0.5412
  657MOL0     H88686   2.263   4.345   3.756  0.1927 -0.2578  0.1619
  657MOL0     H88687   2.192   4.270   3.562  0.9761  0.9278  1.6665
  657MOL0     H88688   2.046   4.196   3.622 -0.4405 -2.3894  2.9435
  657MOL0     H88689   2.334   4.095   3.664  0.2928 -2.2213 -3.1923
  657MOL0     H88690   2.213   4.059   3.786 -2.3038 -0.8303  0.1981
  657MOL0     H88691   2.132   3.761   3.565  0.3786 -0.2752  1.9057
  657MOL0     H88692   1.882   4.605   3.702  2.0148 -1.2199  0.7689
  657MOL0     H88693   1.660   4.791   3.613  1.3471  0.3044 -2.4562
  657MOL0     H88694   1.765   4.805   3.767  1.0174  0.0715 -1.0318
  657MOL0     H88695   1.746   4.931   3.652  1.2948 -0.1917  0.8823
  658MOL0     O88696   6.884   8.854  10.253 -0.1724  0.3855  0.1992
  658MOL0     C88697   6.881   8.772  10.340 -0.1761  0.2276  0.4248
  658MOL0     O88698   6.989   8.691  10.365 -0.3463 -0.4386  0.0732
  658MOL0     C88699   7.112   8.716  10.311  0.1678  1.0842  1.0184
  658MOL0     C88700   7.187   8.828  10.318  0.4369  1.1746 -0.1660
  658MOL0     C88701   7.314   8.838  10.273  0.1630 -1.0562 -0.1164
  658MOL0     C88702   7.378   8.725  10.213  0.1522  0.3612  0.0541
  658MOL0     O88703   7.509   8.721  10.196 -1.1123  0.5716 -0.2268
  658MOL0     C88704   7.588   8.824  10.262  0.6705  0.1900  0.6834
  658MOL0     C88705   7.730   8.793  10.252  0.3651  0.3967  0.8233
  658MOL0     C88706   7.816   8.904  10.304  0.1890 -0.5282  1.5168
  658MOL0     C88707   7.821   9.041  10.226 -0.4658  0.6122 -0.7023
  658MOL0     C88708   7.937   9.130  10.265 -0.3777  0.0345 -0.7258
  658MOL0     C88709   7.940   9.170  10.422 -1.0223  0.8386  0.5514
  658MOL0     C88710   8.075   9.248  10.451  0.4008 -0.6128  0.5127
  658MOL0     C88711   8.059   9.293  10.594  0.0841  0.5779 -0.6793
  658MOL0     N88712   8.177   9.369  10.641  0.7555 -0.4232 -0.1229
  658MOL0     C88713   8.182   9.506  10.639 -0.7326 -0.8748  0.6492
  658MOL0     C88714   8.303   9.539  10.675 -0.9711  0.1341 -0.2345
  658MOL0     C88715   8.366   9.679  10.668 -1.3841  0.2867  0.1780
  658MOL0     C88716   8.397   9.732  10.806  0.5019 -0.5888 -0.4568
  658MOL0     C88717   8.513   9.666  10.879 -0.1126 -0.4490  0.4364
  658MOL0     C88718   8.637   9.699  10.796 -0.5687  0.1651 -0.9345
  658MOL0     O88719   8.744   9.677  10.894 -0.0389 -0.3941  0.3792
  658MOL0     C88720   8.872   9.711  10.860 -0.5867 -0.1512 -0.3486
  658MOL0     C88721   8.920   9.721  10.734 -0.0570  0.4063 -0.1569
  658MOL0     C88722   9.062   9.751  10.714  0.6513  0.0315 -0.3711
  658MOL0     C88723   9.150   9.774  10.821 -0.4750 -0.2004  0.1027
  658MOL0     C88724   9.295   9.794  10.805 -0.1379  0.1051  0.3914
  658MOL0     O88725   9.334   9.749  10.676 -0.3198  0.7015  0.0592
  658MOL0     C88726   9.456   9.678  10.665  0.0197 -0.3094 -0.7403
  658MOL0     C88727   9.583   9.737  10.696 -0.1034 -0.4758 -0.3064
  658MOL0     C88728   9.702   9.666  10.664  0.5594 -0.1312 -0.2397
  658MOL0     C88729   9.693   9.555  10.583  0.2202  0.2515  0.4225
  658MOL0     O88730   9.796   9.495  10.517 -0.0466 -1.1342 -0.2998
  658MOL0     C88731   9.940   9.529  10.554 -0.0299 -0.8049 -0.1942
  658MOL0     C88732  10.029   9.424  10.490  0.3397  0.6479 -0.7868
  658MOL0     C88733  10.175   9.457  10.513  0.1381 -0.1547 -0.9510
  658MOL0     C88734  10.255   9.336  10.480  0.3296  0.7369 -0.9992
  658MOL0     C88735  10.405   9.353  10.485  1.1513 -0.7827  0.8927
  658MOL0     C88736  10.456   9.215  10.481 -0.3245 -0.6642  0.7048
  658MOL0     C88737  10.599   9.206  10.532 -0.0801 -0.3976  0.3060
  658MOL0     C88738  10.701   9.285  10.451  0.1275  0.7935  0.1450
  658MOL0    Cl88739  10.848   9.301  10.550 -0.3991  0.2841  0.2512
  658MOL0     C88740   9.565   9.501  10.551  0.1845 -0.3934 -0.4244
  658MOL0     C88741   9.444   9.558  10.596 -0.6485 -0.0516 -0.5355
  658MOL0     O88742   9.370   9.830  10.892  0.3597 -0.2736  0.5275
  658MOL0     C88743   9.091   9.768  10.951  0.1755  0.1023  0.2411
  658MOL0     C88744   8.951   9.735  10.972  0.1700 -0.1699  0.4347
  658MOL0     N88745   8.366   9.424  10.723 -0.1099  0.9147  0.3564
  658MOL0     N88746   8.290   9.322  10.698 -0.1312 -0.0224 -0.0868
  658MOL0     C88747   7.309   8.609  10.214 -0.3912 -0.5927  0.3806
  658MOL0     C88748   7.178   8.605  10.252 -0.1615 -1.0875 -0.4081
  658MOL0     C88749   6.754   8.754  10.414  0.0586 -0.1012 -0.0744
  658MOL0     C88750   6.651   8.842  10.386 -0.1345 -0.6235  0.7349
  658MOL0     C88751   6.530   8.831  10.453 -0.2054  0.1821 -0.2025
  658MOL0     C88752   6.504   8.730  10.548  0.2116  0.6956 -0.9919
  658MOL0     O88753   6.379   8.722  10.595 -0.0008  0.0458 -0.2801
  658MOL0     C88754   6.337   8.831  10.675 -0.5426 -0.3087  0.7847
  658MOL0     C88755   6.188   8.822  10.714 -0.2347 -0.3371  0.5302
  658MOL0     C88756   6.157   8.729  10.835 -0.5189  0.9309  0.1387
  658MOL0     C88757   6.006   8.694  10.833  1.1389 -0.7546 -0.6047
  658MOL0     C88758   5.906   8.804  10.805 -0.3258 -0.3746  0.9612
  658MOL0     C88759   5.825   8.895  10.790  0.2118 -0.1099 -1.2457
  658MOL0     C88760   6.606   8.640  10.579 -0.6081  1.1555  0.5966
  658MOL0     C88761   6.729   8.653  10.511  1.2294 -0.2519  0.1329
  658MOL0     C88762   6.825   8.539  10.532  0.5080  0.4695  0.1473
  658MOL0     H88763   7.148   8.915  10.371  0.5900 -0.2789  2.4676
  658MOL0     H88764   7.350   8.939  10.286 -1.6760 -0.4689  0.7836
  658MOL0     H88765   7.573   8.913  10.200 -1.4371  0.2751  1.2406
  658MOL0     H88766   7.558   8.845  10.365 -0.2205  1.8665  0.1114
  658MOL0     H88767   7.748   8.772  10.147 -1.0082 -1.4572  0.9162
  658MOL0     H88768   7.735   8.698  10.306 -2.1917 -0.1812  0.1696
  658MOL0     H88769   7.916   8.861  10.308 -0.0256 -1.1041  0.7839
  658MOL0     H88770   7.771   8.922  10.402 -4.1226 -2.5002  0.1424
  658MOL0     H88771   7.843   9.024  10.120  1.3849  2.1567 -0.6273
  658MOL0     H88772   7.734   9.105  10.242 -0.3681  0.3264  1.1872
  658MOL0     H88773   8.032   9.084  10.238  1.1627  0.6322  3.0554
  658MOL0     H88774   7.950   9.223  10.209  0.0275 -0.2159 -1.0538
  658MOL0     H88775   7.851   9.232  10.440  0.4292  2.6500  1.8855
  658MOL0     H88776   7.947   9.075  10.476  1.1832  0.3211 -0.5296
  658MOL0     H88777   8.072   9.338  10.389 -2.8472  0.0589  1.4266
  658MOL0     H88778   8.163   9.187  10.430  0.4901 -0.7830  1.3460
  658MOL0     H88779   7.966   9.346  10.618 -0.0011  0.0238  0.2873
  658MOL0     H88780   8.053   9.202  10.654  0.9274 -0.8875 -2.6924
  658MOL0     H88781   8.109   9.577  10.601 -0.4203 -0.9679 -0.1464
  658MOL0     H88782   8.453   9.675  10.602  0.0821 -0.9095  2.0700
  658MOL0     H88783   8.288   9.737  10.618 -0.7078  0.1401 -1.0713
  658MOL0     H88784   8.412   9.841  10.810  2.8162 -0.7368 -2.2965
  658MOL0     H88785   8.309   9.720  10.868  0.3732 -0.7353 -0.6679
  658MOL0     H88786   8.498   9.559  10.900  1.1451 -0.4701  1.3355
  658MOL0     H88787   8.515   9.725  10.970  0.8345 -0.7939  0.6533
  658MOL0     H88788   8.638   9.806  10.772  1.2867  0.8867  1.8188
  658MOL0     H88789   8.654   9.636  10.709 -2.7262 -1.2535 -0.4218
  658MOL0     H88790   8.847   9.706  10.656  0.1207  0.9444 -0.4302
  658MOL0     H88791   9.089   9.749  10.609 -1.6197  0.2391 -1.0095
  658MOL0     H88792   9.583   9.841  10.728 -3.8394  0.1639 -1.9149
  658MOL0     H88793   9.802   9.704  10.684  1.9228 -2.6762 -1.6430
  658MOL0     H88794   9.963   9.627  10.511  0.6750 -1.0736 -0.4548
  658MOL0     H88795   9.962   9.529  10.661  0.6303 -2.4666 -0.2849
  658MOL0     H88796  10.006   9.331  10.544 -0.6538  0.2862 -1.7805
  658MOL0     H88797  10.010   9.405  10.384 -3.2801 -1.8245  0.1125
  658MOL0     H88798  10.203   9.538  10.445 -0.5172 -0.0761 -1.1394
  658MOL0     H88799  10.187   9.491  10.617 -2.2675  1.7705 -1.1827
  658MOL0     H88800  10.232   9.295  10.381  1.8413  0.1352 -1.1424
  658MOL0     H88801  10.229   9.259  10.552  0.6249 -0.1042 -1.7678
  658MOL0     H88802  10.439   9.407  10.574 -2.4066 -0.4281  2.2180
  658MOL0     H88803  10.422   9.410  10.393 -0.0978 -1.8599 -0.0345
  658MOL0     H88804  10.402   9.147  10.548 -2.9097  0.6609  0.1160
  658MOL0     H88805  10.439   9.181  10.379 -0.1699 -0.5323  0.6362
  658MOL0     H88806  10.635   9.103  10.542 -2.7184 -1.3904  0.2345
  658MOL0     H88807  10.599   9.247  10.634 -0.1725 -0.9872  0.5450
  658MOL0     H88808  10.726   9.237  10.356  0.7011  3.0502 -0.9138
  658MOL0     H88809  10.667   9.386  10.423 -1.0866  0.1813 -0.6681
  658MOL0     H88810   9.571   9.422  10.476 -1.1311  0.8685 -1.9194
  658MOL0     H88811   9.346   9.519  10.569 -1.2109 -1.0215  2.4951
  658MOL0     H88812   9.159   9.788  11.032  1.0713 -0.2622 -0.4053
  658MOL0     H88813   8.905   9.722  11.070  1.0704  1.5414  1.1262
  658MOL0     H88814   7.359   8.518  10.184 -0.0728 -0.4523  0.4818
  658MOL0     H88815   7.129   8.508  10.243 -3.2102  0.0859  1.6506
  658MOL0     H88816   6.672   8.927  10.321  1.1302 -0.3810  1.4269
  658MOL0     H88817   6.432   8.873  10.432 -2.7022 -4.3266  1.0219
  658MOL0     H88818   6.350   8.919  10.611  1.0727 -0.9107  0.2172
  658MOL0     H88819   6.393   8.838  10.769 -0.3464  1.3386  0.5766
  658MOL0     H88820   6.133   8.794  10.624  2.0542  1.6522 -1.6403
  658MOL0     H88821   6.166   8.923  10.752 -0.5406 -0.0456 -0.3985
  658MOL0     H88822   6.193   8.776  10.927 -1.9847 -2.4211  2.6515
  658MOL0     H88823   6.215   8.638  10.819 -0.0520  1.5307 -1.8106
  658MOL0     H88824   5.988   8.629  10.747 -4.1023  1.4731 -1.5651
  658MOL0     H88825   5.970   8.641  10.922 -0.6168 -0.4168 -1.0791
  658MOL0     H88826   5.758   8.977  10.779  1.0139  1.1229  1.8379
  658MOL0     H88827   6.595   8.557  10.647  1.0188  0.1917 -0.2583
  658MOL0     H88828   6.918   8.569  10.582  0.0816 -0.4630  1.5598
  658MOL0     H88829   6.773   8.462  10.590  1.9371  0.2324  1.1676
  658MOL0     H88830   6.853   8.488  10.440  1.3696  2.7628 -0.9292
  659MOL0     O88831   2.289   0.411   9.698 -0.1914  0.7772 -0.0966
  659MOL0     C88832   2.400   0.433   9.742 -0.7003  0.6363 -0.2295
  659MOL0     O88833   2.425   0.441   9.880  0.4456 -0.4689 -0.4000
  659MOL0     C88834   2.313   0.458   9.962 -0.5057 -0.0076 -1.1067
  659MOL0     C88835   2.273   0.356  10.052 -0.2194  0.0720 -0.5818
  659MOL0     C88836   2.172   0.382  10.144 -0.1172  0.4816  0.0049
  659MOL0     C88837   2.110   0.505  10.154  0.2227  0.6666 -0.2906
  659MOL0     O88838   2.016   0.540  10.249  0.0766 -0.7681  0.4708
  659MOL0     C88839   2.009   0.459  10.370  0.5488  0.6487 -0.3422
  659MOL0     C88840   1.939   0.523  10.487 -0.9783 -0.2797 -1.6261
  659MOL0     C88841   1.947   0.445  10.623 -0.1443  0.2145 -0.8299
  659MOL0     C88842   1.862   0.503  10.741  0.0690 -0.4812  0.1535
  659MOL0     C88843   1.925   0.448  10.872 -1.2133 -1.0843 -0.0024
  659MOL0     C88844   1.865   0.517  10.990  0.5716  0.7024  0.8777
  659MOL0     C88845   1.929   0.463  11.122  0.1512  0.3332  1.0717
  659MOL0     C88846   1.899   0.519  11.265  0.3985  0.3639 -0.9103
  659MOL0     N88847   1.920   0.411  11.362 -0.2431  0.5746  0.8123
  659MOL0     C88848   1.824   0.320  11.394 -0.2393 -0.3707  0.5986
  659MOL0     C88849   1.876   0.236  11.486 -0.9616  0.0172  0.1051
  659MOL0     C88850   1.806   0.113  11.547  0.5745 -0.7653 -0.0174
  659MOL0     C88851   1.653   0.127  11.575 -0.3575  0.1960  0.0120
  659MOL0     C88852   1.595   0.004  11.639 -0.5350 -0.1649 -0.0556
  659MOL0     C88853   1.450   0.034  11.681 -0.5042 -0.3078  0.0605
  659MOL0     O88854   1.372   0.041  11.560  0.0308 -0.8547 -0.0304
  659MOL0     C88855   1.236   0.059  11.585  0.4543  1.5208  0.1211
  659MOL0     C88856   1.168   0.117  11.478 -0.1926 -0.5454  0.0527
  659MOL0     C88857   1.028   0.150  11.486  0.5400  0.0217  0.3635
  659MOL0     C88858   0.957   0.129  11.606  0.3788 -0.3342 -0.8338
  659MOL0     C88859   0.812   0.169  11.627  0.7061  0.2247 -0.6987
  659MOL0     O88860   0.754   0.148  11.743  0.4412 -0.2393  0.1198
  659MOL0     C88861   0.626   0.193  11.761 -0.4429  0.3133 -0.6743
  659MOL0     C88862   0.566   0.313  11.705 -0.3429 -0.1520 -0.9007
  659MOL0     C88863   0.426   0.323  11.714 -0.5233 -0.1515 -0.6592
  659MOL0     C88864   0.350   0.241  11.796  0.5320  0.8928 -0.9091
  659MOL0     O88865   0.217   0.271  11.813  0.3306  0.8186  0.2588
  659MOL0     C88866   0.166   0.263  11.943  0.7172  0.5084  0.4437
  659MOL0     C88867   0.036   0.344  11.952 -0.4875 -0.5127  0.0253
  659MOL0     C88868  -0.085   0.301  11.863  0.1254 -0.0558 -0.5912
  659MOL0     C88869  -0.097   0.153  11.861  0.1013  0.1858 -0.5505
  659MOL0     C88870  -0.228   0.121  11.795 -0.1572 -0.2178  0.8392
  659MOL0     C88871  -0.219   0.116  11.638 -1.7666 -0.4609  0.8105
  659MOL0     C88872  -0.109   0.036  11.569  0.2204 -0.1034  0.4668
  659MOL0     C88873  -0.104  -0.110  11.624 -0.6191  0.1612 -0.7647
  659MOL0    Cl88874   0.044  -0.194  11.546  0.1432  0.2616  0.5837
  659MOL0     C88875   0.419   0.136  11.851  0.0268 -0.5939 -0.8930
  659MOL0     C88876   0.552   0.105  11.841 -0.3062 -0.0245  0.2758
  659MOL0     O88877   0.756   0.205  11.526  0.1387  0.3264  0.4483
  659MOL0     C88878   1.028   0.073  11.716 -0.7904  0.1549  1.1540
  659MOL0     C88879   1.167   0.037  11.710 -0.6806  0.0631 -0.4280
  659MOL0     N88880   2.008   0.277  11.502 -0.1734 -0.1940  0.4878
  659MOL0     N88881   2.040   0.383  11.424 -0.0981 -0.0219 -1.3413
  659MOL0     C88882   2.159   0.611  10.075  0.6646  0.5150 -0.4988
  659MOL0     C88883   2.261   0.580   9.978 -0.0202  0.2069 -0.3279
  659MOL0     C88884   2.517   0.471   9.650 -0.9942  0.0505  0.1693
  659MOL0     C88885   2.635   0.532   9.704  0.3177 -0.0211 -0.2364
  659MOL0     C88886   2.729   0.584   9.617 -0.0177  0.3998 -1.2457
  659MOL0     C88887   2.713   0.573   9.479 -0.0949 -0.5501 -0.4212
  659MOL0     O88888   2.809   0.627   9.394  0.2596 -0.1094  0.2435
  659MOL0     C88889   2.752   0.730   9.311 -0.7232 -0.4784 -0.8319
  659MOL0     C88890   2.742   0.699   9.161 -0.1927  0.3008 -0.0224
  659MOL0     C88891   2.865   0.754   9.075 -0.1858  0.9637 -0.5110
  659MOL0     C88892   2.827   0.773   8.932  0.4019  0.7057  0.4020
  659MOL0     C88893   2.939   0.807   8.848  0.3906  0.4550 -0.5465
  659MOL0     C88894   3.023   0.855   8.779  0.2077 -0.9783  0.3968
  659MOL0     C88895   2.605   0.503   9.424  0.0386  0.1528 -0.0415
  659MOL0     C88896   2.517   0.449   9.512  0.2839  0.0317  0.8016
  659MOL0     C88897   2.431   0.349   9.446 -0.8576 -0.0839  1.1393
  659MOL0     H88898   2.332   0.266  10.063  0.7265  0.8116  0.7264
  659MOL0     H88899   2.142   0.304  10.213  0.1933  0.8504  0.5653
  659MOL0     H88900   1.959   0.366  10.342 -2.0189  1.6493  0.6175
  659MOL0     H88901   2.105   0.424  10.409  0.0239 -0.8521 -0.3572
  659MOL0     H88902   1.834   0.530  10.456 -0.5830  0.1264 -2.9617
  659MOL0     H88903   1.978   0.624  10.505 -1.9608 -0.2178  0.4934
  659MOL0     H88904   2.052   0.454  10.655 -0.4281  1.4241 -0.1904
  659MOL0     H88905   1.924   0.339  10.611  2.5402 -0.6116  0.4227
  659MOL0     H88906   1.866   0.610  10.721  0.0170 -0.5813 -0.3965
  659MOL0     H88907   1.756   0.477  10.733 -0.0870 -0.1784  1.0782
  659MOL0     H88908   1.904   0.340  10.869 -1.3316 -1.0636 -2.4799
  659MOL0     H88909   2.035   0.448  10.872 -1.1387 -0.3677 -2.9193
  659MOL0     H88910   1.887   0.624  10.983 -1.1820  0.9959 -1.0841
  659MOL0     H88911   1.756   0.515  10.984  0.6476  1.3923 -2.0118
  659MOL0     H88912   2.037   0.469  11.106 -0.1673  1.2224 -1.1632
  659MOL0     H88913   1.895   0.359  11.123 -2.1193  0.9935 -0.2967
  659MOL0     H88914   1.962   0.604  11.291 -1.6517  1.3722  1.1427
  659MOL0     H88915   1.795   0.552  11.276  0.7085  1.2334 -0.5191
  659MOL0     H88916   1.728   0.315  11.343 -1.1856  1.2694  2.0791
  659MOL0     H88917   1.824   0.033  11.474  1.2114 -2.2879  1.7238
  659MOL0     H88918   1.853   0.080  11.640  0.2997  1.7813  1.0964
  659MOL0     H88919   1.639   0.210  11.645  0.0329 -0.6247  1.0792
  659MOL0     H88920   1.589   0.146  11.488 -0.7008  0.1794  0.2625
  659MOL0     H88921   1.657  -0.003  11.729 -1.4477  2.7647  0.9065
  659MOL0     H88922   1.603  -0.089  11.581 -1.0792 -1.2724  1.5513
  659MOL0     H88923   1.448   0.124  11.743 -0.9233 -1.1034  1.2272
  659MOL0     H88924   1.426  -0.050  11.746 -1.7172  1.2778  1.7613
  659MOL0     H88925   1.220   0.143  11.386  0.0277 -1.7855 -0.1953
  659MOL0     H88926   0.973   0.200  11.407  3.2154  1.6211 -0.6131
  659MOL0     H88927   0.628   0.390  11.659  0.3074  1.0339  1.7618
  659MOL0     H88928   0.381   0.406  11.662 -2.6991 -2.3044 -2.4897
  659MOL0     H88929   0.135   0.159  11.956 -2.5876  0.9305 -2.5811
  659MOL0     H88930   0.246   0.296  12.010  0.2177  2.4105  0.1456
  659MOL0     H88931  -0.013   0.322  12.047 -1.9814 -3.9164 -1.3868
  659MOL0     H88932   0.054   0.451  11.936  0.6574 -0.8547 -1.1817
  659MOL0     H88933  -0.182   0.339  11.896 -1.0211 -2.7623 -0.5734
  659MOL0     H88934  -0.067   0.331  11.760 -3.7358  2.5830 -0.6933
  659MOL0     H88935  -0.093   0.125  11.966  2.5880  0.1185 -0.5987
  659MOL0     H88936  -0.009   0.106  11.817  2.0132 -0.8140  3.8591
  659MOL0     H88937  -0.309   0.190  11.821  1.5345  3.6061 -2.9476
  659MOL0     H88938  -0.260   0.027  11.842 -0.3780  1.0420  3.3742
  659MOL0     H88939  -0.316   0.080  11.604 -1.2883 -1.6624  0.6940
  659MOL0     H88940  -0.214   0.224  11.617 -0.2341 -0.1505  2.5457
  659MOL0     H88941  -0.011   0.083  11.583  0.4315  0.1965 -1.6463
  659MOL0     H88942  -0.132   0.034  11.462 -1.2762 -0.4334  0.7722
  659MOL0     H88943  -0.103  -0.106  11.733 -3.5429  0.3154 -0.6638
  659MOL0     H88944  -0.197  -0.161  11.595 -0.9011 -0.5403  1.2199
  659MOL0     H88945   0.362   0.071  11.917 -1.4878  1.8056  0.2836
  659MOL0     H88946   0.604   0.019  11.884 -2.4108 -1.3316  0.3684
  659MOL0     H88947   0.990   0.072  11.817  0.1065  1.4048  1.5291
  659MOL0     H88948   1.225  -0.005  11.793  1.3196 -1.8475 -2.6325
  659MOL0     H88949   2.115   0.710  10.088 -0.8901 -0.2768  0.7575
  659MOL0     H88950   2.302   0.658   9.914 -2.5830  1.9881  0.0472
  659MOL0     H88951   2.655   0.538   9.811 -0.6009 -0.1437 -0.0518
  659MOL0     H88952   2.819   0.625   9.660 -1.7609  0.6559  2.6114
  659MOL0     H88953   2.803   0.823   9.337 -3.1650  0.2026  2.1813
  659MOL0     H88954   2.648   0.758   9.334  0.1300  2.0127  0.3709
  659MOL0     H88955   2.650   0.743   9.121 -0.4670  0.1865  0.4770
  659MOL0     H88956   2.729   0.591   9.160 -2.0974  0.3728  2.7921
  659MOL0     H88957   2.943   0.678   9.065  1.0919  1.8915  1.6958
  659MOL0     H88958   2.899   0.850   9.116  5.4257  0.2039 -2.5121
  659MOL0     H88959   2.776   0.683   8.895  0.8245  1.0392 -1.0598
  659MOL0     H88960   2.750   0.851   8.930 -0.1959  0.1421 -1.7753
  659MOL0     H88961   3.092   0.907   8.715 -1.6346  1.5120  0.2962
  659MOL0     H88962   2.605   0.496   9.316 -1.0856  2.3385 -0.2465
  659MOL0     H88963   2.334   0.399   9.440 -0.6227  0.6662  2.8294
  659MOL0     H88964   2.471   0.331   9.346 -3.4588  3.0031 -0.6494
  659MOL0     H88965   2.434   0.263   9.513  2.3944 -0.2715  0.9371
  660MOL0     O88966  10.498   1.716   1.864  0.5802  0.4216 -0.0501
  660MOL0     C88967  10.375   1.689   1.873  0.1652  0.9575  0.0815
  660MOL0     O88968  10.277   1.784   1.866  0.3097  0.2132  0.0904
  660MOL0     C88969  10.303   1.915   1.853 -0.7123 -0.5123  0.4044
  660MOL0     C88970  10.251   2.017   1.942  0.4043 -0.7636 -0.5559
  660MOL0     C88971  10.289   2.143   1.925 -0.3299 -0.5654 -0.6677
  660MOL0     C88972  10.386   2.178   1.834 -0.5217  0.3353  0.1127
  660MOL0     O88973  10.428   2.308   1.850  0.2008 -0.4888 -0.0946
  660MOL0     C88974  10.504   2.363   1.739 -0.3392 -1.0840 -0.4945
  660MOL0     C88975  10.512   2.513   1.756 -1.0324 -0.4819  0.2558
  660MOL0     C88976  10.614   2.572   1.651 -0.1614  0.8773 -0.1178
  660MOL0     C88977  10.620   2.722   1.691 -1.1348 -0.0258  0.3578
  660MOL0     C88978  10.724   2.799   1.602 -0.1408 -0.2576 -0.4866
  660MOL0     C88979  10.717   2.948   1.625 -0.7997 -0.9412  0.4807
  660MOL0     C88980  10.827   3.021   1.549 -0.1200 -0.1606  0.5083
  660MOL0     C88981  10.810   3.175   1.570  0.5511 -0.2314  0.2165
  660MOL0     N88982  10.786   3.212   1.707  0.3006 -0.0047 -0.0698
  660MOL0     C88983  10.880   3.220   1.803 -0.6703  0.4517 -0.2735
  660MOL0     C88984  10.815   3.251   1.917  0.0184 -0.2180 -0.7377
  660MOL0     C88985  10.875   3.276   2.048 -0.5529 -0.0111  0.2645
  660MOL0     C88986  10.816   3.192   2.157  0.1960  0.0810 -0.4631
  660MOL0     C88987  10.892   3.199   2.291  0.2391  0.0280 -0.1313
  660MOL0     C88988  10.809   3.124   2.398 -0.3576  0.6510 -0.6815
  660MOL0     O88989  10.692   3.195   2.450  0.9171 -0.5230 -0.2465
  660MOL0     C88990  10.593   3.107   2.498 -0.3385 -0.2459 -1.0762
  660MOL0     C88991  10.460   3.136   2.471  0.2818  0.6695 -0.1190
  660MOL0     C88992  10.363   3.047   2.523 -1.2518  0.5617 -0.4747
  660MOL0     C88993  10.391   2.942   2.613 -0.6556  0.2167  0.7383
  660MOL0     C88994  10.282   2.871   2.674  0.1598 -0.3235 -0.7292
  660MOL0     O88995  10.337   2.787   2.777  0.2456  0.1686 -1.0111
  660MOL0     C88996  10.265   2.686   2.844 -0.2002  0.3144 -0.2337
  660MOL0     C88997  10.312   2.670   2.972  0.2889 -0.2612 -0.3095
  660MOL0     C88998  10.243   2.597   3.065  0.7388  0.0529 -0.7789
  660MOL0     C88999  10.120   2.536   3.032 -1.0528  0.9444 -0.5226
  660MOL0     O89000  10.063   2.456   3.128  0.3944  0.1938  0.2061
  660MOL0     C89001   9.952   2.532   3.180  0.0718 -0.3726 -0.3773
  660MOL0     C89002   9.823   2.477   3.119  0.9000 -0.6118  0.5463
  660MOL0     C89003   9.691   2.537   3.180 -0.8936  0.2395 -0.2448
  660MOL0     C89004   9.580   2.538   3.083  0.0238  0.5118  0.7429
  660MOL0     C89005   9.443   2.504   3.152  0.1987 -0.4453 -0.7222
  660MOL0     C89006   9.327   2.474   3.046 -0.0727  1.2630  1.0972
  660MOL0     C89007   9.279   2.596   2.973  0.7479  0.9715  0.0884
  660MOL0     C89008   9.225   2.549   2.844  0.0324 -0.2438  0.1838
  660MOL0    Cl89009   9.328   2.469   2.719 -0.6822  0.4673  0.1916
  660MOL0     C89010  10.072   2.559   2.903  0.3738 -1.4864 -0.0479
  660MOL0     C89011  10.145   2.627   2.803  0.5179  0.2395 -0.2909
  660MOL0     O89012  10.172   2.865   2.622  0.3990 -0.2717 -0.0601
  660MOL0     C89013  10.527   2.921   2.648  0.2214 -0.5137 -0.6022
  660MOL0     C89014  10.621   3.004   2.587 -0.1028 -1.1844 -0.6258
  660MOL0     N89015  10.682   3.263   1.885 -0.4209  0.7149  0.9503
  660MOL0     N89016  10.663   3.239   1.757  0.5078 -0.7329 -0.7165
  660MOL0     C89017  10.424   2.092   1.732 -0.2288 -0.1186 -0.4962
  660MOL0     C89018  10.395   1.952   1.749 -0.4057  0.2823  0.5467
  660MOL0     C89019  10.315   1.552   1.863 -0.4530  1.5638 -0.2127
  660MOL0     C89020  10.176   1.543   1.842  0.3609 -0.5951 -0.2521
  660MOL0     C89021  10.102   1.427   1.846 -0.2754  1.4265 -0.7493
  660MOL0     C89022  10.171   1.303   1.850 -0.3556 -0.5560 -0.7937
  660MOL0     O89023  10.085   1.197   1.838 -0.7931 -0.1322  0.3299
  660MOL0     C89024  10.137   1.058   1.832  0.3924 -0.3179 -0.3610
  660MOL0     C89025  10.132   1.002   1.970 -0.3118  0.9457  0.5391
  660MOL0     C89026   9.995   0.976   2.005  0.4769  0.2244 -0.4364
  660MOL0     C89027   9.973   0.978   2.156  0.0281 -0.4197  0.2819
  660MOL0     C89028   9.828   0.981   2.201  0.0212 -0.3811  0.4657
  660MOL0     C89029   9.712   0.990   2.235  0.0215 -0.8171  0.2206
  660MOL0     C89030  10.310   1.302   1.852 -0.2505 -0.2460  0.8488
  660MOL0     C89031  10.384   1.429   1.858 -0.4239 -0.3122 -0.2332
  660MOL0     C89032  10.536   1.417   1.861 -0.2096  0.1167 -0.0623
  660MOL0     H89033  10.191   1.996   2.029  2.6638  0.0801  1.3318
  660MOL0     H89034  10.258   2.215   2.001  1.2148 -1.6513  1.0916
  660MOL0     H89035  10.606   2.326   1.751  0.0626 -0.2588 -1.2000
  660MOL0     H89036  10.470   2.336   1.638 -0.8110 -2.8667  0.1065
  660MOL0     H89037  10.551   2.532   1.857  2.3626 -0.4761 -0.9082
  660MOL0     H89038  10.411   2.552   1.740 -2.0495 -2.5680  1.3235
  660MOL0     H89039  10.570   2.557   1.553  2.1092  0.7678 -1.1963
  660MOL0     H89040  10.712   2.523   1.660 -0.2403  0.6493 -0.4801
  660MOL0     H89041  10.516   2.755   1.692 -1.0831  0.1644  2.0330
  660MOL0     H89042  10.654   2.735   1.794  1.5873  0.4468 -0.5098
  660MOL0     H89043  10.825   2.759   1.620  0.1544  1.0475  1.0428
  660MOL0     H89044  10.700   2.784   1.497  1.7442 -1.1621 -0.8348
  660MOL0     H89045  10.614   2.973   1.601 -0.6784  0.5232  1.3339
  660MOL0     H89046  10.731   2.962   1.733  0.1784  1.9911  0.0602
  660MOL0     H89047  10.831   2.994   1.443  2.2276  0.5673  0.3485
  660MOL0     H89048  10.924   3.000   1.595 -0.3015 -1.8390  0.2045
  660MOL0     H89049  10.897   3.230   1.533 -0.3000 -0.6902 -2.7302
  660MOL0     H89050  10.730   3.225   1.515  0.6723  2.7926  2.4838
  660MOL0     H89051  10.987   3.208   1.787 -0.5445  0.6041  0.4356
  660MOL0     H89052  10.980   3.251   2.033 -0.7236 -0.2004 -0.6236
  660MOL0     H89053  10.884   3.383   2.071  5.9908 -0.1122  0.0206
  660MOL0     H89054  10.714   3.224   2.175  0.1486 -0.0679 -0.4581
  660MOL0     H89055  10.798   3.086   2.138 -2.2581  0.0417  1.6427
  660MOL0     H89056  10.917   3.301   2.324  2.6354 -0.9190  1.2478
  660MOL0     H89057  10.988   3.147   2.281 -1.1826 -2.5955 -1.1541
  660MOL0     H89058  10.877   3.099   2.480  0.8212  0.2640 -1.7518
  660MOL0     H89059  10.781   3.030   2.351  1.2874  0.8299 -2.1451
  660MOL0     H89060  10.435   3.219   2.407 -3.3255 -0.8869 -0.9632
  660MOL0     H89061  10.259   3.067   2.499 -1.2192  1.2101 -0.0873
  660MOL0     H89062  10.402   2.725   3.000 -0.3977  2.3793 -2.8561
  660MOL0     H89063  10.274   2.582   3.168 -2.9591 -2.7700  0.1533
  660MOL0     H89064   9.950   2.506   3.286 -1.3129 -2.9005 -0.9400
  660MOL0     H89065   9.964   2.640   3.165 -2.2027 -0.0950 -0.5686
  660MOL0     H89066   9.832   2.506   3.014 -0.0749 -2.3718 -0.0668
  660MOL0     H89067   9.823   2.368   3.120 -1.2173 -0.8376 -3.2164
  660MOL0     H89068   9.657   2.494   3.275 -0.5102 -0.6646 -0.5083
  660MOL0     H89069   9.715   2.637   3.218  2.0083  0.8204 -3.1775
  660MOL0     H89070   9.592   2.458   3.009 -0.5009 -0.5605  1.7851
  660MOL0     H89071   9.572   2.630   3.024 -0.4469  0.5777  0.9023
  660MOL0     H89072   9.410   2.585   3.218  1.5599 -1.2688  1.0663
  660MOL0     H89073   9.440   2.426   3.229 -1.1585  0.1574 -0.1222
  660MOL0     H89074   9.362   2.397   2.975 -4.3686  1.0862 -1.1234
  660MOL0     H89075   9.249   2.433   3.110 -0.0921 -2.3656 -0.9407
  660MOL0     H89076   9.351   2.674   2.946  0.3602  1.0732 -0.6851
  660MOL0     H89077   9.199   2.645   3.030  0.0331 -1.3718  1.2299
  660MOL0     H89078   9.145   2.481   2.876  0.5008 -0.3325  1.2151
  660MOL0     H89079   9.175   2.633   2.795 -3.8001 -1.5697  1.4235
  660MOL0     H89080   9.983   2.516   2.859  0.3987 -0.0314 -1.6264
  660MOL0     H89081  10.095   2.643   2.708  0.1521 -1.6632 -0.4541
  660MOL0     H89082  10.551   2.857   2.732  0.3689 -0.5974 -0.7089
  660MOL0     H89083  10.725   3.006   2.619  0.3603 -1.4842 -2.0357
  660MOL0     H89084  10.478   2.125   1.644  0.3792  1.9695  0.6146
  660MOL0     H89085  10.426   1.881   1.673  0.4978  0.2580  0.9284
  660MOL0     H89086  10.107   1.623   1.815 -0.2725 -1.0812 -0.1149
  660MOL0     H89087   9.993   1.432   1.845 -0.3091  0.8365 -0.3943
  660MOL0     H89088  10.238   1.051   1.789  0.7833 -3.1026  0.8525
  660MOL0     H89089  10.063   1.012   1.767 -1.0744 -0.7551  1.5556
  660MOL0     H89090  10.184   1.058   2.047  3.4741 -2.3564  0.6875
  660MOL0     H89091  10.192   0.911   1.979 -0.8640  0.7971  4.4368
  660MOL0     H89092   9.959   0.880   1.966 -1.8360  0.7761  0.2044
  660MOL0     H89093   9.935   1.056   1.961  1.0210 -0.1450 -1.9080
  660MOL0     H89094  10.031   0.901   2.209  0.3708  0.1479  0.7366
  660MOL0     H89095  10.022   1.069   2.192  0.3820 -1.0353  1.4072
  660MOL0     H89096   9.611   1.007   2.267 -0.1544 -0.2583 -0.5935
  660MOL0     H89097  10.355   1.204   1.842 -0.6651 -0.3311 -0.4669
  660MOL0     H89098  10.595   1.497   1.907 -0.0524 -0.4848  0.8056
  660MOL0     H89099  10.565   1.321   1.904  0.8982 -1.5941 -4.0864
  660MOL0     H89100  10.555   1.416   1.753 -3.5456  2.4798 -0.8210
  661MOL0     O89101   9.137   9.045   7.770 -0.6487  0.2164 -0.4574
  661MOL0     C89102   9.054   9.114   7.702 -0.0049 -0.3346 -0.5499
  661MOL0     O89103   9.072   9.157   7.578  0.3930 -0.4533 -0.0631
  661MOL0     C89104   9.168   9.112   7.495  0.0630  0.1942  0.2551
  661MOL0     C89105   9.217   8.972   7.483  0.3147 -0.6431 -0.0501
  661MOL0     C89106   9.316   8.944   7.393 -0.4416  0.4333 -0.5802
  661MOL0     C89107   9.376   9.049   7.314  1.1562  0.2380 -0.3867
  661MOL0     O89108   9.488   9.024   7.242 -0.0647  0.0220  0.8269
  661MOL0     C89109   9.600   8.980   7.319  0.1605  0.8919  0.3155
  661MOL0     C89110   9.721   8.975   7.223  1.0237 -0.4604  0.4204
  661MOL0     C89111   9.849   9.008   7.287  0.7055  0.2518 -0.3214
  661MOL0     C89112   9.972   9.046   7.201 -0.1442  0.0422 -0.0589
  661MOL0     C89113  10.076   9.077   7.310 -0.3076  0.2128 -1.3094
  661MOL0     C89114  10.216   9.084   7.257  0.3401  0.1644 -0.3650
  661MOL0     C89115  10.316   9.139   7.360  0.2501 -0.1441 -0.2569
  661MOL0     C89116  10.349   9.033   7.469  0.1644 -0.2717  0.0180
  661MOL0     N89117  10.456   9.064   7.558 -0.4881 -0.1129  0.3451
  661MOL0     C89118  10.490   9.180   7.619  0.2814 -0.5119 -0.4607
  661MOL0     C89119  10.623   9.177   7.641  0.3063 -0.4944 -0.3043
  661MOL0     C89120  10.707   9.289   7.697 -0.5618 -0.2787  0.8739
  661MOL0     C89121  10.778   9.363   7.583 -0.5178  0.4201 -0.1143
  661MOL0     C89122  10.891   9.455   7.638  0.6761 -0.5905 -0.3091
  661MOL0     C89123  10.954   9.544   7.532 -0.1188 -1.4081 -0.7334
  661MOL0     O89124  10.879   9.663   7.521  0.2199 -0.0555  0.5395
  661MOL0     C89125  10.899   9.764   7.428  0.2356  0.4499  0.4755
  661MOL0     C89126  11.010   9.770   7.354 -0.2000  0.3554 -0.0104
  661MOL0     C89127  11.026   9.879   7.269 -0.1525 -0.5966 -0.2780
  661MOL0     C89128  10.927   9.979   7.247  0.6929 -0.5516  0.0076
  661MOL0     C89129  10.952  10.095   7.173 -0.5905 -0.1573  0.7244
  661MOL0     O89130  11.031  10.076   7.064  1.0154 -0.0161  0.0517
  661MOL0     C89131  11.071  10.188   6.992 -0.3413 -0.4213 -0.2833
  661MOL0     C89132  10.989  10.245   6.905 -0.3104 -0.8105  0.9199
  661MOL0     C89133  11.031  10.364   6.839  0.2354 -0.2510 -0.4862
  661MOL0     C89134  11.154  10.422   6.866 -0.4039  0.6349  0.4273
  661MOL0     O89135  11.206  10.547   6.815  0.5172  0.4496 -0.3933
  661MOL0     C89136  11.121  10.618   6.730  0.1295 -1.0388 -0.5671
  661MOL0     C89137  11.183  10.756   6.711 -0.1113 -0.5441  0.6139
  661MOL0     C89138  11.211  10.828   6.844  0.5812  0.0805 -0.7706
  661MOL0     C89139  11.281  10.968   6.821 -0.2039  0.1001 -0.1712
  661MOL0     C89140  11.339  11.011   6.961  0.4637  0.5445 -0.3888
  661MOL0     C89141  11.416  11.143   6.939  1.0033 -0.0310 -0.5416
  661MOL0     C89142  11.457  11.212   7.067  0.8280  0.0392  0.2254
  661MOL0     C89143  11.563  11.323   7.053  0.1376 -0.6519 -0.5618
  661MOL0    Cl89144  11.523  11.435   6.921 -0.1229 -0.1418  0.0082
  661MOL0     C89145  11.234  10.366   6.963 -0.3268 -0.2051 -0.3712
  661MOL0     C89146  11.198  10.246   7.025  0.0936 -0.0120 -0.2850
  661MOL0     O89147  10.906  10.209   7.203 -0.1624  0.0770 -0.3280
  661MOL0     C89148  10.805   9.960   7.306  0.3639 -0.3005  0.1762
  661MOL0     C89149  10.796   9.860   7.405 -0.2994 -0.4159 -0.5973
  661MOL0     N89150  10.673   9.054   7.605  0.3200 -0.2235  0.4997
  661MOL0     N89151  10.571   8.984   7.563  0.5510 -0.4994 -0.2436
  661MOL0     C89152   9.316   9.174   7.319  0.5480 -0.5168 -0.5300
  661MOL0     C89153   9.221   9.211   7.413  0.4999  0.4092  0.5732
  661MOL0     C89154   8.964   9.195   7.782  0.2109 -0.0546 -0.5100
  661MOL0     C89155   8.957   9.329   7.753  0.0395 -0.3391 -0.1079
  661MOL0     C89156   8.874   9.403   7.835  0.2692  0.9412  1.0007
  661MOL0     C89157   8.789   9.347   7.931 -0.4026 -0.7507  0.1041
  661MOL0     O89158   8.693   9.407   8.003  0.2579  0.1938  0.4850
  661MOL0     C89159   8.662   9.540   7.975  0.4705  0.9090 -0.1436
  661MOL0     C89160   8.735   9.628   8.072 -0.4344  0.0778 -0.3975
  661MOL0     C89161   8.655   9.761   8.095 -0.5436 -0.0599  0.4649
  661MOL0     C89162   8.746   9.857   8.158  0.7481 -0.7160  0.4211
  661MOL0     C89163   8.657   9.967   8.193 -0.5318  0.0884  0.8173
  661MOL0     C89164   8.583  10.059   8.210  0.4586  0.3738  0.9631
  661MOL0     C89165   8.792   9.212   7.955 -0.3988 -0.3439 -0.3240
  661MOL0     C89166   8.882   9.134   7.878  1.2943 -0.2448 -0.3508
  661MOL0     C89167   8.883   8.978   7.898  0.6203 -0.4077 -0.1869
  661MOL0     H89168   9.185   8.894   7.552 -1.6347 -0.8917 -1.1695
  661MOL0     H89169   9.361   8.846   7.399  2.0402  1.4839 -1.0326
  661MOL0     H89170   9.623   9.066   7.382 -0.7219  0.6982  0.9222
  661MOL0     H89171   9.593   8.889   7.379  1.9394  0.0511 -0.6808
  661MOL0     H89172   9.714   9.037   7.133 -0.2532 -0.1224  0.7210
  661MOL0     H89173   9.728   8.872   7.188 -0.9004 -0.0991 -1.2396
  661MOL0     H89174   9.882   8.924   7.348  0.2201  2.0866  2.6464
  661MOL0     H89175   9.832   9.094   7.352 -2.5426  2.1145 -3.2468
  661MOL0     H89176  10.017   8.957   7.155  0.1616  0.4605 -0.5736
  661MOL0     H89177   9.960   9.127   7.129  0.3345 -0.3699 -0.6183
  661MOL0     H89178  10.050   9.165   7.369 -1.0238 -1.1523  0.4945
  661MOL0     H89179  10.079   8.990   7.375 -0.1181  1.4014  0.3300
  661MOL0     H89180  10.254   8.990   7.216  1.3190  0.8261 -1.0467
  661MOL0     H89181  10.214   9.157   7.175 -1.3360  0.6802  0.0837
  661MOL0     H89182  10.274   9.229   7.406  1.9285  1.3392 -1.4694
  661MOL0     H89183  10.406   9.169   7.306  1.3219 -2.8950 -0.1702
  661MOL0     H89184  10.263   9.011   7.532 -0.1754  1.7409  0.3382
  661MOL0     H89185  10.368   8.938   7.419 -0.0241 -0.6392  0.6305
  661MOL0     H89186  10.418   9.261   7.632 -1.3358 -1.4595 -2.7781
  661MOL0     H89187  10.646   9.355   7.759 -0.0245  1.8207 -0.7003
  661MOL0     H89188  10.784   9.249   7.764  0.0044 -0.3459  0.1955
  661MOL0     H89189  10.835   9.297   7.518 -0.0879 -1.1165  1.7401
  661MOL0     H89190  10.706   9.422   7.525 -0.8280  2.3557  2.0521
  661MOL0     H89191  10.967   9.390   7.683 -1.0794 -2.5533  0.0221
  661MOL0     H89192  10.853   9.522   7.716  1.6267 -0.6346  0.2032
  661MOL0     H89193  10.978   9.493   7.438 -2.2147 -0.7409 -1.7059
  661MOL0     H89194  11.051   9.577   7.571 -0.5419 -0.9045 -0.0892
  661MOL0     H89195  11.084   9.691   7.355 -0.4510  0.1176 -0.2660
  661MOL0     H89196  11.113   9.876   7.204 -1.0347 -2.0522 -1.4482
  661MOL0     H89197  10.888  10.209   6.889 -0.9606  1.6266 -1.0423
  661MOL0     H89198  10.963  10.401   6.762  1.6378  3.5472 -0.1577
  661MOL0     H89199  11.109  10.565   6.634  1.5507 -2.3496 -0.0632
  661MOL0     H89200  11.026  10.634   6.782  1.2796 -0.7192  1.5353
  661MOL0     H89201  11.278  10.734   6.661 -1.2117 -2.5789 -0.7095
  661MOL0     H89202  11.119  10.820   6.650 -1.2255 -0.3184  1.9567
  661MOL0     H89203  11.111  10.849   6.884 -0.4792 -1.0897 -2.6604
  661MOL0     H89204  11.265  10.758   6.908 -2.0685 -1.5044 -0.1177
  661MOL0     H89205  11.214  11.045   6.782  0.6968  1.4927  0.9161
  661MOL0     H89206  11.371  10.957   6.761  0.5288  0.5684  0.8144
  661MOL0     H89207  11.403  10.938   7.010 -2.3719 -0.8544  1.4946
  661MOL0     H89208  11.253  11.028   7.026  1.3439  4.6493  0.0149
  661MOL0     H89209  11.503  11.123   6.875  2.3639  1.9585  0.5776
  661MOL0     H89210  11.341  11.212   6.897 -0.4488 -1.3320 -0.1557
  661MOL0     H89211  11.498  11.142   7.140 -0.2071 -0.5658  0.2408
  661MOL0     H89212  11.363  11.257   7.100 -0.6388 -2.7453  0.1015
  661MOL0     H89213  11.574  11.389   7.139  2.9829 -1.2509 -0.3562
  661MOL0     H89214  11.661  11.282   7.027  0.2504 -2.9195  2.8612
  661MOL0     H89215  11.321  10.416   7.005 -0.1362 -2.4618  2.2281
  661MOL0     H89216  11.268  10.208   7.098 -0.4519  2.3096  1.5803
  661MOL0     H89217  10.740  10.046   7.293  2.4226  1.9346  3.0984
  661MOL0     H89218  10.700   9.859   7.456 -0.4685  4.8873 -0.1891
  661MOL0     H89219   9.346   9.253   7.252  0.3698 -1.8862 -2.3109
  661MOL0     H89220   9.188   9.314   7.401 -1.1819 -0.3017 -1.3439
  661MOL0     H89221   9.008   9.380   7.672  0.4234 -0.3616  0.1200
  661MOL0     H89222   8.875   9.511   7.829 -0.1238  1.0266  2.2471
  661MOL0     H89223   8.557   9.554   8.002  0.5453 -0.3958  0.9650
  661MOL0     H89224   8.675   9.570   7.871  2.1561 -1.1232 -0.6026
  661MOL0     H89225   8.830   9.646   8.021  0.7764 -4.3199 -0.0984
  661MOL0     H89226   8.757   9.573   8.164  1.4133 -1.7379 -1.8396
  661MOL0     H89227   8.574   9.728   8.161 -1.6773 -1.4886 -1.5321
  661MOL0     H89228   8.618   9.817   8.009  2.6043  1.5636  0.0273
  661MOL0     H89229   8.802   9.820   8.245 -0.6126 -1.1858  1.1337
  661MOL0     H89230   8.827   9.894   8.094  2.3702 -2.7907  1.1563
  661MOL0     H89231   8.518  10.139   8.239 -0.2415  0.6147 -1.1088
  661MOL0     H89232   8.722   9.154   8.015 -0.3408  2.3475  2.6343
  661MOL0     H89233   8.967   8.967   7.967  2.2644  3.0852 -1.3700
  661MOL0     H89234   8.796   8.932   7.946  1.6004 -1.4224  0.6705
  661MOL0     H89235   8.903   8.926   7.804  1.4758 -0.3278 -0.0609
  662MOL0     O89236   6.481   6.656   2.338  0.6942  0.3259 -0.5288
  662MOL0     C89237   6.460   6.539   2.388 -0.0740  0.5347 -0.0810
  662MOL0     O89238   6.527   6.424   2.351  0.3808 -0.2232  0.3922
  662MOL0     C89239   6.602   6.426   2.239  0.5376  0.5098 -0.7474
  662MOL0     C89240   6.551   6.348   2.139 -0.3229 -0.1181 -0.4697
  662MOL0     C89241   6.623   6.319   2.024 -0.3223  0.4714  1.1067
  662MOL0     C89242   6.749   6.373   2.005 -1.4187 -0.5161  0.1846
  662MOL0     O89243   6.810   6.356   1.876 -0.6933  0.0626  0.0498
  662MOL0     C89244   6.836   6.469   1.796  0.3827  0.0366  0.7790
  662MOL0     C89245   6.890   6.413   1.661 -0.5382  0.3664 -0.7006
  662MOL0     C89246   6.986   6.523   1.592 -0.5351  0.1477 -0.2053
  662MOL0     C89247   6.973   6.510   1.445 -0.1656 -0.2955  1.0329
  662MOL0     C89248   6.853   6.578   1.398 -0.9592 -0.7583 -0.3233
  662MOL0     C89249   6.859   6.726   1.385 -0.0468  0.4649  0.5144
  662MOL0     C89250   6.970   6.779   1.286  0.5498  0.7680  0.1055
  662MOL0     C89251   6.976   6.938   1.280 -0.5449  1.6796 -0.2001
  662MOL0     N89252   7.056   6.976   1.157 -0.5039  0.3651 -0.3165
  662MOL0     C89253   7.168   6.924   1.110  0.2025  0.1948 -0.7281
  662MOL0     C89254   7.196   6.979   0.997 -0.1192 -0.8410  0.3759
  662MOL0     C89255   7.302   6.933   0.907  0.1695  0.4034 -0.2834
  662MOL0     C89256   7.250   6.809   0.838 -1.0835 -0.6860  0.0267
  662MOL0     C89257   7.344   6.789   0.711 -0.0754  0.2478 -0.7444
  662MOL0     C89258   7.290   6.692   0.606  0.1560  0.0307  0.3722
  662MOL0     O89259   7.262   6.561   0.655 -0.0816  0.4347 -0.8958
  662MOL0     C89260   7.362   6.472   0.703  0.4172 -0.6001 -0.7371
  662MOL0     C89261   7.333   6.410   0.827  0.3252  0.5478  0.8746
  662MOL0     C89262   7.419   6.296   0.866 -0.3013  0.4179 -0.3474
  662MOL0     C89263   7.535   6.265   0.797  0.8283 -0.1273 -1.1183
  662MOL0     C89264   7.627   6.172   0.866  0.0389 -0.6535  0.4998
  662MOL0     O89265   7.744   6.127   0.793  0.0082 -0.5366 -0.5100
  662MOL0     C89266   7.855   6.087   0.875  0.5565 -0.5884 -0.6284
  662MOL0     C89267   7.955   6.024   0.814 -0.6983  0.2342  0.8468
  662MOL0     C89268   8.077   5.982   0.874  0.0799 -0.5321 -0.6453
  662MOL0     C89269   8.091   6.012   1.008  0.6669  0.1326  0.0165
  662MOL0     O89270   8.203   5.996   1.080 -1.0451  0.1340 -0.6387
  662MOL0     C89271   8.295   5.901   1.032 -1.0329  0.7658  0.0310
  662MOL0     C89272   8.426   5.898   1.118  0.1727 -0.1929  0.0280
  662MOL0     C89273   8.553   5.864   1.032  0.0936  1.2270  1.1439
  662MOL0     C89274   8.549   5.715   0.999  0.3810  0.1057 -0.1291
  662MOL0     C89275   8.685   5.671   0.933  0.3440  0.3815 -0.3937
  662MOL0     C89276   8.681   5.533   0.860 -0.0342 -0.0588  0.3703
  662MOL0     C89277   8.615   5.544   0.720 -0.1990 -0.1390  0.2122
  662MOL0     C89278   8.654   5.439   0.616  0.3001  0.1426 -0.8240
  662MOL0    Cl89279   8.554   5.466   0.465 -0.1234  0.0772 -0.2072
  662MOL0     C89280   7.990   6.089   1.070  0.2640 -0.0465 -0.2607
  662MOL0     C89281   7.882   6.125   1.006 -0.4979  0.3633  0.3201
  662MOL0     O89282   7.602   6.137   0.981  0.3406 -0.0743 -0.6968
  662MOL0     C89283   7.563   6.331   0.683 -0.6161  0.0266  0.7831
  662MOL0     C89284   7.474   6.428   0.633 -0.5466 -0.6575 -0.4487
  662MOL0     N89285   7.097   7.076   0.967  0.0824  0.8226 -1.1049
  662MOL0     N89286   7.013   7.058   1.060  0.0400  0.2815  0.2195
  662MOL0     C89287   6.796   6.453   2.113  0.5397 -0.0728  0.1944
  662MOL0     C89288   6.727   6.481   2.233 -0.0695  0.3868 -0.0346
  662MOL0     C89289   6.353   6.528   2.495 -0.3544  0.4639 -0.3817
  662MOL0     C89290   6.361   6.401   2.573 -0.1619 -0.1552  0.1452
  662MOL0     C89291   6.272   6.392   2.678  0.2155 -0.0475 -0.2098
  662MOL0     C89292   6.196   6.499   2.728 -0.9036 -0.1382 -0.7274
  662MOL0     O89293   6.116   6.468   2.841  0.0275 -0.5899  0.1180
  662MOL0     C89294   6.011   6.564   2.881 -0.4987  0.1385 -0.7206
  662MOL0     C89295   5.898   6.580   2.781  0.1285 -0.0510  0.0344
  662MOL0     C89296   5.878   6.453   2.711 -0.2583 -0.1918 -0.7781
  662MOL0     C89297   5.756   6.444   2.622 -0.0730 -0.0933 -0.3325
  662MOL0     C89298   5.635   6.499   2.693  0.2607  0.3732  0.4995
  662MOL0     C89299   5.532   6.541   2.741  0.1956  0.2851  0.4898
  662MOL0     C89300   6.176   6.612   2.648 -0.2226  0.3569  0.6617
  662MOL0     C89301   6.251   6.618   2.535  0.7646  0.3513  0.3407
  662MOL0     C89302   6.217   6.728   2.439  0.8565  0.5078  0.2354
  662MOL0     H89303   6.452   6.305   2.150  0.5991 -2.0738  0.5595
  662MOL0     H89304   6.574   6.253   1.953  1.7471 -1.6588  1.5127
  662MOL0     H89305   6.744   6.524   1.774  0.4995 -0.7453 -2.1105
  662MOL0     H89306   6.911   6.533   1.843 -2.9648  3.8824  1.5006
  662MOL0     H89307   6.810   6.371   1.598  1.0840 -1.4776 -1.6576
  662MOL0     H89308   6.946   6.323   1.688  2.6304  2.1177 -0.9109
  662MOL0     H89309   7.090   6.501   1.616  0.4667  1.4240 -2.8791
  662MOL0     H89310   6.974   6.626   1.626 -0.4531  1.3758 -3.4788
  662MOL0     H89311   7.061   6.557   1.398 -0.2648 -0.3697  0.7699
  662MOL0     H89312   6.976   6.405   1.415  1.9295 -0.1189  0.4524
  662MOL0     H89313   6.827   6.552   1.295  4.2393  1.4059 -2.5577
  662MOL0     H89314   6.774   6.542   1.464  0.8375 -0.5062  2.1071
  662MOL0     H89315   6.763   6.756   1.343  0.4068 -0.2134 -1.0650
  662MOL0     H89316   6.872   6.762   1.488  1.1754 -1.2650  1.0099
  662MOL0     H89317   6.946   6.742   1.187  0.6411  1.9989 -0.4001
  662MOL0     H89318   7.070   6.740   1.307 -0.2431 -0.1365  2.5435
  662MOL0     H89319   6.878   6.985   1.269 -0.9264  1.0044  0.2207
  662MOL0     H89320   7.025   6.960   1.376 -0.9433  0.9932  0.1700
  662MOL0     H89321   7.230   6.845   1.152  0.4453 -1.7533 -4.3334
  662MOL0     H89322   7.318   7.014   0.835  3.6137 -0.4230 -0.5856
  662MOL0     H89323   7.396   6.906   0.956 -0.7893 -0.5356  1.1070
  662MOL0     H89324   7.251   6.724   0.906 -1.0658 -1.8770 -1.4049
  662MOL0     H89325   7.149   6.839   0.808 -1.1265 -1.9369 -1.1708
  662MOL0     H89326   7.434   6.734   0.740  0.1549 -0.2802 -2.3996
  662MOL0     H89327   7.380   6.884   0.671 -4.7795  1.7970 -1.8619
  662MOL0     H89328   7.369   6.682   0.531  0.1498 -2.6469  0.6496
  662MOL0     H89329   7.201   6.735   0.560  0.5495 -0.4087 -0.8383
  662MOL0     H89330   7.241   6.434   0.881 -0.6773 -1.2587  0.0590
  662MOL0     H89331   7.392   6.249   0.960 -1.4716  0.9454 -0.3890
  662MOL0     H89332   7.940   6.008   0.707  0.5090  1.8730  0.3798
  662MOL0     H89333   8.158   5.945   0.811 -0.6982 -0.2722 -1.8321
  662MOL0     H89334   8.253   5.802   1.053  0.8989  0.3291  2.2403
  662MOL0     H89335   8.317   5.909   0.925  2.3390 -3.6298  0.1322
  662MOL0     H89336   8.431   5.994   1.169  1.6276 -0.3343  0.1765
  662MOL0     H89337   8.403   5.814   1.185 -1.8477  0.3430  0.0841
  662MOL0     H89338   8.553   5.924   0.941 -2.7275 -0.2342  0.0845
  662MOL0     H89339   8.644   5.880   1.090  1.4791  2.1163 -1.1340
  662MOL0     H89340   8.468   5.690   0.929  1.0305  0.9403 -1.2111
  662MOL0     H89341   8.529   5.659   1.091  2.2643 -0.3684  0.0303
  662MOL0     H89342   8.751   5.649   1.017 -0.4613 -1.7044 -0.2477
  662MOL0     H89343   8.719   5.749   0.864  2.6842 -2.1210 -2.2947
  662MOL0     H89344   8.783   5.499   0.840  0.0472  1.9589 -3.7481
  662MOL0     H89345   8.628   5.453   0.912 -0.3973 -1.4578 -2.0273
  662MOL0     H89346   8.652   5.633   0.668 -2.1380  0.7626  0.2968
  662MOL0     H89347   8.506   5.539   0.733 -0.3801 -0.6455 -1.2498
  662MOL0     H89348   8.760   5.450   0.590  0.2129 -0.5589 -1.5285
  662MOL0     H89349   8.625   5.343   0.661 -0.8086  0.3653 -1.0546
  662MOL0     H89350   7.995   6.111   1.176 -1.0755 -3.0644  0.5297
  662MOL0     H89351   7.807   6.181   1.061 -2.2413 -1.8534  0.3382
  662MOL0     H89352   7.657   6.311   0.633 -0.2679  0.8887  1.0789
  662MOL0     H89353   7.495   6.475   0.538 -1.4506  1.2327  0.2435
  662MOL0     H89354   6.883   6.517   2.104  2.0294 -1.6552  2.2433
  662MOL0     H89355   6.765   6.537   2.318 -0.9397 -1.9520  2.0381
  662MOL0     H89356   6.428   6.319   2.546  2.7191  2.6881 -2.1615
  662MOL0     H89357   6.269   6.293   2.724 -2.2230 -0.4697 -1.1108
  662MOL0     H89358   6.051   6.664   2.901 -2.0850  0.4243  1.2589
  662MOL0     H89359   5.972   6.546   2.981  0.5945 -2.1213 -0.6456
  662MOL0     H89360   5.905   6.658   2.704  0.3004 -2.2531 -2.3295
  662MOL0     H89361   5.809   6.614   2.836 -1.1414 -0.4864 -1.6738
  662MOL0     H89362   5.874   6.383   2.795  0.2777  1.6666  0.8745
  662MOL0     H89363   5.962   6.440   2.643  1.4034 -0.1274  1.1477
  662MOL0     H89364   5.768   6.515   2.539  4.4077 -0.1025  0.0963
  662MOL0     H89365   5.749   6.342   2.584  4.0579 -0.8864  0.5733
  662MOL0     H89366   5.437   6.584   2.765 -0.2577 -1.0801  1.2563
  662MOL0     H89367   6.095   6.681   2.666 -0.3418  0.5770 -0.6460
  662MOL0     H89368   6.289   6.805   2.470  0.0083  1.1324  0.6846
  662MOL0     H89369   6.225   6.699   2.334 -1.8157 -1.2592  0.4220
  662MOL0     H89370   6.117   6.765   2.460 -0.2730 -1.5114 -1.2591
  663MOL0     O89371   6.728   8.880   0.764  0.2463  0.4887 -0.9989
  663MOL0     C89372   6.764   8.765   0.741 -0.7023 -0.3984 -0.2829
  663MOL0     O89373   6.877   8.700   0.777  0.3488 -0.0003  0.0639
  663MOL0     C89374   6.962   8.772   0.858  0.3600 -0.3478  0.1156
  663MOL0     C89375   6.970   8.725   0.987 -0.3152  0.2301  0.7311
  663MOL0     C89376   7.061   8.784   1.084  0.9866 -0.7872 -0.0576
  663MOL0     C89377   7.125   8.904   1.049 -0.3111 -0.6777  0.4890
  663MOL0     O89378   7.211   8.970   1.129 -0.1678 -0.2222 -0.0536
  663MOL0     C89379   7.173   9.007   1.263  0.2444  0.1279 -0.0926
  663MOL0     C89380   7.203   9.154   1.275  0.0575 -0.3797 -0.1787
  663MOL0     C89381   7.361   9.167   1.237 -0.1908 -1.6670 -1.4262
  663MOL0     C89382   7.397   9.316   1.253 -0.6687 -0.5791  0.0178
  663MOL0     C89383   7.538   9.352   1.216  0.2694 -0.1211 -0.3311
  663MOL0     C89384   7.561   9.329   1.064  0.4996 -0.4335 -0.3800
  663MOL0     C89385   7.462   9.381   0.963 -0.0912  0.0723  0.0841
  663MOL0     C89386   7.492   9.326   0.824 -0.2883 -0.6694  0.2999
  663MOL0     N89387   7.582   9.412   0.750 -0.3840 -0.3259 -0.2663
  663MOL0     C89388   7.574   9.448   0.615  0.3167  0.1822  0.0509
  663MOL0     C89389   7.687   9.513   0.582  0.0797  0.7993 -0.2879
  663MOL0     C89390   7.728   9.567   0.444 -0.6426 -0.8254 -0.6503
  663MOL0     C89391   7.792   9.713   0.425  0.1788  0.3083 -0.7292
  663MOL0     C89392   7.940   9.715   0.463  0.3152 -0.1063 -0.9362
  663MOL0     C89393   7.991   9.856   0.479 -0.3451  0.3438  0.5278
  663MOL0     O89394   7.985   9.915   0.352  0.6152 -0.4398  0.3750
  663MOL0     C89395   8.041  10.039   0.328  0.6114 -0.8211 -0.2664
  663MOL0     C89396   7.992  10.159   0.384  0.7685 -0.1940  0.2194
  663MOL0     C89397   8.051  10.282   0.354  0.1088  0.3061 -0.0417
  663MOL0     C89398   8.156  10.297   0.264  0.2050  0.9574 -0.2172
  663MOL0     C89399   8.216  10.427   0.215  0.9767  0.1414 -0.2369
  663MOL0     O89400   8.321  10.418   0.130 -0.0806  0.1220  0.0989
  663MOL0     C89401   8.372  10.537   0.103 -1.0865  0.3318  0.2896
  663MOL0     C89402   8.472  10.580   0.193  0.3584  0.1425 -0.5069
  663MOL0     C89403   8.532  10.702   0.170  0.0527 -0.8711 -0.7924
  663MOL0     C89404   8.506  10.779   0.056  0.4631 -0.3943 -0.1279
  663MOL0     O89405   8.566  10.897   0.028  0.7043  0.0672  0.6963
  663MOL0     C89406   8.711  10.916   0.052  0.7359 -0.7878 -0.5496
  663MOL0     C89407   8.760  11.053   0.002 -0.0582  0.4450  0.2166
  663MOL0     C89408   8.909  11.050  -0.051  0.2927  0.0027 -0.3730
  663MOL0     C89409   9.011  10.992   0.049 -0.6088  0.7359 -0.6468
  663MOL0     C89410   9.158  10.981  -0.004  0.9053 -0.5124 -0.5439
  663MOL0     C89411   9.184  10.912  -0.144  0.5973  0.7185 -0.3235
  663MOL0     C89412   9.332  10.886  -0.166 -0.3062 -0.2233 -0.3936
  663MOL0     C89413   9.356  10.805  -0.297  0.1665 -0.8793 -0.0767
  663MOL0    Cl89414   9.272  10.871  -0.437  0.2454 -0.2475  0.5633
  663MOL0     C89415   8.406  10.739  -0.026 -0.7323  0.1548  0.7030
  663MOL0     C89416   8.340  10.619  -0.011 -0.1511 -0.4162 -0.8945
  663MOL0     O89417   8.159  10.532   0.255 -0.4550 -0.3057 -0.0405
  663MOL0     C89418   8.210  10.168   0.209  1.1325 -0.1152 -0.2579
  663MOL0     C89419   8.145  10.040   0.240 -1.0150 -0.7911  0.1585
  663MOL0     N89420   7.766   9.516   0.699  0.1033 -0.1284  0.5489
  663MOL0     N89421   7.706   9.450   0.795 -0.5710 -0.9610 -0.3139
  663MOL0     C89422   7.104   8.963   0.923  0.2529  0.4782  0.0934
  663MOL0     C89423   7.030   8.889   0.826  0.2430  0.2727  0.4692
  663MOL0     C89424   6.672   8.692   0.658  0.0260  0.3685 -0.5119
  663MOL0     C89425   6.664   8.553   0.685 -0.7071  0.0973 -0.9290
  663MOL0     C89426   6.576   8.470   0.626 -0.5853  0.9408  0.9348
  663MOL0     C89427   6.490   8.515   0.526 -0.2083 -0.3799 -0.1939
  663MOL0     O89428   6.409   8.442   0.444  0.5785 -0.3949  0.2251
  663MOL0     C89429   6.411   8.295   0.459 -0.0444 -0.4262  0.1247
  663MOL0     C89430   6.336   8.221   0.352 -0.1864  0.0570  0.1297
  663MOL0     C89431   6.181   8.234   0.374 -0.2382 -0.6198 -0.2080
  663MOL0     C89432   6.096   8.121   0.314 -0.0134 -0.1014 -0.5285
  663MOL0     C89433   6.099   8.137   0.168 -0.0943  0.5416  1.0758
  663MOL0     C89434   6.085   8.135   0.051  0.1495 -1.0426 -0.3801
  663MOL0     C89435   6.489   8.652   0.497  0.7952  0.5871 -0.4718
  663MOL0     C89436   6.580   8.744   0.560 -0.2766  0.1969  0.2476
  663MOL0     C89437   6.586   8.880   0.498  0.1118  0.1147  0.5124
  663MOL0     H89438   6.913   8.636   1.013 -0.4808  0.6446  1.8618
  663MOL0     H89439   7.073   8.739   1.182  1.0793 -1.3008 -0.3014
  663MOL0     H89440   7.065   8.999   1.271 -0.0850  4.2442  2.2922
  663MOL0     H89441   7.232   8.948   1.334  1.5253  2.4681  0.9096
  663MOL0     H89442   7.181   9.199   1.372 -0.8742 -1.1158 -0.0364
  663MOL0     H89443   7.145   9.220   1.209  0.1083  0.9481  1.0516
  663MOL0     H89444   7.386   9.137   1.135 -0.5335 -1.1273 -1.6781
  663MOL0     H89445   7.416   9.116   1.316  1.8676  0.6630 -1.2404
  663MOL0     H89446   7.335   9.376   1.185  2.3133  0.4456 -1.9995
  663MOL0     H89447   7.367   9.338   1.356  1.3693  1.0644  0.3395
  663MOL0     H89448   7.560   9.458   1.233 -1.1633 -0.0780  1.6733
  663MOL0     H89449   7.612   9.287   1.264  2.1224  1.9018 -0.3081
  663MOL0     H89450   7.657   9.371   1.033  0.6870 -1.0482 -0.6532
  663MOL0     H89451   7.562   9.220   1.058 -1.4327 -0.8828  3.8613
  663MOL0     H89452   7.472   9.490   0.956 -1.3770  0.4285  2.6591
  663MOL0     H89453   7.360   9.355   0.991  0.3289 -1.0322  0.6352
  663MOL0     H89454   7.539   9.228   0.838  0.4057 -0.4179 -0.2518
  663MOL0     H89455   7.403   9.301   0.765 -0.3800 -0.0723  0.1783
  663MOL0     H89456   7.496   9.397   0.561  0.5806  2.4761 -2.7227
  663MOL0     H89457   7.799   9.495   0.403 -2.1140 -1.7260 -1.6893
  663MOL0     H89458   7.640   9.558   0.380 -2.4488 -1.9852  1.8362
  663MOL0     H89459   7.775   9.741   0.321 -1.6028 -1.5555 -1.0122
  663MOL0     H89460   7.726   9.782   0.480  0.8938  1.3813 -1.1956
  663MOL0     H89461   8.002   9.664   0.389  3.3159  2.2867 -0.2886
  663MOL0     H89462   7.949   9.668   0.562 -4.2996 -0.3158 -0.3915
  663MOL0     H89463   8.096   9.839   0.507 -0.5801 -2.9546 -0.1857
  663MOL0     H89464   7.935   9.903   0.560 -0.5544  0.9022  0.0576
  663MOL0     H89465   7.915  10.156   0.461  1.6575 -2.8825  1.1326
  663MOL0     H89466   8.003  10.373   0.389 -2.9143 -1.0467 -0.3215
  663MOL0     H89467   8.511  10.513   0.269  0.1929 -2.6120 -2.6622
  663MOL0     H89468   8.611  10.725   0.240  1.7975 -0.1907 -2.8974
  663MOL0     H89469   8.738  10.897   0.157 -1.0205 -2.6745 -0.3848
  663MOL0     H89470   8.754  10.836  -0.009 -0.7576 -1.8198 -0.3035
  663MOL0     H89471   8.699  11.089  -0.081 -1.1594 -1.6719  0.0554
  663MOL0     H89472   8.757  11.119   0.090  1.3063  0.6399  0.1378
  663MOL0     H89473   8.910  10.999  -0.148  1.3455 -1.6875  0.4678
  663MOL0     H89474   8.938  11.153  -0.072  2.1673 -1.0188 -3.5483
  663MOL0     H89475   8.989  10.895   0.095  1.0601  0.6109 -0.0389
  663MOL0     H89476   9.021  11.052   0.139  3.9391 -1.4595  0.5889
  663MOL0     H89477   9.214  10.924   0.071 -0.3215  0.6707  1.3588
  663MOL0     H89478   9.189  11.085  -0.016 -0.6221  0.0352  0.0322
  663MOL0     H89479   9.134  10.815  -0.135  1.2762  0.5324  2.5505
  663MOL0     H89480   9.135  10.958  -0.230 -1.4822 -4.1008 -2.0739
  663MOL0     H89481   9.386  10.836  -0.085 -0.2098 -1.1593 -1.0140
  663MOL0     H89482   9.387  10.979  -0.184 -2.7018  1.4259  0.4410
  663MOL0     H89483   9.463  10.810  -0.318  0.5179  2.4863  1.7155
  663MOL0     H89484   9.324  10.704  -0.268 -1.6671 -0.0333  1.0476
  663MOL0     H89485   8.367  10.802  -0.106  1.4251  1.0029  0.2439
  663MOL0     H89486   8.258  10.582  -0.072 -1.4608 -2.6152  1.9981
  663MOL0     H89487   8.293  10.177   0.140 -0.7271  4.4510 -2.3764
  663MOL0     H89488   8.178   9.950   0.189 -0.4686 -0.5448  0.0652
  663MOL0     H89489   7.160   9.056   0.916  3.5303 -0.9262  3.9727
  663MOL0     H89490   7.001   8.941   0.735 -1.5833 -1.2886  0.0904
  663MOL0     H89491   6.728   8.516   0.765 -3.5682  0.7907  1.9093
  663MOL0     H89492   6.587   8.364   0.649  0.2315  0.5306 -1.1222
  663MOL0     H89493   6.367   8.269   0.556 -3.9657  1.3582 -0.9668
  663MOL0     H89494   6.513   8.258   0.446  0.5644  0.8677  0.9389
  663MOL0     H89495   6.368   8.117   0.347  2.2955  0.8005 -1.1983
  663MOL0     H89496   6.340   8.262   0.250 -3.8627  2.3371  0.6883
  663MOL0     H89497   6.148   8.323   0.319 -1.8507 -1.4517 -0.6419
  663MOL0     H89498   6.157   8.241   0.480 -5.3875 -2.5937 -0.9764
  663MOL0     H89499   6.140   8.023   0.335 -0.8793 -0.0272  1.8525
  663MOL0     H89500   5.997   8.126   0.359  0.3629  3.5859  0.1753
  663MOL0     H89501   6.071   8.131  -0.055  0.8865  2.0410 -0.6814
  663MOL0     H89502   6.425   8.685   0.416 -0.2409 -3.3624 -1.5123
  663MOL0     H89503   6.683   8.893   0.451 -0.9555  4.2147 -0.9647
  663MOL0     H89504   6.515   8.901   0.417 -1.2140  0.7643  1.7808
  663MOL0     H89505   6.579   8.961   0.572 -0.4216 -0.3879  1.0293
  664MOL0     O89506   0.786   7.402   2.192 -0.3312  0.6061 -0.7409
  664MOL0     C89507   0.851   7.462   2.273  0.3620  1.1088 -0.3485
  664MOL0     O89508   0.802   7.538   2.380  0.1914  0.6289  0.6536
  664MOL0     C89509   0.677   7.600   2.381 -0.0495  0.5314 -0.0505
  664MOL0     C89510   0.634   7.666   2.500 -0.1488  0.5079 -0.3449
  664MOL0     C89511   0.510   7.724   2.504  0.4336 -1.1423  0.5732
  664MOL0     C89512   0.413   7.725   2.397 -0.9689  0.1961  0.3325
  664MOL0     O89513   0.299   7.798   2.415 -0.7264  0.3416 -0.3248
  664MOL0     C89514   0.194   7.769   2.333  0.3495  0.3194  1.1383
  664MOL0     C89515   0.087   7.874   2.340 -0.7588 -0.0812  0.2614
  664MOL0     C89516   0.121   8.017   2.283 -0.1748 -0.0703  0.2395
  664MOL0     C89517   0.122   8.127   2.392  0.6733  0.0124  0.2869
  664MOL0     C89518  -0.022   8.183   2.394 -0.5515  0.1524 -0.2425
  664MOL0     C89519  -0.139   8.081   2.403  0.7895  0.0837 -0.6959
  664MOL0     C89520  -0.283   8.140   2.417 -0.9072  0.2426  0.3558
  664MOL0     C89521  -0.364   8.070   2.529  0.9389 -0.9380  0.4575
  664MOL0     N89522  -0.349   7.919   2.533  0.2606  0.3056 -0.9841
  664MOL0     C89523  -0.351   7.842   2.421 -0.1797  0.4187 -0.0320
  664MOL0     C89524  -0.355   7.711   2.468  0.2389  0.2528 -0.5126
  664MOL0     C89525  -0.374   7.589   2.396 -0.5683 -0.8257 -0.7471
  664MOL0     C89526  -0.272   7.565   2.278 -0.2007  0.3290  0.5593
  664MOL0     C89527  -0.135   7.512   2.325  0.2973  0.1721 -0.4878
  664MOL0     C89528  -0.140   7.363   2.368  0.5511  0.5797  0.6596
  664MOL0     O89529  -0.007   7.303   2.346  0.5220 -0.4464  0.0518
  664MOL0     C89530   0.035   7.186   2.393  0.1273  1.1597 -0.5217
  664MOL0     C89531  -0.015   7.120   2.506  0.6842 -0.2618  0.3033
  664MOL0     C89532   0.038   7.003   2.558 -0.4356  0.7331 -0.4057
  664MOL0     C89533   0.135   6.937   2.475  0.0735 -0.3167 -0.4559
  664MOL0     C89534   0.194   6.803   2.520 -0.2357 -0.0458 -0.2427
  664MOL0     O89535   0.125   6.727   2.625 -0.4250  0.3162 -0.1838
  664MOL0     C89536   0.176   6.611   2.665 -0.3319  0.7906  0.1070
  664MOL0     C89537   0.189   6.576   2.796 -1.3564  0.1468  0.2978
  664MOL0     C89538   0.236   6.462   2.845 -0.5233 -0.7934 -0.2843
  664MOL0     C89539   0.288   6.370   2.760  0.6543  0.8898 -0.2915
  664MOL0     O89540   0.335   6.249   2.809 -0.0698  0.1728 -0.3198
  664MOL0     C89541   0.398   6.154   2.729  0.0282  0.0328 -0.2057
  664MOL0     C89542   0.486   6.073   2.820  0.1427  0.1747  1.1464
  664MOL0     C89543   0.597   6.154   2.887  0.4416  0.6042 -0.5003
  664MOL0     C89544   0.687   6.059   2.956 -0.3925  0.3236  0.0720
  664MOL0     C89545   0.789   5.991   2.854  0.5375  1.1053 -0.4523
  664MOL0     C89546   0.863   5.875   2.931  0.1325  0.3682 -0.6113
  664MOL0     C89547   0.963   5.803   2.847  0.0513 -0.1646  0.6156
  664MOL0     C89548   1.003   5.667   2.905 -0.7030 -0.6604 -0.0380
  664MOL0    Cl89549   1.100   5.698   3.045  0.4396  0.4561  0.0284
  664MOL0     C89550   0.281   6.397   2.624 -0.6721 -0.1232  0.0445
  664MOL0     C89551   0.231   6.512   2.580 -0.5473  0.1743  0.1617
  664MOL0     O89552   0.306   6.772   2.471  0.5626 -0.2758  0.3989
  664MOL0     C89553   0.179   6.995   2.353 -0.6811 -0.1723  0.2096
  664MOL0     C89554   0.131   7.119   2.313  0.3977 -0.1433  0.0322
  664MOL0     N89555  -0.368   7.710   2.608 -0.2458 -1.1058 -0.9215
  664MOL0     N89556  -0.359   7.833   2.641 -0.4383 -0.2981  0.5186
  664MOL0     C89557   0.458   7.656   2.282  1.0127  0.8884  0.4207
  664MOL0     C89558   0.585   7.597   2.273 -1.0668 -0.8779 -0.1740
  664MOL0     C89559   0.985   7.425   2.291  0.3325  0.3007  0.9058
  664MOL0     C89560   1.048   7.455   2.409  0.6814  0.9456 -0.2348
  664MOL0     C89561   1.176   7.404   2.445  0.8325 -0.0891  1.1213
  664MOL0     C89562   1.241   7.320   2.362  0.3272  0.3274  0.7564
  664MOL0     O89563   1.334   7.237   2.427 -0.4346  0.1860  0.7559
  664MOL0     C89564   1.425   7.150   2.348 -0.6077  0.5584  0.1185
  664MOL0     C89565   1.521   7.222   2.264  0.0295 -0.3500 -0.1310
  664MOL0     C89566   1.631   7.279   2.352  0.1529  0.5352  0.7865
  664MOL0     C89567   1.764   7.282   2.265  0.0788 -0.4510  0.3806
  664MOL0     C89568   1.865   7.364   2.325 -1.3099 -0.2907  0.8211
  664MOL0     C89569   1.950   7.449   2.364 -0.1021  0.3515  0.0407
  664MOL0     C89570   1.194   7.312   2.231  0.4313 -0.3076 -0.4708
  664MOL0     C89571   1.063   7.354   2.192  0.1463  0.1215 -0.0726
  664MOL0     C89572   1.022   7.328   2.050 -0.3866 -0.0659 -0.0028
  664MOL0     H89573   0.690   7.647   2.591 -0.8972  2.5299  0.5947
  664MOL0     H89574   0.479   7.765   2.599  1.8192  0.0828  0.5324
  664MOL0     H89575   0.230   7.769   2.230 -1.2612 -1.5858  0.5234
  664MOL0     H89576   0.156   7.669   2.356 -0.1032 -0.3708 -2.1360
  664MOL0     H89577   0.056   7.889   2.444 -0.4933  3.6226 -0.0527
  664MOL0     H89578   0.002   7.829   2.289 -2.5027 -1.5911  4.0969
  664MOL0     H89579   0.050   8.049   2.206 -0.7071  0.3432  0.8984
  664MOL0     H89580   0.219   8.009   2.234 -0.5309 -1.0105 -0.3656
  664MOL0     H89581   0.153   8.078   2.485  2.7080 -0.5520 -0.6410
  664MOL0     H89582   0.187   8.211   2.368 -0.6603  2.1965  3.6033
  664MOL0     H89583  -0.031   8.249   2.481  2.1254 -1.1293  1.1233
  664MOL0     H89584  -0.034   8.241   2.302 -3.3189 -2.2648 -1.6003
  664MOL0     H89585  -0.137   8.010   2.320 -1.9906  0.7317 -1.4252
  664MOL0     H89586  -0.118   8.039   2.502 -1.6736  1.4694  0.5112
  664MOL0     H89587  -0.338   8.120   2.325 -1.8768  3.3178  0.1601
  664MOL0     H89588  -0.293   8.248   2.433 -3.2717  0.1066  0.2210
  664MOL0     H89589  -0.332   8.108   2.626  2.3988 -2.7750  0.7352
  664MOL0     H89590  -0.467   8.095   2.501  0.4581 -2.9063  0.3556
  664MOL0     H89591  -0.341   7.883   2.322  0.9474  0.0144 -0.1022
  664MOL0     H89592  -0.375   7.505   2.467 -1.2421 -0.5838 -0.4586
  664MOL0     H89593  -0.476   7.591   2.356 -1.0823  1.4012  0.4768
  664MOL0     H89594  -0.306   7.507   2.192  3.3645 -0.0274 -0.7606
  664MOL0     H89595  -0.258   7.662   2.229 -1.7387  0.2806 -0.0254
  664MOL0     H89596  -0.107   7.577   2.408 -0.4292 -2.0465  1.5971
  664MOL0     H89597  -0.058   7.525   2.248  2.5899 -0.3548  1.6081
  664MOL0     H89598  -0.230   7.312   2.332 -0.6647  3.1717 -0.1924
  664MOL0     H89599  -0.157   7.374   2.475  2.7907 -1.7597  1.3646
  664MOL0     H89600  -0.081   7.173   2.574 -0.6946 -1.0600 -0.3634
  664MOL0     H89601  -0.002   6.967   2.652 -2.4110  4.2204  0.2904
  664MOL0     H89602   0.149   6.648   2.867 -1.4884 -0.7983  1.2070
  664MOL0     H89603   0.223   6.447   2.951 -3.1208 -0.4560 -0.4755
  664MOL0     H89604   0.317   6.097   2.684 -1.7528 -0.1401  2.9091
  664MOL0     H89605   0.464   6.194   2.652 -0.4281 -2.8340 -2.2388
  664MOL0     H89606   0.422   6.029   2.897 -1.5321  2.1011  0.9520
  664MOL0     H89607   0.525   5.994   2.755 -2.7737  0.0732 -0.6746
  664MOL0     H89608   0.658   6.198   2.808  0.3442 -1.3947 -1.7640
  664MOL0     H89609   0.552   6.224   2.958  1.0405  0.1758  0.3231
  664MOL0     H89610   0.624   5.995   3.019 -1.1830  1.5620  0.5832
  664MOL0     H89611   0.736   6.116   3.036  0.2169 -0.7751  0.5071
  664MOL0     H89612   0.868   6.056   2.813  0.6186  1.0355 -0.4073
  664MOL0     H89613   0.728   5.953   2.772 -0.2867  0.7105  0.3366
  664MOL0     H89614   0.929   5.922   3.004  1.2333  1.3402 -2.1895
  664MOL0     H89615   0.784   5.821   2.985 -1.5885  4.6539  1.7236
  664MOL0     H89616   1.053   5.865   2.837  0.5621 -0.9459  0.2658
  664MOL0     H89617   0.931   5.776   2.746  2.3610  0.9292 -0.4815
  664MOL0     H89618   0.909   5.616   2.927 -0.8101  0.1327  1.4584
  664MOL0     H89619   1.053   5.602   2.832  0.3665 -0.0784  0.1579
  664MOL0     H89620   0.319   6.326   2.551  1.3253  1.0940 -0.1686
  664MOL0     H89621   0.240   6.507   2.472 -1.3117 -3.6754  0.1332
  664MOL0     H89622   0.265   6.958   2.298  0.0351  1.7191 -0.0141
  664MOL0     H89623   0.175   7.173   2.230  1.1528  0.6842  0.9549
  664MOL0     H89624   0.401   7.652   2.189 -3.2789 -0.2589  2.8040
  664MOL0     H89625   0.605   7.552   2.176  1.4012  1.9084 -1.0900
  664MOL0     H89626   1.002   7.502   2.495 -0.5333 -2.4371  1.1215
  664MOL0     H89627   1.210   7.413   2.548 -1.1932 -1.0588  1.9342
  664MOL0     H89628   1.373   7.076   2.286  2.8443 -2.3451  0.3623
  664MOL0     H89629   1.474   7.088   2.424  1.4482 -3.6105 -4.0978
  664MOL0     H89630   1.476   7.299   2.200  1.1636  2.1204  1.8399
  664MOL0     H89631   1.564   7.151   2.193  0.4458 -0.5318  0.3002
  664MOL0     H89632   1.647   7.197   2.423 -0.2051 -1.4163 -1.2678
  664MOL0     H89633   1.593   7.374   2.390 -0.0947  2.8368 -4.3823
  664MOL0     H89634   1.791   7.182   2.230 -2.8986 -1.5677  0.9961
  664MOL0     H89635   1.742   7.333   2.171 -3.5833 -0.6658  0.9582
  664MOL0     H89636   2.009   7.536   2.386  0.1005  0.0598  0.6923
  664MOL0     H89637   1.240   7.239   2.165 -1.2926 -1.0339 -0.9366
  664MOL0     H89638   0.927   7.274   2.044 -0.5927  0.2762  0.1261
  664MOL0     H89639   1.003   7.423   2.001 -0.2872 -0.5017 -0.9014
  664MOL0     H89640   1.096   7.263   2.003  1.0041  0.8874  0.8068
  665MOL0     O89641   7.472   7.712   0.581 -0.4069 -0.1724 -0.4983
  665MOL0     C89642   7.448   7.690   0.702  0.2591 -0.0705  0.1768
  665MOL0     O89643   7.547   7.686   0.801 -0.2080 -0.0781 -0.1787
  665MOL0     C89644   7.680   7.679   0.766 -0.5205 -0.7123  0.1009
  665MOL0     C89645   7.737   7.586   0.685 -0.0562 -0.4415  1.0695
  665MOL0     C89646   7.870   7.575   0.649 -0.1810  0.2884 -0.9927
  665MOL0     C89647   7.959   7.671   0.691 -0.8574  0.2920 -1.1015
  665MOL0     O89648   8.083   7.677   0.632 -0.2408  0.0603  0.3077
  665MOL0     C89649   8.177   7.770   0.668  0.3619 -0.7622  0.0490
  665MOL0     C89650   8.322   7.717   0.624  0.9723 -0.2367 -0.3991
  665MOL0     C89651   8.350   7.732   0.475 -0.2713  0.1489  0.4140
  665MOL0     C89652   8.451   7.637   0.436 -0.7139  0.7607  1.7507
  665MOL0     C89653   8.435   7.616   0.279  0.3668  0.3615  0.3373
  665MOL0     C89654   8.540   7.520   0.220  0.0735  0.0980 -0.6353
  665MOL0     C89655   8.518   7.521   0.073  0.2609 -0.1905 -0.8107
  665MOL0     C89656   8.603   7.411  -0.003 -0.5608 -0.1601 -0.1276
  665MOL0     N89657   8.747   7.451  -0.007 -1.0117 -0.3720 -0.4851
  665MOL0     C89658   8.792   7.533  -0.107 -0.9531  0.5261 -0.3963
  665MOL0     C89659   8.921   7.547  -0.078 -0.0054  1.0410  1.3274
  665MOL0     C89660   9.015   7.623  -0.161  1.4688  0.2946  0.3230
  665MOL0     C89661   9.137   7.541  -0.196  0.5272 -0.0731  0.1605
  665MOL0     C89662   9.244   7.543  -0.093  1.7563 -0.5421  0.2409
  665MOL0     C89663   9.383   7.521  -0.140 -0.8216  0.9014 -0.2214
  665MOL0     O89664   9.476   7.561  -0.033  0.1813 -0.1052  0.3079
  665MOL0     C89665   9.613   7.540  -0.054  0.4869  0.2375  0.4454
  665MOL0     C89666   9.682   7.515  -0.172  1.4716  0.3989  0.6468
  665MOL0     C89667   9.820   7.523  -0.184 -0.6927 -0.0935  0.3972
  665MOL0     C89668   9.899   7.576  -0.076  0.8757  0.1421 -0.4594
  665MOL0     C89669  10.044   7.607  -0.083  0.3983  0.1608  0.5883
  665MOL0     O89670  10.101   7.681   0.013 -0.4865 -0.1210  0.3459
  665MOL0     C89671  10.236   7.719   0.005  0.2837  0.7715 -0.2847
  665MOL0     C89672  10.292   7.770  -0.111  0.3381  0.4053 -0.4321
  665MOL0     C89673  10.435   7.787  -0.116 -0.7055  0.3351  0.1453
  665MOL0     C89674  10.506   7.770  -0.002 -0.3523  0.1729  0.1288
  665MOL0     O89675  10.641   7.799  -0.005  0.1532 -0.3841 -0.5594
  665MOL0     C89676  10.716   7.779   0.118  0.2096 -0.2014  0.1835
  665MOL0     C89677  10.857   7.794   0.075  0.0299 -0.1157  0.1402
  665MOL0     C89678  10.957   7.733   0.175  0.2527  0.6214  0.3546
  665MOL0     C89679  11.103   7.772   0.154  0.0978 -0.7995 -0.0785
  665MOL0     C89680  11.182   7.711   0.280  0.1238 -1.2098  0.3615
  665MOL0     C89681  11.237   7.568   0.244 -0.0342 -0.4417 -0.6075
  665MOL0     C89682  11.295   7.509   0.374 -0.2743 -0.4453  0.0128
  665MOL0     C89683  11.337   7.364   0.347  0.1175 -0.3889  0.0603
  665MOL0    Cl89684  11.194   7.256   0.304  0.0549 -0.0053  0.0872
  665MOL0     C89685  10.439   7.737   0.123  0.0121 -0.1666 -0.4937
  665MOL0     C89686  10.300   7.705   0.124 -0.0865 -0.0172 -1.2010
  665MOL0     O89687  10.091   7.575  -0.190 -0.4198 -0.4438  0.3236
  665MOL0     C89688   9.825   7.605   0.043 -0.1182  0.1489 -0.9508
  665MOL0     C89689   9.688   7.583   0.057  0.5362  0.4230 -0.4450
  665MOL0     N89690   8.945   7.459   0.030  0.7501  0.0477 -0.9223
  665MOL0     N89691   8.837   7.386   0.054 -0.1943  0.2321 -0.2196
  665MOL0     C89692   7.907   7.772   0.772 -0.2259 -1.4069 -0.5960
  665MOL0     C89693   7.769   7.772   0.813 -0.2388  0.3839 -0.4072
  665MOL0     C89694   7.306   7.697   0.751  0.4680  0.1521 -0.5135
  665MOL0     C89695   7.273   7.747   0.880 -0.4477  0.6328  0.6438
  665MOL0     C89696   7.136   7.767   0.911  0.3236 -0.4676 -0.1452
  665MOL0     C89697   7.033   7.717   0.831 -0.8096 -0.8828  0.1540
  665MOL0     O89698   6.903   7.733   0.868 -0.0665 -0.2535  0.2534
  665MOL0     C89699   6.804   7.641   0.842 -0.3389 -0.6054 -0.1508
  665MOL0     C89700   6.705   7.664   0.960  0.6968  0.8391  0.0175
  665MOL0     C89701   6.606   7.542   0.947 -0.6670  0.4982 -0.8719
  665MOL0     C89702   6.476   7.563   0.871  0.2994  0.0382 -0.2286
  665MOL0     C89703   6.500   7.590   0.734 -0.2921 -0.3584  0.3421
  665MOL0     C89704   6.518   7.593   0.622 -0.1120  0.3615 -0.4664
  665MOL0     C89705   7.065   7.639   0.722  0.4540 -0.5075 -0.4967
  665MOL0     C89706   7.202   7.635   0.681 -0.4444 -0.6798 -0.1011
  665MOL0     C89707   7.210   7.566   0.548 -0.4216 -0.3899  0.7075
  665MOL0     H89708   7.676   7.511   0.636  1.2086  0.2954 -1.8210
  665MOL0     H89709   7.898   7.501   0.575 -0.4371  0.2036 -1.0043
  665MOL0     H89710   8.165   7.870   0.625  0.8388 -1.9153 -3.0750
  665MOL0     H89711   8.182   7.787   0.775  0.7420 -4.1151  0.6828
  665MOL0     H89712   8.321   7.616   0.665 -3.3184  0.4685  1.8062
  665MOL0     H89713   8.387   7.787   0.677 -0.3997  0.5547  0.2827
  665MOL0     H89714   8.384   7.830   0.441  0.5479 -0.7478 -1.4792
  665MOL0     H89715   8.251   7.716   0.430  0.9419 -0.2039 -2.3026
  665MOL0     H89716   8.555   7.669   0.445  0.5752 -1.1787 -2.8715
  665MOL0     H89717   8.433   7.540   0.484  0.3871  0.2389  1.1646
  665MOL0     H89718   8.336   7.573   0.258  1.4984 -1.6702 -1.1508
  665MOL0     H89719   8.441   7.715   0.233  2.3825 -0.8249 -2.2080
  665MOL0     H89720   8.640   7.548   0.253 -0.5198  0.4199  1.0015
  665MOL0     H89721   8.495   7.432   0.266 -3.3257  1.9565 -0.0106
  665MOL0     H89722   8.556   7.617   0.037  1.1072 -0.7849 -1.5459
  665MOL0     H89723   8.413   7.514   0.041  0.2677 -1.1845 -0.6485
  665MOL0     H89724   8.586   7.309   0.034 -0.3146 -0.1454  0.0302
  665MOL0     H89725   8.582   7.405  -0.110  0.6516 -3.4849 -0.3104
  665MOL0     H89726   8.727   7.581  -0.179 -4.2918 -3.4329 -0.3978
  665MOL0     H89727   8.962   7.639  -0.255 -1.9237 -0.9160  1.8658
  665MOL0     H89728   9.042   7.709  -0.098  1.7141 -0.0362  0.6753
  665MOL0     H89729   9.111   7.435  -0.205  0.9561 -0.2256  0.6969
  665MOL0     H89730   9.177   7.579  -0.291 -0.9950 -0.5159 -0.6941
  665MOL0     H89731   9.217   7.459  -0.029  2.3254 -2.9607 -2.4626
  665MOL0     H89732   9.236   7.630  -0.027 -0.1178 -0.8118  0.4112
  665MOL0     H89733   9.411   7.583  -0.226 -0.9212  2.3422  0.7536
  665MOL0     H89734   9.398   7.419  -0.177 -3.9160 -1.4207  4.0497
  665MOL0     H89735   9.617   7.471  -0.247  1.2149  1.0091  0.5060
  665MOL0     H89736   9.874   7.510  -0.277  0.8888 -1.3785  1.4362
  665MOL0     H89737  10.236   7.776  -0.204  3.0317  1.7774 -2.1253
  665MOL0     H89738  10.492   7.817  -0.204  6.1553 -2.4552  2.8925
  665MOL0     H89739  10.694   7.847   0.201  0.3014  1.0214 -0.7674
  665MOL0     H89740  10.704   7.675   0.148 -1.9888 -0.0054  0.1238
  665MOL0     H89741  10.866   7.747  -0.024 -3.4570  2.5804 -1.6753
  665MOL0     H89742  10.877   7.901   0.070  1.8338 -0.4242 -0.0033
  665MOL0     H89743  10.928   7.733   0.281 -2.4214 -1.2053 -0.2850
  665MOL0     H89744  10.949   7.628   0.144 -0.9063  1.1417 -1.2142
  665MOL0     H89745  11.108   7.881   0.161 -2.0995 -0.7244  0.8492
  665MOL0     H89746  11.149   7.738   0.060  0.2058  0.0031 -0.3230
  665MOL0     H89747  11.120   7.712   0.370  0.6570  1.8255  0.7932
  665MOL0     H89748  11.268   7.779   0.286 -0.3252 -0.6455  0.4481
  665MOL0     H89749  11.156   7.510   0.199 -0.3767 -1.7004  1.4986
  665MOL0     H89750  11.319   7.581   0.173  1.2276 -0.7348  0.7476
  665MOL0     H89751  11.233   7.509   0.464 -0.5658  0.7545 -0.1613
  665MOL0     H89752  11.382   7.572   0.396 -0.5832 -0.1304  0.3474
  665MOL0     H89753  11.412   7.366   0.268  1.9287 -2.1504  1.6324
  665MOL0     H89754  11.378   7.325   0.440  1.1931 -3.0200 -1.4352
  665MOL0     H89755  10.480   7.731   0.224 -3.1801  1.4405  1.0761
  665MOL0     H89756  10.251   7.682   0.218 -0.7923 -2.5765 -2.1185
  665MOL0     H89757   9.869   7.655   0.129 -1.5316 -0.9671  0.4958
  665MOL0     H89758   9.622   7.626   0.132  1.8679  0.1274  0.9480
  665MOL0     H89759   7.975   7.848   0.806 -1.0036 -1.2981  0.7678
  665MOL0     H89760   7.740   7.844   0.889 -1.3806  0.1983 -0.6431
  665MOL0     H89761   7.354   7.784   0.942  0.6672 -1.1822  0.3446
  665MOL0     H89762   7.113   7.844   0.984  0.2170  2.1626 -2.7388
  665MOL0     H89763   6.837   7.536   0.848  2.6179  0.1074 -1.8193
  665MOL0     H89764   6.771   7.655   0.738  1.8096 -2.8252 -1.2681
  665MOL0     H89765   6.653   7.759   0.952 -0.3619  0.2023 -1.0541
  665MOL0     H89766   6.764   7.652   1.051  1.3511 -0.7376 -0.5716
  665MOL0     H89767   6.583   7.508   1.049 -2.3812  4.7240  0.3673
  665MOL0     H89768   6.665   7.462   0.902  1.3108  1.9421 -0.9634
  665MOL0     H89769   6.407   7.479   0.887 -1.5302  1.6896  1.0036
  665MOL0     H89770   6.436   7.659   0.903  0.0378  0.7177 -2.4541
  665MOL0     H89771   6.537   7.580   0.517  3.6259  1.6694 -0.0859
  665MOL0     H89772   6.990   7.593   0.659 -0.8392  0.7049  0.1205
  665MOL0     H89773   7.124   7.502   0.529 -2.9448  3.1676 -1.1397
  665MOL0     H89774   7.196   7.647   0.475  0.5067 -0.9287 -0.0939
  665MOL0     H89775   7.308   7.522   0.528  0.1510 -1.0030  4.2664
  666MOL0     O89776   6.151   1.436   5.413 -0.3841  0.3358  0.7654
  666MOL0     C89777   6.098   1.327   5.446 -0.4117  0.5297 -0.0812
  666MOL0     O89778   6.044   1.311   5.569  0.3962  1.0689  0.0337
  666MOL0     C89779   6.024   1.425   5.646  0.2096 -0.5348 -0.2744
  666MOL0     C89780   6.132   1.504   5.702 -0.3256  0.0125 -0.0671
  666MOL0     C89781   6.111   1.617   5.774 -0.2020 -0.1395 -0.0013
  666MOL0     C89782   5.980   1.661   5.799  0.1548 -0.9519 -0.5501
  666MOL0     O89783   5.968   1.761   5.892 -0.0187 -0.2600  0.1709
  666MOL0     C89784   5.872   1.867   5.876  0.0452  0.2203  0.2768
  666MOL0     C89785   5.928   1.984   5.949  0.0244  0.0324 -0.2464
  666MOL0     C89786   5.825   2.090   5.934 -1.2385 -0.6920 -0.4009
  666MOL0     C89787   5.878   2.212   6.002  0.5062 -0.6488 -0.5485
  666MOL0     C89788   5.774   2.323   6.042 -0.6346  0.1451  0.1056
  666MOL0     C89789   5.728   2.305   6.184  0.3053 -0.5505 -0.1707
  666MOL0     C89790   5.662   2.164   6.194 -0.8389 -0.0164 -0.7318
  666MOL0     C89791   5.591   2.146   6.324  0.4222 -0.4199  0.1030
  666MOL0     N89792   5.662   2.164   6.449 -0.3605 -0.4848  0.8485
  666MOL0     C89793   5.707   2.069   6.543  0.4825  0.0253 -0.5112
  666MOL0     C89794   5.752   2.130   6.645 -0.1535  0.2130 -0.8655
  666MOL0     C89795   5.808   2.064   6.770  0.0545  0.6425 -0.0042
  666MOL0     C89796   5.954   2.094   6.787  0.6739 -1.4731 -0.6849
  666MOL0     C89797   6.010   2.062   6.926  0.2217 -0.4052 -0.2873
  666MOL0     C89798   6.042   1.914   6.954 -0.3374  0.0291  0.1847
  666MOL0     O89799   6.131   1.861   6.849  0.1955  0.0092 -0.1735
  666MOL0     C89800   6.264   1.856   6.864  0.1867  0.9222 -0.3966
  666MOL0     C89801   6.349   1.900   6.975  0.8002  0.0224 -0.2751
  666MOL0     C89802   6.490   1.889   6.980  0.1811  1.0059  0.7719
  666MOL0     C89803   6.557   1.850   6.859  0.5820 -0.2543  0.6341
  666MOL0     C89804   6.709   1.854   6.851 -0.3248 -0.4762  0.6413
  666MOL0     O89805   6.768   1.929   6.943 -0.0446 -0.4321 -0.1741
  666MOL0     C89806   6.903   1.946   6.951 -0.1244 -0.0641 -0.0760
  666MOL0     C89807   6.974   2.042   6.876  0.4881 -0.5987  0.1891
  666MOL0     C89808   7.114   2.051   6.891 -0.3686  0.1713 -0.7080
  666MOL0     C89809   7.181   1.970   6.982  0.5274 -0.2682 -0.2488
  666MOL0     O89810   7.316   1.983   6.982 -0.4024 -0.1039 -0.0015
  666MOL0     C89811   7.394   1.881   7.044  0.0035  0.1510  0.5243
  666MOL0     C89812   7.532   1.902   6.997 -0.0485  0.9511 -0.2041
  666MOL0     C89813   7.550   1.911   6.847 -0.0144 -0.5464 -0.2210
  666MOL0     C89814   7.684   1.989   6.831 -0.1294 -0.8365 -0.3704
  666MOL0     C89815   7.688   2.149   6.839  0.3595  0.4207 -0.3873
  666MOL0     C89816   7.836   2.197   6.816  0.7313  1.1125 -0.4397
  666MOL0     C89817   7.857   2.213   6.661 -0.2874 -0.1127  0.3595
  666MOL0     C89818   7.826   2.353   6.611 -0.1346  0.0047 -1.3608
  666MOL0    Cl89819   7.672   2.368   6.520 -0.5484  0.0562  0.2290
  666MOL0     C89820   7.114   1.868   7.056  0.1172  0.1603 -1.2107
  666MOL0     C89821   6.976   1.862   7.044 -0.3312 -1.2293  0.3203
  666MOL0     O89822   6.760   1.787   6.762  0.6795  0.2348 -0.1373
  666MOL0     C89823   6.477   1.818   6.750  0.8600  0.2558  0.0867
  666MOL0     C89824   6.340   1.827   6.744  0.3686 -0.2808 -0.2169
  666MOL0     N89825   5.738   2.266   6.617  0.1946 -0.2633 -0.9975
  666MOL0     N89826   5.686   2.284   6.507 -0.3044  0.3897  0.0583
  666MOL0     C89827   5.873   1.587   5.751  0.2455 -0.4533  0.0174
  666MOL0     C89828   5.896   1.471   5.681 -0.0587 -0.1362  0.5326
  666MOL0     C89829   6.102   1.225   5.354  0.1477  0.8150  0.8255
  666MOL0     C89830   6.119   1.256   5.217  1.4280  0.0204 -0.6400
  666MOL0     C89831   6.103   1.168   5.117 -0.1193 -0.4421  0.5272
  666MOL0     C89832   6.092   1.035   5.147  0.0172  0.7523  0.6074
  666MOL0     O89833   6.068   0.939   5.061  0.4648 -0.4056 -0.2429
  666MOL0     C89834   6.097   0.938   4.926  0.7639 -0.0587  0.0626
  666MOL0     C89835   5.968   0.983   4.857  1.0172 -0.3018  0.0262
  666MOL0     C89836   5.896   0.852   4.815 -0.0912  0.5099  1.1624
  666MOL0     C89837   5.833   0.791   4.943  0.4178 -0.2337  0.0575
  666MOL0     C89838   5.787   0.664   4.896 -0.4114 -0.0501 -0.5611
  666MOL0     C89839   5.762   0.552   4.851  0.3647  1.4534 -0.3193
  666MOL0     C89840   6.099   0.994   5.279  0.2568 -0.0257  0.7446
  666MOL0     C89841   6.111   1.085   5.385  0.5750  0.7606  0.2627
  666MOL0     C89842   6.133   1.028   5.523  0.8408 -0.2726 -0.1832
  666MOL0     H89843   6.236   1.474   5.708  0.5470  2.4464 -1.7402
  666MOL0     H89844   6.194   1.668   5.822 -0.4243 -0.3014  0.5576
  666MOL0     H89845   5.832   1.898   5.779 -1.2508  0.0388  0.7385
  666MOL0     H89846   5.777   1.831   5.917 -1.5694  4.1025  0.3490
  666MOL0     H89847   6.013   2.028   5.896 -0.6575  0.3831 -1.0825
  666MOL0     H89848   5.947   1.950   6.051 -2.9919  1.2638  0.8630
  666MOL0     H89849   5.725   2.055   5.961 -0.7391 -0.0047  2.7050
  666MOL0     H89850   5.816   2.112   5.827 -0.2667 -0.4909 -0.4513
  666MOL0     H89851   5.924   2.178   6.094 -3.9369 -3.9654  0.7818
  666MOL0     H89852   5.961   2.262   5.951 -0.2196  0.7813 -0.4119
  666MOL0     H89853   5.829   2.416   6.032  1.0002 -0.7610  0.3161
  666MOL0     H89854   5.698   2.338   5.964 -1.3551  2.2817  1.1442
  666MOL0     H89855   5.816   2.294   6.249  1.8104  0.6699 -1.9124
  666MOL0     H89856   5.662   2.383   6.224  0.2181  0.4968 -2.2364
  666MOL0     H89857   5.735   2.083   6.181 -0.0343  0.5520  0.1437
  666MOL0     H89858   5.583   2.155   6.118 -3.0590  5.2344  0.5702
  666MOL0     H89859   5.516   2.226   6.331 -0.0942 -0.7061 -1.8006
  666MOL0     H89860   5.548   2.046   6.311  2.0960 -1.1589  0.0846
  666MOL0     H89861   5.698   1.961   6.543 -0.9325  0.0520  2.3203
  666MOL0     H89862   5.750   2.114   6.847  1.3948  1.6947  0.3719
  666MOL0     H89863   5.786   1.957   6.777  0.1163  0.6901  1.0061
  666MOL0     H89864   6.014   2.054   6.705 -1.9608 -3.4677 -1.7780
  666MOL0     H89865   5.958   2.203   6.779 -0.8365 -1.2324  1.0688
  666MOL0     H89866   5.933   2.091   6.999  0.0764 -3.5565  0.9857
  666MOL0     H89867   6.100   2.118   6.955 -0.6548  0.0774  1.6850
  666MOL0     H89868   5.952   1.852   6.943  0.6270 -0.9463 -3.4723
  666MOL0     H89869   6.083   1.894   7.054  0.6971 -2.5092 -0.6439
  666MOL0     H89870   6.293   1.940   7.059 -2.2680 -0.0744 -2.1258
  666MOL0     H89871   6.546   1.902   7.073 -0.3553 -1.1763  1.4663
  666MOL0     H89872   6.913   2.098   6.806  0.9816  1.9201  1.6526
  666MOL0     H89873   7.168   2.122   6.829 -1.3710  0.6934 -1.0072
  666MOL0     H89874   7.383   1.888   7.153  0.6489  2.4095  0.4857
  666MOL0     H89875   7.350   1.786   7.011 -1.7969 -0.1623  3.4164
  666MOL0     H89876   7.572   1.990   7.047 -0.6163  1.5588 -0.7902
  666MOL0     H89877   7.580   1.812   7.036 -1.5088 -0.7748 -2.1576
  666MOL0     H89878   7.550   1.815   6.794 -3.2441 -1.6302  1.4499
  666MOL0     H89879   7.483   1.979   6.795 -0.9382 -0.5688  0.8802
  666MOL0     H89880   7.724   1.963   6.732 -1.3442 -3.0451 -0.3353
  666MOL0     H89881   7.748   1.949   6.911 -1.8357 -1.0124  0.9636
  666MOL0     H89882   7.642   2.178   6.933  2.0743  3.9284 -0.4626
  666MOL0     H89883   7.627   2.195   6.761  1.5448 -0.9297 -2.2103
  666MOL0     H89884   7.847   2.290   6.872 -0.7603  0.0808  1.6864
  666MOL0     H89885   7.902   2.121   6.859 -3.2164 -1.7304  1.1763
  666MOL0     H89886   7.802   2.144   6.596 -0.8234  0.3055  0.3680
  666MOL0     H89887   7.965   2.202   6.645 -0.3527  1.1953 -1.1127
  666MOL0     H89888   7.840   2.423   6.694  0.0345 -2.7530  1.0582
  666MOL0     H89889   7.895   2.375   6.528  0.5062  1.4651 -0.4866
  666MOL0     H89890   7.166   1.801   7.123 -0.4258  1.0928  0.1955
  666MOL0     H89891   6.926   1.781   7.096 -1.9805 -0.7740 -0.4728
  666MOL0     H89892   6.535   1.783   6.665 -1.0056 -2.6300 -0.1495
  666MOL0     H89893   6.278   1.799   6.659  0.9379 -0.5187 -0.5533
  666MOL0     H89894   5.771   1.612   5.779  1.0570  3.1588  0.2093
  666MOL0     H89895   5.824   1.401   5.639 -0.1949 -0.4160  1.2161
  666MOL0     H89896   6.119   1.362   5.194  1.4160  0.5931  1.7560
  666MOL0     H89897   6.101   1.206   5.015  2.6010  0.8873  0.9020
  666MOL0     H89898   6.141   0.840   4.907  1.5975 -0.1526  2.2407
  666MOL0     H89899   6.175   1.005   4.889 -0.5687  0.5714 -1.8081
  666MOL0     H89900   5.989   1.022   4.757 -0.2096 -1.7494 -0.8498
  666MOL0     H89901   5.912   1.052   4.921  0.6779  0.3139 -0.9232
  666MOL0     H89902   5.950   0.789   4.744  0.1899  1.4617  0.5165
  666MOL0     H89903   5.815   0.883   4.749  0.5775  2.5771  1.2197
  666MOL0     H89904   5.915   0.770   5.013 -0.3677  0.8005  1.3322
  666MOL0     H89905   5.764   0.863   4.987  0.2209 -1.1259  1.2873
  666MOL0     H89906   5.739   0.455   4.811 -1.9925  2.0731 -0.6131
  666MOL0     H89907   6.084   0.889   5.302  0.3033 -0.2904 -0.3691
  666MOL0     H89908   6.184   0.931   5.522  1.6884  0.1504  0.8275
  666MOL0     H89909   6.205   1.094   5.571 -1.6392  2.6565 -0.1637
  666MOL0     H89910   6.041   1.032   5.583  1.3677  0.3689  0.5987
  667MOL0     O89911  10.830   4.741   9.086  0.3883 -0.3301  0.3008
  667MOL0     C89912  10.929   4.812   9.098 -0.1003  0.3012  0.2025
  667MOL0     O89913  10.950   4.923   9.021  0.7199 -0.1033  1.0966
  667MOL0     C89914  10.886   4.922   8.896  0.6515 -0.3731 -0.6469
  667MOL0     C89915  10.774   5.004   8.871  0.2129  0.3655 -0.6834
  667MOL0     C89916  10.723   5.015   8.743 -0.2407 -1.4726 -0.2598
  667MOL0     C89917  10.789   4.947   8.638  0.2229  0.2261  0.0017
  667MOL0     O89918  10.746   4.941   8.504  0.1448 -0.5219 -0.5085
  667MOL0     C89919  10.634   5.027   8.476 -0.3528 -0.5732 -0.1168
  667MOL0     C89920  10.627   5.022   8.323  0.8549  0.0818 -0.3372
  667MOL0     C89921  10.509   5.112   8.278  0.4962  0.0864 -0.0061
  667MOL0     C89922  10.465   5.080   8.133 -0.3137 -0.1412 -0.2635
  667MOL0     C89923  10.344   5.165   8.102 -0.5657  0.1115  0.1042
  667MOL0     C89924  10.293   5.149   7.958  0.7666 -0.3632 -0.2485
  667MOL0     C89925  10.156   5.217   7.930  0.2059 -0.6145 -0.6251
  667MOL0     C89926  10.176   5.379   7.937  0.9445  0.6346 -0.6342
  667MOL0     N89927  10.101   5.448   7.831  0.3338  0.2036 -0.3392
  667MOL0     C89928  10.125   5.458   7.701 -0.3105 -0.1075  0.3356
  667MOL0     C89929  10.015   5.503   7.644 -0.4394  0.1132  0.7087
  667MOL0     C89930   9.982   5.520   7.499  0.5472 -0.0583 -1.0700
  667MOL0     C89931  10.008   5.394   7.422  0.4869 -0.0477 -0.6745
  667MOL0     C89932   9.921   5.280   7.458  0.4658  0.1323 -0.5799
  667MOL0     C89933   9.945   5.168   7.360  0.2925 -0.4704  0.5727
  667MOL0     O89934   9.890   5.198   7.234 -0.3592 -0.5744  0.4287
  667MOL0     C89935   9.945   5.125   7.129 -0.3878 -0.1752 -0.8009
  667MOL0     C89936   9.985   4.990   7.140  0.0099  0.0332 -0.2216
  667MOL0     C89937  10.032   4.938   7.016 -0.0290 -0.4279 -0.2250
  667MOL0     C89938  10.051   5.016   6.905 -0.6057  0.9685 -0.2545
  667MOL0     C89939  10.122   4.956   6.789 -0.0346 -0.4834 -0.5846
  667MOL0     O89940  10.147   4.836   6.784 -0.0843  0.2119  0.4199
  667MOL0     C89941  10.215   4.794   6.671 -0.0274 -0.2619  0.1271
  667MOL0     C89942  10.353   4.819   6.654 -0.5204  0.4515  0.4756
  667MOL0     C89943  10.420   4.768   6.535  0.5698 -0.0652  0.1153
  667MOL0     C89944  10.348   4.695   6.436 -0.2080  0.6696  0.8069
  667MOL0     O89945  10.394   4.622   6.325  0.8764  1.3675 -0.9798
  667MOL0     C89946  10.525   4.658   6.276 -0.1906 -0.6263 -0.2081
  667MOL0     C89947  10.558   4.593   6.143 -0.7776 -0.6432  0.3635
  667MOL0     C89948  10.698   4.644   6.082 -0.0844 -0.4610  0.6318
  667MOL0     C89949  10.745   4.555   5.956  0.1437  0.1859  0.0228
  667MOL0     C89950  10.889   4.573   5.905  0.1140 -0.4533 -0.0376
  667MOL0     C89951  10.897   4.488   5.770  0.3511 -0.8737 -0.7365
  667MOL0     C89952  11.033   4.507   5.705 -0.4577 -1.5659  0.6477
  667MOL0     C89953  11.034   4.453   5.564 -0.5489 -0.6654 -0.3748
  667MOL0    Cl89954  11.184   4.496   5.488  0.3593 -0.0158  0.0827
  667MOL0     C89955  10.211   4.669   6.463 -0.5744  0.6835  0.7887
  667MOL0     C89956  10.144   4.723   6.575 -0.0657  0.4940 -0.3619
  667MOL0     O89957  10.152   5.039   6.700 -0.7997 -0.3475 -0.6973
  667MOL0     C89958   9.999   5.146   6.896 -0.1371  1.0118 -0.1855
  667MOL0     C89959   9.955   5.199   7.008  0.7155  0.5954 -0.1793
  667MOL0     N89960   9.924   5.527   7.745  0.6962 -0.6155  0.2728
  667MOL0     N89961   9.977   5.495   7.856  0.4520 -0.4047 -0.1852
  667MOL0     C89962  10.905   4.871   8.658  0.2419  0.0523  0.7326
  667MOL0     C89963  10.955   4.854   8.785  1.0723  0.0344 -0.5323
  667MOL0     C89964  11.018   4.803   9.220  0.4462 -0.7750 -0.7770
  667MOL0     C89965  11.059   4.922   9.277 -0.9409  0.4095 -1.0989
  667MOL0     C89966  11.132   4.922   9.392 -0.4069  0.2546  0.4806
  667MOL0     C89967  11.176   4.802   9.451  1.1062 -0.2437  0.0101
  667MOL0     O89968  11.247   4.793   9.567  0.0607 -0.5659  0.0845
  667MOL0     C89969  11.295   4.885   9.662  0.5616 -0.4889 -0.2648
  667MOL0     C89970  11.173   4.918   9.757  0.6879  0.7712  0.6958
  667MOL0     C89971  11.189   5.031   9.853  0.0860 -0.7740  1.1714
  667MOL0     C89972  11.318   5.027   9.942 -0.0569  0.4573 -0.2730
  667MOL0     C89973  11.306   5.141  10.032 -0.4507  1.0732 -0.0411
  667MOL0     C89974  11.293   5.236  10.110 -0.2084 -0.4477  0.3326
  667MOL0     C89975  11.142   4.682   9.389  0.2406 -0.1311 -0.7191
  667MOL0     C89976  11.066   4.676   9.274  0.7261 -0.4313  0.1470
  667MOL0     C89977  11.041   4.534   9.198  0.6777  0.2492 -0.3001
  667MOL0     H89978  10.732   5.073   8.944  1.1015 -1.6267  1.8411
  667MOL0     H89979  10.630   5.066   8.721 -2.3617 -2.8061  4.2913
  667MOL0     H89980  10.536   4.986   8.503 -1.2977  1.1759 -0.7029
  667MOL0     H89981  10.643   5.130   8.513  2.7483  0.3908 -2.9760
  667MOL0     H89982  10.601   4.922   8.288 -1.3684  0.4636  0.0228
  667MOL0     H89983  10.721   5.042   8.272  0.6468 -3.3995 -2.3907
  667MOL0     H89984  10.550   5.213   8.281 -0.5311  0.5405 -0.5802
  667MOL0     H89985  10.423   5.087   8.341  0.1089 -1.5360 -1.1035
  667MOL0     H89986  10.546   5.101   8.062  0.2245 -2.5498 -0.4384
  667MOL0     H89987  10.433   4.976   8.117  0.0579  0.0329 -2.4352
  667MOL0     H89988  10.261   5.140   8.170  1.1323 -1.4571  1.7128
  667MOL0     H89989  10.379   5.267   8.117  1.4851 -0.3200 -1.3812
  667MOL0     H89990  10.362   5.184   7.881  0.7649  3.7301  1.3234
  667MOL0     H89991  10.268   5.043   7.949 -0.8858  0.1372 -2.1913
  667MOL0     H89992  10.086   5.188   8.009  2.7297  0.2077  2.1045
  667MOL0     H89993  10.120   5.194   7.829 -2.6210 -0.3371  0.2310
  667MOL0     H89994  10.145   5.428   8.030 -1.1787  1.1977 -1.5991
  667MOL0     H89995  10.284   5.394   7.922  1.3508  1.0435  2.1107
  667MOL0     H89996  10.217   5.434   7.648  2.3812  3.4387  2.9115
  667MOL0     H89997   9.879   5.554   7.489  0.3839 -0.0768  0.3084
  667MOL0     H89998  10.051   5.594   7.456  2.1612  0.3456  1.8991
  667MOL0     H89999   9.984   5.430   7.321 -0.2527  0.8847 -0.1796
  667MOL0     H90000  10.114   5.368   7.415  1.3831  2.9163  0.5215
  667MOL0     H90001   9.815   5.308   7.452  0.1544 -0.8627 -0.0417
  667MOL0     H90002   9.948   5.240   7.556  3.5694  2.6624 -0.2708
  667MOL0     H90003   9.900   5.076   7.397  2.0585 -2.0446 -0.9892
  667MOL0     H90004  10.050   5.138   7.356  0.1963 -0.7054 -0.5459
  667MOL0     H90005   9.981   4.941   7.237  0.1141  2.1946  0.9254
  667MOL0     H90006  10.064   4.834   7.012  2.0397  0.1847 -1.5188
  667MOL0     H90007  10.414   4.851   6.738  0.6244 -1.9044  0.6125
  667MOL0     H90008  10.527   4.784   6.526  0.9459 -2.6118 -0.7525
  667MOL0     H90009  10.526   4.766   6.259 -1.4735 -0.8774 -2.0948
  667MOL0     H90010  10.599   4.638   6.354  0.8882  0.5715 -0.8897
  667MOL0     H90011  10.563   4.484   6.151  0.9276 -0.5241  1.3475
  667MOL0     H90012  10.479   4.621   6.073  0.0126 -1.9280 -1.1121
  667MOL0     H90013  10.679   4.748   6.056  1.1384 -0.6149 -1.1011
  667MOL0     H90014  10.784   4.640   6.150  1.8004 -1.6053 -1.6438
  667MOL0     H90015  10.676   4.569   5.872  1.8279 -1.9685 -1.8454
  667MOL0     H90016  10.739   4.448   5.978  1.1060 -0.0704 -0.8635
  667MOL0     H90017  10.962   4.524   5.970  0.4019  0.8057  0.6186
  667MOL0     H90018  10.917   4.676   5.881  2.1573 -1.0359 -0.3253
  667MOL0     H90019  10.885   4.383   5.798 -0.7620  0.0163  2.6238
  667MOL0     H90020  10.821   4.520   5.699  0.0639 -1.1413 -0.5532
  667MOL0     H90021  11.115   4.460   5.760  3.9635  1.3590 -2.7105
  667MOL0     H90022  11.049   4.615   5.702 -2.6013 -0.9275  4.9231
  667MOL0     H90023  11.026   4.344   5.569  1.2946 -0.8090  0.2720
  667MOL0     H90024  10.943   4.489   5.514 -1.8121  0.2510  2.3534
  667MOL0     H90025  10.150   4.622   6.386 -0.0320  2.6017 -0.9229
  667MOL0     H90026  10.036   4.716   6.586 -0.2406  0.7667 -1.7224
  667MOL0     H90027  10.013   5.202   6.804  3.2292 -0.9020 -0.9861
  667MOL0     H90028   9.926   5.303   6.996  0.7895  0.4526 -1.8499
  667MOL0     H90029  10.946   4.817   8.573 -0.0522  0.1413  0.5317
  667MOL0     H90030  11.043   4.793   8.802  0.4384 -0.5338  0.8621
  667MOL0     H90031  11.012   5.015   9.244 -0.6051  0.8500 -0.3679
  667MOL0     H90032  11.152   5.021   9.433 -2.6581  2.2913 -2.8867
  667MOL0     H90033  11.335   4.973   9.610 -2.9219 -0.1564 -2.7321
  667MOL0     H90034  11.369   4.850   9.734  3.0318  2.8655 -0.9188
  667MOL0     H90035  11.155   4.820   9.801 -1.1643 -0.3794 -2.2909
  667MOL0     H90036  11.085   4.932   9.692 -0.3267  0.1225  1.8905
  667MOL0     H90037  11.096   5.024   9.910 -2.3360  0.4733 -2.2761
  667MOL0     H90038  11.189   5.127   9.800 -2.6001 -1.6586 -0.6605
  667MOL0     H90039  11.318   4.939  10.008 -0.3346  1.0126  0.4747
  667MOL0     H90040  11.411   5.041   9.887 -0.4605  3.3479 -0.3735
  667MOL0     H90041  11.295   5.323  10.173  1.2633 -0.1619 -0.0824
  667MOL0     H90042  11.173   4.589   9.434  0.3418  0.5687  0.7313
  667MOL0     H90043  11.088   4.449   9.249 -0.2038 -1.7589 -2.6660
  667MOL0     H90044  10.935   4.510   9.193  1.5231 -4.1005 -1.5481
  667MOL0     H90045  11.089   4.538   9.100  2.3856  0.1574  0.4906
  668MOL0     O90046   0.448   2.281   6.062 -0.1658  0.0360 -1.2745
  668MOL0     C90047   0.386   2.247   5.964 -0.8415 -0.0862 -0.0362
  668MOL0     O90048   0.436   2.226   5.841 -1.1825 -0.1059  0.5402
  668MOL0     C90049   0.568   2.199   5.815 -0.2975  0.3967 -1.1379
  668MOL0     C90050   0.658   2.128   5.908  1.0983 -0.2964 -0.8671
  668MOL0     C90051   0.794   2.090   5.884  0.1826 -0.6690  0.0217
  668MOL0     C90052   0.850   2.128   5.760  0.5639  0.3689  0.3725
  668MOL0     O90053   0.973   2.079   5.736 -0.4852 -0.0472  0.2239
  668MOL0     C90054   1.052   2.129   5.631  0.2892  0.0321  0.2479
  668MOL0     C90055   1.157   2.015   5.619 -0.6470 -0.9302 -0.2325
  668MOL0     C90056   1.265   2.027   5.725 -0.2687 -0.4122 -0.0977
  668MOL0     C90057   1.386   1.932   5.696  0.7982 -0.3477 -0.3063
  668MOL0     C90058   1.503   1.951   5.789 -0.9835  0.5710  0.1864
  668MOL0     C90059   1.561   2.098   5.776  0.5443  0.2341 -0.1988
  668MOL0     C90060   1.594   2.134   5.631  0.5876  0.1074  0.0006
  668MOL0     C90061   1.701   2.241   5.645 -0.1025  0.1750  0.2167
  668MOL0     N90062   1.790   2.231   5.535  0.5806 -0.7250  0.1855
  668MOL0     C90063   1.780   2.310   5.417  1.3142 -0.7156 -0.0463
  668MOL0     C90064   1.898   2.271   5.358 -0.7286  0.0005  0.5896
  668MOL0     C90065   1.939   2.306   5.210  0.3937  0.0738 -0.1793
  668MOL0     C90066   2.052   2.405   5.197  0.6183 -0.2806 -0.9722
  668MOL0     C90067   2.115   2.401   5.052  0.7378 -0.2892  0.6711
  668MOL0     C90068   2.247   2.469   5.058 -0.9929 -0.1364  0.0619
  668MOL0     O90069   2.328   2.440   4.945 -0.0793 -0.0427  0.2617
  668MOL0     C90070   2.445   2.502   4.904  0.4730  0.4535 -0.1957
  668MOL0     C90071   2.511   2.585   4.988 -0.2580  0.6237  0.1736
  668MOL0     C90072   2.627   2.643   4.940  0.0884  0.1611 -0.2484
  668MOL0     C90073   2.675   2.637   4.803  1.3913  0.2859 -0.0211
  668MOL0     C90074   2.798   2.693   4.767  0.3176  0.8500  0.9591
  668MOL0     O90075   2.857   2.648   4.656  0.2636 -0.2794  0.1830
  668MOL0     C90076   2.994   2.674   4.640  0.9054  0.1239  0.0100
  668MOL0     C90077   3.060   2.799   4.632  0.5322 -0.6839 -0.9384
  668MOL0     C90078   3.197   2.814   4.597  0.6993  0.0328 -0.2615
  668MOL0     C90079   3.264   2.692   4.567 -0.1076 -0.3729 -0.5207
  668MOL0     O90080   3.398   2.697   4.538  0.0495  0.6897  0.3221
  668MOL0     C90081   3.487   2.784   4.602  0.6626 -1.0431 -0.0153
  668MOL0     C90082   3.632   2.737   4.581 -0.2453 -0.4659 -0.0703
  668MOL0     C90083   3.712   2.846   4.662 -0.2645 -0.6041 -0.1084
  668MOL0     C90084   3.857   2.814   4.658 -0.3945 -0.5047 -0.7078
  668MOL0     C90085   3.950   2.925   4.721  0.2120  0.3867  0.4476
  668MOL0     C90086   4.107   2.905   4.706 -0.2625  0.4788  0.7820
  668MOL0     C90087   4.188   3.017   4.759 -0.0008 -0.0454  0.8264
  668MOL0     C90088   4.329   3.011   4.705 -0.0093  0.9296 -0.0403
  668MOL0    Cl90089   4.438   2.864   4.754  0.3957 -0.3930  0.1515
  668MOL0     C90090   3.197   2.572   4.586  0.8582 -0.0203 -0.1405
  668MOL0     C90091   3.069   2.562   4.612 -0.4380  0.1822  0.0416
  668MOL0     O90092   2.850   2.760   4.850  0.8979  0.7856 -0.4576
  668MOL0     C90093   2.599   2.550   4.724 -0.0712  0.1697  0.4567
  668MOL0     C90094   2.491   2.483   4.778  1.0767  0.2978 -0.8723
  668MOL0     N90095   1.969   2.178   5.437 -0.0883  0.2816  0.4088
  668MOL0     N90096   1.898   2.154   5.542  0.3024  0.7728  0.9466
  668MOL0     C90097   0.767   2.198   5.668  0.2966  0.7731  0.0301
  668MOL0     C90098   0.628   2.228   5.694 -1.4177 -0.0393  0.0358
  668MOL0     C90099   0.241   2.249   5.980 -0.7181 -0.6881 -0.6813
  668MOL0     C90100   0.185   2.262   6.109 -0.0329 -0.7221 -0.5505
  668MOL0     C90101   0.048   2.266   6.132  0.3013 -0.4167  0.8541
  668MOL0     C90102  -0.040   2.256   6.022  0.7943 -1.0076 -0.0369
  668MOL0     O90103  -0.172   2.285   6.056 -1.2874  0.1715 -0.5711
  668MOL0     C90104  -0.267   2.184   6.014 -0.2760 -0.4129  0.1949
  668MOL0     C90105  -0.398   2.221   6.084 -0.7624  0.1440 -0.5393
  668MOL0     C90106  -0.390   2.229   6.243  0.2230  0.2947 -0.0907
  668MOL0     C90107  -0.505   2.139   6.315 -0.3930  0.0633 -0.6648
  668MOL0     C90108  -0.587   2.224   6.402 -0.7647 -0.6643 -0.9144
  668MOL0     C90109  -0.669   2.300   6.449  0.5207 -0.4623  0.7114
  668MOL0     C90110   0.005   2.236   5.891 -0.4850 -0.0949 -0.7918
  668MOL0     C90111   0.147   2.232   5.872  1.3237 -0.1721  0.5649
  668MOL0     C90112   0.178   2.224   5.726 -1.0125 -0.2733  0.3508
  668MOL0     H90113   0.634   2.107   6.012  0.5558 -0.4570 -1.0215
  668MOL0     H90114   0.852   2.040   5.961 -1.0035 -3.0304 -0.5125
  668MOL0     H90115   0.989   2.136   5.542 -0.3254  0.1046  0.6798
  668MOL0     H90116   1.082   2.231   5.658 -0.3506 -0.4609  3.0857
  668MOL0     H90117   1.190   2.020   5.514  0.2999  1.9111  0.0914
  668MOL0     H90118   1.110   1.918   5.636 -0.0506 -0.9233  1.6604
  668MOL0     H90119   1.222   2.009   5.824 -2.8493 -0.8331 -1.2203
  668MOL0     H90120   1.303   2.129   5.725 -0.0442 -0.4810  1.0270
  668MOL0     H90121   1.347   1.830   5.691 -0.5830  0.0685  1.1149
  668MOL0     H90122   1.419   1.957   5.595  0.5682 -1.6439 -0.7154
  668MOL0     H90123   1.472   1.934   5.893 -0.0508 -1.8880  0.1156
  668MOL0     H90124   1.581   1.881   5.759 -0.5171  1.8140 -1.6948
  668MOL0     H90125   1.496   2.177   5.815 -1.0899 -0.8091 -0.6730
  668MOL0     H90126   1.645   2.095   5.846 -1.2472 -0.5083  2.0757
  668MOL0     H90127   1.504   2.168   5.579  2.4920  1.5146 -2.5771
  668MOL0     H90128   1.639   2.052   5.573  0.5179 -0.2203  0.4069
  668MOL0     H90129   1.653   2.339   5.640 -1.6032 -0.5896 -2.1607
  668MOL0     H90130   1.758   2.230   5.737 -0.5379  1.7339  0.7069
  668MOL0     H90131   1.696   2.373   5.392  0.8839 -1.0906  0.4396
  668MOL0     H90132   1.966   2.210   5.166 -2.0551  0.3345 -2.5223
  668MOL0     H90133   1.849   2.335   5.154  0.5223  0.8325 -0.0027
  668MOL0     H90134   2.015   2.503   5.228 -0.1283 -1.0033  0.5549
  668MOL0     H90135   2.128   2.376   5.270 -0.4736 -0.0405  0.3007
  668MOL0     H90136   2.063   2.442   4.964  0.0014  0.9673  1.6637
  668MOL0     H90137   2.136   2.295   5.037 -1.2497 -1.1873  3.4661
  668MOL0     H90138   2.297   2.419   5.141 -0.6535  1.0441  0.5988
  668MOL0     H90139   2.234   2.575   5.083 -3.1483 -0.1965 -0.6336
  668MOL0     H90140   2.478   2.593   5.091 -0.0986  1.5641  0.1623
  668MOL0     H90141   2.692   2.695   5.010  0.3302 -0.9417  0.3724
  668MOL0     H90142   3.001   2.888   4.647  1.2681 -0.5164  1.3738
  668MOL0     H90143   3.245   2.909   4.573 -1.5436  0.7202 -2.5223
  668MOL0     H90144   3.473   2.886   4.564  0.1200 -1.0631  0.1214
  668MOL0     H90145   3.464   2.785   4.709 -3.0367 -1.4007 -0.6535
  668MOL0     H90146   3.665   2.639   4.616  3.9401  0.3056 -1.3598
  668MOL0     H90147   3.647   2.729   4.473 -5.1766 -1.1074 -0.9349
  668MOL0     H90148   3.705   2.949   4.625 -0.7681 -0.3046  0.7882
  668MOL0     H90149   3.669   2.859   4.762  0.4514  0.2324  0.1019
  668MOL0     H90150   3.901   2.799   4.559  5.8503 -0.4107  1.5873
  668MOL0     H90151   3.866   2.720   4.713 -0.9770 -0.0904  0.1103
  668MOL0     H90152   3.931   2.924   4.828 -2.2232  0.2847  0.0801
  668MOL0     H90153   3.927   3.024   4.681  1.5431  0.6783  0.3381
  668MOL0     H90154   4.138   2.813   4.757 -1.1543 -0.3800 -0.1581
  668MOL0     H90155   4.125   2.877   4.602 -1.5442 -4.2785  1.6026
  668MOL0     H90156   4.196   3.024   4.868 -1.0040  4.6040  0.8024
  668MOL0     H90157   4.139   3.112   4.733  0.1493 -0.0357  0.5661
  668MOL0     H90158   4.328   3.028   4.597  1.4128  1.1887 -0.0267
  668MOL0     H90159   4.387   3.100   4.731  1.9150 -0.4102  0.4656
  668MOL0     H90160   3.250   2.479   4.565 -0.3276  0.0075 -3.9307
  668MOL0     H90161   3.017   2.467   4.618 -0.5213  0.1006 -1.4844
  668MOL0     H90162   2.631   2.525   4.623  1.2994 -0.9178  1.1389
  668MOL0     H90163   2.425   2.412   4.728  3.5747 -0.6704 -3.0368
  668MOL0     H90164   0.809   2.233   5.574  1.0207 -2.0207 -0.7612
  668MOL0     H90165   0.563   2.272   5.618 -0.0263 -0.4081 -1.4289
  668MOL0     H90166   0.248   2.266   6.198 -3.8794  1.4329  2.3733
  668MOL0     H90167   0.004   2.278   6.230 -0.1151  0.4453  0.5788
  668MOL0     H90168  -0.238   2.089   6.061  0.6593 -0.1028  0.2718
  668MOL0     H90169  -0.272   2.180   5.905 -2.6318  2.2167  0.0932
  668MOL0     H90170  -0.459   2.134   6.061 -0.3957 -1.3888  3.4532
  668MOL0     H90171  -0.439   2.309   6.033  3.1957  0.6263 -3.3599
  668MOL0     H90172  -0.384   2.333   6.277  2.7802  0.0798  0.2980
  668MOL0     H90173  -0.296   2.184   6.275 -0.1615 -1.7492 -1.5723
  668MOL0     H90174  -0.569   2.091   6.241 -0.1659 -0.5362 -0.4785
  668MOL0     H90175  -0.468   2.069   6.391 -1.0453  2.0810  1.6394
  668MOL0     H90176  -0.741   2.359   6.501 -0.5575  1.7908 -2.9905
  668MOL0     H90177  -0.067   2.220   5.811 -0.3110  5.2306 -2.4429
  668MOL0     H90178   0.094   2.222   5.656  0.3380  0.2599 -1.3566
  668MOL0     H90179   0.235   2.314   5.700 -0.5478 -0.7525 -0.3153
  668MOL0     H90180   0.242   2.137   5.708 -0.6658  0.5468 -3.2232
  669MOL0     O90181   1.617   6.702   7.255  0.0020 -0.1832  0.0200
  669MOL0     C90182   1.532   6.757   7.314  1.5171  0.3280  0.4183
  669MOL0     O90183   1.409   6.703   7.345  0.1255 -0.5098 -0.6036
  669MOL0     C90184   1.364   6.627   7.242 -0.4349  0.1410 -1.3337
  669MOL0     C90185   1.325   6.697   7.125 -1.5101 -0.1523 -0.4072
  669MOL0     C90186   1.275   6.622   7.019  0.1402  0.1536 -0.8974
  669MOL0     C90187   1.271   6.484   7.012  0.7593 -0.0650 -0.4225
  669MOL0     O90188   1.233   6.426   6.896  0.5575 -0.4267 -0.2484
  669MOL0     C90189   1.290   6.297   6.867 -0.7284  0.6408 -0.4632
  669MOL0     C90190   1.329   6.284   6.719  0.5925 -0.6456 -0.3412
  669MOL0     C90191   1.369   6.136   6.692 -0.1748  0.8809  0.2658
  669MOL0     C90192   1.430   6.104   6.562 -0.7623 -0.4660  0.5016
  669MOL0     C90193   1.354   6.163   6.444  1.5394  0.1402 -0.1443
  669MOL0     C90194   1.207   6.106   6.439  0.3545  0.2129 -0.3269
  669MOL0     C90195   1.130   6.144   6.309 -0.5140  0.6112 -0.6340
  669MOL0     C90196   0.982   6.126   6.327 -0.8248  0.3921  0.9121
  669MOL0     N90197   0.929   6.174   6.198  0.2867 -0.5705  0.9690
  669MOL0     C90198   0.974   6.138   6.078  0.6816  0.6878 -0.2839
  669MOL0     C90199   0.914   6.220   5.991 -0.9402 -0.4209  0.3686
  669MOL0     C90200   0.924   6.199   5.836 -0.1706  0.9644 -0.1432
  669MOL0     C90201   0.936   6.328   5.762  0.7076 -0.9225  0.2355
  669MOL0     C90202   0.866   6.312   5.620  0.7632 -0.8564 -1.0429
  669MOL0     C90203   0.956   6.215   5.536 -0.5431 -0.7372 -0.3927
  669MOL0     O90204   0.912   6.081   5.548  0.4492  0.1821 -0.2979
  669MOL0     C90205   0.803   6.044   5.473  0.1506 -0.9249 -0.8526
  669MOL0     C90206   0.709   6.006   5.562  0.4588  0.0885 -0.4757
  669MOL0     C90207   0.588   5.957   5.514  0.6770  0.2135  1.0391
  669MOL0     C90208   0.574   5.934   5.375  0.1227 -0.2264  0.0742
  669MOL0     C90209   0.447   5.874   5.323 -0.1680  0.0802 -0.6401
  669MOL0     O90210   0.346   5.853   5.414 -0.2912  0.6922 -0.0649
  669MOL0     C90211   0.225   5.795   5.363  1.1305 -0.2102  0.0238
  669MOL0     C90212   0.233   5.660   5.331 -0.3432  0.0695 -0.3869
  669MOL0     C90213   0.120   5.598   5.273 -0.5334 -0.5559 -0.0974
  669MOL0     C90214   0.010   5.676   5.238  0.7238 -0.1888  1.0340
  669MOL0     O90215  -0.110   5.630   5.185  0.8735 -0.0280  0.5410
  669MOL0     C90216  -0.160   5.506   5.223 -0.1239  0.5115  0.0339
  669MOL0     C90217  -0.297   5.467   5.161 -0.1964 -0.5772 -1.1611
  669MOL0     C90218  -0.311   5.399   5.021 -0.4348 -0.7685  1.2938
  669MOL0     C90219  -0.242   5.266   5.016  0.1920 -0.2951  0.0549
  669MOL0     C90220  -0.250   5.210   4.868 -0.2828 -0.5676 -0.0962
  669MOL0     C90221  -0.383   5.178   4.803  1.2189  0.1377 -0.3468
  669MOL0     C90222  -0.493   5.124   4.906  0.7763 -0.2440  0.2196
  669MOL0     C90223  -0.602   5.026   4.845  0.3761  0.0142  0.2722
  669MOL0    Cl90224  -0.717   4.967   4.978  0.0618  0.2929 -0.1395
  669MOL0     C90225   0.016   5.820   5.252  0.2699  0.1949  0.6572
  669MOL0     C90226   0.122   5.875   5.319  0.1235 -0.1351  0.5159
  669MOL0     O90227   0.438   5.852   5.202 -0.4560 -0.3661  0.4706
  669MOL0     C90228   0.681   5.973   5.292 -0.0501 -0.4706  0.0124
  669MOL0     C90229   0.795   6.032   5.336 -0.1549  0.7635  0.1294
  669MOL0     N90230   0.834   6.302   6.060 -0.0910 -0.6193 -0.1414
  669MOL0     N90231   0.844   6.279   6.186  0.1590 -0.2986 -0.0211
  669MOL0     C90232   1.304   6.412   7.137  0.0742  0.8303 -0.3020
  669MOL0     C90233   1.349   6.488   7.245 -0.2096 -0.8024 -0.4102
  669MOL0     C90234   1.543   6.901   7.355  0.0791  0.3963  0.1361
  669MOL0     C90235   1.427   6.965   7.402 -0.2552  0.1004 -0.3471
  669MOL0     C90236   1.425   7.105   7.439 -0.2619  0.0534 -1.3298
  669MOL0     C90237   1.546   7.175   7.435  0.4333  0.1599  0.5413
  669MOL0     O90238   1.573   7.308   7.454 -0.0211 -0.1664 -0.0172
  669MOL0     C90239   1.498   7.392   7.534  0.1745 -0.4765  0.3610
  669MOL0     C90240   1.430   7.496   7.453 -0.5784  0.1959 -0.4100
  669MOL0     C90241   1.429   7.636   7.498 -0.0437  0.6366 -0.4468
  669MOL0     C90242   1.391   7.643   7.647  0.6699  0.7267 -0.6540
  669MOL0     C90243   1.377   7.776   7.683 -0.0342  0.0081 -0.3377
  669MOL0     C90244   1.369   7.893   7.709  0.2044  0.1081 -0.2590
  669MOL0     C90245   1.668   7.096   7.403  0.6525  0.0422 -0.1581
  669MOL0     C90246   1.667   6.967   7.353 -0.9119 -0.0703  1.0592
  669MOL0     C90247   1.793   6.911   7.288  0.0882  0.3045 -0.4299
  669MOL0     H90248   1.331   6.805   7.132  3.0331 -0.2034 -0.9690
  669MOL0     H90249   1.250   6.677   6.929 -2.6296  1.1327  0.3671
  669MOL0     H90250   1.364   6.261   6.939  0.4534  0.7548 -1.5818
  669MOL0     H90251   1.212   6.222   6.882 -0.4603  0.1682 -1.3548
  669MOL0     H90252   1.413   6.347   6.687 -0.2960  0.5334 -0.4263
  669MOL0     H90253   1.237   6.295   6.661  0.4440 -2.3554 -0.4875
  669MOL0     H90254   1.281   6.074   6.710 -0.8693  2.5039  3.1861
  669MOL0     H90255   1.438   6.106   6.772 -1.8068  1.4609  1.9761
  669MOL0     H90256   1.533   6.141   6.556 -0.8994 -0.2992 -1.2297
  669MOL0     H90257   1.446   5.996   6.554  0.0337 -0.2570 -1.2662
  669MOL0     H90258   1.345   6.270   6.465 -0.7035 -0.1722  0.7588
  669MOL0     H90259   1.416   6.158   6.354  2.3102 -1.6665  0.4477
  669MOL0     H90260   1.203   5.997   6.447 -1.0932  0.3458  1.5797
  669MOL0     H90261   1.138   6.144   6.515 -1.3698  1.3197 -2.3337
  669MOL0     H90262   1.157   6.080   6.225 -1.8631  4.7689 -4.6684
  669MOL0     H90263   1.147   6.248   6.278  0.6689 -0.4449 -3.8923
  669MOL0     H90264   0.957   6.019   6.335  0.4551  0.0258  0.1982
  669MOL0     H90265   0.935   6.190   6.402  0.3378  0.8823  1.2264
  669MOL0     H90266   1.039   6.061   6.036  0.3308  0.3638 -0.2353
  669MOL0     H90267   1.009   6.134   5.815 -0.2368  1.4009 -1.9009
  669MOL0     H90268   0.832   6.146   5.807  2.7001 -3.1071 -2.8682
  669MOL0     H90269   0.891   6.410   5.818 -2.0309 -0.7299 -2.0358
  669MOL0     H90270   1.044   6.347   5.759  0.9704 -1.4749  3.0952
  669MOL0     H90271   0.851   6.411   5.576  0.2350 -0.3852  0.1574
  669MOL0     H90272   0.766   6.269   5.630 -0.7117  1.7542 -3.4030
  669MOL0     H90273   1.058   6.216   5.574 -1.1917 -1.3108  1.4531
  669MOL0     H90274   0.951   6.245   5.431  1.9181  2.4484  0.2132
  669MOL0     H90275   0.720   6.014   5.669 -0.2046  1.0727 -0.4678
  669MOL0     H90276   0.513   5.919   5.583  1.0194 -0.6522  0.9432
  669MOL0     H90277   0.316   5.600   5.370  0.7218  1.7321 -0.0172
  669MOL0     H90278   0.120   5.491   5.256  1.4839 -0.1770 -3.2178
  669MOL0     H90279  -0.078   5.434   5.208  0.3220  0.6945  1.4555
  669MOL0     H90280  -0.165   5.495   5.331  0.0009 -1.1674 -0.1011
  669MOL0     H90281  -0.347   5.403   5.234  1.5756 -0.5863  0.1401
  669MOL0     H90282  -0.352   5.561   5.154  0.4207 -0.1734 -0.7583
  669MOL0     H90283  -0.415   5.397   4.988 -0.2627  0.2727  0.6220
  669MOL0     H90284  -0.258   5.471   4.957 -0.1845 -1.0616  1.1724
  669MOL0     H90285  -0.276   5.189   5.085  4.4676 -0.6604  2.1212
  669MOL0     H90286  -0.133   5.271   5.030  0.5690 -3.0167 -1.2763
  669MOL0     H90287  -0.200   5.112   4.867 -1.1520 -1.0328  0.5855
  669MOL0     H90288  -0.189   5.272   4.802 -0.0853 -0.5854  0.0691
  669MOL0     H90289  -0.420   5.275   4.768  0.7449  0.4432  0.9290
  669MOL0     H90290  -0.383   5.103   4.723  0.1256  3.2377 -3.4885
  669MOL0     H90291  -0.552   5.210   4.939 -0.2492 -0.1037 -1.7982
  669MOL0     H90292  -0.437   5.086   4.992  2.8807  2.3470  0.1359
  669MOL0     H90293  -0.673   5.069   4.774 -2.9088 -1.8704  2.2250
  669MOL0     H90294  -0.566   4.944   4.783  1.9507  1.4551 -0.8287
  669MOL0     H90295  -0.058   5.897   5.234  0.3869  0.0094 -0.6564
  669MOL0     H90296   0.120   5.983   5.334 -0.7038 -0.5599  5.0333
  669MOL0     H90297   0.668   5.955   5.186 -0.2471  0.3239 -0.1061
  669MOL0     H90298   0.872   6.062   5.266  0.2290  1.5279  0.8593
  669MOL0     H90299   1.295   6.304   7.148  1.3491  0.6814 -0.5467
  669MOL0     H90300   1.389   6.436   7.331 -0.2439 -0.7906 -0.3874
  669MOL0     H90301   1.335   6.915   7.431 -3.4882  2.0717 -5.6269
  669MOL0     H90302   1.339   7.147   7.491  1.0269  1.9895 -0.6481
  669MOL0     H90303   1.571   7.438   7.601  1.0094 -2.0546  0.5719
  669MOL0     H90304   1.419   7.345   7.594  0.1618 -0.6419  0.2158
  669MOL0     H90305   1.327   7.465   7.432 -0.9593 -0.6807  2.3172
  669MOL0     H90306   1.481   7.498   7.356 -1.8890 -0.8280 -1.1424
  669MOL0     H90307   1.354   7.688   7.437  3.7887  2.5322 -4.0601
  669MOL0     H90308   1.529   7.680   7.490  1.6192 -2.6339  0.4513
  669MOL0     H90309   1.293   7.601   7.670  1.6374 -0.3126  1.9301
  669MOL0     H90310   1.476   7.606   7.706  1.0690  1.8499 -0.5062
  669MOL0     H90311   1.382   7.991   7.751 -0.7350  1.6622 -3.2995
  669MOL0     H90312   1.761   7.150   7.392  0.6926  0.3924  1.5994
  669MOL0     H90313   1.811   6.823   7.350  0.7136 -1.0059 -2.3637
  669MOL0     H90314   1.773   6.883   7.184  1.3823 -0.2585 -0.5564
  669MOL0     H90315   1.875   6.984   7.290 -0.3331  0.8387 -1.5766
  670MOL0     O90316  11.143  10.205   4.207 -0.0872 -0.3592  0.9497
  670MOL0     C90317  11.135  10.315   4.261  1.0406  0.2778  0.9647
  670MOL0     O90318  11.026  10.359   4.331  0.4204  0.4360 -0.2945
  670MOL0     C90319  10.916  10.276   4.327  0.5358  0.0727  0.3702
  670MOL0     C90320  10.823  10.302   4.226 -0.3883 -0.1557 -0.0118
  670MOL0     C90321  10.722  10.206   4.197 -0.4158 -0.0411 -0.6056
  670MOL0     C90322  10.709  10.087   4.277  0.0567 -0.4687  0.5747
  670MOL0     O90323  10.607  10.000   4.271  0.3671  0.5720  0.9541
  670MOL0     C90324  10.557   9.961   4.141  0.1441  0.6497 -0.0507
  670MOL0     C90325  10.484   9.828   4.163  0.4283 -0.3379  0.0278
  670MOL0     C90326  10.567   9.703   4.212  0.0949  0.3741  0.7736
  670MOL0     C90327  10.640   9.635   4.103  0.2965  0.2338  0.2077
  670MOL0     C90328  10.759   9.562   4.155 -0.1309 -0.3364  0.1742
  670MOL0     C90329  10.823   9.475   4.049  0.0605  0.9992  0.4141
  670MOL0     C90330  10.965   9.420   4.068  0.3437  0.2189  1.2206
  670MOL0     C90331  10.960   9.318   4.179  0.7950  0.3972 -0.1206
  670MOL0     N90332  11.081   9.242   4.193 -0.8189  0.5437  0.4243
  670MOL0     C90333  11.097   9.109   4.181  0.5126  0.0457  0.6427
  670MOL0     C90334  11.224   9.086   4.224 -0.2658  0.2702 -0.1181
  670MOL0     C90335  11.294   8.958   4.253 -0.4542 -0.5133 -0.2409
  670MOL0     C90336  11.379   8.901   4.138  0.6906 -0.9554 -0.3505
  670MOL0     C90337  11.416   8.755   4.168 -0.3765  0.1979  0.2695
  670MOL0     C90338  11.481   8.697   4.048  0.4510  0.5080  0.4638
  670MOL0     O90339  11.462   8.554   4.067  0.1807  0.2874  0.8236
  670MOL0     C90340  11.507   8.468   3.966  0.1952  0.1806 -0.4478
  670MOL0     C90341  11.548   8.507   3.845  0.9040  0.2400 -0.3389
  670MOL0     C90342  11.593   8.408   3.751  0.1458  1.0486  0.3550
  670MOL0     C90343  11.594   8.267   3.781  0.5191  0.0431  0.1801
  670MOL0     C90344  11.636   8.160   3.677  0.2174 -1.1970  0.3362
  670MOL0     O90345  11.621   8.203   3.548  0.8318 -0.5115  0.7988
  670MOL0     C90346  11.619   8.107   3.452 -0.8275  0.2443 -0.8312
  670MOL0     C90347  11.517   8.020   3.434  0.5251  0.2603  0.7561
  670MOL0     C90348  11.527   7.916   3.344 -0.2653  0.0253 -0.5345
  670MOL0     C90349  11.646   7.893   3.271 -1.3048  0.1883 -0.1498
  670MOL0     O90350  11.647   7.793   3.175  0.6038 -0.1908  0.4355
  670MOL0     C90351  11.771   7.795   3.103  0.1948  0.5988 -0.1066
  670MOL0     C90352  11.777   7.681   3.012 -0.3696 -0.4786  0.2101
  670MOL0     C90353  11.921   7.650   2.976 -0.2753 -0.2747  0.5179
  670MOL0     C90354  11.942   7.528   2.881 -0.3216 -0.7257 -0.6303
  670MOL0     C90355  12.087   7.512   2.850  0.5332  0.1586  0.3595
  670MOL0     C90356  12.180   7.474   2.967 -0.4035 -0.4742  0.6575
  670MOL0     C90357  12.271   7.601   3.013  1.3753  0.0711 -1.1883
  670MOL0     C90358  12.394   7.570   3.102  0.1591 -0.7140 -0.4773
  670MOL0    Cl90359  12.503   7.711   3.126 -0.2533 -0.1700  0.1527
  670MOL0     C90360  11.753   7.988   3.292 -0.7139 -0.5270 -0.8788
  670MOL0     C90361  11.744   8.079   3.391  0.3837  0.1033 -0.3336
  670MOL0     O90362  11.672   8.052   3.714  0.2202 -0.0186  0.2657
  670MOL0     C90363  11.543   8.231   3.910 -0.1451 -0.4087 -0.0514
  670MOL0     C90364  11.501   8.327   3.993 -0.5691  0.4763 -0.1090
  670MOL0     N90365  11.274   9.214   4.263 -0.2919  0.7362 -0.2572
  670MOL0     N90366  11.186   9.311   4.245  0.6655  0.3480  0.3983
  670MOL0     C90367  10.799  10.068   4.382 -0.4857  0.1242  1.0233
  670MOL0     C90368  10.899  10.160   4.412  1.2378  0.6361 -0.0151
  670MOL0     C90369  11.260  10.408   4.255 -0.5298 -0.2830  0.5076
  670MOL0     C90370  11.266  10.529   4.334  0.4541  0.2504  0.8726
  670MOL0     C90371  11.378  10.614   4.329 -0.0581 -0.3974 -0.1206
  670MOL0     C90372  11.485  10.590   4.247 -0.2063  0.0760  0.2915
  670MOL0     O90373  11.589  10.686   4.246  0.1233 -0.3706  0.3190
  670MOL0     C90374  11.612  10.746   4.117  0.6010 -0.5115  0.2891
  670MOL0     C90375  11.711  10.869   4.139  0.3076 -0.3133 -0.4760
  670MOL0     C90376  11.851  10.828   4.175 -0.6516 -0.1535 -0.0722
  670MOL0     C90377  11.961  10.938   4.170 -0.3778  0.6731 -0.2019
  670MOL0     C90378  11.951  11.037   4.061 -0.1093  0.2145  0.7697
  670MOL0     C90379  11.938  11.116   3.964  0.4458 -0.5710 -0.2131
  670MOL0     C90380  11.473  10.480   4.161 -0.2767  0.0313  0.4128
  670MOL0     C90381  11.372  10.382   4.168 -0.1585 -0.5358 -0.6571
  670MOL0     C90382  11.382  10.275   4.064 -0.7434 -0.1932 -0.4068
  670MOL0     H90383  10.818  10.401   4.182 -3.3835 -0.4209 -0.4870
  670MOL0     H90384  10.643  10.232   4.127 -0.6445  0.1105 -0.2970
  670MOL0     H90385  10.485  10.037   4.112 -0.7446 -0.8913 -2.1053
  670MOL0     H90386  10.624   9.948   4.056 -3.0209 -0.4149 -2.5555
  670MOL0     H90387  10.447   9.798   4.064  0.2580 -2.9286  0.8151
  670MOL0     H90388  10.397   9.845   4.227 -0.1678  2.7219 -1.3824
  670MOL0     H90389  10.508   9.622   4.257  1.7934 -1.9170 -0.8691
  670MOL0     H90390  10.644   9.740   4.280  0.8621 -0.3704  0.3360
  670MOL0     H90391  10.569   9.567   4.056 -1.5542  2.1339  0.0683
  670MOL0     H90392  10.672   9.704   4.024 -0.4396 -0.8759 -1.1057
  670MOL0     H90393  10.836   9.630   4.192 -0.2477 -0.2877  0.3315
  670MOL0     H90394  10.732   9.507   4.247 -1.3287 -1.7394 -0.9521
  670MOL0     H90395  10.757   9.390   4.029  2.4201 -0.8356  0.0450
  670MOL0     H90396  10.827   9.533   3.956 -1.2221 -0.8490 -0.8851
  670MOL0     H90397  11.022   9.509   4.098 -1.7071  2.3681 -0.8570
  670MOL0     H90398  11.009   9.388   3.973  0.0352  1.4423  0.6511
  670MOL0     H90399  10.939   9.371   4.273  2.5324 -0.4444  0.7952
  670MOL0     H90400  10.874   9.251   4.169  0.1269  1.3526 -1.0122
  670MOL0     H90401  11.024   9.044   4.134  0.0308  2.3561 -2.0753
  670MOL0     H90402  11.363   8.967   4.337  1.4981 -1.5696 -1.6505
  670MOL0     H90403  11.214   8.886   4.275 -1.0120  0.0172 -0.5136
  670MOL0     H90404  11.313   8.894   4.051 -3.4872 -1.1746  2.5352
  670MOL0     H90405  11.460   8.973   4.122 -0.8477  0.7628 -0.7452
  670MOL0     H90406  11.326   8.695   4.185 -1.3616  1.8827  1.3060
  670MOL0     H90407  11.481   8.730   4.253 -0.4535 -4.2779 -0.7470
  670MOL0     H90408  11.587   8.724   4.040  0.5613 -0.3453 -1.4295
  670MOL0     H90409  11.429   8.734   3.959  3.0236  2.1053 -0.5092
  670MOL0     H90410  11.560   8.612   3.820  0.1811  0.2215 -0.8087
  670MOL0     H90411  11.623   8.434   3.651 -0.9782 -0.1419 -0.3291
  670MOL0     H90412  11.434   8.033   3.504  0.6852  0.9645  0.8302
  670MOL0     H90413  11.445   7.844   3.337  0.5976 -0.9360 -1.0336
  670MOL0     H90414  11.782   7.879   3.034  1.8789  0.8652  0.4362
  670MOL0     H90415  11.851   7.786   3.178  1.2236 -0.8118 -1.3134
  670MOL0     H90416  11.733   7.585   3.039  0.1646 -1.9606 -3.5386
  670MOL0     H90417  11.730   7.699   2.914 -0.4781  1.8950  0.6360
  670MOL0     H90418  11.950   7.736   2.914 -2.3638  0.2254  0.1410
  670MOL0     H90419  11.983   7.632   3.064 -1.8110  0.5600  1.8191
  670MOL0     H90420  11.897   7.560   2.786  1.3805  1.7379 -0.6970
  670MOL0     H90421  11.904   7.435   2.926  1.9005 -1.4920 -0.2487
  670MOL0     H90422  12.122   7.605   2.804  1.6980 -0.2142  0.4648
  670MOL0     H90423  12.098   7.431   2.777 -0.6116 -0.9014  1.3134
  670MOL0     H90424  12.131   7.421   3.049 -1.8975  1.2937  0.9673
  670MOL0     H90425  12.252   7.401   2.930  1.4724  2.1539 -1.3403
  670MOL0     H90426  12.209   7.677   3.062 -3.3212 -3.5953 -0.7595
  670MOL0     H90427  12.305   7.648   2.920  1.7150  1.7889 -0.2367
  670MOL0     H90428  12.365   7.522   3.195 -2.0543 -1.0434 -1.2761
  670MOL0     H90429  12.451   7.493   3.050 -0.1082 -0.4429 -1.1909
  670MOL0     H90430  11.852   7.989   3.248 -0.0546 -4.1445  0.1852
  670MOL0     H90431  11.824   8.149   3.410 -0.2273  1.1910 -1.5821
  670MOL0     H90432  11.548   8.134   3.960  1.7127  1.8292  4.7103
  670MOL0     H90433  11.461   8.303   4.091  3.1441 -1.3343  1.1573
  670MOL0     H90434  10.782   9.987   4.453 -0.9161  0.2364  1.0485
  670MOL0     H90435  10.967  10.140   4.494  2.3891  2.9586 -0.2818
  670MOL0     H90436  11.187  10.566   4.399 -0.3212  1.7960 -0.8635
  670MOL0     H90437  11.380  10.701   4.394 -3.9537 -0.1782 -0.0640
  670MOL0     H90438  11.518  10.778   4.071  0.3100 -0.9311  0.5840
  670MOL0     H90439  11.658  10.681   4.042  2.4796  0.7543  0.2906
  670MOL0     H90440  11.674  10.936   4.218  0.4329 -0.1365 -0.5670
  670MOL0     H90441  11.709  10.919   4.043  1.5341  3.4543  1.2738
  670MOL0     H90442  11.882  10.758   4.096 -1.1621 -1.4077  0.8100
  670MOL0     H90443  11.847  10.770   4.267  0.2537  0.6166  0.4671
  670MOL0     H90444  11.968  10.999   4.261  0.8489  2.7965 -1.6245
  670MOL0     H90445  12.056  10.889   4.147  0.0068  2.5143 -2.9891
  670MOL0     H90446  11.918  11.193   3.893 -2.0983 -0.0901  0.9332
  670MOL0     H90447  11.541  10.466   4.077  0.3461 -4.0859  1.3851
  670MOL0     H90448  11.463  10.289   3.992  1.5634 -1.4124  1.7464
  670MOL0     H90449  11.392  10.179   4.116  2.5317  0.2449 -0.0179
  670MOL0     H90450  11.289  10.274   4.008 -1.1306  0.1285  0.2201
  671MOL0     O90451   4.375   6.845   2.623 -0.6470 -0.3633 -0.0010
  671MOL0     C90452   4.412   6.845   2.741 -0.2894  0.4439  0.0565
  671MOL0     O90453   4.335   6.802   2.842  0.5857 -0.2314 -0.4545
  671MOL0     C90454   4.198   6.769   2.823 -0.6545 -0.1136  1.2544
  671MOL0     C90455   4.107   6.862   2.775 -0.0496 -0.1816  0.1862
  671MOL0     C90456   3.970   6.832   2.785  0.0391 -0.1184 -0.2903
  671MOL0     C90457   3.923   6.704   2.834  0.2907  0.0496  0.0276
  671MOL0     O90458   3.789   6.679   2.844 -0.3691  0.1107 -0.0027
  671MOL0     C90459   3.701   6.782   2.896  1.0373 -0.0561  0.4412
  671MOL0     C90460   3.594   6.721   2.994  0.1201 -0.2014 -0.2908
  671MOL0     C90461   3.642   6.606   3.078 -0.0217 -0.3791 -0.2760
  671MOL0     C90462   3.560   6.602   3.207 -0.4661 -0.2893  0.5709
  671MOL0     C90463   3.631   6.519   3.315 -0.1558 -0.2375  0.0704
  671MOL0     C90464   3.641   6.369   3.287 -0.4836  0.2065  0.1522
  671MOL0     C90465   3.512   6.302   3.334  0.3311 -0.2995 -0.5015
  671MOL0     C90466   3.527   6.144   3.324  0.2366 -0.2586  1.4290
  671MOL0     N90467   3.613   6.081   3.433  0.2022 -0.0490 -0.5781
  671MOL0     C90468   3.751   6.104   3.446  0.1199  0.4693 -0.0519
  671MOL0     C90469   3.779   6.072   3.573  0.1883  0.5549 -0.7325
  671MOL0     C90470   3.925   6.053   3.630 -0.2038  0.2411  0.0953
  671MOL0     C90471   3.981   5.920   3.575 -0.5686 -0.2671 -0.0183
  671MOL0     C90472   4.109   5.865   3.642 -0.6125 -0.6908 -1.0265
  671MOL0     C90473   4.228   5.961   3.608 -0.6584  0.0062 -0.3824
  671MOL0     O90474   4.222   6.059   3.714 -0.4472 -0.1014 -0.6073
  671MOL0     C90475   4.327   6.134   3.766  0.2920 -0.0694 -0.1506
  671MOL0     C90476   4.453   6.142   3.706 -0.7674  0.3180 -0.3546
  671MOL0     C90477   4.561   6.207   3.768 -0.3556 -0.2723 -0.6340
  671MOL0     C90478   4.538   6.280   3.888  0.4973 -0.0805 -0.3851
  671MOL0     C90479   4.647   6.366   3.952 -0.1713 -0.1211 -0.1223
  671MOL0     O90480   4.769   6.370   3.886 -0.2764  1.1380 -0.0450
  671MOL0     C90481   4.868   6.453   3.944  0.4930  0.2914  0.6547
  671MOL0     C90482   4.848   6.565   4.024 -1.0076  0.1074 -0.2397
  671MOL0     C90483   4.955   6.641   4.078 -0.4810 -0.4840  0.2864
  671MOL0     C90484   5.083   6.614   4.035  0.1221 -0.3773 -0.1322
  671MOL0     O90485   5.177   6.705   4.082 -0.6543  1.0107  0.1305
  671MOL0     C90486   5.307   6.702   4.012 -0.0505  0.4066  1.1876
  671MOL0     C90487   5.425   6.627   4.072  0.6964  0.2374 -0.8963
  671MOL0     C90488   5.484   6.698   4.190  0.5834 -0.1333  0.0490
  671MOL0     C90489   5.394   6.675   4.312 -0.7371 -0.5019  0.8989
  671MOL0     C90490   5.457   6.744   4.430 -0.7760  0.8268 -0.1960
  671MOL0     C90491   5.393   6.689   4.558 -1.2054  0.5343 -0.0794
  671MOL0     C90492   5.447   6.546   4.586 -0.0989 -0.2657 -0.3776
  671MOL0     C90493   5.383   6.481   4.710 -0.3747  1.3036  0.0316
  671MOL0    Cl90494   5.202   6.435   4.685  0.0636  0.1639 -0.3684
  671MOL0     C90495   5.104   6.497   3.960 -0.7003  0.2558  0.0823
  671MOL0     C90496   5.002   6.418   3.913 -1.0412  0.6288 -0.9482
  671MOL0     O90497   4.623   6.411   4.061  0.1500 -0.6023  0.2893
  671MOL0     C90498   4.405   6.276   3.939 -0.5933  0.5761 -0.2719
  671MOL0     C90499   4.304   6.210   3.876  0.2232 -0.0267 -0.3097
  671MOL0     N90500   3.657   6.026   3.629 -0.6035 -0.3929 -0.4666
  671MOL0     N90501   3.558   6.034   3.552 -0.6087  0.1184 -0.2842
  671MOL0     C90502   4.014   6.621   2.881 -0.3623  0.2069  0.2517
  671MOL0     C90503   4.156   6.646   2.870  0.8042  0.1404 -0.2135
  671MOL0     C90504   4.541   6.906   2.777  0.3206 -0.0976 -0.2681
  671MOL0     C90505   4.564   6.979   2.895  0.6547 -0.8956 -0.0454
  671MOL0     C90506   4.682   7.058   2.906  0.5424  0.0081  1.3561
  671MOL0     C90507   4.788   7.053   2.814  0.9059  0.0290 -0.2456
  671MOL0     O90508   4.895   7.131   2.838 -0.1228 -0.7183  0.2533
  671MOL0     C90509   4.998   7.124   2.737  0.2072  0.9748 -0.4649
  671MOL0     C90510   5.114   7.220   2.765  1.2295  0.2349  0.5695
  671MOL0     C90511   5.052   7.365   2.751 -0.4581 -0.3277 -0.0414
  671MOL0     C90512   5.161   7.475   2.753 -0.8301  0.2620  0.2885
  671MOL0     C90513   5.111   7.610   2.713  0.0637  0.8295 -0.4371
  671MOL0     C90514   5.073   7.718   2.676 -0.0109 -0.0121  0.0137
  671MOL0     C90515   4.780   6.959   2.705 -0.1162 -0.0541 -0.7926
  671MOL0     C90516   4.652   6.890   2.683 -0.7236 -0.0005 -0.3913
  671MOL0     C90517   4.647   6.816   2.552 -1.0577  0.1499  0.0678
  671MOL0     H90518   4.135   6.956   2.727 -0.9187 -0.5924 -1.1793
  671MOL0     H90519   3.890   6.898   2.755 -1.4471 -2.1759 -1.1384
  671MOL0     H90520   3.747   6.859   2.959 -1.7855  0.8897  1.4903
  671MOL0     H90521   3.649   6.837   2.818 -0.9135 -0.6871  1.2486
  671MOL0     H90522   3.519   6.678   2.927  1.5484 -1.4693 -1.1449
  671MOL0     H90523   3.559   6.809   3.049 -1.2821  1.0313 -2.9722
  671MOL0     H90524   3.750   6.621   3.093 -0.4068  0.2385  2.6666
  671MOL0     H90525   3.646   6.516   3.018  1.4937 -0.7486  0.3238
  671MOL0     H90526   3.556   6.706   3.240  0.3102  0.4917 -1.6889
  671MOL0     H90527   3.454   6.577   3.194 -0.3374 -0.0233 -1.1485
  671MOL0     H90528   3.734   6.556   3.311 -0.5438  0.8856  0.0198
  671MOL0     H90529   3.595   6.539   3.416  0.1855 -0.5888  0.2649
  671MOL0     H90530   3.643   6.351   3.179 -0.6861 -1.0321  0.3445
  671MOL0     H90531   3.732   6.329   3.334  0.0106  0.4017 -0.6186
  671MOL0     H90532   3.422   6.326   3.276  0.1283 -2.5609 -1.2129
  671MOL0     H90533   3.502   6.325   3.441  4.6434 -2.5427  0.6047
  671MOL0     H90534   3.427   6.102   3.341  0.4450 -0.9457  0.9949
  671MOL0     H90535   3.578   6.119   3.230  1.9490  0.6532  2.0644
  671MOL0     H90536   3.815   6.150   3.371 -0.7557  1.0048 -0.4856
  671MOL0     H90537   3.991   6.132   3.592 -2.7222  3.7786  2.4250
  671MOL0     H90538   3.926   6.053   3.739  0.0447 -1.0539  0.1040
  671MOL0     H90539   3.902   5.844   3.582 -1.0541  0.3130  0.8577
  671MOL0     H90540   4.016   5.944   3.474 -1.0898 -0.2135 -0.1907
  671MOL0     H90541   4.124   5.760   3.616  2.0240 -1.2419  2.0038
  671MOL0     H90542   4.088   5.866   3.750 -1.8095  1.5974 -1.2152
  671MOL0     H90543   4.218   6.009   3.511 -2.5090 -3.8049 -2.3195
  671MOL0     H90544   4.326   5.913   3.621 -0.2367  0.5808 -1.4086
  671MOL0     H90545   4.481   6.088   3.617 -2.2466  2.2034 -2.0492
  671MOL0     H90546   4.660   6.199   3.724  0.3212 -1.5887  1.0226
  671MOL0     H90547   4.749   6.606   4.041 -0.5514  1.4727 -0.7544
  671MOL0     H90548   4.932   6.724   4.143  0.7857  0.4229 -0.3700
  671MOL0     H90549   5.279   6.671   3.911 -0.1299 -4.0894  2.3927
  671MOL0     H90550   5.335   6.808   4.005 -1.5635  0.7174 -0.9396
  671MOL0     H90551   5.397   6.527   4.108 -0.3290  1.5434  2.2944
  671MOL0     H90552   5.497   6.612   3.992  0.7634 -1.3452 -0.5819
  671MOL0     H90553   5.584   6.661   4.213  0.6115 -0.0581  0.0480
  671MOL0     H90554   5.495   6.806   4.176 -0.4038 -0.1466 -1.0688
  671MOL0     H90555   5.364   6.571   4.328  3.5454 -2.1521 -0.4830
  671MOL0     H90556   5.309   6.742   4.293 -0.5986  0.0905  2.2560
  671MOL0     H90557   5.429   6.849   4.421 -0.3522  0.9565 -0.0146
  671MOL0     H90558   5.566   6.739   4.444 -0.8748  4.0020  2.8447
  671MOL0     H90559   5.438   6.748   4.639  0.0177 -0.9642  0.3666
  671MOL0     H90560   5.284   6.696   4.557 -1.2683 -0.3579 -2.0070
  671MOL0     H90561   5.556   6.548   4.595 -0.0358 -0.1455 -1.1242
  671MOL0     H90562   5.423   6.478   4.504 -1.0091 -2.2371  1.4081
  671MOL0     H90563   5.442   6.391   4.728 -0.6906  1.1423  0.2635
  671MOL0     H90564   5.392   6.535   4.805  0.5741  0.0816  0.6621
  671MOL0     H90565   5.206   6.474   3.930 -0.4395 -1.3889  2.0057
  671MOL0     H90566   5.031   6.346   3.836 -0.9358  1.0753 -1.3270
  671MOL0     H90567   4.393   6.334   4.031  1.4564  1.8698 -0.7511
  671MOL0     H90568   4.212   6.223   3.933  0.6463  2.7341 -0.1004
  671MOL0     H90569   3.971   6.531   2.923 -3.4833  2.1655  1.5599
  671MOL0     H90570   4.229   6.575   2.907 -0.3190 -0.1992  1.4205
  671MOL0     H90571   4.484   6.990   2.967 -0.1943 -0.1861 -1.0786
  671MOL0     H90572   4.690   7.125   2.991  0.4437  3.3475 -1.0667
  671MOL0     H90573   4.957   7.141   2.637 -4.0657 -1.1562  0.6836
  671MOL0     H90574   5.043   7.025   2.748  1.0738  1.5393  1.5657
  671MOL0     H90575   5.203   7.199   2.707  0.3418 -1.3310 -0.2949
  671MOL0     H90576   5.141   7.223   2.871 -2.3646  1.8392  1.6021
  671MOL0     H90577   4.982   7.382   2.833  0.9468 -1.2146  1.4018
  671MOL0     H90578   5.002   7.381   2.655  1.2601 -2.7329 -1.4228
  671MOL0     H90579   5.206   7.478   2.853 -2.0040  2.4908  0.8301
  671MOL0     H90580   5.245   7.451   2.688  0.3304 -1.8046  2.3863
  671MOL0     H90581   5.050   7.809   2.624  0.0685  0.1834  0.3201
  671MOL0     H90582   4.858   6.937   2.634 -1.2109 -3.5234 -1.1122
  671MOL0     H90583   4.598   6.720   2.571 -1.3894  0.0602 -1.1512
  671MOL0     H90584   4.588   6.878   2.484 -0.9966  0.9010  0.6893
  671MOL0     H90585   4.745   6.804   2.505 -0.7229 -0.3410  0.8820
  672MOL0     O90586  10.007   7.452   7.492 -0.2726 -0.2126 -0.2756
  672MOL0     C90587  10.041   7.568   7.522  0.2671 -0.0030 -0.1813
  672MOL0     O90588  10.128   7.600   7.616  0.0219 -0.3627 -0.4672
  672MOL0     C90589  10.189   7.506   7.698  0.0233 -0.2378 -0.5754
  672MOL0     C90590  10.325   7.509   7.729  0.1735 -0.4541  0.0313
  672MOL0     C90591  10.398   7.410   7.794  0.0993  0.6815  0.0587
  672MOL0     C90592  10.330   7.293   7.847  0.2318  0.7536  0.2042
  672MOL0     O90593  10.395   7.191   7.921  0.4144  0.5358  0.3979
  672MOL0     C90594  10.525   7.165   7.877 -0.0135  0.7902  0.0720
  672MOL0     C90595  10.581   7.043   7.958 -0.7798 -0.7265 -0.5761
  672MOL0     C90596  10.726   7.013   7.937 -0.1449  0.7371  0.1063
  672MOL0     C90597  10.767   6.969   7.797  0.4006  0.4951  0.1289
  672MOL0     C90598  10.678   6.875   7.720 -0.1216 -0.8256  0.2787
  672MOL0     C90599  10.683   6.744   7.793 -0.6483 -0.2156 -0.7052
  672MOL0     C90600  10.622   6.630   7.713 -0.4602  0.6591 -0.2547
  672MOL0     C90601  10.726   6.545   7.629 -0.2764 -1.0110 -0.0754
  672MOL0     N90602  10.827   6.479   7.711 -0.4151  0.2032 -0.6922
  672MOL0     C90603  10.808   6.414   7.833 -0.6488 -0.0287  0.6541
  672MOL0     C90604  10.930   6.361   7.848 -0.3246  0.6042  0.3034
  672MOL0     C90605  10.956   6.271   7.966  0.3404  0.1211 -0.0402
  672MOL0     C90606  10.952   6.125   7.936 -0.3763  0.0353 -1.5997
  672MOL0     C90607  11.056   6.053   8.021 -0.1270  0.0204 -0.1484
  672MOL0     C90608  11.002   6.022   8.156  0.0351  0.4137 -0.6885
  672MOL0     O90609  11.099   5.970   8.252 -0.0789  0.5481  0.5483
  672MOL0     C90610  11.208   6.042   8.295 -0.2511  0.0353 -0.3370
  672MOL0     C90611  11.228   6.182   8.274  0.1645  0.1841  0.1369
  672MOL0     C90612  11.358   6.240   8.318 -0.6996 -0.3329  0.3905
  672MOL0     C90613  11.458   6.177   8.382  0.4312 -0.2413 -0.9647
  672MOL0     C90614  11.581   6.244   8.423 -0.3482 -0.6421  0.6089
  672MOL0     O90615  11.670   6.166   8.483  0.0480  0.1863 -0.0557
  672MOL0     C90616  11.806   6.192   8.490  0.5270  0.4799  0.0622
  672MOL0     C90617  11.885   6.274   8.395 -0.3248  0.3866 -0.3224
  672MOL0     C90618  12.013   6.295   8.417 -0.1839  1.2802 -0.2211
  672MOL0     C90619  12.082   6.260   8.535  0.6686  0.4902  0.2870
  672MOL0     O90620  12.218   6.285   8.556 -0.5107 -0.4376 -0.9398
  672MOL0     C90621  12.282   6.392   8.492 -0.4102  0.5206 -0.1756
  672MOL0     C90622  12.385   6.451   8.584 -0.4048 -0.4299  0.1034
  672MOL0     C90623  12.449   6.575   8.512 -1.1436 -0.5063 -0.3537
  672MOL0     C90624  12.541   6.655   8.607 -0.1112 -0.0748  0.3907
  672MOL0     C90625  12.465   6.727   8.718  0.3519 -0.6036  0.6393
  672MOL0     C90626  12.556   6.828   8.792 -0.6244  0.9646 -0.4045
  672MOL0     C90627  12.546   6.960   8.722 -0.6090 -0.7384  0.4306
  672MOL0     C90628  12.626   7.073   8.781  0.4257 -1.2106  0.0923
  672MOL0    Cl90629  12.543   7.109   8.935  0.2754 -0.3638  0.1373
  672MOL0     C90630  12.009   6.201   8.633  1.4960  0.5749 -0.3167
  672MOL0     C90631  11.873   6.153   8.610 -0.0409 -0.2761 -0.0019
  672MOL0     O90632  11.598   6.365   8.390 -0.8152  1.1519  0.0652
  672MOL0     C90633  11.433   6.033   8.407 -0.2628 -0.0486 -0.5653
  672MOL0     C90634  11.313   5.969   8.364  0.7460  0.8984 -0.6144
  672MOL0     N90635  11.024   6.378   7.738 -0.6944  0.4011 -0.0951
  672MOL0     N90636  10.946   6.438   7.651 -0.1955 -0.3597 -0.1240
  672MOL0     C90637  10.191   7.294   7.827  0.0903  0.6281  0.0898
  672MOL0     C90638  10.122   7.395   7.759  0.4048 -0.0543  0.3705
  672MOL0     C90639   9.978   7.684   7.453 -0.0220  0.0112  0.0216
  672MOL0     C90640  10.057   7.794   7.427  0.8612  0.6472  0.3018
  672MOL0     C90641  10.008   7.907   7.355 -0.2743 -0.0306  0.0833
  672MOL0     C90642   9.882   7.901   7.296  0.5692  0.5129 -0.3448
  672MOL0     O90643   9.826   7.993   7.223  0.6785 -0.0864 -0.1563
  672MOL0     C90644   9.898   8.037   7.105  0.0896 -0.4745 -0.1600
  672MOL0     C90645   9.836   7.970   6.984 -0.5886 -0.7713  0.1725
  672MOL0     C90646   9.692   8.019   6.967  0.4050  0.2274 -0.6564
  672MOL0     C90647   9.642   7.932   6.850  0.7534  0.6757 -0.4536
  672MOL0     C90648   9.508   7.966   6.798  0.4748  0.4591  1.0475
  672MOL0     C90649   9.409   8.020   6.754 -0.1181  0.0032  0.1782
  672MOL0     C90650   9.799   7.797   7.336 -0.1334  0.5120  0.0256
  672MOL0     C90651   9.845   7.687   7.412  1.0202 -0.1215 -0.0294
  672MOL0     C90652   9.729   7.590   7.459  0.1945  0.9259  0.1621
  672MOL0     H90653  10.373   7.601   7.696 -1.2886 -0.2383 -1.6407
  672MOL0     H90654  10.506   7.410   7.787 -0.0015  2.0122 -3.7194
  672MOL0     H90655  10.528   7.163   7.768 -3.6891 -1.4440 -0.1419
  672MOL0     H90656  10.599   7.242   7.899  2.8326 -1.3898 -1.1769
  672MOL0     H90657  10.516   6.960   7.931  0.5335 -2.2890  0.8614
  672MOL0     H90658  10.590   7.061   8.066  2.2712 -2.4353 -0.4366
  672MOL0     H90659  10.756   6.933   8.006 -2.9408 -0.5616 -0.0690
  672MOL0     H90660  10.786   7.102   7.960  1.3157 -0.4207  0.9518
  672MOL0     H90661  10.782   7.058   7.736  0.4209 -0.5525 -1.4495
  672MOL0     H90662  10.870   6.932   7.790  0.7723  1.7737 -2.0333
  672MOL0     H90663  10.576   6.915   7.722 -0.5501 -1.8748  0.1559
  672MOL0     H90664  10.717   6.880   7.618 -1.3203  2.4669 -0.1425
  672MOL0     H90665  10.785   6.722   7.825 -0.0385  3.7134  0.7108
  672MOL0     H90666  10.624   6.750   7.885  0.7880 -1.6861  0.3831
  672MOL0     H90667  10.539   6.662   7.650 -0.3380 -0.3082 -0.9340
  672MOL0     H90668  10.581   6.561   7.788 -3.4866  1.4518 -1.0298
  672MOL0     H90669  10.670   6.479   7.562 -2.0954  0.0400  0.3424
  672MOL0     H90670  10.779   6.609   7.557 -3.3216  0.5420 -1.1426
  672MOL0     H90671  10.715   6.408   7.889 -0.4506  0.2515  1.0191
  672MOL0     H90672  11.059   6.283   8.000  1.0571 -1.4726 -1.4656
  672MOL0     H90673  10.884   6.297   8.044 -0.3930 -0.6014 -0.4600
  672MOL0     H90674  10.857   6.079   7.967  1.0818 -1.5442  0.8618
  672MOL0     H90675  10.973   6.104   7.831  0.7286 -1.8535 -1.0431
  672MOL0     H90676  11.151   6.104   8.039  0.1215  0.0291 -1.3927
  672MOL0     H90677  11.075   5.957   7.972  0.9861  1.8909 -3.7204
  672MOL0     H90678  10.920   5.952   8.139 -0.2114  0.9758 -1.9307
  672MOL0     H90679  10.959   6.110   8.204 -1.1905  0.0212 -1.0187
  672MOL0     H90680  11.151   6.246   8.232  0.4424 -0.5664 -1.5949
  672MOL0     H90681  11.378   6.347   8.310  2.2419 -0.9161 -1.8154
  672MOL0     H90682  11.838   6.306   8.303 -1.7501 -0.9278 -0.0812
  672MOL0     H90683  12.079   6.341   8.344  2.3755 -0.1708  1.0712
  672MOL0     H90684  12.335   6.354   8.404 -0.6584 -2.1868  0.7398
  672MOL0     H90685  12.207   6.470   8.474 -0.6667  0.2016 -0.5245
  672MOL0     H90686  12.339   6.490   8.675 -0.1750 -3.5805  1.7208
  672MOL0     H90687  12.457   6.373   8.611  1.2392 -0.1342 -3.0397
  672MOL0     H90688  12.517   6.543   8.433  0.2192  4.5587 -1.6244
  672MOL0     H90689  12.366   6.634   8.472 -0.6394 -1.4283 -2.9425
  672MOL0     H90690  12.597   6.728   8.548  1.1502  1.1549  2.9409
  672MOL0     H90691  12.606   6.580   8.652 -1.2230 -1.6269 -0.4833
  672MOL0     H90692  12.423   6.649   8.782  0.1226 -0.8441  0.2059
  672MOL0     H90693  12.378   6.775   8.672  1.0261 -0.2309 -0.2776
  672MOL0     H90694  12.519   6.849   8.893 -3.9595  0.9414 -1.4967
  672MOL0     H90695  12.661   6.797   8.796 -1.0143 -0.7132 -2.0471
  672MOL0     H90696  12.444   6.998   8.713  0.4242  2.0084 -1.0084
  672MOL0     H90697  12.592   6.951   8.622  0.0768  2.1105  0.4010
  672MOL0     H90698  12.732   7.051   8.796  0.9920 -0.0144 -1.8495
  672MOL0     H90699  12.618   7.165   8.722 -1.1029 -1.2740  0.1532
  672MOL0     H90700  12.064   6.165   8.720 -0.7013  1.6061  1.5787
  672MOL0     H90701  11.805   6.106   8.680  2.6969 -4.4990  0.1567
  672MOL0     H90702  11.507   5.972   8.458 -1.3913 -0.8819  0.1157
  672MOL0     H90703  11.293   5.865   8.385  1.4941  0.2252 -2.9439
  672MOL0     H90704  10.133   7.205   7.851  0.1545  0.2005 -1.2722
  672MOL0     H90705  10.014   7.386   7.755  0.2475  1.2941  0.8789
  672MOL0     H90706  10.159   7.800   7.465  0.9091 -2.2687  0.8450
  672MOL0     H90707  10.070   7.992   7.328 -1.3185 -0.3036 -3.7703
  672MOL0     H90708  10.002   8.006   7.110  0.6501  1.0780 -1.2855
  672MOL0     H90709   9.890   8.145   7.090  1.0887 -0.3132  0.3775
  672MOL0     H90710   9.837   7.862   6.999  1.0567 -1.4262 -3.5835
  672MOL0     H90711   9.898   7.984   6.896 -0.8274 -2.5944 -0.3191
  672MOL0     H90712   9.706   8.125   6.948 -0.6561  0.7352  1.1366
  672MOL0     H90713   9.636   7.998   7.058 -2.3335  2.2724 -1.7624
  672MOL0     H90714   9.708   7.943   6.764 -1.7366  2.5085 -2.2618
  672MOL0     H90715   9.617   7.831   6.884 -1.0340  1.2160 -0.0860
  672MOL0     H90716   9.329   8.085   6.726 -0.9241 -0.3773  1.5494
  672MOL0     H90717   9.694   7.817   7.318 -0.6313 -1.6314  0.3664
  672MOL0     H90718   9.722   7.605   7.568 -2.9728 -1.7944  0.5115
  672MOL0     H90719   9.630   7.612   7.418  0.1513  0.2455 -0.1119
  672MOL0     H90720   9.745   7.485   7.432 -0.9524  1.0136 -0.9822
  673MOL0     O90721   8.189   8.850   5.937 -0.1382 -0.8597 -0.0893
  673MOL0     C90722   8.124   8.952   5.972  0.8485 -0.4032 -0.2102
  673MOL0     O90723   8.179   9.070   6.017 -0.1086  0.1272  0.3963
  673MOL0     C90724   8.312   9.094   5.998 -0.1553  0.5158 -0.0736
  673MOL0     C90725   8.405   9.048   6.088 -0.2793  0.0158  0.0695
  673MOL0     C90726   8.538   9.064   6.060  0.1469 -0.2539 -0.7628
  673MOL0     C90727   8.577   9.127   5.945 -0.2058  0.2224 -0.7582
  673MOL0     O90728   8.713   9.133   5.916 -0.0559  0.1219 -1.1304
  673MOL0     C90729   8.758   9.023   5.844  0.8786 -0.6572  0.2560
  673MOL0     C90730   8.885   9.046   5.769 -0.3972  0.1935 -0.2651
  673MOL0     C90731   8.910   8.932   5.673  1.2119  0.8335 -0.3016
  673MOL0     C90732   9.022   8.969   5.577 -0.8074  0.1941 -0.0250
  673MOL0     C90733   9.002   8.874   5.457 -1.2194  1.2919  0.4217
  673MOL0     C90734   8.942   8.936   5.340 -0.0745  0.1513  1.1527
  673MOL0     C90735   8.931   8.823   5.236  0.6589  0.0161  0.3876
  673MOL0     C90736   8.853   8.860   5.107  0.4005 -0.0857  0.6749
  673MOL0     N90737   8.853   8.748   5.007 -0.1808 -1.2230 -0.4858
  673MOL0     C90738   8.783   8.639   5.043 -0.1766 -0.1599 -0.9488
  673MOL0     C90739   8.815   8.549   4.947 -0.7581  0.0958  0.0162
  673MOL0     C90740   8.772   8.410   4.933 -0.5299  0.4184 -0.6556
  673MOL0     C90741   8.840   8.299   5.023  1.1894 -0.1499  0.1752
  673MOL0     C90742   8.808   8.154   4.970  0.8655  0.2492  0.3753
  673MOL0     C90743   8.894   8.043   5.033  0.9070  0.0040 -0.2580
  673MOL0     O90744   9.035   8.045   5.003  0.2246  0.5475 -0.1821
  673MOL0     C90745   9.115   7.950   5.061 -0.8854 -0.4173 -0.2453
  673MOL0     C90746   9.077   7.847   5.148  0.6505 -0.1840  0.4094
  673MOL0     C90747   9.152   7.740   5.179 -0.1814 -0.1777 -0.7284
  673MOL0     C90748   9.283   7.735   5.143 -0.8954 -0.2111  0.1198
  673MOL0     C90749   9.368   7.621   5.188 -0.8787  0.1129 -0.6276
  673MOL0     O90750   9.493   7.615   5.120  0.5837 -0.1222  0.1026
  673MOL0     C90751   9.575   7.518   5.166  0.6584  0.3972 -0.4140
  673MOL0     C90752   9.584   7.400   5.090  0.2632 -0.3591 -0.5220
  673MOL0     C90753   9.667   7.297   5.132  0.8515  0.9019  0.6518
  673MOL0     C90754   9.745   7.308   5.243 -0.7963 -0.5346 -0.5189
  673MOL0     O90755   9.806   7.188   5.274 -0.4168  0.8255  0.5132
  673MOL0     C90756   9.904   7.180   5.376 -0.4933  0.7631 -0.4425
  673MOL0     C90757   9.931   7.027   5.385  0.0306  0.3104 -1.2323
  673MOL0     C90758   9.999   7.003   5.528 -0.6003 -0.9117 -0.2800
  673MOL0     C90759   9.976   6.855   5.561  0.9297 -0.3389  0.1588
  673MOL0     C90760  10.041   6.824   5.697 -0.3828  0.8793 -0.5331
  673MOL0     C90761  10.034   6.676   5.722 -0.0263 -0.5962 -0.3343
  673MOL0     C90762   9.887   6.612   5.728 -0.0193 -0.5774  0.1640
  673MOL0     C90763   9.886   6.459   5.734 -0.1996  0.2352  0.0438
  673MOL0    Cl90764   9.942   6.387   5.585 -0.3303  0.0529 -0.1392
  673MOL0     C90765   9.737   7.419   5.325 -0.4322  0.7930 -0.3139
  673MOL0     C90766   9.652   7.526   5.286  0.2908  0.0543  0.2644
  673MOL0     O90767   9.331   7.542   5.267  0.0377  0.2003  0.7686
  673MOL0     C90768   9.333   7.841   5.057 -0.6362  0.3168  0.3756
  673MOL0     C90769   9.248   7.938   5.013  0.3004 -0.7911 -0.5151
  673MOL0     N90770   8.912   8.601   4.863 -0.4686  0.2738 -0.1098
  673MOL0     N90771   8.943   8.722   4.904  0.3876  0.2924  0.8240
  673MOL0     C90772   8.486   9.191   5.864  1.1253  0.1057  0.9820
  673MOL0     C90773   8.348   9.173   5.879 -0.2145 -0.3321 -0.1856
  673MOL0     C90774   7.974   8.949   5.977  0.5417 -1.4235  0.4748
  673MOL0     C90775   7.908   9.038   6.067  0.6187  0.0690  0.4437
  673MOL0     C90776   7.775   9.043   6.079 -0.6662 -0.5605  0.2576
  673MOL0     C90777   7.694   8.973   5.992 -0.3603  0.0033  0.1506
  673MOL0     O90778   7.560   8.977   6.022  0.5175  0.4564 -0.6072
  673MOL0     C90779   7.463   8.911   5.945  0.2267 -0.5455  0.8405
  673MOL0     C90780   7.428   8.771   5.983  0.3181  0.5938 -0.6069
  673MOL0     C90781   7.358   8.688   5.868  0.0756 -0.1994 -0.0462
  673MOL0     C90782   7.230   8.615   5.928  0.0793  1.3197 -0.9868
  673MOL0     C90783   7.105   8.686   5.902  1.0324  0.0739 -1.3339
  673MOL0     C90784   7.013   8.764   5.883  0.0448  0.4088  0.0543
  673MOL0     C90785   7.757   8.882   5.902  0.0737  0.0259 -0.3850
  673MOL0     C90786   7.896   8.871   5.894  0.0319  0.7900  0.1258
  673MOL0     C90787   7.953   8.760   5.817  0.7006  0.6222 -0.5045
  673MOL0     H90788   8.382   8.993   6.179  0.6702 -0.2846  0.1406
  673MOL0     H90789   8.611   9.027   6.131 -1.4499 -1.3843  0.3609
  673MOL0     H90790   8.790   8.953   5.922  2.5512  0.1353  0.3044
  673MOL0     H90791   8.671   8.983   5.791  0.6340 -4.1044  2.8923
  673MOL0     H90792   8.970   9.044   5.838 -2.1115  0.4796  1.9989
  673MOL0     H90793   8.881   9.139   5.712 -0.1666 -0.6770 -1.7595
  673MOL0     H90794   8.816   8.912   5.621  1.3964 -0.8172 -0.0614
  673MOL0     H90795   8.930   8.837   5.724 -2.6366 -0.0008  0.0088
  673MOL0     H90796   9.018   9.071   5.540 -1.4590 -0.9094 -3.3711
  673MOL0     H90797   9.122   8.948   5.619 -0.8627 -0.2142 -0.0912
  673MOL0     H90798   9.099   8.831   5.434  0.4871  3.9072  2.2129
  673MOL0     H90799   8.946   8.788   5.496 -0.3367  0.3324 -0.3654
  673MOL0     H90800   8.845   8.969   5.380  1.2584  1.2346  3.7494
  673MOL0     H90801   9.002   9.016   5.296  2.7542 -1.8202  1.1868
  673MOL0     H90802   8.879   8.735   5.277 -0.4613 -0.0643 -1.0894
  673MOL0     H90803   9.034   8.802   5.206  1.2642  5.4343 -2.5321
  673MOL0     H90804   8.749   8.882   5.132 -0.1740 -1.6625 -0.2282
  673MOL0     H90805   8.899   8.950   5.066  5.3584 -2.1726  0.9114
  673MOL0     H90806   8.731   8.621   5.136  3.3249  0.8877  1.4152
  673MOL0     H90807   8.666   8.390   4.952 -0.7843 -0.1901 -2.5028
  673MOL0     H90808   8.790   8.388   4.827  0.7928 -1.6633 -0.0687
  673MOL0     H90809   8.947   8.321   5.015  1.0509 -0.1111 -4.0654
  673MOL0     H90810   8.799   8.313   5.123 -0.0705 -1.6375 -0.1006
  673MOL0     H90811   8.819   8.141   4.862 -1.0095 -1.1280  0.2973
  673MOL0     H90812   8.707   8.120   4.996  0.5529  2.1384  1.8639
  673MOL0     H90813   8.860   7.949   4.988  3.7746 -0.8577 -0.8273
  673MOL0     H90814   8.878   8.028   5.141 -0.8576 -0.0259 -0.4988
  673MOL0     H90815   8.973   7.840   5.177  0.7079 -0.1190  0.6325
  673MOL0     H90816   9.108   7.661   5.238  1.7208  0.3669  1.5984
  673MOL0     H90817   9.525   7.391   5.000 -5.4776 -0.0526  2.7223
  673MOL0     H90818   9.678   7.204   5.077 -1.1268  1.0855 -0.1376
  673MOL0     H90819   9.998   7.233   5.359  0.5137 -1.0810 -0.8384
  673MOL0     H90820   9.873   7.208   5.478 -1.9128 -3.6957  0.5700
  673MOL0     H90821   9.842   6.964   5.378 -0.4044  0.8815 -0.9642
  673MOL0     H90822   9.997   7.006   5.301 -0.7362  0.5508 -1.9145
  673MOL0     H90823  10.108   7.019   5.526 -0.5606 -1.0737  0.4948
  673MOL0     H90824   9.949   7.063   5.603 -3.5282 -2.9637 -0.4363
  673MOL0     H90825  10.022   6.797   5.481  1.2290 -0.7756  0.6353
  673MOL0     H90826   9.870   6.830   5.570  0.9119 -0.3667 -0.1323
  673MOL0     H90827   9.987   6.875   5.777  0.0415 -2.0528  1.7929
  673MOL0     H90828  10.145   6.857   5.688  0.0540 -0.9293 -5.5507
  673MOL0     H90829  10.086   6.621   5.642 -1.7905 -0.6951 -1.4502
  673MOL0     H90830  10.081   6.647   5.817 -1.8272 -0.8415  0.5217
  673MOL0     H90831   9.834   6.638   5.637  1.0983  4.0374  0.5909
  673MOL0     H90832   9.834   6.654   5.814 -0.4304  0.1837 -0.4616
  673MOL0     H90833   9.947   6.414   5.813 -0.1043 -1.3047 -0.8671
  673MOL0     H90834   9.788   6.416   5.754  1.0533 -3.0474 -0.1489
  673MOL0     H90835   9.780   7.427   5.424 -1.6212  1.4686  0.1714
  673MOL0     H90836   9.634   7.614   5.347  1.0117  0.8687 -0.6626
  673MOL0     H90837   9.437   7.833   5.025 -1.2874 -3.5246 -1.3745
  673MOL0     H90838   9.296   8.014   4.952  2.7528 -0.2146  1.9334
  673MOL0     H90839   8.515   9.250   5.778 -0.7373 -1.2528 -0.6661
  673MOL0     H90840   8.277   9.212   5.806  2.8200  3.1930 -1.5543
  673MOL0     H90841   7.964   9.127   6.092  1.9337 -1.1161  1.9945
  673MOL0     H90842   7.724   9.097   6.159 -0.0273  1.2296 -0.4971
  673MOL0     H90843   7.489   8.921   5.839 -2.1801 -0.6593  0.1641
  673MOL0     H90844   7.377   8.979   5.937 -0.2371 -1.1117  1.0026
  673MOL0     H90845   7.354   8.782   6.063  0.1117 -0.8003 -0.5830
  673MOL0     H90846   7.516   8.720   6.025  0.0992 -0.8035 -1.7815
  673MOL0     H90847   7.432   8.613   5.835 -1.9847 -2.1233 -0.5312
  673MOL0     H90848   7.335   8.759   5.788 -1.4420 -0.9122 -0.2729
  673MOL0     H90849   7.233   8.515   5.882  0.5801  1.8351 -2.1251
  673MOL0     H90850   7.238   8.598   6.036 -1.6528 -0.8393 -1.1175
  673MOL0     H90851   6.954   8.850   5.860 -0.1384 -0.2251 -2.1196
  673MOL0     H90852   7.696   8.823   5.835 -0.3621 -1.2631  1.0888
  673MOL0     H90853   7.983   8.683   5.888  0.2058 -1.0778 -2.0711
  673MOL0     H90854   7.882   8.718   5.745  0.5733  0.5871 -0.3610
  673MOL0     H90855   8.036   8.802   5.761 -0.7893  3.6052 -0.6993
  674MOL0     O90856   3.701   7.802   0.408  0.3862 -0.0705 -0.6279
  674MOL0     C90857   3.626   7.848   0.497 -0.3039 -0.0739 -0.8670
  674MOL0     O90858   3.553   7.962   0.492 -0.2245 -0.6298 -0.1423
  674MOL0     C90859   3.565   8.042   0.373  0.8268  0.2913  0.3591
  674MOL0     C90860   3.594   8.175   0.378  0.1261  0.2968 -0.6404
  674MOL0     C90861   3.597   8.255   0.266 -0.0108 -0.1168  0.3751
  674MOL0     C90862   3.584   8.211   0.140 -0.3319  0.0752 -0.1301
  674MOL0     O90863   3.585   8.304   0.043 -0.8270  0.2996 -0.1334
  674MOL0     C90864   3.571   8.262  -0.096  0.6353 -0.2191  0.2621
  674MOL0     C90865   3.552   8.379  -0.194 -0.0368 -1.0261  0.0377
  674MOL0     C90866   3.522   8.330  -0.333 -0.1537  0.2465  0.7501
  674MOL0     C90867   3.647   8.349  -0.427 -0.7248 -0.1480 -0.1625
  674MOL0     C90868   3.629   8.266  -0.557 -1.7230 -0.1881 -1.2769
  674MOL0     C90869   3.759   8.271  -0.646 -0.0947  0.1538  0.1909
  674MOL0     C90870   3.768   8.145  -0.730 -0.8238 -0.1638 -0.5508
  674MOL0     C90871   3.665   8.112  -0.835  0.4487 -0.1897 -0.7411
  674MOL0     N90872   3.651   8.215  -0.932 -1.0370 -0.4157  0.1489
  674MOL0     C90873   3.757   8.277  -1.001  0.1527  1.0583  0.6163
  674MOL0     C90874   3.709   8.394  -1.048 -1.0318  0.1254  0.0189
  674MOL0     C90875   3.779   8.500  -1.136 -0.9990  0.3567  0.8419
  674MOL0     C90876   3.789   8.635  -1.077  0.2881  0.0945 -0.8069
  674MOL0     C90877   3.881   8.728  -1.153  0.5470 -0.4221  0.3296
  674MOL0     C90878   3.797   8.791  -1.268 -0.1675  0.0758  0.8931
  674MOL0     O90879   3.849   8.911  -1.314  0.0961  0.1983  0.4915
  674MOL0     C90880   3.955   8.902  -1.403 -0.0446 -0.0950 -0.6814
  674MOL0     C90881   4.004   9.016  -1.466  1.0460 -0.0143 -0.5563
  674MOL0     C90882   4.118   9.009  -1.548 -0.8668 -0.1580 -0.2954
  674MOL0     C90883   4.174   8.883  -1.576  0.0297 -0.9442  0.3538
  674MOL0     C90884   4.299   8.879  -1.663 -0.1184 -0.0242  0.5581
  674MOL0     O90885   4.339   8.755  -1.700 -0.3493 -0.3361 -0.5353
  674MOL0     C90886   4.468   8.726  -1.725 -0.1677  0.1463  0.3150
  674MOL0     C90887   4.588   8.779  -1.664  1.1822  0.1260  0.5598
  674MOL0     C90888   4.715   8.725  -1.680  0.4339  0.2340 -0.3937
  674MOL0     C90889   4.725   8.610  -1.759 -0.0867 -0.1575  1.4702
  674MOL0     O90890   4.836   8.537  -1.778  0.5147 -0.1376 -0.1053
  674MOL0     C90891   4.929   8.522  -1.675 -1.3926 -0.0484  0.1262
  674MOL0     C90892   5.039   8.421  -1.699  0.4954 -0.1740 -0.5862
  674MOL0     C90893   5.141   8.410  -1.580  1.4468 -0.1001  0.1964
  674MOL0     C90894   5.279   8.360  -1.613 -0.3739 -0.3447 -0.2663
  674MOL0     C90895   5.359   8.327  -1.478 -0.2481  0.4731 -0.0571
  674MOL0     C90896   5.485   8.245  -1.510  0.8449 -0.4099 -0.0358
  674MOL0     C90897   5.550   8.189  -1.380  0.1875 -0.5907 -0.1091
  674MOL0     C90898   5.620   8.278  -1.283  0.1587 -0.0073  0.0138
  674MOL0    Cl90899   5.738   8.390  -1.350  0.5396  0.0217  0.4113
  674MOL0     C90900   4.615   8.564  -1.828  0.0207 -0.5024  0.4502
  674MOL0     C90901   4.484   8.617  -1.803 -1.4494  0.2809  0.6311
  674MOL0     O90902   4.367   8.980  -1.688  0.3934  0.2240 -0.0038
  674MOL0     C90903   4.110   8.766  -1.530 -0.6499 -1.3284 -0.6269
  674MOL0     C90904   4.005   8.776  -1.450  0.8630 -0.2635 -0.3285
  674MOL0     N90905   3.578   8.402  -1.018 -0.3987  0.3932 -0.1472
  674MOL0     N90906   3.545   8.297  -0.953  1.0040  0.0185 -0.5449
  674MOL0     C90907   3.554   8.074   0.121  0.1259  0.0077 -0.7391
  674MOL0     C90908   3.550   7.991   0.241  0.4878 -0.1370  0.2067
  674MOL0     C90909   3.603   7.756   0.617  1.1851 -0.1245  0.7779
  674MOL0     C90910   3.540   7.804   0.726 -0.1072 -0.2944 -0.2862
  674MOL0     C90911   3.515   7.736   0.840 -0.6824 -0.0955 -0.2932
  674MOL0     C90912   3.562   7.608   0.850  1.0631  0.2070  1.0250
  674MOL0     O90913   3.552   7.519   0.954  0.1028  0.9240  0.3474
  674MOL0     C90914   3.526   7.572   1.082 -0.1755  0.1074 -0.2759
  674MOL0     C90915   3.478   7.454   1.173 -0.0243 -0.2995 -0.0003
  674MOL0     C90916   3.343   7.379   1.134 -1.0634  0.4423  0.9755
  674MOL0     C90917   3.224   7.443   1.211 -0.8449 -0.0391 -1.0462
  674MOL0     C90918   3.117   7.338   1.220  0.3051 -0.6219 -0.5203
  674MOL0     C90919   3.029   7.259   1.216  0.2732 -0.3486  0.4283
  674MOL0     C90920   3.627   7.556   0.738  0.4223 -0.1181  0.0753
  674MOL0     C90921   3.648   7.629   0.629  0.4184  0.4838  0.4848
  674MOL0     C90922   3.761   7.563   0.549 -0.5263 -0.0907  0.6215
  674MOL0     H90923   3.622   8.229   0.468 -1.0725 -1.0319  0.5732
  674MOL0     H90924   3.614   8.358   0.297  0.6970 -0.8448  2.5857
  674MOL0     H90925   3.661   8.210  -0.130  0.9337  0.4903 -0.0348
  674MOL0     H90926   3.477   8.206  -0.102  2.1268 -2.7708 -1.6841
  674MOL0     H90927   3.636   8.449  -0.188 -0.8003 -0.1274  0.5652
  674MOL0     H90928   3.461   8.431  -0.161  0.9637 -0.6185  2.3528
  674MOL0     H90929   3.442   8.393  -0.372  1.1960  1.7360  0.2280
  674MOL0     H90930   3.489   8.226  -0.337 -0.9077  0.5371 -1.9672
  674MOL0     H90931   3.670   8.454  -0.448  1.7017  0.1791  3.2813
  674MOL0     H90932   3.736   8.318  -0.373 -0.6378  2.6088  1.4581
  674MOL0     H90933   3.597   8.164  -0.532 -0.6204 -0.4555 -0.8960
  674MOL0     H90934   3.542   8.312  -0.606 -2.5235  0.4331  0.6121
  674MOL0     H90935   3.757   8.362  -0.706  2.3038  1.4352  1.8835
  674MOL0     H90936   3.847   8.276  -0.580  1.1384 -2.2913 -1.1070
  674MOL0     H90937   3.768   8.065  -0.656 -0.4260  0.9317  0.6716
  674MOL0     H90938   3.865   8.144  -0.779 -1.6180  1.4782 -2.2981
  674MOL0     H90939   3.681   8.020  -0.893  0.2969  0.5728 -2.0454
  674MOL0     H90940   3.565   8.118  -0.791  0.1198  0.2469 -1.5281
  674MOL0     H90941   3.852   8.231  -1.023 -0.0424  1.5132 -1.3999
  674MOL0     H90942   3.882   8.465  -1.147 -0.6780  1.3276  0.6991
  674MOL0     H90943   3.728   8.500  -1.233  0.1945  0.0592  0.1990
  674MOL0     H90944   3.689   8.674  -1.059 -0.4972 -1.3221 -1.9122
  674MOL0     H90945   3.825   8.627  -0.974  0.6827 -1.5401 -1.0429
  674MOL0     H90946   3.971   8.679  -1.191  2.3564 -1.0480  4.8039
  674MOL0     H90947   3.919   8.799  -1.079  3.3162 -2.2642  0.8410
  674MOL0     H90948   3.696   8.811  -1.233 -0.7046 -1.6342  0.4465
  674MOL0     H90949   3.784   8.714  -1.344  0.9955 -2.3060  2.9343
  674MOL0     H90950   3.956   9.111  -1.442 -1.0912 -1.2123  0.1978
  674MOL0     H90951   4.167   9.097  -1.588 -0.5728  1.7960  3.8465
  674MOL0     H90952   4.573   8.857  -1.589  2.0949 -1.1220  2.1103
  674MOL0     H90953   4.799   8.761  -1.621  0.9088  0.8544 -1.4222
  674MOL0     H90954   4.989   8.614  -1.669  0.8275 -1.3343 -1.0759
  674MOL0     H90955   4.880   8.513  -1.578  1.4468  2.4455  1.9900
  674MOL0     H90956   4.988   8.325  -1.698  1.4057 -0.6699 -0.8948
  674MOL0     H90957   5.082   8.442  -1.797  0.8000 -0.7932 -0.5839
  674MOL0     H90958   5.145   8.504  -1.524  1.9116  1.2161 -1.9540
  674MOL0     H90959   5.110   8.337  -1.504  2.6300 -0.5939  0.2199
  674MOL0     H90960   5.334   8.430  -1.677 -1.1688  0.4454 -0.0890
  674MOL0     H90961   5.271   8.268  -1.673 -0.2103 -0.7390  0.3089
  674MOL0     H90962   5.294   8.262  -1.419 -0.0746 -3.3695 -3.6305
  674MOL0     H90963   5.382   8.418  -1.422  1.1783  1.7341 -2.5056
  674MOL0     H90964   5.457   8.159  -1.571 -1.5287 -1.0880  1.8368
  674MOL0     H90965   5.560   8.308  -1.558  0.9280  0.1013  0.7445
  674MOL0     H90966   5.623   8.116  -1.416  0.4608 -0.1347 -0.4895
  674MOL0     H90967   5.477   8.122  -1.334 -1.1375 -0.5543 -2.0491
  674MOL0     H90968   5.542   8.340  -1.239 -2.3446 -2.6375 -0.4399
  674MOL0     H90969   5.672   8.212  -1.214 -2.0872 -2.9020 -0.8747
  674MOL0     H90970   4.625   8.485  -1.902  0.4787 -1.4431  1.4848
  674MOL0     H90971   4.390   8.571  -1.832 -0.6339 -1.1740  0.2211
  674MOL0     H90972   4.161   8.672  -1.547  4.1808  0.1971  3.1541
  674MOL0     H90973   3.962   8.678  -1.434  1.7855 -0.9859 -1.9172
  674MOL0     H90974   3.559   8.020   0.027 -0.8420  0.3072 -0.9678
  674MOL0     H90975   3.522   7.886   0.240  0.3893 -0.1154  0.6107
  674MOL0     H90976   3.509   7.908   0.727  0.3530 -0.1516 -0.5284
  674MOL0     H90977   3.460   7.787   0.918 -1.4815 -2.8732  1.1098
  674MOL0     H90978   3.443   7.643   1.079  1.2291  1.9777  1.9318
  674MOL0     H90979   3.611   7.611   1.138 -1.3556 -1.1812  2.5950
  674MOL0     H90980   3.469   7.500   1.272 -1.2047  3.5715 -1.7009
  674MOL0     H90981   3.563   7.386   1.175  2.0289  2.0761 -0.4856
  674MOL0     H90982   3.355   7.279   1.176 -2.3795 -0.1832 -0.0794
  674MOL0     H90983   3.320   7.374   1.028  0.6829  0.7636  0.5517
  674MOL0     H90984   3.255   7.470   1.313 -3.1960 -0.3317 -0.1876
  674MOL0     H90985   3.188   7.532   1.159  1.1210  3.7895  3.3542
  674MOL0     H90986   2.937   7.207   1.205 -1.0617  1.6325  1.5633
  674MOL0     H90987   3.662   7.453   0.742 -2.3207 -1.0682  2.9467
  674MOL0     H90988   3.858   7.605   0.578 -1.0062 -0.4946  3.0023
  674MOL0     H90989   3.757   7.454   0.555  0.9846 -0.2920 -1.1402
  674MOL0     H90990   3.755   7.583   0.442 -2.6339 -0.5295  0.6112
  675MOL0     O90991   6.454   9.276   8.280  0.3362  0.8342  1.0551
  675MOL0     C90992   6.408   9.392   8.272  0.4834 -0.8337  0.9708
  675MOL0     O90993   6.425   9.479   8.163  0.4822 -0.6595  0.6508
  675MOL0     C90994   6.499   9.421   8.067 -0.5288 -0.1762  0.2182
  675MOL0     C90995   6.645   9.410   8.059  0.9887  0.6746  0.2936
  675MOL0     C90996   6.711   9.326   7.960 -0.3631 -0.4522 -0.1815
  675MOL0     C90997   6.629   9.250   7.869 -0.3412 -0.1654  0.4468
  675MOL0     O90998   6.695   9.169   7.777 -0.0494 -1.2084  0.3437
  675MOL0     C90999   6.655   9.152   7.640 -1.2206 -0.3164 -0.1664
  675MOL0     C91000   6.550   9.040   7.616 -0.6956  0.2534  0.3282
  675MOL0     C91001   6.559   8.916   7.705  0.2132  0.4809  0.2440
  675MOL0     C91002   6.680   8.833   7.668  0.1721  0.4878 -0.7935
  675MOL0     C91003   6.726   8.737   7.776 -0.0001  0.3781 -0.6597
  675MOL0     C91004   6.862   8.679   7.737  0.6444  0.5082 -0.0867
  675MOL0     C91005   6.923   8.578   7.842 -0.3934  1.0384  0.8517
  675MOL0     C91006   6.935   8.649   7.975 -0.3018  0.2607 -0.5622
  675MOL0     N91007   7.031   8.571   8.064  0.2104 -0.7361  0.4927
  675MOL0     C91008   7.167   8.591   8.063 -0.2977 -0.1992  0.4791
  675MOL0     C91009   7.213   8.529   8.170  0.4299  0.5120 -0.0900
  675MOL0     C91010   7.359   8.511   8.213 -0.3916 -0.6632 -0.9573
  675MOL0     C91011   7.443   8.414   8.127  1.5114 -0.7314 -0.1348
  675MOL0     C91012   7.381   8.274   8.125  0.3128 -0.5455 -0.0965
  675MOL0     C91013   7.481   8.190   8.037  0.0776 -0.4859 -0.5941
  675MOL0     O91014   7.462   8.240   7.905 -0.2520  0.3214  1.2879
  675MOL0     C91015   7.551   8.182   7.810  0.4347 -0.6380  0.1226
  675MOL0     C91016   7.533   8.202   7.671 -0.2898  0.9152  0.2164
  675MOL0     C91017   7.619   8.144   7.578 -0.6302  0.6432 -0.1023
  675MOL0     C91018   7.733   8.070   7.612 -0.6155  0.2463  0.1785
  675MOL0     C91019   7.818   8.008   7.512 -1.2796  0.1354 -0.0775
  675MOL0     O91020   7.809   8.056   7.388 -0.3131  0.5170 -0.0261
  675MOL0     C91021   7.895   8.011   7.295 -0.7088  0.5722  0.5620
  675MOL0     C91022   7.838   7.973   7.177 -0.2546  0.4069  0.1198
  675MOL0     C91023   7.913   7.914   7.074 -1.3157 -0.2595  0.6896
  675MOL0     C91024   8.054   7.909   7.087 -0.1641  0.3983 -0.0122
  675MOL0     O91025   8.141   7.883   6.983 -0.3083  0.1927  0.4215
  675MOL0     C91026   8.120   7.929   6.847 -0.0056  0.4977  1.1603
  675MOL0     C91027   8.159   8.078   6.816  0.8115 -0.0017 -0.4041
  675MOL0     C91028   8.050   8.181   6.850  0.2493 -0.8003 -0.0229
  675MOL0     C91029   8.102   8.329   6.874  0.0048  0.2310 -0.0325
  675MOL0     C91030   7.982   8.419   6.895 -0.1499 -0.4049 -0.0126
  675MOL0     C91031   7.901   8.398   7.020 -0.2406 -0.2547 -0.2787
  675MOL0     C91032   7.980   8.396   7.152  0.7757  0.2222  0.9696
  675MOL0     C91033   7.884   8.365   7.270 -0.1702  0.1422 -0.7161
  675MOL0    Cl91034   7.978   8.356   7.424 -0.4381 -0.4012 -0.1294
  675MOL0     C91035   8.108   7.952   7.210  0.0218 -0.7500  0.2768
  675MOL0     C91036   8.030   8.007   7.309 -1.0546 -0.5146 -0.0584
  675MOL0     O91037   7.909   7.930   7.557 -0.5052  0.1337 -0.4243
  675MOL0     C91038   7.759   8.057   7.746 -0.3290 -0.4323 -0.8891
  675MOL0     C91039   7.673   8.117   7.845 -0.3377  0.2258 -0.4339
  675MOL0     N91040   7.101   8.462   8.235  0.0769  0.5191 -0.3121
  675MOL0     N91041   6.995   8.511   8.172 -0.4846  0.0216 -0.1619
  675MOL0     C91042   6.494   9.263   7.872  0.1463  0.4303  0.4713
  675MOL0     C91043   6.433   9.343   7.973  0.3806  0.0616 -0.3838
  675MOL0     C91044   6.344   9.454   8.396 -0.4143 -0.0991 -0.2822
  675MOL0     C91045   6.341   9.597   8.405 -0.6141 -1.0813 -0.0477
  675MOL0     C91046   6.316   9.671   8.533  0.4717 -0.2772 -0.1423
  675MOL0     C91047   6.272   9.592   8.645  0.7349 -0.2268  0.6850
  675MOL0     O91048   6.237   9.655   8.764  0.3741  0.5166  0.2925
  675MOL0     C91049   6.091   9.642   8.804 -0.6311 -0.3523 -0.4309
  675MOL0     C91050   6.053   9.746   8.904 -0.0700  0.3136 -0.2523
  675MOL0     C91051   6.154   9.760   9.016  0.9066 -0.2673  0.1860
  675MOL0     C91052   6.088   9.789   9.156  0.3795 -0.7429 -0.4794
  675MOL0     C91053   6.051   9.933   9.169 -0.0059  0.0237 -0.2375
  675MOL0     C91054   6.029  10.050   9.184 -0.3876 -0.7227 -0.2924
  675MOL0     C91055   6.258   9.455   8.627 -0.3017 -1.0419 -0.8107
  675MOL0     C91056   6.293   9.387   8.512  0.1481  0.3835  0.7253
  675MOL0     C91057   6.262   9.244   8.508 -0.5747  0.0446 -0.7714
  675MOL0     H91058   6.693   9.460   8.142 -3.2808  0.6364  3.1337
  675MOL0     H91059   6.819   9.328   7.965 -0.3317  2.0282 -0.4195
  675MOL0     H91060   6.636   9.247   7.591 -1.1998 -0.5232 -0.5800
  675MOL0     H91061   6.737   9.103   7.586 -1.0197 -2.1367  1.6487
  675MOL0     H91062   6.555   9.014   7.510 -1.6740 -0.7916  0.5253
  675MOL0     H91063   6.453   9.089   7.614 -0.4392  0.7490 -0.1336
  675MOL0     H91064   6.465   8.860   7.703  0.7900 -0.4915  0.0246
  675MOL0     H91065   6.572   8.955   7.806 -0.0169  0.1864  0.3903
  675MOL0     H91066   6.654   8.785   7.573 -0.1389  0.8892 -0.9132
  675MOL0     H91067   6.769   8.893   7.647  0.6887  1.0358  2.3813
  675MOL0     H91068   6.731   8.787   7.873 -0.7640 -0.8269  0.0350
  675MOL0     H91069   6.666   8.646   7.787  0.3401 -0.0189 -1.9667
  675MOL0     H91070   6.849   8.624   7.643  0.0177  0.9210 -0.2476
  675MOL0     H91071   6.926   8.768   7.730 -1.1626  1.9094  0.3616
  675MOL0     H91072   7.023   8.549   7.809  0.4743  0.6121  3.6262
  675MOL0     H91073   6.857   8.493   7.862 -0.8735  1.6236  1.8613
  675MOL0     H91074   6.974   8.750   7.960 -1.3612  0.8025  0.2423
  675MOL0     H91075   6.837   8.665   8.020  0.2000  0.8395  0.3487
  675MOL0     H91076   7.214   8.648   7.983  1.4385 -3.1497 -0.7739
  675MOL0     H91077   7.411   8.606   8.230 -1.4665 -0.5590  2.4200
  675MOL0     H91078   7.357   8.466   8.312  3.0467  1.1008  0.0839
  675MOL0     H91079   7.439   8.456   8.026 -0.2535 -0.1881  0.1293
  675MOL0     H91080   7.545   8.417   8.165  0.5550  4.1932  3.0605
  675MOL0     H91081   7.278   8.266   8.089  0.2071 -1.9114  0.4656
  675MOL0     H91082   7.371   8.235   8.226  2.7581  0.9961  0.8234
  675MOL0     H91083   7.463   8.083   8.051  0.6729 -0.3721  1.2866
  675MOL0     H91084   7.582   8.222   8.063 -0.9463  2.9569 -0.3718
  675MOL0     H91085   7.451   8.266   7.640  1.0233  2.0224 -1.1232
  675MOL0     H91086   7.611   8.160   7.471  0.6420 -1.6430 -0.5935
  675MOL0     H91087   7.729   7.977   7.172 -0.4574 -3.1676 -1.5238
  675MOL0     H91088   7.862   7.884   6.983  0.1139 -1.5410  0.2720
  675MOL0     H91089   8.193   7.873   6.788 -0.6789  1.8787 -1.1229
  675MOL0     H91090   8.018   7.909   6.812 -0.4140  2.2214  1.2681
  675MOL0     H91091   8.232   8.102   6.894 -0.8315 -0.5303  1.3781
  675MOL0     H91092   8.199   8.089   6.715  0.4960 -0.4556 -0.5823
  675MOL0     H91093   7.971   8.185   6.775  1.6941  2.2017 -1.5511
  675MOL0     H91094   7.997   8.143   6.938 -0.5126 -0.6121 -0.3932
  675MOL0     H91095   8.165   8.360   6.791 -0.0168  1.7625  0.5020
  675MOL0     H91096   8.166   8.317   6.962  0.7669 -2.4055 -0.8321
  675MOL0     H91097   7.913   8.411   6.810 -2.2953  1.7774  1.3791
  675MOL0     H91098   8.020   8.521   6.903 -3.0784  0.8271 -0.2385
  675MOL0     H91099   7.821   8.472   7.018 -2.7378 -2.7302 -2.9488
  675MOL0     H91100   7.850   8.302   7.009  0.6011 -1.1003  2.3911
  675MOL0     H91101   8.019   8.498   7.160  0.5218  0.3166  1.0193
  675MOL0     H91102   8.057   8.319   7.160  1.2211  0.7013  1.4343
  675MOL0     H91103   7.813   8.448   7.274  3.2183  3.3138 -0.9535
  675MOL0     H91104   7.831   8.270   7.259  0.5561 -0.7437  2.6375
  675MOL0     H91105   8.216   7.959   7.222  0.0769  0.6355 -0.7943
  675MOL0     H91106   8.078   8.049   7.397  2.0315  1.0288 -2.2674
  675MOL0     H91107   7.847   7.997   7.768 -0.2513 -0.3814 -1.0551
  675MOL0     H91108   7.700   8.087   7.945  0.1629 -0.5825 -0.7989
  675MOL0     H91109   6.426   9.211   7.805 -0.1000 -2.8324  3.0072
  675MOL0     H91110   6.324   9.348   7.969  0.2232 -1.6736 -5.0979
  675MOL0     H91111   6.358   9.657   8.316 -0.2279  0.9200  1.2938
  675MOL0     H91112   6.311   9.779   8.543 -2.3832 -0.1852 -1.5871
  675MOL0     H91113   6.068   9.541   8.838  1.5679 -2.2128 -3.8470
  675MOL0     H91114   6.026   9.659   8.717  0.7233  2.4004 -1.0354
  675MOL0     H91115   5.959   9.722   8.955  0.1895  3.2202  1.8331
  675MOL0     H91116   6.032   9.837   8.848 -0.8794  1.2553  1.5006
  675MOL0     H91117   6.235   9.832   8.998 -1.0304  1.4150 -2.6877
  675MOL0     H91118   6.199   9.662   9.030  3.7590  0.6896 -1.3617
  675MOL0     H91119   6.001   9.723   9.166 -0.9418  0.8222 -1.0444
  675MOL0     H91120   6.158   9.786   9.240  0.7900  1.3650 -0.6994
  675MOL0     H91121   6.011  10.156   9.189  0.2362 -0.5523 -1.3724
  675MOL0     H91122   6.216   9.394   8.706 -3.4852 -0.8324 -2.2039
  675MOL0     H91123   6.331   9.190   8.573 -2.5609  0.8012  2.2381
  675MOL0     H91124   6.168   9.231   8.563  1.5555 -2.6921  2.6439
  675MOL0     H91125   6.255   9.205   8.407 -0.0787 -0.0747 -0.7586
  676MOL0     O91126   6.441   7.284   6.621 -0.0863 -0.6919 -0.3387
  676MOL0     C91127   6.398   7.195   6.550  0.6375 -1.2015  0.8571
  676MOL0     O91128   6.281   7.204   6.478 -0.3086  0.2033  0.0494
  676MOL0     C91129   6.205   7.308   6.515  0.7027 -0.0189  0.0141
  676MOL0     C91130   6.102   7.290   6.611 -0.0977 -0.0995 -0.5271
  676MOL0     C91131   6.017   7.387   6.647  1.0345 -0.8599  0.4843
  676MOL0     C91132   6.016   7.508   6.573  0.3160  0.4118 -0.2713
  676MOL0     O91133   5.921   7.606   6.587 -0.0971 -0.1708  0.6600
  676MOL0     C91134   5.796   7.563   6.638  0.0928  0.7516  0.0310
  676MOL0     C91135   5.684   7.655   6.587 -0.1441  1.0428 -0.0721
  676MOL0     C91136   5.652   7.645   6.436  0.8005  0.0550  0.4476
  676MOL0     C91137   5.500   7.665   6.409  0.2618  0.6788  0.6790
  676MOL0     C91138   5.475   7.643   6.259 -0.2225 -0.0541 -0.6041
  676MOL0     C91139   5.335   7.684   6.212  0.1029  0.8386  0.6007
  676MOL0     C91140   5.342   7.687   6.053 -1.7166 -0.6791  0.2780
  676MOL0     C91141   5.218   7.719   5.974  0.3689 -0.6057  1.0885
  676MOL0     N91142   5.145   7.821   6.040  0.3165 -0.1023  0.3060
  676MOL0     C91143   5.191   7.953   6.062 -0.1143  0.7355 -0.8108
  676MOL0     C91144   5.088   8.014   6.134 -0.6720  0.5865 -0.1913
  676MOL0     C91145   5.102   8.150   6.189  0.1236 -0.7911 -0.2581
  676MOL0     C91146   5.000   8.256   6.155  0.0515  0.7740  0.6033
  676MOL0     C91147   4.954   8.349   6.264 -0.5193  0.1151 -0.1839
  676MOL0     C91148   4.833   8.290   6.343  0.8574 -0.1416  1.4496
  676MOL0     O91149   4.800   8.376   6.454  0.7000  0.0210 -0.7780
  676MOL0     C91150   4.698   8.330   6.535 -0.7167  0.1785 -0.0743
  676MOL0     C91151   4.715   8.312   6.669 -1.1652 -0.3934 -0.4712
  676MOL0     C91152   4.612   8.307   6.763 -0.6653 -0.1677 -0.5135
  676MOL0     C91153   4.481   8.312   6.722  0.0998 -0.9017 -0.4844
  676MOL0     C91154   4.371   8.323   6.826  0.3960  0.7494 -0.1082
  676MOL0     O91155   4.258   8.389   6.771 -0.9362 -0.3918 -0.5904
  676MOL0     C91156   4.139   8.424   6.832  0.0473  0.0222  1.0511
  676MOL0     C91157   4.134   8.429   6.970 -0.6549  0.7354  0.0077
  676MOL0     C91158   4.014   8.458   7.032 -0.8141  0.6501  0.1444
  676MOL0     C91159   3.901   8.492   6.957  0.0282 -0.1677 -0.2340
  676MOL0     O91160   3.798   8.549   7.027 -0.1402  0.6299 -0.5106
  676MOL0     C91161   3.668   8.580   6.972  0.2741 -0.0270 -1.1063
  676MOL0     C91162   3.616   8.711   7.024  0.4008 -0.3412 -0.7598
  676MOL0     C91163   3.478   8.722   6.972  1.1710 -0.0604 -0.1719
  676MOL0     C91164   3.411   8.858   7.012 -0.4349 -0.6011 -0.6921
  676MOL0     C91165   3.266   8.854   6.977 -0.1871 -0.3053 -0.4745
  676MOL0     C91166   3.194   8.987   7.009 -0.3870 -0.4043  0.9674
  676MOL0     C91167   3.171   9.020   7.154 -0.1973 -0.1675 -0.1716
  676MOL0     C91168   3.224   9.158   7.203  0.7678  0.9849 -0.1378
  676MOL0    Cl91169   3.395   9.141   7.194 -0.3283 -0.3301  0.1538
  676MOL0     C91170   3.903   8.472   6.815 -0.8937 -0.4089 -0.3450
  676MOL0     C91171   4.029   8.436   6.754  0.1442  0.2567 -0.2036
  676MOL0     O91172   4.399   8.302   6.944 -0.5210  0.2446  0.1749
  676MOL0     C91173   4.459   8.327   6.582 -0.7468 -0.6790  0.2249
  676MOL0     C91174   4.566   8.338   6.493 -0.8600  0.0615  0.5616
  676MOL0     N91175   4.981   7.927   6.159  0.7028  0.2611  0.0517
  676MOL0     N91176   5.020   7.814   6.102  0.0969  0.4807  0.1777
  676MOL0     C91177   6.116   7.532   6.476 -0.9486 -0.0608  0.3551
  676MOL0     C91178   6.211   7.430   6.442  0.2877  0.0604  0.3263
  676MOL0     C91179   6.489   7.075   6.529 -0.0302  0.1936  0.0509
  676MOL0     C91180   6.599   7.056   6.615 -0.4268 -0.9156  1.1338
  676MOL0     C91181   6.697   6.955   6.600 -0.0777  0.2243  0.6277
  676MOL0     C91182   6.676   6.862   6.500  0.8140 -0.3473  0.6233
  676MOL0     O91183   6.762   6.771   6.453 -0.5421  0.4577  0.1351
  676MOL0     C91184   6.871   6.742   6.547  0.4053 -0.0391  0.4320
  676MOL0     C91185   6.939   6.621   6.491  0.8298 -0.0232  0.0042
  676MOL0     C91186   6.850   6.487   6.519 -0.4963 -0.0514 -1.0304
  676MOL0     C91187   6.943   6.375   6.578 -0.3866 -0.3813  0.5500
  676MOL0     C91188   6.849   6.271   6.627 -0.0813 -0.2905  0.8607
  676MOL0     C91189   6.777   6.206   6.689  0.7876 -0.0313  0.7146
  676MOL0     C91190   6.571   6.877   6.410  0.5688 -0.8230 -0.7547
  676MOL0     C91191   6.471   6.980   6.416 -0.2464  0.0654  0.0238
  676MOL0     C91192   6.359   6.994   6.317  0.1117  0.4327  0.0262
  676MOL0     H91193   6.109   7.198   6.667  3.2385 -1.0481 -2.2495
  676MOL0     H91194   5.950   7.362   6.729  2.1080 -2.0227  1.0379
  676MOL0     H91195   5.783   7.459   6.609 -0.8841  1.1498 -1.0353
  676MOL0     H91196   5.802   7.562   6.748  1.8268 -3.7736  0.0881
  676MOL0     H91197   5.697   7.762   6.605 -2.5776  1.2244  1.0155
  676MOL0     H91198   5.590   7.630   6.637  1.6184 -0.9112  2.5117
  676MOL0     H91199   5.673   7.545   6.398 -0.9170 -1.3642  2.9130
  676MOL0     H91200   5.707   7.715   6.372  0.4637 -2.1338 -2.4145
  676MOL0     H91201   5.438   7.593   6.463  2.1866 -1.9209 -0.3864
  676MOL0     H91202   5.474   7.767   6.440  1.5240  1.1086  0.3501
  676MOL0     H91203   5.544   7.700   6.197 -1.8474  0.0099 -2.4740
  676MOL0     H91204   5.486   7.535   6.241  1.4684  0.1385 -0.8760
  676MOL0     H91205   5.263   7.612   6.252 -1.8336  2.0642 -0.5118
  676MOL0     H91206   5.304   7.782   6.249  0.5515  1.0131  0.5194
  676MOL0     H91207   5.383   7.592   6.017 -1.5839 -0.0334 -1.3468
  676MOL0     H91208   5.410   7.767   6.024  0.4232 -2.5427 -0.1991
  676MOL0     H91209   5.240   7.754   5.872 -0.8015  0.3188  1.1278
  676MOL0     H91210   5.162   7.628   5.955  1.6506 -1.4209  1.0941
  676MOL0     H91211   5.284   8.007   6.045 -0.2162  0.9054 -0.8354
  676MOL0     H91212   5.101   8.131   6.296 -1.7568  2.4545  0.4438
  676MOL0     H91213   5.195   8.202   6.160 -0.4897 -0.0985 -1.0366
  676MOL0     H91214   5.043   8.326   6.082  0.2297  1.2168  1.1273
  676MOL0     H91215   4.923   8.199   6.102  1.5490  0.5521 -1.4805
  676MOL0     H91216   4.925   8.443   6.215  1.3095  0.5533 -0.4766
  676MOL0     H91217   5.046   8.356   6.322 -0.6458  0.3444 -0.0106
  676MOL0     H91218   4.850   8.185   6.368  0.5191 -0.4210  0.5554
  676MOL0     H91219   4.753   8.287   6.268  2.4636 -2.5995 -0.3305
  676MOL0     H91220   4.818   8.313   6.703 -0.1427 -3.5081 -2.9797
  676MOL0     H91221   4.653   8.303   6.864 -1.7445  0.4927 -0.0267
  676MOL0     H91222   4.223   8.412   7.031 -0.7980  2.1071  0.6405
  676MOL0     H91223   4.002   8.469   7.139 -3.9953 -3.7989  0.4994
  676MOL0     H91224   3.672   8.602   6.865 -0.3168 -2.4082 -1.6688
  676MOL0     H91225   3.606   8.493   6.994  0.5122  0.2241  0.7932
  676MOL0     H91226   3.602   8.682   7.128 -2.2998 -1.0424 -1.2430
  676MOL0     H91227   3.686   8.794   7.015 -1.8799  1.9515  1.2428
  676MOL0     H91228   3.466   8.714   6.864 -4.1181 -1.9090  0.2415
  676MOL0     H91229   3.421   8.643   7.023  1.8053 -2.3951 -2.8478
  676MOL0     H91230   3.457   8.944   6.962  0.9126  0.9999  2.9650
  676MOL0     H91231   3.418   8.881   7.118 -2.9632 -0.4109 -0.4892
  676MOL0     H91232   3.223   8.780   7.044 -0.2583  1.4966  1.5705
  676MOL0     H91233   3.249   8.824   6.873 -1.5715 -3.3041  0.5267
  676MOL0     H91234   3.248   9.071   6.964 -1.4312 -0.5664 -0.6989
  676MOL0     H91235   3.092   8.982   6.970  0.5699 -0.4401 -1.7867
  676MOL0     H91236   3.214   8.944   7.219 -0.3657 -0.0209  0.1135
  676MOL0     H91237   3.063   9.026   7.169 -0.2130  0.5796 -0.5370
  676MOL0     H91238   3.190   9.237   7.136  2.3989  0.7001 -1.3523
  676MOL0     H91239   3.192   9.182   7.306 -2.4576 -1.1977 -0.4731
  676MOL0     H91240   3.815   8.498   6.757 -2.0766  0.8908  1.9093
  676MOL0     H91241   4.032   8.426   6.646  1.4635  3.4117 -0.5657
  676MOL0     H91242   4.354   8.339   6.557 -0.5704 -1.5128 -1.0093
  676MOL0     H91243   4.551   8.366   6.389  1.7927 -2.1908 -0.5568
  676MOL0     H91244   6.114   7.629   6.427 -2.2486  0.1512  0.7955
  676MOL0     H91245   6.292   7.438   6.370  0.8896 -1.6437  0.7605
  676MOL0     H91246   6.607   7.131   6.693  2.3711 -0.0548  0.1159
  676MOL0     H91247   6.784   6.940   6.663 -1.1602 -1.5001  1.8422
  676MOL0     H91248   6.847   6.739   6.654 -0.7438 -0.1079  0.1917
  676MOL0     H91249   6.947   6.820   6.535  0.7962 -0.6271 -1.2065
  676MOL0     H91250   7.039   6.602   6.530  2.2169  1.6114 -2.5266
  676MOL0     H91251   6.957   6.635   6.385 -0.3661 -0.2148 -0.2378
  676MOL0     H91252   6.819   6.466   6.417  2.3453 -1.0141 -1.7896
  676MOL0     H91253   6.770   6.508   6.590  2.1302 -0.0880  2.1991
  676MOL0     H91254   7.023   6.351   6.507  1.8907  3.5723  1.4387
  676MOL0     H91255   6.995   6.395   6.673  0.0112  2.0098 -0.0893
  676MOL0     H91256   6.697   6.159   6.742 -0.6140  0.7452 -0.6293
  676MOL0     H91257   6.567   6.817   6.320  2.0588  0.7934 -1.9623
  676MOL0     H91258   6.267   6.963   6.368  1.7744 -3.3596  1.0411
  676MOL0     H91259   6.364   7.098   6.282  2.4426  0.7529  1.1445
  676MOL0     H91260   6.360   6.917   6.239  0.3798 -0.7245  1.1408
  677MOL0     O91261   4.195  10.806   2.384 -0.0097  0.0514  0.1406
  677MOL0     C91262   4.182  10.703   2.318  0.9391 -0.7299  0.4686
  677MOL0     O91263   4.285  10.608   2.299 -1.0538  0.0553  0.0360
  677MOL0     C91264   4.408  10.636   2.356  0.6096  0.6913  0.4608
  677MOL0     C91265   4.468  10.572   2.465 -0.3591 -0.8848 -0.2805
  677MOL0     C91266   4.598  10.602   2.510 -0.0813  0.4559  0.1441
  677MOL0     C91267   4.681  10.689   2.439  0.8960  0.0196  0.1497
  677MOL0     O91268   4.810  10.711   2.482  0.7433 -0.4902  0.3214
  677MOL0     C91269   4.859  10.850   2.464 -0.9761 -0.2615 -0.4177
  677MOL0     C91270   5.002  10.870   2.531 -0.1578 -0.1863  0.2657
  677MOL0     C91271   5.074  10.998   2.482  0.5180 -0.3990 -0.4514
  677MOL0     C91272   4.997  11.118   2.529 -0.2730 -0.4041 -0.1218
  677MOL0     C91273   5.058  11.255   2.531  0.6547  0.5082  0.6675
  677MOL0     C91274   4.966  11.371   2.557 -0.6199 -0.0510  0.9068
  677MOL0     C91275   5.030  11.509   2.576 -0.7228  0.7777  0.8151
  677MOL0     C91276   5.142  11.520   2.678 -0.7925  0.1566 -0.5106
  677MOL0     N91277   5.280  11.517   2.625  0.1955  0.1982 -0.4518
  677MOL0     C91278   5.340  11.606   2.541  0.0801 -0.0054  0.2123
  677MOL0     C91279   5.475  11.572   2.546 -0.0901 -0.4811 -0.6190
  677MOL0     C91280   5.587  11.635   2.464  0.5266  0.1832  0.8003
  677MOL0     C91281   5.701  11.692   2.545  0.2660 -0.5434  0.1444
  677MOL0     C91282   5.828  11.739   2.471  0.2020  0.8972 -0.3818
  677MOL0     C91283   5.943  11.795   2.571 -0.0375 -0.1484  0.9805
  677MOL0     O91284   6.059  11.836   2.499  0.5825 -1.2527 -0.1406
  677MOL0     C91285   6.150  11.909   2.577 -0.2287  0.6249 -0.2252
  677MOL0     C91286   6.169  11.897   2.719 -0.3527 -0.0652  0.6571
  677MOL0     C91287   6.271  11.951   2.789 -0.3632  0.8716  0.3249
  677MOL0     C91288   6.366  12.027   2.712  0.9261  0.6623  0.3584
  677MOL0     C91289   6.486  12.084   2.778 -1.0723 -0.6372  0.3563
  677MOL0     O91290   6.547  12.189   2.710  0.0062  0.3999 -0.1173
  677MOL0     C91291   6.652  12.262   2.758 -1.2075 -0.4779  1.1247
  677MOL0     C91292   6.640  12.404   2.763  0.5912 -0.3815  0.0882
  677MOL0     C91293   6.747  12.484   2.801  0.2682 -0.7042 -0.5777
  677MOL0     C91294   6.864  12.416   2.845  0.3068 -0.5249 -1.4103
  677MOL0     O91295   6.979  12.484   2.895  0.5727  0.2654 -0.3528
  677MOL0     C91296   7.002  12.615   2.867 -0.1933  0.3280  0.9577
  677MOL0     C91297   6.988  12.648   2.717  0.6515 -0.1858 -0.3243
  677MOL0     C91298   7.000  12.804   2.695  0.5004 -0.2340  0.3113
  677MOL0     C91299   7.007  12.833   2.547 -0.1943 -0.4344  0.3974
  677MOL0     C91300   6.984  12.991   2.517  0.0019 -0.4101 -0.5606
  677MOL0     C91301   6.829  13.031   2.522 -0.4868  0.9306 -0.3010
  677MOL0     C91302   6.796  13.168   2.479  0.3167 -0.8706  0.1359
  677MOL0     C91303   6.651  13.182   2.453  0.2161 -0.9345 -0.0373
  677MOL0    Cl91304   6.545  13.114   2.575 -0.0112  0.1705 -0.2560
  677MOL0     C91305   6.867  12.282   2.854 -0.5186  0.3178  0.3490
  677MOL0     C91306   6.764  12.208   2.803  0.0121  0.5221  0.0471
  677MOL0     O91307   6.530  12.030   2.876  0.2098 -0.0318 -0.7895
  677MOL0     C91308   6.356  12.044   2.566 -0.0944 -0.7634 -0.6025
  677MOL0     C91309   6.243  11.979   2.502 -0.4428  0.1083 -0.2038
  677MOL0     N91310   5.497  11.463   2.634  1.2094  0.3084  0.1754
  677MOL0     N91311   5.379  11.439   2.684 -0.1799 -0.0728 -0.1134
  677MOL0     C91312   4.619  10.764   2.335 -0.7837 -0.2409 -0.1412
  677MOL0     C91313   4.488  10.740   2.300 -0.1032  0.4347 -0.6758
  677MOL0     C91314   4.059  10.677   2.236  0.0087 -0.6105  0.2836
  677MOL0     C91315   4.063  10.580   2.129  0.6670 -0.6397 -0.9557
  677MOL0     C91316   3.959  10.558   2.049  0.6008 -0.4928  0.7466
  677MOL0     C91317   3.841  10.633   2.049 -0.7175 -0.6586 -0.0463
  677MOL0     O91318   3.739  10.596   1.960 -0.2083  0.1231 -0.6245
  677MOL0     C91319   3.612  10.580   2.026  0.7246  0.1522  0.3206
  677MOL0     C91320   3.521  10.703   1.979  0.4777  0.6893  0.5151
  677MOL0     C91321   3.572  10.796   1.870  1.2648 -0.4139 -0.3049
  677MOL0     C91322   3.606  10.738   1.733  0.3548  1.4422  0.3249
  677MOL0     C91323   3.612  10.840   1.627  0.9029 -0.4158 -0.0902
  677MOL0     C91324   3.636  10.914   1.537 -0.1657  0.9883  0.1506
  677MOL0     C91325   3.832  10.730   2.148  0.3116 -0.3948 -0.1218
  677MOL0     C91326   3.940  10.753   2.240  0.4804 -0.3541  0.2990
  677MOL0     C91327   3.922  10.866   2.335  0.1613  0.6385  0.0257
  677MOL0     H91328   4.418  10.495   2.523 -0.6342  1.1796  2.4453
  677MOL0     H91329   4.631  10.544   2.595  1.2463 -0.3155 -0.8455
  677MOL0     H91330   4.868  10.875   2.357  0.6185 -2.9667 -1.0059
  677MOL0     H91331   4.793  10.914   2.523 -1.3735 -1.5304  0.5465
  677MOL0     H91332   5.077  10.799   2.493 -2.2951 -2.8857  0.7422
  677MOL0     H91333   4.995  10.870   2.640 -0.7960 -1.1267  0.2345
  677MOL0     H91334   5.073  10.993   2.372 -0.4376 -0.3032 -0.4558
  677MOL0     H91335   5.174  10.995   2.525 -0.3953  1.9280  2.1042
  677MOL0     H91336   4.905  11.132   2.471  0.0416  3.3450  0.0197
  677MOL0     H91337   4.965  11.107   2.633 -0.8847  1.6842 -0.0400
  677MOL0     H91338   5.136  11.248   2.608  0.6326  1.9615  0.8388
  677MOL0     H91339   5.106  11.265   2.434 -0.2481 -2.4543 -0.2059
  677MOL0     H91340   4.875  11.370   2.496 -0.3800 -3.1924  0.4541
  677MOL0     H91341   4.927  11.347   2.657  0.1742  0.4637  1.3505
  677MOL0     H91342   4.960  11.590   2.597 -0.9727  0.2768  1.9271
  677MOL0     H91343   5.070  11.534   2.477 -3.4426  1.6857 -0.1317
  677MOL0     H91344   5.134  11.612   2.738  2.1182  0.5864 -0.6590
  677MOL0     H91345   5.125  11.448   2.758  0.1777  1.6580  1.1296
  677MOL0     H91346   5.298  11.678   2.472 -0.2707 -1.0086 -0.6547
  677MOL0     H91347   5.629  11.558   2.398  0.7655 -0.9943  2.2944
  677MOL0     H91348   5.539  11.711   2.401  0.5492  0.3675  1.0061
  677MOL0     H91349   5.665  11.782   2.595 -1.1101 -2.5876  3.1209
  677MOL0     H91350   5.731  11.617   2.619  1.7036  1.6420  1.9142
  677MOL0     H91351   5.801  11.815   2.397  0.7518  1.5780  0.0970
  677MOL0     H91352   5.863  11.654   2.412  2.2942  1.6181 -0.2747
  677MOL0     H91353   5.976  11.709   2.631 -2.1467 -1.1622  0.7748
  677MOL0     H91354   5.902  11.862   2.647  0.9097 -0.6873  1.9843
  677MOL0     H91355   6.094  11.850   2.782  1.8356 -0.6694  2.9451
  677MOL0     H91356   6.272  11.952   2.897 -0.7733 -2.4860  0.4735
  677MOL0     H91357   6.544  12.446   2.736 -0.2693 -0.9022  2.1544
  677MOL0     H91358   6.747  12.592   2.810  0.5079 -0.8552  3.0436
  677MOL0     H91359   6.936  12.680   2.924  0.7214  1.5252  0.6923
  677MOL0     H91360   7.107  12.637   2.891  0.5597 -2.9686  1.1307
  677MOL0     H91361   7.066  12.596   2.660 -1.4197 -2.9125 -0.8551
  677MOL0     H91362   6.888  12.633   2.678  0.8749  0.4700 -1.1594
  677MOL0     H91363   6.907  12.841   2.740  0.1053 -1.9026  0.9588
  677MOL0     H91364   7.084  12.851   2.748  0.3193  1.8446 -1.1277
  677MOL0     H91365   6.936  12.775   2.487  0.7780 -2.5872  1.2142
  677MOL0     H91366   7.107  12.814   2.506  0.4536  1.4214  1.0176
  677MOL0     H91367   7.016  13.011   2.414  1.5670 -0.2242 -0.0611
  677MOL0     H91368   7.043  13.058   2.580 -0.4022  0.2802 -0.9072
  677MOL0     H91369   6.772  12.950   2.476  3.4439 -0.7614 -2.7181
  677MOL0     H91370   6.804  13.029   2.629  2.6653  1.5023  0.5539
  677MOL0     H91371   6.851  13.209   2.395 -0.7370  1.8079  0.6654
  677MOL0     H91372   6.833  13.225   2.565  2.5567 -1.3261 -0.4591
  677MOL0     H91373   6.631  13.289   2.442 -2.0436 -1.3487 -0.5052
  677MOL0     H91374   6.625  13.136   2.358  2.9221 -2.5730 -0.0966
  677MOL0     H91375   6.955  12.221   2.869 -1.1627 -0.8955 -0.6020
  677MOL0     H91376   6.771  12.100   2.790 -1.0345  0.7412 -3.1246
  677MOL0     H91377   6.432  12.106   2.521 -0.3484  0.8689  1.1229
  677MOL0     H91378   6.243  11.989   2.394  5.0387 -1.9909 -0.7075
  677MOL0     H91379   4.678  10.839   2.284 -0.4224 -1.2644 -1.2976
  677MOL0     H91380   4.443  10.790   2.214 -0.4391  1.0080 -0.1693
  677MOL0     H91381   4.151  10.522   2.103  1.9507  0.6165  0.4355
  677MOL0     H91382   3.985  10.478   1.980  0.6535 -1.6256  2.0517
  677MOL0     H91383   3.602  10.571   2.134 -3.3036 -1.7545 -0.0506
  677MOL0     H91384   3.563  10.489   1.990 -0.0298  0.5482  0.3256
  677MOL0     H91385   3.516  10.769   2.066 -1.7531 -0.1234  1.0848
  677MOL0     H91386   3.419  10.667   1.960  0.0555  0.3620  3.0249
  677MOL0     H91387   3.656  10.857   1.906  0.5697  2.4693 -3.0905
  677MOL0     H91388   3.484  10.858   1.853 -0.5223 -2.1229  1.9756
  677MOL0     H91389   3.703  10.688   1.728 -0.1848  0.5340 -2.9310
  677MOL0     H91390   3.539  10.656   1.707 -0.1621  2.0950 -0.4340
  677MOL0     H91391   3.635  10.977   1.451 -0.7203  1.3808  0.4384
  677MOL0     H91392   3.752  10.801   2.167  0.6195 -0.8996  4.0529
  677MOL0     H91393   3.965  10.851   2.434 -0.7027 -0.3242  0.2720
  677MOL0     H91394   3.958  10.961   2.294  1.6144  1.6942  3.4367
  677MOL0     H91395   3.814  10.881   2.348 -0.2559 -0.1623 -2.0772
  678MOL0     O91396  11.001   2.934   3.967  0.1828  1.0401  0.1170
  678MOL0     C91397  10.937   2.850   4.034  0.3309 -0.8874 -0.6013
  678MOL0     O91398  10.829   2.773   3.990 -0.0792 -0.6042 -0.8414
  678MOL0     C91399  10.798   2.780   3.859 -0.2753  0.6295  0.2255
  678MOL0     C91400  10.845   2.679   3.768 -0.7338 -1.0849 -0.4951
  678MOL0     C91401  10.811   2.697   3.636  0.1057 -0.1685 -0.5051
  678MOL0     C91402  10.742   2.808   3.586 -0.3966  1.0293  0.0602
  678MOL0     O91403  10.713   2.808   3.456 -0.8605 -0.0210  0.5307
  678MOL0     C91404  10.674   2.932   3.392 -0.7491 -0.1941 -1.4163
  678MOL0     C91405  10.657   2.915   3.241 -0.4755  0.4436 -0.2122
  678MOL0     C91406  10.697   3.033   3.155 -1.0205  0.4294  0.1516
  678MOL0     C91407  10.684   2.983   3.009  0.0077 -0.8665  0.2595
  678MOL0     C91408  10.731   3.102   2.918 -0.1951 -0.6535 -0.4928
  678MOL0     C91409  10.875   3.092   2.871  0.0206 -0.1955 -0.1308
  678MOL0     C91410  10.908   3.221   2.795  1.0261 -0.3678  1.3161
  678MOL0     C91411  11.045   3.185   2.734  0.1581 -0.4919  0.5671
  678MOL0     N91412  11.081   3.285   2.627  0.2874  0.2704 -0.3561
  678MOL0     C91413  11.044   3.414   2.625  0.3001  0.2599  0.6292
  678MOL0     C91414  11.128   3.473   2.534  0.1774 -0.8479 -0.1438
  678MOL0     C91415  11.116   3.620   2.494  0.7057  0.3740  0.1989
  678MOL0     C91416  10.980   3.654   2.423 -0.1809  0.6318  0.6614
  678MOL0     C91417  10.878   3.706   2.534 -0.2090  0.1633  0.5719
  678MOL0     C91418  10.753   3.767   2.470  0.1079  0.9961  0.1072
  678MOL0     O91419  10.693   3.663   2.396 -0.1625  0.2145  0.3988
  678MOL0     C91420  10.609   3.683   2.292  0.2820  0.7116  0.5013
  678MOL0     C91421  10.547   3.802   2.256 -0.2953  0.4693 -0.0017
  678MOL0     C91422  10.463   3.800   2.144  0.1030  0.4379 -1.0922
  678MOL0     C91423  10.451   3.691   2.058  0.4965 -0.0238 -0.4912
  678MOL0     C91424  10.398   3.711   1.920  0.9887 -0.1236 -0.1589
  678MOL0     O91425  10.375   3.599   1.844 -0.1930  0.4969 -0.1744
  678MOL0     C91426  10.321   3.626   1.728  0.6531 -0.9030  0.2575
  678MOL0     C91427  10.183   3.673   1.727 -0.0049  0.0246  0.0457
  678MOL0     C91428  10.126   3.695   1.599 -0.6314 -0.1237 -0.2486
  678MOL0     C91429  10.207   3.671   1.483 -0.0964 -0.5593 -0.4176
  678MOL0     O91430  10.165   3.688   1.363 -0.2952  0.1352 -0.3442
  678MOL0     C91431  10.023   3.703   1.344 -0.3759 -0.1562 -1.0337
  678MOL0     C91432   9.964   3.658   1.203  0.4225 -0.1067 -0.9811
  678MOL0     C91433   9.810   3.630   1.193  0.8544  0.2179  0.2138
  678MOL0     C91434   9.738   3.753   1.245  0.6440 -0.9753  0.7861
  678MOL0     C91435   9.585   3.747   1.231  0.9138  0.2342 -0.6781
  678MOL0     C91436   9.522   3.632   1.322  0.6986  0.7136  0.6993
  678MOL0     C91437   9.373   3.642   1.337 -0.4929  0.1765 -0.3627
  678MOL0     C91438   9.285   3.602   1.220 -0.3690  0.2435  0.2150
  678MOL0    Cl91439   9.296   3.416   1.205 -0.5731  0.2705  0.1341
  678MOL0     C91440  10.338   3.624   1.486 -0.4660  0.1837  0.4247
  678MOL0     C91441  10.395   3.605   1.613 -0.1637  0.6759  0.1762
  678MOL0     O91442  10.412   3.825   1.884  0.0379 -0.1508  0.3301
  678MOL0     C91443  10.505   3.564   2.102 -0.2951 -0.2505  0.3302
  678MOL0     C91444  10.587   3.566   2.220 -0.1858 -0.2668  1.1746
  678MOL0     N91445  11.218   3.384   2.480 -0.1501 -0.3861 -0.2725
  678MOL0     N91446  11.182   3.269   2.537  0.0573 -0.0351  0.7043
  678MOL0     C91447  10.703   2.899   3.681 -0.1521 -0.8478 -0.7567
  678MOL0     C91448  10.730   2.890   3.815  0.3025  0.0391 -0.7979
  678MOL0     C91449  10.974   2.831   4.182  1.0599  0.0487 -0.8254
  678MOL0     C91450  10.942   2.704   4.246  0.1882 -0.8728 -0.0687
  678MOL0     C91451  10.994   2.672   4.372 -0.2646  0.4558 -0.0374
  678MOL0     C91452  11.060   2.767   4.448  0.4024 -0.1076 -0.0724
  678MOL0     O91453  11.106   2.729   4.579 -0.1111 -0.1879 -0.5848
  678MOL0     C91454  11.109   2.826   4.683  0.5207 -0.2943  0.4428
  678MOL0     C91455  11.134   2.754   4.817 -0.3870 -0.6325 -0.2407
  678MOL0     C91456  11.284   2.704   4.820 -0.4388  0.4159  0.3213
  678MOL0     C91457  11.317   2.640   4.954  0.1050  1.2243  0.6438
  678MOL0     C91458  11.454   2.603   4.971  0.7158  0.5769  0.7484
  678MOL0     C91459  11.563   2.561   4.999 -0.8656 -1.0766  0.2368
  678MOL0     C91460  11.061   2.903   4.402  0.0565 -0.0858  0.6658
  678MOL0     C91461  11.022   2.937   4.270  0.0814 -0.7422  0.5532
  678MOL0     C91462  11.045   3.078   4.219 -0.4033 -0.7867 -0.1500
  678MOL0     H91463  10.908   2.597   3.801  0.0253 -0.5339 -0.5602
  678MOL0     H91464  10.846   2.617   3.571  0.6514 -1.2486  1.0525
  678MOL0     H91465  10.575   2.953   3.433 -0.8374 -2.8198 -0.0855
  678MOL0     H91466  10.752   3.006   3.412  0.6714 -1.7943 -0.8102
  678MOL0     H91467  10.549   2.907   3.227 -0.4425  1.7698 -1.5172
  678MOL0     H91468  10.696   2.820   3.202  0.5826  1.0440 -0.6746
  678MOL0     H91469  10.802   3.050   3.180 -0.6984 -0.5071 -0.5205
  678MOL0     H91470  10.645   3.124   3.186 -2.8666 -1.3465  2.7085
  678MOL0     H91471  10.732   2.888   2.988 -4.4279 -2.7281 -2.9037
  678MOL0     H91472  10.580   2.962   2.981  0.4441  1.2377 -3.5804
  678MOL0     H91473  10.673   3.099   2.826  0.2353 -3.5488 -0.7610
  678MOL0     H91474  10.735   3.198   2.970  4.2073 -0.6334 -0.5362
  678MOL0     H91475  10.942   3.080   2.956 -2.5419  2.1034  2.4267
  678MOL0     H91476  10.889   3.006   2.805  2.9751 -0.7842  1.0920
  678MOL0     H91477  10.917   3.305   2.865 -0.5516  0.5850  0.4456
  678MOL0     H91478  10.838   3.246   2.714  1.2184 -3.0065  0.2628
  678MOL0     H91479  11.132   3.188   2.800 -1.2771 -1.4851  2.6084
  678MOL0     H91480  11.049   3.088   2.683  2.1870  0.4494 -1.2224
  678MOL0     H91481  10.965   3.455   2.688  0.3535  0.9380  0.2585
  678MOL0     H91482  11.130   3.680   2.584  0.4227  1.2688 -0.3402
  678MOL0     H91483  11.190   3.654   2.420 -1.2350  0.6182 -1.7238
  678MOL0     H91484  11.012   3.739   2.362  0.4595 -0.1861 -0.1527
  678MOL0     H91485  10.956   3.571   2.357  2.3725  0.7288 -0.4859
  678MOL0     H91486  10.936   3.779   2.593  3.1482  0.1166 -2.3087
  678MOL0     H91487  10.858   3.622   2.601 -0.5315 -0.7103 -0.5986
  678MOL0     H91488  10.771   3.855   2.406 -0.9536 -0.5282 -2.4465
  678MOL0     H91489  10.683   3.797   2.549 -1.1741 -1.6928  0.0993
  678MOL0     H91490  10.551   3.898   2.307 -1.3713  1.4351 -1.6296
  678MOL0     H91491  10.411   3.890   2.112 -1.2231 -0.3900 -1.3520
  678MOL0     H91492  10.124   3.683   1.817 -1.8317  0.8672 -1.1961
  678MOL0     H91493  10.022   3.728   1.597 -1.4226 -2.1228  2.3585
  678MOL0     H91494   9.972   3.632   1.410  0.4426 -0.0321 -0.2528
  678MOL0     H91495   9.996   3.807   1.366  2.5748  0.4528  0.1005
  678MOL0     H91496   9.984   3.737   1.131 -0.0211  1.2895  0.3798
  678MOL0     H91497  10.034   3.574   1.194  1.3931  0.3457  1.4581
  678MOL0     H91498   9.772   3.601   1.095  3.1573  1.6414 -1.1971
  678MOL0     H91499   9.789   3.546   1.260  1.1918  1.1535  1.5199
  678MOL0     H91500   9.767   3.844   1.192  1.0524 -1.4250  0.2235
  678MOL0     H91501   9.764   3.759   1.351  0.0183 -1.6739  0.9867
  678MOL0     H91502   9.565   3.718   1.127 -1.7431 -1.6789  0.2422
  678MOL0     H91503   9.535   3.838   1.264 -2.2479 -0.9863 -1.6563
  678MOL0     H91504   9.541   3.534   1.275  0.5906  1.3457 -0.7369
  678MOL0     H91505   9.566   3.634   1.421 -0.8902 -0.9246  1.4968
  678MOL0     H91506   9.346   3.734   1.390  0.9046 -0.4264  1.5153
  678MOL0     H91507   9.342   3.570   1.414  4.4646 -1.1746  0.7360
  678MOL0     H91508   9.182   3.628   1.247 -0.8562 -1.3303 -0.0517
  678MOL0     H91509   9.313   3.651   1.126  1.5742 -2.6848 -0.8883
  678MOL0     H91510  10.380   3.600   1.389 -2.8325 -1.1387 -0.3497
  678MOL0     H91511  10.494   3.562   1.622 -1.5838 -2.6460  1.8160
  678MOL0     H91512  10.501   3.476   2.039  4.6283 -0.1668 -0.4890
  678MOL0     H91513  10.634   3.477   2.261 -3.4034 -3.6363 -1.6153
  678MOL0     H91514  10.639   2.978   3.644  1.8408  0.9089 -0.6645
  678MOL0     H91515  10.717   2.977   3.878  5.7567 -0.9395  2.3679
  678MOL0     H91516  10.891   2.634   4.181  0.9116  0.0866 -1.7266
  678MOL0     H91517  10.975   2.577   4.420 -1.8084  1.3190  1.1467
  678MOL0     H91518  11.015   2.882   4.679 -1.3923 -3.3088 -3.1545
  678MOL0     H91519  11.180   2.908   4.669 -2.1148  1.6847 -2.3559
  678MOL0     H91520  11.071   2.664   4.812  0.3063 -1.0721 -4.6494
  678MOL0     H91521  11.100   2.817   4.900 -1.2922 -0.7487 -0.5098
  678MOL0     H91522  11.357   2.783   4.800 -2.0835  1.4468 -2.2230
  678MOL0     H91523  11.297   2.636   4.735  0.3659  1.8804 -0.7797
  678MOL0     H91524  11.277   2.708   5.029 -1.8662 -0.6383  1.4075
  678MOL0     H91525  11.259   2.548   4.971  2.4273 -0.5433 -0.4489
  678MOL0     H91526  11.665   2.532   5.015 -0.6171 -0.4524 -0.1645
  678MOL0     H91527  11.089   2.986   4.465 -1.9401  0.6663  0.6176
  678MOL0     H91528  11.063   3.150   4.300  2.0809  0.4017 -1.6102
  678MOL0     H91529  11.138   3.085   4.162 -0.5138  2.3809 -0.1315
  678MOL0     H91530  10.967   3.108   4.149  0.2372  1.0568 -0.1414
  679MOL0     O91531   1.830   5.033   6.976  0.8674  0.4501  0.4850
  679MOL0     C91532   1.941   5.023   6.922  0.4715 -0.1540 -0.3750
  679MOL0     O91533   2.065   4.985   6.981 -0.0013 -0.3523  0.3225
  679MOL0     C91534   2.081   4.947   7.112 -0.0708  0.3508 -0.0780
  679MOL0     C91535   1.987   4.929   7.221  0.7742 -0.0416  0.3606
  679MOL0     C91536   2.017   4.872   7.346 -0.4743 -1.2902  0.1377
  679MOL0     C91537   2.153   4.842   7.372 -0.2397  0.1902 -0.2931
  679MOL0     O91538   2.204   4.768   7.480  0.5103 -0.4677 -0.1179
  679MOL0     C91539   2.126   4.662   7.528  0.1797  0.2441 -0.3868
  679MOL0     C91540   2.046   4.711   7.657 -0.4149  0.4259 -0.1181
  679MOL0     C91541   1.968   4.605   7.732 -0.0736 -0.0321  1.0713
  679MOL0     C91542   1.897   4.658   7.860 -1.0945  0.0790 -0.2110
  679MOL0     C91543   1.767   4.729   7.826 -0.2512  0.8143 -0.3018
  679MOL0     C91544   1.700   4.783   7.947  0.3112 -0.5805  0.6679
  679MOL0     C91545   1.565   4.836   7.919 -0.5565  0.3970  0.7551
  679MOL0     C91546   1.541   4.938   7.798 -0.6640  0.1564 -0.1791
  679MOL0     N91547   1.406   5.003   7.810 -0.3451 -0.2875  0.2756
  679MOL0     C91548   1.360   5.070   7.921  0.2473  0.5530  0.3760
  679MOL0     C91549   1.232   5.085   7.892  0.2395 -0.2677 -0.2412
  679MOL0     C91550   1.124   5.140   7.979 -0.1775 -0.4338  0.5546
  679MOL0     C91551   1.037   5.023   8.037  0.0132 -0.2915 -0.0303
  679MOL0     C91552   1.119   4.947   8.151  0.3579 -0.6298  0.2960
  679MOL0     C91553   1.037   4.830   8.200 -0.6936  0.3862 -0.1856
  679MOL0     O91554   1.058   4.713   8.124  1.0927 -0.0227  0.6770
  679MOL0     C91555   1.168   4.636   8.121 -1.3723  0.2135  0.0778
  679MOL0     C91556   1.287   4.674   8.184 -1.3818  0.7364  1.1255
  679MOL0     C91557   1.405   4.591   8.171 -0.2644  0.5066  0.4239
  679MOL0     C91558   1.396   4.469   8.106 -0.2357 -0.1270 -0.2355
  679MOL0     C91559   1.497   4.370   8.114  0.2832  0.4411  0.2424
  679MOL0     O91560   1.618   4.403   8.169 -0.3672 -0.5515 -0.2138
  679MOL0     C91561   1.728   4.318   8.178 -0.7781  0.8285 -0.6942
  679MOL0     C91562   1.844   4.383   8.216  0.0107 -0.8030  0.9933
  679MOL0     C91563   1.957   4.305   8.251  0.2888 -0.2704  0.0719
  679MOL0     C91564   1.958   4.168   8.247  0.2899  0.1817  0.0054
  679MOL0     O91565   2.058   4.085   8.284 -0.1350 -0.8827 -1.0620
  679MOL0     C91566   2.193   4.107   8.242  0.1270 -0.5525 -0.1517
  679MOL0     C91567   2.281   4.154   8.357  0.4250 -0.7384 -0.4835
  679MOL0     C91568   2.313   4.032   8.457 -0.5680 -0.5770 -0.7003
  679MOL0     C91569   2.406   3.929   8.398 -0.4058 -1.0326  0.6766
  679MOL0     C91570   2.409   3.801   8.470 -1.3693  0.9288 -0.6455
  679MOL0     C91571   2.499   3.799   8.598 -0.2709  1.3124 -0.8112
  679MOL0     C91572   2.481   3.679   8.684 -0.7708 -0.1608 -0.0078
  679MOL0     C91573   2.514   3.549   8.618 -0.2198  0.3460  0.5025
  679MOL0    Cl91574   2.508   3.424   8.754  0.1859  0.2981 -0.2215
  679MOL0     C91575   1.839   4.112   8.196  0.0242 -0.3631 -0.6676
  679MOL0     C91576   1.729   4.183   8.162  0.9088  0.4585 -0.4740
  679MOL0     O91577   1.466   4.262   8.066  0.1506  0.6717 -0.1439
  679MOL0     C91578   1.267   4.432   8.050 -0.7095  0.1415  0.5817
  679MOL0     C91579   1.161   4.517   8.057  0.3698  0.7115  0.4642
  679MOL0     N91580   1.210   5.040   7.765  0.1174  0.8041 -0.9261
  679MOL0     N91581   1.314   4.995   7.713  0.0071  0.0583 -0.3610
  679MOL0     C91582   2.253   4.870   7.277  0.1081 -0.3227 -0.0990
  679MOL0     C91583   2.216   4.919   7.152  0.4676 -0.2202  0.1112
  679MOL0     C91584   1.940   5.041   6.772 -0.0276  0.1500 -0.2325
  679MOL0     C91585   1.825   4.999   6.705 -0.3222  0.1671  0.0937
  679MOL0     C91586   1.811   5.005   6.569  0.2739  0.0625  1.0325
  679MOL0     C91587   1.909   5.057   6.481  0.3684 -0.0374 -0.6083
  679MOL0     O91588   1.891   5.059   6.346 -0.0778 -0.3488 -0.0687
  679MOL0     C91589   1.986   5.130   6.264  1.7307 -0.4860  0.0488
  679MOL0     C91590   1.937   5.140   6.113 -0.3592  0.6979  0.4006
  679MOL0     C91591   1.931   5.002   6.038 -0.1951 -0.5052 -0.2009
  679MOL0     C91592   1.968   5.009   5.890 -0.6948  1.1254  0.3436
  679MOL0     C91593   2.113   5.020   5.882 -0.2213 -0.2590  0.7955
  679MOL0     C91594   2.233   5.033   5.877  0.1329  0.3606  1.5670
  679MOL0     C91595   2.029   5.102   6.546  0.5263 -0.0906  0.2308
  679MOL0     C91596   2.051   5.083   6.686  0.3072  0.2154  0.1789
  679MOL0     C91597   2.176   5.131   6.755 -0.0017  0.6185  0.1922
  679MOL0     H91598   1.883   4.956   7.206  0.2142 -0.9356  2.3288
  679MOL0     H91599   1.940   4.861   7.422 -1.3343 -1.5376 -0.7514
  679MOL0     H91600   2.062   4.618   7.451 -1.1125 -0.5261  1.0812
  679MOL0     H91601   2.192   4.580   7.560  1.4306  0.9213 -1.1506
  679MOL0     H91602   1.978   4.790   7.626  1.0975  1.2600 -1.4630
  679MOL0     H91603   2.117   4.747   7.732  0.0205 -6.7579  3.8797
  679MOL0     H91604   2.049   4.539   7.764 -0.0466 -0.7735 -0.4537
  679MOL0     H91605   1.905   4.544   7.666 -3.2690  1.7298  2.2633
  679MOL0     H91606   1.884   4.576   7.932  2.5802 -0.9579 -0.5460
  679MOL0     H91607   1.960   4.737   7.902 -0.4716 -0.2454 -0.5344
  679MOL0     H91608   1.800   4.803   7.752  2.9809  1.3102  1.4704
  679MOL0     H91609   1.704   4.660   7.769  0.7104 -0.0377 -0.3688
  679MOL0     H91610   1.681   4.699   8.013 -0.5657  0.3475  1.6174
  679MOL0     H91611   1.768   4.852   7.998  0.1769 -0.7993  1.1447
  679MOL0     H91612   1.532   4.876   8.015  1.5046  2.6120  0.6245
  679MOL0     H91613   1.491   4.755   7.911  0.4334 -0.6766  2.0511
  679MOL0     H91614   1.619   5.014   7.793 -0.9935  0.5547  0.5849
  679MOL0     H91615   1.537   4.885   7.702  0.0582  2.8930 -1.8186
  679MOL0     H91616   1.414   5.099   8.011 -0.0211  0.4661  0.5683
  679MOL0     H91617   1.155   5.203   8.062 -4.0782  1.6688  0.6345
  679MOL0     H91618   1.059   5.203   7.917  0.6387  0.1124  0.2412
  679MOL0     H91619   0.944   5.061   8.080 -2.4190 -4.3692 -1.1963
  679MOL0     H91620   1.007   4.965   7.950  0.6382  0.9946 -1.1378
  679MOL0     H91621   1.138   5.020   8.231 -0.6030  0.1996 -0.2050
  679MOL0     H91622   1.221   4.915   8.127  1.6491  1.4335  2.5841
  679MOL0     H91623   0.930   4.852   8.204 -0.1245  3.9802 -1.2494
  679MOL0     H91624   1.067   4.808   8.303  2.2948 -5.0363 -1.7870
  679MOL0     H91625   1.298   4.765   8.241  0.9869  0.5505  1.0771
  679MOL0     H91626   1.487   4.622   8.236 -0.3339  0.3813  0.5728
  679MOL0     H91627   1.849   4.491   8.210  0.7925 -0.7814  1.8405
  679MOL0     H91628   2.047   4.353   8.287  0.8895 -0.9877 -0.4679
  679MOL0     H91629   2.236   4.027   8.181  2.1369 -0.1791  0.6733
  679MOL0     H91630   2.186   4.186   8.166 -0.0812 -1.6547 -1.3088
  679MOL0     H91631   2.375   4.194   8.317  1.0955  1.3317  2.8112
  679MOL0     H91632   2.226   4.224   8.420 -0.7503 -3.1444  1.3126
  679MOL0     H91633   2.371   4.073   8.540  0.0208  1.4071 -1.9910
  679MOL0     H91634   2.222   3.986   8.495 -0.6808  0.1148 -0.1080
  679MOL0     H91635   2.508   3.968   8.400 -0.6391 -0.3635  0.0044
  679MOL0     H91636   2.373   3.914   8.294 -1.6859  1.1172  0.7149
  679MOL0     H91637   2.456   3.721   8.411 -0.6341  0.0503  1.0725
  679MOL0     H91638   2.310   3.765   8.500 -0.5299 -2.7482 -1.7954
  679MOL0     H91639   2.607   3.808   8.577 -0.4047  0.4372 -2.0194
  679MOL0     H91640   2.453   3.879   8.656 -0.2295  0.9986 -0.3394
  679MOL0     H91641   2.378   3.680   8.721 -0.9127 -1.3393 -0.3486
  679MOL0     H91642   2.540   3.688   8.775 -1.7034  2.5412  0.4221
  679MOL0     H91643   2.446   3.527   8.535 -2.3836  3.3411  1.3255
  679MOL0     H91644   2.619   3.553   8.587 -0.0976  0.6384  0.9650
  679MOL0     H91645   1.836   4.003   8.193  1.3134 -0.4505  0.1091
  679MOL0     H91646   1.656   4.114   8.119 -0.0057  0.7679  0.5392
  679MOL0     H91647   1.257   4.338   7.998  0.6791 -0.5814  1.5427
  679MOL0     H91648   1.071   4.484   8.006  0.6619  0.1866  0.2807
  679MOL0     H91649   2.354   4.834   7.296  0.6756  0.2716 -1.7934
  679MOL0     H91650   2.298   4.948   7.086  1.1301 -0.9687  0.5817
  679MOL0     H91651   1.748   4.939   6.752 -0.1362  0.6361  1.0099
  679MOL0     H91652   1.718   4.958   6.537  0.6137 -0.3470  0.6303
  679MOL0     H91653   2.081   5.075   6.264  1.8556 -0.2697 -0.2540
  679MOL0     H91654   1.992   5.233   6.299  2.1197  0.1380 -1.7616
  679MOL0     H91655   2.006   5.206   6.057  3.4374 -3.6097 -0.5992
  679MOL0     H91656   1.838   5.184   6.129 -1.1027 -0.4446 -0.9237
  679MOL0     H91657   1.831   4.958   6.036 -0.0983 -1.1707 -5.8637
  679MOL0     H91658   1.997   4.929   6.086  1.0370 -0.2387 -1.4285
  679MOL0     H91659   1.933   4.926   5.828  1.4327  0.0145  0.5425
  679MOL0     H91660   1.914   5.100   5.864 -5.4960 -1.7030 -0.8444
  679MOL0     H91661   2.338   5.041   5.855 -0.3816  0.7530 -1.1478
  679MOL0     H91662   2.106   5.151   6.488  1.2301 -0.6670  0.6689
  679MOL0     H91663   2.223   5.042   6.799 -1.9124  0.5868  2.3230
  679MOL0     H91664   2.248   5.174   6.684 -1.2965 -1.4596 -2.5836
  679MOL0     H91665   2.130   5.194   6.831 -3.0052 -0.2647 -0.7457
  680MOL0     O91666   4.979   1.662   9.658 -0.1236 -0.2951 -0.4751
  680MOL0     C91667   4.909   1.611   9.745 -0.0355  0.4622  0.4052
  680MOL0     O91668   4.882   1.479   9.761  0.5421  0.3831  0.0660
  680MOL0     C91669   4.991   1.404   9.737 -1.1542  0.2977 -0.6937
  680MOL0     C91670   5.095   1.410   9.836  0.7342  0.3396  0.8852
  680MOL0     C91671   5.210   1.330   9.812  0.2889  0.1288 -0.2168
  680MOL0     C91672   5.218   1.249   9.700  0.2397  0.0002 -0.4069
  680MOL0     O91673   5.312   1.166   9.661 -0.0149  0.1373 -0.1936
  680MOL0     C91674   5.398   1.104   9.762  0.4454 -0.6900 -1.2661
  680MOL0     C91675   5.314   1.019   9.848 -0.0865  0.3938  0.3616
  680MOL0     C91676   5.229   0.907   9.785  0.1937  0.5260 -1.0318
  680MOL0     C91677   5.294   0.774   9.759 -0.6477  0.2456 -0.6733
  680MOL0     C91678   5.337   0.694   9.876 -0.7368 -0.0811 -0.2108
  680MOL0     C91679   5.234   0.682   9.987 -0.6381 -0.8226  0.2347
  680MOL0     C91680   5.271   0.558  10.053  0.3147  0.9347  0.2849
  680MOL0     C91681   5.215   0.546  10.194  0.1791 -0.7128  0.0921
  680MOL0     N91682   5.279   0.452  10.278 -0.7409  0.6326 -0.4915
  680MOL0     C91683   5.295   0.314  10.259 -0.3472 -0.1092  0.2633
  680MOL0     C91684   5.366   0.276  10.375 -0.5051 -0.4423  0.1082
  680MOL0     C91685   5.379   0.141  10.435 -0.7227 -0.5663  0.2949
  680MOL0     C91686   5.505   0.112  10.522 -1.1124  0.0768  0.0355
  680MOL0     C91687   5.631   0.113  10.435  0.7796 -0.3187 -0.3986
  680MOL0     C91688   5.691   0.261  10.419 -0.6198  0.6319  0.4035
  680MOL0     O91689   5.825   0.253  10.471 -0.1625 -0.4938 -0.6915
  680MOL0     C91690   5.933   0.188  10.417 -0.5485 -0.3908 -1.0263
  680MOL0     C91691   5.938   0.153  10.281  0.6037  0.3521 -0.7313
  680MOL0     C91692   6.050   0.076  10.234  0.1426 -0.4190 -0.1891
  680MOL0     C91693   6.154   0.047  10.326  0.3536 -0.4477  0.2412
  680MOL0     C91694   6.271  -0.023  10.285 -0.3437  0.9216  0.7203
  680MOL0     O91695   6.366  -0.053  10.377  0.6196 -0.9246 -0.3801
  680MOL0     C91696   6.499  -0.089  10.356  0.2041  0.0175 -0.2761
  680MOL0     C91697   6.552  -0.091  10.223 -0.5431 -0.6184 -0.1374
  680MOL0     C91698   6.690  -0.125  10.206  0.1649 -0.1249 -0.5182
  680MOL0     C91699   6.771  -0.177  10.314  0.1335 -0.9795 -0.1002
  680MOL0     O91700   6.901  -0.220  10.303 -0.7397 -0.0190 -0.5928
  680MOL0     C91701   6.990  -0.171  10.200 -0.0055  0.2778 -0.1467
  680MOL0     C91702   7.022  -0.027  10.235 -0.1103 -0.5718 -0.3113
  680MOL0     C91703   7.105  -0.012  10.368 -0.3720  0.0399  0.2741
  680MOL0     C91704   7.249  -0.078  10.366  0.7780  0.0308 -0.5333
  680MOL0     C91705   7.325  -0.035  10.502 -0.0236 -0.0947 -0.2898
  680MOL0     C91706   7.468  -0.003  10.491  0.1634  0.4970  0.7489
  680MOL0     C91707   7.552   0.028  10.618  0.0952  0.2390 -0.3076
  680MOL0     C91708   7.689   0.082  10.594 -0.0486 -0.3642  1.0164
  680MOL0    Cl91709   7.804  -0.038  10.526  0.4940  0.0924 -0.0309
  680MOL0     C91710   6.706  -0.192  10.435  0.5643  0.1003  0.5554
  680MOL0     C91711   6.577  -0.143  10.453 -0.1043 -0.0070  0.0520
  680MOL0     O91712   6.269  -0.070  10.171 -0.5871  0.3250  0.0831
  680MOL0     C91713   6.151   0.106  10.459 -0.3132  1.1925  0.0323
  680MOL0     C91714   6.033   0.170  10.502  0.3433  0.7559 -0.6620
  680MOL0     N91715   5.393   0.391  10.449  0.3320  1.0044  0.3151
  680MOL0     N91716   5.338   0.494  10.391  1.0343  0.6984 -0.7858
  680MOL0     C91717   5.111   1.249   9.610  0.0867  0.2564  0.4318
  680MOL0     C91718   5.005   1.331   9.622  0.0824  0.7736  0.0582
  680MOL0     C91719   4.848   1.719   9.835  0.4347 -0.1322 -0.7335
  680MOL0     C91720   4.718   1.700   9.868  0.3692  0.2424 -0.2899
  680MOL0     C91721   4.653   1.811   9.923  0.3041 -1.0251 -0.2664
  680MOL0     C91722   4.717   1.933   9.953  0.7693 -0.2367  0.4865
  680MOL0     O91723   4.671   2.036  10.027  0.1662 -0.1041  0.0734
  680MOL0     C91724   4.540   2.021  10.080  0.7573 -0.3158 -0.6848
  680MOL0     C91725   4.502   2.141  10.162 -1.6767 -0.4754 -0.2245
  680MOL0     C91726   4.362   2.147  10.224 -0.3504  0.4748 -0.1440
  680MOL0     C91727   4.316   2.279  10.289 -0.6973  0.4650  0.0678
  680MOL0     C91728   4.406   2.333  10.382  0.6642  0.1292 -0.6739
  680MOL0     C91729   4.469   2.363  10.485  0.7572  0.9782  0.1130
  680MOL0     C91730   4.840   1.946   9.908 -0.0198 -0.5058 -0.2819
  680MOL0     C91731   4.909   1.841   9.854  0.7229  0.3093 -0.2751
  680MOL0     C91732   5.055   1.867   9.819  0.1012 -0.6070  0.2200
  680MOL0     H91733   5.095   1.480   9.919  2.1568  2.7831 -1.0295
  680MOL0     H91734   5.281   1.325   9.894 -2.3793  1.0345  2.3155
  680MOL0     H91735   5.470   1.050   9.699  1.7020 -1.0764  0.4214
  680MOL0     H91736   5.460   1.175   9.818  1.7831 -1.5785 -1.5837
  680MOL0     H91737   5.236   1.073   9.902 -0.4678  0.5826 -0.3763
  680MOL0     H91738   5.385   0.969   9.916  0.1006 -0.7253 -0.6299
  680MOL0     H91739   5.182   0.933   9.690 -1.2884 -2.5060 -1.2374
  680MOL0     H91740   5.149   0.889   9.858  1.8850  0.2014  0.8378
  680MOL0     H91741   5.217   0.713   9.712  1.2451 -3.6704  0.8401
  680MOL0     H91742   5.379   0.789   9.692  0.8570  1.8476  1.4513
  680MOL0     H91743   5.353   0.596   9.830 -1.1148  0.3876 -1.3804
  680MOL0     H91744   5.437   0.722   9.910  0.1059 -4.3418  1.4976
  680MOL0     H91745   5.231   0.762  10.061 -0.2027 -0.5157 -0.0753
  680MOL0     H91746   5.133   0.675   9.944 -0.3382 -1.8366 -0.3477
  680MOL0     H91747   5.376   0.532  10.066 -0.2719 -0.1715  3.8848
  680MOL0     H91748   5.227   0.477   9.994 -1.4038  1.7557  0.3823
  680MOL0     H91749   5.224   0.647  10.236 -3.2680  0.0625 -0.7253
  680MOL0     H91750   5.108   0.527  10.196  0.5069 -2.7433  2.3698
  680MOL0     H91751   5.256   0.241  10.189 -1.9809 -2.4514  3.3313
  680MOL0     H91752   5.292   0.122  10.498 -0.3223  3.3160  2.3502
  680MOL0     H91753   5.379   0.073  10.350 -3.0708  0.3151 -0.5002
  680MOL0     H91754   5.520   0.181  10.605  4.7428 -0.9784  0.2458
  680MOL0     H91755   5.480   0.016  10.567 -4.1303  0.6236 -0.2238
  680MOL0     H91756   5.607   0.070  10.338 -0.9322 -2.1506  0.7579
  680MOL0     H91757   5.700   0.042  10.482  0.1206 -0.4804  0.3475
  680MOL0     H91758   5.630   0.336  10.470 -1.1696 -0.7441  1.8362
  680MOL0     H91759   5.705   0.269  10.311  0.6253 -3.0205  0.1397
  680MOL0     H91760   5.863   0.173  10.206 -0.5312 -2.6738 -0.5558
  680MOL0     H91761   6.057   0.033  10.135 -0.3587 -1.3087  0.1500
  680MOL0     H91762   6.496  -0.062  10.135  1.1156  0.8338 -0.7580
  680MOL0     H91763   6.729  -0.130  10.105  1.1598 -2.2175 -0.0924
  680MOL0     H91764   7.078  -0.235  10.190 -0.0360 -0.1424  1.8911
  680MOL0     H91765   6.928  -0.168  10.110 -3.9582  1.1779  2.3285
  680MOL0     H91766   7.084   0.013  10.154 -1.7782 -1.0822 -1.9022
  680MOL0     H91767   6.927   0.027  10.246 -1.0991 -2.6369  2.5871
  680MOL0     H91768   7.121   0.095  10.379  1.6099 -0.0146 -1.5297
  680MOL0     H91769   7.047  -0.053  10.452 -0.6231 -0.6390 -0.2174
  680MOL0     H91770   7.298  -0.029  10.281  0.9629 -0.2474 -0.5904
  680MOL0     H91771   7.255  -0.187  10.354 -0.4389 -0.0886 -0.1561
  680MOL0     H91772   7.311  -0.112  10.579  2.6803 -1.3683 -0.9458
  680MOL0     H91773   7.285   0.064  10.529  0.6244  0.8194 -2.4930
  680MOL0     H91774   7.512  -0.078  10.425 -1.8757  0.9461 -1.2410
  680MOL0     H91775   7.476   0.095  10.444  4.0553  0.7085  1.5130
  680MOL0     H91776   7.569  -0.065  10.673 -0.8197 -0.7091 -1.5786
  680MOL0     H91777   7.491   0.091  10.684  0.7871 -0.2225  0.8033
  680MOL0     H91778   7.691   0.173  10.533  2.7714 -0.9734  0.0445
  680MOL0     H91779   7.727   0.105  10.694  1.0336 -1.2103  0.8204
  680MOL0     H91780   6.762  -0.245  10.511  0.8268  1.5631  1.4267
  680MOL0     H91781   6.535  -0.130  10.552  0.2211  0.1464  0.1712
  680MOL0     H91782   6.229   0.077  10.528 -0.4017  3.2192  1.0238
  680MOL0     H91783   6.048   0.196  10.607 -1.9476  1.7841 -0.5412
  680MOL0     H91784   5.126   1.195   9.517  0.3040 -0.6577  0.9803
  680MOL0     H91785   4.936   1.347   9.540 -0.7893 -0.6919  0.4685
  680MOL0     H91786   4.663   1.608   9.852 -1.3795  1.2724 -0.5154
  680MOL0     H91787   4.550   1.799   9.954  0.5372 -1.4645  0.3650
  680MOL0     H91788   4.536   1.936  10.149  0.9887  0.1404 -0.1006
  680MOL0     H91789   4.469   1.989  10.002  1.8536 -2.9629 -0.7206
  680MOL0     H91790   4.514   2.234  10.106 -0.8182 -0.4448 -0.0014
  680MOL0     H91791   4.577   2.140  10.242  1.1418 -1.4140 -2.7058
  680MOL0     H91792   4.367   2.064  10.294  1.2631  0.1823 -0.5654
  680MOL0     H91793   4.290   2.134  10.142  0.8876 -0.5081 -1.1021
  680MOL0     H91794   4.303   2.346  10.203 -0.3954  1.4653  0.7772
  680MOL0     H91795   4.214   2.281  10.328  0.1979  1.3067  2.6242
  680MOL0     H91796   4.531   2.383  10.570  2.5798 -2.5572 -0.1960
  680MOL0     H91797   4.885   2.044   9.914 -0.9339 -0.1046  0.1909
  680MOL0     H91798   5.084   1.952   9.881 -1.8875  2.2976 -2.5494
  680MOL0     H91799   5.115   1.776   9.833 -2.2536 -2.0164  1.9692
  680MOL0     H91800   5.067   1.908   9.719 -0.8367 -0.6701  0.0813
  681MOL0     O91801   8.439   4.667   5.324 -0.0017  0.5712  0.1898
  681MOL0     C91802   8.348   4.748   5.314  0.2713  0.3684  0.4233
  681MOL0     O91803   8.357   4.875   5.259 -0.3255 -0.2337  0.4978
  681MOL0     C91804   8.467   4.900   5.186  0.0825 -0.0570 -0.0905
  681MOL0     C91805   8.575   4.956   5.261  1.2597  0.4682 -0.3897
  681MOL0     C91806   8.686   5.006   5.193  1.2495 -0.1258  0.1944
  681MOL0     C91807   8.693   5.013   5.053 -0.2671  0.8911  0.4920
  681MOL0     O91808   8.800   5.078   4.987  0.4249 -0.0332  0.0162
  681MOL0     C91809   8.923   5.062   5.049  0.4845 -0.4125 -0.7448
  681MOL0     C91810   9.033   5.148   4.982  0.5497  0.7675 -0.4729
  681MOL0     C91811   9.038   5.125   4.831  0.7321 -1.1077  0.6999
  681MOL0     C91812   9.155   5.204   4.767 -0.2112  0.4289  0.1354
  681MOL0     C91813   9.160   5.200   4.607 -0.3636  0.4688 -0.6562
  681MOL0     C91814   9.288   5.272   4.563 -0.4234 -0.1464 -0.4826
  681MOL0     C91815   9.304   5.420   4.617  0.3353 -0.7791  0.5376
  681MOL0     C91816   9.192   5.515   4.596  0.1498 -0.2353  0.0505
  681MOL0     N91817   9.193   5.568   4.462  0.1096  0.4942 -0.2096
  681MOL0     C91818   9.284   5.661   4.415  0.6328 -0.9262  0.1755
  681MOL0     C91819   9.240   5.690   4.290  0.1321  0.4340 -0.2509
  681MOL0     C91820   9.303   5.781   4.187  0.2219  0.2498 -0.6563
  681MOL0     C91821   9.298   5.933   4.221 -0.1641  0.3160 -0.5623
  681MOL0     C91822   9.166   5.990   4.177  0.2889  0.5489  0.6632
  681MOL0     C91823   9.150   6.142   4.190 -0.8423  0.4188  0.0487
  681MOL0     O91824   9.044   6.184   4.114 -0.2543 -0.4594 -0.4796
  681MOL0     C91825   8.973   6.288   4.157  0.9668 -0.5363  0.2527
  681MOL0     C91826   8.837   6.266   4.198 -0.7603  0.4958  0.1843
  681MOL0     C91827   8.759   6.374   4.245 -0.2529  0.0647 -0.1876
  681MOL0     C91828   8.811   6.504   4.258  0.3501 -0.1297  0.4265
  681MOL0     C91829   8.727   6.619   4.314 -0.0130 -0.4596  0.0182
  681MOL0     O91830   8.771   6.752   4.294 -0.3723 -0.4567 -0.3054
  681MOL0     C91831   8.684   6.852   4.326  0.4525 -0.6718 -0.3979
  681MOL0     C91832   8.660   6.952   4.237  0.6851  0.3057  1.0334
  681MOL0     C91833   8.567   7.051   4.273 -0.3148 -0.0892  0.1649
  681MOL0     C91834   8.511   7.056   4.402  0.5341  0.1309  0.1997
  681MOL0     O91835   8.416   7.148   4.442 -0.4122  0.4139  0.3182
  681MOL0     C91836   8.325   7.206   4.345 -0.1357 -0.5467 -0.5242
  681MOL0     C91837   8.342   7.358   4.329 -0.0094 -0.4936  1.0817
  681MOL0     C91838   8.217   7.417   4.250 -0.0993  0.3187 -0.5376
  681MOL0     C91839   8.234   7.572   4.245  0.6979  0.8090  0.3145
  681MOL0     C91840   8.122   7.654   4.174 -0.5386 -0.5341 -0.4485
  681MOL0     C91841   8.167   7.808   4.161 -0.2874  1.2448  0.5818
  681MOL0     C91842   8.279   7.820   4.052 -0.2232  0.1943  0.4899
  681MOL0     C91843   8.288   7.967   3.996  0.0383 -0.5027 -0.3499
  681MOL0    Cl91844   8.367   7.959   3.843  0.2042  0.3482  0.1289
  681MOL0     C91845   8.557   6.973   4.495 -0.1820 -0.1146 -0.5414
  681MOL0     C91846   8.645   6.865   4.462 -0.0494 -0.1203  0.0796
  681MOL0     O91847   8.623   6.590   4.378 -1.2252  0.3755  0.2723
  681MOL0     C91848   8.941   6.526   4.201 -0.0340 -0.1688 -0.0212
  681MOL0     C91849   9.024   6.418   4.165  0.1556 -0.1420  0.2691
  681MOL0     N91850   9.136   5.605   4.268  0.0173  0.5206  0.6654
  681MOL0     N91851   9.112   5.526   4.367  0.5997  0.3306 -0.4929
  681MOL0     C91852   8.576   4.972   4.983 -0.1389 -0.1489 -0.2428
  681MOL0     C91853   8.467   4.920   5.047 -0.4962 -0.1363  0.1497
  681MOL0     C91854   8.217   4.709   5.372  0.0418  0.0187 -0.4759
  681MOL0     C91855   8.097   4.781   5.332 -0.4157 -0.2755 -0.4135
  681MOL0     C91856   7.970   4.752   5.383  0.1274  0.2887  0.1825
  681MOL0     C91857   7.951   4.655   5.474 -0.4269 -0.8216  0.5028
  681MOL0     O91858   7.827   4.641   5.533 -0.0988 -0.6373  0.0158
  681MOL0     C91859   7.723   4.625   5.437 -0.4431 -0.4246 -0.4837
  681MOL0     C91860   7.703   4.475   5.418  0.2675  0.5156 -0.6434
  681MOL0     C91861   7.676   4.412   5.550 -0.8104 -0.5522  0.0264
  681MOL0     C91862   7.630   4.271   5.564  0.2420  1.4090  0.9016
  681MOL0     C91863   7.723   4.172   5.510  0.3931 -0.1122 -0.9735
  681MOL0     C91864   7.782   4.085   5.455  0.0367  0.2450  0.2957
  681MOL0     C91865   8.063   4.567   5.504  1.1514 -0.6112  0.9611
  681MOL0     C91866   8.196   4.588   5.453  0.0318 -0.5631  0.0475
  681MOL0     C91867   8.304   4.490   5.507 -0.2361 -0.6346 -0.0533
  681MOL0     H91868   8.575   4.956   5.370  1.8854 -0.7000 -0.3694
  681MOL0     H91869   8.753   5.068   5.251 -2.2861  3.2176  1.1182
  681MOL0     H91870   8.922   5.095   5.153  2.7514  0.3183 -0.9179
  681MOL0     H91871   8.942   4.954   5.049 -3.6202 -1.3174  0.5506
  681MOL0     H91872   9.123   5.114   5.033 -1.3663 -2.4163  1.1251
  681MOL0     H91873   9.008   5.251   5.007  2.0637  1.1101 -0.2583
  681MOL0     H91874   8.944   5.158   4.786  0.2713 -5.1828 -1.8373
  681MOL0     H91875   9.040   5.016   4.817  1.6940 -1.5246  3.3860
  681MOL0     H91876   9.142   5.307   4.800 -0.7583 -0.6474  3.7533
  681MOL0     H91877   9.244   5.162   4.814  0.1366 -0.3368 -1.1423
  681MOL0     H91878   9.167   5.097   4.571  1.0857 -0.3934  1.8186
  681MOL0     H91879   9.065   5.234   4.565 -0.4513  2.2913  0.8934
  681MOL0     H91880   9.379   5.227   4.603  0.8639  0.9988 -1.9953
  681MOL0     H91881   9.295   5.275   4.454 -0.7931 -0.5441 -0.5181
  681MOL0     H91882   9.391   5.460   4.565 -0.9861  1.5255 -0.0108
  681MOL0     H91883   9.322   5.413   4.724  0.0641 -2.5124  0.5066
  681MOL0     H91884   9.096   5.464   4.611  1.5175 -2.5623  1.4819
  681MOL0     H91885   9.198   5.588   4.677  0.5846 -0.5449  0.3036
  681MOL0     H91886   9.375   5.699   4.461 -0.9638  2.3159  0.9182
  681MOL0     H91887   9.402   5.748   4.155  0.0844 -2.0730  1.0958
  681MOL0     H91888   9.239   5.766   4.099 -0.5313  1.5757 -0.3667
  681MOL0     H91889   9.297   5.959   4.328 -4.3052 -0.1788 -0.3158
  681MOL0     H91890   9.385   5.979   4.174  2.0333  0.2398  3.0249
  681MOL0     H91891   9.080   5.929   4.206  1.7953 -2.1447 -0.2012
  681MOL0     H91892   9.166   5.967   4.070 -0.5374 -1.0095  0.9620
  681MOL0     H91893   9.241   6.174   4.137 -0.6921 -1.0749 -0.6491
  681MOL0     H91894   9.161   6.172   4.294  2.9595 -1.6562  0.4130
  681MOL0     H91895   8.805   6.164   4.182  1.1095 -0.4721  2.0913
  681MOL0     H91896   8.659   6.347   4.279 -1.0475  2.1425 -0.7431
  681MOL0     H91897   8.700   6.969   4.137  1.2909  0.1576  1.2438
  681MOL0     H91898   8.534   7.122   4.198 -0.4051  0.1847  0.4595
  681MOL0     H91899   8.327   7.159   4.246 -1.5428 -0.5879 -0.5623
  681MOL0     H91900   8.223   7.185   4.380  0.2911 -1.7238  0.0472
  681MOL0     H91901   8.362   7.402   4.428  1.3205 -1.6511  1.3685
  681MOL0     H91902   8.434   7.386   4.277  0.4229 -1.3665  1.3457
  681MOL0     H91903   8.217   7.371   4.151  1.6968  0.5117 -0.6650
  681MOL0     H91904   8.127   7.393   4.307  0.3922  0.3780  0.2799
  681MOL0     H91905   8.325   7.596   4.188 -0.9929  2.3333 -1.9084
  681MOL0     H91906   8.252   7.603   4.349 -1.4176  2.1101  0.3323
  681MOL0     H91907   8.034   7.649   4.240 -0.1913 -1.8099 -0.0562
  681MOL0     H91908   8.114   7.622   4.070  1.0791  4.9743 -2.5999
  681MOL0     H91909   8.082   7.865   4.124 -1.0634 -0.1681  0.1284
  681MOL0     H91910   8.195   7.858   4.254 -1.7961 -0.1230  1.8256
  681MOL0     H91911   8.242   7.763   3.966 -0.5618 -2.4931  2.2909
  681MOL0     H91912   8.369   7.776   4.096  0.0412 -0.0262 -0.2616
  681MOL0     H91913   8.191   8.017   3.999  1.6992  3.0032  0.8697
  681MOL0     H91914   8.356   8.028   4.057  0.8854  0.0289 -1.7484
  681MOL0     H91915   8.538   6.993   4.600  1.8417  4.4096 -0.7918
  681MOL0     H91916   8.692   6.799   4.534  0.3835  1.5882  1.4177
  681MOL0     H91917   8.979   6.627   4.195 -1.0079  0.1913 -0.3453
  681MOL0     H91918   9.125   6.423   4.125 -0.1128 -2.6376 -0.9231
  681MOL0     H91919   8.574   4.974   4.875  0.7417  1.3554 -0.2611
  681MOL0     H91920   8.383   4.877   4.993 -0.4371  0.0788 -0.1150
  681MOL0     H91921   8.098   4.877   5.281 -0.2384  1.2358  2.2398
  681MOL0     H91922   7.892   4.820   5.348 -0.5641 -1.7310 -2.5812
  681MOL0     H91923   7.728   4.673   5.339 -1.2098  1.0917  0.1880
  681MOL0     H91924   7.630   4.668   5.476  0.3786  0.2826  0.7569
  681MOL0     H91925   7.792   4.427   5.376 -1.6061 -1.4241 -2.6479
  681MOL0     H91926   7.620   4.444   5.354  0.8250 -3.1026  0.1953
  681MOL0     H91927   7.607   4.474   5.609  3.4050  0.7551  4.2563
  681MOL0     H91928   7.765   4.413   5.614 -2.6343 -1.6174  2.7540
  681MOL0     H91929   7.614   4.251   5.670 -2.1908 -0.6426  0.2509
  681MOL0     H91930   7.537   4.262   5.507  1.4221 -0.1166 -0.8834
  681MOL0     H91931   7.843   4.013   5.405 -0.5818 -2.0797  2.6293
  681MOL0     H91932   8.060   4.494   5.584 -0.1938 -1.3621  0.2446
  681MOL0     H91933   8.362   4.548   5.579 -0.3306  2.6752 -2.4093
  681MOL0     H91934   8.259   4.407   5.564 -2.4557 -1.3718 -2.6412
  681MOL0     H91935   8.371   4.445   5.433  0.5614 -1.3518  1.0628
  682MOL0     O91936  10.173   5.258   2.583  0.5889 -0.4758  0.5882
  682MOL0     C91937  10.173   5.346   2.496 -1.5078 -0.4632 -0.7084
  682MOL0     O91938  10.154   5.487   2.519 -0.5977 -0.0881  0.0843
  682MOL0     C91939  10.132   5.543   2.639  1.4646 -0.2260 -0.4401
  682MOL0     C91940  10.202   5.505   2.754 -0.1426  0.4382 -0.0015
  682MOL0     C91941  10.177   5.575   2.876 -0.6830 -0.0965 -0.0785
  682MOL0     C91942  10.088   5.677   2.890  0.6344 -0.3731 -0.4405
  682MOL0     O91943  10.068   5.728   3.012  0.3906 -1.0833  0.5425
  682MOL0     C91944  10.003   5.866   3.010 -1.1442  0.2646  0.6862
  682MOL0     C91945  10.087   5.952   3.111  0.0589  0.6800  0.1190
  682MOL0     C91946  10.241   5.932   3.091  0.3127  0.6085 -1.0537
  682MOL0     C91947  10.315   6.039   3.165 -0.8692 -0.5594 -0.6135
  682MOL0     C91948  10.475   6.038   3.136  1.0018  0.2058  0.4380
  682MOL0     C91949  10.535   6.180   3.180 -0.0357 -0.1560  0.3326
  682MOL0     C91950  10.686   6.181   3.163 -0.5349  0.0686  0.4942
  682MOL0     C91951  10.750   6.093   3.272 -0.3686  0.1710  1.1777
  682MOL0     N91952  10.887   6.119   3.296 -0.6070 -0.0373 -0.8422
  682MOL0     C91953  10.997   6.106   3.210  0.0430  0.2419  0.2092
  682MOL0     C91954  11.107   6.133   3.285  0.8499 -1.2339 -0.2665
  682MOL0     C91955  11.251   6.138   3.242 -0.0117 -0.3194 -1.0091
  682MOL0     C91956  11.319   6.014   3.308  0.1474  0.2163 -0.4642
  682MOL0     C91957  11.380   6.044   3.452  0.5755  0.2783  0.2791
  682MOL0     C91958  11.502   6.129   3.449 -0.2065  0.1543 -0.4873
  682MOL0     O91959  11.575   6.083   3.331 -0.2027 -0.7385 -0.9270
  682MOL0     C91960  11.702   6.147   3.317  0.6784  0.2143 -0.5395
  682MOL0     C91961  11.714   6.200   3.193  0.0546 -0.1264  0.1439
  682MOL0     C91962  11.821   6.281   3.167  0.1602 -0.6086 -0.7554
  682MOL0     C91963  11.916   6.332   3.270  0.6162  0.4413 -0.3305
  682MOL0     C91964  12.020   6.435   3.254 -0.9906  0.1080 -0.4903
  682MOL0     O91965  12.092   6.484   3.366 -1.0722 -0.0233  0.4931
  682MOL0     C91966  12.203   6.573   3.355  1.5898  0.4745 -0.8894
  682MOL0     C91967  12.271   6.617   3.239  1.3070 -0.3048  0.1338
  682MOL0     C91968  12.360   6.725   3.253  0.5828 -0.5715 -0.4760
  682MOL0     C91969  12.392   6.776   3.377 -0.3586 -0.5642 -0.1913
  682MOL0     O91970  12.492   6.881   3.377  0.2221 -1.1482  0.3347
  682MOL0     C91971  12.532   6.932   3.502  0.3665 -0.0508 -0.2601
  682MOL0     C91972  12.649   6.845   3.558  0.4059  0.3644 -0.4353
  682MOL0     C91973  12.645   6.853   3.713  0.1259  0.0748  0.4307
  682MOL0     C91974  12.771   6.793   3.774 -0.5273  0.1130 -0.1426
  682MOL0     C91975  12.761   6.784   3.925  0.2417 -0.0145  0.4470
  682MOL0     C91976  12.757   6.928   3.986 -0.6394  0.5827  0.5930
  682MOL0     C91977  12.773   6.953   4.147  0.8464 -0.2556  0.2030
  682MOL0     C91978  12.736   7.102   4.184  0.1475 -0.5280 -0.0375
  682MOL0    Cl91979  12.827   7.231   4.096  0.1789  0.0104 -0.5143
  682MOL0     C91980  12.333   6.710   3.491 -0.1620 -0.8203 -0.4967
  682MOL0     C91981  12.239   6.614   3.483  0.1260 -0.6664  0.0589
  682MOL0     O91982  12.046   6.475   3.141  0.2312 -0.6890  0.0052
  682MOL0     C91983  11.892   6.271   3.393 -0.7469 -0.3510  0.7465
  682MOL0     C91984  11.798   6.170   3.413  0.1006 -0.4505  0.9955
  682MOL0     N91985  11.059   6.166   3.411  0.1839  0.5315 -0.7800
  682MOL0     N91986  10.930   6.153   3.420  0.3273 -1.4391  0.2350
  682MOL0     C91987  10.017   5.712   2.768 -1.0000 -0.3497  0.0439
  682MOL0     C91988  10.043   5.647   2.648 -0.2762  0.5308 -0.1687
  682MOL0     C91989  10.192   5.297   2.365 -0.5233 -0.2101  1.5551
  682MOL0     C91990  10.235   5.377   2.257 -0.6228 -0.2563 -0.7025
  682MOL0     C91991  10.264   5.342   2.126  0.0571 -0.9197  0.8347
  682MOL0     C91992  10.251   5.212   2.094  0.0123 -0.1658  0.0992
  682MOL0     O91993  10.266   5.166   1.968 -0.1442  0.1069  0.6830
  682MOL0     C91994  10.357   5.062   1.942  0.3545  0.1909 -0.4832
  682MOL0     C91995  10.471   5.136   1.886  0.5759  0.9520 -1.0181
  682MOL0     C91996  10.571   5.045   1.801 -0.0854 -0.0520 -0.5726
  682MOL0     C91997  10.643   5.124   1.698  0.8872 -0.8521 -0.6057
  682MOL0     C91998  10.723   5.031   1.621  0.0895  0.4166  0.5400
  682MOL0     C91999  10.792   4.946   1.562 -0.2666 -0.9856 -0.1289
  682MOL0     C92000  10.191   5.125   2.183 -1.0251 -0.2143 -0.7525
  682MOL0     C92001  10.170   5.161   2.326 -0.4706  1.0350  0.8327
  682MOL0     C92002  10.111   5.055   2.417 -0.3262 -0.2967  0.1436
  682MOL0     H92003  10.273   5.423   2.757  1.5236  1.7076 -2.1470
  682MOL0     H92004  10.228   5.540   2.966 -1.4394 -1.6994 -0.2435
  682MOL0     H92005  10.019   5.916   2.915  0.0738 -0.7986  0.3079
  682MOL0     H92006   9.899   5.851   3.040 -0.8156  0.0633  1.8040
  682MOL0     H92007  10.077   5.922   3.215  3.8217 -1.2794  0.1008
  682MOL0     H92008  10.057   6.057   3.120  1.9900  1.2288  0.8473
  682MOL0     H92009  10.260   5.923   2.983 -1.2133  0.6913 -1.3571
  682MOL0     H92010  10.276   5.840   3.138 -0.0680  0.4449 -1.0867
  682MOL0     H92011  10.271   6.137   3.145 -4.3704 -1.5595  1.4597
  682MOL0     H92012  10.299   6.019   3.271 -4.3360  2.4550 -0.3726
  682MOL0     H92013  10.517   5.960   3.199  0.8933  0.1975  0.5011
  682MOL0     H92014  10.490   6.014   3.030 -2.6642  1.4824 -0.5298
  682MOL0     H92015  10.495   6.261   3.119  1.6781 -1.1231 -2.2139
  682MOL0     H92016  10.521   6.186   3.289 -1.9633 -2.5219  0.2995
  682MOL0     H92017  10.721   6.284   3.172 -0.1195 -0.1037  0.8630
  682MOL0     H92018  10.710   6.142   3.064  1.0580  0.5638  0.6614
  682MOL0     H92019  10.700   6.102   3.369  1.5116 -2.4062  2.5263
  682MOL0     H92020  10.735   5.986   3.252  1.2362 -0.1296  1.4340
  682MOL0     H92021  10.985   6.050   3.117 -5.3171 -0.3172  0.9471
  682MOL0     H92022  11.242   6.144   3.133 -1.6954 -1.9722 -1.0183
  682MOL0     H92023  11.295   6.234   3.267 -0.2510  0.2282 -2.5658
  682MOL0     H92024  11.243   5.936   3.315  1.1348 -0.7010  0.3568
  682MOL0     H92025  11.394   5.981   3.235 -1.5514  0.9754 -2.6839
  682MOL0     H92026  11.403   5.947   3.497 -1.5099  0.1319  1.1241
  682MOL0     H92027  11.299   6.096   3.503 -0.8468  0.5943 -2.1653
  682MOL0     H92028  11.567   6.112   3.535 -0.8663 -0.2994 -0.0701
  682MOL0     H92029  11.476   6.235   3.450 -2.7690 -0.4212  0.2714
  682MOL0     H92030  11.634   6.194   3.120  0.3005  1.0447 -0.2492
  682MOL0     H92031  11.824   6.326   3.068  3.0909  1.2599  0.0269
  682MOL0     H92032  12.252   6.595   3.135 -1.6736  1.5718  0.1693
  682MOL0     H92033  12.408   6.761   3.163  0.8699 -1.8560 -0.8632
  682MOL0     H92034  12.557   7.037   3.485  2.1231  0.5501  4.4937
  682MOL0     H92035  12.446   6.937   3.570  0.5961  2.3038 -0.0688
  682MOL0     H92036  12.635   6.740   3.532 -2.2132 -0.3994  3.2663
  682MOL0     H92037  12.742   6.880   3.512  0.7086 -0.8607 -0.8072
  682MOL0     H92038  12.637   6.960   3.734  1.5751  0.2496  0.1732
  682MOL0     H92039  12.549   6.813   3.747 -0.8157  0.7056 -1.3138
  682MOL0     H92040  12.867   6.844   3.760  0.3242 -1.6841 -1.3113
  682MOL0     H92041  12.801   6.699   3.726 -0.4754  0.5100 -0.9071
  682MOL0     H92042  12.851   6.739   3.967 -0.3016 -1.9091 -0.3613
  682MOL0     H92043  12.670   6.737   3.964 -0.5798  1.5883  0.5761
  682MOL0     H92044  12.837   6.984   3.936 -1.2511  0.4872 -0.5038
  682MOL0     H92045  12.658   6.966   3.959 -1.4059 -1.6317  0.1088
  682MOL0     H92046  12.872   6.921   4.179 -0.3570 -3.4053  1.1431
  682MOL0     H92047  12.698   6.889   4.193  0.6524 -1.3487 -1.5463
  682MOL0     H92048  12.631   7.113   4.155  0.3974  1.1667 -0.3897
  682MOL0     H92049  12.758   7.127   4.289 -3.0274  2.5920  0.0984
  682MOL0     H92050  12.365   6.737   3.591 -2.0443 -0.0922 -0.0614
  682MOL0     H92051  12.187   6.579   3.571 -0.4758 -1.0216 -0.4306
  682MOL0     H92052  11.945   6.299   3.484  1.1146  2.2046 -0.9846
  682MOL0     H92053  11.797   6.114   3.506 -0.5538 -0.4816  0.9730
  682MOL0     H92054   9.939   5.787   2.776  0.6096  1.7493 -2.2546
  682MOL0     H92055   9.997   5.673   2.554 -0.2612  0.2023 -0.2681
  682MOL0     H92056  10.275   5.471   2.294  0.2987 -1.0391  0.3607
  682MOL0     H92057  10.294   5.425   2.063  2.4339 -1.0516  1.6804
  682MOL0     H92058  10.307   4.988   1.879  1.4056 -1.1507  0.2352
  682MOL0     H92059  10.375   5.002   2.031  2.7396 -1.8042 -2.1867
  682MOL0     H92060  10.534   5.195   1.953 -0.5092  1.0538 -0.0546
  682MOL0     H92061  10.426   5.207   1.816 -1.8663  1.0919  0.5710
  682MOL0     H92062  10.518   4.965   1.748 -2.4228  0.1132  1.3858
  682MOL0     H92063  10.648   4.999   1.864 -1.3215  1.2327  2.0453
  682MOL0     H92064  10.574   5.170   1.626 -1.7495 -0.4984  1.9581
  682MOL0     H92065  10.703   5.205   1.742 -0.1179 -1.1996  1.5157
  682MOL0     H92066  10.865   4.877   1.525  0.2507 -2.1503  2.7855
  682MOL0     H92067  10.174   5.021   2.156 -0.9899 -1.9404  4.5937
  682MOL0     H92068  10.018   5.091   2.460 -0.4560 -0.4517 -0.0064
  682MOL0     H92069  10.083   4.973   2.350 -1.8376 -0.8423  1.3922
  682MOL0     H92070  10.174   5.016   2.498  2.5424 -0.5441 -2.0431
  683MOL0     O92071   2.675  10.384   3.749  0.2176  0.4469  0.1601
  683MOL0     C92072   2.562  10.355   3.730  0.6827  0.3234 -0.3561
  683MOL0     O92073   2.503  10.230   3.757  0.1109  0.8118 -0.0409
  683MOL0     C92074   2.577  10.139   3.823 -0.4221 -0.2350 -0.2332
  683MOL0     C92075   2.574  10.146   3.960  0.6233  0.7458 -0.3606
  683MOL0     C92076   2.647  10.049   4.035  0.8597  0.3678  0.5775
  683MOL0     C92077   2.724   9.956   3.971 -0.8120  0.7205 -0.5223
  683MOL0     O92078   2.789   9.850   4.035 -0.3163 -0.0982 -0.3919
  683MOL0     C92079   2.895   9.886   4.126  0.5413 -0.4733 -0.1449
  683MOL0     C92080   3.027   9.917   4.066 -0.1465 -0.4727 -0.5563
  683MOL0     C92081   3.118   9.957   4.184  0.1734 -0.3095 -1.3964
  683MOL0     C92082   3.256  10.002   4.146  0.0393 -0.0088  1.0358
  683MOL0     C92083   3.324  10.070   4.263  0.7111  0.7192 -0.1383
  683MOL0     C92084   3.471  10.091   4.221 -0.8855  0.4682 -0.8994
  683MOL0     C92085   3.568   9.980   4.235 -0.4091  0.9047 -0.8534
  683MOL0     C92086   3.703  10.010   4.171  0.3315  0.8752 -0.3341
  683MOL0     N92087   3.768  10.124   4.225  0.5739  0.6835 -0.2270
  683MOL0     C92088   3.862  10.127   4.325  0.2581  0.0996  0.0400
  683MOL0     C92089   3.896  10.262   4.348  0.3087  0.1705 -0.8866
  683MOL0     C92090   3.987  10.310   4.455  0.3089  0.1889 -0.3577
  683MOL0     C92091   4.125  10.339   4.390  0.2993 -0.8562  0.8345
  683MOL0     C92092   4.219  10.386   4.511  0.8998 -0.3100  0.1695
  683MOL0     C92093   4.347  10.443   4.444  0.4704  0.3969  0.8923
  683MOL0     O92094   4.424  10.512   4.539 -0.2062  0.4587 -0.5655
  683MOL0     C92095   4.548  10.572   4.511  0.7172  0.4752  0.0752
  683MOL0     C92096   4.603  10.640   4.617 -0.2377  0.2302  0.0639
  683MOL0     C92097   4.714  10.719   4.592 -0.3256 -0.7213  0.8843
  683MOL0     C92098   4.767  10.734   4.459 -0.0405 -0.7348 -0.7856
  683MOL0     C92099   4.876  10.835   4.438 -1.0008  0.2731  0.2261
  683MOL0     O92100   4.884  10.935   4.526 -0.2225  0.0866 -0.5781
  683MOL0     C92101   4.975  11.045   4.515 -0.2140  0.0647  0.0707
  683MOL0     C92102   4.942  11.158   4.452  0.4613 -0.1239  0.4091
  683MOL0     C92103   5.019  11.268   4.439 -1.0471 -0.2919 -0.2544
  683MOL0     C92104   5.146  11.272   4.504 -0.0717  0.3572  0.2929
  683MOL0     O92105   5.233  11.374   4.512 -0.2784  0.8606 -0.4184
  683MOL0     C92106   5.258  11.451   4.393 -0.1884  0.3032 -0.2942
  683MOL0     C92107   5.347  11.579   4.424 -0.6916 -0.3282  0.4417
  683MOL0     C92108   5.473  11.546   4.493  0.1762 -0.5692 -0.4036
  683MOL0     C92109   5.476  11.558   4.643 -0.2976 -0.5558  0.0679
  683MOL0     C92110   5.620  11.566   4.709  0.2765  0.4363  0.3365
  683MOL0     C92111   5.621  11.558   4.862  0.1760  0.6767  0.3315
  683MOL0     C92112   5.572  11.425   4.928  0.5135 -0.5061  0.8183
  683MOL0     C92113   5.575  11.435   5.078 -0.4217  0.1243 -0.2915
  683MOL0    Cl92114   5.742  11.465   5.142  0.2334  0.1846  0.1206
  683MOL0     C92115   5.186  11.156   4.570  0.6403 -0.0514 -0.6768
  683MOL0     C92116   5.094  11.044   4.581  0.3305 -0.3165  0.1372
  683MOL0     O92117   4.964  10.808   4.357 -0.7140 -0.0619 -0.2346
  683MOL0     C92118   4.702  10.665   4.354 -0.5997  0.1358 -0.1925
  683MOL0     C92119   4.600  10.582   4.380  0.6122 -0.0223 -0.3645
  683MOL0     N92120   3.824  10.334   4.256 -0.1938 -1.1272 -0.0278
  683MOL0     N92121   3.761  10.253   4.179  0.7336  0.4063  0.5876
  683MOL0     C92122   2.732   9.957   3.832  0.8092 -0.2283 -1.0347
  683MOL0     C92123   2.666  10.053   3.763 -0.1567 -0.3253  0.9389
  683MOL0     C92124   2.486  10.470   3.661 -0.8545 -0.0058  0.3906
  683MOL0     C92125   2.369  10.449   3.585 -0.3049  0.4079  0.0812
  683MOL0     C92126   2.309  10.544   3.504  0.5876 -0.4653 -0.3711
  683MOL0     C92127   2.355  10.679   3.521  0.2715  0.6387 -0.1752
  683MOL0     O92128   2.284  10.784   3.471 -0.4428 -1.0118  0.7153
  683MOL0     C92129   2.166  10.759   3.392  0.0472 -1.0930 -0.4308
  683MOL0     C92130   2.083  10.881   3.347  0.2273  0.2747  0.2408
  683MOL0     C92131   2.025  10.955   3.474 -0.3571  1.1130 -0.7668
  683MOL0     C92132   1.920  10.870   3.538 -0.0038 -0.2595 -0.3825
  683MOL0     C92133   1.799  10.858   3.451  0.5849 -0.1940 -0.5648
  683MOL0     C92134   1.710  10.837   3.374  0.2823 -0.4742 -0.0217
  683MOL0     C92135   2.461  10.704   3.605  0.6876 -0.6075 -0.7745
  683MOL0     C92136   2.534  10.609   3.671  0.4878  0.1673  0.9608
  683MOL0     C92137   2.646  10.659   3.766  0.4466  0.1582  0.3417
  683MOL0     H92138   2.512  10.218   4.012  0.3239  2.5435 -3.0320
  683MOL0     H92139   2.635  10.035   4.142  1.9111  0.5684  0.7335
  683MOL0     H92140   2.872   9.959   4.204  2.0459  2.0185 -1.8960
  683MOL0     H92141   2.912   9.788   4.172 -1.5315 -1.2565 -0.9312
  683MOL0     H92142   3.008   9.998   3.995  0.5494  0.8206  0.6633
  683MOL0     H92143   3.075   9.842   4.003 -0.2580 -1.7768  0.8408
  683MOL0     H92144   3.112   9.876   4.257 -1.3565  0.9023 -0.0737
  683MOL0     H92145   3.069  10.037   4.241 -0.1574 -1.2503 -0.3183
  683MOL0     H92146   3.315   9.916   4.114 -1.0820 -0.5635  0.3808
  683MOL0     H92147   3.239  10.068   4.060 -1.7903 -1.6215  0.0707
  683MOL0     H92148   3.268  10.159   4.291  0.5612  0.0157  2.0069
  683MOL0     H92149   3.323  10.011   4.356  0.4689  0.2600 -0.4259
  683MOL0     H92150   3.471  10.133   4.120 -1.7493 -3.4339 -2.7218
  683MOL0     H92151   3.508  10.173   4.282 -0.6777 -1.0361  1.0882
  683MOL0     H92152   3.532   9.896   4.174  3.1648 -0.1352 -1.7691
  683MOL0     H92153   3.580   9.945   4.337  1.5347 -1.5064 -1.8114
  683MOL0     H92154   3.762   9.917   4.176  1.4483  1.5740 -0.1526
  683MOL0     H92155   3.685  10.033   4.066 -1.8981 -2.5155 -0.8439
  683MOL0     H92156   3.888  10.039   4.382 -0.1994 -1.1325 -1.5788
  683MOL0     H92157   3.937  10.399   4.495 -1.1318 -0.9665  0.5178
  683MOL0     H92158   4.001  10.239   4.537 -2.1388  0.4776  0.3936
  683MOL0     H92159   4.167  10.254   4.335  2.2153  0.5495  0.0111
  683MOL0     H92160   4.118  10.422   4.318 -1.6250  0.1497  2.0873
  683MOL0     H92161   4.244  10.297   4.570  2.4462 -0.5265 -0.7596
  683MOL0     H92162   4.176  10.462   4.576  3.5951 -0.3374  2.1441
  683MOL0     H92163   4.326  10.507   4.358 -2.7481 -3.0965 -1.2744
  683MOL0     H92164   4.411  10.361   4.410 -0.7654  0.1120 -0.8845
  683MOL0     H92165   4.548  10.643   4.711 -0.7089  1.6131 -0.2288
  683MOL0     H92166   4.764  10.768   4.675  1.5003 -1.4635  0.2722
  683MOL0     H92167   4.839  11.175   4.425  0.1580  1.8551  2.4284
  683MOL0     H92168   4.986  11.358   4.388  0.5595 -0.7767 -2.2542
  683MOL0     H92169   5.298  11.380   4.321 -1.7923 -3.7850  2.4737
  683MOL0     H92170   5.163  11.486   4.352  0.0739  0.3202 -0.8884
  683MOL0     H92171   5.372  11.617   4.325  1.7227  2.3791  1.9212
  683MOL0     H92172   5.286  11.654   4.475 -0.8075 -0.5354  0.6124
  683MOL0     H92173   5.493  11.441   4.474 -2.0378 -1.1092  0.0009
  683MOL0     H92174   5.556  11.605   4.452  0.8776 -0.0262  1.6403
  683MOL0     H92175   5.421  11.476   4.690 -1.5573  0.8142  1.0732
  683MOL0     H92176   5.433  11.656   4.661 -0.6167 -0.6374 -0.2461
  683MOL0     H92177   5.664  11.663   4.686  3.1431 -0.6282  0.9180
  683MOL0     H92178   5.690  11.490   4.673  1.1349  0.0666  2.5867
  683MOL0     H92179   5.724  11.586   4.885  0.6434  1.3959 -2.3450
  683MOL0     H92180   5.552  11.637   4.895  0.4688  1.3001 -0.5053
  683MOL0     H92181   5.630  11.338   4.894 -1.8748 -1.1586 -1.9544
  683MOL0     H92182   5.469  11.395   4.904  1.8146 -3.1361 -2.3052
  683MOL0     H92183   5.505  11.512   5.110 -1.2529 -1.1324  1.0906
  683MOL0     H92184   5.547  11.336   5.116  0.5701 -0.5549 -1.2556
  683MOL0     H92185   5.282  11.149   4.620  0.1139 -2.2720  0.1448
  683MOL0     H92186   5.126  10.962   4.644 -0.1373  0.9323  2.0874
  683MOL0     H92187   4.714  10.686   4.248  1.9089 -0.0324  0.0065
  683MOL0     H92188   4.535  10.530   4.311  1.5105 -2.0188  0.2016
  683MOL0     H92189   2.782   9.868   3.794  1.7844 -0.1213 -0.0465
  683MOL0     H92190   2.674  10.063   3.655  2.1526  0.6268  1.1358
  683MOL0     H92191   2.320  10.352   3.580  0.8754 -0.1947 -0.2782
  683MOL0     H92192   2.231  10.518   3.433  0.5891  2.1721 -1.4433
  683MOL0     H92193   2.098  10.691   3.444  0.5616 -0.1143  1.6210
  683MOL0     H92194   2.189  10.704   3.300 -1.4730 -0.2719 -1.3538
  683MOL0     H92195   2.003  10.853   3.278  1.9691  3.0865 -3.2058
  683MOL0     H92196   2.132  10.963   3.295  0.9576 -0.5451 -0.3985
  683MOL0     H92197   1.987  11.057   3.461  1.8256  2.0307 -0.3356
  683MOL0     H92198   2.112  10.965   3.539  0.0673  1.7477 -1.4285
  683MOL0     H92199   1.956  10.769   3.562 -3.3935 -1.3720  0.8055
  683MOL0     H92200   1.889  10.914   3.634 -2.7123  0.4906 -1.5045
  683MOL0     H92201   1.642  10.838   3.291  0.1352 -1.3202  0.0750
  683MOL0     H92202   2.489  10.809   3.613 -0.6304 -0.1052 -2.0458
  683MOL0     H92203   2.744  10.626   3.732 -0.9329 -1.9755 -1.9469
  683MOL0     H92204   2.629  10.766   3.778  0.1872 -0.1615  3.7223
  683MOL0     H92205   2.634  10.623   3.869  2.8658 -1.0704  0.2550
  684MOL0     O92206  10.771   0.904   6.012  0.7551  0.2063  1.0051
  684MOL0     C92207  10.713   1.016   6.030 -0.4195  0.0062 -0.0455
  684MOL0     O92208  10.777   1.125   6.080 -0.3395  0.0599 -0.6098
  684MOL0     C92209  10.906   1.122   6.117 -0.3245  0.4468 -0.5581
  684MOL0     C92210  10.993   1.216   6.058  0.1730 -0.1850  0.5658
  684MOL0     C92211  11.129   1.225   6.096 -0.3747 -1.2835  1.0620
  684MOL0     C92212  11.171   1.141   6.195  0.0911  0.2681 -0.3421
  684MOL0     O92213  11.299   1.133   6.241 -0.1791  0.8561  0.3817
  684MOL0     C92214  11.374   1.248   6.271 -0.0423  0.6133  0.9225
  684MOL0     C92215  11.466   1.241   6.390  0.5278  1.0286 -0.4282
  684MOL0     C92216  11.611   1.250   6.344 -1.0642 -0.0796 -0.0367
  684MOL0     C92217  11.658   1.391   6.288  0.2407 -0.0308  0.6570
  684MOL0     C92218  11.815   1.413   6.295 -0.4438 -0.2548  0.0471
  684MOL0     C92219  11.863   1.542   6.231 -0.7472 -0.2989  0.2411
  684MOL0     C92220  12.007   1.522   6.180 -0.0765 -0.2882 -0.2468
  684MOL0     C92221  12.074   1.663   6.135  0.3273  1.4239 -0.3643
  684MOL0     N92222  12.207   1.642   6.078 -0.3486 -0.3012 -0.8020
  684MOL0     C92223  12.285   1.745   6.040  0.4683  0.2507  0.3448
  684MOL0     C92224  12.409   1.693   6.046 -0.0649  0.3739 -0.4220
  684MOL0     C92225  12.546   1.757   6.028 -0.7846 -0.3941 -0.4652
  684MOL0     C92226  12.596   1.832   6.149  0.6266 -0.9276 -0.6793
  684MOL0     C92227  12.585   1.749   6.277  0.5176  0.0079  0.9445
  684MOL0     C92228  12.656   1.813   6.395  0.2036 -0.2637  1.3961
  684MOL0     O92229  12.599   1.939   6.424 -0.6008  0.5324  0.2276
  684MOL0     C92230  12.669   2.009   6.529  0.0987  0.2358  0.1213
  684MOL0     C92231  12.622   2.129   6.582  0.2131  0.8228 -0.0551
  684MOL0     C92232  12.706   2.201   6.684  0.0378 -0.4378 -0.7842
  684MOL0     C92233  12.828   2.150   6.725  0.1392 -0.7422 -0.3900
  684MOL0     C92234  12.914   2.219   6.830 -0.1948 -0.7679  0.1340
  684MOL0     O92235  12.859   2.317   6.906  0.8832 -0.0507  0.5088
  684MOL0     C92236  12.929   2.368   7.011  0.5336  0.1719 -0.5436
  684MOL0     C92237  13.021   2.461   6.967 -0.2693  0.1514  0.6050
  684MOL0     C92238  13.106   2.528   7.060  0.8885 -0.0069  0.1049
  684MOL0     C92239  13.098   2.508   7.193  0.7480  0.7196 -0.2569
  684MOL0     O92240  13.183   2.564   7.283 -0.3946 -0.2780  0.5515
  684MOL0     C92241  13.152   2.690   7.325  0.2821  0.8119  0.3849
  684MOL0     C92242  13.227   2.797   7.244 -0.3197 -0.6531 -0.2822
  684MOL0     C92243  13.185   2.933   7.310  0.9856 -0.7609  1.2754
  684MOL0     C92244  13.208   3.056   7.208  0.0160 -0.0573  0.2225
  684MOL0     C92245  13.142   3.179   7.253 -0.2413  0.1914 -0.1420
  684MOL0     C92246  13.193   3.232   7.375  0.1973  0.4384 -0.2180
  684MOL0     C92247  13.343   3.224   7.430  0.4762  0.4108 -0.6379
  684MOL0     C92248  13.348   3.306   7.564  0.3466  1.0270  0.3814
  684MOL0    Cl92249  13.264   3.211   7.684 -0.1569  0.8258  0.0437
  684MOL0     C92250  12.996   2.413   7.242  0.5361 -0.1665  0.5382
  684MOL0     C92251  12.919   2.339   7.147 -0.7321 -0.5574 -0.3170
  684MOL0     O92252  13.030   2.188   6.834 -0.2540 -0.2173 -0.4502
  684MOL0     C92253  12.878   2.033   6.664 -0.7338 -0.1864  0.5724
  684MOL0     C92254  12.798   1.970   6.574  0.1677  0.9048 -0.2106
  684MOL0     N92255  12.402   1.561   6.076 -0.6822 -0.0774 -0.5025
  684MOL0     N92256  12.283   1.529   6.104 -0.3186  0.7114 -0.0629
  684MOL0     C92257  11.086   1.036   6.242  0.2361 -0.5005 -0.3356
  684MOL0     C92258  10.955   1.026   6.201 -0.1932  0.1063  0.4824
  684MOL0     C92259  10.574   1.042   5.991 -0.1746  0.2421  0.4613
  684MOL0     C92260  10.503   1.129   6.065  0.9598 -1.0986 -0.7155
  684MOL0     C92261  10.376   1.170   6.023  0.0774 -0.7104 -0.4274
  684MOL0     C92262  10.316   1.123   5.906  0.5776 -0.4758  0.6677
  684MOL0     O92263  10.199   1.184   5.859 -0.4148 -0.1370  0.5877
  684MOL0     C92264  10.140   1.129   5.738 -0.1035 -0.3530 -0.0402
  684MOL0     C92265  10.014   1.207   5.714  0.6580  0.5635  0.2092
  684MOL0     C92266   9.973   1.199   5.563 -0.5013  0.4462 -0.2765
  684MOL0     C92267   9.893   1.071   5.538  0.4197  0.2909  0.0180
  684MOL0     C92268   9.758   1.100   5.588 -0.4106 -0.1142 -0.6984
  684MOL0     C92269   9.661   1.140   5.636  0.2393  0.9176  0.2026
  684MOL0     C92270  10.389   1.024   5.837  0.5061 -0.3143 -0.7239
  684MOL0     C92271  10.526   0.990   5.869 -0.0676 -0.1186  0.9978
  684MOL0     C92272  10.592   0.883   5.786  0.6654  0.0039  0.6244
  684MOL0     H92273  10.953   1.287   5.985 -2.2172 -0.6641  1.3158
  684MOL0     H92274  11.195   1.295   6.046  1.0727 -1.9039  2.0199
  684MOL0     H92275  11.431   1.265   6.180  0.0670 -0.1707  0.8341
  684MOL0     H92276  11.300   1.327   6.285 -1.1451 -0.6208  2.5447
  684MOL0     H92277  11.452   1.151   6.450 -1.4283  1.4916 -0.1288
  684MOL0     H92278  11.440   1.329   6.450 -1.5960 -0.4770  1.0400
  684MOL0     H92279  11.628   1.178   6.263 -0.4771  2.0308 -1.9130
  684MOL0     H92280  11.678   1.229   6.428 -1.7872 -3.4072 -0.1814
  684MOL0     H92281  11.622   1.414   6.188 -1.9562 -1.4591  1.0370
  684MOL0     H92282  11.615   1.468   6.353 -0.1970  0.2791 -0.0001
  684MOL0     H92283  11.844   1.426   6.399  1.3457 -2.7120 -0.0682
  684MOL0     H92284  11.870   1.325   6.259 -2.6274 -3.1144  3.0845
  684MOL0     H92285  11.799   1.584   6.153  0.7676  3.2123  0.7200
  684MOL0     H92286  11.874   1.623   6.304 -0.0503  1.5633 -1.8292
  684MOL0     H92287  12.021   1.435   6.115  4.1996 -0.0257  0.0318
  684MOL0     H92288  12.062   1.499   6.272  2.6194  0.8805 -1.4630
  684MOL0     H92289  12.019   1.712   6.054 -0.4949  0.6235 -0.3004
  684MOL0     H92290  12.065   1.721   6.228 -3.2011  1.0489 -0.3189
  684MOL0     H92291  12.248   1.847   6.028 -2.4597 -0.8734 -1.1285
  684MOL0     H92292  12.620   1.679   6.007 -0.9862 -0.3294 -1.4535
  684MOL0     H92293  12.548   1.825   5.942 -0.1758 -0.1947 -0.2991
  684MOL0     H92294  12.701   1.859   6.137  0.4144 -0.0632 -0.6631
  684MOL0     H92295  12.543   1.927   6.158 -0.0666 -1.2812 -0.9018
  684MOL0     H92296  12.630   1.650   6.262 -0.7646 -0.2994 -1.4454
  684MOL0     H92297  12.478   1.734   6.292 -0.5853  4.6385 -0.5278
  684MOL0     H92298  12.758   1.821   6.357 -0.6044 -1.3626 -1.2092
  684MOL0     H92299  12.650   1.745   6.481 -0.0873  0.6638  2.1278
  684MOL0     H92300  12.530   2.168   6.539 -0.2818 -1.0307 -0.7999
  684MOL0     H92301  12.664   2.289   6.730 -1.5987 -2.0200  0.9181
  684MOL0     H92302  13.052   2.468   6.863 -1.0019 -2.9095  0.0758
  684MOL0     H92303  13.186   2.593   7.027 -0.9707  1.1642 -2.4706
  684MOL0     H92304  13.046   2.715   7.308  0.5579  1.5359 -0.3221
  684MOL0     H92305  13.166   2.703   7.432  0.9645  1.0764  0.2646
  684MOL0     H92306  13.334   2.776   7.248 -0.2422 -0.1211  0.9844
  684MOL0     H92307  13.205   2.791   7.137  1.2073  0.2695 -0.6688
  684MOL0     H92308  13.084   2.922   7.350  1.4305 -0.2344  2.6217
  684MOL0     H92309  13.238   2.950   7.405 -0.6528 -0.1487  2.1194
  684MOL0     H92310  13.164   3.030   7.112 -3.1065  1.9515  0.9552
  684MOL0     H92311  13.315   3.076   7.195 -0.1484  3.8806  2.8451
  684MOL0     H92312  13.034   3.164   7.257 -0.1057 -1.2302 -1.1507
  684MOL0     H92313  13.162   3.260   7.182  1.7763  0.4843  0.6977
  684MOL0     H92314  13.168   3.338   7.383  0.3942  0.3458  2.0618
  684MOL0     H92315  13.133   3.197   7.459 -1.2868  0.9737 -1.0236
  684MOL0     H92316  13.408   3.266   7.353  0.3260  0.8106 -0.5457
  684MOL0     H92317  13.387   3.127   7.457  0.5526  1.0451  1.7660
  684MOL0     H92318  13.455   3.313   7.587  0.8021 -2.6927  0.0562
  684MOL0     H92319  13.308   3.407   7.570  0.7640  1.1608  0.9644
  684MOL0     H92320  12.987   2.391   7.348 -2.9539 -0.4290  0.3222
  684MOL0     H92321  12.850   2.265   7.187 -1.7518 -0.9685 -2.6640
  684MOL0     H92322  12.980   2.003   6.683 -1.3540 -1.5611  1.9720
  684MOL0     H92323  12.847   1.881   6.536  1.0179 -0.0735  2.8927
  684MOL0     H92324  11.127   0.963   6.310  2.8536  1.2958  0.1537
  684MOL0     H92325  10.882   0.959   6.247 -1.7192  1.0348 -0.4855
  684MOL0     H92326  10.543   1.179   6.153 -0.7363 -2.1869  0.7461
  684MOL0     H92327  10.312   1.227   6.088 -0.2709 -0.1309 -1.2721
  684MOL0     H92328  10.114   1.024   5.748 -0.3630 -0.4639 -1.5765
  684MOL0     H92329  10.204   1.141   5.650 -0.2427 -2.3336 -0.4587
  684MOL0     H92330  10.034   1.312   5.739  0.7366  0.8469 -0.9946
  684MOL0     H92331   9.935   1.179   5.783  0.7532  1.4180  0.6702
  684MOL0     H92332  10.064   1.200   5.502  1.1123  1.8622  2.0060
  684MOL0     H92333   9.911   1.283   5.531  1.5298  0.9210 -3.3303
  684MOL0     H92334   9.881   1.056   5.431 -2.6754 -0.7956  0.4210
  684MOL0     H92335   9.926   0.976   5.582  0.8155  0.9460  1.2073
  684MOL0     H92336   9.564   1.165   5.674 -1.9548 -2.6521 -2.4579
  684MOL0     H92337  10.359   1.003   5.734  2.9396  0.7771 -1.7365
  684MOL0     H92338  10.555   0.879   5.683  4.7416  0.6001 -1.0401
  684MOL0     H92339  10.701   0.887   5.781  0.6013  0.4673 -2.9528
  684MOL0     H92340  10.558   0.794   5.840  0.5515  1.0334  2.3514
  685MOL0     O92341   4.011   3.224   9.538 -0.0385 -0.1974  0.3268
  685MOL0     C92342   3.895   3.267   9.541  0.9301 -0.3076 -0.0109
  685MOL0     O92343   3.793   3.226   9.462  0.1911 -0.2176 -0.0721
  685MOL0     C92344   3.820   3.190   9.335 -0.0169 -0.0879 -0.5614
  685MOL0     C92345   3.882   3.061   9.311  0.5882 -0.2179 -0.1915
  685MOL0     C92346   3.905   3.003   9.185 -0.0905  0.4887 -0.3323
  685MOL0     C92347   3.872   3.080   9.072 -0.1932  0.0637  0.0327
  685MOL0     O92348   3.873   3.043   8.941  0.2324  0.1626 -0.5201
  685MOL0     C92349   3.878   2.899   8.915 -0.6806  0.4595  0.3406
  685MOL0     C92350   3.940   2.885   8.784  0.9269 -0.5384  0.3283
  685MOL0     C92351   4.091   2.911   8.772 -0.1798 -0.3098 -0.3469
  685MOL0     C92352   4.167   2.778   8.784 -0.5358  0.0991 -0.2184
  685MOL0     C92353   4.320   2.792   8.772  0.7440 -0.1456  0.7742
  685MOL0     C92354   4.392   2.677   8.709 -0.0475  0.1212 -0.0963
  685MOL0     C92355   4.544   2.688   8.725  0.1324 -0.0740 -0.2282
  685MOL0     C92356   4.604   2.790   8.618  1.0915 -0.2821 -0.6111
  685MOL0     N92357   4.591   2.934   8.658 -0.6010 -0.1388 -0.4611
  685MOL0     C92358   4.628   2.979   8.782  0.2857 -0.3575  0.0635
  685MOL0     C92359   4.607   3.116   8.779 -0.0461 -0.2384 -0.3022
  685MOL0     C92360   4.647   3.207   8.903 -0.1057  0.0850 -0.2524
  685MOL0     C92361   4.787   3.265   8.869 -0.4110 -0.2880 -0.1224
  685MOL0     C92362   4.767   3.370   8.761  0.6036  0.3656 -0.2024
  685MOL0     C92363   4.896   3.448   8.722  0.0138  0.1717  0.1105
  685MOL0     O92364   4.923   3.410   8.582  0.4292 -0.5092 -0.3889
  685MOL0     C92365   5.051   3.416   8.536 -0.0797 -0.2507  0.2247
  685MOL0     C92366   5.160   3.479   8.600 -0.1646  0.1230 -0.3043
  685MOL0     C92367   5.294   3.454   8.567 -0.0448 -0.5913 -0.2214
  685MOL0     C92368   5.332   3.372   8.459 -0.0108 -0.3475 -1.1662
  685MOL0     C92369   5.477   3.358   8.425  0.1988  0.3395  0.1136
  685MOL0     O92370   5.575   3.411   8.509  0.2433  0.4112  0.1552
  685MOL0     C92371   5.708   3.392   8.480 -0.1185 -0.1250  0.8358
  685MOL0     C92372   5.780   3.307   8.560 -0.0999 -0.3605 -0.3473
  685MOL0     C92373   5.920   3.297   8.549  0.1716 -0.0900  0.8877
  685MOL0     C92374   5.991   3.354   8.437 -0.4979 -0.9067  0.4606
  685MOL0     O92375   6.126   3.344   8.429 -0.5514 -0.2674 -0.0138
  685MOL0     C92376   6.196   3.306   8.310 -0.4883 -0.0707  0.8336
  685MOL0     C92377   6.185   3.155   8.282 -0.3627  0.7323 -0.7914
  685MOL0     C92378   6.231   3.112   8.142 -0.0597  0.3903 -0.1463
  685MOL0     C92379   6.379   3.077   8.138  0.8918  0.0391 -0.1427
  685MOL0     C92380   6.463   3.211   8.108  0.2511  0.5347 -0.9577
  685MOL0     C92381   6.587   3.185   8.022 -0.1102 -0.1810 -0.8072
  685MOL0     C92382   6.684   3.078   8.077 -0.1249 -1.3537  0.4576
  685MOL0     C92383   6.757   3.107   8.204 -0.3390 -0.2251 -1.0782
  685MOL0    Cl92384   6.652   3.074   8.346 -0.0812 -0.0754  0.1614
  685MOL0     C92385   5.915   3.441   8.352 -0.6253  0.7154  0.5237
  685MOL0     C92386   5.774   3.458   8.375 -0.7136  0.5337  0.5058
  685MOL0     O92387   5.502   3.294   8.324  0.2287  0.4643  0.4072
  685MOL0     C92388   5.227   3.316   8.382 -0.5945 -0.0261 -0.2957
  685MOL0     C92389   5.087   3.335   8.418 -0.1026 -0.5873 -0.2928
  685MOL0     N92390   4.550   3.143   8.650 -0.3770  0.3058  0.0971
  685MOL0     N92391   4.535   3.033   8.593 -0.0061 -0.0284  1.4514
  685MOL0     C92392   3.829   3.218   9.087 -0.1324  1.5181  0.6214
  685MOL0     C92393   3.800   3.270   9.217  0.0319  0.7462  0.0584
  685MOL0     C92394   3.842   3.382   9.626 -0.2077  0.2228 -0.4630
  685MOL0     C92395   3.706   3.398   9.654  0.0584 -0.8203 -0.3463
  685MOL0     C92396   3.654   3.509   9.740 -0.0342  0.1402  0.4037
  685MOL0     C92397   3.751   3.603   9.782 -0.4308  0.0574  0.0602
  685MOL0     O92398   3.719   3.723   9.834  0.3258  0.2609 -0.1132
  685MOL0     C92399   3.593   3.731   9.898  0.0074 -0.7427 -0.5103
  685MOL0     C92400   3.592   3.854   9.986  0.0857 -0.0679 -0.4479
  685MOL0     C92401   3.692   3.854  10.106  0.1294  0.3214  0.8295
  685MOL0     C92402   3.657   3.976  10.199 -0.2711  0.4017  0.3002
  685MOL0     C92403   3.680   4.103  10.127 -0.4199  0.9584  0.9729
  685MOL0     C92404   3.703   4.206  10.059 -0.6554 -0.2808 -0.3373
  685MOL0     C92405   3.886   3.576   9.764  0.6583  0.3776  0.5880
  685MOL0     C92406   3.930   3.466   9.693 -0.0004 -0.8198 -0.9625
  685MOL0     C92407   4.082   3.459   9.694 -0.3982  0.1594  0.1522
  685MOL0     H92408   3.900   3.009   9.404 -0.5481 -0.8437 -0.2973
  685MOL0     H92409   3.932   2.898   9.175 -1.1387 -0.1267  2.3527
  685MOL0     H92410   3.951   2.852   8.981  1.7022  1.3068 -1.5192
  685MOL0     H92411   3.787   2.839   8.915 -0.3605 -0.0793  1.9557
  685MOL0     H92412   3.879   2.959   8.731  0.7357 -0.0241  1.2354
  685MOL0     H92413   3.915   2.785   8.748 -0.7814 -0.5569  1.4521
  685MOL0     H92414   4.134   2.974   8.851 -0.2285 -1.4722  0.6323
  685MOL0     H92415   4.113   2.953   8.673 -0.5156  0.6383 -0.0371
  685MOL0     H92416   4.157   2.732   8.883  1.0882  0.0366 -0.0635
  685MOL0     H92417   4.130   2.711   8.705 -0.8649 -1.7529  1.4264
  685MOL0     H92418   4.328   2.885   8.715 -3.3542 -1.4227 -2.3753
  685MOL0     H92419   4.359   2.808   8.874 -0.1734 -0.9062  1.2649
  685MOL0     H92420   4.361   2.589   8.767  0.6666  2.0522  3.5528
  685MOL0     H92421   4.366   2.678   8.603  1.9481  3.8666 -0.7348
  685MOL0     H92422   4.584   2.591   8.696  0.8039  0.9070 -2.8234
  685MOL0     H92423   4.570   2.707   8.830  0.7694 -3.0916  0.2318
  685MOL0     H92424   4.713   2.781   8.621  1.1814  0.5833 -1.0493
  685MOL0     H92425   4.570   2.773   8.515 -0.1320 -2.9721  0.1388
  685MOL0     H92426   4.684   2.923   8.857  1.6321  1.1002  0.1929
  685MOL0     H92427   4.573   3.287   8.911 -0.5382 -0.5502  4.9316
  685MOL0     H92428   4.649   3.150   8.996 -2.7686  0.5922  0.1847
  685MOL0     H92429   4.824   3.306   8.964 -4.6715  1.5467  0.9640
  685MOL0     H92430   4.851   3.189   8.825  0.6995 -0.6006  1.8877
  685MOL0     H92431   4.701   3.444   8.806 -3.3448 -2.2092 -1.2705
  685MOL0     H92432   4.705   3.328   8.681 -2.6105  0.1247  2.2230
  685MOL0     H92433   4.967   3.413   8.797  2.6247 -0.7898 -2.6032
  685MOL0     H92434   4.883   3.556   8.730  0.2778  0.2236 -0.1317
  685MOL0     H92435   5.135   3.540   8.686 -3.2146 -1.9473  0.4624
  685MOL0     H92436   5.373   3.501   8.624 -0.5403 -0.2028  0.1447
  685MOL0     H92437   5.730   3.252   8.639  0.5444 -2.6585 -1.4643
  685MOL0     H92438   5.973   3.227   8.612  1.2329 -1.6804 -1.5954
  685MOL0     H92439   6.171   3.377   8.230 -1.4977  2.1104  2.9443
  685MOL0     H92440   6.299   3.337   8.332 -0.5016  1.6989 -1.2289
  685MOL0     H92441   6.220   3.091   8.364  0.1158 -1.4772 -2.6207
  685MOL0     H92442   6.076   3.143   8.282 -0.5388  1.1729  2.7938
  685MOL0     H92443   6.170   3.025   8.117 -2.2849  1.8695 -0.1833
  685MOL0     H92444   6.209   3.193   8.071 -1.0693 -0.7882 -1.2238
  685MOL0     H92445   6.396   3.009   8.054  3.1284  1.7583 -1.1955
  685MOL0     H92446   6.409   3.020   8.226  0.9947 -0.5944 -0.5811
  685MOL0     H92447   6.494   3.263   8.200  2.5062 -3.3984  0.7806
  685MOL0     H92448   6.405   3.280   8.046 -1.2083  0.8411  0.6740
  685MOL0     H92449   6.546   3.158   7.924 -0.2357  2.2021 -1.4792
  685MOL0     H92450   6.632   3.284   8.012  0.2625  0.0760  2.3763
  685MOL0     H92451   6.767   3.073   8.006 -0.3943  1.0777 -0.1440
  685MOL0     H92452   6.630   2.983   8.073 -1.1738 -0.7442 -0.9679
  685MOL0     H92453   6.844   3.041   8.202 -0.0358  0.1113 -3.8975
  685MOL0     H92454   6.792   3.210   8.204  0.5520 -0.4988  0.2102
  685MOL0     H92455   5.955   3.486   8.262  0.3191  2.3627  1.7250
  685MOL0     H92456   5.724   3.533   8.314 -2.3241  0.4855  1.7189
  685MOL0     H92457   5.249   3.253   8.296 -0.4914 -1.6442  0.8746
  685MOL0     H92458   5.011   3.296   8.351 -1.4061  2.2323 -0.6128
  685MOL0     H92459   3.819   3.276   8.996 -0.0595  1.2961  0.4728
  685MOL0     H92460   3.745   3.363   9.218 -1.4311 -0.0718  2.2824
  685MOL0     H92461   3.631   3.341   9.601 -1.5541 -0.3966  1.3941
  685MOL0     H92462   3.548   3.525   9.757  0.0079  0.9020  0.0182
  685MOL0     H92463   3.577   3.647   9.966  1.7594 -0.2590  0.5758
  685MOL0     H92464   3.513   3.739   9.824 -1.2320 -2.2788  0.6006
  685MOL0     H92465   3.488   3.868  10.018 -0.2055 -2.5609 -0.0581
  685MOL0     H92466   3.603   3.945   9.926 -2.2668  3.0326  3.3842
  685MOL0     H92467   3.797   3.865  10.076  0.5368 -3.3175  0.4558
  685MOL0     H92468   3.678   3.765  10.167 -3.7120 -0.8373 -1.4278
  685MOL0     H92469   3.552   3.969  10.229 -0.3679  1.4878  0.2378
  685MOL0     H92470   3.721   3.972  10.287  0.5809  0.4336 -0.3112
  685MOL0     H92471   3.731   4.294  10.003  0.1387  0.3623  1.0098
  685MOL0     H92472   3.949   3.648   9.816  3.7824 -3.0549  2.0669
  685MOL0     H92473   4.129   3.530   9.763  2.2191 -0.1373 -1.1988
  685MOL0     H92474   4.122   3.358   9.711  2.5760  1.3440  0.9442
  685MOL0     H92475   4.133   3.486   9.601  3.2315  0.2286  1.9700
  686MOL0     O92476   9.250   5.549   7.594 -0.2671  0.0710 -0.4367
  686MOL0     C92477   9.288   5.479   7.684 -0.0843  0.1301 -0.0070
  686MOL0     O92478   9.385   5.386   7.669 -0.4619 -0.4465 -0.1946
  686MOL0     C92479   9.413   5.345   7.540 -0.0010  0.0239  0.2359
  686MOL0     C92480   9.311   5.276   7.469 -0.3865 -0.2187 -1.2835
  686MOL0     C92481   9.330   5.231   7.341  0.0153  0.2505  1.0617
  686MOL0     C92482   9.444   5.253   7.273  0.6791  0.0188 -0.4243
  686MOL0     O92483   9.451   5.201   7.152  0.4486 -0.7063 -0.0358
  686MOL0     C92484   9.572   5.191   7.081 -0.3050  0.1118  0.3336
  686MOL0     C92485   9.541   5.128   6.944  0.8110 -0.7233 -1.5853
  686MOL0     C92486   9.648   5.039   6.885 -0.2545 -0.6126 -2.1608
  686MOL0     C92487   9.585   4.967   6.773 -0.0397  1.4717  0.6538
  686MOL0     C92488   9.664   4.863   6.694  0.4926 -0.5051 -1.2128
  686MOL0     C92489   9.589   4.754   6.631 -0.0382  0.3573  0.4253
  686MOL0     C92490   9.688   4.641   6.594 -0.2261  0.0394 -0.8185
  686MOL0     C92491   9.609   4.553   6.507 -0.0074  0.9371  0.0565
  686MOL0     N92492   9.699   4.456   6.452 -0.2883 -0.4019 -0.2230
  686MOL0     C92493   9.766   4.359   6.527  0.0282  0.0463  0.8956
  686MOL0     C92494   9.864   4.324   6.436 -0.7607  0.4260 -0.1000
  686MOL0     C92495   9.979   4.242   6.480 -0.5961 -1.1072 -0.8828
  686MOL0     C92496  10.106   4.322   6.475  0.3821  0.3888  0.3379
  686MOL0     C92497  10.225   4.264   6.558  0.5114  0.1008 -0.1897
  686MOL0     C92498  10.345   4.343   6.511 -0.2002 -0.6413  0.3171
  686MOL0     O92499  10.452   4.284   6.579 -0.0810  0.4791 -0.1396
  686MOL0     C92500  10.491   4.332   6.705  0.0789 -0.2706 -0.3365
  686MOL0     C92501  10.595   4.251   6.766  1.4145  0.1266 -0.1607
  686MOL0     C92502  10.646   4.280   6.888  0.0787  0.4648 -1.1924
  686MOL0     C92503  10.620   4.403   6.954  0.0419  0.3329 -0.2696
  686MOL0     C92504  10.680   4.417   7.092 -0.1134 -0.4581  0.1873
  686MOL0     O92505  10.811   4.368   7.091 -0.0689 -1.0000  0.1926
  686MOL0     C92506  10.894   4.399   7.188 -0.1779 -0.4338  0.5958
  686MOL0     C92507  11.029   4.384   7.151 -0.9101  0.4845 -0.5257
  686MOL0     C92508  11.136   4.408   7.238  0.0755  0.4146 -0.9483
  686MOL0     C92509  11.122   4.422   7.367 -0.0075 -0.2770  0.7257
  686MOL0     O92510  11.223   4.464   7.452  0.2607  0.1728 -0.1169
  686MOL0     C92511  11.341   4.385   7.433 -0.6836 -0.0803  0.2888
  686MOL0     C92512  11.354   4.273   7.540 -0.5590 -0.1045 -0.5252
  686MOL0     C92513  11.235   4.162   7.508 -0.7523  0.0696  0.2826
  686MOL0     C92514  11.249   4.033   7.590 -1.2608  0.5532 -0.4059
  686MOL0     C92515  11.221   4.053   7.740 -0.1974 -0.9529 -0.1273
  686MOL0     C92516  11.078   4.105   7.761 -0.5562  0.5554 -0.0398
  686MOL0     C92517  11.085   4.248   7.795 -0.5002  0.1094  0.4019
  686MOL0     C92518  10.957   4.310   7.843  0.5435 -0.1917 -0.3018
  686MOL0    Cl92519  10.888   4.224   7.981  0.6111 -0.0504 -0.3741
  686MOL0     C92520  10.987   4.434   7.410 -0.2153 -0.2895  0.3553
  686MOL0     C92521  10.874   4.412   7.328 -0.0311  0.1355  0.7225
  686MOL0     O92522  10.627   4.484   7.179  0.0532 -0.0175  0.0428
  686MOL0     C92523  10.513   4.484   6.903 -0.6113 -0.1006 -0.1414
  686MOL0     C92524  10.455   4.444   6.781 -0.4657  0.3322  0.7254
  686MOL0     N92525   9.848   4.395   6.312 -0.4079  0.3367 -1.0123
  686MOL0     N92526   9.757   4.472   6.329 -0.0012 -0.0859  0.2100
  686MOL0     C92527   9.545   5.324   7.337 -0.2569 -0.0026  0.5525
  686MOL0     C92528   9.538   5.363   7.476 -0.2740  0.1036  0.3269
  686MOL0     C92529   9.234   5.508   7.820  0.6620  0.0849  0.0118
  686MOL0     C92530   9.306   5.583   7.912  0.2837  0.4154 -0.1728
  686MOL0     C92531   9.245   5.620   8.031  0.9585  0.4580  0.2178
  686MOL0     C92532   9.117   5.568   8.069  0.5923 -0.5852 -0.4772
  686MOL0     O92533   9.057   5.592   8.189  0.4051  0.3950 -0.1679
  686MOL0     C92534   9.074   5.476   8.283  0.4907  0.1243  0.0987
  686MOL0     C92535   9.048   5.506   8.421  0.8345  0.6826 -0.4675
  686MOL0     C92536   8.896   5.524   8.422 -0.3756  0.5797 -0.2678
  686MOL0     C92537   8.825   5.604   8.523  0.0770  0.4523  0.3065
  686MOL0     C92538   8.833   5.547   8.658 -0.7164 -0.1552  0.0471
  686MOL0     C92539   8.829   5.512   8.771 -0.4418 -1.2821 -0.6698
  686MOL0     C92540   9.059   5.479   7.982  0.5426  0.4205  0.7587
  686MOL0     C92541   9.113   5.452   7.850  0.3616  0.3638 -0.2500
  686MOL0     C92542   9.046   5.352   7.767 -0.0463  1.2131  0.8357
  686MOL0     H92543   9.226   5.252   7.533  0.1433  2.1091  0.4013
  686MOL0     H92544   9.247   5.174   7.299 -0.6711  0.6175  1.8789
  686MOL0     H92545   9.603   5.294   7.062  1.5716 -0.4031  0.3948
  686MOL0     H92546   9.655   5.148   7.138  0.0038  0.6973  0.3357
  686MOL0     H92547   9.515   5.206   6.872  1.2555 -0.7806 -1.8155
  686MOL0     H92548   9.459   5.058   6.959  0.1707  0.6209  2.1752
  686MOL0     H92549   9.701   4.973   6.953 -1.9753  1.1823  1.1629
  686MOL0     H92550   9.724   5.103   6.839  0.5587 -0.3934 -0.5695
  686MOL0     H92551   9.492   4.920   6.806 -0.0788  1.5818  0.7034
  686MOL0     H92552   9.547   5.038   6.698  1.8907 -1.1685 -3.1675
  686MOL0     H92553   9.720   4.907   6.611 -0.9943 -2.1301 -3.1694
  686MOL0     H92554   9.735   4.808   6.756 -0.9741 -1.7549 -0.5723
  686MOL0     H92555   9.525   4.713   6.709  0.4660 -0.8629  0.2260
  686MOL0     H92556   9.522   4.783   6.549  0.4825 -0.7657 -0.4240
  686MOL0     H92557   9.714   4.594   6.689 -1.3807 -0.3409 -0.6857
  686MOL0     H92558   9.775   4.694   6.554 -1.1057  1.9891 -0.2523
  686MOL0     H92559   9.533   4.504   6.568  0.7512  1.2242  1.2658
  686MOL0     H92560   9.548   4.596   6.427 -0.9357 -1.2889 -0.5170
  686MOL0     H92561   9.754   4.331   6.631 -1.2533  0.1253  0.7794
  686MOL0     H92562   9.964   4.206   6.582  1.5485 -2.2638 -0.9294
  686MOL0     H92563   9.982   4.155   6.413  3.1126 -1.4633 -0.4280
  686MOL0     H92564  10.137   4.330   6.370 -1.9360 -5.5873 -1.2096
  686MOL0     H92565  10.094   4.424   6.514  1.0623  0.1575  1.1672
  686MOL0     H92566  10.248   4.160   6.535  0.7783  0.6627 -2.7769
  686MOL0     H92567  10.196   4.276   6.662  1.1481 -3.4046  0.4941
  686MOL0     H92568  10.342   4.451   6.532 -0.5433 -0.6375  0.2540
  686MOL0     H92569  10.351   4.343   6.402 -3.0971  2.0452  0.0210
  686MOL0     H92570  10.625   4.164   6.709  0.8901  0.7997 -1.4900
  686MOL0     H92571  10.721   4.217   6.935 -2.2992 -0.5904  1.4611
  686MOL0     H92572  11.057   4.367   7.047 -2.7731  0.3663 -1.0565
  686MOL0     H92573  11.237   4.423   7.202  0.9016  1.9901  1.7372
  686MOL0     H92574  11.370   4.353   7.333 -1.5652  1.1830 -0.3934
  686MOL0     H92575  11.432   4.441   7.458 -0.4696 -0.8619  1.3118
  686MOL0     H92576  11.453   4.227   7.546 -0.8413 -0.5176  3.2247
  686MOL0     H92577  11.336   4.318   7.638 -0.5174  2.5488 -1.6589
  686MOL0     H92578  11.137   4.203   7.536 -2.5822 -5.0778  2.6822
  686MOL0     H92579  11.241   4.141   7.401 -0.8742  0.2938  0.2296
  686MOL0     H92580  11.348   3.991   7.572 -1.3446  0.2600 -0.1887
  686MOL0     H92581  11.177   3.963   7.547 -0.4955 -0.8692  0.5447
  686MOL0     H92582  11.297   4.121   7.780  0.5090 -1.3590 -0.7522
  686MOL0     H92583  11.233   3.955   7.787 -1.6212  0.4469  3.5108
  686MOL0     H92584  11.011   4.094   7.675  0.9447 -1.5597 -1.0607
  686MOL0     H92585  11.042   4.052   7.849  1.3016  1.6891  1.4953
  686MOL0     H92586  11.118   4.313   7.713 -1.1835  0.5469  0.4620
  686MOL0     H92587  11.158   4.259   7.876  0.9257 -0.5668 -0.7644
  686MOL0     H92588  10.963   4.419   7.857  0.9140  0.1689 -2.7977
  686MOL0     H92589  10.880   4.302   7.765 -1.1188  2.2192  0.9560
  686MOL0     H92590  10.987   4.460   7.516  0.4461 -0.3438  0.3732
  686MOL0     H92591  10.772   4.421   7.364 -0.4594  0.7232 -0.5673
  686MOL0     H92592  10.489   4.573   6.960  0.3446  0.8212 -1.1288
  686MOL0     H92593  10.372   4.500   6.737  0.5525  0.7422 -0.7388
  686MOL0     H92594   9.631   5.351   7.276 -0.9219  2.3204  0.5408
  686MOL0     H92595   9.625   5.400   7.529  1.7813 -3.1500 -0.4608
  686MOL0     H92596   9.398   5.640   7.898  0.6710  0.0999  0.9841
  686MOL0     H92597   9.294   5.688   8.100  0.9702 -0.8239  1.5313
  686MOL0     H92598   9.173   5.429   8.282  0.1000 -0.7102 -0.4394
  686MOL0     H92599   9.010   5.394   8.251  1.0635 -0.6095  0.7897
  686MOL0     H92600   9.099   5.596   8.457  1.8488 -0.3059  0.6424
  686MOL0     H92601   9.073   5.422   8.486 -2.6530 -1.3825 -1.4828
  686MOL0     H92602   8.857   5.422   8.421 -1.7641  1.0739  0.2910
  686MOL0     H92603   8.869   5.583   8.333  0.2455 -1.2206 -1.7044
  686MOL0     H92604   8.871   5.703   8.520 -2.2270  1.5739 -1.5291
  686MOL0     H92605   8.722   5.622   8.489  0.0492 -2.2287 -1.3550
  686MOL0     H92606   8.834   5.479   8.873 -1.5122  0.4353 -0.0118
  686MOL0     H92607   8.972   5.430   8.025  1.0559  0.0677  1.4080
  686MOL0     H92608   9.013   5.389   7.670  1.6858  0.9636  0.1243
  686MOL0     H92609   9.128   5.283   7.746 -1.0031  0.0209  0.9339
  686MOL0     H92610   8.962   5.300   7.814  0.2115 -0.0636 -0.0894
  687MOL0     O92611   3.467   1.542   3.147 -0.4794  0.2734 -0.2660
  687MOL0     C92612   3.425   1.602   3.242 -0.9043 -0.2312  0.1164
  687MOL0     O92613   3.499   1.624   3.369 -0.1497  0.6372  0.2653
  687MOL0     C92614   3.632   1.599   3.372 -0.0942 -0.5317  0.6111
  687MOL0     C92615   3.678   1.578   3.504 -0.7563  0.3122  0.5430
  687MOL0     C92616   3.815   1.570   3.526  0.3031 -0.3231 -0.0614
  687MOL0     C92617   3.904   1.584   3.416  0.0326  0.1679 -0.6285
  687MOL0     O92618   4.034   1.547   3.435 -0.6456 -0.0830  0.0842
  687MOL0     C92619   4.078   1.446   3.342  0.3777 -0.0585 -1.2368
  687MOL0     C92620   4.032   1.304   3.387 -0.1640  0.0820  0.0682
  687MOL0     C92621   4.079   1.271   3.531 -0.0598 -0.5598 -0.4979
  687MOL0     C92622   4.048   1.131   3.583 -0.3713  1.2616  0.7184
  687MOL0     C92623   4.040   1.134   3.732  1.2606  0.8490 -0.0864
  687MOL0     C92624   4.161   1.193   3.816  1.2262 -0.0088  0.1367
  687MOL0     C92625   4.150   1.168   3.968  0.3534 -0.8881  0.1498
  687MOL0     C92626   4.277   1.221   4.030  0.0030  0.3420 -0.2555
  687MOL0     N92627   4.247   1.254   4.176  0.1139 -0.6251  1.1068
  687MOL0     C92628   4.219   1.157   4.264  0.8175  0.1717 -0.9420
  687MOL0     C92629   4.218   1.220   4.382 -0.7716 -0.2582 -0.2399
  687MOL0     C92630   4.210   1.155   4.523  0.6297 -0.1626  0.5253
  687MOL0     C92631   4.121   1.237   4.625  0.8857  0.7301  0.8350
  687MOL0     C92632   4.104   1.164   4.760 -0.4845 -0.7244 -0.3559
  687MOL0     C92633   4.012   1.246   4.848  0.7766 -0.4151  0.1278
  687MOL0     O92634   3.995   1.175   4.973  0.1830 -0.0501 -0.5544
  687MOL0     C92635   3.916   1.226   5.072 -0.0925 -0.0897 -0.1247
  687MOL0     C92636   3.900   1.154   5.190 -0.1680 -0.7253  0.5536
  687MOL0     C92637   3.800   1.194   5.288  0.5449  0.7023  0.5275
  687MOL0     C92638   3.728   1.314   5.258  0.8804 -0.0666 -0.9003
  687MOL0     C92639   3.613   1.366   5.344  1.2273 -0.1042  0.7738
  687MOL0     O92640   3.527   1.456   5.283 -0.9135  0.6454 -0.1738
  687MOL0     C92641   3.422   1.509   5.349 -0.0714  0.3219  0.5421
  687MOL0     C92642   3.408   1.541   5.487 -0.2386  0.8259 -0.3376
  687MOL0     C92643   3.292   1.595   5.529 -0.0494  0.5000 -0.0419
  687MOL0     C92644   3.176   1.598   5.448 -0.4380 -0.4862 -0.2047
  687MOL0     O92645   3.061   1.643   5.506  0.4224  0.0823  0.5875
  687MOL0     C92646   2.945   1.661   5.418 -0.1937 -0.4079  0.2239
  687MOL0     C92647   2.834   1.728   5.497  0.3403 -2.0439 -0.1696
  687MOL0     C92648   2.707   1.729   5.420 -0.3053 -0.5386 -1.1486
  687MOL0     C92649   2.594   1.807   5.486 -0.2730  0.3706 -0.0706
  687MOL0     C92650   2.462   1.800   5.401  0.4479  0.3877  0.0058
  687MOL0     C92651   2.380   1.680   5.444 -0.0126  0.0664 -0.0630
  687MOL0     C92652   2.253   1.667   5.366 -0.1979  0.7704 -0.4216
  687MOL0     C92653   2.172   1.537   5.379  0.8496  0.6666  0.0205
  687MOL0    Cl92654   2.023   1.517   5.280  0.0710  0.7233  0.2927
  687MOL0     C92655   3.188   1.571   5.314 -0.1324  1.0223 -0.6459
  687MOL0     C92656   3.311   1.526   5.266 -0.1825  0.2444  0.2875
  687MOL0     O92657   3.600   1.318   5.457 -0.1087 -1.0038  0.6283
  687MOL0     C92658   3.749   1.390   5.143 -0.3260  0.0635  0.3453
  687MOL0     C92659   3.834   1.338   5.050 -0.6633 -0.5870  0.2004
  687MOL0     N92660   4.231   1.359   4.362 -0.1062 -0.4179  0.4736
  687MOL0     N92661   4.243   1.367   4.230 -0.8714 -1.7083 -1.2769
  687MOL0     C92662   3.855   1.625   3.293  0.2868  0.9190  0.1109
  687MOL0     C92663   3.714   1.632   3.273 -0.1722  1.1128  0.6325
  687MOL0     C92664   3.279   1.650   3.250 -0.5261  0.5411  0.7965
  687MOL0     C92665   3.192   1.578   3.158 -0.3596  0.7487  0.9893
  687MOL0     C92666   3.059   1.604   3.155 -0.3491 -0.5147  0.8055
  687MOL0     C92667   3.007   1.688   3.248  0.4974  0.4966  0.1477
  687MOL0     O92668   2.871   1.688   3.234 -0.5171 -0.0191  0.5775
  687MOL0     C92669   2.788   1.782   3.307 -0.1317  0.1373  0.7512
  687MOL0     C92670   2.753   1.727   3.442 -0.0128 -1.3754 -0.1829
  687MOL0     C92671   2.682   1.594   3.445  0.4901  0.8895  0.1726
  687MOL0     C92672   2.652   1.560   3.597  0.0250 -0.0138  0.7121
  687MOL0     C92673   2.553   1.451   3.603  0.0862  0.3333  0.3087
  687MOL0     C92674   2.483   1.353   3.586 -0.7847  0.3829 -0.4985
  687MOL0     C92675   3.089   1.767   3.323  1.6068  0.0938  0.1524
  687MOL0     C92676   3.224   1.738   3.337 -0.5368 -0.1299 -0.1115
  687MOL0     C92677   3.309   1.830   3.429 -0.0333  0.3815  0.1320
  687MOL0     H92678   3.608   1.567   3.587 -0.9839  0.4492  0.3731
  687MOL0     H92679   3.845   1.558   3.630 -4.1478 -0.1667  1.4980
  687MOL0     H92680   4.062   1.474   3.238  3.9244  1.9215 -1.3658
  687MOL0     H92681   4.186   1.454   3.334  0.1967  2.8837 -1.5973
  687MOL0     H92682   4.078   1.229   3.321  2.4674  1.8860 -0.3110
  687MOL0     H92683   3.924   1.314   3.377  0.0730  1.8150 -1.1915
  687MOL0     H92684   4.024   1.341   3.594  3.2861  1.4125  0.4575
  687MOL0     H92685   4.183   1.300   3.545 -0.5917  0.3037  2.1452
  687MOL0     H92686   3.949   1.091   3.559 -0.9358  1.5629  2.4545
  687MOL0     H92687   4.127   1.068   3.542 -0.4421  0.3364  1.9776
  687MOL0     H92688   3.948   1.185   3.762  0.1463 -1.4804  0.6954
  687MOL0     H92689   4.026   1.029   3.759  2.0475  0.2858 -1.7843
  687MOL0     H92690   4.252   1.150   3.774  0.5075 -0.4396 -1.0167
  687MOL0     H92691   4.168   1.300   3.795 -1.3895  0.4312  1.0382
  687MOL0     H92692   4.145   1.061   3.990 -2.6140 -0.5926  1.3324
  687MOL0     H92693   4.062   1.222   4.004  0.0452 -1.7434  0.6834
  687MOL0     H92694   4.359   1.149   4.019 -0.5024 -0.1017 -1.2128
  687MOL0     H92695   4.312   1.314   3.985  2.5849 -0.5938 -0.3684
  687MOL0     H92696   4.190   1.053   4.255  0.1733  0.3708 -1.1822
  687MOL0     H92697   4.185   1.051   4.502  1.9086 -0.3597 -0.0641
  687MOL0     H92698   4.303   1.147   4.579  2.0597 -2.7966 -1.9686
  687MOL0     H92699   4.158   1.338   4.644 -0.6665  1.1196  1.9579
  687MOL0     H92700   4.020   1.239   4.583  0.9698  0.2846  0.6068
  687MOL0     H92701   4.201   1.164   4.810 -1.6848  3.3526  2.4175
  687MOL0     H92702   4.064   1.065   4.738 -3.9474  0.5434 -0.2627
  687MOL0     H92703   3.915   1.271   4.804  0.0057 -1.5960  1.0882
  687MOL0     H92704   4.070   1.336   4.868 -0.8141  0.2719  1.9018
  687MOL0     H92705   3.956   1.064   5.212  0.3034 -0.2241  1.5025
  687MOL0     H92706   3.766   1.144   5.379 -1.6606  1.9554  0.4577
  687MOL0     H92707   3.484   1.512   5.558 -1.0746 -4.2972 -1.1771
  687MOL0     H92708   3.273   1.610   5.634 -1.0387  0.5740 -0.2230
  687MOL0     H92709   2.958   1.743   5.347  0.3022  1.4917  2.3825
  687MOL0     H92710   2.915   1.565   5.376  0.4760 -1.1319  1.3260
  687MOL0     H92711   2.828   1.682   5.596  2.4106  0.8477  1.4614
  687MOL0     H92712   2.859   1.834   5.509 -1.2627 -1.5390 -0.9926
  687MOL0     H92713   2.733   1.768   5.321  0.4674 -0.4880 -0.9375
  687MOL0     H92714   2.673   1.626   5.403 -0.7187 -0.6084  0.0286
  687MOL0     H92715   2.617   1.913   5.502 -1.5121  0.6049  0.2719
  687MOL0     H92716   2.569   1.758   5.581  3.7634 -0.1884  0.8973
  687MOL0     H92717   2.497   1.783   5.299  0.3545  1.9772 -0.3164
  687MOL0     H92718   2.395   1.885   5.414 -2.3163 -1.8304  1.5154
  687MOL0     H92719   2.432   1.584   5.441 -0.8687 -0.4340  0.5250
  687MOL0     H92720   2.352   1.700   5.548  2.0138  0.3155  0.4769
  687MOL0     H92721   2.279   1.676   5.260 -3.4243  0.4560 -1.3478
  687MOL0     H92722   2.188   1.752   5.389  1.3177  1.1043  3.4892
  687MOL0     H92723   2.238   1.451   5.362 -1.0743 -1.4885  2.5746
  687MOL0     H92724   2.144   1.525   5.485 -0.9521 -1.7161 -0.6177
  687MOL0     H92725   3.107   1.565   5.243  0.6312 -0.4863 -1.4379
  687MOL0     H92726   3.327   1.503   5.162 -2.9805  0.8134 -0.3643
  687MOL0     H92727   3.702   1.481   5.107 -0.8994 -0.3848 -0.0535
  687MOL0     H92728   3.839   1.399   4.960  1.6349 -0.2061  0.5328
  687MOL0     H92729   3.917   1.644   3.207 -1.3618 -1.1142 -1.6282
  687MOL0     H92730   3.675   1.663   3.177 -2.0379  0.6354  1.2047
  687MOL0     H92731   3.221   1.495   3.094 -1.4215  0.6381  0.6313
  687MOL0     H92732   2.997   1.539   3.094 -2.4267  0.6184  1.6131
  687MOL0     H92733   2.702   1.799   3.241  0.7313  1.0401 -0.1748
  687MOL0     H92734   2.840   1.877   3.324 -0.3364  0.7871 -1.8064
  687MOL0     H92735   2.686   1.797   3.492  1.0936  0.9514 -1.7885
  687MOL0     H92736   2.844   1.725   3.503 -0.9790 -0.9108  1.3242
  687MOL0     H92737   2.730   1.508   3.398 -3.9670 -1.2292 -1.1380
  687MOL0     H92738   2.588   1.606   3.390  1.7216  1.0851 -1.9604
  687MOL0     H92739   2.742   1.525   3.648  0.8286 -0.5632 -1.0214
  687MOL0     H92740   2.611   1.639   3.661 -2.4411 -1.0154  0.4989
  687MOL0     H92741   2.425   1.265   3.568  0.4257 -0.7064  0.8059
  687MOL0     H92742   3.043   1.844   3.385 -0.7743 -0.5485 -0.6906
  687MOL0     H92743   3.300   1.780   3.526  1.9110 -0.7757 -0.2157
  687MOL0     H92744   3.414   1.852   3.406  0.1406 -0.1262  0.4142
  687MOL0     H92745   3.255   1.924   3.435 -0.0993  0.3184  0.5541
  688MOL0     O92746   2.863   8.588   2.264 -0.3744 -0.4507 -0.3885
  688MOL0     C92747   2.799   8.490   2.275 -0.0715  0.3680 -0.7959
  688MOL0     O92748   2.841   8.373   2.337 -0.1618  0.9104 -0.1582
  688MOL0     C92749   2.973   8.368   2.369 -0.8700 -0.2116 -0.9082
  688MOL0     C92750   3.003   8.334   2.501 -0.0028 -0.3010 -1.3752
  688MOL0     C92751   3.133   8.308   2.546 -0.4726 -1.3403 -0.5832
  688MOL0     C92752   3.238   8.310   2.450  0.6459 -0.0613 -0.3575
  688MOL0     O92753   3.371   8.295   2.489 -0.3985 -0.0180  0.4074
  688MOL0     C92754   3.387   8.231   2.617 -0.6129 -0.1805  0.8737
  688MOL0     C92755   3.535   8.224   2.640  0.2238 -0.9683 -0.1276
  688MOL0     C92756   3.553   8.192   2.794  0.4109  0.3549 -0.4175
  688MOL0     C92757   3.699   8.133   2.814 -0.4968 -0.6086 -0.5763
  688MOL0     C92758   3.700   8.094   2.962 -0.5133 -0.0165  0.4795
  688MOL0     C92759   3.820   8.011   2.992  0.5979 -0.3092 -0.1433
  688MOL0     C92760   3.848   8.003   3.138 -0.3962 -0.9432 -0.3722
  688MOL0     C92761   3.748   7.919   3.223 -0.0907 -0.6815 -0.1072
  688MOL0     N92762   3.807   7.873   3.349  0.2436  0.5418  0.6990
  688MOL0     C92763   3.871   7.954   3.431 -0.4361 -0.1780 -0.9319
  688MOL0     C92764   3.919   7.870   3.529 -0.9457  0.1714  0.2095
  688MOL0     C92765   4.020   7.906   3.634  0.6333  0.3787  0.2293
  688MOL0     C92766   4.133   8.012   3.601  0.0127  0.2895 -0.4027
  688MOL0     C92767   4.093   8.154   3.619 -0.1162 -0.3474  0.4134
  688MOL0     C92768   4.191   8.264   3.571  1.0112  0.8002 -0.0208
  688MOL0     O92769   4.326   8.251   3.625 -0.0411  0.8402 -0.4337
  688MOL0     C92770   4.370   8.363   3.693 -0.1620  0.0306  0.8507
  688MOL0     C92771   4.409   8.352   3.824  1.0774 -0.0886 -0.1415
  688MOL0     C92772   4.477   8.449   3.889 -0.1997  0.2490 -0.5020
  688MOL0     C92773   4.502   8.573   3.824  0.3957 -1.1694  0.0409
  688MOL0     C92774   4.598   8.669   3.887 -0.9159 -0.3384 -0.2292
  688MOL0     O92775   4.686   8.627   3.984 -0.4125  0.0757  0.5986
  688MOL0     C92776   4.831   8.660   3.968  0.2985 -0.0560  0.0821
  688MOL0     C92777   4.892   8.717   3.859  0.3283  0.8233  0.2736
  688MOL0     C92778   5.030   8.741   3.852 -0.4142  0.2579 -1.1927
  688MOL0     C92779   5.111   8.714   3.964  0.6577  0.0925  0.4118
  688MOL0     O92780   5.243   8.766   3.957 -0.3617  0.2880  0.0925
  688MOL0     C92781   5.312   8.776   4.085 -0.8366 -1.0694 -0.0860
  688MOL0     C92782   5.446   8.851   4.080 -0.9396 -0.5209  0.7813
  688MOL0     C92783   5.450   8.997   4.025  0.9796 -0.3143  0.3401
  688MOL0     C92784   5.600   9.038   3.998  0.2298  0.1551 -0.1337
  688MOL0     C92785   5.590   9.174   3.918  0.9681  0.0211 -0.6676
  688MOL0     C92786   5.718   9.253   3.953  0.3542  0.2663  0.1557
  688MOL0     C92787   5.848   9.173   3.919  0.3786 -0.5149 -0.3847
  688MOL0     C92788   5.969   9.251   3.988 -0.6154  0.8975  0.3285
  688MOL0    Cl92789   6.122   9.178   3.920 -0.2697 -0.1617 -0.1095
  688MOL0     C92790   5.048   8.655   4.082 -0.3312  0.4333  0.2004
  688MOL0     C92791   4.909   8.628   4.083  0.3672 -0.3052  0.6934
  688MOL0     O92792   4.607   8.777   3.828  0.6295 -0.6100 -0.0191
  688MOL0     C92793   4.455   8.588   3.695  0.4096 -0.2330 -0.1194
  688MOL0     C92794   4.381   8.490   3.629 -0.8055  0.0721  0.6576
  688MOL0     N92795   3.890   7.736   3.495  0.1309  0.9807 -0.2414
  688MOL0     N92796   3.836   7.748   3.380  0.7182 -0.6080 -0.0823
  688MOL0     C92797   3.215   8.337   2.320 -0.1901 -0.1871 -0.4884
  688MOL0     C92798   3.081   8.367   2.278 -0.1865  0.4892 -0.5528
  688MOL0     C92799   2.665   8.497   2.234 -0.7756  0.9641  0.8946
  688MOL0     C92800   2.571   8.519   2.330  0.2724 -0.0683 -0.1639
  688MOL0     C92801   2.435   8.502   2.297  0.1451  0.0224 -0.7236
  688MOL0     C92802   2.394   8.465   2.170  0.3175 -0.6221 -0.1689
  688MOL0     O92803   2.262   8.468   2.126  0.0348  0.7948 -0.1304
  688MOL0     C92804   2.214   8.347   2.055 -0.5893 -0.8282  0.8711
  688MOL0     C92805   2.123   8.255   2.124 -0.8547  0.1421 -0.2448
  688MOL0     C92806   1.983   8.317   2.134  1.0772 -1.2776 -0.1020
  688MOL0     C92807   1.882   8.210   2.121 -0.5603  0.1465  0.1761
  688MOL0     C92808   1.841   8.203   1.978 -0.0087  0.2491  0.1798
  688MOL0     C92809   1.804   8.209   1.863 -0.3177 -0.3744  0.4519
  688MOL0     C92810   2.493   8.450   2.070  1.2746  0.5435 -0.9164
  688MOL0     C92811   2.622   8.447   2.107 -0.5048 -0.5936 -0.0851
  688MOL0     C92812   2.723   8.406   2.004  0.0184  0.1503 -0.2344
  688MOL0     H92813   2.925   8.329   2.576  2.1023 -0.7122  0.9310
  688MOL0     H92814   3.155   8.304   2.652 -2.1450 -0.1815 -0.1440
  688MOL0     H92815   3.346   8.286   2.702  1.3710 -0.4338  2.0693
  688MOL0     H92816   3.355   8.127   2.613 -2.1341  0.2903 -0.4615
  688MOL0     H92817   3.586   8.320   2.627  1.8146 -1.7970 -0.2297
  688MOL0     H92818   3.574   8.147   2.574 -0.9977 -0.7979 -1.0857
  688MOL0     H92819   3.472   8.126   2.822 -2.3774  3.2205 -1.1446
  688MOL0     H92820   3.566   8.281   2.857  0.6429 -0.6593  1.0316
  688MOL0     H92821   3.722   8.052   2.745 -0.2115 -0.5796 -0.5180
  688MOL0     H92822   3.779   8.205   2.794 -1.3916  0.2258 -1.2349
  688MOL0     H92823   3.702   8.188   3.018 -3.8881  0.5407 -0.1676
  688MOL0     H92824   3.612   8.035   2.985  0.8217 -2.0574  0.6027
  688MOL0     H92825   3.824   7.911   2.949 -3.2576 -0.3799 -0.7460
  688MOL0     H92826   3.908   8.066   2.956  1.8611 -1.4210  1.1302
  688MOL0     H92827   3.845   8.108   3.169 -0.0259 -1.1244  0.2920
  688MOL0     H92828   3.947   7.962   3.158  0.1733  1.4317  2.3043
  688MOL0     H92829   3.664   7.984   3.251 -1.5901 -2.0546 -1.2177
  688MOL0     H92830   3.712   7.837   3.159 -0.1693 -0.0317 -0.9107
  688MOL0     H92831   3.891   8.061   3.435 -3.9245  0.5393  0.9746
  688MOL0     H92832   3.962   7.953   3.713 -0.3286 -1.1201  0.4547
  688MOL0     H92833   4.071   7.817   3.672  3.0754 -0.0855 -3.5979
  688MOL0     H92834   4.210   7.993   3.676 -1.1327  0.7235  0.9277
  688MOL0     H92835   4.164   7.994   3.498 -0.6874  1.2392 -0.7957
  688MOL0     H92836   4.077   8.173   3.726  0.6991 -0.0542  0.4864
  688MOL0     H92837   4.000   8.162   3.562  0.4601 -2.0041 -0.8163
  688MOL0     H92838   4.151   8.364   3.590 -0.9224 -0.2050  1.6414
  688MOL0     H92839   4.187   8.256   3.462 -1.3506 -2.2851  0.1502
  688MOL0     H92840   4.398   8.258   3.877 -0.8997  0.4673  0.5207
  688MOL0     H92841   4.502   8.435   3.994 -1.0177 -1.5721 -0.5114
  688MOL0     H92842   4.829   8.742   3.774  1.3058  0.0453 -0.7170
  688MOL0     H92843   5.066   8.805   3.773  3.1827 -0.6041 -0.4560
  688MOL0     H92844   5.246   8.828   4.155  0.0059 -2.5283  1.8969
  688MOL0     H92845   5.347   8.683   4.131  2.3218 -0.3891 -0.8619
  688MOL0     H92846   5.492   8.847   4.178  0.6373  0.6788  0.1286
  688MOL0     H92847   5.509   8.796   4.009  0.4883  2.2330 -0.2547
  688MOL0     H92848   5.393   9.009   3.932 -0.3901  0.3534  1.2377
  688MOL0     H92849   5.406   9.060   4.102  0.2394 -0.5579  0.1236
  688MOL0     H92850   5.650   8.957   3.945 -1.5718 -1.8316  1.0502
  688MOL0     H92851   5.662   9.038   4.089 -0.9762 -0.7886  0.7196
  688MOL0     H92852   5.502   9.233   3.942  0.7804 -0.3928 -0.3325
  688MOL0     H92853   5.576   9.146   3.813 -1.1291  1.0724 -0.7039
  688MOL0     H92854   5.717   9.343   3.892  0.2136  0.1243 -0.0542
  688MOL0     H92855   5.724   9.279   4.059  1.2650  1.1089 -0.0911
  688MOL0     H92856   5.866   9.167   3.811 -1.7488 -2.5462 -0.7095
  688MOL0     H92857   5.852   9.070   3.957  2.1451 -0.2317  0.2969
  688MOL0     H92858   5.956   9.359   3.976 -1.1899  0.9277  1.1671
  688MOL0     H92859   5.962   9.228   4.095 -2.8563  2.4567  0.5761
  688MOL0     H92860   5.108   8.650   4.172 -0.1147  2.7582  0.2490
  688MOL0     H92861   4.855   8.601   4.173 -3.6433 -2.2224 -1.9986
  688MOL0     H92862   4.481   8.682   3.646 -1.3809 -0.0769 -0.8513
  688MOL0     H92863   4.354   8.492   3.524 -0.0802  0.6260  0.4626
  688MOL0     H92864   3.297   8.358   2.252 -0.8616 -1.2532 -1.6739
  688MOL0     H92865   3.040   8.393   2.181 -3.6519 -2.0064  0.0591
  688MOL0     H92866   2.590   8.541   2.435 -2.8038 -0.3280  0.5603
  688MOL0     H92867   2.358   8.516   2.373 -0.5508 -1.4373 -1.1174
  688MOL0     H92868   2.297   8.283   2.021 -1.3143 -1.7162  0.7331
  688MOL0     H92869   2.171   8.382   1.961  0.7221 -2.1509 -0.2812
  688MOL0     H92870   2.167   8.249   2.223  0.6393  2.7327 -0.6884
  688MOL0     H92871   2.128   8.151   2.090 -1.5814 -1.3049  3.6190
  688MOL0     H92872   1.962   8.400   2.066  0.1621 -1.0517  0.4305
  688MOL0     H92873   1.965   8.357   2.234 -1.6624  1.9217 -1.6846
  688MOL0     H92874   1.925   8.113   2.148  0.4290  0.4886 -0.1120
  688MOL0     H92875   1.796   8.222   2.188 -2.2390 -0.9032 -1.7029
  688MOL0     H92876   1.780   8.203   1.759 -0.3742  0.8010  0.3887
  688MOL0     H92877   2.463   8.418   1.970 -2.9043 -2.3164  0.9540
  688MOL0     H92878   2.744   8.493   1.940 -2.2723 -0.8103 -2.4714
  688MOL0     H92879   2.812   8.358   2.045 -0.0018  0.2964 -0.0180
  688MOL0     H92880   2.680   8.322   1.950 -1.7177 -0.1102  1.4624
  689MOL0     O92881   9.505   8.195   3.086 -0.1923 -0.5084  0.5952
  689MOL0     C92882   9.457   8.101   3.153 -0.0381 -0.2706 -0.1946
  689MOL0     O92883   9.378   7.997   3.112 -0.0216  0.5948  0.8672
  689MOL0     C92884   9.359   7.967   2.977  0.0159  0.0070 -0.3953
  689MOL0     C92885   9.452   8.000   2.873  0.6467 -0.7767 -0.1488
  689MOL0     C92886   9.423   7.975   2.737  0.1267 -1.4678 -0.1467
  689MOL0     C92887   9.291   7.940   2.705 -0.9652  0.0658 -0.8680
  689MOL0     O92888   9.246   7.935   2.576  0.2535 -0.1512 -0.2545
  689MOL0     C92889   9.321   7.860   2.483  0.4836 -0.3433  0.2393
  689MOL0     C92890   9.259   7.810   2.355 -0.5834  0.2898 -0.7616
  689MOL0     C92891   9.133   7.886   2.304  0.8842 -1.5595  0.0389
  689MOL0     C92892   9.005   7.835   2.371 -0.4844  0.2404 -0.1151
  689MOL0     C92893   8.885   7.863   2.281 -0.7086 -0.4030 -0.3939
  689MOL0     C92894   8.832   8.011   2.294  0.0380  0.2275 -0.6046
  689MOL0     C92895   8.694   8.028   2.228 -0.5608  0.8288 -0.3656
  689MOL0     C92896   8.663   8.171   2.217 -1.3871  0.2093 -0.5889
  689MOL0     N92897   8.616   8.225   2.346 -1.0171 -0.4834 -0.4333
  689MOL0     C92898   8.691   8.293   2.448 -0.7898  0.4266  0.6957
  689MOL0     C92899   8.612   8.305   2.554  0.0533  0.7639  0.1920
  689MOL0     C92900   8.637   8.357   2.689 -0.3544  0.8250  0.0277
  689MOL0     C92901   8.651   8.511   2.698 -0.9307 -0.6285 -0.5082
  689MOL0     C92902   8.796   8.544   2.737  0.4751  0.1919  0.5454
  689MOL0     C92903   8.829   8.698   2.719 -0.1082  0.1936 -0.2720
  689MOL0     O92904   8.966   8.721   2.756  0.2648 -0.0697  0.4548
  689MOL0     C92905   9.064   8.682   2.668 -0.3415  0.2342  0.2857
  689MOL0     C92906   9.043   8.636   2.539  0.3444  0.5177  0.0405
  689MOL0     C92907   9.146   8.615   2.447  0.8066 -0.2116  0.8742
  689MOL0     C92908   9.278   8.655   2.481  0.3404 -0.7332 -0.9443
  689MOL0     C92909   9.382   8.642   2.378  0.4957  1.1467 -0.3162
  689MOL0     O92910   9.515   8.662   2.420 -0.2497  0.3655  0.0422
  689MOL0     C92911   9.602   8.642   2.312  0.5905  0.1130  0.9070
  689MOL0     C92912   9.629   8.517   2.255  0.2730 -1.0564  0.0351
  689MOL0     C92913   9.725   8.500   2.165  0.3289  0.4403 -0.0440
  689MOL0     C92914   9.814   8.597   2.117  0.3161 -0.6750 -0.5669
  689MOL0     O92915   9.913   8.578   2.031 -0.3822 -0.3038  0.0220
  689MOL0     C92916   9.940   8.450   1.972 -0.9101  0.2053 -0.2540
  689MOL0     C92917  10.072   8.447   1.876 -0.2044 -0.2395  0.1707
  689MOL0     C92918  10.201   8.503   1.935  0.3675  0.9417  0.0294
  689MOL0     C92919  10.322   8.490   1.851 -0.6654 -0.2224  0.6243
  689MOL0     C92920  10.437   8.574   1.909  0.4073 -0.2690 -0.0481
  689MOL0     C92921  10.562   8.527   1.845 -0.3470  0.6979  0.1125
  689MOL0     C92922  10.682   8.615   1.884  0.7020 -0.3143 -0.7524
  689MOL0     C92923  10.815   8.556   1.870 -0.1619 -0.4882  0.2930
  689MOL0    Cl92924  10.838   8.420   1.976 -0.1243 -0.1633 -0.2208
  689MOL0     C92925   9.781   8.723   2.162  0.4256  0.1297 -0.6739
  689MOL0     C92926   9.681   8.745   2.260  0.8658  0.5638 -0.2720
  689MOL0     O92927   9.338   8.627   2.263  0.3782 -0.1599  0.2843
  689MOL0     C92928   9.297   8.709   2.610 -0.2074  0.7948 -0.5244
  689MOL0     C92929   9.197   8.700   2.707 -0.0904  0.5490  0.0369
  689MOL0     N92930   8.490   8.259   2.510  0.1749 -1.1179 -0.8034
  689MOL0     N92931   8.487   8.213   2.392 -0.4412  0.1563 -0.1697
  689MOL0     C92932   9.195   7.914   2.803  0.6740 -0.5939 -0.6288
  689MOL0     C92933   9.225   7.932   2.939 -0.1459 -0.1872  0.0586
  689MOL0     C92934   9.491   8.101   3.297 -0.4854  0.8035 -0.1225
  689MOL0     C92935   9.406   8.031   3.388 -0.2179 -0.0044  0.5349
  689MOL0     C92936   9.418   8.037   3.520 -0.6090  0.5217 -0.3315
  689MOL0     C92937   9.528   8.101   3.571 -1.1295  0.2670 -0.0275
  689MOL0     O92938   9.547   8.123   3.704  0.2730 -0.3392  0.4785
  689MOL0     C92939   9.462   8.042   3.791  0.2447  0.7862  0.4506
  689MOL0     C92940   9.502   8.065   3.931  0.1222  0.7636 -0.5395
  689MOL0     C92941   9.420   7.998   4.047  0.5633  0.1075  0.6559
  689MOL0     C92942   9.281   8.065   4.078  0.6469  0.8011 -0.4514
  689MOL0     C92943   9.258   8.051   4.223 -0.1513  0.0307 -0.1802
  689MOL0     C92944   9.265   8.019   4.345 -0.1515 -0.2415  0.0956
  689MOL0     C92945   9.624   8.152   3.490  0.2215 -0.0727 -0.2607
  689MOL0     C92946   9.614   8.153   3.353  0.8904 -0.3236 -0.5183
  689MOL0     C92947   9.717   8.231   3.270 -1.1837  0.7906  0.6771
  689MOL0     H92948   9.545   8.047   2.905 -0.7178  1.9867  0.0345
  689MOL0     H92949   9.508   7.989   2.672  2.3966 -1.3236  2.6263
  689MOL0     H92950   9.400   7.931   2.456  0.9301 -1.0612 -0.3551
  689MOL0     H92951   9.361   7.769   2.528 -0.3158  0.4526  2.7030
  689MOL0     H92952   9.232   7.704   2.366 -1.0850  0.5090  0.2926
  689MOL0     H92953   9.346   7.824   2.291  2.0661  0.8458  2.6461
  689MOL0     H92954   9.120   7.877   2.196  0.0036  1.6180 -0.2041
  689MOL0     H92955   9.151   7.992   2.325  0.6471 -1.4935 -0.0877
  689MOL0     H92956   9.008   7.727   2.389  0.2856  0.1330 -0.8119
  689MOL0     H92957   8.985   7.889   2.464  0.6332  0.5138 -0.0154
  689MOL0     H92958   8.894   7.843   2.174 -2.9082  2.3618 -1.2078
  689MOL0     H92959   8.811   7.790   2.317 -1.1208 -0.6187 -1.6473
  689MOL0     H92960   8.824   8.041   2.399 -1.7134  0.5455 -0.8043
  689MOL0     H92961   8.898   8.077   2.237 -0.8267  0.0882 -1.7915
  689MOL0     H92962   8.628   7.968   2.291 -0.1345 -2.3268 -2.6889
  689MOL0     H92963   8.698   7.978   2.131 -0.3741  1.6385 -0.7887
  689MOL0     H92964   8.753   8.231   2.206  0.2617 -1.9339  0.4806
  689MOL0     H92965   8.602   8.187   2.127  0.4050  1.2748 -1.6655
  689MOL0     H92966   8.796   8.314   2.432 -1.2923  1.2273 -2.0727
  689MOL0     H92967   8.553   8.320   2.749  1.1025 -0.9647  1.1048
  689MOL0     H92968   8.730   8.319   2.733 -1.6582  1.0957  3.3219
  689MOL0     H92969   8.619   8.567   2.609  1.3761  0.0413 -0.9961
  689MOL0     H92970   8.596   8.540   2.787 -2.0542 -4.0612  0.0693
  689MOL0     H92971   8.862   8.483   2.674 -0.3624 -0.8129  0.6124
  689MOL0     H92972   8.807   8.528   2.844 -2.6544 -0.6512  0.8185
  689MOL0     H92973   8.761   8.763   2.774 -0.1182  0.9282 -1.1334
  689MOL0     H92974   8.802   8.730   2.618 -6.1476 -0.7264  0.6612
  689MOL0     H92975   8.940   8.621   2.509  0.4708 -2.2634  0.7088
  689MOL0     H92976   9.135   8.583   2.344  1.4864 -2.6585  1.4826
  689MOL0     H92977   9.569   8.432   2.288  0.4348 -0.5314  1.7988
  689MOL0     H92978   9.748   8.404   2.121  3.0278  0.7797  0.4856
  689MOL0     H92979   9.954   8.380   2.055  1.2556  1.4919  0.5676
  689MOL0     H92980   9.861   8.416   1.905  0.8143 -2.2791 -1.1592
  689MOL0     H92981  10.100   8.348   1.838  2.1717  0.9499 -1.3445
  689MOL0     H92982  10.054   8.507   1.787 -1.0766  0.3842  0.7504
  689MOL0     H92983  10.197   8.606   1.973 -0.5102 -0.0351  2.8963
  689MOL0     H92984  10.215   8.456   2.033  0.9626  0.6915 -0.1723
  689MOL0     H92985  10.310   8.524   1.748  0.0439 -0.0807  0.5777
  689MOL0     H92986  10.347   8.384   1.843  1.1833  0.0653  1.8385
  689MOL0     H92987  10.441   8.554   2.017 -3.6391 -0.1345  0.2552
  689MOL0     H92988  10.419   8.680   1.889 -0.0042 -0.3504 -0.1023
  689MOL0     H92989  10.582   8.421   1.862 -0.0115  0.2904 -2.4058
  689MOL0     H92990  10.550   8.541   1.737 -0.6392  0.9230  0.1726
  689MOL0     H92991  10.654   8.637   1.988 -2.4265  4.7071 -2.2708
  689MOL0     H92992  10.676   8.707   1.825 -2.2269 -0.7024 -1.2127
  689MOL0     H92993  10.849   8.521   1.772  0.6041 -0.7999  0.6658
  689MOL0     H92994  10.895   8.624   1.901  0.9447  0.6858 -4.3301
  689MOL0     H92995   9.843   8.798   2.114  2.6909 -1.5972 -0.6167
  689MOL0     H92996   9.674   8.851   2.282  5.9485  1.3214 -1.0598
  689MOL0     H92997   9.397   8.744   2.630  0.2815 -0.9850  0.3760
  689MOL0     H92998   9.222   8.735   2.807  1.0042 -0.4728  0.1374
  689MOL0     H92999   9.089   7.898   2.783 -0.5760 -1.2801  4.8491
  689MOL0     H93000   9.150   7.927   3.017  1.6306 -0.8455  1.8280
  689MOL0     H93001   9.316   7.986   3.346 -2.4346  0.4692  4.2878
  689MOL0     H93002   9.344   7.984   3.579 -3.6069  1.4113 -2.9929
  689MOL0     H93003   9.487   7.937   3.776 -0.6403  0.8170 -1.4838
  689MOL0     H93004   9.354   8.053   3.786  0.2261  1.5910  2.1073
  689MOL0     H93005   9.512   8.173   3.941  3.9070  0.8520 -3.3000
  689MOL0     H93006   9.598   8.013   3.941 -1.2261 -1.8805 -0.2615
  689MOL0     H93007   9.487   8.008   4.133 -2.8010  1.9754  3.3154
  689MOL0     H93008   9.394   7.895   4.020  0.4762 -0.1511  1.7092
  689MOL0     H93009   9.272   8.168   4.043  0.6078  0.9487 -0.0120
  689MOL0     H93010   9.212   8.000   4.023  0.0157  0.0793  1.1457
  689MOL0     H93011   9.249   7.992   4.447 -0.1152  0.3199  0.2545
  689MOL0     H93012   9.716   8.187   3.537 -1.0419  1.9077  0.8765
  689MOL0     H93013   9.760   8.160   3.198  1.5940  0.8811  2.0810
  689MOL0     H93014   9.683   8.320   3.218  0.3205  0.4355 -1.0396
  689MOL0     H93015   9.803   8.260   3.332 -0.4826  4.7651 -1.8556
  690MOL0     O93016   5.005   5.243   8.946  0.3817  0.1124  0.6315
  690MOL0     C93017   4.975   5.204   8.831  0.3778 -0.4875 -0.5970
  690MOL0     O93018   5.059   5.176   8.734 -0.6073 -0.3285 -0.0223
  690MOL0     C93019   5.188   5.208   8.751  0.2477  0.0922  1.0189
  690MOL0     C93020   5.229   5.339   8.726 -0.4867 -0.1432 -0.1657
  690MOL0     C93021   5.363   5.363   8.738 -0.3790 -1.0512  0.6917
  690MOL0     C93022   5.451   5.256   8.749  0.3064 -0.0747 -0.8147
  690MOL0     O93023   5.590   5.281   8.751  0.0208  0.5299 -0.5453
  690MOL0     C93024   5.633   5.350   8.874  0.1968 -0.2418 -0.1341
  690MOL0     C93025   5.748   5.444   8.846  0.1848  0.1741 -0.0635
  690MOL0     C93026   5.864   5.395   8.758  0.7498 -0.1961  0.8512
  690MOL0     C93027   5.954   5.515   8.723 -0.5432  0.4464  0.2500
  690MOL0     C93028   6.050   5.482   8.601  0.0256  0.9765  0.6321
  690MOL0     C93029   6.123   5.600   8.534  0.2707  0.8236 -0.4116
  690MOL0     C93030   6.223   5.536   8.423  0.7652 -0.2964 -0.8439
  690MOL0     C93031   6.143   5.510   8.290  0.8653  0.8218 -0.7098
  690MOL0     N93032   6.143   5.631   8.201 -0.4239 -0.9369  0.0933
  690MOL0     C93033   6.237   5.662   8.103 -0.4403 -0.0416  0.1643
  690MOL0     C93034   6.200   5.790   8.064 -0.9182 -0.0523 -0.0430
  690MOL0     C93035   6.278   5.853   7.956 -0.2722 -0.3879  0.6460
  690MOL0     C93036   6.241   5.789   7.826  0.5348 -0.2120 -0.7617
  690MOL0     C93037   6.311   5.872   7.725  0.2522  0.0947  0.8890
  690MOL0     C93038   6.320   5.819   7.582 -0.6772 -1.2851  1.2403
  690MOL0     O93039   6.457   5.841   7.533  0.6016 -0.1388  0.8340
  690MOL0     C93040   6.480   5.856   7.398 -0.2095 -0.7945  0.2850
  690MOL0     C93041   6.611   5.896   7.354 -0.6363  0.1820  0.3650
  690MOL0     C93042   6.633   5.906   7.217  1.1216  0.4006  0.5709
  690MOL0     C93043   6.543   5.883   7.113  0.3497  0.4700 -0.2024
  690MOL0     C93044   6.558   5.907   6.973 -0.1367 -0.5917 -0.4054
  690MOL0     O93045   6.458   5.881   6.892 -0.3724 -0.1721 -0.3587
  690MOL0     C93046   6.454   5.952   6.776 -0.4099 -0.3950  0.2030
  690MOL0     C93047   6.517   5.906   6.650  0.0030 -0.0128 -0.4273
  690MOL0     C93048   6.515   5.983   6.536 -0.2146 -0.3611 -0.1200
  690MOL0     C93049   6.452   6.112   6.541 -0.0297 -0.7401 -0.2120
  690MOL0     O93050   6.424   6.191   6.428  0.3606 -0.4081  0.6011
  690MOL0     C93051   6.484   6.318   6.442  0.0330 -0.7562 -0.8570
  690MOL0     C93052   6.466   6.396   6.306  0.9140  0.3227  0.3184
  690MOL0     C93053   6.316   6.425   6.294 -0.2946  0.7520  0.4502
  690MOL0     C93054   6.266   6.484   6.159  0.0645 -0.0625 -0.5015
  690MOL0     C93055   6.336   6.423   6.034  0.9492  0.9771 -0.5064
  690MOL0     C93056   6.308   6.271   6.023  0.4004 -0.9384  0.3850
  690MOL0     C93057   6.380   6.208   5.897 -0.6205 -0.6651 -0.7224
  690MOL0     C93058   6.529   6.187   5.930  0.6339  0.2814  1.2021
  690MOL0    Cl93059   6.551   6.103   6.086  0.0091  0.1367 -0.0151
  690MOL0     C93060   6.384   6.158   6.654  0.3725 -0.6644 -0.4085
  690MOL0     C93061   6.391   6.076   6.768 -0.5124 -0.2535  0.0343
  690MOL0     O93062   6.656   5.971   6.940 -0.0617 -0.2578  1.0789
  690MOL0     C93063   6.410   5.834   7.162 -0.7698 -0.1294 -0.0828
  690MOL0     C93064   6.384   5.831   7.296  0.7933  0.3992  0.6616
  690MOL0     N93065   6.098   5.841   8.138  0.5668  0.4845 -0.0068
  690MOL0     N93066   6.059   5.748   8.217 -0.1501  0.1175  0.7179
  690MOL0     C93067   5.413   5.129   8.778  0.5146  0.6613 -0.5635
  690MOL0     C93068   5.276   5.103   8.764  0.4735 -0.5298 -0.2912
  690MOL0     C93069   4.826   5.197   8.787 -0.7669  0.4746  0.3480
  690MOL0     C93070   4.783   5.095   8.696  0.1907  0.1718  0.3337
  690MOL0     C93071   4.658   5.102   8.635 -0.8381 -0.5549  0.8986
  690MOL0     C93072   4.568   5.203   8.670  0.2747  0.1300  0.8468
  690MOL0     O93073   4.454   5.187   8.602  0.3359  0.3751  0.0390
  690MOL0     C93074   4.350   5.271   8.643  0.6199 -0.9952  0.1037
  690MOL0     C93075   4.230   5.260   8.543 -1.4322 -0.5603 -0.8381
  690MOL0     C93076   4.151   5.130   8.566 -1.0138  1.0999  0.0975
  690MOL0     C93077   4.240   5.003   8.567  0.8064 -0.4804 -0.0271
  690MOL0     C93078   4.179   4.887   8.521 -0.3223  1.3782  0.2393
  690MOL0     C93079   4.116   4.786   8.490  0.2483  0.1196 -0.1415
  690MOL0     C93080   4.596   5.292   8.770 -0.5420  0.7021 -0.7168
  690MOL0     C93081   4.730   5.294   8.827 -0.9723  0.3799 -0.2199
  690MOL0     C93082   4.760   5.412   8.930  0.0747  0.2458 -0.2243
  690MOL0     H93083   5.161   5.422   8.711  0.2045  0.0075 -2.8809
  690MOL0     H93084   5.407   5.461   8.718  2.1781 -2.3224 -0.5153
  690MOL0     H93085   5.552   5.406   8.921  1.2902 -0.9979  2.9301
  690MOL0     H93086   5.662   5.283   8.956 -0.3891  0.1077  0.3677
  690MOL0     H93087   5.796   5.457   8.944  0.5184 -0.3363 -0.1541
  690MOL0     H93088   5.723   5.547   8.820 -1.3004 -0.4256 -1.1417
  690MOL0     H93089   5.814   5.352   8.670 -2.9374 -1.6328  3.3750
  690MOL0     H93090   5.924   5.318   8.806  1.9751 -0.0651 -0.3948
  690MOL0     H93091   5.905   5.610   8.699 -0.4306  0.7882  1.2863
  690MOL0     H93092   6.017   5.532   8.812  1.0413  1.5458 -1.0220
  690MOL0     H93093   6.128   5.414   8.635 -0.3486 -0.6175 -1.4897
  690MOL0     H93094   5.993   5.419   8.532 -1.0452  4.0424 -1.5166
  690MOL0     H93095   6.050   5.665   8.485  0.5032  0.5623 -1.1168
  690MOL0     H93096   6.173   5.661   8.610 -1.5583  0.2569  1.3298
  690MOL0     H93097   6.252   5.438   8.462 -3.4686 -1.5198 -0.2141
  690MOL0     H93098   6.311   5.598   8.403  0.0496 -0.1142 -3.9971
  690MOL0     H93099   6.179   5.430   8.225 -1.1704 -0.7757 -0.0030
  690MOL0     H93100   6.036   5.495   8.310  1.0792 -1.9600 -1.2569
  690MOL0     H93101   6.312   5.598   8.057 -0.4179 -0.9671  1.4383
  690MOL0     H93102   6.257   5.959   7.944  1.2222  0.1588  2.4878
  690MOL0     H93103   6.387   5.848   7.964  0.1763  4.2776  0.2709
  690MOL0     H93104   6.283   5.687   7.824 -1.5000 -1.1479  0.9854
  690MOL0     H93105   6.133   5.782   7.810  0.1076  1.5396  1.0539
  690MOL0     H93106   6.417   5.889   7.745  0.4212 -1.7544  1.7905
  690MOL0     H93107   6.256   5.966   7.713 -0.6685 -0.6420 -1.1430
  690MOL0     H93108   6.247   5.871   7.519 -0.1454 -2.0217 -0.0116
  690MOL0     H93109   6.305   5.711   7.572 -2.7460 -1.1527  2.3644
  690MOL0     H93110   6.699   5.902   7.416 -0.3115  2.5782 -0.2237
  690MOL0     H93111   6.733   5.925   7.180  1.3065 -1.4291  0.0532
  690MOL0     H93112   6.588   5.826   6.668  0.9797  1.3750  2.5367
  690MOL0     H93113   6.572   5.960   6.446 -2.4440  1.9133 -2.2604
  690MOL0     H93114   6.438   6.383   6.517  0.6683 -2.6946  1.3353
  690MOL0     H93115   6.589   6.308   6.472 -1.0877 -3.0577  2.9534
  690MOL0     H93116   6.532   6.483   6.312  1.0641  0.8905 -4.9073
  690MOL0     H93117   6.502   6.341   6.218 -0.8227  0.1017 -0.2805
  690MOL0     H93118   6.273   6.325   6.306  1.7598 -0.6657 -2.4803
  690MOL0     H93119   6.286   6.493   6.373 -1.1269 -0.1796  0.9605
  690MOL0     H93120   6.288   6.591   6.165 -0.2965 -0.0431  0.5607
  690MOL0     H93121   6.159   6.470   6.145 -0.8216  2.1265  2.9513
  690MOL0     H93122   6.446   6.429   6.031  1.0321 -0.1434 -0.0393
  690MOL0     H93123   6.297   6.479   5.948  2.5795  1.7613 -0.7943
  690MOL0     H93124   6.322   6.218   6.117 -0.7153 -3.0923 -0.6120
  690MOL0     H93125   6.200   6.259   6.016  0.4928 -1.9394  0.6426
  690MOL0     H93126   6.370   6.267   5.805  3.3061  1.1380 -0.2112
  690MOL0     H93127   6.335   6.111   5.876 -3.0369  0.4304 -0.9140
  690MOL0     H93128   6.570   6.128   5.847 -1.9098 -0.9772  0.7705
  690MOL0     H93129   6.581   6.279   5.961 -0.6771  0.7718  2.0213
  690MOL0     H93130   6.323   6.248   6.661  1.0396 -0.2578  0.3158
  690MOL0     H93131   6.339   6.110   6.857  1.6875  0.4873  1.1160
  690MOL0     H93132   6.334   5.821   7.086 -1.2189 -0.7541  0.4645
  690MOL0     H93133   6.286   5.794   7.326  0.8800 -3.0148 -2.5057
  690MOL0     H93134   5.477   5.046   8.807 -2.1743 -2.2384 -2.2736
  690MOL0     H93135   5.252   4.998   8.764  1.7529 -0.9039 -3.0937
  690MOL0     H93136   4.850   5.011   8.679  1.9213  1.2410  1.5497
  690MOL0     H93137   4.629   5.018   8.573 -2.4093 -0.5697  1.6023
  690MOL0     H93138   4.383   5.375   8.641 -0.0980 -0.7732 -1.1331
  690MOL0     H93139   4.299   5.261   8.739 -3.9952  1.1308 -1.8154
  690MOL0     H93140   4.289   5.259   8.451 -0.3750 -0.3631 -0.1841
  690MOL0     H93141   4.173   5.352   8.554  1.5868  1.2871  0.5813
  690MOL0     H93142   4.088   5.124   8.477 -1.8121 -1.2432  0.7459
  690MOL0     H93143   4.088   5.136   8.655 -2.3931  0.1626 -0.7716
  690MOL0     H93144   4.323   5.025   8.499  1.6237  0.1672  1.1555
  690MOL0     H93145   4.284   4.995   8.666  0.3828  1.1670  0.3171
  690MOL0     H93146   4.064   4.693   8.478  1.5716 -0.4404 -2.0179
  690MOL0     H93147   4.524   5.371   8.791 -3.4410 -0.8197 -3.9037
  690MOL0     H93148   4.684   5.489   8.915 -0.8078 -0.9060 -2.0112
  690MOL0     H93149   4.769   5.379   9.034  0.3449  1.6229  0.2060
  690MOL0     H93150   4.860   5.442   8.896  1.0679 -0.0681  2.2334
  691MOL0     O93151   5.930   4.906   7.848 -0.5743  0.0186  0.6618
  691MOL0     C93152   6.015   4.915   7.937 -0.1291 -0.0427 -0.7063
  691MOL0     O93153   6.009   4.849   8.061 -0.4944  0.5395  0.1527
  691MOL0     C93154   5.910   4.764   8.086  0.0294 -0.6090  0.0598
  691MOL0     C93155   5.777   4.800   8.099 -0.2349 -0.7990  0.1869
  691MOL0     C93156   5.687   4.697   8.113  0.2250 -0.1680 -0.1360
  691MOL0     C93157   5.723   4.561   8.124  0.7739 -0.8028  0.8849
  691MOL0     O93158   5.619   4.467   8.151 -0.1163  0.0884 -0.1140
  691MOL0     C93159   5.537   4.443   8.042 -0.2746  0.7580  0.8509
  691MOL0     C93160   5.451   4.321   8.074 -0.7730  0.3161 -0.0901
  691MOL0     C93161   5.518   4.186   8.102  0.5718  0.9161  0.3702
  691MOL0     C93162   5.598   4.132   7.977  0.2970 -0.4160 -0.0777
  691MOL0     C93163   5.644   3.982   8.001 -0.0508  0.2498 -0.1893
  691MOL0     C93164   5.730   3.915   7.892  0.1996 -0.5183 -0.7709
  691MOL0     C93165   5.812   3.801   7.950 -0.2543 -0.4602  0.1027
  691MOL0     C93166   5.903   3.734   7.843 -0.2812 -0.1179  0.5249
  691MOL0     N93167   5.927   3.810   7.724 -0.8280 -0.0833 -0.4589
  691MOL0     C93168   6.022   3.909   7.708  0.3189  0.4689  0.8304
  691MOL0     C93169   6.018   3.933   7.577  1.1688  0.0004  0.4581
  691MOL0     C93170   6.109   4.020   7.496  0.2943  0.7027 -0.0049
  691MOL0     C93171   6.086   4.171   7.512 -1.1708  0.1796 -0.2053
  691MOL0     C93172   6.128   4.253   7.387  0.4363  0.0017 -0.9024
  691MOL0     C93173   6.277   4.230   7.353 -0.2234 -1.1189  1.2627
  691MOL0     O93174   6.359   4.263   7.463 -0.0824  0.1754  1.2951
  691MOL0     C93175   6.498   4.257   7.451 -0.0678 -0.7773  0.0686
  691MOL0     C93176   6.567   4.189   7.343  0.3751  0.0608  1.0463
  691MOL0     C93177   6.701   4.191   7.318 -0.3182  0.9449 -0.4079
  691MOL0     C93178   6.788   4.259   7.405 -0.4732 -0.1668  0.2263
  691MOL0     C93179   6.935   4.273   7.390 -0.5443  1.0432 -0.2256
  691MOL0     O93180   6.990   4.176   7.315 -0.9942 -0.8517  0.1261
  691MOL0     C93181   7.127   4.166   7.324 -0.3826  0.3311 -0.5641
  691MOL0     C93182   7.200   4.181   7.206 -0.0472 -0.0215 -0.6397
  691MOL0     C93183   7.338   4.156   7.203 -0.3771  0.0724 -0.6063
  691MOL0     C93184   7.397   4.119   7.322 -0.4639 -0.1558 -0.1901
  691MOL0     O93185   7.532   4.076   7.320  0.4519 -0.1994 -0.2698
  691MOL0     C93186   7.593   4.048   7.439 -0.2350  0.0932 -0.4819
  691MOL0     C93187   7.730   3.986   7.413  0.4302 -0.2860  0.0672
  691MOL0     C93188   7.828   4.025   7.519 -0.1633  0.8834 -0.6965
  691MOL0     C93189   7.786   3.995   7.666 -0.3676 -0.0367  0.2424
  691MOL0     C93190   7.900   4.010   7.759  0.2068  0.2498 -0.3657
  691MOL0     C93191   8.020   3.912   7.726 -0.6240  0.7798  0.2746
  691MOL0     C93192   7.986   3.762   7.681 -0.1204 -0.4947 -0.8789
  691MOL0     C93193   7.973   3.667   7.800 -0.2240 -0.0937  0.6971
  691MOL0    Cl93194   7.821   3.706   7.892 -0.0005  0.5904  0.2229
  691MOL0     C93195   7.323   4.120   7.445 -0.2859 -0.4252 -0.0956
  691MOL0     C93196   7.186   4.138   7.444  0.2453 -0.0604  0.6718
  691MOL0     O93197   6.990   4.355   7.458 -0.2535 -0.8730  0.3729
  691MOL0     C93198   6.718   4.319   7.507  0.0675 -0.7715 -0.1323
  691MOL0     C93199   6.582   4.327   7.530 -0.3998  0.4306 -0.4494
  691MOL0     N93200   5.929   3.844   7.513  0.7337  0.4690  0.8551
  691MOL0     N93201   5.873   3.773   7.606 -0.4104  0.3766  0.0379
  691MOL0     C93202   5.858   4.534   8.109 -0.3573  0.2043 -0.1609
  691MOL0     C93203   5.953   4.634   8.094  0.5015  0.6566 -0.3227
  691MOL0     C93204   6.127   5.013   7.919  0.6465  0.4476 -1.0270
  691MOL0     C93205   6.182   5.072   8.037  0.1209  0.0819 -0.4855
  691MOL0     C93206   6.288   5.172   8.016 -0.6711  0.0810 -0.6807
  691MOL0     C93207   6.327   5.220   7.897  0.5479  1.2066 -0.2939
  691MOL0     O93208   6.427   5.311   7.878  0.3104  0.1971 -0.4191
  691MOL0     C93209   6.436   5.387   7.757  0.0589  0.4733  0.0346
  691MOL0     C93210   6.545   5.493   7.771 -0.0154 -0.6481  1.0178
  691MOL0     C93211   6.596   5.563   7.642  0.4248 -0.4345 -0.3494
  691MOL0     C93212   6.742   5.542   7.607 -0.1287 -0.2328 -0.4015
  691MOL0     C93213   6.769   5.398   7.595  0.3356 -0.6929  0.8297
  691MOL0     C93214   6.788   5.279   7.583  0.3398 -0.6027 -0.4245
  691MOL0     C93215   6.266   5.154   7.792  0.6718 -0.1795 -0.3707
  691MOL0     C93216   6.186   5.041   7.799 -0.1399  0.5812  0.6746
  691MOL0     C93217   6.145   4.971   7.668 -0.9739  0.6218  0.0466
  691MOL0     H93218   5.747   4.904   8.094  0.6021 -0.4977  1.2734
  691MOL0     H93219   5.583   4.729   8.112 -0.3638 -1.6585  2.5932
  691MOL0     H93220   5.472   4.524   8.008 -0.4604 -0.0820 -0.8812
  691MOL0     H93221   5.606   4.427   7.959  0.9996  1.3424  1.7698
  691MOL0     H93222   5.381   4.297   7.994 -2.1121 -2.4632  1.7297
  691MOL0     H93223   5.387   4.343   8.160 -0.3352 -0.7185  0.5268
  691MOL0     H93224   5.434   4.123   8.133 -1.1740  3.8300  2.0064
  691MOL0     H93225   5.590   4.197   8.184  3.3550  2.7476 -2.1219
  691MOL0     H93226   5.531   4.143   7.892 -1.4737 -2.3713  0.9441
  691MOL0     H93227   5.684   4.196   7.961  0.4041 -0.7743 -0.9904
  691MOL0     H93228   5.702   3.997   8.092 -0.9004 -1.8400  0.7586
  691MOL0     H93229   5.563   3.912   8.026 -0.4509  0.9416  0.4967
  691MOL0     H93230   5.663   3.879   7.813 -2.8113  2.4354  0.1759
  691MOL0     H93231   5.787   4.001   7.855 -1.7290  0.8573 -0.6969
  691MOL0     H93232   5.747   3.722   7.990 -2.5714  0.5328 -1.4952
  691MOL0     H93233   5.872   3.853   8.024  0.6141 -0.0393 -0.8714
  691MOL0     H93234   6.001   3.717   7.888 -0.2684 -1.6800 -0.0544
  691MOL0     H93235   5.862   3.638   7.812 -0.0886 -0.4206  1.1778
  691MOL0     H93236   6.076   3.959   7.788  1.2159 -0.1915  0.6526
  691MOL0     H93237   6.209   3.989   7.527 -0.3213 -0.9512  0.4718
  691MOL0     H93238   6.091   3.994   7.392 -1.0662 -1.1922  0.6415
  691MOL0     H93239   5.983   4.202   7.532 -0.5574  1.3907  1.2916
  691MOL0     H93240   6.147   4.192   7.600  0.1634 -1.7996 -0.6036
  691MOL0     H93241   6.113   4.358   7.415  4.3015  0.9908 -1.9748
  691MOL0     H93242   6.070   4.222   7.299  0.3676 -1.8361 -0.2483
  691MOL0     H93243   6.300   4.292   7.266 -0.4394 -1.1720  1.1676
  691MOL0     H93244   6.292   4.125   7.325 -1.3385 -0.9075 -0.2369
  691MOL0     H93245   6.509   4.139   7.266 -0.8247  0.7423  1.4827
  691MOL0     H93246   6.731   4.149   7.222  1.3575 -1.5609  1.0874
  691MOL0     H93247   7.149   4.212   7.116 -0.8469  2.8303  0.6994
  691MOL0     H93248   7.383   4.154   7.104  2.5137  0.6150  0.6172
  691MOL0     H93249   7.603   4.137   7.501  2.3109 -0.9512  0.7518
  691MOL0     H93250   7.538   3.976   7.500 -2.0683  1.0783 -0.9014
  691MOL0     H93251   7.718   3.877   7.405  2.3830 -0.4254 -1.9820
  691MOL0     H93252   7.768   4.024   7.318  0.6587 -2.3929 -0.7492
  691MOL0     H93253   7.918   3.964   7.504 -1.1049 -0.9224  0.5427
  691MOL0     H93254   7.855   4.131   7.522 -0.5285  0.9536  0.7668
  691MOL0     H93255   7.744   3.894   7.671  2.8113 -1.4051  2.9662
  691MOL0     H93256   7.710   4.068   7.697 -1.2524 -0.1220 -1.5816
  691MOL0     H93257   7.867   3.990   7.861 -1.1062 -0.7759 -0.9563
  691MOL0     H93258   7.938   4.113   7.752  1.4373 -0.1346  0.3971
  691MOL0     H93259   8.089   3.949   7.650 -1.3342 -0.9904 -1.2782
  691MOL0     H93260   8.082   3.904   7.816  1.4007  2.0484 -0.9316
  691MOL0     H93261   8.061   3.726   7.611  1.0189 -1.8972  0.9641
  691MOL0     H93262   7.896   3.763   7.619 -0.4466 -1.5442 -0.4522
  691MOL0     H93263   7.965   3.565   7.763 -1.7216 -0.2299  1.3324
  691MOL0     H93264   8.065   3.671   7.859  0.7897  0.5977 -0.8309
  691MOL0     H93265   7.381   4.095   7.533  1.4196  0.2895 -0.9551
  691MOL0     H93266   7.123   4.140   7.532  0.8270 -1.2319  1.1312
  691MOL0     H93267   6.780   4.375   7.577  0.2825  0.0275 -0.9464
  691MOL0     H93268   6.542   4.389   7.610  0.9319 -2.4223  2.6668
  691MOL0     H93269   5.900   4.434   8.112  1.0281  0.6661 -2.0886
  691MOL0     H93270   6.060   4.616   8.092  0.3203 -0.6840  0.6009
  691MOL0     H93271   6.148   5.049   8.138  1.6609 -1.2359 -0.2420
  691MOL0     H93272   6.344   5.199   8.105  1.7270 -0.7768 -1.8399
  691MOL0     H93273   6.339   5.431   7.732 -1.0155  0.2096  3.3405
  691MOL0     H93274   6.467   5.328   7.670  0.2623  1.3720 -0.5149
  691MOL0     H93275   6.625   5.442   7.826  2.6118  2.5768  0.5040
  691MOL0     H93276   6.505   5.567   7.842 -1.0716 -1.6491  1.5150
  691MOL0     H93277   6.574   5.669   7.658  0.1931 -0.3414 -1.2427
  691MOL0     H93278   6.527   5.538   7.561  0.3844 -3.7372  0.5434
  691MOL0     H93279   6.764   5.591   7.511 -0.6542  0.5201 -0.1504
  691MOL0     H93280   6.803   5.597   7.679 -1.4527  3.1292 -1.6339
  691MOL0     H93281   6.813   5.175   7.570 -0.6792 -0.7324 -1.4747
  691MOL0     H93282   6.313   5.177   7.697 -0.8568  1.5530 -0.7715
  691MOL0     H93283   6.171   4.866   7.653  2.6422  0.9523  2.6941
  691MOL0     H93284   6.040   4.990   7.644 -1.5937 -1.5882  0.7334
  691MOL0     H93285   6.202   5.009   7.583  0.1037 -2.8129 -0.9385
  692MOL0     O93286   1.269   9.887   6.178 -0.3707  0.3164 -0.3795
  692MOL0     C93287   1.374   9.822   6.185  0.0084 -0.0585  0.1143
  692MOL0     O93288   1.499   9.869   6.203  0.4284  0.6274 -0.7046
  692MOL0     C93289   1.531  10.002   6.242  0.0731 -0.7618  0.2999
  692MOL0     C93290   1.656  10.020   6.303 -0.2680 -0.4125  0.3983
  692MOL0     C93291   1.714  10.142   6.335 -0.1663 -1.4290  0.2319
  692MOL0     C93292   1.642  10.257   6.303 -0.0030  0.1901 -0.4198
  692MOL0     O93293   1.693  10.374   6.362 -0.7906 -0.1122 -0.9631
  692MOL0     C93294   1.623  10.504   6.343 -0.0864  0.3534 -0.1623
  692MOL0     C93295   1.712  10.624   6.371 -0.3652  0.3383 -0.5658
  692MOL0     C93296   1.840  10.631   6.286 -0.3421 -0.4012  0.2432
  692MOL0     C93297   1.805  10.616   6.137 -0.7370  0.1760 -0.8158
  692MOL0     C93298   1.901  10.686   6.035  0.1850  0.2005 -0.2280
  692MOL0     C93299   2.049  10.641   6.049 -0.0513  0.2322 -0.0384
  692MOL0     C93300   2.132  10.714   6.152  0.2340 -0.9573 -0.1629
  692MOL0     C93301   2.244  10.810   6.092  0.0949 -0.0298 -0.1874
  692MOL0     N93302   2.340  10.865   6.194 -0.4102 -0.1413 -0.2461
  692MOL0     C93303   2.400  10.796   6.301  0.1340  0.7769  0.3442
  692MOL0     C93304   2.443  10.903   6.377  0.4763 -0.2482 -0.8337
  692MOL0     C93305   2.522  10.888   6.502 -0.6791  0.2428  0.1949
  692MOL0     C93306   2.656  10.818   6.464  0.1872 -0.0061 -0.3441
  692MOL0     C93307   2.739  10.906   6.368 -0.6103  0.2074 -0.1446
  692MOL0     C93308   2.812  10.811   6.261  0.1620  0.1367  0.9215
  692MOL0     O93309   2.927  10.724   6.303  0.2240 -0.0368 -0.3723
  692MOL0     C93310   3.049  10.784   6.324 -0.6449 -0.0339 -0.2256
  692MOL0     C93311   3.094  10.913   6.302 -0.3372  0.9377 -0.3198
  692MOL0     C93312   3.227  10.944   6.328 -0.3118 -0.6040  0.2793
  692MOL0     C93313   3.329  10.846   6.353  0.1774  0.6573 -0.6991
  692MOL0     C93314   3.469  10.870   6.343  0.7842 -0.6953 -0.5559
  692MOL0     O93315   3.520  10.905   6.219 -0.8985  0.2369 -0.4728
  692MOL0     C93316   3.654  10.930   6.197  0.0919 -0.4698 -0.5702
  692MOL0     C93317   3.696  10.930   6.061 -1.0380  0.0554  0.3388
  692MOL0     C93318   3.824  10.974   6.019  0.5948 -0.4780 -0.3501
  692MOL0     C93319   3.908  11.023   6.116 -0.3880  0.4541 -0.1229
  692MOL0     O93320   4.025  11.069   6.086 -0.5338 -0.1643 -0.3375
  692MOL0     C93321   4.060  11.131   5.968  0.0930  0.3524  0.1650
  692MOL0     C93322   4.210  11.153   5.953 -0.4594 -0.8928  0.0377
  692MOL0     C93323   4.257  11.272   6.033  0.6463 -0.0771 -0.0449
  692MOL0     C93324   4.285  11.235   6.183 -0.3115 -0.5419  0.3034
  692MOL0     C93325   4.363  11.348   6.249 -1.1755 -0.6572 -0.3723
  692MOL0     C93326   4.375  11.319   6.399  1.2762 -0.3066  1.0468
  692MOL0     C93327   4.455  11.415   6.488  0.1072 -0.7386  0.7067
  692MOL0     C93328   4.477  11.378   6.640 -0.7840 -0.2716 -0.0696
  692MOL0    Cl93329   4.580  11.498   6.724  0.0706  0.2428 -0.5466
  692MOL0     C93330   3.872  11.024   6.248  0.2774 -0.5457  0.8788
  692MOL0     C93331   3.744  10.972   6.297 -0.5807 -0.5106  0.8350
  692MOL0     O93332   3.531  10.838   6.444 -0.1142  0.1036  0.2061
  692MOL0     C93333   3.282  10.721   6.383  0.4834  0.4020 -0.1747
  692MOL0     C93334   3.148  10.687   6.359 -0.6882  1.1573  0.4652
  692MOL0     N93335   2.417  11.021   6.311  0.5880 -0.7899 -0.3952
  692MOL0     N93336   2.346  10.997   6.203 -0.0040 -0.4826 -0.6849
  692MOL0     C93337   1.511  10.240   6.251 -0.6387 -0.3696  0.0078
  692MOL0     C93338   1.455  10.119   6.216 -0.2126  0.1896  0.2837
  692MOL0     C93339   1.368   9.662   6.162  0.5710 -0.4706 -0.2309
  692MOL0     C93340   1.487   9.595   6.198  0.3557 -0.7240 -0.2460
  692MOL0     C93341   1.484   9.455   6.191 -0.4752 -0.4938  0.3456
  692MOL0     C93342   1.376   9.384   6.149  1.2900  0.3202 -0.3041
  692MOL0     O93343   1.377   9.246   6.156  0.5807 -0.8998  0.5202
  692MOL0     C93344   1.448   9.185   6.045 -0.5102  0.2434 -0.8342
  692MOL0     C93345   1.456   9.034   6.056  0.6791 -1.1119  0.6836
  692MOL0     C93346   1.535   8.995   6.174 -0.0993 -0.9319  0.3000
  692MOL0     C93347   1.596   8.860   6.176 -0.3212  0.0776  0.6564
  692MOL0     C93348   1.672   8.843   6.296  0.3410 -0.1499  0.3709
  692MOL0     C93349   1.745   8.832   6.399 -0.0410  0.0234  0.0957
  692MOL0     C93350   1.258   9.447   6.112  0.1976  0.8366  0.2438
  692MOL0     C93351   1.253   9.588   6.119  0.1370 -0.1181  0.8349
  692MOL0     C93352   1.123   9.644   6.067  0.3345  0.2131  0.5734
  692MOL0     H93353   1.712   9.929   6.322  0.5841  0.3538  1.6678
  692MOL0     H93354   1.816  10.148   6.371  0.9117  0.7020 -2.7533
  692MOL0     H93355   1.584  10.511   6.241 -0.5792  1.3645  0.0821
  692MOL0     H93356   1.530  10.519   6.399  0.0990  2.0279 -0.2573
  692MOL0     H93357   1.736  10.637   6.477  5.1749 -0.4132 -1.4306
  692MOL0     H93358   1.666  10.716   6.332 -0.0878  1.3082  1.2659
  692MOL0     H93359   1.917  10.562   6.321 -0.0017 -0.6965 -1.0350
  692MOL0     H93360   1.885  10.729   6.303 -0.7965  0.4119 -2.6736
  692MOL0     H93361   1.802  10.508   6.117 -1.7008  0.3605 -1.7370
  692MOL0     H93362   1.706  10.644   6.102 -0.8097 -1.9644 -2.5346
  692MOL0     H93363   1.875  10.659   5.933  1.3994  0.3140 -0.5859
  692MOL0     H93364   1.910  10.794   6.048  0.9700  0.0408  0.6738
  692MOL0     H93365   2.061  10.532   6.055  1.2281  0.1068 -3.2091
  692MOL0     H93366   2.095  10.671   5.955 -0.5421 -0.0767 -0.3827
  692MOL0     H93367   2.172  10.648   6.230 -2.0663 -0.6933  1.3472
  692MOL0     H93368   2.064  10.785   6.200  0.2745 -0.3654 -0.9652
  692MOL0     H93369   2.297  10.750   6.017 -1.0726 -0.4442 -0.7069
  692MOL0     H93370   2.195  10.891   6.037  1.3225  0.9725  0.1451
  692MOL0     H93371   2.397  10.691   6.325  1.3880  0.9450  1.3462
  692MOL0     H93372   2.539  10.982   6.555  0.6837 -0.6754  1.4602
  692MOL0     H93373   2.472  10.823   6.574 -0.4413  0.5928  0.6766
  692MOL0     H93374   2.704  10.787   6.558  0.4494 -1.4846 -0.9370
  692MOL0     H93375   2.641  10.726   6.407 -0.6746  0.9461 -1.7084
  692MOL0     H93376   2.811  10.971   6.419  0.5514  1.7759 -3.5039
  692MOL0     H93377   2.679  10.981   6.317 -2.1696  0.1847  1.5583
  692MOL0     H93378   2.845  10.884   6.187  0.4545  1.1849  2.0683
  692MOL0     H93379   2.733  10.751   6.214  1.1558  1.0386 -2.1339
  692MOL0     H93380   3.016  10.987   6.284 -2.0593 -0.4008  1.1828
  692MOL0     H93381   3.252  11.046   6.300 -1.1270 -0.2560  0.7541
  692MOL0     H93382   3.618  10.897   5.994 -2.1338 -0.6505  1.9172
  692MOL0     H93383   3.868  10.967   5.921 -2.9401 -1.9141 -2.0190
  692MOL0     H93384   4.023  11.093   5.873 -1.4540 -1.6848  1.5129
  692MOL0     H93385   4.004  11.224   5.952  0.6170  0.2096 -3.1697
  692MOL0     H93386   4.265  11.066   5.990  2.2768  0.9671  0.6275
  692MOL0     H93387   4.239  11.176   5.850 -0.3916  0.4045  0.3364
  692MOL0     H93388   4.357  11.302   6.001  0.9183 -1.7648 -0.8903
  692MOL0     H93389   4.191  11.359   6.026  1.1596  0.3957  0.8373
  692MOL0     H93390   4.351  11.148   6.181  0.4030 -0.0133  0.4767
  692MOL0     H93391   4.193  11.204   6.234 -0.6583 -1.9821 -1.0943
  692MOL0     H93392   4.306  11.441   6.234 -0.2133  0.2899  1.5005
  692MOL0     H93393   4.462  11.365   6.204 -2.0807  5.6427 -0.8783
  692MOL0     H93394   4.276  11.304   6.444  0.2302 -0.3247 -1.0909
  692MOL0     H93395   4.419  11.219   6.394 -3.2555 -2.4832 -1.2395
  692MOL0     H93396   4.401  11.510   6.487 -1.4076 -1.5578  0.8380
  692MOL0     H93397   4.556  11.436   6.451 -0.2642 -2.0474 -1.2235
  692MOL0     H93398   4.384  11.390   6.697 -1.8277  3.2734 -2.1951
  692MOL0     H93399   4.512  11.275   6.651 -0.2834 -0.0877  0.1219
  692MOL0     H93400   3.947  11.070   6.312 -0.2374 -1.0636  1.8799
  692MOL0     H93401   3.716  10.985   6.402 -2.7467  0.1749  0.2289
  692MOL0     H93402   3.340  10.632   6.402  1.6749  0.8876 -1.3473
  692MOL0     H93403   3.116  10.585   6.379  1.9179 -0.7755 -3.8364
  692MOL0     H93404   1.451  10.327   6.224  2.0505  1.6459  0.1211
  692MOL0     H93405   1.355  10.108   6.174  0.2166  0.6862 -0.8929
  692MOL0     H93406   1.573   9.645   6.241  0.6230 -1.8649  0.5898
  692MOL0     H93407   1.565   9.393   6.230  0.0332  0.7328  1.3081
  692MOL0     H93408   1.551   9.217   6.028 -0.1317 -1.1153 -1.1933
  692MOL0     H93409   1.391   9.211   5.955 -0.4511 -0.0441 -0.9564
  692MOL0     H93410   1.502   8.990   5.967  1.7534 -0.1963  0.7592
  692MOL0     H93411   1.355   8.994   6.062  0.6607 -0.8557  2.5435
  692MOL0     H93412   1.467   9.010   6.258  0.1935 -1.4267  0.6302
  692MOL0     H93413   1.614   9.069   6.189  0.1867 -1.4528  1.4744
  692MOL0     H93414   1.514   8.787   6.169  1.0963 -1.7119  1.7326
  692MOL0     H93415   1.662   8.830   6.094 -0.5043  0.5083  0.3498
  692MOL0     H93416   1.798   8.840   6.492 -1.9404  0.1332  1.2196
  692MOL0     H93417   1.176   9.377   6.105  1.3192 -1.0481  3.5738
  692MOL0     H93418   1.137   9.664   5.960  3.9801 -2.7005  0.2945
  692MOL0     H93419   1.039   9.576   6.086  1.4403 -1.5413 -0.5024
  692MOL0     H93420   1.088   9.739   6.108 -2.1176 -0.0283 -0.7516
  693MOL0     O93421   3.644  10.253  10.575 -0.1573 -0.0569  1.0143
  693MOL0     C93422   3.654  10.153  10.649  0.2009 -0.2010  0.1641
  693MOL0     O93423   3.683  10.027  10.625  0.5296  0.1693 -0.7316
  693MOL0     C93424   3.723  10.000  10.503  0.3988 -0.0462  0.4903
  693MOL0     C93425   3.641   9.920  10.423 -0.8233  0.7363  0.1165
  693MOL0     C93426   3.688   9.886  10.299 -0.2780  0.4551  0.2643
  693MOL0     C93427   3.805   9.931  10.243 -0.6908  0.1148 -0.3987
  693MOL0     O93428   3.853   9.888  10.130  0.4317  0.3602  0.6971
  693MOL0     C93429   3.788   9.928  10.006 -0.0363 -0.1660  0.4253
  693MOL0     C93430   3.882   9.897   9.887 -0.5470 -0.0646 -0.7747
  693MOL0     C93431   3.922   9.752   9.859 -0.0022 -0.7737  0.9690
  693MOL0     C93432   3.809   9.672   9.803 -0.4857 -0.3978  0.0980
  693MOL0     C93433   3.867   9.525   9.781  0.3121 -0.9271 -0.2482
  693MOL0     C93434   3.764   9.429   9.728  0.8092  0.1845 -0.5033
  693MOL0     C93435   3.678   9.358   9.833  0.4900 -0.0006  0.3645
  693MOL0     C93436   3.761   9.247   9.888  0.4165 -0.0448  0.0715
  693MOL0     N93437   3.689   9.216  10.016 -0.2008  0.7792  0.1757
  693MOL0     C93438   3.710   9.280  10.140 -0.5125 -0.6075 -0.3729
  693MOL0     C93439   3.652   9.196  10.225 -0.4027  0.3275 -1.2303
  693MOL0     C93440   3.643   9.201  10.378  0.4491  0.1839  0.6045
  693MOL0     C93441   3.678   9.061  10.444  0.2757 -0.2917  0.2123
  693MOL0     C93442   3.653   9.046  10.599 -0.5700 -0.5672 -0.3140
  693MOL0     C93443   3.515   9.076  10.655  0.2896 -0.4147  0.6818
  693MOL0     O93444   3.535   9.069  10.795 -0.5172  0.8632 -1.1566
  693MOL0     C93445   3.432   9.114  10.872  0.5748 -0.3305  0.2608
  693MOL0     C93446   3.319   9.182  10.820 -0.1722  0.3231  0.7306
  693MOL0     C93447   3.208   9.218  10.895  0.0019 -0.0314 -0.1331
  693MOL0     C93448   3.209   9.196  11.034  0.4810 -0.2925  0.2457
  693MOL0     C93449   3.090   9.231  11.121 -0.0193  0.1549  0.0042
  693MOL0     O93450   3.103   9.209  11.254  0.0153  0.1805  1.3351
  693MOL0     C93451   3.012   9.247  11.346 -0.2845 -1.1835 -0.2746
  693MOL0     C93452   3.009   9.181  11.470 -0.5648 -0.4188  0.0554
  693MOL0     C93453   2.932   9.229  11.566  0.2962 -0.2536  0.3454
  693MOL0     C93454   2.842   9.341  11.561 -1.0092 -0.1473  0.7452
  693MOL0     O93455   2.762   9.392  11.665  0.0341  0.8199 -0.2093
  693MOL0     C93456   2.763   9.329  11.795 -0.8582  0.5310  0.1864
  693MOL0     C93457   2.654   9.381  11.893  0.0536  0.2410 -0.2867
  693MOL0     C93458   2.607   9.261  11.983  0.1388 -0.4778 -0.1485
  693MOL0     C93459   2.521   9.319  12.104 -1.0921  0.0903  1.0613
  693MOL0     C93460   2.452   9.206  12.189 -0.2721 -0.6508 -0.9274
  693MOL0     C93461   2.348   9.133  12.107  0.0214  1.3970 -1.0328
  693MOL0     C93462   2.245   9.041  12.194 -0.0256  0.8093 -0.0029
  693MOL0     C93463   2.103   9.044  12.133 -0.7245 -0.5525  1.0122
  693MOL0    Cl93464   1.990   8.982  12.255  0.1311 -0.2348 -0.2709
  693MOL0     C93465   2.840   9.411  11.437 -0.7017  0.4866  0.1811
  693MOL0     C93466   2.923   9.359  11.331 -0.1694  0.3367 -0.3963
  693MOL0     O93467   2.990   9.271  11.068  0.5819 -0.0500  0.2109
  693MOL0     C93468   3.318   9.130  11.088  0.2676 -0.9014  0.3878
  693MOL0     C93469   3.429   9.091  11.011 -0.0776 -0.5844  0.6276
  693MOL0     N93470   3.575   9.098  10.159  0.1978  0.8708 -0.6241
  693MOL0     N93471   3.598   9.118  10.026 -0.4196  0.7609  0.6995
  693MOL0     C93472   3.892  10.011  10.327 -0.2689  0.9499  0.2824
  693MOL0     C93473   3.849  10.046  10.455  1.0544 -0.0265  0.1090
  693MOL0     C93474   3.639  10.190  10.798  0.0063 -0.0618 -1.2919
  693MOL0     C93475   3.590  10.319  10.831 -0.0021 -0.0108 -0.5608
  693MOL0     C93476   3.568  10.360  10.960  0.3067 -0.3853 -1.3957
  693MOL0     C93477   3.594  10.277  11.069 -0.1103  0.1432 -0.6795
  693MOL0     O93478   3.584  10.311  11.200 -0.0847 -0.7582  0.1614
  693MOL0     C93479   3.503  10.429  11.222 -0.6941 -0.4341 -0.0306
  693MOL0     C93480   3.513  10.449  11.375  0.9902 -0.5643 -0.0081
  693MOL0     C93481   3.460  10.323  11.446 -0.7128 -0.0691  0.6170
  693MOL0     C93482   3.464  10.345  11.600  1.0290  0.5962  0.3601
  693MOL0     C93483   3.365  10.454  11.631 -0.2183 -0.3200  0.2584
  693MOL0     C93484   3.296  10.538  11.681  0.4628 -0.7966  0.0509
  693MOL0     C93485   3.656  10.156  11.040 -0.0672 -0.0890  0.4935
  693MOL0     C93486   3.671  10.103  10.913  0.3056  0.2962  0.3741
  693MOL0     C93487   3.723   9.958  10.901 -0.1655 -0.0385  1.1156
  693MOL0     H93488   3.545   9.872  10.443 -0.5916  0.4730  0.6150
  693MOL0     H93489   3.623   9.836  10.228  0.1335  2.4398 -1.6312
  693MOL0     H93490   3.698   9.867  10.001  1.7221 -3.6671  4.7379
  693MOL0     H93491   3.767  10.035  10.008  1.3339  0.1162  0.8039
  693MOL0     H93492   3.967   9.959   9.918  0.3767 -1.0207 -1.3374
  693MOL0     H93493   3.824   9.936   9.803 -1.6692  1.1407  0.5074
  693MOL0     H93494   3.953   9.718   9.959  1.7466 -0.6220  0.5133
  693MOL0     H93495   4.007   9.751   9.790  1.5634 -0.8829  2.7906
  693MOL0     H93496   3.730   9.670   9.878 -1.4309  0.8286 -0.8356
  693MOL0     H93497   3.776   9.717   9.709 -0.6301 -3.6688 -1.5770
  693MOL0     H93498   3.932   9.536   9.693 -2.5434  2.4097 -2.2201
  693MOL0     H93499   3.931   9.481   9.858  2.0783 -0.3382 -1.3028
  693MOL0     H93500   3.698   9.487   9.663 -1.0965  0.8094  1.8686
  693MOL0     H93501   3.806   9.356   9.658 -0.7977 -0.4218 -0.8753
  693MOL0     H93502   3.590   9.314   9.785  0.1143  0.4790  0.6003
  693MOL0     H93503   3.656   9.427   9.916 -1.3824 -1.2556  0.9854
  693MOL0     H93504   3.755   9.168   9.812 -2.6370  0.2552 -0.1117
  693MOL0     H93505   3.863   9.282   9.905  0.1439  1.0426 -0.4190
  693MOL0     H93506   3.769   9.366  10.170  1.5948 -2.2974  0.6516
  693MOL0     H93507   3.705   9.284  10.413  1.4050  0.1883 -1.0195
  693MOL0     H93508   3.535   9.209  10.393 -0.2139 -2.3217 -1.9708
  693MOL0     H93509   3.627   8.986  10.383  0.4144  2.5127 -3.7581
  693MOL0     H93510   3.784   9.038  10.426  0.3838 -0.0417  0.5289
  693MOL0     H93511   3.732   9.101  10.650  0.1948  0.5445 -2.5479
  693MOL0     H93512   3.670   8.939  10.617 -0.8498 -0.8430 -1.5803
  693MOL0     H93513   3.448   8.997  10.619  0.4745 -0.8014  1.1809
  693MOL0     H93514   3.483   9.171  10.611  0.8551 -0.5630 -0.0940
  693MOL0     H93515   3.300   9.179  10.713 -1.7966 -4.4671  0.9122
  693MOL0     H93516   3.121   9.262  10.846  0.8979  1.2600 -0.6242
  693MOL0     H93517   3.081   9.099  11.481 -1.2910 -1.1085 -0.2297
  693MOL0     H93518   2.924   9.167  11.655 -5.6693 -1.8671 -0.9145
  693MOL0     H93519   2.746   9.224  11.769 -1.0419  1.2959 -3.3158
  693MOL0     H93520   2.858   9.336  11.848 -0.0237 -3.5574 -0.4440
  693MOL0     H93521   2.712   9.456  11.948  2.4584 -0.9037 -1.1120
  693MOL0     H93522   2.580   9.424  11.824 -0.9568 -2.8936 -1.3160
  693MOL0     H93523   2.546   9.190  11.927  0.6105 -0.6959 -0.3918
  693MOL0     H93524   2.700   9.217  12.021  1.9304  1.1561 -2.4063
  693MOL0     H93525   2.434   9.369  12.059 -1.7656 -0.8801  1.2589
  693MOL0     H93526   2.575   9.395  12.162  0.5877 -0.4125  0.2217
  693MOL0     H93527   2.420   9.252  12.283  4.5869  4.4524 -1.2308
  693MOL0     H93528   2.528   9.134  12.221  1.6535  2.0306  1.0390
  693MOL0     H93529   2.288   9.213  12.061 -1.4173  0.4121 -0.9494
  693MOL0     H93530   2.381   9.079  12.018 -1.1713  1.4725 -1.5445
  693MOL0     H93531   2.238   9.074  12.298 -2.1994  0.0011  0.1540
  693MOL0     H93532   2.276   8.937  12.202  0.8098  0.9381 -1.2339
  693MOL0     H93533   2.077   9.146  12.105  0.7749 -0.5852 -0.6566
  693MOL0     H93534   2.084   8.989  12.041 -2.1684 -0.1184  1.0244
  693MOL0     H93535   2.782   9.503  11.426 -0.9000  0.5005  1.2548
  693MOL0     H93536   2.923   9.420  11.241 -0.7511  0.1537 -0.5222
  693MOL0     H93537   3.306   9.083  11.186  4.0891 -4.6963 -0.6453
  693MOL0     H93538   3.517   9.054  11.061  1.5544  0.0952 -1.5729
  693MOL0     H93539   3.989  10.042  10.289 -1.4892  1.7628 -2.4562
  693MOL0     H93540   3.907  10.112  10.519 -0.8512  0.1975  1.7066
  693MOL0     H93541   3.576  10.403  10.763 -1.5883  0.0017 -0.2454
  693MOL0     H93542   3.556  10.467  10.965  1.8415 -0.1014 -2.9915
  693MOL0     H93543   3.402  10.422  11.181  0.0308  3.1271 -3.1198
  693MOL0     H93544   3.554  10.506  11.163 -0.7352 -0.7233 -0.4488
  693MOL0     H93545   3.447  10.534  11.395  2.3743  0.5630 -0.0870
  693MOL0     H93546   3.615  10.470  11.408  0.2819  0.5498  1.6106
  693MOL0     H93547   3.520  10.238  11.410  2.3543  2.9357 -2.1095
  693MOL0     H93548   3.361  10.303  11.405 -1.3689  1.2280  1.5012
  693MOL0     H93549   3.440  10.248  11.644  1.1876  0.4126  0.0515
  693MOL0     H93550   3.565  10.376  11.630  0.0973  3.1156  1.1047
  693MOL0     H93551   3.225  10.614  11.705  0.3119 -1.0823  0.5305
  693MOL0     H93552   3.687  10.090  11.120  2.5350 -0.2472 -0.5349
  693MOL0     H93553   3.823   9.951  10.856  1.1653  0.4768  3.7659
  693MOL0     H93554   3.739   9.901  10.993  2.1138  2.6338  2.5348
  693MOL0     H93555   3.646   9.902  10.847  0.4149  0.3631 -0.1675
  694MOL0     O93556   8.237   2.343   9.019 -1.1054  0.5457 -0.2459
  694MOL0     C93557   8.151   2.376   8.940  0.7909 -0.1273 -0.2512
  694MOL0     O93558   8.149   2.470   8.846 -0.3633 -0.1051 -0.0016
  694MOL0     C93559   8.276   2.533   8.831  0.2937 -0.0522 -0.3711
  694MOL0     C93560   8.395   2.481   8.773  0.3071  0.2333 -0.8262
  694MOL0     C93561   8.511   2.561   8.755 -0.4573  0.8640  0.2725
  694MOL0     C93562   8.515   2.690   8.807  0.7916 -0.2974  0.2440
  694MOL0     O93563   8.634   2.773   8.812 -0.2504 -0.2079 -0.2948
  694MOL0     C93564   8.740   2.764   8.713  0.1401  0.6872  0.3757
  694MOL0     C93565   8.825   2.894   8.733 -0.1220  0.3864  0.0803
  694MOL0     C93566   8.932   2.889   8.630 -0.9763  0.1441 -0.6100
  694MOL0     C93567   9.055   2.792   8.664 -0.2610  0.1976  0.9466
  694MOL0     C93568   9.150   2.855   8.767  0.5245 -0.2395  0.9022
  694MOL0     C93569   9.292   2.793   8.750  0.7272  0.5653  0.6917
  694MOL0     C93570   9.291   2.644   8.792  0.3692 -0.3056 -0.6930
  694MOL0     C93571   9.277   2.542   8.676 -0.3670  0.6381  0.3630
  694MOL0     N93572   9.156   2.457   8.686 -0.0576 -0.0828  0.3856
  694MOL0     C93573   9.111   2.405   8.806 -1.0619 -0.3524 -0.1352
  694MOL0     C93574   8.987   2.359   8.771  0.0513  0.5694  0.5365
  694MOL0     C93575   8.876   2.288   8.854  0.2669  0.5252  0.2315
  694MOL0     C93576   8.774   2.389   8.919  0.5315 -0.6567 -0.9702
  694MOL0     C93577   8.660   2.324   8.994 -0.6041  1.3415  0.1996
  694MOL0     C93578   8.689   2.255   9.126 -0.2726  0.5940 -0.4188
  694MOL0     O93579   8.564   2.228   9.186  0.0936  0.6187  0.3608
  694MOL0     C93580   8.550   2.189   9.314  0.2300  0.2874 -0.5560
  694MOL0     C93581   8.649   2.145   9.403  0.4628  0.4806 -0.1135
  694MOL0     C93582   8.627   2.137   9.539  0.2889 -0.0078 -0.4975
  694MOL0     C93583   8.494   2.162   9.589 -0.6067 -0.4530  0.9834
  694MOL0     C93584   8.466   2.144   9.731  0.2718 -0.9818 -0.0504
  694MOL0     O93585   8.576   2.099   9.798 -0.1375  0.1467  0.3694
  694MOL0     C93586   8.586   2.077   9.933 -0.3071 -0.6736  0.4411
  694MOL0     C93587   8.716   2.096   9.992 -0.1434 -0.6048 -0.0942
  694MOL0     C93588   8.733   2.066  10.129  0.7930  0.3210 -0.7084
  694MOL0     C93589   8.636   2.013  10.210  0.1051  0.4088 -0.2526
  694MOL0     O93590   8.665   1.991  10.349  0.6267  0.1825  0.0246
  694MOL0     C93591   8.556   1.980  10.443 -0.4312  0.3264  0.2627
  694MOL0     C93592   8.605   1.958  10.583  0.3091  0.1265 -0.3709
  694MOL0     C93593   8.693   1.832  10.605  0.3689  0.0620  0.6652
  694MOL0     C93594   8.705   1.808  10.755  0.2012  0.2954  0.1834
  694MOL0     C93595   8.755   1.663  10.789 -0.4372 -0.3172 -0.0486
  694MOL0     C93596   8.776   1.632  10.934  0.8558  0.2546 -0.0419
  694MOL0     C93597   8.819   1.478  10.949  0.5654 -0.1052  0.8775
  694MOL0     C93598   8.712   1.395  11.012  0.3160  0.3247 -0.5367
  694MOL0    Cl93599   8.665   1.444  11.176 -0.0967 -0.0285  0.6842
  694MOL0     C93600   8.504   2.015  10.158  0.3108  1.0126  0.6725
  694MOL0     C93601   8.480   2.046  10.024  0.3348 -0.2813  0.1155
  694MOL0     O93602   8.355   2.173   9.782  0.0026  0.6151  0.5926
  694MOL0     C93603   8.393   2.197   9.505  0.3610 -0.3758 -0.0621
  694MOL0     C93604   8.416   2.213   9.368  0.1610  0.7624  0.7825
  694MOL0     N93605   8.965   2.386   8.636 -0.4236 -0.5684 -0.8701
  694MOL0     N93606   9.067   2.450   8.590  0.1471  0.7635  0.1270
  694MOL0     C93607   8.397   2.742   8.868 -0.1076  0.6316  0.3375
  694MOL0     C93608   8.281   2.662   8.877  0.5248 -0.0823 -0.9742
  694MOL0     C93609   8.023   2.294   8.962 -0.3243 -0.3363  0.2939
  694MOL0     C93610   7.948   2.256   8.849  0.1091  0.0915 -0.2067
  694MOL0     C93611   7.823   2.199   8.862  0.6787 -0.5139 -0.3447
  694MOL0     C93612   7.763   2.178   8.987  0.1346  0.1303 -0.1556
  694MOL0     O93613   7.644   2.113   9.005  0.3173  0.3232  0.0887
  694MOL0     C93614   7.590   2.049   8.887 -0.8020  0.3379 -0.0759
  694MOL0     C93615   7.480   1.953   8.916 -0.3015  1.1678  0.8008
  694MOL0     C93616   7.542   1.820   8.964  0.0081 -0.3935 -0.3127
  694MOL0     C93617   7.445   1.699   8.963 -0.7985  0.2530  0.4164
  694MOL0     C93618   7.355   1.721   9.065  0.0401  0.3607 -0.3889
  694MOL0     C93619   7.275   1.714   9.157  0.3902 -0.7874  0.1237
  694MOL0     C93620   7.839   2.219   9.097  0.1938  0.0070 -0.1029
  694MOL0     C93621   7.970   2.270   9.090  0.4280  0.1291  0.4546
  694MOL0     C93622   8.027   2.314   9.223 -0.6458 -0.5770  0.2517
  694MOL0     H93623   8.395   2.380   8.731  3.3274 -0.0311 -0.3832
  694MOL0     H93624   8.608   2.532   8.717  0.5454  0.8463  2.7253
  694MOL0     H93625   8.813   2.683   8.717  1.1241  0.6429 -6.2188
  694MOL0     H93626   8.699   2.763   8.611 -0.8156  0.9442  0.7402
  694MOL0     H93627   8.854   2.906   8.838 -1.7855  1.8947  0.4163
  694MOL0     H93628   8.752   2.970   8.703 -2.8968 -1.9945  0.3446
  694MOL0     H93629   8.972   2.984   8.593  1.8761 -1.5176 -2.1290
  694MOL0     H93630   8.898   2.850   8.534 -0.2233 -0.1971 -0.7439
  694MOL0     H93631   9.023   2.697   8.708  1.3980  1.4145  5.4490
  694MOL0     H93632   9.097   2.791   8.563 -1.3189  1.6016  0.4507
  694MOL0     H93633   9.140   2.963   8.752  0.0092 -0.5990 -1.8665
  694MOL0     H93634   9.109   2.824   8.864  0.8587  0.6358  1.3363
  694MOL0     H93635   9.330   2.817   8.650 -1.4411  1.6416  0.0504
  694MOL0     H93636   9.350   2.850   8.823 -0.7452 -2.0559  4.1996
  694MOL0     H93637   9.219   2.625   8.872 -0.1103 -0.4136 -1.1424
  694MOL0     H93638   9.393   2.627   8.828  1.4038 -1.0401 -3.6628
  694MOL0     H93639   9.285   2.581   8.574 -1.1723  3.2488  1.2140
  694MOL0     H93640   9.357   2.469   8.686 -0.9009  0.1077  0.8723
  694MOL0     H93641   9.158   2.396   8.903 -2.1213 -1.0955  0.3301
  694MOL0     H93642   8.824   2.224   8.783  1.0682 -0.2227  0.2970
  694MOL0     H93643   8.915   2.235   8.942 -1.4293  0.4647  0.9893
  694MOL0     H93644   8.823   2.442   9.001 -0.2822 -0.1427 -0.8110
  694MOL0     H93645   8.740   2.456   8.839 -1.1670  0.4062  0.5493
  694MOL0     H93646   8.618   2.253   8.923  2.2190 -0.9374  0.6161
  694MOL0     H93647   8.590   2.405   9.016  0.1681  1.7274  1.3301
  694MOL0     H93648   8.747   2.322   9.191  1.1386  0.9288 -1.9757
  694MOL0     H93649   8.747   2.163   9.112  0.7651  1.5008 -2.4420
  694MOL0     H93650   8.753   2.128   9.375 -0.5287 -1.8616 -2.8700
  694MOL0     H93651   8.708   2.124   9.610 -1.2113  1.1666  1.5449
  694MOL0     H93652   8.795   2.152   9.942 -3.1135  3.5323 -0.6393
  694MOL0     H93653   8.828   2.099  10.171  0.3712  1.6946 -0.8052
  694MOL0     H93654   8.494   2.069  10.436 -1.2899 -0.3529 -1.2004
  694MOL0     H93655   8.486   1.901  10.417 -1.7958  1.6022 -0.0533
  694MOL0     H93656   8.659   2.048  10.616 -1.5263  0.5638  1.7208
  694MOL0     H93657   8.521   1.954  10.654 -0.1586  0.5935 -0.8839
  694MOL0     H93658   8.659   1.737  10.564  0.4250 -1.1410  3.2320
  694MOL0     H93659   8.794   1.849  10.568 -0.2956 -0.8350 -1.7692
  694MOL0     H93660   8.616   1.846  10.806  0.4789  1.1299  0.0574
  694MOL0     H93661   8.788   1.873  10.784  0.1616 -0.4967  2.2425
  694MOL0     H93662   8.853   1.648  10.742  0.2184 -0.0809  1.1860
  694MOL0     H93663   8.683   1.585  10.760 -0.7424 -0.0806  0.0730
  694MOL0     H93664   8.856   1.701  10.962  0.4926 -0.8965  4.5519
  694MOL0     H93665   8.695   1.670  10.997  0.4715  1.9096 -1.4486
  694MOL0     H93666   8.903   1.475  11.019  2.6861 -0.7459 -1.5711
  694MOL0     H93667   8.847   1.441  10.850 -0.5923  0.4892  0.3083
  694MOL0     H93668   8.625   1.384  10.947  1.4026 -0.3810 -1.9118
  694MOL0     H93669   8.756   1.297  11.030 -0.5199  0.1964  0.9445
  694MOL0     H93670   8.429   1.984  10.230  1.5233 -0.5691  1.3062
  694MOL0     H93671   8.376   2.060   9.995 -0.4612 -1.5544  2.0933
  694MOL0     H93672   8.290   2.217   9.533  0.3506  1.1565 -1.0739
  694MOL0     H93673   8.336   2.251   9.306 -1.3712 -1.7020  1.1120
  694MOL0     H93674   8.406   2.842   8.908 -0.8347  0.7577  0.1994
  694MOL0     H93675   8.194   2.708   8.922  0.2998 -1.7769  0.3964
  694MOL0     H93676   7.985   2.273   8.748 -2.0665 -2.7421 -1.6172
  694MOL0     H93677   7.762   2.168   8.777 -0.2970 -0.8850  0.4767
  694MOL0     H93678   7.675   2.002   8.837 -0.0550  0.2379  1.2622
  694MOL0     H93679   7.549   2.121   8.816  1.7259 -0.3053 -2.3470
  694MOL0     H93680   7.430   1.932   8.822  2.1983  0.5713 -0.4863
  694MOL0     H93681   7.421   2.002   8.995 -3.9011 -0.4878 -0.6479
  694MOL0     H93682   7.583   1.829   9.064 -2.6197 -1.6412  0.9785
  694MOL0     H93683   7.620   1.790   8.893  0.5042 -0.2006  0.1486
  694MOL0     H93684   7.398   1.708   8.865 -3.8433 -3.5515  1.3038
  694MOL0     H93685   7.492   1.601   8.967 -1.5623 -0.2211 -1.3908
  694MOL0     H93686   7.207   1.693   9.237  2.5682 -1.6564  1.8770
  694MOL0     H93687   7.787   2.211   9.191 -1.8884 -1.2044 -1.2755
  694MOL0     H93688   8.106   2.249   9.259 -2.8872 -1.1881  4.7193
  694MOL0     H93689   8.060   2.418   9.227  1.9003 -1.3648  2.5232
  694MOL0     H93690   7.949   2.316   9.300  1.3557  0.9943  2.3783
  695MOL0     O93691  11.267   3.741   0.226  0.1690 -0.1473 -0.0039
  695MOL0     C93692  11.257   3.716   0.107 -0.5635  0.0850  0.2966
  695MOL0     O93693  11.309   3.792   0.013 -0.1788 -0.1219 -0.2369
  695MOL0     C93694  11.398   3.896   0.041 -1.2651  0.4302  0.0221
  695MOL0     C93695  11.378   3.987   0.153  0.0067  0.7372 -0.4915
  695MOL0     C93696  11.458   4.097   0.169  0.0466  0.3431  0.1088
  695MOL0     C93697  11.538   4.137   0.068  2.0642 -0.2363  0.2449
  695MOL0     O93698  11.623   4.237   0.092 -0.1713 -0.1147  0.2221
  695MOL0     C93699  11.749   4.219   0.036 -0.0093 -0.2626  0.0534
  695MOL0     C93700  11.840   4.300   0.132 -0.5863 -0.8717  0.1694
  695MOL0     C93701  11.991   4.268   0.126 -0.3324 -0.8251  0.1175
  695MOL0     C93702  12.051   4.347   0.248  1.0429 -0.7348 -0.7712
  695MOL0     C93703  12.195   4.334   0.237 -0.8294 -0.3854 -0.9898
  695MOL0     C93704  12.269   4.406   0.353  0.2663  0.5532 -0.3090
  695MOL0     C93705  12.419   4.390   0.322 -0.3168  0.2391 -0.0008
  695MOL0     C93706  12.485   4.452   0.448  0.2277 -0.1172 -0.1024
  695MOL0     N93707  12.625   4.417   0.448  0.4396  0.5040  0.1499
  695MOL0     C93708  12.718   4.473   0.360 -0.3418  0.3945 -1.2119
  695MOL0     C93709  12.837   4.433   0.410  0.1923 -0.1102  0.3804
  695MOL0     C93710  12.970   4.482   0.362 -0.9265  0.1798  0.2946
  695MOL0     C93711  13.071   4.514   0.475  0.1975  0.0507  0.0770
  695MOL0     C93712  13.028   4.642   0.544 -0.1099 -0.0020 -0.2224
  695MOL0     C93713  13.124   4.691   0.656 -0.8004  0.8561  0.5348
  695MOL0     O93714  13.093   4.825   0.692 -0.5530 -0.4446 -0.1597
  695MOL0     C93715  13.172   4.865   0.797  0.0002  0.7251 -0.3514
  695MOL0     C93716  13.305   4.818   0.828 -0.0243 -0.0178  0.2203
  695MOL0     C93717  13.389   4.886   0.918  0.3206 -0.0969 -0.0632
  695MOL0     C93718  13.340   4.998   0.987 -0.1487 -0.9048  0.3309
  695MOL0     C93719  13.434   5.080   1.074 -0.4077 -0.1201  0.6146
  695MOL0     O93720  13.411   5.209   1.102 -0.3677 -0.6334  0.1013
  695MOL0     C93721  13.502   5.282   1.187 -0.1188  0.4772 -0.0496
  695MOL0     C93722  13.569   5.230   1.305  0.0440  0.2527  0.3966
  695MOL0     C93723  13.653   5.311   1.374 -0.9020 -0.1079 -0.2800
  695MOL0     C93724  13.681   5.448   1.327  0.1709 -0.2041 -0.4154
  695MOL0     O93725  13.760   5.538   1.394  0.2380 -0.6883 -0.5749
  695MOL0     C93726  13.863   5.485   1.485 -0.2442  0.7729  1.7366
  695MOL0     C93727  13.949   5.603   1.520 -0.2343  0.0787  0.1336
  695MOL0     C93728  14.021   5.578   1.654  0.5274 -0.5495  0.4071
  695MOL0     C93729  14.090   5.704   1.696 -0.9692 -1.3344  0.5627
  695MOL0     C93730  14.149   5.700   1.850  0.0866 -0.0709  0.6414
  695MOL0     C93731  14.274   5.613   1.870 -0.3824 -0.1971 -0.4077
  695MOL0     C93732  14.324   5.631   2.017  0.6177  0.8237  0.3349
  695MOL0     C93733  14.455   5.559   2.039  0.1089  0.7627 -0.0934
  695MOL0    Cl93734  14.524   5.596   2.199 -0.5098 -0.2779 -0.5519
  695MOL0     C93735  13.619   5.497   1.218  0.1911  0.2046  0.3548
  695MOL0     C93736  13.525   5.414   1.149  0.0684 -0.3601  0.0250
  695MOL0     O93737  13.525   5.020   1.121 -0.2055 -0.0509  0.0427
  695MOL0     C93738  13.204   5.037   0.959  0.0851 -0.0933  0.2151
  695MOL0     C93739  13.128   4.978   0.861 -0.4420 -0.6048 -0.4940
  695MOL0     N93740  12.815   4.357   0.525 -0.0331 -0.0005  0.0506
  695MOL0     N93741  12.691   4.338   0.542  0.4014  0.0184  0.1889
  695MOL0     C93742  11.546   4.064  -0.048  0.1497 -0.2172  0.0425
  695MOL0     C93743  11.472   3.953  -0.064 -0.8674  0.0376 -0.6302
  695MOL0     C93744  11.186   3.595   0.078 -0.2528 -0.1097  0.6016
  695MOL0     C93745  11.208   3.489   0.168  0.0388  0.4372  0.1818
  695MOL0     C93746  11.148   3.360   0.154  0.3532  0.1126  0.5097
  695MOL0     C93747  11.081   3.327   0.036 -0.1113 -0.7332 -1.0476
  695MOL0     O93748  11.034   3.211  -0.002 -0.3369 -0.1351 -0.2827
  695MOL0     C93749  11.048   3.099   0.085  0.5522  0.4112  0.0006
  695MOL0     C93750  10.971   2.976   0.017  0.1530  0.1203 -1.0279
  695MOL0     C93751  10.954   2.857   0.113  0.7424 -0.7433 -0.9906
  695MOL0     C93752  10.916   2.724   0.053  0.2581 -0.7270 -0.7891
  695MOL0     C93753  10.774   2.740  -0.011 -0.2637  0.9584 -0.7604
  695MOL0     C93754  10.659   2.736  -0.050  0.6125 -0.2856  0.3661
  695MOL0     C93755  11.064   3.430  -0.055  0.6238 -0.4910  0.4158
  695MOL0     C93756  11.107   3.563  -0.038 -0.0320 -0.7210  0.3991
  695MOL0     C93757  11.068   3.672  -0.144  0.7146 -1.1569 -1.2975
  695MOL0     H93758  11.305   3.959   0.228 -1.0066  0.4450 -1.5558
  695MOL0     H93759  11.474   4.141   0.267  3.0176 -1.3165  0.4776
  695MOL0     H93760  11.778   4.114   0.041 -1.1784 -0.5661  0.6775
  695MOL0     H93761  11.750   4.246  -0.070  1.6523 -0.1854  0.0539
  695MOL0     H93762  11.803   4.282   0.233  0.9054 -1.0690  0.7142
  695MOL0     H93763  11.827   4.408   0.116  4.2454  0.1636  1.4390
  695MOL0     H93764  12.034   4.310   0.035 -1.3895  2.5872  1.0120
  695MOL0     H93765  12.003   4.159   0.126 -1.8932 -1.0714 -2.2719
  695MOL0     H93766  12.036   4.454   0.231  3.5467 -0.1941  0.0627
  695MOL0     H93767  12.013   4.321   0.347  0.4334  2.1796 -0.1546
  695MOL0     H93768  12.224   4.229   0.246  0.7840  0.1759  1.8046
  695MOL0     H93769  12.234   4.372   0.142  1.2336 -0.8397 -0.3779
  695MOL0     H93770  12.253   4.514   0.347 -2.1562  0.3264  0.8504
  695MOL0     H93771  12.236   4.366   0.449  1.9816  1.8492  0.9071
  695MOL0     H93772  12.463   4.428   0.229 -1.3925  1.1292 -0.1718
  695MOL0     H93773  12.450   4.286   0.333  0.1176  0.4751  1.1720
  695MOL0     H93774  12.470   4.560   0.441  0.6653  0.0608  1.3637
  695MOL0     H93775  12.450   4.414   0.545  3.7638 -3.9770 -0.0681
  695MOL0     H93776  12.706   4.555   0.290 -3.6849 -0.5767 -1.9416
  695MOL0     H93777  13.013   4.412   0.290 -0.4095  1.4963 -0.7209
  695MOL0     H93778  12.958   4.576   0.307 -0.1530 -0.3506 -0.8077
  695MOL0     H93779  13.073   4.424   0.536  2.8085 -0.5570 -0.7827
  695MOL0     H93780  13.162   4.531   0.418  0.9685  0.3441  1.3613
  695MOL0     H93781  12.932   4.635   0.596  0.1329  1.8671  0.5581
  695MOL0     H93782  13.026   4.717   0.465  0.2427  1.1823  0.8592
  695MOL0     H93783  13.222   4.680   0.609 -1.2042 -1.0750  0.0454
  695MOL0     H93784  13.128   4.615   0.736  0.8783 -0.8606 -1.0853
  695MOL0     H93785  13.353   4.736   0.774 -0.6376  0.4430 -1.0631
  695MOL0     H93786  13.489   4.849   0.941 -0.8111 -2.1659  1.9636
  695MOL0     H93787  13.536   5.130   1.332 -3.7206  0.5070 -2.5584
  695MOL0     H93788  13.693   5.274   1.468 -3.2601 -4.9579 -0.8752
  695MOL0     H93789  13.819   5.435   1.571  0.1127  0.7602  1.9154
  695MOL0     H93790  13.922   5.409   1.431 -1.7791 -0.4396  1.6802
  695MOL0     H93791  14.017   5.633   1.440 -1.2083  4.4213  0.7234
  695MOL0     H93792  13.888   5.692   1.533  0.9143  0.9004  0.0948
  695MOL0     H93793  13.937   5.542   1.715 -1.6145  0.7972 -1.5440
  695MOL0     H93794  14.085   5.491   1.636  0.0014 -0.5999 -1.4866
  695MOL0     H93795  14.015   5.782   1.682 -0.0210 -0.6459 -0.8418
  695MOL0     H93796  14.174   5.715   1.628 -1.7758  1.7694 -0.0617
  695MOL0     H93797  14.063   5.654   1.900 -1.0668 -0.1070 -1.2372
  695MOL0     H93798  14.171   5.799   1.891  2.6732  0.2960 -1.3625
  695MOL0     H93799  14.249   5.510   1.843  3.0781  0.2306 -7.8636
  695MOL0     H93800  14.344   5.648   1.793 -1.1472 -1.5101 -1.7562
  695MOL0     H93801  14.248   5.579   2.076  3.4657 -1.7357  2.0403
  695MOL0     H93802  14.319   5.733   2.056  0.4155  0.5005  1.1865
  695MOL0     H93803  14.450   5.451   2.022 -4.0025  0.6690  0.6614
  695MOL0     H93804  14.533   5.578   1.964  0.2033 -0.1684 -0.2493
  695MOL0     H93805  13.622   5.602   1.190 -0.6980  0.4863  1.2761
  695MOL0     H93806  13.463   5.454   1.068 -0.0441 -0.2870  0.1475
  695MOL0     H93807  13.169   5.127   1.010  0.0706 -2.3444  4.7094
  695MOL0     H93808  13.028   5.020   0.853  0.0881  1.2063  1.4998
  695MOL0     H93809  11.602   4.099  -0.135 -0.1902 -2.9553 -1.3996
  695MOL0     H93810  11.488   3.894  -0.154 -0.3031 -0.3140 -0.3059
  695MOL0     H93811  11.272   3.502   0.255  2.0011 -0.4811 -1.0387
  695MOL0     H93812  11.166   3.285   0.231 -0.8768  0.2017  0.8985
  695MOL0     H93813  11.006   3.116   0.184 -1.1424 -2.4257 -0.1073
  695MOL0     H93814  11.155   3.077   0.095  1.1837  2.6594 -1.2076
  695MOL0     H93815  11.031   2.934  -0.064 -0.6658 -1.6503 -0.7684
  695MOL0     H93816  10.867   2.998  -0.007 -0.6340  0.9440  2.5334
  695MOL0     H93817  10.894   2.879   0.202  2.4430 -0.1478  0.0638
  695MOL0     H93818  11.048   2.829   0.161  0.0139 -5.1705 -1.7310
  695MOL0     H93819  10.994   2.685  -0.014 -0.1439 -1.5751 -0.7732
  695MOL0     H93820  10.908   2.656   0.138 -0.3482  0.6076  0.2452
  695MOL0     H93821  10.567   2.721  -0.102  1.1703 -1.9482 -0.2301
  695MOL0     H93822  11.019   3.403  -0.150 -0.3628  2.2457 -0.0023
  695MOL0     H93823  10.974   3.638  -0.187 -0.6611 -0.8427  1.2713
  695MOL0     H93824  11.053   3.763  -0.085  1.1319 -2.7192  1.4347
  695MOL0     H93825  11.147   3.687  -0.217  2.0159  0.5884  0.3596
  696MOL0     O93826   4.776   9.830   5.671  0.1122  0.1626 -0.2167
  696MOL0     C93827   4.761   9.872   5.551  0.4844 -0.2352 -0.1100
  696MOL0     O93828   4.858   9.928   5.470 -0.8412  0.6618  0.1780
  696MOL0     C93829   4.949   9.998   5.542  1.0128 -0.6255 -0.8525
  696MOL0     C93830   4.899  10.090   5.639  0.7772  0.5812  0.8633
  696MOL0     C93831   4.990  10.179   5.706  0.3450  0.0079  0.5445
  696MOL0     C93832   5.130  10.153   5.688 -0.0139 -0.2112  0.5990
  696MOL0     O93833   5.231  10.217   5.764 -0.2297 -0.7642 -0.7243
  696MOL0     C93834   5.197  10.264   5.894 -0.1943  0.4664 -1.1317
  696MOL0     C93835   5.163  10.420   5.900  0.2552  0.4250 -0.4653
  696MOL0     C93836   5.280  10.514   5.877  0.1338 -0.5653 -0.1995
  696MOL0     C93837   5.359  10.533   6.004  0.3610  0.1744 -0.5701
  696MOL0     C93838   5.481  10.635   5.990  0.2106  0.6897 -0.0583
  696MOL0     C93839   5.594  10.596   5.900  0.4193 -0.1596 -0.4872
  696MOL0     C93840   5.693  10.709   5.883  0.0928  0.6856  0.7347
  696MOL0     C93841   5.764  10.738   6.017 -0.4287  0.3889  0.0082
  696MOL0     N93842   5.875  10.820   5.984 -0.6081  0.1194 -0.1055
  696MOL0     C93843   5.995  10.779   5.923 -0.2073 -0.5791  0.1442
  696MOL0     C93844   6.073  10.893   5.926 -0.5127 -1.1800 -0.3925
  696MOL0     C93845   6.220  10.896   5.890  0.4930 -0.5216 -0.9334
  696MOL0     C93846   6.261  11.005   5.791  0.5966 -0.8094  0.7665
  696MOL0     C93847   6.414  11.002   5.776  0.0383 -0.1713  0.1296
  696MOL0     C93848   6.459  11.083   5.662  0.3659  0.2962  1.1074
  696MOL0     O93849   6.528  11.006   5.563 -0.3106  0.2160 -0.2313
  696MOL0     C93850   6.624  11.063   5.484  0.7283  0.2217  0.1554
  696MOL0     C93851   6.714  10.972   5.421 -0.0578  0.7151  0.8695
  696MOL0     C93852   6.818  11.019   5.329  0.6331 -0.6645 -0.2141
  696MOL0     C93853   6.850  11.158   5.330 -0.1072  0.0556  0.3020
  696MOL0     C93854   6.964  11.213   5.248 -0.2857 -0.5319 -0.4046
  696MOL0     O93855   7.050  11.120   5.198  0.4045  0.6552  0.1458
  696MOL0     C93856   7.163  11.157   5.135  0.0101  0.8656  0.7276
  696MOL0     C93857   7.250  11.247   5.195  0.0047  0.5754  0.4876
  696MOL0     C93858   7.366  11.279   5.119  0.2231  0.9466 -0.6040
  696MOL0     C93859   7.384  11.247   4.988  0.9089 -0.4386  1.0632
  696MOL0     O93860   7.483  11.290   4.906 -0.6809 -0.0588 -0.1610
  696MOL0     C93861   7.614  11.281   4.959 -0.2160  0.0593  0.5673
  696MOL0     C93862   7.712  11.358   4.870  0.1152  1.2912 -0.8850
  696MOL0     C93863   7.855  11.357   4.927 -0.7554 -0.2139 -0.1275
  696MOL0     C93864   7.950  11.466   4.871  0.1808 -0.1106 -0.2231
  696MOL0     C93865   8.097  11.461   4.927 -0.2429 -0.8321 -0.5003
  696MOL0     C93866   8.189  11.569   4.873 -0.3994  0.0154 -0.1038
  696MOL0     C93867   8.350  11.553   4.893  0.0162  1.3442  0.5771
  696MOL0     C93868   8.419  11.460   4.787 -0.7985 -0.1619 -0.5466
  696MOL0    Cl93869   8.423  11.296   4.839 -0.3452  0.2372 -0.0243
  696MOL0     C93870   7.294  11.152   4.937  0.1471 -0.6027 -0.1871
  696MOL0     C93871   7.187  11.104   5.012 -0.5994 -0.2040  0.5314
  696MOL0     O93872   6.976  11.328   5.235 -0.4506 -0.3375 -1.0543
  696MOL0     C93873   6.770  11.236   5.407 -0.0285 -0.7007 -0.7319
  696MOL0     C93874   6.661  11.190   5.479  0.4383  0.3022  0.6293
  696MOL0     N93875   5.989  10.994   5.974  0.7078 -0.6073  0.1488
  696MOL0     N93876   5.873  10.951   5.994  0.1277 -0.1341 -0.3547
  696MOL0     C93877   5.176  10.057   5.592 -0.3499  0.8213 -0.4559
  696MOL0     C93878   5.084   9.991   5.516  0.8652 -0.2317  1.2328
  696MOL0     C93879   4.629   9.842   5.487  1.3931  0.3666  0.5078
  696MOL0     C93880   4.626   9.826   5.349 -0.2617  0.4672 -0.7594
  696MOL0     C93881   4.504   9.816   5.279 -1.0293  0.0311 -0.7031
  696MOL0     C93882   4.386   9.796   5.348 -0.4468 -0.0589 -0.0236
  696MOL0     O93883   4.277   9.766   5.270  0.3250 -0.4395  0.2429
  696MOL0     C93884   4.150   9.791   5.325  0.8266 -0.0191 -0.0112
  696MOL0     C93885   4.082   9.865   5.208 -1.1609 -0.0693 -0.0166
  696MOL0     C93886   3.934   9.903   5.221  0.0392  0.5909 -0.5867
  696MOL0     C93887   3.917  10.005   5.337 -0.1079 -0.0899 -0.0025
  696MOL0     C93888   3.951  10.144   5.304 -0.5653 -0.1389  0.4714
  696MOL0     C93889   3.973  10.260   5.275  0.8268 -0.2328  0.1376
  696MOL0     C93890   4.391   9.798   5.492  0.2628 -0.2750 -0.9651
  696MOL0     C93891   4.504   9.848   5.561  0.3329  0.6226  0.4828
  696MOL0     C93892   4.487   9.894   5.699  0.0080 -0.1234  0.1828
  696MOL0     H93893   4.792  10.091   5.656 -0.0595 -0.5824 -3.2953
  696MOL0     H93894   4.951  10.251   5.777  0.1131  1.4515 -0.9711
  696MOL0     H93895   5.117  10.207   5.942 -0.8128  1.2342 -1.2345
  696MOL0     H93896   5.280  10.246   5.962 -3.3802 -1.1105  2.7568
  696MOL0     H93897   5.115  10.440   5.996  0.9607  1.9597 -0.4144
  696MOL0     H93898   5.086  10.431   5.823 -1.2009 -0.4273  0.8052
  696MOL0     H93899   5.264  10.615   5.839  0.3716 -0.1679  0.7359
  696MOL0     H93900   5.337  10.463   5.798 -2.3431  2.4472 -4.3502
  696MOL0     H93901   5.293  10.582   6.077 -0.5809 -0.1700 -1.1619
  696MOL0     H93902   5.384  10.443   6.061  1.4621 -1.2676 -3.1422
  696MOL0     H93903   5.434  10.732   5.968 -1.7890 -0.3500 -0.5982
  696MOL0     H93904   5.522  10.641   6.091  0.8570 -1.0898 -0.1767
  696MOL0     H93905   5.636  10.501   5.935 -0.7954  0.4364  2.9849
  696MOL0     H93906   5.562  10.573   5.798 -0.7263 -1.9172  0.2111
  696MOL0     H93907   5.645  10.802   5.851  0.0760 -0.1082 -1.7714
  696MOL0     H93908   5.767  10.676   5.810 -1.6904 -0.3277 -0.7124
  696MOL0     H93909   5.701  10.795   6.086  0.0854  2.5715 -1.2357
  696MOL0     H93910   5.790  10.645   6.068  1.7382  1.7283  1.4584
  696MOL0     H93911   6.031  10.679   5.900 -0.3574 -0.4637 -0.6289
  696MOL0     H93912   6.269  10.920   5.985 -1.5989  0.6143 -0.0718
  696MOL0     H93913   6.239  10.794   5.855  1.0723 -0.4477 -0.8398
  696MOL0     H93914   6.215  10.974   5.696  1.5939  0.4930 -0.1732
  696MOL0     H93915   6.227  11.104   5.823  0.8604 -0.3468 -0.3261
  696MOL0     H93916   6.436  10.895   5.764  1.1891 -0.0475  1.0095
  696MOL0     H93917   6.470  11.032   5.865 -2.6705  5.5615  0.3424
  696MOL0     H93918   6.528  11.158   5.702  0.0236  2.9318 -2.6979
  696MOL0     H93919   6.377  11.136   5.612  0.1313  0.0786  1.2628
  696MOL0     H93920   6.706  10.865   5.437 -1.9757  0.7102  0.0594
  696MOL0     H93921   6.879  10.945   5.278 -2.1829 -1.3422 -2.8804
  696MOL0     H93922   7.253  11.278   5.299  0.7543 -1.7173  1.2222
  696MOL0     H93923   7.438  11.343   5.169 -0.5233  0.5320  1.0851
  696MOL0     H93924   7.619  11.313   5.064 -0.0751 -1.8779  1.2067
  696MOL0     H93925   7.636  11.174   4.968  0.2968  0.1418  0.3073
  696MOL0     H93926   7.715  11.317   4.769 -2.6105 -3.4355  0.6523
  696MOL0     H93927   7.680  11.463   4.876  1.8187  1.7738  1.4378
  696MOL0     H93928   7.842  11.372   5.035  1.2519  0.1176  0.1075
  696MOL0     H93929   7.908  11.263   4.915 -0.7620 -0.2598  0.1905
  696MOL0     H93930   7.910  11.567   4.883 -2.5635 -1.1352 -0.1614
  696MOL0     H93931   7.960  11.459   4.762  0.6309 -1.8338 -0.1105
  696MOL0     H93932   8.148  11.374   4.883  2.5981  1.4154 -2.0289
  696MOL0     H93933   8.105  11.475   5.035  0.6339  2.9306 -0.9161
  696MOL0     H93934   8.172  11.583   4.766 -0.0254 -1.5832 -0.3966
  696MOL0     H93935   8.163  11.663   4.923  0.7521  1.3564 -1.8924
  696MOL0     H93936   8.375  11.519   4.994  3.0778 -1.0458 -0.8073
  696MOL0     H93937   8.387  11.654   4.874 -2.2304  2.5827  2.2217
  696MOL0     H93938   8.398  11.466   4.680  0.8603 -2.2201 -1.0630
  696MOL0     H93939   8.526  11.480   4.792 -0.6007 -0.1811 -3.2778
  696MOL0     H93940   7.294  11.130   4.831 -0.1048 -1.5792  0.0007
  696MOL0     H93941   7.107  11.039   4.978 -1.5080  0.8667  0.5756
  696MOL0     H93942   6.810  11.332   5.436  2.1802 -1.9432  0.6018
  696MOL0     H93943   6.620  11.262   5.549  3.1575  1.8604  0.7499
  696MOL0     H93944   5.281  10.043   5.569 -0.6038  3.0648 -3.5218
  696MOL0     H93945   5.122   9.928   5.436  1.6174 -2.4844  3.2329
  696MOL0     H93946   4.719   9.841   5.295 -0.9916  0.8056 -1.9747
  696MOL0     H93947   4.511   9.819   5.171 -2.0783  0.4941 -0.7769
  696MOL0     H93948   4.162   9.853   5.414  1.0408 -2.3155  1.6569
  696MOL0     H93949   4.107   9.694   5.351  0.6590  0.3697  1.1912
  696MOL0     H93950   4.072   9.797   5.122 -2.6409  0.4678 -0.2901
  696MOL0     H93951   4.145   9.948   5.173  1.4709 -3.3347 -4.1733
  696MOL0     H93952   3.866   9.820   5.242 -0.5623  1.1318 -0.3449
  696MOL0     H93953   3.908   9.934   5.120  2.1158 -1.4636 -1.8534
  696MOL0     H93954   3.812  10.015   5.365 -0.3171 -0.0545 -0.7869
  696MOL0     H93955   3.981   9.981   5.423  1.3335  2.5355 -0.1988
  696MOL0     H93956   3.992  10.365   5.273  0.2338 -0.1231 -0.0521
  696MOL0     H93957   4.302   9.787   5.554 -0.0417  2.5338 -0.7611
  696MOL0     H93958   4.390   9.871   5.744  0.7250  0.6085  2.2267
  696MOL0     H93959   4.560   9.836   5.757  1.2915 -2.1448 -3.1199
  696MOL0     H93960   4.512  10.000   5.706  2.5975 -0.5822 -0.8013
  697MOL0     O93961   2.164   0.568   8.241  1.2814  0.5593  0.2219
  697MOL0     C93962   2.237   0.588   8.149  0.1335 -0.7495 -0.0702
  697MOL0     O93963   2.359   0.523   8.122  0.6989 -0.8680 -0.2407
  697MOL0     C93964   2.414   0.438   8.211  0.8734  0.3356  0.0121
  697MOL0     C93965   2.467   0.479   8.333  1.3201 -0.5707 -0.2971
  697MOL0     C93966   2.489   0.380   8.426 -1.2163 -0.1711 -0.0729
  697MOL0     C93967   2.480   0.245   8.403 -0.5334  0.1254  0.5796
  697MOL0     O93968   2.519   0.167   8.510  0.1140  0.2355  0.1238
  697MOL0     C93969   2.507   0.025   8.494 -0.2989 -0.5628  0.5130
  697MOL0     C93970   2.548  -0.040   8.623  0.2831  0.6980  0.0093
  697MOL0     C93971   2.524  -0.189   8.611  0.0992  0.4342  0.6831
  697MOL0     C93972   2.596  -0.272   8.721  0.6131  0.8581 -0.0975
  697MOL0     C93973   2.540  -0.418   8.727 -0.7387 -0.5902 -0.1061
  697MOL0     C93974   2.602  -0.505   8.829 -0.7466 -0.3666  0.0957
  697MOL0     C93975   2.567  -0.641   8.811 -0.2634  0.0329  0.6827
  697MOL0     C93976   2.605  -0.737   8.928 -0.2808 -0.2632 -0.8080
  697MOL0     N93977   2.752  -0.765   8.943 -0.7079  0.2802  0.0316
  697MOL0     C93978   2.838  -0.817   8.844 -0.8998 -0.0278 -0.4746
  697MOL0     C93979   2.961  -0.819   8.908  0.8402  0.8625 -0.7890
  697MOL0     C93980   3.084  -0.866   8.843  0.1759 -0.6381 -0.3346
  697MOL0     C93981   3.204  -0.799   8.909  1.1732 -0.3806  0.6085
  697MOL0     C93982   3.329  -0.810   8.837  0.6515  0.2449 -0.5552
  697MOL0     C93983   3.395  -0.951   8.855  0.1983  0.2669 -0.1320
  697MOL0     O93984   3.320  -1.043   8.784 -0.2876  0.2814 -0.0949
  697MOL0     C93985   3.355  -1.174   8.813 -0.0297 -1.1747 -0.3610
  697MOL0     C93986   3.473  -1.233   8.772 -0.1750  0.7091  0.4870
  697MOL0     C93987   3.496  -1.370   8.789 -0.1386 -0.2418 -0.3752
  697MOL0     C93988   3.412  -1.452   8.868  1.1896 -0.2328  0.4213
  697MOL0     C93989   3.442  -1.594   8.887 -0.1518  0.1881  0.1616
  697MOL0     O93990   3.329  -1.676   8.888 -0.1410 -0.1783  0.4903
  697MOL0     C93991   3.344  -1.807   8.935 -0.4934 -0.5188 -0.0116
  697MOL0     C93992   3.344  -1.831   9.079  0.3027 -0.0227 -0.4996
  697MOL0     C93993   3.360  -1.963   9.133 -0.2432 -0.4927 -0.4034
  697MOL0     C93994   3.381  -2.063   9.046 -1.1485  0.9633  1.7691
  697MOL0     O93995   3.372  -2.192   9.095  0.1332 -1.1263  0.3153
  697MOL0     C93996   3.340  -2.302   9.006 -0.3202 -0.6071  1.1247
  697MOL0     C93997   3.303  -2.423   9.093  0.7525  0.4019  0.5372
  697MOL0     C93998   3.254  -2.537   8.997 -0.0103 -0.8404  0.5363
  697MOL0     C93999   3.160  -2.632   9.071  0.4147 -0.3908  0.0705
  697MOL0     C94000   3.136  -2.754   8.992  1.0980 -0.0210  0.2879
  697MOL0     C94001   3.002  -2.832   9.026  0.1939  0.0037  0.9579
  697MOL0     C94002   2.977  -2.830   9.179 -0.2775 -0.1261  0.6392
  697MOL0     C94003   2.894  -2.938   9.239  0.8877 -1.4073 -0.8483
  697MOL0    Cl94004   2.995  -3.093   9.243 -0.7175  0.4073  0.0073
  697MOL0     C94005   3.394  -2.042   8.904  0.6074 -1.3545  0.1146
  697MOL0     C94006   3.372  -1.916   8.850 -0.0556 -0.2564 -0.6748
  697MOL0     O94007   3.562  -1.627   8.908  0.5230 -0.1862 -0.0414
  697MOL0     C94008   3.306  -1.386   8.918 -0.6519 -0.6581 -0.6082
  697MOL0     C94009   3.268  -1.252   8.896 -0.9478 -0.0294  0.4015
  697MOL0     N94010   2.948  -0.777   9.039 -0.0900  0.3311 -0.0555
  697MOL0     N94011   2.820  -0.744   9.063 -0.3371 -0.1473  0.1745
  697MOL0     C94012   2.444   0.203   8.276  0.5885  0.5773 -0.3108
  697MOL0     C94013   2.402   0.297   8.176  1.0170  0.3652 -0.3777
  697MOL0     C94014   2.190   0.702   8.054  0.6698  0.5284  0.1683
  697MOL0     C94015   2.187   0.676   7.914  0.7241 -0.4275  0.9894
  697MOL0     C94016   2.154   0.780   7.827  0.0577  0.3642 -0.4037
  697MOL0     C94017   2.128   0.906   7.867 -0.1216 -0.5897 -0.0303
  697MOL0     O94018   2.121   1.002   7.764  0.4871  0.2863  0.4613
  697MOL0     C94019   2.092   1.141   7.789  0.1651  0.1340 -0.0126
  697MOL0     C94020   1.951   1.164   7.832 -1.1335  0.0463  0.2027
  697MOL0     C94021   1.839   1.122   7.740  1.0510  0.1596  0.8268
  697MOL0     C94022   1.703   1.162   7.799 -0.5231  0.0474 -0.0074
  697MOL0     C94023   1.676   1.306   7.798 -0.3800 -0.2962  0.3460
  697MOL0     C94024   1.666   1.427   7.802 -0.3091  0.3434  0.4639
  697MOL0     C94025   2.128   0.929   8.003 -0.0546 -0.0362  0.2537
  697MOL0     C94026   2.155   0.828   8.100  1.2058 -0.4510  1.2405
  697MOL0     C94027   2.146   0.859   8.244 -0.1983  0.1691 -0.7278
  697MOL0     H94028   2.477   0.585   8.354 -0.8272 -0.1773 -0.9744
  697MOL0     H94029   2.511   0.410   8.528 -1.3924  4.1194 -1.0909
  697MOL0     H94030   2.408  -0.012   8.467 -1.4480  2.5374  0.0834
  697MOL0     H94031   2.586  -0.002   8.423 -1.3470  1.7377 -1.7048
  697MOL0     H94032   2.490   0.004   8.704  1.8798  0.2645  1.4330
  697MOL0     H94033   2.654  -0.022   8.641  0.7384  0.9354 -2.4868
  697MOL0     H94034   2.565  -0.228   8.518  1.0317 -1.0242  1.6702
  697MOL0     H94035   2.416  -0.211   8.605  0.1465  0.4218 -0.4666
  697MOL0     H94036   2.704  -0.273   8.704  0.9513 -3.3603  1.0092
  697MOL0     H94037   2.584  -0.226   8.820  0.3587 -0.2989  0.4359
  697MOL0     H94038   2.432  -0.417   8.744 -0.6234 -0.7341  0.6964
  697MOL0     H94039   2.551  -0.460   8.626  0.5889 -0.2419 -0.1206
  697MOL0     H94040   2.709  -0.506   8.810 -1.0066 -2.0392 -1.6020
  697MOL0     H94041   2.582  -0.460   8.927  2.8820  1.0447  0.3399
  697MOL0     H94042   2.605  -0.673   8.714  1.0564  1.7250  0.6004
  697MOL0     H94043   2.458  -0.638   8.802 -0.2475  2.8018  0.7420
  697MOL0     H94044   2.560  -0.677   9.008  1.9307 -0.4507  0.6718
  697MOL0     H94045   2.547  -0.828   8.907 -4.4581  2.3855 -2.0316
  697MOL0     H94046   2.821  -0.843   8.739  0.0730  2.2325 -1.2448
  697MOL0     H94047   3.089  -0.974   8.860  2.6934 -0.5190 -0.0096
  697MOL0     H94048   3.073  -0.847   8.736  2.6247  0.3297 -0.4754
  697MOL0     H94049   3.188  -0.691   8.914 -0.8870 -0.6869  2.5983
  697MOL0     H94050   3.213  -0.832   9.013  2.2836 -2.2401 -0.0222
  697MOL0     H94051   3.395  -0.730   8.872  0.3363 -0.1060  0.8950
  697MOL0     H94052   3.320  -0.791   8.729 -2.2613  3.1432  0.0450
  697MOL0     H94053   3.410  -0.974   8.961 -0.2495  1.1621  0.1319
  697MOL0     H94054   3.497  -0.949   8.815  1.5578  0.7067  3.0424
  697MOL0     H94055   3.546  -1.169   8.724  2.3697  0.4265  3.6397
  697MOL0     H94056   3.587  -1.417   8.754 -0.3290 -1.5746  0.8268
  697MOL0     H94057   3.320  -1.745   9.139  3.2590  0.3359  0.3568
  697MOL0     H94058   3.325  -1.990   9.232  0.2146  0.0945 -0.0736
  697MOL0     H94059   3.262  -2.274   8.935  0.8824 -0.9982 -0.3919
  697MOL0     H94060   3.433  -2.319   8.950  0.4341  1.4555  1.6178
  697MOL0     H94061   3.384  -2.468   9.151  0.8742 -1.0818 -0.7354
  697MOL0     H94062   3.232  -2.401   9.173  0.4100 -0.4435  0.4805
  697MOL0     H94063   3.208  -2.488   8.911 -0.5079  0.9210  1.7480
  697MOL0     H94064   3.334  -2.599   8.956 -0.8968 -1.9445  0.4378
  697MOL0     H94065   3.067  -2.575   9.081  1.0748  0.7268  0.0421
  697MOL0     H94066   3.212  -2.663   9.162  2.9264 -3.0648 -2.0917
  697MOL0     H94067   3.227  -2.815   8.989  2.3247  1.7881 -1.0307
  697MOL0     H94068   3.132  -2.719   8.888 -0.3974  0.4885  0.4957
  697MOL0     H94069   2.920  -2.787   8.969 -0.2563 -1.3579  0.4774
  697MOL0     H94070   2.996  -2.933   8.985 -0.5149 -0.1091  1.3265
  697MOL0     H94071   2.943  -2.730   9.210  3.9495  1.0056  2.3957
  697MOL0     H94072   3.073  -2.833   9.232 -0.4924 -1.6998  0.9809
  697MOL0     H94073   2.867  -2.905   9.340 -0.6356 -1.7424 -1.1315
  697MOL0     H94074   2.802  -2.938   9.180  1.2221  0.9543 -1.4756
  697MOL0     H94075   3.402  -2.124   8.832  4.4330 -0.8798 -0.2301
  697MOL0     H94076   3.362  -1.892   8.745  1.0101  1.9911 -0.3223
  697MOL0     H94077   3.242  -1.454   8.975 -0.3798  0.9113  1.6810
  697MOL0     H94078   3.185  -1.192   8.933 -0.8815  0.0449  0.4282
  697MOL0     H94079   2.450   0.096   8.256  0.8569  0.1951  1.5621
  697MOL0     H94080   2.371   0.260   8.079  0.6211  0.6853 -0.3749
  697MOL0     H94081   2.210   0.576   7.880 -0.7756 -0.3858 -0.2282
  697MOL0     H94082   2.131   0.756   7.724 -1.7325  0.4627 -0.0685
  697MOL0     H94083   2.104   1.194   7.694 -0.7323 -0.0251 -0.2263
  697MOL0     H94084   2.157   1.175   7.869  0.3836  0.7614 -0.4496
  697MOL0     H94085   1.937   1.272   7.843  0.5691  0.2726  0.4077
  697MOL0     H94086   1.931   1.138   7.936 -5.7271  2.2703  0.1295
  697MOL0     H94087   1.847   1.015   7.714 -1.9485  0.1283 -0.4758
  697MOL0     H94088   1.846   1.176   7.645  0.1546  2.3541  1.9573
  697MOL0     H94089   1.629   1.123   7.728 -1.2282  1.3216  0.0154
  697MOL0     H94090   1.686   1.109   7.893 -1.2776 -1.0533 -0.7311
  697MOL0     H94091   1.648   1.532   7.809  0.1478  0.4171  0.5537
  697MOL0     H94092   2.100   1.026   8.042  1.9522  0.6780  0.0645
  697MOL0     H94093   2.106   0.961   8.248  0.8162  0.8425 -4.2256
  697MOL0     H94094   2.076   0.789   8.290  1.1087 -1.0442 -0.5337
  697MOL0     H94095   2.244   0.863   8.293 -0.6147 -1.7283  0.3760
  698MOL0     O94096  11.284  10.550   0.995  0.7172  1.1083  0.0082
  698MOL0     C94097  11.309  10.537   1.115 -0.0811  0.3647  0.3787
  698MOL0     O94098  11.443  10.543   1.167  0.1578  0.0995 -0.1074
  698MOL0     C94099  11.542  10.538   1.076 -1.0341 -0.6738 -0.1958
  698MOL0     C94100  11.587  10.663   1.036 -0.7252  0.0863  0.2496
  698MOL0     C94101  11.690  10.673   0.943  0.5467  0.1302  0.3016
  698MOL0     C94102  11.759  10.558   0.906 -0.4988  0.6513 -0.5008
  698MOL0     O94103  11.860  10.557   0.816 -0.5927 -0.3592 -0.5460
  698MOL0     C94104  11.835  10.553   0.678  0.9280  0.8662  0.1195
  698MOL0     C94105  11.949  10.590   0.584  0.1590 -0.2878  0.7299
  698MOL0     C94106  11.982  10.736   0.587  0.9321 -0.5332 -0.2125
  698MOL0     C94107  12.074  10.775   0.711  0.7365  0.3677 -0.1106
  698MOL0     C94108  12.137  10.917   0.712 -0.3977  0.3541  0.3688
  698MOL0     C94109  12.235  10.942   0.591  0.2534  0.0802 -0.2373
  698MOL0     C94110  12.274  11.093   0.581  0.4495  0.9159  0.6296
  698MOL0     C94111  12.379  11.120   0.687  0.5984  0.5273 -0.2026
  698MOL0     N94112  12.434  11.246   0.677 -0.3286 -0.0052  0.5667
  698MOL0     C94113  12.361  11.366   0.679 -0.2766  0.3017  0.3089
  698MOL0     C94114  12.446  11.463   0.641 -0.0865 -0.5673 -0.2834
  698MOL0     C94115  12.421  11.612   0.630  0.6449  0.7630 -0.1475
  698MOL0     C94116  12.493  11.681   0.748  0.2355 -0.1014  0.4230
  698MOL0     C94117  12.617  11.761   0.693  0.3937 -0.5083  0.1997
  698MOL0     C94118  12.697  11.829   0.803  0.4109 -0.5833 -1.1713
  698MOL0     O94119  12.625  11.935   0.866  0.1300 -0.2129 -0.3315
  698MOL0     C94120  12.687  12.009   0.964 -0.0022  0.1782 -0.0788
  698MOL0     C94121  12.625  12.123   1.018 -0.2512 -0.4056  0.4281
  698MOL0     C94122  12.675  12.197   1.131 -0.9651 -0.1421  0.4127
  698MOL0     C94123  12.801  12.155   1.185 -0.0792 -0.1631  0.1894
  698MOL0     C94124  12.849  12.232   1.315  0.0742  1.3004  0.7465
  698MOL0     O94125  12.963  12.178   1.354  0.3491 -0.0118 -0.6269
  698MOL0     C94126  13.028  12.223   1.467  0.0199  0.2852  0.2282
  698MOL0     C94127  13.031  12.353   1.508  0.5083  0.9624 -0.8178
  698MOL0     C94128  13.083  12.388   1.637 -0.2556  0.7908 -0.1893
  698MOL0     C94129  13.138  12.290   1.726 -0.5930 -0.1844 -0.9890
  698MOL0     O94130  13.195  12.330   1.840 -0.4385 -0.4166  0.5889
  698MOL0     C94131  13.319  12.379   1.823  0.5139 -0.6908  0.0157
  698MOL0     C94132  13.328  12.514   1.900 -0.4992  0.7371  0.3831
  698MOL0     C94133  13.476  12.556   1.906  0.3316 -0.4855 -0.1953
  698MOL0     C94134  13.492  12.693   1.845 -1.0960  0.7195 -0.6396
  698MOL0     C94135  13.644  12.725   1.830 -0.5702 -0.0055 -0.4879
  698MOL0     C94136  13.661  12.866   1.780 -0.1053 -0.3559  0.1676
  698MOL0     C94137  13.808  12.906   1.777 -0.4358 -0.5525  1.5374
  698MOL0     C94138  13.889  12.907   1.910  0.2112 -0.5380  0.3366
  698MOL0    Cl94139  14.029  13.017   1.905  0.5436 -0.3823 -0.0998
  698MOL0     C94140  13.153  12.157   1.680  0.6646  0.2802  1.2793
  698MOL0     C94141  13.092  12.123   1.546 -0.4142  0.4004  0.2534
  698MOL0     O94142  12.792  12.328   1.358  0.2918  0.0689  0.2095
  698MOL0     C94143  12.859  12.043   1.132  0.1889  0.2764  0.6293
  698MOL0     C94144  12.806  11.969   1.020  0.3741  0.2217  0.1381
  698MOL0     N94145  12.571  11.397   0.629  0.2229 -0.2945  0.1641
  698MOL0     N94146  12.565  11.274   0.651 -0.3279 -0.1018 -0.2820
  698MOL0     C94147  11.717  10.433   0.952  0.4569  0.2384 -0.8367
  698MOL0     C94148  11.612  10.423   1.043  0.1147 -0.2795  0.5171
  698MOL0     C94149  11.188  10.503   1.195 -0.5917  0.0895  1.2003
  698MOL0     C94150  11.086  10.592   1.197  0.1089  0.6991  0.4536
  698MOL0     C94151  10.969  10.565   1.274  0.2768 -0.4559  0.0405
  698MOL0     C94152  10.958  10.451   1.351  0.4759  0.6929 -0.5984
  698MOL0     O94153  10.834  10.442   1.408  0.0758 -0.4469  0.1578
  698MOL0     C94154  10.782  10.325   1.465 -0.6919  0.2349  0.6742
  698MOL0     C94155  10.632  10.356   1.493  0.3822 -0.1452 -0.6580
  698MOL0     C94156  10.560  10.263   1.608  0.1942  0.1281  0.6225
  698MOL0     C94157  10.419  10.319   1.653  1.7983  0.9542 -0.3074
  698MOL0     C94158  10.336  10.330   1.531  0.2589  0.4130 -0.1347
  698MOL0     C94159  10.281  10.358   1.427 -0.0558  0.0688 -0.0335
  698MOL0     C94160  11.060  10.357   1.340  0.0833  1.1440  0.5210
  698MOL0     C94161  11.177  10.379   1.262  0.6090 -0.7578  0.1128
  698MOL0     C94162  11.286  10.283   1.273 -1.2105  0.0119  0.5154
  698MOL0     H94163  11.535  10.752   1.069  0.4234  1.3839 -1.3038
  698MOL0     H94164  11.718  10.769   0.902 -0.6857  1.2236  1.9032
  698MOL0     H94165  11.796  10.458   0.640 -2.5523  2.2793 -0.2509
  698MOL0     H94166  11.749  10.620   0.671 -0.0798 -0.3836  0.1724
  698MOL0     H94167  11.922  10.571   0.480  1.0526  1.4525  0.1464
  698MOL0     H94168  12.037  10.526   0.598 -1.7344 -3.5727 -1.3135
  698MOL0     H94169  11.891  10.797   0.587  1.8010  0.8186 -0.5898
  698MOL0     H94170  12.028  10.751   0.489  0.0203  2.4258 -0.2968
  698MOL0     H94171  12.004  10.773   0.795  0.1210  2.6846 -0.5244
  698MOL0     H94172  12.152  10.700   0.728  0.1849 -0.1652  0.1343
  698MOL0     H94173  12.055  10.989   0.704  1.4751  2.7839  1.8714
  698MOL0     H94174  12.187  10.943   0.805  0.2869 -1.3601  0.5216
  698MOL0     H94175  12.328  10.885   0.594 -0.4605 -1.0805  1.4887
  698MOL0     H94176  12.173  10.910   0.506 -2.3148  0.8746  1.2164
  698MOL0     H94177  12.178  11.145   0.590 -0.4762  0.6692 -4.5582
  698MOL0     H94178  12.307  11.108   0.477 -2.2882 -0.7841 -0.6029
  698MOL0     H94179  12.338  11.096   0.785  2.6453  4.0206  1.7033
  698MOL0     H94180  12.459  11.049   0.666 -0.0188  0.4758 -2.6670
  698MOL0     H94181  12.260  11.394   0.705 -1.4615  0.5869 -3.9542
  698MOL0     H94182  12.463  11.645   0.534 -0.2940 -2.0941 -1.6571
  698MOL0     H94183  12.314  11.632   0.628  0.6769  0.9842  0.2551
  698MOL0     H94184  12.424  11.761   0.778 -1.3133  0.6355 -4.3377
  698MOL0     H94185  12.516  11.624   0.839  1.1065  0.5192  0.6122
  698MOL0     H94186  12.588  11.831   0.615 -1.8033  1.2467  2.4468
  698MOL0     H94187  12.675  11.681   0.646 -1.2888 -0.7826 -1.4832
  698MOL0     H94188  12.795  11.859   0.763  0.9700  2.0728  1.7333
  698MOL0     H94189  12.728  11.762   0.883 -1.8158 -1.2463 -0.8137
  698MOL0     H94190  12.531  12.159   0.976  0.3958 -0.2304 -0.9143
  698MOL0     H94191  12.628  12.290   1.162  2.1195  1.4072  0.8439
  698MOL0     H94192  12.974  12.429   1.454 -1.2852  0.7157  0.6249
  698MOL0     H94193  13.058  12.486   1.674  0.2171  0.7983  0.1095
  698MOL0     H94194  13.388  12.306   1.868  0.3672  1.2099  3.7378
  698MOL0     H94195  13.337  12.398   1.717 -0.8991  3.8610  0.3756
  698MOL0     H94196  13.267  12.583   1.842 -0.7403 -0.3131 -0.6443
  698MOL0     H94197  13.293  12.509   2.003  0.2151  1.4291  0.6775
  698MOL0     H94198  13.502  12.554   2.013 -1.3354 -1.1680  0.2254
  698MOL0     H94199  13.541  12.485   1.854 -0.3904 -1.1809 -0.1790
  698MOL0     H94200  13.437  12.761   1.911 -1.4178  0.8320 -1.0198
  698MOL0     H94201  13.444  12.701   1.747 -1.6696  4.6343 -0.2000
  698MOL0     H94202  13.705  12.655   1.772  1.7399  1.4974 -0.0146
  698MOL0     H94203  13.684  12.709   1.931  1.2600 -1.2996 -1.3572
  698MOL0     H94204  13.606  12.891   1.689  3.0042 -0.3071 -1.8064
  698MOL0     H94205  13.621  12.940   1.850 -0.9076 -1.0789  0.5005
  698MOL0     H94206  13.817  13.004   1.730 -0.4093 -0.0236  2.6068
  698MOL0     H94207  13.860  12.842   1.705 -2.4576 -0.0157 -0.5334
  698MOL0     H94208  13.821  12.944   1.988  0.6592 -0.3641  0.6462
  698MOL0     H94209  13.906  12.804   1.943  0.4489  0.0287  2.0956
  698MOL0     H94210  13.204  12.090   1.748  2.5792  2.2160  1.8665
  698MOL0     H94211  13.095  12.022   1.507 -3.2473 -0.0731  1.0020
  698MOL0     H94212  12.953  12.008   1.173  0.6524  1.1152  0.3016
  698MOL0     H94213  12.858  11.884   0.978  1.4309  0.7338  0.3819
  698MOL0     H94214  11.763  10.339   0.922 -0.7707  0.0672 -2.2773
  698MOL0     H94215  11.570  10.330   1.079 -0.7902  1.1960  3.7138
  698MOL0     H94216  11.087  10.671   1.123 -2.6586  1.0294  0.6455
  698MOL0     H94217  10.885  10.634   1.276  3.0234  3.1958  0.1818
  698MOL0     H94218  10.829  10.301   1.561  0.6831  0.9193  0.1990
  698MOL0     H94219  10.805  10.237   1.403  0.6478  0.1599  1.2431
  698MOL0     H94220  10.585  10.328   1.399 -1.3083 -0.1657  0.1498
  698MOL0     H94221  10.612  10.460   1.524 -0.1762  0.0812 -1.7440
  698MOL0     H94222  10.626  10.256   1.695 -0.2491 -1.5736  0.8604
  698MOL0     H94223  10.556  10.162   1.565  0.0439  0.7706 -0.9389
  698MOL0     H94224  10.372  10.258   1.731  1.3759  1.3613 -0.2353
  698MOL0     H94225  10.420  10.420   1.695  0.2739  0.3816  1.2235
  698MOL0     H94226  10.232  10.384   1.335  2.0913  2.2218 -0.7095
  698MOL0     H94227  11.050  10.264   1.395  1.6526  1.4589  1.3936
  698MOL0     H94228  11.288  10.204   1.198  0.0785  0.5689 -0.0596
  698MOL0     H94229  11.386  10.327   1.278 -1.7867  2.3546 -3.8939
  698MOL0     H94230  11.268  10.232   1.368 -0.5568 -0.4478  0.3974
  699MOL0     O94231   9.846   3.017  10.383 -0.4594 -0.9097  0.6437
  699MOL0     C94232   9.911   3.044  10.279 -0.2752 -0.0180 -0.0155
  699MOL0     O94233  10.047   3.033  10.264  0.3714 -0.4499 -0.0977
  699MOL0     C94234  10.116   2.986  10.376  0.1533 -0.6882  0.3872
  699MOL0     C94235  10.174   3.078  10.466 -0.3100  0.0107  0.5286
  699MOL0     C94236  10.268   3.036  10.560  0.5214 -1.3553  0.0352
  699MOL0     C94237  10.286   2.895  10.572 -0.8186  0.5471  0.0580
  699MOL0     O94238  10.359   2.830  10.672  0.2474  0.0400  0.0561
  699MOL0     C94239  10.410   2.913  10.780  0.1644 -0.1463 -0.2304
  699MOL0     C94240  10.492   2.835  10.886 -0.0668  0.5297  0.1136
  699MOL0     C94241  10.577   2.720  10.833  0.0086  0.4949 -0.5759
  699MOL0     C94242  10.673   2.672  10.947 -0.4445 -0.7878 -0.3595
  699MOL0     C94243  10.597   2.590  11.052  0.6334  0.2430  0.0271
  699MOL0     C94244  10.695   2.513  11.135 -0.0411  0.2039 -0.5114
  699MOL0     C94245  10.767   2.391  11.066 -0.0012  0.3763  0.7918
  699MOL0     C94246  10.870   2.306  11.151 -0.2721 -0.0309  0.3026
  699MOL0     N94247  10.805   2.251  11.269 -0.1004  0.1718 -0.5670
  699MOL0     C94248  10.811   2.306  11.391  0.4023 -0.7723  0.1480
  699MOL0     C94249  10.738   2.220  11.465  0.5362 -0.9880  0.6006
  699MOL0     C94250  10.712   2.227  11.612  0.1755 -0.5508  1.3896
  699MOL0     C94251  10.714   2.364  11.669 -0.8565 -0.4477 -0.5460
  699MOL0     C94252  10.716   2.377  11.824  0.9330  0.1671  0.0890
  699MOL0     C94253  10.737   2.525  11.875 -0.0877 -0.3058  0.1922
  699MOL0     O94254  10.873   2.528  11.906 -0.6899 -0.0913  0.3327
  699MOL0     C94255  10.924   2.655  11.933  0.0791  0.4741  0.0477
  699MOL0     C94256  10.851   2.775  11.932  0.2160 -0.0885  0.0051
  699MOL0     C94257  10.917   2.900  11.934 -0.4328 -0.1411 -0.8897
  699MOL0     C94258  11.061   2.912  11.938 -0.5719  0.5277 -0.3471
  699MOL0     C94259  11.127   3.041  11.941  0.0972 -0.4958  1.1906
  699MOL0     O94260  11.045   3.151  11.920 -0.0118 -0.4947  0.9315
  699MOL0     C94261  11.087   3.280  11.954  0.0127  0.0228 -0.2195
  699MOL0     C94262  11.190   3.313  12.054  0.4402  0.5878  0.1752
  699MOL0     C94263  11.240   3.442  12.068 -0.1637  0.6255 -0.7685
  699MOL0     C94264  11.181   3.559  12.003 -0.5156  0.9566 -0.3150
  699MOL0     O94265  11.230   3.686  12.014  0.2808 -0.3562 -0.3387
  699MOL0     C94266  11.131   3.789  12.028  0.5260  0.1492  0.4279
  699MOL0     C94267  11.187   3.896  12.110 -0.5810  0.5966 -0.0393
  699MOL0     C94268  11.268   4.013  12.033 -0.1676  0.8671 -0.2174
  699MOL0     C94269  11.227   4.146  12.091 -0.3776 -0.7021 -0.7253
  699MOL0     C94270  11.317   4.243  12.017  0.3855 -0.1669 -0.1930
  699MOL0     C94271  11.260   4.384  12.024 -0.2119  0.3535 -1.2030
  699MOL0     C94272  11.266   4.433  12.168 -0.9540 -0.1627  0.2238
  699MOL0     C94273  11.198   4.574  12.174 -1.0168 -0.2929 -0.2138
  699MOL0    Cl94274  11.300   4.692  12.094 -0.3325 -0.1180  0.0333
  699MOL0     C94275  11.083   3.523  11.903 -0.6166 -1.0028 -0.8564
  699MOL0     C94276  11.035   3.387  11.890 -0.6912 -1.0839 -0.1205
  699MOL0     O94277  11.247   3.046  11.971  0.3001  0.0596 -0.4016
  699MOL0     C94278  11.122   2.782  11.946 -0.8541 -1.0558 -0.4729
  699MOL0     C94279  11.060   2.659  11.939 -0.2137  0.2799 -1.4075
  699MOL0     N94280  10.695   2.107  11.388 -0.9569  0.1843 -0.2146
  699MOL0     N94281  10.740   2.129  11.267 -1.0299 -0.6808 -0.0703
  699MOL0     C94282  10.225   2.802  10.488  0.1583 -0.2002  0.0013
  699MOL0     C94283  10.147   2.847  10.383  0.2487 -0.7734 -0.0904
  699MOL0     C94284   9.837   3.105  10.175  0.4554  0.0060  0.6322
  699MOL0     C94285   9.900   3.208  10.103  0.3568 -0.1014 -0.5206
  699MOL0     C94286   9.830   3.283  10.005  0.4735 -0.5454  0.0913
  699MOL0     C94287   9.697   3.258   9.971 -0.3398 -0.6177 -0.7218
  699MOL0     O94288   9.620   3.333   9.887 -0.3707  0.4644  0.5245
  699MOL0     C94289   9.686   3.447   9.826 -0.6803 -0.5128 -0.1638
  699MOL0     C94290   9.682   3.568   9.914 -0.6671  0.9715 -1.2091
  699MOL0     C94291   9.548   3.624   9.957 -0.0001  0.8887 -0.1673
  699MOL0     C94292   9.490   3.725   9.859  0.6072  0.2475 -0.2840
  699MOL0     C94293   9.574   3.849   9.849 -0.1022 -0.3979 -0.1251
  699MOL0     C94294   9.637   3.955   9.844  0.5769 -0.5104 -0.7432
  699MOL0     C94295   9.640   3.152  10.036 -0.5160 -0.4569  0.5178
  699MOL0     C94296   9.700   3.082  10.140 -0.0229  0.4561 -0.3933
  699MOL0     C94297   9.624   2.951  10.184 -0.5725  0.5820 -0.3599
  699MOL0     H94298  10.149   3.183  10.462 -3.6971 -0.7082 -0.2528
  699MOL0     H94299  10.315   3.105  10.629 -1.5458 -0.9793  1.1513
  699MOL0     H94300  10.477   2.985  10.732 -0.9362  2.0759  1.3821
  699MOL0     H94301  10.327   2.962  10.832 -0.7203  1.4640 -2.9735
  699MOL0     H94302  10.424   2.791  10.961 -0.2035  0.9143  0.2198
  699MOL0     H94303  10.560   2.899  10.943  0.0763 -1.8036  2.7911
  699MOL0     H94304  10.640   2.759  10.753  4.7361  1.3118  3.0667
  699MOL0     H94305  10.522   2.639  10.783 -1.2581  1.2291 -0.4281
  699MOL0     H94306  10.761   2.623  10.904 -0.4914 -0.9740 -0.2490
  699MOL0     H94307  10.704   2.758  11.006 -2.6005 -1.7910  2.4973
  699MOL0     H94308  10.534   2.634  11.130 -0.4382 -0.8970 -0.1573
  699MOL0     H94309  10.533   2.521  10.995  0.3497  0.5897 -0.0809
  699MOL0     H94310  10.771   2.565  11.195 -0.1031 -0.4950  0.1889
  699MOL0     H94311  10.640   2.464  11.216  1.2134  2.9661  2.2589
  699MOL0     H94312  10.812   2.416  10.969  0.3703  0.2858  0.9392
  699MOL0     H94313  10.681   2.327  11.043 -0.3075  1.2498 -0.6524
  699MOL0     H94314  10.908   2.226  11.087  0.2412 -1.5766  2.3881
  699MOL0     H94315  10.959   2.369  11.163 -0.0280  1.1538 -5.1841
  699MOL0     H94316  10.873   2.388  11.425 -0.1803  0.0102 -0.6348
  699MOL0     H94317  10.608   2.196  11.618 -0.5006  1.0064 -0.8952
  699MOL0     H94318  10.766   2.151  11.670 -1.1439 -1.4048  1.5168
  699MOL0     H94319  10.807   2.414  11.641 -0.4508 -0.5523  0.5863
  699MOL0     H94320  10.636   2.429  11.628  1.7956  1.0100 -3.7255
  699MOL0     H94321  10.800   2.315  11.858 -0.4127 -2.8921 -1.7661
  699MOL0     H94322  10.628   2.332  11.870  1.6095  0.7411  2.0503
  699MOL0     H94323  10.673   2.529  11.963  0.8595 -0.8816  0.9291
  699MOL0     H94324  10.701   2.600  11.805  0.7297  1.0847  1.2192
  699MOL0     H94325  10.744   2.788  11.920  0.3138  1.2751  0.4243
  699MOL0     H94326  10.857   2.990  11.941 -2.2930 -0.8503 -4.7784
  699MOL0     H94327  11.229   3.233  12.115  1.9192 -0.2753 -1.7921
  699MOL0     H94328  11.326   3.468  12.130  2.3255 -1.1789 -3.2148
  699MOL0     H94329  11.114   3.824  11.926 -1.0810 -1.1762  0.2002
  699MOL0     H94330  11.034   3.758  12.069  1.4766 -0.8933  1.9827
  699MOL0     H94331  11.099   3.946  12.151 -1.2821 -0.7830  0.2257
  699MOL0     H94332  11.252   3.859  12.190  2.5422  1.8840 -1.8070
  699MOL0     H94333  11.370   3.980  12.054 -1.4681 -2.7524  1.1313
  699MOL0     H94334  11.243   4.016  11.927 -1.2057 -0.9658 -0.0732
  699MOL0     H94335  11.249   4.145  12.198  2.2920 -1.2649 -1.2248
  699MOL0     H94336  11.120   4.167  12.075 -0.5620 -0.7034  0.4289
  699MOL0     H94337  11.331   4.218  11.912  0.2196 -1.5779  0.0942
  699MOL0     H94338  11.416   4.238  12.064 -0.4200 -0.8454  1.5387
  699MOL0     H94339  11.322   4.459  11.973  2.7530 -0.3646  1.0528
  699MOL0     H94340  11.161   4.382  11.979 -0.4494 -0.1459 -0.6728
  699MOL0     H94341  11.361   4.423  12.222 -0.1775  1.2065 -0.8232
  699MOL0     H94342  11.189   4.380  12.224 -3.6438  2.9003 -0.3261
  699MOL0     H94343  11.106   4.568  12.115 -1.7408  0.5047  0.7959
  699MOL0     H94344  11.173   4.610  12.274  0.8211 -1.5398  0.7610
  699MOL0     H94345  11.038   3.601  11.841  0.7495  4.5031  4.1890
  699MOL0     H94346  10.955   3.359  11.823 -1.1919 -1.9023  0.7941
  699MOL0     H94347  11.230   2.780  11.957 -0.6669  1.5166 -1.0902
  699MOL0     H94348  11.116   2.567  11.940  1.2207  1.1219 -0.6560
  699MOL0     H94349  10.226   2.696  10.513 -0.2173  0.0068  0.9558
  699MOL0     H94350  10.100   2.779  10.313 -0.1135 -0.9383  0.3104
  699MOL0     H94351  10.004   3.232  10.119 -0.0485  2.1151 -0.8796
  699MOL0     H94352   9.893   3.363   9.968  2.1221 -0.8811  1.9990
  699MOL0     H94353   9.630   3.478   9.738  1.6062 -3.6975 -3.0568
  699MOL0     H94354   9.787   3.417   9.795 -1.1603 -2.0917 -0.2962
  699MOL0     H94355   9.740   3.636   9.850 -0.3337 -0.1442 -2.1269
  699MOL0     H94356   9.743   3.550  10.003 -0.5958  2.8930 -0.8091
  699MOL0     H94357   9.534   3.665  10.057  0.5543 -4.0186  2.2336
  699MOL0     H94358   9.481   3.538   9.951 -1.1493  1.7608 -0.1688
  699MOL0     H94359   9.445   3.687   9.767 -0.4343 -1.8409  1.0204
  699MOL0     H94360   9.396   3.761   9.904  0.3932 -1.6009  0.8810
  699MOL0     H94361   9.681   4.051   9.827  0.4661 -0.5597 -1.3058
  699MOL0     H94362   9.538   3.130  10.008  0.0706 -0.8875 -1.4360
  699MOL0     H94363   9.568   2.979  10.274 -1.5091  0.9351 -1.0441
  699MOL0     H94364   9.550   2.928  10.108 -0.9817  0.8165 -0.0353
  699MOL0     H94365   9.691   2.865  10.199 -1.7442 -0.2978 -0.0676
  700MOL0     O94366   9.541   2.297   0.820  0.8214 -0.1626 -0.4875
  700MOL0     C94367   9.534   2.193   0.879 -0.3983 -0.1373  0.7066
  700MOL0     O94368   9.431   2.106   0.879 -0.2123  0.4680  0.3895
  700MOL0     C94369   9.356   2.109   0.762 -1.0003 -0.8481 -0.1316
  700MOL0     C94370   9.235   2.179   0.754 -0.4833  0.0114 -0.5972
  700MOL0     C94371   9.177   2.191   0.630  0.3959 -1.0663  0.4626
  700MOL0     C94372   9.239   2.136   0.510  0.0566 -1.1495  0.1235
  700MOL0     O94373   9.182   2.153   0.386  0.1294 -0.1532 -0.7307
  700MOL0     C94374   9.087   2.255   0.365  0.5424  0.1472 -0.9539
  700MOL0     C94375   9.160   2.382   0.347 -0.3504  0.2049 -0.1925
  700MOL0     C94376   9.071   2.498   0.333  0.4887  0.0689  0.4321
  700MOL0     C94377   9.133   2.614   0.254 -0.3392  0.0503  0.8984
  700MOL0     C94378   9.040   2.731   0.249  0.6571 -0.2068 -0.0562
  700MOL0     C94379   8.988   2.790   0.375 -0.2153  0.2312 -0.0572
  700MOL0     C94380   8.912   2.911   0.350  0.5308 -0.9027  0.4473
  700MOL0     C94381   8.835   2.958   0.482  0.6113 -0.2228  0.8880
  700MOL0     N94382   8.756   3.085   0.459 -0.6078  0.2056 -0.6146
  700MOL0     C94383   8.812   3.211   0.436 -0.0561  0.7483 -0.5309
  700MOL0     C94384   8.704   3.278   0.391  0.6033 -0.8415 -0.3424
  700MOL0     C94385   8.713   3.427   0.355  0.4387  1.0387  0.5496
  700MOL0     C94386   8.737   3.466   0.205  0.2170 -0.8473 -0.7038
  700MOL0     C94387   8.855   3.416   0.136 -0.3118 -1.2106 -0.6127
  700MOL0     C94388   8.988   3.458   0.210 -0.1412  0.3279  0.3979
  700MOL0     O94389   8.987   3.600   0.233  0.7636 -0.5347  0.0736
  700MOL0     C94390   9.104   3.652   0.224  0.1252 -0.0722  0.2601
  700MOL0     C94391   9.147   3.717   0.109  0.3517  0.4655  0.2711
  700MOL0     C94392   9.281   3.764   0.114 -0.2126  0.5932  0.8171
  700MOL0     C94393   9.369   3.772   0.222 -0.0406 -0.4426 -0.1940
  700MOL0     C94394   9.504   3.825   0.216 -0.2363 -0.4650  0.1049
  700MOL0     O94395   9.590   3.791   0.308 -0.2709  1.7241  0.0703
  700MOL0     C94396   9.709   3.856   0.306  0.6316 -0.0502  0.3511
  700MOL0     C94397   9.823   3.799   0.251  0.4603  0.3174 -0.1844
  700MOL0     C94398   9.954   3.857   0.275  0.0212 -0.5036  0.1056
  700MOL0     C94399   9.975   3.979   0.343 -0.7091  0.2240 -0.2439
  700MOL0     O94400  10.102   4.030   0.354 -0.8017 -0.0279  0.3460
  700MOL0     C94401  10.121   4.175   0.366  2.0772  0.2113 -0.4856
  700MOL0     C94402  10.250   4.217   0.291 -0.6043  0.0572  0.2444
  700MOL0     C94403  10.384   4.149   0.344  0.6427 -0.5899  0.0127
  700MOL0     C94404  10.466   4.114   0.225  0.1848  0.7606 -0.0017
  700MOL0     C94405  10.514   4.227   0.133  0.5577  0.6155 -0.4185
  700MOL0     C94406  10.630   4.167   0.043 -0.4072 -0.5690  0.5785
  700MOL0     C94407  10.607   4.025  -0.022  0.2564 -0.4969 -0.2925
  700MOL0     C94408  10.738   3.988  -0.102 -0.0700 -0.4008  0.6098
  700MOL0    Cl94409  10.793   4.123  -0.216 -0.2854  0.3579  0.1254
  700MOL0     C94410   9.854   4.035   0.388  0.6278 -0.0051  0.3388
  700MOL0     C94411   9.724   3.976   0.375 -0.2313 -0.2309 -0.2584
  700MOL0     O94412   9.538   3.884   0.112  0.6021 -0.1538  0.2220
  700MOL0     C94413   9.325   3.699   0.339  0.1117 -0.5105 -1.3829
  700MOL0     C94414   9.189   3.647   0.340  1.4816  0.3107 -0.2197
  700MOL0     N94415   8.595   3.199   0.373  0.0676 -0.6990  0.2525
  700MOL0     N94416   8.626   3.086   0.423 -0.4163  0.1497 -0.3898
  700MOL0     C94417   9.356   2.057   0.524  0.5262  0.6354  1.0865
  700MOL0     C94418   9.414   2.049   0.649 -1.0907  0.2217  0.0931
  700MOL0     C94419   9.632   2.173   0.983 -0.2667  0.2738 -0.1358
  700MOL0     C94420   9.685   2.042   1.003  0.2851 -0.3520 -0.4904
  700MOL0     C94421   9.765   2.011   1.122  0.5806 -0.3111  0.6878
  700MOL0     C94422   9.807   2.112   1.201 -0.7591 -0.1666  0.7683
  700MOL0     O94423   9.873   2.083   1.312  0.3106 -0.2578 -0.3691
  700MOL0     C94424   9.804   2.029   1.423 -0.4769 -0.9312 -0.1264
  700MOL0     C94425   9.671   2.095   1.455 -0.8961 -0.1635  0.4179
  700MOL0     C94426   9.704   2.225   1.530  0.6589 -0.2480 -0.9491
  700MOL0     C94427   9.748   2.208   1.682  0.1931 -0.3494  0.5622
  700MOL0     C94428   9.640   2.153   1.766 -0.2870  0.6232 -0.4718
  700MOL0     C94429   9.556   2.099   1.828  0.7017  0.2176  0.0653
  700MOL0     C94430   9.774   2.245   1.180 -0.7309  0.4948 -0.5017
  700MOL0     C94431   9.698   2.279   1.062 -0.1094 -0.9145  0.4828
  700MOL0     C94432   9.665   2.428   1.043 -0.4888  0.1800  0.4702
  700MOL0     H94433   9.186   2.220   0.841 -1.1532  0.8638 -1.3575
  700MOL0     H94434   9.086   2.251   0.635  1.0775 -0.0902  3.2128
  700MOL0     H94435   9.022   2.230   0.281 -0.0933  0.7804 -0.6591
  700MOL0     H94436   9.012   2.262   0.444 -0.9012 -0.8357 -2.2012
  700MOL0     H94437   9.223   2.374   0.258  0.9028  0.9933  0.5979
  700MOL0     H94438   9.217   2.411   0.436 -1.0978  2.8455 -0.4673
  700MOL0     H94439   9.034   2.520   0.434  0.6826  0.2110  0.4725
  700MOL0     H94440   8.984   2.477   0.270 -0.2203 -0.0809  1.4255
  700MOL0     H94441   9.221   2.651   0.308 -1.3166 -0.6728  3.0960
  700MOL0     H94442   9.164   2.578   0.155  0.9474  2.2114  0.4413
  700MOL0     H94443   9.090   2.805   0.185 -0.5445  1.1221  0.4822
  700MOL0     H94444   8.955   2.699   0.188  0.9248 -2.8642  0.8620
  700MOL0     H94445   8.917   2.720   0.421  0.4241 -2.1494 -2.4621
  700MOL0     H94446   9.079   2.821   0.429  0.8170  1.3319 -2.3121
  700MOL0     H94447   8.846   2.882   0.268 -1.0164 -0.2719  1.4369
  700MOL0     H94448   8.978   2.992   0.316 -1.2898 -0.7041 -3.1393
  700MOL0     H94449   8.762   2.885   0.519 -0.1790  0.0987  0.0305
  700MOL0     H94450   8.917   2.959   0.554  1.4818 -2.2100 -0.0190
  700MOL0     H94451   8.914   3.248   0.447  1.0943 -2.5148  0.8524
  700MOL0     H94452   8.609   3.453   0.380 -0.8840 -2.6330 -0.4937
  700MOL0     H94453   8.771   3.476   0.433 -0.2611  1.3504  0.8915
  700MOL0     H94454   8.662   3.419   0.140 -0.5435  3.1322 -3.0020
  700MOL0     H94455   8.729   3.574   0.196  4.1349 -0.3439 -0.2236
  700MOL0     H94456   8.865   3.476   0.045  3.3769  2.0432  1.5787
  700MOL0     H94457   8.858   3.317   0.090 -1.2633 -1.2231 -0.6636
  700MOL0     H94458   9.073   3.430   0.147 -0.9129  2.5688 -1.8152
  700MOL0     H94459   9.011   3.412   0.306 -1.3591  2.1885  1.6279
  700MOL0     H94460   9.077   3.723   0.026 -2.1352  1.6914  2.3164
  700MOL0     H94461   9.310   3.810   0.020 -0.0369  0.0270  0.5900
  700MOL0     H94462   9.816   3.710   0.191 -0.5079  0.3324 -0.1079
  700MOL0     H94463  10.041   3.801   0.242 -0.8054 -1.0887 -1.1658
  700MOL0     H94464  10.034   4.220   0.318  0.6328  2.5715  3.7849
  700MOL0     H94465  10.109   4.201   0.472  0.3308  0.1717 -0.6422
  700MOL0     H94466  10.237   4.181   0.189 -0.4228  0.5928  0.0251
  700MOL0     H94467  10.269   4.325   0.288 -0.0997 -0.0227  0.5278
  700MOL0     H94468  10.434   4.213   0.416 -0.2291 -1.0253  1.0414
  700MOL0     H94469  10.358   4.051   0.387 -0.8855 -0.5038 -0.6394
  700MOL0     H94470  10.403   4.048   0.165  0.2838  1.2359 -0.6481
  700MOL0     H94471  10.557   4.061   0.255  0.8420 -0.1968 -3.3281
  700MOL0     H94472  10.553   4.309   0.194  2.8632 -0.2622 -0.6024
  700MOL0     H94473  10.437   4.274   0.072  0.8627  2.3084  0.4338
  700MOL0     H94474  10.638   4.237  -0.041  1.1107 -0.0005  1.1694
  700MOL0     H94475  10.723   4.166   0.099 -1.5278  1.0293  2.6133
  700MOL0     H94476  10.520   4.039  -0.088  1.5760 -0.1501 -2.0407
  700MOL0     H94477  10.596   3.953   0.059  2.4508 -1.7505 -1.0295
  700MOL0     H94478  10.816   3.968  -0.027  0.8933  2.2939  0.4187
  700MOL0     H94479  10.718   3.895  -0.156  1.4551 -0.0134 -0.7193
  700MOL0     H94480   9.851   4.122   0.453 -0.5265 -0.3592  0.7709
  700MOL0     H94481   9.639   4.025   0.421  0.6162  1.9587 -0.8948
  700MOL0     H94482   9.381   3.672   0.428 -0.8384 -1.4396 -1.0411
  700MOL0     H94483   9.142   3.598   0.424 -0.9981 -3.2058 -3.3311
  700MOL0     H94484   9.386   1.999   0.438 -0.7835 -0.2070  1.1585
  700MOL0     H94485   9.517   2.019   0.664 -0.8145  2.2902  3.2471
  700MOL0     H94486   9.635   1.954   0.964 -0.7699 -1.3240  2.7405
  700MOL0     H94487   9.814   1.916   1.144  1.5068  0.6818  3.2611
  700MOL0     H94488   9.866   2.036   1.513 -2.3804 -0.5373  1.2069
  700MOL0     H94489   9.787   1.923   1.403 -0.3962 -1.5606  2.6945
  700MOL0     H94490   9.617   2.029   1.524  1.1978 -1.1145  1.2520
  700MOL0     H94491   9.605   2.110   1.370  0.0472  1.1801 -0.1148
  700MOL0     H94492   9.615   2.288   1.529 -0.4037 -1.5155  2.0722
  700MOL0     H94493   9.787   2.279   1.482 -0.3481  0.6210 -1.7518
  700MOL0     H94494   9.838   2.145   1.685 -1.3232 -2.7631 -1.1256
  700MOL0     H94495   9.801   2.296   1.719  1.5768 -2.0627  2.9642
  700MOL0     H94496   9.498   2.045   1.900  3.5713  0.8539  3.1303
  700MOL0     H94497   9.819   2.317   1.247 -1.1827  0.3909 -0.0772
  700MOL0     H94498   9.699   2.468   0.948 -2.5724  0.8952 -0.0055
  700MOL0     H94499   9.556   2.437   1.041 -0.5295  0.3258  2.1070
  700MOL0     H94500   9.704   2.478   1.132 -1.4709 -0.1792  1.1255
  701MOL0     O94501   2.453   7.908   1.215 -0.0898  0.3207 -0.2504
  701MOL0     C94502   2.400   7.856   1.113 -0.1463 -0.0790  0.2347
  701MOL0     O94503   2.458   7.820   0.994  0.6120  0.2765 -0.0108
  701MOL0     C94504   2.593   7.796   0.976 -0.3590 -1.1759 -0.1836
  701MOL0     C94505   2.686   7.779   1.085 -0.0083  0.7858  0.6400
  701MOL0     C94506   2.816   7.747   1.058 -0.5754 -0.5016  0.6356
  701MOL0     C94507   2.858   7.721   0.931 -0.0257  0.6124 -0.1216
  701MOL0     O94508   2.987   7.700   0.908  0.3404  0.6574  0.5245
  701MOL0     C94509   3.086   7.806   0.938  0.0596 -0.3480  0.0547
  701MOL0     C94510   3.176   7.830   0.816 -0.2100  0.7752 -0.7131
  701MOL0     C94511   3.102   7.892   0.703  0.5505 -0.5720 -0.6396
  701MOL0     C94512   3.187   7.969   0.610 -0.4525  0.6567  1.0501
  701MOL0     C94513   3.120   8.037   0.494  0.4086  0.4907 -0.1574
  701MOL0     C94514   3.014   7.972   0.403  0.0103 -0.0703 -0.4157
  701MOL0     C94515   2.969   8.069   0.282  0.5044  0.0571  0.3998
  701MOL0     C94516   2.865   8.173   0.331 -0.3727  0.4702 -0.2490
  701MOL0     N94517   2.731   8.117   0.335  0.5575  1.0009 -0.6653
  701MOL0     C94518   2.640   8.169   0.247 -0.6096 -0.2739  0.0989
  701MOL0     C94519   2.532   8.089   0.251 -0.1567  0.7045 -1.2169
  701MOL0     C94520   2.412   8.111   0.165 -0.8742  0.0929  0.6197
  701MOL0     C94521   2.300   8.192   0.220  0.3592 -0.9974  0.5572
  701MOL0     C94522   2.351   8.331   0.271  0.7251  0.9191  0.7652
  701MOL0     C94523   2.226   8.424   0.303  0.4508  0.9159 -0.1374
  701MOL0     O94524   2.266   8.533   0.385  0.9204 -0.0579  0.2829
  701MOL0     C94525   2.373   8.610   0.349  0.7069 -0.1288 -0.0258
  701MOL0     C94526   2.401   8.663   0.222  0.4780 -1.0655 -0.4232
  701MOL0     C94527   2.510   8.755   0.203 -0.4531  0.0822  0.2853
  701MOL0     C94528   2.589   8.794   0.309 -0.7489  0.4777  1.0798
  701MOL0     C94529   2.714   8.865   0.288 -0.0544 -0.1424  0.3270
  701MOL0     O94530   2.785   8.891   0.396  0.0743  0.6075 -0.2303
  701MOL0     C94531   2.910   8.954   0.394 -0.2096  0.1380  0.0040
  701MOL0     C94532   2.947   9.027   0.505  0.9103 -0.2163 -0.1521
  701MOL0     C94533   3.070   9.088   0.504 -0.5728  0.6083 -0.4726
  701MOL0     C94534   3.170   9.075   0.403  0.3732 -0.5375  0.1865
  701MOL0     O94535   3.292   9.131   0.419 -0.0003 -0.1350 -0.2325
  701MOL0     C94536   3.386   9.121   0.311 -0.1592  0.7353 -0.2723
  701MOL0     C94537   3.505   9.215   0.345 -0.3318  0.5173  0.1245
  701MOL0     C94538   3.577   9.167   0.465  0.2652  0.9559 -0.6512
  701MOL0     C94539   3.726   9.182   0.440 -0.8023 -0.0721  0.6328
  701MOL0     C94540   3.771   9.326   0.413 -0.5579  0.1263  0.5846
  701MOL0     C94541   3.921   9.314   0.394 -0.1311  0.9535  0.5105
  701MOL0     C94542   3.972   9.440   0.331  0.0804  0.1848  0.1484
  701MOL0     C94543   3.960   9.453   0.175 -0.4138 -0.3072  0.3225
  701MOL0    Cl94544   3.931   9.289   0.093 -0.5699 -0.3607  0.0277
  701MOL0     C94545   3.131   8.987   0.308 -0.3289  0.7634  0.1937
  701MOL0     C94546   3.016   8.919   0.303  0.3872 -0.1915  0.0886
  701MOL0     O94547   2.742   8.891   0.170  0.5061  0.7842  0.1145
  701MOL0     C94548   2.556   8.741   0.439 -0.6383 -0.3101 -0.4347
  701MOL0     C94549   2.451   8.660   0.459 -0.0214  1.2816 -0.0273
  701MOL0     N94550   2.548   8.001   0.360  0.1325 -0.1696 -0.2530
  701MOL0     N94551   2.674   8.007   0.397 -0.1371  0.2640  0.0481
  701MOL0     C94552   2.772   7.738   0.825 -0.6685 -0.0118  0.7612
  701MOL0     C94553   2.643   7.777   0.850  0.9882 -0.2533 -0.1383
  701MOL0     C94554   2.260   7.845   1.116 -0.2044  0.6917  0.4084
  701MOL0     C94555   2.199   7.819   0.992  0.4915 -0.9412  0.7932
  701MOL0     C94556   2.069   7.790   0.991 -0.2455 -0.3074  0.2162
  701MOL0     C94557   1.983   7.802   1.100  0.4909 -0.4890  0.4220
  701MOL0     O94558   1.846   7.768   1.084 -0.5140 -0.3111  0.2292
  701MOL0     C94559   1.758   7.768   1.196 -0.5655  0.4528 -0.0753
  701MOL0     C94560   1.622   7.717   1.150  0.1884  0.6861  0.2139
  701MOL0     C94561   1.531   7.659   1.261 -0.1710 -0.4147  0.1062
  701MOL0     C94562   1.393   7.657   1.207  0.0466  0.6222  0.4483
  701MOL0     C94563   1.312   7.562   1.282  0.4518 -0.2979 -0.0033
  701MOL0     C94564   1.227   7.496   1.334  0.1841  0.0160  0.2320
  701MOL0     C94565   2.037   7.847   1.221 -0.0442  0.4421  0.7611
  701MOL0     C94566   2.178   7.858   1.229 -0.0869  0.1094 -0.5174
  701MOL0     C94567   2.215   7.890   1.370 -0.7929 -0.4479  0.0415
  701MOL0     H94568   2.666   7.777   1.192  3.6882 -0.1891  1.4704
  701MOL0     H94569   2.881   7.742   1.145  0.5042  2.0534  0.0906
  701MOL0     H94570   3.035   7.899   0.966 -0.1174 -1.4356  3.8696
  701MOL0     H94571   3.148   7.792   1.027  1.0721  0.1885 -0.5443
  701MOL0     H94572   3.240   7.744   0.795 -1.9270 -1.5111  2.5155
  701MOL0     H94573   3.248   7.903   0.854  0.2862  0.0307 -0.1863
  701MOL0     H94574   3.009   7.939   0.736  1.8748 -0.1250  2.8478
  701MOL0     H94575   3.071   7.809   0.639  2.3731 -0.0089 -2.3499
  701MOL0     H94576   3.250   8.035   0.670 -0.4309  0.5552  1.1374
  701MOL0     H94577   3.252   7.893   0.566 -3.2886 -1.8961  0.9399
  701MOL0     H94578   3.069   8.131   0.519  0.4275  0.6801 -0.7979
  701MOL0     H94579   3.195   8.080   0.427  1.7256  0.4739  1.2440
  701MOL0     H94580   3.065   7.890   0.351 -0.4014 -1.9218  1.9180
  701MOL0     H94581   2.931   7.932   0.461 -0.5878 -1.6290 -2.2476
  701MOL0     H94582   2.923   8.008   0.203 -0.6188 -2.1866  2.6454
  701MOL0     H94583   3.059   8.113   0.240  2.9117 -3.6611  1.1800
  701MOL0     H94584   2.883   8.198   0.436  2.0255  1.9857 -0.9471
  701MOL0     H94585   2.873   8.256   0.260 -0.5742 -0.1740 -1.0325
  701MOL0     H94586   2.643   8.253   0.179 -0.1612 -0.1694  0.2450
  701MOL0     H94587   2.429   8.143   0.062 -0.8374  0.8208  0.8438
  701MOL0     H94588   2.369   8.011   0.157  0.5354 -0.3977 -1.9818
  701MOL0     H94589   2.234   8.208   0.134 -0.9992 -1.8054  1.4053
  701MOL0     H94590   2.244   8.138   0.298  1.4390 -2.2455  0.5063
  701MOL0     H94591   2.432   8.374   0.211 -0.0813 -0.1537 -1.1739
  701MOL0     H94592   2.393   8.309   0.370  2.0640 -1.0027 -0.1692
  701MOL0     H94593   2.151   8.357   0.346  2.0331 -2.6035 -2.3794
  701MOL0     H94594   2.189   8.464   0.208  0.4286  1.1883 -0.0147
  701MOL0     H94595   2.338   8.644   0.136 -0.3424  2.2273 -0.6756
  701MOL0     H94596   2.539   8.795   0.107  1.2655 -0.5820  0.4748
  701MOL0     H94597   2.866   9.040   0.575 -0.8804 -1.1344 -1.9676
  701MOL0     H94598   3.100   9.126   0.601  2.3669 -0.5814 -0.8320
  701MOL0     H94599   3.423   9.018   0.304 -0.3742  0.5506  1.0073
  701MOL0     H94600   3.351   9.156   0.214  0.8106  0.1008 -0.8678
  701MOL0     H94601   3.567   9.211   0.254 -1.3433  0.7829 -0.5940
  701MOL0     H94602   3.480   9.321   0.350  0.9130  0.8359  0.0765
  701MOL0     H94603   3.553   9.216   0.560  0.1033  0.4066 -0.4043
  701MOL0     H94604   3.561   9.061   0.484  4.8621 -0.2586 -2.1224
  701MOL0     H94605   3.747   9.120   0.353  0.3920  1.3285 -0.1353
  701MOL0     H94606   3.793   9.139   0.516  2.5819  1.0955 -1.4654
  701MOL0     H94607   3.754   9.396   0.496  0.0539  2.5284 -1.2064
  701MOL0     H94608   3.720   9.380   0.332  0.2432 -1.4044 -1.0044
  701MOL0     H94609   3.959   9.304   0.497  2.2020  3.9464  0.0703
  701MOL0     H94610   3.945   9.231   0.327 -0.8226  1.6583 -0.6422
  701MOL0     H94611   4.080   9.453   0.345  0.6194 -0.8401 -2.3958
  701MOL0     H94612   3.927   9.531   0.371 -0.8378 -0.0195 -0.4003
  701MOL0     H94613   3.876   9.515   0.141  0.1541 -0.3450 -1.2485
  701MOL0     H94614   4.047   9.507   0.138 -1.7377 -0.0526 -2.7367
  701MOL0     H94615   3.208   8.944   0.244 -1.2239  0.9527 -1.0370
  701MOL0     H94616   3.007   8.836   0.234 -0.8500 -1.2786  1.5145
  701MOL0     H94617   2.614   8.765   0.528 -0.1015  1.1524 -1.1546
  701MOL0     H94618   2.426   8.641   0.563 -1.7362  0.7198 -0.5014
  701MOL0     H94619   2.802   7.719   0.723 -1.4740 -1.0769  0.7084
  701MOL0     H94620   2.564   7.781   0.776 -0.0196 -1.3394  0.8345
  701MOL0     H94621   2.253   7.811   0.898  0.0886  0.0734  0.4534
  701MOL0     H94622   2.028   7.748   0.900 -0.7674  1.8012 -0.5734
  701MOL0     H94623   1.738   7.868   1.234  2.4109  1.6913 -1.4573
  701MOL0     H94624   1.803   7.701   1.270 -2.0027 -2.1036 -1.3863
  701MOL0     H94625   1.628   7.635   1.077 -4.2947 -0.5910  0.9547
  701MOL0     H94626   1.568   7.804   1.112  0.6335  0.8575 -0.0265
  701MOL0     H94627   1.538   7.716   1.354 -0.1350 -3.1051  1.8582
  701MOL0     H94628   1.554   7.555   1.287 -1.5117 -0.9252 -0.6894
  701MOL0     H94629   1.340   7.752   1.201  0.0486  0.5773 -4.5556
  701MOL0     H94630   1.393   7.624   1.103 -0.2821 -0.3510  0.7405
  701MOL0     H94631   1.150   7.430   1.370 -0.8392  0.2350 -1.4650
  701MOL0     H94632   1.975   7.872   1.307  0.3019 -2.4978  1.9929
  701MOL0     H94633   2.140   7.850   1.439 -1.0932  1.5381  0.9401
  701MOL0     H94634   2.315   7.859   1.401  0.2173  3.2989  1.0484
  701MOL0     H94635   2.217   7.998   1.383  1.2139 -0.6413  1.7382
  702MOL0     O94636  10.124   6.319   0.005  0.2097  0.1235  0.2541
  702MOL0     C94637  10.053   6.419  -0.008 -0.6069  0.4757 -1.0459
  702MOL0     O94638   9.928   6.426  -0.063 -0.1436  0.0975 -0.1369
  702MOL0     C94639   9.883   6.316  -0.132  0.6681  0.0666 -0.6274
  702MOL0     C94640   9.821   6.208  -0.059 -0.3334  0.6440 -0.1155
  702MOL0     C94641   9.786   6.095  -0.130  0.7324 -0.0739 -0.8413
  702MOL0     C94642   9.801   6.088  -0.277  0.3329  0.2779  0.4205
  702MOL0     O94643   9.766   5.979  -0.358 -0.2033 -0.0200  0.2403
  702MOL0     C94644   9.739   5.856  -0.300  0.5036 -0.6621 -0.8610
  702MOL0     C94645   9.759   5.741  -0.401  0.5424 -0.9067  0.4818
  702MOL0     C94646   9.912   5.720  -0.428 -0.4037 -0.4736 -0.1080
  702MOL0     C94647   9.973   5.661  -0.301  1.0089 -0.5591  0.5743
  702MOL0     C94648  10.122   5.611  -0.311  0.3577 -0.3579  0.0138
  702MOL0     C94649  10.179   5.548  -0.183 -0.7628  0.7356  0.0697
  702MOL0     C94650  10.328   5.514  -0.190 -1.0555 -0.7493  0.1422
  702MOL0     C94651  10.430   5.632  -0.166  0.0900  0.3117  0.3576
  702MOL0     N94652  10.517   5.658  -0.279 -0.3138  0.8627 -0.0510
  702MOL0     C94653  10.486   5.707  -0.405 -0.7919 -0.9292 -0.9651
  702MOL0     C94654  10.604   5.703  -0.475  0.1087 -0.1307 -0.1498
  702MOL0     C94655  10.625   5.733  -0.626 -0.4191  0.9216 -0.8477
  702MOL0     C94656  10.558   5.642  -0.727  0.3015  0.4459  0.0674
  702MOL0     C94657  10.436   5.712  -0.810  0.1154  0.4034 -0.3273
  702MOL0     C94658  10.333   5.615  -0.873 -0.2651 -0.2406  0.6159
  702MOL0     O94659  10.374   5.599  -1.013  0.0623 -0.2053 -0.2661
  702MOL0     C94660  10.446   5.478  -1.033  0.3802 -0.3274  0.9916
  702MOL0     C94661  10.383   5.361  -1.014 -0.1124  0.2652  0.5383
  702MOL0     C94662  10.459   5.244  -1.042 -0.1063  0.9120 -0.5711
  702MOL0     C94663  10.595   5.246  -1.088 -0.5397 -0.1281  0.1277
  702MOL0     C94664  10.674   5.136  -1.104 -0.6588  0.8165  0.5081
  702MOL0     O94665  10.807   5.164  -1.145  0.0859  0.7924  0.2786
  702MOL0     C94666  10.892   5.069  -1.183  0.1114 -0.8453 -0.2165
  702MOL0     C94667  11.017   5.072  -1.125  1.2746 -0.2060  0.4510
  702MOL0     C94668  11.112   4.981  -1.167 -0.4405 -0.5525  0.3161
  702MOL0     C94669  11.081   4.885  -1.261  1.2020  0.1128 -0.0107
  702MOL0     O94670  11.162   4.796  -1.317 -0.2837 -0.1746  0.1909
  702MOL0     C94671  11.250   4.722  -1.223 -0.2097  0.5629  0.2760
  702MOL0     C94672  11.391   4.725  -1.269 -0.4921 -0.2561  0.0366
  702MOL0     C94673  11.412   4.660  -1.409  0.6782  0.3097  0.4553
  702MOL0     C94674  11.549   4.681  -1.490  1.1050  0.6026 -0.2109
  702MOL0     C94675  11.578   4.565  -1.601 -0.5662 -0.3645 -0.0609
  702MOL0     C94676  11.686   4.621  -1.689 -0.0134  1.0011 -0.1050
  702MOL0     C94677  11.733   4.521  -1.800  0.7890 -0.1369  0.7720
  702MOL0     C94678  11.620   4.512  -1.912 -0.3330  0.2826 -0.0943
  702MOL0    Cl94679  11.587   4.673  -1.980 -0.3202 -0.0098 -0.1679
  702MOL0     C94680  10.957   4.881  -1.321 -0.2141 -0.1873 -0.5724
  702MOL0     C94681  10.862   4.978  -1.281 -0.8451  0.7791  1.1513
  702MOL0     O94682  10.637   5.022  -1.065 -0.6456 -0.2638 -0.5126
  702MOL0     C94683  10.654   5.374  -1.108  0.0648 -0.0762 -0.2389
  702MOL0     C94684  10.570   5.486  -1.081  0.0663 -0.2063  1.6475
  702MOL0     N94685  10.695   5.653  -0.395 -0.0973  0.0726  0.6701
  702MOL0     N94686  10.644   5.616  -0.282  0.3507 -0.0240  0.0297
  702MOL0     C94687   9.851   6.200  -0.348  0.6748 -0.9261 -0.6780
  702MOL0     C94688   9.889   6.307  -0.274  0.0806 -0.6668 -0.4570
  702MOL0     C94689  10.106   6.536   0.049 -0.9696 -0.1824 -0.6006
  702MOL0     C94690  10.230   6.575   0.014  0.0363 -0.0364 -0.1303
  702MOL0     C94691  10.285   6.696   0.067 -0.1740  0.2036  0.1927
  702MOL0     C94692  10.213   6.778   0.148  0.3715 -0.5084 -0.2067
  702MOL0     O94693  10.260   6.897   0.206 -0.4674  0.3139 -0.5191
  702MOL0     C94694  10.362   6.953   0.119 -0.1034  0.5303  0.1664
  702MOL0     C94695  10.368   7.099   0.158 -1.0400  0.1385 -0.2216
  702MOL0     C94696  10.281   7.199   0.077 -0.2771 -0.3850 -0.6983
  702MOL0     C94697  10.300   7.348   0.125 -0.3832  0.3286 -0.0279
  702MOL0     C94698  10.271   7.379   0.265  0.1647  0.3522  0.0078
  702MOL0     C94699  10.225   7.399   0.375  0.1275  0.2139  1.0847
  702MOL0     C94700  10.087   6.725   0.190 -0.6507 -0.6678 -0.1878
  702MOL0     C94701  10.037   6.609   0.144  0.6634  0.9141 -0.2319
  702MOL0     C94702   9.916   6.548   0.205  0.0888 -0.6961 -1.0977
  702MOL0     H94703   9.819   6.200   0.049 -2.2765 -2.3224 -0.2441
  702MOL0     H94704   9.759   6.008  -0.071 -1.4238  1.1383  0.0974
  702MOL0     H94705   9.806   5.835  -0.216  1.2105 -3.9432 -2.1302
  702MOL0     H94706   9.639   5.860  -0.254  0.5639  4.9617 -0.4544
  702MOL0     H94707   9.710   5.768  -0.495 -3.6820 -3.1027  1.8177
  702MOL0     H94708   9.706   5.650  -0.374  1.7684 -1.9998 -0.6613
  702MOL0     H94709   9.958   5.816  -0.453 -2.8451  0.5840 -0.9471
  702MOL0     H94710   9.915   5.659  -0.519 -2.6616  0.6253 -1.0002
  702MOL0     H94711   9.970   5.729  -0.215  0.0339  0.3047 -0.1146
  702MOL0     H94712   9.913   5.575  -0.270  0.0622 -1.0757 -2.3978
  702MOL0     H94713  10.139   5.539  -0.392 -1.6687 -0.1958 -0.6106
  702MOL0     H94714  10.188   5.696  -0.329  0.0860  0.1971  1.5353
  702MOL0     H94715  10.152   5.604  -0.092  0.6673  0.5452  0.6319
  702MOL0     H94716  10.126   5.453  -0.173 -3.4815  1.9657 -1.5037
  702MOL0     H94717  10.351   5.469  -0.287  0.6651  0.3071  0.0284
  702MOL0     H94718  10.343   5.433  -0.118  0.1037 -0.3166  0.4043
  702MOL0     H94719  10.369   5.721  -0.148  1.2983  1.4763 -1.0775
  702MOL0     H94720  10.496   5.614  -0.081  0.3449 -0.8884 -0.0745
  702MOL0     H94721  10.390   5.744  -0.438 -1.0493 -0.2068  0.5373
  702MOL0     H94722  10.585   5.833  -0.646  0.2720  1.0603 -1.5892
  702MOL0     H94723  10.731   5.732  -0.652 -1.0776  0.5618 -3.9107
  702MOL0     H94724  10.639   5.606  -0.792  0.7937 -2.3186  2.0328
  702MOL0     H94725  10.531   5.545  -0.685  1.0667  0.3023  0.2390
  702MOL0     H94726  10.466   5.799  -0.869  0.2360  0.8979  0.4513
  702MOL0     H94727  10.376   5.764  -0.735 -0.4481  0.0265 -0.5099
  702MOL0     H94728  10.234   5.659  -0.865 -0.2730 -0.5777  3.7328
  702MOL0     H94729  10.326   5.522  -0.815  1.1050 -0.7359  0.0430
  702MOL0     H94730  10.278   5.343  -0.995  0.3078 -4.4690 -0.1896
  702MOL0     H94731  10.401   5.152  -1.039  0.4159  0.6032  0.5022
  702MOL0     H94732  11.030   5.148  -1.048 -0.0297  0.2812  0.2162
  702MOL0     H94733  11.209   4.994  -1.121  0.5547 -0.5744 -1.6524
  702MOL0     H94734  11.244   4.757  -1.119 -0.8755  1.1657  0.0427
  702MOL0     H94735  11.211   4.620  -1.231  4.3478 -1.3932  0.0499
  702MOL0     H94736  11.432   4.826  -1.265  0.2475 -0.4340 -1.7904
  702MOL0     H94737  11.460   4.673  -1.201  1.1935  1.4161 -0.3384
  702MOL0     H94738  11.396   4.552  -1.399 -3.9029  1.0078  3.5315
  702MOL0     H94739  11.331   4.695  -1.474 -0.5834 -0.5102  1.5380
  702MOL0     H94740  11.632   4.677  -1.418  0.9785 -1.4184 -0.1168
  702MOL0     H94741  11.533   4.779  -1.535  2.4303  0.3408 -1.3447
  702MOL0     H94742  11.496   4.533  -1.665 -0.2906 -0.0971 -0.5634
  702MOL0     H94743  11.614   4.476  -1.549 -1.9953 -0.6259  0.4974
  702MOL0     H94744  11.647   4.714  -1.732 -3.9850  0.5123  1.9218
  702MOL0     H94745  11.769   4.657  -1.627 -0.7405 -1.3675  2.4407
  702MOL0     H94746  11.748   4.424  -1.752  1.6297 -0.3321  0.1497
  702MOL0     H94747  11.826   4.539  -1.855  0.7202 -0.3624  0.5838
  702MOL0     H94748  11.634   4.429  -1.982 -1.7284 -0.4108  0.4031
  702MOL0     H94749  11.519   4.488  -1.878 -0.5155  0.4811 -0.4943
  702MOL0     H94750  10.929   4.798  -1.384  0.7359  1.1429 -2.9049
  702MOL0     H94751  10.768   4.976  -1.335  0.4432  5.0212 -1.7933
  702MOL0     H94752  10.757   5.390  -1.138  1.5371 -0.1562  4.0621
  702MOL0     H94753  10.598   5.589  -1.101 -2.0985 -0.1963 -2.6625
  702MOL0     H94754   9.862   6.197  -0.456 -0.2472 -2.0132 -0.7662
  702MOL0     H94755   9.940   6.387  -0.326 -1.5674  1.1421  0.5733
  702MOL0     H94756  10.292   6.519  -0.056  1.1493 -0.1044  0.8765
  702MOL0     H94757  10.389   6.710   0.039 -0.5208  1.2322 -0.6311
  702MOL0     H94758  10.343   6.940   0.013 -1.8667 -0.2726  0.5532
  702MOL0     H94759  10.458   6.905   0.143  0.9582  2.0065 -0.9004
  702MOL0     H94760  10.464   7.145   0.132 -1.9187  2.9103  1.0045
  702MOL0     H94761  10.354   7.110   0.266 -0.8211 -1.3247 -0.0343
  702MOL0     H94762  10.173   7.186   0.069 -0.7270  2.6319 -0.7961
  702MOL0     H94763  10.310   7.177  -0.026  2.9560 -0.1679  0.0598
  702MOL0     H94764  10.403   7.376   0.103 -1.5189  6.2808  0.5105
  702MOL0     H94765  10.236   7.411   0.063 -2.5517  0.1043  1.8457
  702MOL0     H94766  10.179   7.412   0.470  3.0402 -0.6915  2.7451
  702MOL0     H94767  10.032   6.772   0.272  0.0510 -2.3974  1.3560
  702MOL0     H94768   9.911   6.578   0.310 -1.4536 -0.2892 -1.2653
  702MOL0     H94769   9.825   6.587   0.159  1.5314  0.3653 -3.2258
  702MOL0     H94770   9.919   6.439   0.211 -3.3074 -0.7982  2.2282
  703MOL0     O94771   5.343   6.688   5.375  0.2807  0.2093 -0.4083
  703MOL0     C94772   5.270   6.731   5.288  0.7621  0.0190  0.4614
  703MOL0     O94773   5.258   6.861   5.249  0.4894 -0.2796  0.2026
  703MOL0     C94774   5.359   6.941   5.285  0.0238 -0.6547  0.0667
  703MOL0     C94775   5.492   6.928   5.257 -0.9816 -0.6515  0.7640
  703MOL0     C94776   5.594   7.017   5.299 -0.6974  1.0008  0.4605
  703MOL0     C94777   5.560   7.124   5.378 -0.2873 -0.5215 -0.4747
  703MOL0     O94778   5.664   7.212   5.415  0.1637 -0.4408  0.0063
  703MOL0     C94779   5.619   7.351   5.437  0.6544  0.3553  0.7430
  703MOL0     C94780   5.741   7.440   5.465  0.9050  0.4324  0.1983
  703MOL0     C94781   5.699   7.587   5.483 -0.2763  0.0021  0.2738
  703MOL0     C94782   5.821   7.674   5.538  0.1330  0.5364 -0.5626
  703MOL0     C94783   5.776   7.821   5.569 -0.3247 -0.8856 -0.0334
  703MOL0     C94784   5.697   7.840   5.698 -0.7898 -0.6667  0.4065
  703MOL0     C94785   5.607   7.960   5.696  0.9581  0.0174 -0.4583
  703MOL0     C94786   5.509   7.963   5.820 -0.3588 -0.0451  0.2196
  703MOL0     N94787   5.479   8.093   5.887 -0.2480  0.5918  0.3894
  703MOL0     C94788   5.430   8.200   5.817  0.3559  0.0196  0.9173
  703MOL0     C94789   5.425   8.293   5.911 -0.2964 -1.0769  0.5252
  703MOL0     C94790   5.384   8.432   5.895  0.4084 -0.2989  0.0843
  703MOL0     C94791   5.240   8.445   5.857 -0.5258 -0.6863  0.2561
  703MOL0     C94792   5.211   8.592   5.817 -0.2590 -0.8197  0.0235
  703MOL0     C94793   5.066   8.627   5.791  0.2884 -0.2799  0.1210
  703MOL0     O94794   5.009   8.524   5.706 -0.1605  0.2747  0.4624
  703MOL0     C94795   4.871   8.529   5.672 -0.1179 -0.5375 -0.6577
  703MOL0     C94796   4.810   8.406   5.638 -0.6588 -0.7595  0.4954
  703MOL0     C94797   4.678   8.392   5.620  0.2033 -0.2166  0.5744
  703MOL0     C94798   4.590   8.503   5.641 -0.9401 -0.0100  0.8023
  703MOL0     C94799   4.447   8.479   5.628 -1.5717  0.0631  0.1705
  703MOL0     O94800   4.380   8.560   5.713  0.0482  0.0852 -0.8099
  703MOL0     C94801   4.244   8.543   5.735  0.3456 -0.5469 -0.1846
  703MOL0     C94802   4.145   8.544   5.632 -0.0903  0.5328 -0.3931
  703MOL0     C94803   4.013   8.511   5.662  0.3536  0.0802  1.1619
  703MOL0     C94804   3.972   8.507   5.797 -0.7389  0.7567 -0.3284
  703MOL0     O94805   3.854   8.462   5.832 -0.0846  0.0967 -0.2086
  703MOL0     C94806   3.743   8.513   5.759  0.1192 -0.0478  0.6636
  703MOL0     C94807   3.616   8.509   5.857  0.1569 -0.0536 -0.2444
  703MOL0     C94808   3.508   8.564   5.776 -0.1776 -0.6032  0.0240
  703MOL0     C94809   3.368   8.547   5.838 -0.3035  0.1485  0.2971
  703MOL0     C94810   3.262   8.569   5.726 -0.3854 -0.4286  0.0413
  703MOL0     C94811   3.233   8.705   5.671 -0.2320  0.0867  0.2660
  703MOL0     C94812   3.165   8.796   5.774 -0.0823 -0.9621 -0.1829
  703MOL0     C94813   3.091   8.902   5.692 -0.2600  0.1090  0.3612
  703MOL0    Cl94814   3.219   9.024   5.631 -0.0529 -0.0638  0.1410
  703MOL0     C94815   4.070   8.511   5.897  0.8753  1.0452 -0.9624
  703MOL0     C94816   4.204   8.525   5.866  0.3494 -0.7228 -0.1245
  703MOL0     O94817   4.391   8.395   5.559  0.1442  0.3352  0.1431
  703MOL0     C94818   4.645   8.626   5.676  0.2209 -0.0911 -0.7657
  703MOL0     C94819   4.785   8.642   5.686  0.2218 -0.0501  0.0741
  703MOL0     N94820   5.470   8.247   6.033 -0.2000  0.1369 -0.1093
  703MOL0     N94821   5.514   8.125   6.014  0.1910  0.6541 -0.6611
  703MOL0     C94822   5.424   7.141   5.413  0.6365 -0.4765 -0.0850
  703MOL0     C94823   5.327   7.052   5.357  0.4323 -0.2169 -0.1882
  703MOL0     C94824   5.188   6.628   5.207 -0.9099 -0.8744 -0.8412
  703MOL0     C94825   5.072   6.676   5.144 -0.5858 -0.9391 -0.2174
  703MOL0     C94826   4.987   6.585   5.079  0.1683 -0.5535 -0.4414
  703MOL0     C94827   5.001   6.446   5.085 -0.1112 -0.1153 -0.4495
  703MOL0     O94828   4.906   6.366   5.019  0.7692 -0.1035  0.5287
  703MOL0     C94829   4.838   6.275   5.090 -0.2397  0.5127  0.0413
  703MOL0     C94830   4.728   6.198   5.011  0.0177  0.2047 -0.0367
  703MOL0     C94831   4.604   6.289   4.999 -0.0564 -0.0807  0.1120
  703MOL0     C94832   4.575   6.348   4.864  0.2495 -0.0572  0.2591
  703MOL0     C94833   4.691   6.437   4.820  0.4946 -0.8466 -0.3113
  703MOL0     C94834   4.778   6.517   4.778 -0.0463  0.0435  0.4475
  703MOL0     C94835   5.115   6.400   5.145  0.1541 -0.1467 -0.7266
  703MOL0     C94836   5.213   6.484   5.202  0.0571 -0.6939  0.3313
  703MOL0     C94837   5.346   6.426   5.234  0.7750  0.1254 -0.3509
  703MOL0     H94838   5.527   6.854   5.185 -1.6092 -0.7215  0.5255
  703MOL0     H94839   5.694   7.004   5.257 -0.8136 -0.7651  0.6603
  703MOL0     H94840   5.562   7.383   5.349  0.1644 -0.7495  0.6427
  703MOL0     H94841   5.563   7.347   5.531  0.8334 -1.9091  0.8099
  703MOL0     H94842   5.815   7.428   5.385  0.3241 -3.4547  0.0335
  703MOL0     H94843   5.772   7.398   5.561 -1.4245  1.1157  1.3420
  703MOL0     H94844   5.637   7.585   5.573 -0.1487  1.8504  0.4332
  703MOL0     H94845   5.645   7.642   5.406  0.1472 -0.1721 -0.1485
  703MOL0     H94846   5.860   7.630   5.631 -1.2839 -0.1318 -0.2580
  703MOL0     H94847   5.909   7.673   5.473 -0.5342  2.6736 -1.5773
  703MOL0     H94848   5.867   7.881   5.566 -1.7881  1.5326  0.8835
  703MOL0     H94849   5.719   7.858   5.483 -0.3065  2.7680  1.3655
  703MOL0     H94850   5.629   7.754   5.707  0.5007 -1.7744 -0.1415
  703MOL0     H94851   5.764   7.836   5.784  1.1903 -1.4790 -1.1107
  703MOL0     H94852   5.552   7.952   5.602  3.0689  1.3496 -1.9093
  703MOL0     H94853   5.661   8.056   5.693  0.3411  0.4008  0.2438
  703MOL0     H94854   5.421   7.908   5.786  1.2228 -1.2714 -2.1604
  703MOL0     H94855   5.553   7.904   5.901  0.1461  0.5937  0.4234
  703MOL0     H94856   5.388   8.196   5.717  1.9017 -1.2165  0.2589
  703MOL0     H94857   5.412   8.486   5.986  2.2233 -0.9740 -0.0272
  703MOL0     H94858   5.445   8.474   5.814 -1.1003  0.6853 -0.5846
  703MOL0     H94859   5.218   8.391   5.764 -1.7225  2.3709 -1.4240
  703MOL0     H94860   5.173   8.420   5.939 -2.6280 -0.0941 -1.1877
  703MOL0     H94861   5.266   8.614   5.726  0.8624 -0.6642  0.7200
  703MOL0     H94862   5.236   8.671   5.889 -3.3509  0.0311  0.3129
  703MOL0     H94863   5.060   8.722   5.737  0.1409 -0.1592  0.3473
  703MOL0     H94864   5.010   8.634   5.885  1.4197  0.7090  0.7494
  703MOL0     H94865   4.864   8.312   5.631 -1.1095 -0.9511 -0.6927
  703MOL0     H94866   4.627   8.297   5.605 -1.4877  0.9354 -1.6473
  703MOL0     H94867   4.176   8.569   5.531 -1.3419  1.9308 -0.4688
  703MOL0     H94868   3.944   8.491   5.581  3.1645 -1.8611 -0.9765
  703MOL0     H94869   3.751   8.617   5.724 -1.2926 -0.4209 -0.8611
  703MOL0     H94870   3.722   8.449   5.674 -3.8411  1.7984  0.0366
  703MOL0     H94871   3.594   8.406   5.887  2.2236 -0.9001 -1.4120
  703MOL0     H94872   3.640   8.568   5.946 -1.0348 -0.5947  0.4537
  703MOL0     H94873   3.526   8.666   5.740 -2.2057  0.6249  2.1871
  703MOL0     H94874   3.512   8.521   5.675 -1.4947 -1.6930  0.4095
  703MOL0     H94875   3.358   8.619   5.920  1.7693  0.7125  0.1140
  703MOL0     H94876   3.354   8.448   5.881 -0.7703 -0.1643 -0.5520
  703MOL0     H94877   3.169   8.531   5.768  0.5386  0.3102  3.0174
  703MOL0     H94878   3.283   8.499   5.645 -5.4713 -1.4944 -0.6826
  703MOL0     H94879   3.324   8.749   5.630 -2.2040  1.3926 -3.0961
  703MOL0     H94880   3.170   8.679   5.586  2.3425  1.3357 -2.2011
  703MOL0     H94881   3.231   8.853   5.841 -1.8962 -0.1267  0.9845
  703MOL0     H94882   3.100   8.738   5.840 -0.8167  0.6884  0.6197
  703MOL0     H94883   3.040   8.867   5.602  3.0867  2.4335 -2.7911
  703MOL0     H94884   3.022   8.954   5.759  0.5901  3.0896 -0.9200
  703MOL0     H94885   4.048   8.502   6.003  2.1340 -1.0092 -0.8388
  703MOL0     H94886   4.275   8.528   5.947  2.4466  1.1299 -1.9052
  703MOL0     H94887   4.587   8.714   5.700  1.5342  1.1473 -1.9608
  703MOL0     H94888   4.817   8.739   5.724  1.0964  0.1828 -1.2090
  703MOL0     H94889   5.380   7.230   5.457 -2.1220 -0.2530 -2.9480
  703MOL0     H94890   5.226   7.049   5.397  1.6811 -4.7017  3.6100
  703MOL0     H94891   5.056   6.782   5.161 -0.9234 -1.2783  1.7841
  703MOL0     H94892   4.901   6.618   5.022 -1.8164 -2.7374  1.0897
  703MOL0     H94893   4.788   6.333   5.168  0.3419 -0.0265  0.8370
  703MOL0     H94894   4.909   6.199   5.126 -0.6695 -0.4686 -1.0841
  703MOL0     H94895   4.695   6.107   5.060 -0.1233 -1.5639 -3.1633
  703MOL0     H94896   4.774   6.168   4.917  0.2144  0.8360 -0.1486
  703MOL0     H94897   4.606   6.362   5.080  3.5448  0.6555 -0.4608
  703MOL0     H94898   4.515   6.229   5.019  1.0530 -2.6317 -1.9017
  703MOL0     H94899   4.558   6.274   4.785  3.2390  0.3491 -0.9061
  703MOL0     H94900   4.483   6.406   4.869 -0.7802 -0.9884 -3.8663
  703MOL0     H94901   4.838   6.596   4.738  3.9615 -2.3130  1.2727
  703MOL0     H94902   5.127   6.293   5.131  1.1975 -0.0289 -0.8835
  703MOL0     H94903   5.431   6.492   5.216  0.2370  0.7382 -0.7252
  703MOL0     H94904   5.339   6.400   5.340  0.2077  2.9762  0.4230
  703MOL0     H94905   5.354   6.343   5.164 -0.7818 -0.0948 -0.3070
  704MOL0     O94906   3.991   0.451  10.841  0.3466  1.0462 -0.3287
  704MOL0     C94907   4.033   0.542  10.908  0.7220  0.5042  0.1859
  704MOL0     O94908   3.975   0.660  10.918  0.8194  0.0721 -0.3043
  704MOL0     C94909   3.850   0.678  10.857 -0.0810 -0.4278 -0.1992
  704MOL0     C94910   3.846   0.728  10.716  0.3337  0.5683  0.6166
  704MOL0     C94911   3.720   0.748  10.658 -1.0184  0.7774 -0.3557
  704MOL0     C94912   3.595   0.736  10.729  0.0432  0.6235 -1.1516
  704MOL0     O94913   3.480   0.750  10.664 -0.2097 -0.1365 -0.5627
  704MOL0     C94914   3.364   0.770  10.740  0.4204 -0.8530 -0.8941
  704MOL0     C94915   3.250   0.827  10.655 -0.2594  0.3400 -0.4364
  704MOL0     C94916   3.111   0.845  10.715 -0.0709 -0.0928 -0.6152
  704MOL0     C94917   3.029   0.899  10.605  0.6815 -1.0093  0.6571
  704MOL0     C94918   2.891   0.948  10.645  0.2763  0.0650 -0.3928
  704MOL0     C94919   2.806   0.999  10.529  0.0706 -0.8342 -0.5501
  704MOL0     C94920   2.664   1.032  10.573 -0.5449  0.4840 -0.6801
  704MOL0     C94921   2.569   1.052  10.459  0.2396 -0.7797 -0.7293
  704MOL0     N94922   2.626   1.164  10.385 -0.2831 -0.3835 -0.1485
  704MOL0     C94923   2.623   1.298  10.412 -0.0819  0.1269 -0.4540
  704MOL0     C94924   2.697   1.356  10.320 -0.1630  0.4109 -0.1427
  704MOL0     C94925   2.726   1.504  10.315 -0.5273  1.0802  0.3419
  704MOL0     C94926   2.616   1.559  10.220  0.3907  0.2133  0.4922
  704MOL0     C94927   2.500   1.611  10.295 -0.0152 -0.0768  0.0058
  704MOL0     C94928   2.396   1.673  10.199  1.0645  0.0547  0.4426
  704MOL0     O94929   2.278   1.591  10.208 -0.8486 -1.0368 -0.0214
  704MOL0     C94930   2.162   1.646  10.157 -0.2875 -1.4605 -0.4853
  704MOL0     C94931   2.053   1.562  10.189  0.5602 -0.5825  0.3180
  704MOL0     C94932   1.924   1.591  10.161  0.6486  0.8811  0.3938
  704MOL0     C94933   1.897   1.697  10.077 -0.0686  0.8508  0.6191
  704MOL0     C94934   1.753   1.705  10.027  0.6112 -0.6116 -0.7823
  704MOL0     O94935   1.665   1.599  10.054 -0.2090  0.4982 -0.7740
  704MOL0     C94936   1.530   1.607  10.027  0.4422  0.1606 -0.5945
  704MOL0     C94937   1.449   1.712  10.072  0.2217 -0.6608  0.3367
  704MOL0     C94938   1.313   1.704  10.053  0.7895  0.2609  0.2533
  704MOL0     C94939   1.251   1.601   9.977  0.3416 -0.9625 -0.4892
  704MOL0     O94940   1.113   1.613   9.960 -0.4772  0.1207  0.1890
  704MOL0     C94941   1.039   1.504   9.905  0.1071 -0.0672  0.1547
  704MOL0     C94942   0.895   1.521   9.920  0.8122  0.0581 -0.4430
  704MOL0     C94943   0.834   1.392   9.873 -0.3036 -0.5238 -0.1980
  704MOL0     C94944   0.681   1.399   9.845 -0.1650  0.7182  0.3480
  704MOL0     C94945   0.636   1.279   9.750 -1.3145 -0.1916  0.4163
  704MOL0     C94946   0.492   1.285   9.703  0.7574  0.7715 -0.7283
  704MOL0     C94947   0.461   1.160   9.609 -1.5988 -0.5638 -0.7077
  704MOL0     C94948   0.370   1.069   9.694  0.1275  0.1793  0.0781
  704MOL0    Cl94949   0.208   1.142   9.737  0.0407  0.4930 -0.0273
  704MOL0     C94950   1.329   1.491   9.938  0.6257  0.1115  0.5045
  704MOL0     C94951   1.466   1.494   9.971 -0.6967  0.1785  0.5663
  704MOL0     O94952   1.717   1.810   9.979  0.1387 -0.6463  0.5642
  704MOL0     C94953   2.000   1.783  10.039  0.2838  0.0820 -0.4900
  704MOL0     C94954   2.131   1.759  10.087 -0.0854 -0.1188 -0.9012
  704MOL0     N94955   2.755   1.263  10.242  0.2569 -0.6164  0.4830
  704MOL0     N94956   2.711   1.144  10.281 -0.3302 -0.5170  0.0952
  704MOL0     C94957   3.604   0.695  10.871  0.0420 -0.1798 -0.4379
  704MOL0     C94958   3.731   0.677  10.929 -0.2947  0.3995  0.0253
  704MOL0     C94959   4.159   0.525  10.991  0.1183  0.3471 -0.3391
  704MOL0     C94960   4.181   0.619  11.084 -1.2342 -0.4721 -0.0318
  704MOL0     C94961   4.291   0.612  11.172 -1.1450  0.6109  0.2473
  704MOL0     C94962   4.377   0.496  11.175 -0.4886 -0.8586  0.2504
  704MOL0     O94963   4.467   0.465  11.278  0.2256 -0.9233  0.0762
  704MOL0     C94964   4.418   0.468  11.405  1.3935 -1.1333 -0.3751
  704MOL0     C94965   4.502   0.368  11.492  0.7598  0.9492 -0.2308
  704MOL0     C94966   4.408   0.336  11.608  0.7091 -0.9277  0.4995
  704MOL0     C94967   4.452   0.210  11.684 -0.1114  0.2394  0.9086
  704MOL0     C94968   4.527   0.230  11.800 -0.5885 -0.0743 -0.3026
  704MOL0     C94969   4.602   0.250  11.899  1.2266 -0.0915 -0.7591
  704MOL0     C94970   4.367   0.407  11.067 -0.3633 -0.2618  0.7930
  704MOL0     C94971   4.258   0.418  10.974 -0.0912  0.1029  0.0513
  704MOL0     C94972   4.256   0.313  10.875  0.3867  0.9305  0.1311
  704MOL0     H94973   3.935   0.755  10.661  0.0166 -2.1522 -1.4286
  704MOL0     H94974   3.707   0.777  10.554  0.2635  1.9711 -0.2203
  704MOL0     H94975   3.330   0.673  10.777 -4.1947 -1.3564 -5.3518
  704MOL0     H94976   3.383   0.834  10.827  1.1053  0.1609 -1.7649
  704MOL0     H94977   3.240   0.753  10.575 -2.2761 -1.0647  1.0091
  704MOL0     H94978   3.280   0.924  10.614  0.5368  0.1329 -0.3654
  704MOL0     H94979   3.121   0.924  10.790 -1.3861  0.1789 -0.7043
  704MOL0     H94980   3.066   0.757  10.760  0.9226 -0.3530 -0.1075
  704MOL0     H94981   3.072   0.983  10.549  0.1642 -0.5545  0.9366
  704MOL0     H94982   3.003   0.821  10.533  3.0649 -0.7750 -0.5844
  704MOL0     H94983   2.839   0.871  10.702  2.9432  0.7717  3.3723
  704MOL0     H94984   2.904   1.034  10.712  0.2573 -0.6854  0.6005
  704MOL0     H94985   2.857   1.083  10.481  1.4709 -2.7865 -2.7017
  704MOL0     H94986   2.793   0.918  10.457 -1.6421  0.9015 -2.3206
  704MOL0     H94987   2.681   1.118  10.638  0.2228  0.5986 -1.0301
  704MOL0     H94988   2.628   0.945  10.630 -0.6359  1.7319  1.2432
  704MOL0     H94989   2.556   0.964  10.396 -0.8865 -1.8523  0.9227
  704MOL0     H94990   2.465   1.076  10.486 -0.1229  2.1828 -4.0044
  704MOL0     H94991   2.575   1.353  10.492 -0.0034  1.2807 -1.1840
  704MOL0     H94992   2.706   1.543  10.415 -3.6829  1.0008 -0.1411
  704MOL0     H94993   2.826   1.515  10.273  1.0928  0.4020  3.7597
  704MOL0     H94994   2.675   1.633  10.165  1.4070  1.2277  2.7962
  704MOL0     H94995   2.576   1.483  10.152 -0.0112  0.6484  0.2347
  704MOL0     H94996   2.538   1.689  10.362  3.7722 -0.6959 -1.1910
  704MOL0     H94997   2.446   1.536  10.354 -1.3073 -0.1031 -1.1579
  704MOL0     H94998   2.430   1.677  10.095  0.5673 -1.4337  0.1950
  704MOL0     H94999   2.366   1.771  10.238 -2.0625  0.1632 -1.8184
  704MOL0     H95000   2.084   1.468  10.233 -1.0841 -1.6392 -0.6984
  704MOL0     H95001   1.842   1.532  10.199 -0.2285  1.1344 -1.0391
  704MOL0     H95002   1.496   1.800  10.115  0.9318 -0.1818 -1.3502
  704MOL0     H95003   1.251   1.789  10.076 -0.2697 -0.4594  0.1230
  704MOL0     H95004   1.059   1.502   9.798  1.1588 -1.0232  0.3455
  704MOL0     H95005   1.071   1.418   9.965 -0.7825  1.3754  2.8660
  704MOL0     H95006   0.861   1.533  10.023  0.8163 -0.1732 -0.4129
  704MOL0     H95007   0.864   1.610   9.865 -0.6826 -0.5030 -0.5606
  704MOL0     H95008   0.884   1.378   9.778  2.1542  2.9522  0.3908
  704MOL0     H95009   0.853   1.307   9.939 -1.7154  0.9886  2.3362
  704MOL0     H95010   0.669   1.491   9.788  0.6666 -0.7604 -2.3784
  704MOL0     H95011   0.621   1.398   9.937  3.1761  0.4553  2.7429
  704MOL0     H95012   0.646   1.192   9.815 -0.6132 -0.8767 -0.5837
  704MOL0     H95013   0.696   1.280   9.658  1.5376  0.5540  2.1556
  704MOL0     H95014   0.422   1.290   9.787  1.3414 -0.2270 -0.1616
  704MOL0     H95015   0.485   1.373   9.639  1.0977  0.8569 -0.6497
  704MOL0     H95016   0.545   1.103   9.570  0.3595  0.6694  1.4682
  704MOL0     H95017   0.408   1.195   9.519  1.0792 -0.3576 -2.3126
  704MOL0     H95018   0.344   0.971   9.652  0.6964 -0.0621  0.2696
  704MOL0     H95019   0.422   1.031   9.783 -2.3121 -4.6848 -0.2389
  704MOL0     H95020   1.286   1.404   9.888  1.5053 -1.4578  2.3380
  704MOL0     H95021   1.531   1.412   9.941 -1.0985 -0.0985  0.4547
  704MOL0     H95022   1.970   1.868   9.979  0.5433  1.4737  1.2634
  704MOL0     H95023   2.210   1.821  10.046 -0.0907  0.2336 -0.3902
  704MOL0     H95024   3.529   0.682  10.948  1.1060 -2.2150  0.3370
  704MOL0     H95025   3.740   0.644  11.032  0.5659 -1.1179 -0.5073
  704MOL0     H95026   4.128   0.713  11.085 -1.1608 -0.4323  0.4115
  704MOL0     H95027   4.314   0.692  11.242  4.5022  1.2011 -1.7639
  704MOL0     H95028   4.311   0.442  11.406  0.7740  1.1417 -1.0544
  704MOL0     H95029   4.421   0.573  11.436 -1.2210 -0.8306 -0.8984
  704MOL0     H95030   4.603   0.401  11.520  0.3152  1.5464  0.7160
  704MOL0     H95031   4.520   0.289  11.418 -0.4933  1.7818 -1.4582
  704MOL0     H95032   4.312   0.304  11.566  0.5941  0.9957 -0.8094
  704MOL0     H95033   4.388   0.425  11.668 -2.9117 -0.7059 -0.7477
  704MOL0     H95034   4.371   0.140  11.707  0.3826 -0.2548  1.1927
  704MOL0     H95035   4.521   0.161  11.613 -0.1716  1.1390  0.2133
  704MOL0     H95036   4.652   0.265  11.993 -0.6377  0.1854  0.2420
  704MOL0     H95037   4.434   0.322  11.066  0.0591  0.0451 -1.3817
  704MOL0     H95038   4.223   0.364  10.784 -2.1496  0.7648  0.8743
  704MOL0     H95039   4.350   0.266  10.844 -0.0792 -1.3060  1.8336
  704MOL0     H95040   4.195   0.229  10.909  2.3455 -0.0004  1.5831
  705MOL0     O95041   7.578   9.236   9.386  0.0171  0.8440  0.6332
  705MOL0     C95042   7.550   9.321   9.462  0.5625 -0.4502 -0.6518
  705MOL0     O95043   7.418   9.369   9.481  0.1915  0.2974 -0.4855
  705MOL0     C95044   7.312   9.289   9.432 -1.0876 -0.4803  0.4840
  705MOL0     C95045   7.268   9.316   9.303 -0.2001  0.1145  0.0232
  705MOL0     C95046   7.167   9.238   9.254  0.0352 -0.3950  0.1144
  705MOL0     C95047   7.123   9.123   9.318 -0.4644  0.5673  0.6591
  705MOL0     O95048   7.037   9.045   9.254  0.0620 -0.8540  0.5282
  705MOL0     C95049   7.069   8.986   9.129  0.2890  0.0744 -0.1902
  705MOL0     C95050   6.980   9.029   9.014  0.2017 -0.1326  0.4337
  705MOL0     C95051   7.064   9.001   8.887 -0.8831 -0.0724 -0.0344
  705MOL0     C95052   7.067   8.851   8.859  0.0429  0.7524  0.2591
  705MOL0     C95053   6.930   8.797   8.809  0.1901  0.9527  0.6066
  705MOL0     C95054   6.940   8.652   8.772  0.9989  0.1796  0.2992
  705MOL0     C95055   6.976   8.637   8.622 -0.0714  0.2775  0.8135
  705MOL0     C95056   7.008   8.493   8.580 -0.5717  0.6074 -0.1110
  705MOL0     N95057   7.143   8.454   8.627  0.0180  0.9621  1.1250
  705MOL0     C95058   7.183   8.328   8.580  0.9797  0.4498  0.4695
  705MOL0     C95059   7.294   8.303   8.660  0.5097  0.3786 -1.0515
  705MOL0     C95060   7.360   8.168   8.652 -0.6997  0.6260  0.6089
  705MOL0     C95061   7.307   8.072   8.747  0.6547  0.8020 -0.3537
  705MOL0     C95062   7.323   8.117   8.900 -0.2897  0.0695  0.3129
  705MOL0     C95063   7.433   8.044   8.966  0.0254  0.7463 -0.5535
  705MOL0     O95064   7.561   8.076   8.900  0.0857  0.1504 -0.6980
  705MOL0     C95065   7.677   8.014   8.939 -0.5574 -1.0472 -0.3794
  705MOL0     C95066   7.780   8.026   8.849 -0.3690  0.0443 -0.1671
  705MOL0     C95067   7.913   7.977   8.885 -0.5021  0.8293  0.3977
  705MOL0     C95068   7.936   7.917   9.010  0.6529 -0.7175 -0.8826
  705MOL0     C95069   8.065   7.887   9.075  0.6375 -0.2363 -0.7700
  705MOL0     O95070   8.177   7.958   9.049  0.2790 -0.0241  0.6703
  705MOL0     C95071   8.303   7.919   9.073 -0.4015 -0.2669  0.0638
  705MOL0     C95072   8.398   7.993   9.000  0.0459 -0.8899  0.4545
  705MOL0     C95073   8.532   7.948   9.007 -0.1087 -0.6045 -0.3750
  705MOL0     C95074   8.570   7.845   9.108 -0.2859 -0.0676  0.1469
  705MOL0     O95075   8.703   7.809   9.105 -0.2554 -0.4575  0.3940
  705MOL0     C95076   8.721   7.670   9.143 -0.1327  0.1196 -0.1056
  705MOL0     C95077   8.873   7.628   9.158  0.1396  1.0103  1.4586
  705MOL0     C95078   8.914   7.586   9.301 -0.3570 -0.0343 -0.7105
  705MOL0     C95079   9.061   7.549   9.305  0.0278 -0.4561  0.2298
  705MOL0     C95080   9.109   7.545   9.452  0.4110 -0.1434 -0.3726
  705MOL0     C95081   9.246   7.489   9.468  0.6198 -0.1690  0.0730
  705MOL0     C95082   9.266   7.348   9.410 -0.7207 -0.4392 -0.7729
  705MOL0     C95083   9.412   7.307   9.448  0.8961 -0.1579 -0.0779
  705MOL0    Cl95084   9.417   7.236   9.610 -0.2743  0.5641 -0.1615
  705MOL0     C95085   8.472   7.780   9.175  0.3274  0.1397  0.4080
  705MOL0     C95086   8.337   7.813   9.159 -0.8262 -0.4712  0.4950
  705MOL0     O95087   8.050   7.778   9.136 -0.5364 -0.0106  0.1309
  705MOL0     C95088   7.824   7.901   9.100  0.7509  1.2038  0.0997
  705MOL0     C95089   7.702   7.955   9.068  0.5796  0.7971  0.0519
  705MOL0     N95090   7.314   8.409   8.749 -0.4101  0.2784 -0.2624
  705MOL0     N95091   7.228   8.499   8.725  0.8059  0.3393  0.3936
  705MOL0     C95092   7.174   9.096   9.441  0.0849  0.8396  0.2590
  705MOL0     C95093   7.262   9.182   9.502 -0.6678  0.1398  0.5044
  705MOL0     C95094   7.664   9.386   9.520 -0.4118 -0.7559 -0.2195
  705MOL0     C95095   7.783   9.312   9.529 -0.3564 -0.1948  0.2688
  705MOL0     C95096   7.907   9.371   9.545  0.2949  0.4938 -0.3782
  705MOL0     C95097   7.912   9.510   9.574 -0.6331  0.4815 -0.0094
  705MOL0     O95098   8.030   9.573   9.585 -0.7956 -0.5163 -0.7550
  705MOL0     C95099   8.136   9.546   9.490  0.5580 -0.1443 -0.0773
  705MOL0     C95100   8.238   9.657   9.525  0.9330  0.5336 -0.5910
  705MOL0     C95101   8.309   9.619   9.650 -0.9685  0.3263 -0.7601
  705MOL0     C95102   8.412   9.722   9.690  0.5802  0.7143 -0.2833
  705MOL0     C95103   8.518   9.744   9.587  0.7683  0.1628 -1.1846
  705MOL0     C95104   8.623   9.755   9.531 -0.7344  0.2755 -0.6471
  705MOL0     C95105   7.798   9.585   9.585  0.5173 -0.3697  0.2536
  705MOL0     C95106   7.672   9.524   9.553 -0.2020 -0.1584  1.4874
  705MOL0     C95107   7.545   9.607   9.556 -0.4737  0.1764 -1.0117
  705MOL0     H95108   7.319   9.395   9.250  0.9899 -1.3261 -1.0603
  705MOL0     H95109   7.121   9.258   9.157 -2.6368  4.7204  2.0185
  705MOL0     H95110   7.173   8.997   9.099  2.1617 -4.5116  3.4327
  705MOL0     H95111   7.049   8.880   9.145  0.8178  0.2723  2.3169
  705MOL0     H95112   6.945   9.132   9.024 -0.6716 -0.4426  0.7307
  705MOL0     H95113   6.889   8.968   9.010  2.1788 -3.2114 -2.0227
  705MOL0     H95114   7.167   9.030   8.908 -0.9485 -1.3098  2.3356
  705MOL0     H95115   7.031   9.041   8.791  0.0378 -1.0268 -0.7637
  705MOL0     H95116   7.135   8.827   8.776 -0.7500  0.5334 -0.3399
  705MOL0     H95117   7.093   8.801   8.952  3.0638 -1.6448 -1.6479
  705MOL0     H95118   6.852   8.815   8.884 -0.0001  1.1152  0.3701
  705MOL0     H95119   6.900   8.846   8.716  2.3138  2.7744  0.7976
  705MOL0     H95120   7.014   8.597   8.830  0.3055 -3.8225 -2.1819
  705MOL0     H95121   6.843   8.604   8.784  1.0644 -1.2355 -3.2855
  705MOL0     H95122   7.063   8.699   8.600  0.2999 -0.4282  0.2741
  705MOL0     H95123   6.891   8.655   8.555  1.8520 -1.1425 -2.1938
  705MOL0     H95124   6.923   8.435   8.620 -1.0518  0.3518 -1.4411
  705MOL0     H95125   7.013   8.491   8.471 -1.1474 -1.9955 -0.1569
  705MOL0     H95126   7.140   8.273   8.497 -0.2572 -0.0802  1.4270
  705MOL0     H95127   7.369   8.120   8.555  0.8046 -1.3621  1.6492
  705MOL0     H95128   7.468   8.171   8.670 -0.4452 -0.9484 -0.4744
  705MOL0     H95129   7.199   8.084   8.732  0.8967  1.5987 -1.5854
  705MOL0     H95130   7.339   7.967   8.741 -2.2729 -0.1192 -1.6711
  705MOL0     H95131   7.226   8.095   8.945 -1.2708  0.3042 -1.5847
  705MOL0     H95132   7.337   8.225   8.903 -4.5420  0.7657  1.1853
  705MOL0     H95133   7.428   7.935   8.962  1.0290  0.7071 -1.4160
  705MOL0     H95134   7.444   8.079   9.069 -1.9387  1.3554 -0.5170
  705MOL0     H95135   7.767   8.093   8.764  1.2940  0.7617  0.0887
  705MOL0     H95136   8.003   8.008   8.832  0.4947  0.4786  1.8205
  705MOL0     H95137   8.374   8.073   8.931  0.0358 -0.8065  0.5553
  705MOL0     H95138   8.611   7.985   8.943 -1.0364  0.7120 -0.7982
  705MOL0     H95139   8.685   7.651   9.245 -2.8407 -2.4845 -1.3992
  705MOL0     H95140   8.658   7.601   9.086  0.0440 -1.2489  1.2823
  705MOL0     H95141   8.891   7.546   9.089  0.3213 -1.1950  3.9548
  705MOL0     H95142   8.931   7.713   9.121 -1.3095  2.2863  2.0401
  705MOL0     H95143   8.894   7.669   9.369  1.9647 -0.1611  0.2499
  705MOL0     H95144   8.844   7.512   9.340  0.1214  0.0697  0.4217
  705MOL0     H95145   9.116   7.617   9.239 -0.4824  0.8809  1.1437
  705MOL0     H95146   9.062   7.445   9.272 -2.9685 -0.1875 -1.0545
  705MOL0     H95147   9.040   7.485   9.512 -0.8173 -0.8912 -2.4158
  705MOL0     H95148   9.099   7.645   9.494  0.3232 -0.4346  0.3081
  705MOL0     H95149   9.312   7.557   9.413  2.3563 -2.5481 -0.9428
  705MOL0     H95150   9.284   7.492   9.570  0.9291 -1.8109  0.0255
  705MOL0     H95151   9.238   7.352   9.304 -2.0488  0.4967 -0.4090
  705MOL0     H95152   9.203   7.272   9.457 -0.2263  0.1183  0.8654
  705MOL0     H95153   9.444   7.246   9.363 -2.2198 -1.1090 -0.7074
  705MOL0     H95154   9.466   7.402   9.449 -4.7414  3.5465  2.7240
  705MOL0     H95155   8.485   7.692   9.237  2.0870 -1.2516 -1.7845
  705MOL0     H95156   8.265   7.759   9.219  1.3498 -0.2582  3.5823
  705MOL0     H95157   7.831   7.868   9.204 -2.0511 -1.2152 -0.3534
  705MOL0     H95158   7.625   7.958   9.144  1.0411 -1.6389  0.7084
  705MOL0     H95159   7.134   9.007   9.488 -0.5268  0.0383 -1.6766
  705MOL0     H95160   7.298   9.166   9.603  0.3040  0.2718  0.1918
  705MOL0     H95161   7.782   9.203   9.531 -1.2658 -0.1948  0.4768
  705MOL0     H95162   7.993   9.307   9.558 -0.8620 -0.8579  0.9611
  705MOL0     H95163   8.083   9.565   9.396 -0.8007  0.5937  0.7993
  705MOL0     H95164   8.172   9.443   9.498 -0.6734 -0.4782  1.9141
  705MOL0     H95165   8.186   9.751   9.544  1.6564  0.7935  0.1357
  705MOL0     H95166   8.297   9.665   9.433 -0.5978 -0.9133 -1.7803
  705MOL0     H95167   8.358   9.522   9.651  1.4924  1.4780 -1.9204
  705MOL0     H95168   8.239   9.620   9.734 -2.3309  0.9404 -1.8513
  705MOL0     H95169   8.362   9.819   9.694 -1.2071  0.2574 -5.1847
  705MOL0     H95170   8.460   9.696   9.785  0.7541  0.0467 -0.5468
  705MOL0     H95171   8.708   9.768   9.468 -1.2017 -2.0659 -1.8692
  705MOL0     H95172   7.812   9.688   9.615  0.1408 -0.3559  0.3954
  705MOL0     H95173   7.502   9.615   9.456 -1.6184  0.8569 -0.4912
  705MOL0     H95174   7.489   9.547   9.628  1.1962  1.5334  1.5857
  705MOL0     H95175   7.550   9.707   9.601  1.3464 -0.3939  0.1728
  706MOL0     O95176   2.441   2.247   6.749  0.4256 -0.3089  0.7608
  706MOL0     C95177   2.441   2.374   6.740 -0.3661 -0.7421  0.2064
  706MOL0     O95178   2.340   2.459   6.698 -0.1283 -0.1178 -0.7345
  706MOL0     C95179   2.228   2.388   6.664  0.6682  1.1014 -0.7162
  706MOL0     C95180   2.121   2.349   6.740 -0.2456  0.7737  0.4938
  706MOL0     C95181   2.012   2.275   6.686 -0.6285 -1.0438  0.2844
  706MOL0     C95182   2.017   2.238   6.549  0.0279 -0.0925 -0.0034
  706MOL0     O95183   1.932   2.150   6.492 -0.3857  0.6707 -0.9790
  706MOL0     C95184   1.869   2.058   6.580 -0.1984 -0.1530  0.3570
  706MOL0     C95185   1.851   1.927   6.505  0.1583 -0.1874  0.9503
  706MOL0     C95186   1.753   1.934   6.393  0.7652  0.0032  0.0051
  706MOL0     C95187   1.709   1.791   6.342  0.0410 -0.4277  0.0488
  706MOL0     C95188   1.637   1.805   6.211 -0.2052  0.3448  0.0098
  706MOL0     C95189   1.602   1.670   6.164 -0.4280  0.2175 -0.5757
  706MOL0     C95190   1.531   1.690   6.025  0.5761  0.0673 -0.1393
  706MOL0     C95191   1.488   1.550   5.957  0.0350  0.7956  0.3313
  706MOL0     N95192   1.417   1.453   6.044 -0.0425  0.2655  0.1271
  706MOL0     C95193   1.285   1.437   6.058  0.5551 -0.3097  0.2155
  706MOL0     C95194   1.271   1.341   6.155  0.6935  0.7687 -0.4611
  706MOL0     C95195   1.152   1.287   6.226  0.0849  0.9061  0.1233
  706MOL0     C95196   1.145   1.317   6.373 -0.6270  0.1432 -0.4376
  706MOL0     C95197   1.040   1.240   6.453 -0.1405 -0.1930  1.0918
  706MOL0     C95198   0.899   1.281   6.408  0.7617 -0.0502  0.6286
  706MOL0     O95199   0.809   1.180   6.443 -1.2052 -0.1269 -0.2850
  706MOL0     C95200   0.724   1.126   6.341  0.2446  0.1692 -0.9113
  706MOL0     C95201   0.686   1.181   6.213 -1.1923 -0.5293  0.4278
  706MOL0     C95202   0.577   1.135   6.140  0.0907 -0.2633  0.5535
  706MOL0     C95203   0.515   1.025   6.183 -0.0257 -0.2683  0.9126
  706MOL0     C95204   0.407   0.975   6.101  0.6197 -0.4935 -0.1293
  706MOL0     O95205   0.332   1.068   6.026 -0.2680 -0.2717 -0.2273
  706MOL0     C95206   0.219   1.031   5.957 -0.6601  0.4978 -0.3183
  706MOL0     C95207   0.197   1.076   5.830 -0.1745  0.0060  0.6504
  706MOL0     C95208   0.063   1.064   5.780 -0.1581 -0.8339 -0.2563
  706MOL0     C95209  -0.039   0.999   5.845 -0.3470 -0.0654 -0.6155
  706MOL0     O95210  -0.158   0.995   5.782 -0.2929 -0.7501 -0.5357
  706MOL0     C95211  -0.258   0.902   5.825 -0.1206  0.3959  0.2205
  706MOL0     C95212  -0.392   0.903   5.753  1.2356 -0.4744  0.2728
  706MOL0     C95213  -0.398   0.871   5.600 -0.1544 -0.5127  0.1040
  706MOL0     C95214  -0.544   0.872   5.557  0.1822  0.7374  0.9219
  706MOL0     C95215  -0.577   0.894   5.405 -0.8291 -0.3324  0.1826
  706MOL0     C95216  -0.524   0.779   5.305  0.6968  0.0455  0.5176
  706MOL0     C95217  -0.557   0.636   5.351 -0.3132  0.3787  0.5733
  706MOL0     C95218  -0.580   0.540   5.239 -0.6825  0.2121 -0.4313
  706MOL0    Cl95219  -0.578   0.371   5.295  0.9283 -0.0480  0.3966
  706MOL0     C95220  -0.013   0.942   5.975 -0.2682 -1.0417 -0.3475
  706MOL0     C95221   0.120   0.963   6.030  0.0053 -0.1826  0.5200
  706MOL0     O95222   0.390   0.857   6.095 -0.3513  0.1599  0.3927
  706MOL0     C95223   0.558   0.956   6.298 -0.3325  0.4443  0.3483
  706MOL0     C95224   0.661   1.010   6.379  0.0286  1.0457  0.0835
  706MOL0     N95225   1.389   1.304   6.193 -0.2703 -0.3597  1.0312
  706MOL0     N95226   1.483   1.373   6.129 -1.1907  0.8898 -0.1292
  706MOL0     C95227   2.114   2.293   6.468  0.2145  1.4531 -0.1748
  706MOL0     C95228   2.226   2.366   6.528  0.3391  0.7143  0.6727
  706MOL0     C95229   2.543   2.447   6.825  0.2358  1.0416  0.2939
  706MOL0     C95230   2.509   2.571   6.885 -0.3327 -0.4147 -0.9752
  706MOL0     C95231   2.597   2.648   6.962  0.1541  1.0787 -0.9640
  706MOL0     C95232   2.723   2.599   6.982 -0.2349 -0.2527  0.2530
  706MOL0     O95233   2.828   2.657   7.051  0.8945 -0.6600  0.5974
  706MOL0     C95234   2.786   2.772   7.128  0.3042  0.3591  0.4705
  706MOL0     C95235   2.890   2.805   7.232 -0.3003  0.0334  0.4266
  706MOL0     C95236   2.837   2.886   7.346 -1.2129 -0.6599 -0.3340
  706MOL0     C95237   2.935   2.890   7.462 -0.0531  0.2938 -0.8083
  706MOL0     C95238   2.960   2.759   7.523  0.0167  0.6404 -0.3403
  706MOL0     C95239   2.999   2.664   7.580  0.3850  0.1896 -0.0533
  706MOL0     C95240   2.762   2.477   6.924 -0.4273  0.2980  0.9483
  706MOL0     C95241   2.671   2.396   6.854  0.4673 -0.2519  0.2545
  706MOL0     C95242   2.717   2.246   6.819 -0.4843 -0.5417 -0.0394
  706MOL0     H95243   2.143   2.358   6.846  2.2633  1.7552 -0.0331
  706MOL0     H95244   1.938   2.239   6.757  1.4316 -0.6222  2.8153
  706MOL0     H95245   1.930   2.033   6.668 -0.5311 -0.2901  0.5490
  706MOL0     H95246   1.775   2.105   6.610 -1.7095 -2.5751 -0.3785
  706MOL0     H95247   1.824   1.851   6.579 -1.1612 -0.0827  0.6105
  706MOL0     H95248   1.948   1.906   6.458 -0.9012 -1.8083 -0.6850
  706MOL0     H95249   1.795   1.980   6.303  0.3964 -0.2378 -0.2969
  706MOL0     H95250   1.659   1.988   6.407  2.4124  2.6076  1.6329
  706MOL0     H95251   1.795   1.724   6.341  1.5180  1.4019 -0.8629
  706MOL0     H95252   1.638   1.759   6.419 -2.5283  1.6723 -1.2500
  706MOL0     H95253   1.551   1.872   6.213 -0.1303  0.4617 -0.4250
  706MOL0     H95254   1.706   1.843   6.134  1.8769 -2.4023  0.3541
  706MOL0     H95255   1.700   1.620   6.158 -0.0996  0.6411  0.8578
  706MOL0     H95256   1.539   1.622   6.239 -2.3647  2.9600 -0.2937
  706MOL0     H95257   1.598   1.733   5.949  0.4598 -2.1395 -1.5789
  706MOL0     H95258   1.449   1.761   6.032 -0.1273 -0.3575 -2.8734
  706MOL0     H95259   1.424   1.562   5.869  0.2738 -2.2728 -0.3773
  706MOL0     H95260   1.582   1.505   5.924 -0.1381 -0.0304  0.9405
  706MOL0     H95261   1.203   1.501   6.027  0.4977  1.0707  2.9668
  706MOL0     H95262   1.058   1.309   6.174 -0.4645  1.5503  1.3700
  706MOL0     H95263   1.149   1.178   6.211  0.7717  0.6843  1.4839
  706MOL0     H95264   1.233   1.293   6.434 -1.7952 -1.4796  0.6855
  706MOL0     H95265   1.123   1.424   6.382  0.4420  0.2812  0.8091
  706MOL0     H95266   1.046   1.269   6.558 -1.7266 -0.3291  1.2426
  706MOL0     H95267   1.050   1.131   6.459 -1.5277 -0.3052  1.7610
  706MOL0     H95268   0.899   1.302   6.300 -1.4471 -0.1693  0.5744
  706MOL0     H95269   0.861   1.366   6.466  2.0054 -0.2172  1.7312
  706MOL0     H95270   0.729   1.268   6.165 -2.8646  0.0946 -0.0038
  706MOL0     H95271   0.566   1.201   6.054 -0.3354  2.6164  2.6803
  706MOL0     H95272   0.267   1.136   5.773  0.7771 -1.0262  0.7029
  706MOL0     H95273   0.034   1.109   5.685 -3.2319  1.9645  1.7799
  706MOL0     H95274  -0.212   0.807   5.798  0.2756  1.7114 -4.6726
  706MOL0     H95275  -0.274   0.908   5.933 -1.8546  1.5893 -0.0511
  706MOL0     H95276  -0.465   0.845   5.811 -0.3748  2.2001  1.1245
  706MOL0     H95277  -0.426   1.006   5.765 -1.4839 -1.4267  1.7540
  706MOL0     H95278  -0.347   0.959   5.559  0.5209 -0.9523 -0.0099
  706MOL0     H95279  -0.355   0.774   5.576  3.2775  1.3367 -2.1006
  706MOL0     H95280  -0.599   0.946   5.615 -0.2960  2.0191 -1.0766
  706MOL0     H95281  -0.579   0.771   5.581  0.0078  0.4450 -0.5149
  706MOL0     H95282  -0.536   0.994   5.387 -1.0267 -0.3489 -0.3699
  706MOL0     H95283  -0.684   0.901   5.384 -1.0967  1.6784  1.8287
  706MOL0     H95284  -0.571   0.802   5.209 -0.9613 -1.3193  0.9338
  706MOL0     H95285  -0.417   0.797   5.292  0.8993 -1.7559 -0.6711
  706MOL0     H95286  -0.643   0.648   5.416 -0.7244  1.5206 -0.1577
  706MOL0     H95287  -0.477   0.595   5.413 -1.5087 -1.7169  0.8301
  706MOL0     H95288  -0.674   0.560   5.187  0.1838 -1.3316 -2.7523
  706MOL0     H95289  -0.504   0.552   5.161 -0.7367 -0.3875 -0.5822
  706MOL0     H95290  -0.093   0.902   6.037 -2.5298  2.0353 -1.0426
  706MOL0     H95291   0.139   0.917   6.126 -2.6760  1.7224  2.0670
  706MOL0     H95292   0.514   0.862   6.331  1.6226 -0.1690  1.3439
  706MOL0     H95293   0.688   0.961   6.473 -0.1299  1.4459  0.3399
  706MOL0     H95294   2.110   2.268   6.362 -0.0580  0.9675 -0.0532
  706MOL0     H95295   2.309   2.401   6.467  0.0820  1.3483  0.6868
  706MOL0     H95296   2.412   2.610   6.855 -1.4697 -1.8052  0.6797
  706MOL0     H95297   2.568   2.749   6.990 -2.5404 -0.1349  1.1237
  706MOL0     H95298   2.696   2.745   7.184  0.2955 -1.0997 -0.1800
  706MOL0     H95299   2.775   2.862   7.067 -3.4902 -0.3165 -0.1436
  706MOL0     H95300   2.977   2.845   7.178 -0.0887  1.7537  1.9648
  706MOL0     H95301   2.907   2.707   7.279  1.2938 -0.1965 -0.5363
  706MOL0     H95302   2.739   2.847   7.376 -0.5828 -1.3703  0.8746
  706MOL0     H95303   2.825   2.984   7.298 -1.3503 -0.6174 -0.2131
  706MOL0     H95304   3.030   2.932   7.426  1.2835 -0.0452  2.0097
  706MOL0     H95305   2.897   2.969   7.528  1.9766 -0.1330  0.9716
  706MOL0     H95306   3.049   2.588   7.638  1.3338  0.9751  0.1809
  706MOL0     H95307   2.856   2.440   6.965 -0.7312  2.9500  4.5774
  706MOL0     H95308   2.826   2.247   6.814 -0.3113  4.9359 -0.8190
  706MOL0     H95309   2.690   2.187   6.907  0.7124 -1.4536 -0.2436
  706MOL0     H95310   2.684   2.207   6.723 -0.5035 -0.8034  0.0723
  707MOL0     O95311  10.201   5.890   3.973  1.2174 -0.1481 -0.1538
  707MOL0     C95312  10.192   5.856   4.090  1.1808 -0.6565 -0.4192
  707MOL0     O95313  10.072   5.832   4.154  0.2130  0.4071  1.1807
  707MOL0     C95314   9.964   5.844   4.072 -0.2677 -0.7533 -0.7875
  707MOL0     C95315   9.869   5.938   4.130 -0.5540 -0.2050 -0.1286
  707MOL0     C95316   9.735   5.943   4.078  0.8408 -0.5167  0.6149
  707MOL0     C95317   9.709   5.872   3.964 -1.0048  0.2293  0.0468
  707MOL0     O95318   9.575   5.867   3.925  0.0146  0.1670 -0.2479
  707MOL0     C95319   9.525   5.797   3.812  0.8127  1.0476  0.0982
  707MOL0     C95320   9.374   5.807   3.795 -0.2424 -0.1988 -0.1436
  707MOL0     C95321   9.325   5.956   3.787 -0.4136 -0.1753 -0.5790
  707MOL0     C95322   9.214   5.965   3.681  0.9473 -0.6128 -0.2466
  707MOL0     C95323   9.159   6.108   3.674  1.2438  0.6357  0.5202
  707MOL0     C95324   9.107   6.167   3.805 -0.4951 -0.6236 -0.1916
  707MOL0     C95325   9.028   6.297   3.774  0.2403  0.5120 -0.2880
  707MOL0     C95326   9.094   6.392   3.665 -0.6171  0.6233 -0.8937
  707MOL0     N95327   9.229   6.436   3.710  0.2863 -0.5230 -0.7845
  707MOL0     C95328   9.348   6.408   3.645  1.0014  0.4250 -0.2205
  707MOL0     C95329   9.433   6.503   3.694  0.2732 -0.8006  0.9956
  707MOL0     C95330   9.584   6.508   3.651  0.0685 -0.3923 -0.2056
  707MOL0     C95331   9.659   6.395   3.718  0.9491 -0.6572  0.4289
  707MOL0     C95332   9.660   6.382   3.874  0.3099  0.3266 -0.3092
  707MOL0     C95333   9.582   6.260   3.939 -0.1368 -0.0825  1.0287
  707MOL0     O95334   9.610   6.239   4.072  0.0989  0.1682  0.6087
  707MOL0     C95335   9.522   6.300   4.163  0.4002  0.0709  0.3216
  707MOL0     C95336   9.437   6.412   4.153 -0.2935 -0.0612 -0.5731
  707MOL0     C95337   9.364   6.458   4.258 -0.4857 -0.1328  0.0508
  707MOL0     C95338   9.366   6.382   4.376  0.6298  0.3494  0.2372
  707MOL0     C95339   9.255   6.398   4.473 -0.3596 -0.1159  0.7167
  707MOL0     O95340   9.164   6.502   4.451 -0.0529 -0.3057 -0.7210
  707MOL0     C95341   9.051   6.501   4.528  0.3977 -0.0953  1.0404
  707MOL0     C95342   8.955   6.392   4.519  0.7620 -0.2099 -0.3632
  707MOL0     C95343   8.848   6.394   4.610 -0.8520 -0.2843  0.6835
  707MOL0     C95344   8.821   6.499   4.701 -0.1486 -0.1142 -0.0321
  707MOL0     O95345   8.715   6.488   4.780 -0.2585 -0.6082 -0.3052
  707MOL0     C95346   8.672   6.606   4.842  0.6773 -0.1113 -0.6475
  707MOL0     C95347   8.532   6.589   4.901  0.2257 -0.1130 -0.1175
  707MOL0     C95348   8.485   6.688   4.991  0.5679  0.5286 -0.8015
  707MOL0     C95349   8.438   6.825   4.935 -0.0412 -0.6833  0.1885
  707MOL0     C95350   8.458   6.944   5.034  0.1414 -0.5826  0.3832
  707MOL0     C95351   8.415   7.080   4.967 -0.5338  0.5889  0.6407
  707MOL0     C95352   8.298   7.071   4.857 -0.2203  0.5980  0.8070
  707MOL0     C95353   8.260   7.208   4.808  0.6198 -0.2257  1.1141
  707MOL0    Cl95354   8.153   7.283   4.931  0.4564 -0.1699 -0.4287
  707MOL0     C95355   8.914   6.598   4.697  0.2838  0.5078 -1.2257
  707MOL0     C95356   9.030   6.601   4.622  0.4925 -0.1315 -0.0022
  707MOL0     O95357   9.252   6.313   4.562  0.2057 -0.1656  0.5089
  707MOL0     C95358   9.455   6.281   4.393  0.1868  0.6279  0.3262
  707MOL0     C95359   9.542   6.247   4.291  0.2878 -1.5059 -0.8507
  707MOL0     N95360   9.368   6.583   3.782  0.0121 -0.2841 -0.1716
  707MOL0     N95361   9.248   6.536   3.798  0.0763  0.1239  0.2044
  707MOL0     C95362   9.804   5.788   3.903  0.1602 -0.2652  0.6503
  707MOL0     C95363   9.929   5.779   3.948 -0.8797 -0.1477 -0.4610
  707MOL0     C95364  10.314   5.854   4.174 -0.6441 -1.3001  0.0647
  707MOL0     C95365  10.415   5.950   4.139 -0.4875 -0.7311 -0.5949
  707MOL0     C95366  10.538   5.961   4.218 -0.0477 -0.9561 -0.3240
  707MOL0     C95367  10.549   5.898   4.334 -0.9809 -0.2684 -0.3833
  707MOL0     O95368  10.666   5.924   4.411 -0.1649 -0.1206 -0.0044
  707MOL0     C95369  10.672   5.868   4.544  0.9745 -0.3571 -0.0012
  707MOL0     C95370  10.809   5.902   4.606  0.0830  0.6269 -1.0104
  707MOL0     C95371  10.937   5.878   4.527 -0.6918  0.2741  1.0125
  707MOL0     C95372  10.927   5.735   4.467 -0.1576  0.4598 -0.1239
  707MOL0     C95373  11.058   5.692   4.419  0.0734 -0.1398 -0.0075
  707MOL0     C95374  11.176   5.687   4.401 -0.5074  0.2328 -0.2578
  707MOL0     C95375  10.440   5.814   4.374 -0.4821 -0.0712 -0.0051
  707MOL0     C95376  10.332   5.788   4.295 -0.0126  1.2387 -0.1266
  707MOL0     C95377  10.234   5.690   4.336  0.2227  0.3942 -0.3277
  707MOL0     H95378   9.889   5.984   4.226 -3.4257 -2.9077  1.9938
  707MOL0     H95379   9.651   5.993   4.127 -1.0427 -0.4848 -2.3915
  707MOL0     H95380   9.574   5.829   3.720  4.7615  0.8445  1.9334
  707MOL0     H95381   9.536   5.689   3.827 -2.2821  0.4651 -1.0117
  707MOL0     H95382   9.316   5.755   3.872 -0.9861  2.0574  0.9308
  707MOL0     H95383   9.350   5.751   3.705  0.0863 -0.0853 -0.3034
  707MOL0     H95384   9.401   6.028   3.754 -0.1245  0.0254  0.4922
  707MOL0     H95385   9.296   5.984   3.888  0.2667  0.4623 -0.5522
  707MOL0     H95386   9.242   5.925   3.583 -0.5344 -0.6375 -0.6890
  707MOL0     H95387   9.139   5.901   3.729  1.2459 -0.3654  0.5731
  707MOL0     H95388   9.223   6.175   3.617 -3.6304  4.2630 -1.3647
  707MOL0     H95389   9.071   6.096   3.610 -4.5434  0.3087  7.3232
  707MOL0     H95390   9.044   6.091   3.851  0.1219 -1.0947 -0.1074
  707MOL0     H95391   9.190   6.194   3.871 -1.2960  0.1693  0.5132
  707MOL0     H95392   9.014   6.351   3.868 -0.4140 -0.9949  0.5230
  707MOL0     H95393   8.938   6.262   3.724  0.6962  0.8586 -1.3879
  707MOL0     H95394   9.099   6.348   3.565 -1.4468 -2.6102  0.3548
  707MOL0     H95395   9.027   6.478   3.659  0.5921  1.6127 -0.4258
  707MOL0     H95396   9.348   6.333   3.566 -3.4476  0.1495 -0.2188
  707MOL0     H95397   9.592   6.506   3.542 -2.8474 -0.4723 -0.5148
  707MOL0     H95398   9.631   6.598   3.691  0.1563  0.3896 -1.9957
  707MOL0     H95399   9.632   6.297   3.678  1.5010 -1.4200  1.8665
  707MOL0     H95400   9.761   6.412   3.683 -0.7836  2.4231 -3.9891
  707MOL0     H95401   9.602   6.469   3.904 -0.2613  0.2985 -1.3123
  707MOL0     H95402   9.759   6.359   3.916  0.7174 -1.8951 -2.2179
  707MOL0     H95403   9.627   6.173   3.891  1.2917 -0.0460  2.2598
  707MOL0     H95404   9.472   6.257   3.935 -0.1877 -1.8886  2.4612
  707MOL0     H95405   9.433   6.469   4.061  1.3759  2.2674  0.6904
  707MOL0     H95406   9.305   6.548   4.241  0.0306  0.1749 -0.1545
  707MOL0     H95407   8.962   6.314   4.444  2.5533  1.8941 -2.5386
  707MOL0     H95408   8.780   6.309   4.611  0.0870 -1.1965 -2.0668
  707MOL0     H95409   8.741   6.618   4.926 -0.5681  1.0450  0.2452
  707MOL0     H95410   8.661   6.679   4.760 -1.0542 -0.5230 -0.8142
  707MOL0     H95411   8.464   6.570   4.818 -0.9901  1.4013  0.4848
  707MOL0     H95412   8.531   6.496   4.959  2.0512 -0.5931 -0.7645
  707MOL0     H95413   8.402   6.652   5.053  0.5153  3.2859  0.9234
  707MOL0     H95414   8.551   6.712   5.074  0.5363  1.2609 -0.9866
  707MOL0     H95415   8.335   6.810   4.901  0.6315 -0.8302 -1.8614
  707MOL0     H95416   8.492   6.847   4.843 -0.6418  1.8500  0.3729
  707MOL0     H95417   8.559   6.944   5.075 -0.8344  1.6525  3.0433
  707MOL0     H95418   8.393   6.927   5.121 -2.6259  3.2280 -0.6497
  707MOL0     H95419   8.388   7.143   5.053  2.1728  1.0515  1.2395
  707MOL0     H95420   8.506   7.118   4.919 -1.4008  0.4048 -1.2159
  707MOL0     H95421   8.217   7.004   4.885  1.4089 -1.9597 -0.1955
  707MOL0     H95422   8.355   7.024   4.776  1.6150  0.8599  1.8707
  707MOL0     H95423   8.345   7.274   4.789 -2.2226  3.6121  0.5289
  707MOL0     H95424   8.217   7.195   4.708  3.3772  0.3491 -0.2473
  707MOL0     H95425   8.914   6.680   4.769  0.0257 -1.2647  0.9053
  707MOL0     H95426   9.109   6.673   4.640  1.7568 -1.6449  0.7972
  707MOL0     H95427   9.440   6.222   4.482 -3.3367  1.3445  0.3449
  707MOL0     H95428   9.608   6.163   4.309 -1.7554 -2.7722  1.3369
  707MOL0     H95429   9.785   5.729   3.814 -1.3203  0.3134  0.5629
  707MOL0     H95430  10.013   5.729   3.900  0.9717  3.9571 -1.9176
  707MOL0     H95431  10.396   6.016   4.054  2.2679 -0.5118 -1.1338
  707MOL0     H95432  10.613   6.037   4.201 -0.2058 -0.3825  1.3871
  707MOL0     H95433  10.657   5.760   4.537  0.5641 -0.2227 -1.4145
  707MOL0     H95434  10.605   5.922   4.611  1.3672  2.2414 -1.5781
  707MOL0     H95435  10.820   5.850   4.702  0.6891  0.6690 -1.0520
  707MOL0     H95436  10.804   6.007   4.635 -4.5572  0.2682  0.1610
  707MOL0     H95437  11.018   5.879   4.601 -0.7132 -1.4991  1.1055
  707MOL0     H95438  10.951   5.952   4.448 -2.1017  0.3460  0.8008
  707MOL0     H95439  10.890   5.652   4.527  1.6064 -2.6266 -2.9468
  707MOL0     H95440  10.873   5.756   4.374  2.2801  3.6511 -1.0222
  707MOL0     H95441  11.279   5.683   4.370  1.7366  3.7629  5.2503
  707MOL0     H95442  10.451   5.766   4.471  2.5406 -0.2734 -0.3223
  707MOL0     H95443  10.180   5.634   4.258  0.6489 -0.3792 -0.0795
  707MOL0     H95444  10.296   5.623   4.396  0.8629  2.1203  1.0316
  707MOL0     H95445  10.158   5.728   4.404 -1.4814 -0.3882 -1.7121
  708MOL0     O95446  10.270   4.921   0.534  0.4269 -1.1045 -0.2070
  708MOL0     C95447  10.222   4.997   0.624 -0.4811  0.2413  0.3970
  708MOL0     O95448  10.298   5.078   0.698 -0.1683 -0.0432 -0.7610
  708MOL0     C95449  10.437   5.068   0.691  1.2590 -0.2899 -0.6712
  708MOL0     C95450  10.510   5.149   0.600 -1.0091 -0.4916  0.0677
  708MOL0     C95451  10.651   5.140   0.592 -0.3673 -0.6447  0.0433
  708MOL0     C95452  10.715   5.051   0.680 -0.7035 -0.7344  0.3432
  708MOL0     O95453  10.847   5.051   0.677 -0.6639 -0.5469  0.0580
  708MOL0     C95454  10.919   4.959   0.755  0.3311 -0.3700  0.4442
  708MOL0     C95455  11.074   4.978   0.739  0.1019 -0.1499 -0.4944
  708MOL0     C95456  11.130   5.122   0.781  0.0094  0.8308  0.8266
  708MOL0     C95457  11.102   5.228   0.665 -0.0631  0.7176 -0.4449
  708MOL0     C95458  11.180   5.355   0.687 -0.1658 -0.3996 -0.3398
  708MOL0     C95459  11.168   5.454   0.568  0.3065 -0.3857  0.2320
  708MOL0     C95460  11.028   5.484   0.516  0.4708 -0.5840  0.1529
  708MOL0     C95461  10.938   5.570   0.613 -0.5403 -0.2357 -0.6325
  708MOL0     N95462  10.840   5.662   0.555  0.0055  0.2478 -1.9873
  708MOL0     C95463  10.852   5.753   0.458 -0.2824 -0.0055 -0.5258
  708MOL0     C95464  10.747   5.836   0.467  0.3383 -0.2702 -0.5148
  708MOL0     C95465  10.721   5.960   0.384 -0.0602 -1.0703 -0.5077
  708MOL0     C95466  10.802   5.983   0.257  0.0389  0.3536  0.5312
  708MOL0     C95467  10.750   6.107   0.186  0.6636 -0.6426 -0.2974
  708MOL0     C95468  10.607   6.081   0.122  1.5163 -0.9561  0.9885
  708MOL0     O95469  10.584   6.149  -0.008  0.1435  0.5052 -0.5661
  708MOL0     C95470  10.628   6.078  -0.118 -1.0719 -0.8141 -0.3746
  708MOL0     C95471  10.579   6.134  -0.245 -0.2273  0.4229  0.4056
  708MOL0     C95472  10.633   6.102  -0.369 -0.4499  0.6073  0.1183
  708MOL0     C95473  10.744   6.019  -0.372  0.2346  0.3029  0.9829
  708MOL0     C95474  10.818   6.002  -0.499 -0.9110  0.8383 -0.5861
  708MOL0     O95475  10.936   5.927  -0.489  0.3323 -0.1273  0.6063
  708MOL0     C95476  11.025   5.896  -0.591  0.6763  0.3501  0.2134
  708MOL0     C95477  11.071   5.766  -0.610 -1.1858  0.3323  1.0954
  708MOL0     C95478  11.169   5.729  -0.702  0.9455 -0.3329 -0.0229
  708MOL0     C95479  11.228   5.828  -0.788 -0.3127 -1.3361 -1.3190
  708MOL0     O95480  11.336   5.796  -0.861 -0.0566 -0.3414 -0.0078
  708MOL0     C95481  11.432   5.884  -0.917  0.7566 -0.0467 -0.4658
  708MOL0     C95482  11.535   5.795  -0.984  0.9605  1.1049 -0.1372
  708MOL0     C95483  11.635   5.859  -1.078  0.0636  0.6277 -0.0927
  708MOL0     C95484  11.732   5.739  -1.108 -0.0177 -0.1786  1.0083
  708MOL0     C95485  11.845   5.770  -1.204 -0.5314  0.6243 -0.1277
  708MOL0     C95486  11.904   5.626  -1.253 -1.2283  0.1773 -0.4862
  708MOL0     C95487  12.038   5.662  -1.326  0.2703  0.6585  0.2784
  708MOL0     C95488  12.067   5.555  -1.429 -0.5155  0.6546  0.0520
  708MOL0    Cl95489  11.950   5.561  -1.559  0.2878 -0.2921 -0.0708
  708MOL0     C95490  11.177   5.958  -0.784  0.3631 -0.1969  0.2300
  708MOL0     C95491  11.079   5.990  -0.685  0.6444  0.2612 -0.7764
  708MOL0     O95492  10.788   6.061  -0.601  0.1156  0.2967  0.4729
  708MOL0     C95493  10.788   5.966  -0.254  0.1025 -0.1911 -0.5974
  708MOL0     C95494  10.732   5.982  -0.127 -0.3185 -0.2076  0.0385
  708MOL0     N95495  10.663   5.792   0.573  0.4808  0.0053  0.0985
  708MOL0     N95496  10.721   5.689   0.624 -0.0332  0.0304  0.2635
  708MOL0     C95497  10.639   4.982   0.782 -0.3733 -0.3150  0.1630
  708MOL0     C95498  10.503   4.989   0.787 -0.2296  0.2602  0.4877
  708MOL0     C95499  10.080   4.994   0.642  0.4454  0.5791  0.3492
  708MOL0     C95500  10.003   4.933   0.547 -0.2878 -0.1841  0.5969
  708MOL0     C95501   9.863   4.910   0.552 -0.8771 -0.7194 -0.8008
  708MOL0     C95502   9.801   4.965   0.662  0.6627 -1.1420  0.5927
  708MOL0     O95503   9.662   4.958   0.687 -0.3671 -0.4269  0.3258
  708MOL0     C95504   9.591   4.855   0.619  0.5414  0.0618  0.5174
  708MOL0     C95505   9.445   4.865   0.644 -0.0778  0.1535 -0.4797
  708MOL0     C95506   9.392   4.776   0.762  0.0053 -0.4233  0.5877
  708MOL0     C95507   9.242   4.785   0.776  0.6756 -0.4148  0.6238
  708MOL0     C95508   9.166   4.696   0.687  0.6203  1.2189  0.8655
  708MOL0     C95509   9.103   4.627   0.611 -0.3340 -0.1562 -0.0757
  708MOL0     C95510   9.876   5.026   0.764 -0.6872  0.2628 -0.3730
  708MOL0     C95511  10.020   5.035   0.759 -0.2967 -0.3383 -0.2750
  708MOL0     C95512  10.082   5.090   0.884  0.4735  0.6150  0.0793
  708MOL0     H95513  10.455   5.213   0.532 -0.5678  1.7231  1.6743
  708MOL0     H95514  10.704   5.206   0.523 -0.5092 -1.6134 -1.0193
  708MOL0     H95515  10.895   4.976   0.860 -2.7610 -2.1011  0.1123
  708MOL0     H95516  10.888   4.859   0.724 -0.9640  0.1620 -0.0448
  708MOL0     H95517  11.101   4.954   0.636 -0.6046 -1.4860 -0.3891
  708MOL0     H95518  11.121   4.903   0.804 -0.8453 -0.2872  0.0504
  708MOL0     H95519  11.238   5.115   0.797  0.3069  2.9583  0.0846
  708MOL0     H95520  11.077   5.151   0.873 -2.5064 -3.9217  1.1615
  708MOL0     H95521  11.117   5.195   0.562 -1.1955 -1.4249  0.0156
  708MOL0     H95522  10.994   5.245   0.668 -0.0598  0.6815  0.0406
  708MOL0     H95523  11.139   5.398   0.779 -3.1401  0.4074 -1.8862
  708MOL0     H95524  11.284   5.326   0.702 -0.2683 -0.9606 -0.6701
  708MOL0     H95525  11.220   5.546   0.598 -0.5340 -0.4852  2.1509
  708MOL0     H95526  11.229   5.409   0.490 -0.0282 -2.3825  1.0652
  708MOL0     H95527  10.983   5.393   0.475  1.9083 -1.3636  0.2576
  708MOL0     H95528  11.046   5.546   0.428  1.7788  0.9776  1.4341
  708MOL0     H95529  10.882   5.502   0.678 -2.3628 -1.5585 -3.3804
  708MOL0     H95530  11.001   5.630   0.680 -2.2710  2.5289 -1.3290
  708MOL0     H95531  10.933   5.756   0.386  2.3486  1.6645  2.2762
  708MOL0     H95532  10.618   5.947   0.349 -0.2569  0.3729 -0.5260
  708MOL0     H95533  10.726   6.055   0.437 -1.9178 -0.5775 -1.1518
  708MOL0     H95534  10.905   6.017   0.272  1.2621 -2.4087 -0.8158
  708MOL0     H95535  10.809   5.895   0.192 -0.1759  2.1567 -2.0895
  708MOL0     H95536  10.824   6.144   0.114  2.6968 -0.2414  1.8486
  708MOL0     H95537  10.741   6.190   0.257  0.7469  1.2631 -2.4073
  708MOL0     H95538  10.531   6.116   0.192  1.0067  1.2977 -0.5862
  708MOL0     H95539  10.586   5.974   0.108  3.1441 -1.4141  1.7530
  708MOL0     H95540  10.511   6.218  -0.235  0.4110  0.7767  1.9094
  708MOL0     H95541  10.590   6.146  -0.458 -3.2461 -1.8369  0.1027
  708MOL0     H95542  11.033   5.687  -0.546 -1.6647 -0.0579  0.3328
  708MOL0     H95543  11.197   5.624  -0.700  0.3393 -0.5111  2.4608
  708MOL0     H95544  11.389   5.952  -0.991 -0.6758  1.6119  1.7710
  708MOL0     H95545  11.498   5.925  -0.840  1.1685  0.1592 -0.9208
  708MOL0     H95546  11.584   5.751  -0.896 -1.9068  0.6371  1.3609
  708MOL0     H95547  11.480   5.711  -1.028  0.7831  0.6889  0.8426
  708MOL0     H95548  11.582   5.891  -1.168 -1.3373 -4.2697 -1.3618
  708MOL0     H95549  11.685   5.939  -1.023  2.6264 -0.8957 -0.0348
  708MOL0     H95550  11.671   5.661  -1.155 -2.4251  1.8809  0.4819
  708MOL0     H95551  11.778   5.702  -1.016  3.4998 -1.2499 -0.9829
  708MOL0     H95552  11.921   5.836  -1.161  1.4820  0.5555 -3.2080
  708MOL0     H95553  11.813   5.823  -1.294  0.8291  1.1171 -0.3479
  708MOL0     H95554  11.940   5.561  -1.173  0.8096  1.1934 -0.5052
  708MOL0     H95555  11.828   5.571  -1.309 -0.3332 -1.7930  0.1394
  708MOL0     H95556  12.109   5.661  -1.243 -1.1315  0.0824  1.5152
  708MOL0     H95557  12.041   5.761  -1.372  1.6661  0.4290 -0.1661
  708MOL0     H95558  12.164   5.577  -1.474 -0.7903 -1.8178 -1.9880
  708MOL0     H95559  12.087   5.460  -1.378  0.7374  1.2755  0.7647
  708MOL0     H95560  11.214   6.031  -0.856  0.8310 -1.4110 -0.7913
  708MOL0     H95561  11.046   6.093  -0.688  1.6444  0.5823 -2.5570
  708MOL0     H95562  10.864   5.888  -0.254 -1.3860 -1.7195 -1.3045
  708MOL0     H95563  10.763   5.931  -0.036 -0.2125  2.0059  1.3080
  708MOL0     H95564  10.682   4.929   0.866  0.3622  0.3372  0.2115
  708MOL0     H95565  10.438   4.950   0.864 -1.2252 -0.6870 -0.7802
  708MOL0     H95566  10.048   4.907   0.452 -0.9067  1.2540 -0.1287
  708MOL0     H95567   9.819   4.853   0.471 -1.1640 -1.1639 -0.3427
  708MOL0     H95568   9.633   4.755   0.634 -1.0543 -0.7489 -0.1724
  708MOL0     H95569   9.602   4.877   0.513 -1.0293  2.5430  0.7974
  708MOL0     H95570   9.386   4.830   0.558 -1.5283 -1.0619  0.9482
  708MOL0     H95571   9.427   4.970   0.668  1.3434  0.2813  0.1264
  708MOL0     H95572   9.433   4.813   0.855 -0.7647  0.1639  0.7044
  708MOL0     H95573   9.425   4.672   0.753 -2.5139 -1.2682  0.2464
  708MOL0     H95574   9.211   4.762   0.879  0.1124 -0.3594  0.4717
  708MOL0     H95575   9.201   4.883   0.750 -0.3696 -1.0644 -0.3033
  708MOL0     H95576   9.046   4.566   0.544  0.1186 -1.5829  0.8100
  708MOL0     H95577   9.822   5.067   0.848 -0.9236  1.4942 -1.1079
  708MOL0     H95578  10.159   5.025   0.927 -0.6916 -0.6627  0.3264
  708MOL0     H95579  10.119   5.192   0.867  0.8896  0.2803 -1.1009
  708MOL0     H95580  10.003   5.113   0.956 -0.8987 -0.7928 -0.9195
  709MOL0     O95581   3.826   7.769   4.630  0.0991  0.2063 -0.3326
  709MOL0     C95582   3.747   7.823   4.704  0.6199  0.0422  0.0350
  709MOL0     O95583   3.758   7.949   4.749  0.0384  0.2822 -0.6426
  709MOL0     C95584   3.889   7.996   4.759  0.6254  0.0514 -1.4578
  709MOL0     C95585   3.957   8.031   4.637  0.0887  0.3249  0.3655
  709MOL0     C95586   4.085   8.075   4.650 -0.1034  0.0662  0.6916
  709MOL0     C95587   4.159   8.068   4.762 -0.4217 -1.1522 -0.7212
  709MOL0     O95588   4.292   8.103   4.757 -0.2642 -0.2524  0.8556
  709MOL0     C95589   4.366   8.113   4.880  0.5683  0.0407 -0.0713
  709MOL0     C95590   4.510   8.150   4.846  0.2590  0.6032 -0.5634
  709MOL0     C95591   4.618   8.185   4.948  0.3465  1.0855  0.2530
  709MOL0     C95592   4.755   8.161   4.883 -0.3895  0.4640  0.6454
  709MOL0     C95593   4.869   8.201   4.981  0.2021 -0.1999 -0.5381
  709MOL0     C95594   5.003   8.182   4.909 -1.2060 -0.0428 -0.3326
  709MOL0     C95595   5.121   8.219   5.005  0.6023  0.9983  0.0633
  709MOL0     C95596   5.152   8.113   5.106  0.5250 -0.2351  0.8040
  709MOL0     N95597   5.277   8.152   5.188  0.8362 -0.1132 -0.5475
  709MOL0     C95598   5.364   8.260   5.177 -0.1260  0.2215 -0.3983
  709MOL0     C95599   5.467   8.237   5.269 -0.8998 -0.6203 -0.0628
  709MOL0     C95600   5.597   8.324   5.304 -0.3237 -0.6886 -0.1812
  709MOL0     C95601   5.655   8.268   5.431  0.2781  0.2851  0.8991
  709MOL0     C95602   5.774   8.336   5.488  0.3598  0.0407  0.0207
  709MOL0     C95603   5.782   8.484   5.493 -0.0363  0.2686  0.2288
  709MOL0     O95604   5.822   8.542   5.367 -0.1715  0.1296  0.5987
  709MOL0     C95605   5.960   8.545   5.340  0.3466  0.6758  0.0555
  709MOL0     C95606   6.066   8.525   5.427 -0.4748  0.5913 -0.3611
  709MOL0     C95607   6.200   8.561   5.389 -0.3897  0.4173  0.3909
  709MOL0     C95608   6.231   8.592   5.252 -0.0183  0.6269 -0.9253
  709MOL0     C95609   6.363   8.626   5.204 -0.1815  0.1680 -0.1006
  709MOL0     O95610   6.385   8.605   5.067  0.5101 -0.8414  0.2373
  709MOL0     C95611   6.515   8.634   5.031 -0.3469 -0.3820 -0.2420
  709MOL0     C95612   6.610   8.542   5.071 -0.2340  0.7318 -0.5696
  709MOL0     C95613   6.749   8.573   5.061  0.3153 -0.4673 -0.0046
  709MOL0     C95614   6.791   8.698   5.012 -0.1454  0.3910 -0.6879
  709MOL0     O95615   6.931   8.720   5.016 -0.7264 -0.2398 -0.0457
  709MOL0     C95616   6.975   8.814   4.910 -0.7318 -0.4784 -0.1074
  709MOL0     C95617   7.125   8.784   4.872  0.0578 -0.7706 -0.0712
  709MOL0     C95618   7.156   8.636   4.833  0.1319  0.6585 -0.0416
  709MOL0     C95619   7.309   8.629   4.787  0.2787  0.3528 -0.6663
  709MOL0     C95620   7.364   8.490   4.739  0.1856 -0.1608 -0.3351
  709MOL0     C95621   7.390   8.388   4.845 -0.0280  0.8793  1.2341
  709MOL0     C95622   7.464   8.431   4.971 -0.9783 -0.5257 -0.8642
  709MOL0     C95623   7.554   8.309   5.014  0.0859  0.2629  0.2569
  709MOL0    Cl95624   7.641   8.359   5.169  0.1355  0.4955  0.2088
  709MOL0     C95625   6.692   8.798   4.988  0.6940  0.4113 -0.5583
  709MOL0     C95626   6.554   8.761   4.990  0.1147 -0.7376 -0.9184
  709MOL0     O95627   6.456   8.635   5.292  0.2295 -0.1614  0.5323
  709MOL0     C95628   6.120   8.590   5.163  0.0220 -0.9915 -0.4802
  709MOL0     C95629   5.990   8.572   5.208  0.1473 -0.4610  0.3909
  709MOL0     N95630   5.445   8.107   5.320  0.0659 -0.4691 -0.6901
  709MOL0     N95631   5.329   8.060   5.274 -0.9978  0.0392 -0.0970
  709MOL0     C95632   4.090   8.033   4.882  0.5490 -0.9298 -0.5451
  709MOL0     C95633   3.951   7.998   4.884 -0.4695 -0.6311  0.3390
  709MOL0     C95634   3.619   7.753   4.745  0.0337 -0.4867 -0.8420
  709MOL0     C95635   3.586   7.763   4.885 -0.2289  0.7150 -0.6192
  709MOL0     C95636   3.480   7.693   4.937 -1.8069 -0.4842 -0.2476
  709MOL0     C95637   3.410   7.598   4.858 -0.9590  0.3606  1.2154
  709MOL0     O95638   3.309   7.532   4.925 -0.8846  0.2308 -0.1486
  709MOL0     C95639   3.218   7.441   4.852  0.0498  1.0382  0.4665
  709MOL0     C95640   3.114   7.365   4.934 -0.3120 -0.9524 -0.4022
  709MOL0     C95641   2.998   7.301   4.857 -0.2577  0.2045  0.8584
  709MOL0     C95642   2.887   7.391   4.800 -0.1226  0.4944 -1.1936
  709MOL0     C95643   2.768   7.319   4.750  1.0937  0.0391 -0.6764
  709MOL0     C95644   2.676   7.248   4.722  0.2239  0.6905 -0.1328
  709MOL0     C95645   3.432   7.589   4.723  0.0794 -0.5631 -0.2916
  709MOL0     C95646   3.536   7.665   4.665 -0.6579  0.8369 -0.3069
  709MOL0     C95647   3.540   7.664   4.512  0.3459 -0.0685  0.0632
  709MOL0     H95648   3.903   8.022   4.543 -0.0335  0.9293  0.3701
  709MOL0     H95649   4.133   8.106   4.558  1.8938  2.6785  2.4700
  709MOL0     H95650   4.336   8.193   4.949  2.0599 -1.4599  2.5188
  709MOL0     H95651   4.364   8.016   4.932  2.3910  0.0782  0.1432
  709MOL0     H95652   4.510   8.235   4.776 -0.6998 -0.2774 -1.6578
  709MOL0     H95653   4.551   8.059   4.802  3.6932  1.1669  1.1195
  709MOL0     H95654   4.608   8.114   5.030  1.5081  1.0121  0.3390
  709MOL0     H95655   4.604   8.291   4.970  0.7297  2.4716 -4.9424
  709MOL0     H95656   4.785   8.058   4.860  2.4602  0.9748  1.6229
  709MOL0     H95657   4.762   8.216   4.789 -0.7096 -1.1373 -0.3521
  709MOL0     H95658   4.865   8.307   5.008 -0.5360 -0.2015 -0.6096
  709MOL0     H95659   4.876   8.135   5.068 -0.3899  4.2884  3.3252
  709MOL0     H95660   5.016   8.080   4.871 -1.1187 -0.4507  0.7582
  709MOL0     H95661   5.020   8.251   4.826 -1.6847 -1.0800 -1.3352
  709MOL0     H95662   5.101   8.313   5.059 -0.3498 -0.0110  1.5570
  709MOL0     H95663   5.208   8.231   4.941  0.7723 -2.2291 -0.4790
  709MOL0     H95664   5.064   8.086   5.164 -0.2829 -1.7883 -1.0160
  709MOL0     H95665   5.171   8.020   5.051 -1.6804 -0.9623  1.1691
  709MOL0     H95666   5.346   8.357   5.133  0.1204  1.2131  1.5623
  709MOL0     H95667   5.677   8.323   5.230 -0.4168 -0.9183 -0.2798
  709MOL0     H95668   5.569   8.428   5.317  0.2582  0.1561 -4.3715
  709MOL0     H95669   5.578   8.255   5.508 -1.3582  2.5042 -0.2171
  709MOL0     H95670   5.677   8.164   5.406 -1.7075 -0.2857  1.3724
  709MOL0     H95671   5.869   8.301   5.445  1.2331  1.1631  0.9726
  709MOL0     H95672   5.779   8.300   5.591 -0.6440 -1.1395 -0.3247
  709MOL0     H95673   5.839   8.523   5.577 -0.0147  0.2281  0.2332
  709MOL0     H95674   5.680   8.522   5.508 -1.1291 -1.4907 -1.9360
  709MOL0     H95675   6.061   8.492   5.530 -0.9687 -1.2307 -0.9429
  709MOL0     H95676   6.286   8.565   5.455  0.4459  1.1648 -0.6961
  709MOL0     H95677   6.580   8.444   5.106  1.1668  0.6487  0.4750
  709MOL0     H95678   6.819   8.492   5.080  0.0584 -1.9544 -4.3314
  709MOL0     H95679   6.931   8.788   4.813 -0.0107  0.5187 -0.7150
  709MOL0     H95680   6.957   8.917   4.940 -1.7555 -0.9170  0.8667
  709MOL0     H95681   7.153   8.851   4.791  0.3126 -2.7925 -1.7388
  709MOL0     H95682   7.182   8.808   4.962  1.5358  0.8239 -1.3742
  709MOL0     H95683   7.140   8.565   4.915 -3.5953  2.5849  1.1319
  709MOL0     H95684   7.086   8.606   4.755  0.4249  0.8850 -0.3939
  709MOL0     H95685   7.367   8.666   4.872  1.6090  1.6721 -2.0844
  709MOL0     H95686   7.317   8.701   4.706 -3.6332 -1.6210 -3.1204
  709MOL0     H95687   7.454   8.519   4.685  0.6428  2.1840  1.5233
  709MOL0     H95688   7.290   8.448   4.669  0.6501  1.1200 -1.6394
  709MOL0     H95689   7.303   8.326   4.869  0.7765 -1.2705 -1.0256
  709MOL0     H95690   7.463   8.323   4.796 -1.4116 -1.2428  1.8246
  709MOL0     H95691   7.391   8.444   5.051 -2.5704  3.7515 -2.6848
  709MOL0     H95692   7.526   8.522   4.969 -2.6374  0.6794 -0.2080
  709MOL0     H95693   7.493   8.222   5.039  2.4928 -1.3958  0.7005
  709MOL0     H95694   7.627   8.281   4.937  1.6449  0.9427  1.4339
  709MOL0     H95695   6.728   8.895   4.954  2.5359 -0.5782 -1.6412
  709MOL0     H95696   6.482   8.835   4.957 -0.9547 -1.6541 -0.6665
  709MOL0     H95697   6.114   8.604   5.055 -0.6417  1.2809 -0.1989
  709MOL0     H95698   5.910   8.575   5.135 -2.2916 -2.9359  2.7064
  709MOL0     H95699   4.145   8.012   4.973  2.1469 -0.5334 -1.3829
  709MOL0     H95700   3.890   7.982   4.973 -0.7938  1.3959  0.5111
  709MOL0     H95701   3.645   7.827   4.950 -1.9262 -0.0383  1.8178
  709MOL0     H95702   3.469   7.702   5.044 -1.0853  0.6059 -0.2505
  709MOL0     H95703   3.274   7.361   4.801 -2.2201 -1.0174  0.9819
  709MOL0     H95704   3.164   7.502   4.779 -0.4285 -1.0209 -0.9980
  709MOL0     H95705   3.100   7.443   5.010  1.1231 -0.7211 -0.3435
  709MOL0     H95706   3.167   7.284   4.985  2.7812  0.9891 -0.2112
  709MOL0     H95707   2.952   7.227   4.923 -0.5013 -0.8976 -0.5015
  709MOL0     H95708   3.032   7.242   4.771  0.6841  3.7047 -1.3665
  709MOL0     H95709   2.860   7.463   4.878  2.6187  1.0335 -0.6428
  709MOL0     H95710   2.935   7.432   4.711  1.6342 -1.7073 -1.3384
  709MOL0     H95711   2.607   7.166   4.710  2.9499 -1.8177  0.1907
  709MOL0     H95712   3.370   7.526   4.660  0.7504 -0.1243 -1.4354
  709MOL0     H95713   3.563   7.767   4.484  1.8661 -1.2782 -3.7339
  709MOL0     H95714   3.619   7.600   4.473 -0.7141 -2.0938  1.0289
  709MOL0     H95715   3.448   7.633   4.461  2.4825 -1.9401 -2.9944
  710MOL0     O95716   8.253  11.435   3.961  0.5534 -0.1596  0.2691
  710MOL0     C95717   8.219  11.409   3.840 -0.2364 -0.6798 -0.4329
  710MOL0     O95718   8.186  11.284   3.794  0.9070  0.2457  1.0876
  710MOL0     C95719   8.198  11.179   3.880  0.1266  0.8067 -0.2951
  710MOL0     C95720   8.103  11.085   3.849  0.4357  0.6799 -0.3589
  710MOL0     C95721   8.103  10.961   3.924  0.0758  0.0600 -0.2615
  710MOL0     C95722   8.213  10.939   4.014  0.8834 -0.3742 -0.1521
  710MOL0     O95723   8.235  10.815   4.071  0.3090  0.1781 -0.3513
  710MOL0     C95724   8.125  10.726   4.081  0.2416 -0.5400  0.9194
  710MOL0     C95725   8.149  10.614   4.182 -0.4535 -0.0723  0.2623
  710MOL0     C95726   8.021  10.532   4.185 -0.6175 -0.1891  0.0147
  710MOL0     C95727   8.041  10.397   4.106 -0.4971  0.4205 -0.0901
  710MOL0     C95728   8.005  10.410   3.956 -0.3203  0.0971 -0.2682
  710MOL0     C95729   7.986  10.280   3.880 -0.1384  0.0171  0.0039
  710MOL0     C95730   8.112  10.188   3.861 -0.0600  0.2235  0.1114
  710MOL0     C95731   8.171  10.113   3.981 -0.9586  0.5433  0.2036
  710MOL0     N95732   8.249  10.006   3.920 -0.2825  0.5648 -0.1751
  710MOL0     C95733   8.189   9.893   3.875  0.0681  0.2381  0.0468
  710MOL0     C95734   8.290   9.810   3.837  0.6499  0.6181  0.6363
  710MOL0     C95735   8.267   9.669   3.788 -0.9804  0.2757 -0.9457
  710MOL0     C95736   8.275   9.554   3.893  0.3209 -0.2342 -0.2326
  710MOL0     C95737   8.401   9.518   3.960 -0.2947  0.3629 -0.3990
  710MOL0     C95738   8.392   9.397   4.050  0.1098  0.2492  0.6565
  710MOL0     O95739   8.409   9.278   3.965  0.3012  0.3377  0.7094
  710MOL0     C95740   8.437   9.157   4.028  0.5435  0.0574  0.5716
  710MOL0     C95741   8.457   9.135   4.170 -0.4067  0.3593  0.7335
  710MOL0     C95742   8.504   9.012   4.225 -0.9465 -0.0575  0.4819
  710MOL0     C95743   8.529   8.905   4.134  1.3722  0.5586  0.3324
  710MOL0     C95744   8.582   8.776   4.183 -0.2247  0.0454 -1.2053
  710MOL0     O95745   8.660   8.790   4.293 -0.7983  0.0210  0.0783
  710MOL0     C95746   8.726   8.677   4.334 -0.1917 -0.4673 -1.0281
  710MOL0     C95747   8.818   8.609   4.251  0.5754 -0.0083  0.1780
  710MOL0     C95748   8.897   8.513   4.311 -0.3903  0.4083  0.6064
  710MOL0     C95749   8.867   8.449   4.434  0.7889 -0.7461  0.2174
  710MOL0     O95750   8.915   8.327   4.463 -0.0983 -0.5590 -0.0964
  710MOL0     C95751   8.958   8.305   4.593 -0.5089 -0.0157 -0.0951
  710MOL0     C95752   9.095   8.232   4.583  0.0956 -0.8693 -0.4566
  710MOL0     C95753   9.169   8.220   4.725  0.2287  0.5109  1.2459
  710MOL0     C95754   9.196   8.358   4.784 -0.1689  0.4987 -0.7444
  710MOL0     C95755   9.255   8.343   4.926  0.6807  0.1817  0.2744
  710MOL0     C95756   9.230   8.473   5.000  0.3230  0.1889  0.3134
  710MOL0     C95757   9.261   8.441   5.148  0.8626  1.2488  0.4081
  710MOL0     C95758   9.152   8.374   5.221  0.7511 -0.3804 -0.5812
  710MOL0    Cl95759   9.020   8.491   5.267 -0.7041  0.4048  0.1828
  710MOL0     C95760   8.758   8.503   4.511  0.4368 -0.2633  0.3734
  710MOL0     C95761   8.694   8.621   4.463 -0.3067 -0.3709 -0.8906
  710MOL0     O95762   8.566   8.672   4.118 -0.2690  0.0598  0.0365
  710MOL0     C95763   8.515   8.924   3.998 -0.8245 -0.0860  0.7597
  710MOL0     C95764   8.461   9.045   3.948 -0.3909  0.1880 -0.0189
  710MOL0     N95765   8.408   9.877   3.849 -0.0864 -0.7655 -0.8216
  710MOL0     N95766   8.380   9.993   3.909 -0.2496  0.7225  0.1123
  710MOL0     C95767   8.298  11.044   4.044 -0.2224  0.7764  0.6849
  710MOL0     C95768   8.289  11.163   3.981 -0.2712  0.1537 -0.1028
  710MOL0     C95769   8.232  11.521   3.737 -0.0580 -0.0191  0.6092
  710MOL0     C95770   8.263  11.651   3.778  0.3906  0.8849 -0.2981
  710MOL0     C95771   8.270  11.753   3.683  0.2727 -0.3905 -0.8548
  710MOL0     C95772   8.252  11.732   3.545 -0.0744 -0.8370 -1.6329
  710MOL0     O95773   8.250  11.845   3.460  0.0180 -0.0918  0.5274
  710MOL0     C95774   8.242  11.825   3.315  0.0569  0.5073  0.1859
  710MOL0     C95775   8.234  11.963   3.256 -0.8654  0.7486  0.0321
  710MOL0     C95776   8.214  11.947   3.108  0.0944 -0.8510  0.5874
  710MOL0     C95777   8.067  11.908   3.065 -0.0386 -0.2733 -0.4079
  710MOL0     C95778   7.983  12.024   3.104  0.0598  0.5613  0.5168
  710MOL0     C95779   7.908  12.115   3.133 -0.3387  0.2101 -1.0671
  710MOL0     C95780   8.235  11.602   3.498  0.2450  0.3571  0.0353
  710MOL0     C95781   8.225  11.495   3.591  0.4261 -0.0633  0.4040
  710MOL0     C95782   8.196  11.365   3.526 -0.0730  0.2816 -0.5833
  710MOL0     H95783   8.024  11.099   3.776 -1.2269 -1.4614  0.9265
  710MOL0     H95784   8.035  10.881   3.897  0.3613 -0.7360  1.2871
  710MOL0     H95785   8.031  10.771   4.114 -0.3633 -0.5191 -0.7354
  710MOL0     H95786   8.107  10.679   3.984 -4.2236 -0.3323  1.4015
  710MOL0     H95787   8.162  10.662   4.280 -2.6267  1.6451 -0.1976
  710MOL0     H95788   8.242  10.559   4.168 -0.2958  0.3147 -0.2342
  710MOL0     H95789   7.925  10.581   4.165 -0.0012  0.9636 -0.1793
  710MOL0     H95790   8.010  10.504   4.290  0.2681  1.3924  0.5456
  710MOL0     H95791   8.142  10.355   4.120 -0.8924 -0.9134 -1.0778
  710MOL0     H95792   7.978  10.327   4.162 -0.8038  1.0893  0.4201
  710MOL0     H95793   7.906  10.455   3.965 -2.0737 -3.7859  2.6008
  710MOL0     H95794   8.071  10.478   3.901 -2.7647  0.5151 -2.9577
  710MOL0     H95795   7.901  10.232   3.929  0.2798  0.6590  1.4167
  710MOL0     H95796   7.946  10.317   3.785 -0.1254  2.5820  0.9262
  710MOL0     H95797   8.194  10.242   3.812  0.5541 -0.3256  0.5254
  710MOL0     H95798   8.070  10.111   3.796  0.6771 -1.6182  1.7145
  710MOL0     H95799   8.241  10.178   4.035  0.2162  0.7354 -1.4924
  710MOL0     H95800   8.096  10.074   4.051 -4.1581  2.4578 -1.8936
  710MOL0     H95801   8.083   9.870   3.868  0.3765 -0.8698 -1.7656
  710MOL0     H95802   8.173   9.654   3.735 -1.9882  2.1361  0.2139
  710MOL0     H95803   8.347   9.656   3.715  1.6748 -1.5891  2.0360
  710MOL0     H95804   8.206   9.571   3.977  1.8370  0.9951  0.8238
  710MOL0     H95805   8.249   9.459   3.845  0.7054 -0.8329  0.7077
  710MOL0     H95806   8.422   9.610   4.015 -3.0100  0.8769 -0.1120
  710MOL0     H95807   8.480   9.498   3.887  0.2468  1.0126 -0.0028
  710MOL0     H95808   8.298   9.390   4.106 -1.4690  0.8402 -1.7600
  710MOL0     H95809   8.476   9.410   4.119 -0.7759  2.9271  1.3616
  710MOL0     H95810   8.437   9.216   4.238  1.4716 -0.7286  2.7212
  710MOL0     H95811   8.488   9.008   4.332  2.3090  1.7054  1.1787
  710MOL0     H95812   8.832   8.638   4.147  1.3727  0.7770  0.4963
  710MOL0     H95813   8.967   8.466   4.242 -2.8230 -1.2726 -0.8681
  710MOL0     H95814   8.983   8.396   4.649  1.8831 -0.8022  0.2473
  710MOL0     H95815   8.882   8.259   4.657 -1.2886  1.6932  0.2720
  710MOL0     H95816   9.062   8.130   4.560  0.9590 -1.5999  1.3420
  710MOL0     H95817   9.161   8.278   4.509 -2.1279  0.8875 -1.4818
  710MOL0     H95818   9.102   8.159   4.786  0.2696 -1.9661 -0.9773
  710MOL0     H95819   9.264   8.168   4.712  0.1698  0.3711  1.3816
  710MOL0     H95820   9.105   8.418   4.791 -0.8421 -0.5599 -0.1624
  710MOL0     H95821   9.264   8.412   4.717 -0.6935  0.1503 -1.5732
  710MOL0     H95822   9.362   8.321   4.919  0.5276 -0.4010 -0.3950
  710MOL0     H95823   9.197   8.263   4.973  0.8246  0.6320  1.2292
  710MOL0     H95824   9.286   8.559   4.964  1.5958 -1.0853 -0.8868
  710MOL0     H95825   9.127   8.508   4.992 -1.4782 -3.8373  2.6821
  710MOL0     H95826   9.290   8.534   5.196  2.6523  1.1095 -0.3375
  710MOL0     H95827   9.343   8.369   5.155 -1.5432 -1.7284  0.1577
  710MOL0     H95828   9.111   8.290   5.165 -0.0594  0.0586 -0.6736
  710MOL0     H95829   9.194   8.325   5.310 -0.0669  0.5752  0.3629
  710MOL0     H95830   8.725   8.457   4.604  1.3028 -0.6531  0.4936
  710MOL0     H95831   8.624   8.677   4.524  0.4559 -0.1624 -0.1891
  710MOL0     H95832   8.540   8.849   3.924 -0.6608  2.1834 -1.6192
  710MOL0     H95833   8.468   9.055   3.840  0.8597 -1.8130 -0.1898
  710MOL0     H95834   8.371  11.014   4.119 -1.6675 -0.8224  1.4977
  710MOL0     H95835   8.369  11.235   3.996  3.9940 -4.2395  0.7814
  710MOL0     H95836   8.297  11.672   3.879  1.1484 -0.5449 -0.2342
  710MOL0     H95837   8.302  11.853   3.708  5.3234 -2.2609  1.5520
  710MOL0     H95838   8.165  11.756   3.281  1.1904 -0.7151  0.0267
  710MOL0     H95839   8.332  11.778   3.272 -0.0117  0.2545  0.3186
  710MOL0     H95840   8.328  12.018   3.260  0.6556 -1.6471 -0.4747
  710MOL0     H95841   8.147  12.019   3.291 -2.6803 -1.6154 -0.4195
  710MOL0     H95842   8.291  11.878   3.076  2.9682  2.8337 -1.1955
  710MOL0     H95843   8.224  12.046   3.063 -1.4789 -1.4832 -1.3013
  710MOL0     H95844   8.071  11.881   2.959 -1.1562  1.1666 -0.8403
  710MOL0     H95845   8.038  11.812   3.108  1.6068 -0.1080  1.1780
  710MOL0     H95846   7.844  12.187   3.180  2.2962  2.2912 -0.4121
  710MOL0     H95847   8.238  11.575   3.393 -2.9978 -1.6204  0.3183
  710MOL0     H95848   8.274  11.296   3.559 -0.4862  0.7461  1.5777
  710MOL0     H95849   8.101  11.324   3.561  0.5883  0.0407  1.0314
  710MOL0     H95850   8.184  11.368   3.418 -2.7879 -1.8009 -0.4561
  711MOL0     O95851  11.368   5.930   9.221  0.3284  1.4098  0.3116
  711MOL0     C95852  11.333   5.938   9.344  0.5092  0.8046  0.0892
  711MOL0     O95853  11.387   6.015   9.435  0.6390 -0.3847  0.1232
  711MOL0     C95854  11.482   6.101   9.386  0.6455 -0.4344  0.1372
  711MOL0     C95855  11.616   6.069   9.415 -0.1002  0.5193  0.3584
  711MOL0     C95856  11.708   6.161   9.389  0.3980 -0.6539 -0.8183
  711MOL0     C95857  11.686   6.289   9.322 -0.1564  0.7244  0.4898
  711MOL0     O95858  11.786   6.388   9.287  0.1177 -0.1677 -0.5882
  711MOL0     C95859  11.924   6.352   9.325  0.1437 -0.0461 -0.7869
  711MOL0     C95860  12.034   6.437   9.270 -0.4438  0.9018  0.1327
  711MOL0     C95861  12.041   6.444   9.116  0.9018  0.1966  0.4509
  711MOL0     C95862  12.138   6.552   9.075  0.7003  0.3160  0.2812
  711MOL0     C95863  12.127   6.584   8.932  0.7994 -0.3110 -0.4189
  711MOL0     C95864  12.008   6.660   8.881  0.9710  0.0289 -0.9723
  711MOL0     C95865  12.019   6.686   8.730  0.1749  0.3691 -0.3798
  711MOL0     C95866  11.996   6.555   8.654 -0.3765  1.3502  0.3144
  711MOL0     N95867  11.973   6.588   8.518 -0.1607 -0.7262  0.9328
  711MOL0     C95868  11.847   6.586   8.466  0.9007  0.1418 -0.5250
  711MOL0     C95869  11.848   6.640   8.343 -0.4623  0.8197 -0.1620
  711MOL0     C95870  11.732   6.648   8.244 -0.7998 -0.6858 -0.5043
  711MOL0     C95871  11.725   6.770   8.152  0.3122 -0.9853  0.9572
  711MOL0     C95872  11.633   6.753   8.030 -0.1493  0.1373  0.5089
  711MOL0     C95873  11.681   6.833   7.911  0.2476  0.6405  0.6655
  711MOL0     O95874  11.684   6.966   7.937  0.3679  0.4271 -0.0580
  711MOL0     C95875  11.683   7.060   7.845 -0.6155 -0.0975  0.3520
  711MOL0     C95876  11.713   7.032   7.713  0.1605 -0.2584  0.5557
  711MOL0     C95877  11.727   7.148   7.628 -0.2558  0.2674 -0.8661
  711MOL0     C95878  11.723   7.281   7.679 -0.0744  0.9631  0.4127
  711MOL0     C95879  11.734   7.398   7.591  0.3232  0.2560  0.6292
  711MOL0     O95880  11.781   7.385   7.463  0.4293  0.3488 -0.5905
  711MOL0     C95881  11.816   7.497   7.398 -0.5477 -0.7245  0.0733
  711MOL0     C95882  11.736   7.536   7.289  0.7615  0.2742  1.2306
  711MOL0     C95883  11.770   7.650   7.213  0.1562  0.1649  0.6603
  711MOL0     C95884  11.891   7.719   7.241  0.0227  1.2211  0.0974
  711MOL0     O95885  11.932   7.827   7.170  0.4803 -0.1595 -0.3709
  711MOL0     C95886  11.835   7.916   7.124  1.1462 -0.9804  0.7872
  711MOL0     C95887  11.893   8.060   7.090  0.9462  0.2863  1.4564
  711MOL0     C95888  11.929   8.162   7.205 -0.5411  0.8660 -0.0449
  711MOL0     C95889  12.082   8.142   7.237 -0.4645 -0.3948 -0.9659
  711MOL0     C95890  12.134   8.265   7.314  0.2450 -0.1260 -0.5338
  711MOL0     C95891  12.284   8.267   7.337  0.5013  0.5520  0.2553
  711MOL0     C95892  12.327   8.388   7.427  0.3294  0.8221  0.7424
  711MOL0     C95893  12.472   8.402   7.461 -0.2905 -0.1538  0.2553
  711MOL0    Cl95894  12.493   8.491   7.613 -0.2102 -0.6941  0.5289
  711MOL0     C95895  11.978   7.668   7.337 -0.3826  0.1466  0.1947
  711MOL0     C95896  11.944   7.564   7.414 -0.4080  0.6660  0.4283
  711MOL0     O95897  11.695   7.500   7.642  0.3051 -0.6040 -0.1262
  711MOL0     C95898  11.680   7.289   7.815  0.4951 -0.6020  0.4605
  711MOL0     C95899  11.681   7.184   7.900  0.2710  0.1199  0.3763
  711MOL0     N95900  11.986   6.666   8.316 -0.0167  0.2743 -0.1850
  711MOL0     N95901  12.053   6.643   8.425 -0.2774 -0.0452 -0.0643
  711MOL0     C95902  11.554   6.308   9.288  0.7192 -0.3971  0.8465
  711MOL0     C95903  11.456   6.215   9.311 -0.3973  0.4771 -0.5805
  711MOL0     C95904  11.206   5.859   9.401  0.6126  0.3254 -0.1101
  711MOL0     C95905  11.186   5.864   9.542 -0.5544 -0.0957  0.3062
  711MOL0     C95906  11.076   5.814   9.597 -0.4290  0.3221 -0.7486
  711MOL0     C95907  10.986   5.736   9.527 -0.7402 -0.3588 -0.6883
  711MOL0     O95908  10.880   5.680   9.594  0.8268 -0.6542 -0.1372
  711MOL0     C95909  10.779   5.616   9.516  0.4200  0.2431 -0.1331
  711MOL0     C95910  10.672   5.585   9.617  0.3652  0.7057 -0.1484
  711MOL0     C95911  10.537   5.536   9.557 -0.1062 -1.0914  0.0012
  711MOL0     C95912  10.454   5.645   9.484 -0.2211 -0.6531 -0.5608
  711MOL0     C95913  10.369   5.729   9.572  0.0063 -0.5591  0.1240
  711MOL0     C95914  10.294   5.797   9.638 -0.3413 -0.6681  0.0676
  711MOL0     C95915  11.001   5.732   9.389  0.2726 -0.4048  0.0691
  711MOL0     C95916  11.109   5.795   9.323 -0.8810  1.0023 -0.6269
  711MOL0     C95917  11.146   5.759   9.168  0.7588 -0.1957 -0.8871
  711MOL0     H95918  11.646   5.975   9.461  0.2764 -0.0969 -1.0861
  711MOL0     H95919  11.810   6.143   9.423 -0.2993 -0.5145  1.5002
  711MOL0     H95920  11.935   6.361   9.434 -2.3047  0.1512 -0.5118
  711MOL0     H95921  11.947   6.250   9.291  2.3723  0.4492 -0.9578
  711MOL0     H95922  12.127   6.394   9.309 -0.4560 -0.7897 -1.5504
  711MOL0     H95923  12.026   6.537   9.313 -0.2643  0.6904  0.6586
  711MOL0     H95924  11.934   6.452   9.093  0.1960 -3.6081  1.6509
  711MOL0     H95925  12.070   6.345   9.079  2.5823 -0.7659  3.8840
  711MOL0     H95926  12.101   6.648   9.111  1.2587  1.4613 -1.9821
  711MOL0     H95927  12.241   6.532   9.105  1.3101 -1.0007 -2.4074
  711MOL0     H95928  12.219   6.637   8.906  0.1459  1.7270  1.1624
  711MOL0     H95929  12.140   6.487   8.883  1.1619  0.4292 -1.8431
  711MOL0     H95930  11.922   6.593   8.884  0.1057  1.1126 -1.2960
  711MOL0     H95931  11.994   6.754   8.935  0.1399 -1.6650  1.9994
  711MOL0     H95932  12.119   6.719   8.703  0.7403 -0.7482  0.2927
  711MOL0     H95933  11.953   6.769   8.702 -1.5849  0.0167  2.2786
  711MOL0     H95934  12.087   6.496   8.667  0.0817  2.0236  0.2402
  711MOL0     H95935  11.922   6.485   8.694  2.8802 -1.3025  2.1300
  711MOL0     H95936  11.757   6.545   8.510  1.4346 -0.2700  0.2226
  711MOL0     H95937  11.756   6.558   8.187 -0.8486 -4.5893  4.8564
  711MOL0     H95938  11.638   6.642   8.300 -0.9561  3.0999 -0.1171
  711MOL0     H95939  11.702   6.862   8.206  0.0611 -0.1081 -0.5800
  711MOL0     H95940  11.825   6.785   8.112 -0.1652 -1.6050 -0.5430
  711MOL0     H95941  11.532   6.790   8.050 -0.6120 -0.9491  0.2638
  711MOL0     H95942  11.620   6.648   8.003  1.2988 -0.5600  2.2980
  711MOL0     H95943  11.609   6.812   7.832 -3.0119  2.1347  3.0319
  711MOL0     H95944  11.784   6.805   7.884  0.9569  4.1341 -0.7811
  711MOL0     H95945  11.719   6.938   7.660  3.1110 -0.3047  0.8097
  711MOL0     H95946  11.749   7.139   7.522 -1.3591 -2.0021 -0.9569
  711MOL0     H95947  11.639   7.491   7.269 -0.4358  2.6074  1.3363
  711MOL0     H95948  11.700   7.688   7.139  1.1554 -1.6239 -1.3037
  711MOL0     H95949  11.793   7.862   7.039  2.9647 -3.0037  1.0749
  711MOL0     H95950  11.761   7.943   7.200 -1.2831 -1.8802 -1.1166
  711MOL0     H95951  11.976   8.048   7.020  0.9554  2.4290  1.0375
  711MOL0     H95952  11.822   8.117   7.030  0.0438 -0.6019  1.6444
  711MOL0     H95953  11.915   8.267   7.177 -0.7757  0.3634 -1.9951
  711MOL0     H95954  11.866   8.148   7.293  1.1040 -0.5920  0.9676
  711MOL0     H95955  12.119   8.132   7.134 -4.1055 -1.7866 -2.3000
  711MOL0     H95956  12.099   8.051   7.294  0.0419 -0.3603 -1.0548
  711MOL0     H95957  12.082   8.266   7.410  0.6053  0.2528 -0.3407
  711MOL0     H95958  12.110   8.357   7.259 -2.8275  0.0641  0.9369
  711MOL0     H95959  12.301   8.173   7.390 -1.1552  0.3099  0.4032
  711MOL0     H95960  12.333   8.265   7.239  0.0015 -0.4294  0.0093
  711MOL0     H95961  12.281   8.375   7.526  0.1700 -0.0573  0.5614
  711MOL0     H95962  12.287   8.480   7.384  0.0163 -0.1368 -1.1030
  711MOL0     H95963  12.520   8.304   7.475  0.5656  0.3307  0.8132
  711MOL0     H95964  12.519   8.459   7.381 -0.3418  4.0087  2.8739
  711MOL0     H95965  12.078   7.706   7.353  0.1129  0.3781 -2.8797
  711MOL0     H95966  12.011   7.535   7.495  0.2278  0.3646 -0.2008
  711MOL0     H95967  11.649   7.386   7.854  0.8032 -1.3070  2.5708
  711MOL0     H95968  11.654   7.185   8.005 -3.7886  1.8003 -0.4960
  711MOL0     H95969  11.518   6.398   9.239 -1.7375 -3.8079 -4.5683
  711MOL0     H95970  11.356   6.243   9.279 -0.1362  2.0721 -0.0980
  711MOL0     H95971  11.250   5.923   9.607 -2.5791  0.0418  2.2964
  711MOL0     H95972  11.074   5.831   9.705 -0.9897 -0.2892 -0.6614
  711MOL0     H95973  10.817   5.530   9.461  0.7861 -0.5445  1.2964
  711MOL0     H95974  10.746   5.687   9.439  1.9179 -0.5605 -1.5777
  711MOL0     H95975  10.638   5.675   9.668  0.9571 -0.4335  2.3884
  711MOL0     H95976  10.705   5.515   9.694  0.1779  0.9112  0.1201
  711MOL0     H95977  10.483   5.495   9.643  0.6140 -2.0331  0.0227
  711MOL0     H95978  10.547   5.451   9.489  1.9869  0.8007 -2.2467
  711MOL0     H95979  10.526   5.713   9.436  0.7518 -0.0991  1.5444
  711MOL0     H95980  10.394   5.610   9.399  1.2783 -2.6248 -0.8630
  711MOL0     H95981  10.233   5.859   9.700 -0.6029 -0.6042 -0.2521
  711MOL0     H95982  10.933   5.678   9.325 -2.1665  1.2164  1.1122
  711MOL0     H95983  11.231   5.691   9.161 -0.8062 -2.3318 -0.0437
  711MOL0     H95984  11.056   5.713   9.127 -2.0883  1.1334  3.2101
  711MOL0     H95985  11.158   5.853   9.113 -0.8354 -1.8268 -4.3856
  712MOL0     O95986   9.170   3.868   9.186  0.1208 -0.3795 -0.7788
  712MOL0     C95987   9.080   3.909   9.111  0.5615  0.3933  0.8531
  712MOL0     O95988   9.071   4.033   9.036 -0.0133  0.5959 -0.3053
  712MOL0     C95989   9.173   4.127   9.070 -0.4323  0.7192  0.1704
  712MOL0     C95990   9.224   4.203   8.969 -0.2602  0.0953 -0.6031
  712MOL0     C95991   9.310   4.309   8.994  0.8380  0.5326 -0.2255
  712MOL0     C95992   9.356   4.340   9.126  0.4513  0.3505  0.0931
  712MOL0     O95993   9.440   4.450   9.151 -0.1429  0.0745  0.3362
  712MOL0     C95994   9.511   4.506   9.049 -0.4192 -0.1850  0.4066
  712MOL0     C95995   9.605   4.608   9.099  0.6470 -0.6095 -0.0999
  712MOL0     C95996   9.730   4.537   9.159 -0.4766 -0.2646  0.2615
  712MOL0     C95997   9.826   4.643   9.226 -0.0483  1.2326  0.0423
  712MOL0     C95998   9.946   4.584   9.312 -0.8639  0.1790 -0.4438
  712MOL0     C95999  10.022   4.704   9.379  0.4051  0.3009  0.4051
  712MOL0     C96000  10.138   4.657   9.476 -0.1342 -0.7952  0.3213
  712MOL0     C96001  10.232   4.758   9.539  0.3310 -0.0206  0.2277
  712MOL0     N96002  10.300   4.820   9.430 -0.8652 -0.0167 -0.0046
  712MOL0     C96003  10.431   4.789   9.409 -0.4205  0.5275  0.4529
  712MOL0     C96004  10.477   4.873   9.316 -0.0251  0.7898 -0.0771
  712MOL0     C96005  10.605   4.886   9.251 -0.2970 -0.4445 -1.1624
  712MOL0     C96006  10.676   5.004   9.328 -0.1510  0.2515 -0.4084
  712MOL0     C96007  10.737   4.960   9.471  0.6221  0.0129  0.2086
  712MOL0     C96008  10.804   5.076   9.534  0.9278  0.0604  0.3288
  712MOL0     O96009  10.828   5.072   9.678  0.9775 -0.0786 -0.3589
  712MOL0     C96010  10.866   5.191   9.741  0.2889  0.1740  0.4830
  712MOL0     C96011  10.863   5.198   9.882 -0.0126 -0.4671  0.2408
  712MOL0     C96012  10.890   5.311   9.967  0.8311  0.4775  0.4183
  712MOL0     C96013  10.946   5.426   9.902  0.6189 -0.0136 -0.1643
  712MOL0     C96014  10.971   5.547   9.973  1.1579 -0.3134  0.0636
  712MOL0     O96015  10.965   5.532  10.115 -0.1285  0.1997  1.1628
  712MOL0     C96016  10.925   5.639  10.194 -0.0657 -0.1732 -0.2065
  712MOL0     C96017  11.011   5.669  10.304  0.2183 -0.3909 -0.9114
  712MOL0     C96018  10.971   5.761  10.403 -0.7348  0.1817  0.3227
  712MOL0     C96019  10.853   5.838  10.378  0.3467  0.2151  0.6357
  712MOL0     O96020  10.822   5.931  10.464  0.5618  0.1281 -0.1805
  712MOL0     C96021  10.745   6.044  10.415  0.1092 -0.3568 -0.2784
  712MOL0     C96022  10.754   6.146  10.532 -0.6774  0.2970  0.8128
  712MOL0     C96023  10.689   6.278  10.513  1.0226  0.0893 -0.2427
  712MOL0     C96024  10.536   6.260  10.540 -0.3504 -0.4177 -0.6677
  712MOL0     C96025  10.456   6.385  10.498  0.5470 -0.4519  1.0888
  712MOL0     C96026  10.506   6.505  10.582  1.6220  0.1578  0.5672
  712MOL0     C96027  10.414   6.623  10.572  1.0022  0.1292  0.0582
  712MOL0     C96028  10.389   6.704  10.702  0.5052 -0.1912 -1.1710
  712MOL0    Cl96029  10.550   6.772  10.765  0.0787 -0.0924  0.1211
  712MOL0     C96030  10.764   5.798  10.275  0.4108  0.6894  0.1948
  712MOL0     C96031  10.801   5.698  10.183 -0.1600  0.3270  0.0755
  712MOL0     O96032  10.997   5.651   9.923 -0.1102  0.7661 -0.1202
  712MOL0     C96033  10.967   5.411   9.763 -0.1749 -1.1340  1.0836
  712MOL0     C96034  10.911   5.305   9.681 -0.0456  0.2230  0.5052
  712MOL0     N96035  10.375   4.954   9.288  0.3687  0.2653  0.1766
  712MOL0     N96036  10.268   4.920   9.352 -0.6705  0.1600 -0.2629
  712MOL0     C96037   9.302   4.265   9.232 -0.9112 -0.9633  0.5749
  712MOL0     C96038   9.218   4.157   9.203 -0.3316  0.3179 -0.0839
  712MOL0     C96039   8.968   3.820   9.096  1.1567 -0.4876  0.3016
  712MOL0     C96040   8.914   3.773   9.212  0.3454  0.9671  0.3734
  712MOL0     C96041   8.791   3.703   9.226 -0.1477  0.0813 -0.6983
  712MOL0     C96042   8.716   3.682   9.120 -0.2615 -0.4785  0.6409
  712MOL0     O96043   8.593   3.614   9.135 -0.8294  0.8439  0.6965
  712MOL0     C96044   8.615   3.472   9.165  0.2654 -0.3287  0.2362
  712MOL0     C96045   8.476   3.406   9.192  0.2426  1.1801 -0.2290
  712MOL0     C96046   8.382   3.366   9.074  0.6952  0.4265 -0.3758
  712MOL0     C96047   8.297   3.484   9.033 -0.2466 -0.1563 -0.0958
  712MOL0     C96048   8.200   3.433   8.935 -0.0802  0.0533 -0.2165
  712MOL0     C96049   8.141   3.397   8.834 -0.6366 -1.2092 -0.7305
  712MOL0     C96050   8.769   3.733   8.994  0.3035  0.5210 -0.3147
  712MOL0     C96051   8.892   3.800   8.977 -0.2401 -0.8751  0.9504
  712MOL0     C96052   8.943   3.840   8.847  0.3732 -1.1041  0.1777
  712MOL0     H96053   9.166   4.208   8.877 -1.1369  1.5971  0.0087
  712MOL0     H96054   9.339   4.371   8.910 -0.0447 -1.3728 -2.0095
  712MOL0     H96055   9.561   4.426   8.992  0.2472  0.4658  0.0534
  712MOL0     H96056   9.444   4.543   8.971 -0.5123 -3.9121 -1.5144
  712MOL0     H96057   9.547   4.658   9.177 -0.2138  1.8647 -2.1913
  712MOL0     H96058   9.624   4.677   9.017  0.6473  3.2082  2.8314
  712MOL0     H96059   9.786   4.496   9.075  0.6971  0.7053  0.5446
  712MOL0     H96060   9.692   4.457   9.224  0.3374 -1.5167 -0.7626
  712MOL0     H96061   9.879   4.709   9.157 -2.2744  3.0377 -0.0534
  712MOL0     H96062   9.768   4.706   9.294 -1.4626 -0.3623  0.3474
  712MOL0     H96063   9.915   4.516   9.392  2.9293 -0.2729  0.8115
  712MOL0     H96064  10.013   4.532   9.244 -1.3339  1.4806 -1.9613
  712MOL0     H96065  10.069   4.770   9.305 -0.8571  0.2316 -0.4778
  712MOL0     H96066   9.946   4.762   9.432 -1.3273  0.4107 -2.0371
  712MOL0     H96067  10.208   4.591   9.424  0.0917 -2.9944  3.1514
  712MOL0     H96068  10.098   4.591   9.553 -0.8498 -1.3155 -0.4857
  712MOL0     H96069  10.176   4.829   9.602 -2.6244  1.7754 -3.9358
  712MOL0     H96070  10.303   4.704   9.601  2.3212  2.0365 -0.1139
  712MOL0     H96071  10.491   4.706   9.447 -1.9258 -0.3868  0.9227
  712MOL0     H96072  10.659   4.792   9.267  2.5765  1.1012 -1.0473
  712MOL0     H96073  10.590   4.908   9.145  0.9101 -1.2200 -1.5110
  712MOL0     H96074  10.760   5.027   9.262  0.7222 -0.3127  0.4797
  712MOL0     H96075  10.601   5.084   9.338 -1.4566 -0.6761 -2.1452
  712MOL0     H96076  10.800   4.872   9.455 -1.9762 -1.6157 -1.9532
  712MOL0     H96077  10.656   4.925   9.536  0.8644 -0.6044  0.1939
  712MOL0     H96078  10.732   5.157   9.522 -1.0976 -1.4169  1.8508
  712MOL0     H96079  10.899   5.088   9.481  0.4300 -1.5575 -1.0247
  712MOL0     H96080  10.825   5.106   9.926 -0.0575  0.6916  2.8710
  712MOL0     H96081  10.863   5.315  10.072 -0.9956 -0.0497  0.0140
  712MOL0     H96082  11.103   5.615  10.320 -0.8474 -1.5722  1.8079
  712MOL0     H96083  11.040   5.778  10.485 -0.2243 -1.6428  0.3282
  712MOL0     H96084  10.774   6.083  10.317  0.9822  1.7823  0.7650
  712MOL0     H96085  10.640   6.015  10.400 -0.0492  0.1044 -0.0922
  712MOL0     H96086  10.708   6.100  10.620 -2.4028  0.9315  0.2846
  712MOL0     H96087  10.856   6.162  10.570 -0.8489  1.1421  0.9210
  712MOL0     H96088  10.744   6.351  10.574  0.9681 -0.2223  0.1834
  712MOL0     H96089  10.698   6.317  10.411 -1.3907  1.9883  0.1604
  712MOL0     H96090  10.527   6.233  10.646 -2.3982 -0.9194 -0.9412
  712MOL0     H96091  10.508   6.167  10.491 -2.2164 -3.0624  4.6200
  712MOL0     H96092  10.349   6.374  10.517  0.5696 -1.5426  0.6801
  712MOL0     H96093  10.466   6.410  10.392 -1.3800  0.9788  1.2120
  712MOL0     H96094  10.484   6.467  10.682  1.8984 -0.5625  0.3645
  712MOL0     H96095  10.611   6.531  10.566  0.8986  2.9892 -0.1323
  712MOL0     H96096  10.324   6.579  10.529  1.2041  2.1892 -2.7608
  712MOL0     H96097  10.443   6.692  10.493 -0.1509  1.7990  1.0269
  712MOL0     H96098  10.313   6.775  10.669 -1.6383 -2.3524 -1.1006
  712MOL0     H96099  10.360   6.633  10.780 -1.0164  2.4906  0.8529
  712MOL0     H96100  10.660   5.829  10.273  0.2145  0.0514 -2.0309
  712MOL0     H96101  10.730   5.661  10.110 -0.7380  0.1345  0.7182
  712MOL0     H96102  10.995   5.501   9.709  0.6198 -1.0667  1.5812
  712MOL0     H96103  10.904   5.320   9.574  1.9163  0.2620  0.3392
  712MOL0     H96104   9.332   4.295   9.332 -2.0138  1.5119  0.2598
  712MOL0     H96105   9.181   4.104   9.291  0.8204 -1.5961 -0.7060
  712MOL0     H96106   8.964   3.793   9.306  0.6216 -2.6912  1.1637
  712MOL0     H96107   8.772   3.687   9.331  2.3253  1.8928  0.1223
  712MOL0     H96108   8.677   3.459   9.254  1.3321 -3.4488 -0.8284
  712MOL0     H96109   8.666   3.413   9.088  0.8210 -2.7218  2.3159
  712MOL0     H96110   8.411   3.455   9.265  1.4801  0.7608  1.1888
  712MOL0     H96111   8.507   3.313   9.239  2.0730  1.1738 -1.3560
  712MOL0     H96112   8.312   3.290   9.108 -0.6543  2.5459  1.9153
  712MOL0     H96113   8.444   3.336   8.988 -0.5524 -0.9695 -0.8144
  712MOL0     H96114   8.246   3.528   9.119 -0.2549  0.7951 -0.5725
  712MOL0     H96115   8.347   3.567   8.981  0.4826 -1.3549 -1.3764
  712MOL0     H96116   8.113   3.379   8.732 -0.4147 -2.9790 -0.5152
  712MOL0     H96117   8.703   3.736   8.908  0.1944 -0.3192 -0.2723
  712MOL0     H96118   8.917   3.945   8.833  0.9258 -1.0724 -0.6510
  712MOL0     H96119   9.052   3.841   8.841  0.4076  1.8864 -0.0320
  712MOL0     H96120   8.902   3.783   8.763  3.3569 -1.7534 -0.9480
  713MOL0     O96121   5.711  11.083   0.914 -0.2469 -0.8099 -0.2796
  713MOL0     C96122   5.620  11.075   0.992  0.8680 -0.2789 -0.1416
  713MOL0     O96123   5.627  11.081   1.122 -0.4422 -0.5651 -0.1425
  713MOL0     C96124   5.747  11.112   1.184 -0.4970  0.2425  0.3701
  713MOL0     C96125   5.761  11.221   1.283 -0.0052 -1.0074 -0.2335
  713MOL0     C96126   5.879  11.236   1.363  0.5074  0.7832  0.5703
  713MOL0     C96127   5.991  11.157   1.337 -0.0043 -0.5010 -0.2578
  713MOL0     O96128   6.114  11.182   1.401  0.9482 -0.0336  0.8527
  713MOL0     C96129   6.158  11.321   1.412 -0.2918 -0.2381  0.2731
  713MOL0     C96130   6.297  11.341   1.483  0.8832  0.3029  0.5096
  713MOL0     C96131   6.284  11.304   1.630  0.2195  1.0552  0.2808
  713MOL0     C96132   6.423  11.315   1.693  0.8527  1.2103 -0.5439
  713MOL0     C96133   6.409  11.325   1.857 -0.0458  0.2161 -0.2316
  713MOL0     C96134   6.549  11.304   1.921  0.1855 -0.2710  0.3708
  713MOL0     C96135   6.550  11.321   2.076 -0.8822  0.4656 -0.6403
  713MOL0     C96136   6.500  11.187   2.132  0.4419  0.3761 -0.0464
  713MOL0     N96137   6.532  11.174   2.276 -0.0208 -0.0410  1.1717
  713MOL0     C96138   6.552  11.275   2.375 -0.6653  0.0219 -0.0156
  713MOL0     C96139   6.589  11.213   2.491  0.8435 -0.3490 -0.0075
  713MOL0     C96140   6.590  11.269   2.627 -0.3319  0.1742 -1.3567
  713MOL0     C96141   6.737  11.297   2.680 -0.5691  0.1408 -0.1618
  713MOL0     C96142   6.732  11.330   2.822  0.7332 -0.3196  0.1873
  713MOL0     C96143   6.874  11.358   2.870 -0.0748 -0.3860 -0.2342
  713MOL0     O96144   6.978  11.308   2.789  0.4736 -0.2259  0.2381
  713MOL0     C96145   7.100  11.276   2.848  0.0719  0.1542  0.5735
  713MOL0     C96146   7.147  11.317   2.976 -1.1824 -0.7010 -0.1439
  713MOL0     C96147   7.279  11.276   3.031  0.2049 -0.2345  0.2164
  713MOL0     C96148   7.368  11.190   2.963  0.2828 -0.6694 -0.3722
  713MOL0     C96149   7.493  11.145   3.034 -0.5341 -0.1529  1.0823
  713MOL0     O96150   7.509  11.186   3.167 -1.1315  0.0455 -0.9934
  713MOL0     C96151   7.627  11.144   3.229 -0.0308  0.3174 -1.5636
  713MOL0     C96152   7.675  11.011   3.229  0.3154 -0.8555  0.0221
  713MOL0     C96153   7.802  10.985   3.283 -0.0738  0.5000 -0.0100
  713MOL0     C96154   7.863  11.078   3.366  0.3281 -0.3463  0.3659
  713MOL0     O96155   7.980  11.057   3.436  0.8079 -0.4440  0.7088
  713MOL0     C96156   8.034  10.925   3.424 -0.4945 -0.1942  0.2895
  713MOL0     C96157   7.969  10.826   3.530  0.0286  0.3166 -0.3841
  713MOL0     C96158   8.043  10.688   3.529  0.6935  1.0538 -0.3184
  713MOL0     C96159   8.159  10.696   3.622  1.3129  0.1084  0.5033
  713MOL0     C96160   8.226  10.563   3.609  0.0173  0.2527  0.0479
  713MOL0     C96161   8.358  10.574   3.683 -0.6687 -0.0037 -0.2995
  713MOL0     C96162   8.347  10.594   3.837  0.7943  0.5040 -0.0383
  713MOL0     C96163   8.476  10.557   3.905  0.6368 -0.1653  0.1653
  713MOL0    Cl96164   8.471  10.379   3.920  0.4109  0.0458 -0.0350
  713MOL0     C96165   7.795  11.197   3.389 -0.1508  0.3091 -0.9249
  713MOL0     C96166   7.690  11.232   3.312 -0.0367  0.3098 -0.6698
  713MOL0     O96167   7.575  11.071   2.970  0.5026 -0.1023  0.5062
  713MOL0     C96168   7.329  11.170   2.825 -0.1619  0.0371 -0.4678
  713MOL0     C96169   7.200  11.209   2.773 -0.2102  0.4319  1.1069
  713MOL0     N96170   6.608  11.083   2.459  0.0102 -0.0290  0.1932
  713MOL0     N96171   6.576  11.054   2.338  0.4970  0.2840 -0.2462
  713MOL0     C96172   5.980  11.059   1.239 -0.0256  0.9347 -0.0445
  713MOL0     C96173   5.859  11.024   1.177  0.3232 -0.0608  0.0054
  713MOL0     C96174   5.482  11.084   0.930  1.0007 -0.7428 -0.6694
  713MOL0     C96175   5.379  11.129   1.017 -0.6822  0.5221 -0.2336
  713MOL0     C96176   5.254  11.140   0.966 -0.0490 -0.3529 -0.7240
  713MOL0     C96177   5.218  11.096   0.830  0.1043 -0.2798 -0.8011
  713MOL0     O96178   5.089  11.108   0.777 -0.2715 -0.3702  0.1783
  713MOL0     C96179   4.982  11.167   0.852 -0.4243  0.1817 -0.9557
  713MOL0     C96180   4.860  11.101   0.799  0.2164  0.1153 -0.8275
  713MOL0     C96181   4.736  11.184   0.823 -0.0667 -0.4083 -0.4097
  713MOL0     C96182   4.605  11.108   0.797  0.4027 -0.2103  0.4775
  713MOL0     C96183   4.556  11.003   0.887 -0.0159 -0.1395 -0.0509
  713MOL0     C96184   4.502  10.926   0.963  0.1740 -0.1364 -0.4287
  713MOL0     C96185   5.324  11.055   0.747 -0.6031 -0.5399 -0.1114
  713MOL0     C96186   5.456  11.045   0.793 -0.0095 -0.4017  0.0154
  713MOL0     C96187   5.560  10.983   0.694  0.7658  0.8242  0.2303
  713MOL0     H96188   5.675  11.283   1.309  1.4420  1.9544 -1.8999
  713MOL0     H96189   5.872  11.306   1.446 -1.3764  1.4324 -0.0759
  713MOL0     H96190   6.165  11.361   1.311  0.0205  2.8773  1.4085
  713MOL0     H96191   6.077  11.379   1.458 -2.3171 -1.8860 -1.0470
  713MOL0     H96192   6.319  11.448   1.482 -0.9045  0.6920 -0.4445
  713MOL0     H96193   6.375  11.285   1.430  1.3871 -0.0631  1.5987
  713MOL0     H96194   6.247  11.201   1.638 -0.5985  1.2268 -1.0111
  713MOL0     H96195   6.217  11.371   1.685  0.2768  1.4731 -0.1535
  713MOL0     H96196   6.475  11.223   1.666  1.1682  0.8973  1.0450
  713MOL0     H96197   6.480  11.403   1.661  0.6869  2.7238  2.9320
  713MOL0     H96198   6.379  11.428   1.878  0.4748 -0.1376  2.7267
  713MOL0     H96199   6.337  11.251   1.892  0.9896 -1.0902 -0.7527
  713MOL0     H96200   6.603  11.213   1.895  4.4528  2.6192 -1.9723
  713MOL0     H96201   6.617  11.382   1.885  0.6364  0.8273  3.3314
  713MOL0     H96202   6.489  11.401   2.119 -0.9076  0.0164  0.1884
  713MOL0     H96203   6.652  11.338   2.113  0.2793 -0.8182 -2.9998
  713MOL0     H96204   6.393  11.171   2.115  0.5435 -0.4009  0.0473
  713MOL0     H96205   6.557  11.105   2.088  3.5132  1.7171  1.1487
  713MOL0     H96206   6.525  11.378   2.356  1.2320  0.2448 -1.7629
  713MOL0     H96207   6.543  11.368   2.623 -1.2575 -0.3033 -2.6664
  713MOL0     H96208   6.547  11.196   2.696  1.0507  1.9996  1.6537
  713MOL0     H96209   6.786  11.201   2.661 -1.1432  0.0130 -1.0969
  713MOL0     H96210   6.789  11.381   2.633  3.9294 -1.7441  0.9066
  713MOL0     H96211   6.695  11.244   2.880 -1.9825  1.7298  1.7420
  713MOL0     H96212   6.664  11.413   2.843  0.5244 -0.5389  0.3910
  713MOL0     H96213   6.886  11.335   2.976 -0.2945  0.4682 -0.0185
  713MOL0     H96214   6.892  11.466   2.863 -1.3089  0.1214  2.9248
  713MOL0     H96215   7.088  11.385   3.038  0.0284  0.3356 -0.0870
  713MOL0     H96216   7.290  11.304   3.136  2.1664 -1.8419  0.5138
  713MOL0     H96217   7.613  10.940   3.175  1.0524  1.6772 -4.5855
  713MOL0     H96218   7.847  10.887   3.267 -1.2430  0.1662 -1.5095
  713MOL0     H96219   8.033  10.886   3.322 -2.7617 -1.4686  0.7437
  713MOL0     H96220   8.141  10.930   3.449 -0.3169  0.8492 -0.6108
  713MOL0     H96221   7.972  10.867   3.631  1.5663  1.8153 -0.9678
  713MOL0     H96222   7.868  10.808   3.492 -0.0895 -0.6992  0.3614
  713MOL0     H96223   7.970  10.611   3.556  0.0310  1.3512 -1.2047
  713MOL0     H96224   8.081  10.662   3.430 -0.0382  0.2037 -0.3966
  713MOL0     H96225   8.122  10.716   3.722  0.2934  0.0009  0.1596
  713MOL0     H96226   8.231  10.773   3.594  0.6571 -0.3088 -2.7508
  713MOL0     H96227   8.245  10.528   3.507 -0.0952 -1.6689  0.6444
  713MOL0     H96228   8.158  10.490   3.654 -0.5063 -0.8325 -2.3861
  713MOL0     H96229   8.418  10.491   3.645  0.6080  0.6787  0.1781
  713MOL0     H96230   8.413  10.659   3.643 -1.0121  0.6621  0.6176
  713MOL0     H96231   8.270  10.537   3.890  0.3144  0.7379 -0.4804
  713MOL0     H96232   8.322  10.697   3.861 -0.3220  0.2003  0.1599
  713MOL0     H96233   8.555  10.599   3.843 -1.7175  0.8992 -2.3104
  713MOL0     H96234   8.493  10.600   4.004  0.0767 -1.3347  0.7914
  713MOL0     H96235   7.837  11.253   3.472  0.7479 -1.5597 -0.0340
  713MOL0     H96236   7.659  11.336   3.315  2.0661  0.9602  2.3104
  713MOL0     H96237   7.405  11.119   2.767  1.2229  0.7094  0.6932
  713MOL0     H96238   7.160  11.192   2.673 -0.0551  1.4516  0.8530
  713MOL0     H96239   6.062  10.994   1.211 -0.3955 -0.3610  1.7210
  713MOL0     H96240   5.855  10.939   1.110 -1.2604 -0.7296  0.8823
  713MOL0     H96241   5.408  11.152   1.119  0.9580 -1.6205 -0.1361
  713MOL0     H96242   5.180  11.189   1.029  1.9324 -1.3097  2.5817
  713MOL0     H96243   4.974  11.273   0.826  1.9365  0.7986  0.5558
  713MOL0     H96244   4.977  11.133   0.956  0.3949  1.5866 -0.4353
  713MOL0     H96245   4.844  11.010   0.858 -3.3428  1.4588  0.5446
  713MOL0     H96246   4.877  11.072   0.694  2.1401  0.0520 -0.5376
  713MOL0     H96247   4.742  11.275   0.761 -1.3131  1.0059  1.4463
  713MOL0     H96248   4.727  11.205   0.930 -1.9343 -1.0287 -0.4165
  713MOL0     H96249   4.522  11.179   0.799 -1.3658 -2.1507 -0.4372
  713MOL0     H96250   4.612  11.068   0.695 -0.4935 -2.4465  1.2386
  713MOL0     H96251   4.430  10.871   1.019  0.1432  0.4883  0.1631
  713MOL0     H96252   5.292  11.027   0.647 -0.3203  0.6905 -0.5620
  713MOL0     H96253   5.596  11.063   0.629  0.5357 -1.2068 -2.6015
  713MOL0     H96254   5.646  10.934   0.741  1.0571  1.4725  0.3751
  713MOL0     H96255   5.519  10.910   0.623 -0.7200  0.6475  1.2249
  714MOL0     O96256   5.301   4.988   3.857  0.0377  0.6822  0.3851
  714MOL0     C96257   5.267   5.077   3.776 -0.8985 -0.0684 -0.1884
  714MOL0     O96258   5.350   5.164   3.708 -0.5637 -0.3175 -0.1580
  714MOL0     C96259   5.491   5.154   3.698 -0.4837 -0.5301 -0.2606
  714MOL0     C96260   5.573   5.258   3.654  0.7627 -0.2677  0.5281
  714MOL0     C96261   5.712   5.255   3.644  0.9669 -0.6325 -0.9941
  714MOL0     C96262   5.779   5.140   3.693 -0.2997 -0.2367  0.3773
  714MOL0     O96263   5.915   5.144   3.680  0.3138  0.2353  0.3170
  714MOL0     C96264   5.999   5.027   3.697 -0.6894 -0.3782  0.1860
  714MOL0     C96265   6.003   4.927   3.576  0.2202  0.4685 -0.9605
  714MOL0     C96266   6.065   4.985   3.445  0.0000  0.2696  0.0160
  714MOL0     C96267   6.016   4.881   3.331 -0.6309 -0.0411  0.0767
  714MOL0     C96268   5.882   4.912   3.269  0.4263  0.1485 -0.4571
  714MOL0     C96269   5.882   5.030   3.176 -0.5544 -0.0259  1.5638
  714MOL0     C96270   5.737   5.042   3.120 -0.0778 -0.7083 -0.1751
  714MOL0     C96271   5.729   5.170   3.030 -0.0498  0.2382  0.0832
  714MOL0     N96272   5.791   5.139   2.897  0.2220 -0.3248 -0.6275
  714MOL0     C96273   5.721   5.125   2.781  0.1734  0.0014  0.0188
  714MOL0     C96274   5.810   5.116   2.684 -0.2458 -0.1318 -0.1301
  714MOL0     C96275   5.774   5.114   2.532 -0.8188  1.0872  1.0736
  714MOL0     C96276   5.676   4.993   2.488  0.1582 -0.2471 -0.7183
  714MOL0     C96277   5.635   5.030   2.342 -0.0694  0.7152  0.2834
  714MOL0     C96278   5.520   4.942   2.275  0.4842 -0.3805 -0.7126
  714MOL0     O96279   5.557   4.823   2.212 -0.1099  0.2656 -0.7783
  714MOL0     C96280   5.461   4.770   2.129  0.7209 -0.2824  0.1877
  714MOL0     C96281   5.327   4.815   2.120 -0.7612  0.5155 -0.2517
  714MOL0     C96282   5.233   4.751   2.045  0.3462 -0.5591 -0.3209
  714MOL0     C96283   5.275   4.645   1.956 -0.4854 -0.2979  0.1499
  714MOL0     C96284   5.173   4.591   1.857 -0.4557  0.1964 -0.4994
  714MOL0     O96285   5.203   4.470   1.790  0.0851 -0.1510  0.0215
  714MOL0     C96286   5.119   4.422   1.697 -0.5616  0.2958  0.7678
  714MOL0     C96287   4.975   4.419   1.707 -0.2024  0.5458  0.0097
  714MOL0     C96288   4.902   4.370   1.598 -0.2410 -0.4276  0.0605
  714MOL0     C96289   4.965   4.319   1.487 -0.4566  1.0823 -0.0520
  714MOL0     O96290   4.892   4.267   1.391 -0.3945 -0.5000 -0.0730
  714MOL0     C96291   4.912   4.348   1.272 -0.7964 -0.4510  0.1201
  714MOL0     C96292   4.794   4.306   1.182 -0.2962 -0.3801 -0.3547
  714MOL0     C96293   4.781   4.410   1.072 -0.2841 -0.2967 -0.1989
  714MOL0     C96294   4.697   4.537   1.117 -0.0211 -1.3765 -0.8046
  714MOL0     C96295   4.668   4.645   0.999 -1.6011 -0.7231 -0.0124
  714MOL0     C96296   4.795   4.717   0.938  0.9323 -0.2192 -0.9536
  714MOL0     C96297   4.778   4.862   0.885  0.1519 -0.2336 -0.1739
  714MOL0     C96298   4.751   4.961   1.006 -0.3073  1.1092  0.3431
  714MOL0    Cl96299   4.907   5.005   1.094 -0.1622  0.2327  0.0011
  714MOL0     C96300   5.109   4.314   1.482  0.2603 -0.2141  0.9028
  714MOL0     C96301   5.182   4.369   1.586 -1.0356 -0.9263  0.7428
  714MOL0     O96302   5.072   4.660   1.837  0.1005 -0.3492 -0.0985
  714MOL0     C96303   5.412   4.600   1.964 -0.7538  0.5621  0.6996
  714MOL0     C96304   5.499   4.664   2.055 -0.7199  0.0742  0.7442
  714MOL0     N96305   5.938   5.104   2.738 -0.3432 -0.4236 -1.4111
  714MOL0     N96306   5.927   5.130   2.861 -0.0683 -0.3076 -0.6388
  714MOL0     C96307   5.702   5.027   3.728 -1.3850 -0.7273 -0.1631
  714MOL0     C96308   5.564   5.038   3.732 -0.2689 -0.0117 -0.5901
  714MOL0     C96309   5.122   5.089   3.755 -0.9474 -0.0277 -0.1167
  714MOL0     C96310   5.038   5.034   3.855 -0.5374  0.1486 -0.1070
  714MOL0     C96311   4.904   5.048   3.849 -0.9968  0.5630 -0.5472
  714MOL0     C96312   4.845   5.116   3.746  0.1200 -0.7880 -0.3704
  714MOL0     O96313   4.711   5.125   3.741 -0.0370 -0.3531  0.0827
  714MOL0     C96314   4.650   4.999   3.753  0.9000  0.1771  0.8865
  714MOL0     C96315   4.581   4.985   3.881  1.0141 -0.8538 -0.2796
  714MOL0     C96316   4.493   4.856   3.890 -1.0667  0.5342  0.3261
  714MOL0     C96317   4.455   4.828   4.040  0.2593 -0.0716 -0.0479
  714MOL0     C96318   4.365   4.718   4.041 -0.9556 -0.2874 -0.3369
  714MOL0     C96319   4.298   4.622   4.040 -0.0722  0.6271  0.2404
  714MOL0     C96320   4.927   5.172   3.642  0.3547  0.2984 -0.3487
  714MOL0     C96321   5.066   5.150   3.643  0.4134  0.3986  0.2308
  714MOL0     C96322   5.145   5.175   3.512  0.2593 -0.0848  0.0182
  714MOL0     H96323   5.521   5.345   3.617 -0.8880 -1.6771 -0.6279
  714MOL0     H96324   5.771   5.339   3.609  1.0503 -0.4261 -0.3752
  714MOL0     H96325   6.102   5.060   3.712  0.2793 -1.0013 -3.9513
  714MOL0     H96326   5.974   4.968   3.785  0.4097 -1.7439 -0.3864
  714MOL0     H96327   5.898   4.899   3.565 -0.2152  2.3877 -2.2209
  714MOL0     H96328   6.062   4.839   3.602  1.0463  1.3947  0.4974
  714MOL0     H96329   6.173   4.975   3.450  0.1697  2.0546  0.6219
  714MOL0     H96330   6.034   5.090   3.439 -1.5930 -0.1613  0.2269
  714MOL0     H96331   6.099   4.900   3.262 -1.9439  2.8115 -0.8698
  714MOL0     H96332   6.022   4.775   3.357 -0.0161 -0.3285 -1.1749
  714MOL0     H96333   5.856   4.825   3.209  1.2114  1.1237 -2.2950
  714MOL0     H96334   5.808   4.934   3.347  0.5641 -1.9248  0.3320
  714MOL0     H96335   5.928   5.117   3.224 -0.6716  1.0903 -0.2662
  714MOL0     H96336   5.951   5.004   3.094  0.6202 -0.6469  2.7054
  714MOL0     H96337   5.661   5.029   3.198  0.4383 -1.9625  0.1481
  714MOL0     H96338   5.713   4.953   3.061  1.7258 -0.7748 -0.8777
  714MOL0     H96339   5.621   5.188   3.027  0.0858  1.7477  2.2393
  714MOL0     H96340   5.778   5.258   3.072  0.0147 -0.6886  2.0820
  714MOL0     H96341   5.613   5.122   2.778  0.2055 -0.6059 -1.9474
  714MOL0     H96342   5.728   5.209   2.505  4.8230  3.8774  0.0085
  714MOL0     H96343   5.856   5.099   2.462 -2.1361  0.5654 -0.4060
  714MOL0     H96344   5.728   4.898   2.504 -2.1224 -0.9048  5.5660
  714MOL0     H96345   5.582   5.003   2.542 -0.5146  1.3194 -2.0906
  714MOL0     H96346   5.719   5.045   2.273 -1.2472  2.1599 -0.8996
  714MOL0     H96347   5.606   5.135   2.347 -1.9734  0.4959 -3.3265
  714MOL0     H96348   5.464   5.012   2.213 -0.9949 -1.8797 -1.1407
  714MOL0     H96349   5.443   4.923   2.351  2.6614  1.3850  2.1785
  714MOL0     H96350   5.295   4.896   2.185 -1.5057  0.6985 -0.8331
  714MOL0     H96351   5.131   4.786   2.056  0.7460  1.5097 -2.3746
  714MOL0     H96352   4.930   4.436   1.805  2.6074  1.2191  1.2763
  714MOL0     H96353   4.795   4.358   1.606  0.0392 -4.2617  0.2997
  714MOL0     H96354   4.898   4.456   1.275 -4.0308 -0.7964  0.9219
  714MOL0     H96355   5.011   4.329   1.229 -0.2179  1.0239  0.7569
  714MOL0     H96356   4.792   4.205   1.140 -0.5693  0.0508 -1.4260
  714MOL0     H96357   4.703   4.312   1.243 -0.6422  0.7868 -0.9540
  714MOL0     H96358   4.879   4.432   1.030  0.2544 -3.6929 -1.0174
  714MOL0     H96359   4.735   4.345   0.996  0.9944 -0.6495 -0.6851
  714MOL0     H96360   4.742   4.577   1.208 -1.6033 -0.5429 -0.3348
  714MOL0     H96361   4.599   4.510   1.158  0.4336 -0.4271  1.0303
  714MOL0     H96362   4.600   4.726   1.025 -0.1887  0.9246 -1.2267
  714MOL0     H96363   4.606   4.589   0.929  1.3960 -4.1841 -0.2285
  714MOL0     H96364   4.871   4.720   1.017  3.9732  3.0087 -3.6825
  714MOL0     H96365   4.841   4.653   0.862  0.2641  0.8104 -2.2560
  714MOL0     H96366   4.694   4.872   0.816 -0.9865  1.6792  1.4041
  714MOL0     H96367   4.867   4.900   0.833 -1.5071  0.2037 -2.9190
  714MOL0     H96368   4.704   5.053   0.971  0.8761  1.0994 -1.3974
  714MOL0     H96369   4.682   4.913   1.075 -2.9052  3.0213 -0.7432
  714MOL0     H96370   5.150   4.282   1.387  0.7971  2.2433  0.2398
  714MOL0     H96371   5.290   4.376   1.581 -0.9121 -2.0295  1.4722
  714MOL0     H96372   5.433   4.524   1.889 -3.5182  0.2029  0.1988
  714MOL0     H96373   5.598   4.622   2.066 -1.7815 -2.7212  0.3829
  714MOL0     H96374   5.752   4.933   3.749 -1.4224 -0.9568 -1.0487
  714MOL0     H96375   5.510   4.946   3.750 -0.8307  0.3044 -0.6339
  714MOL0     H96376   5.086   4.978   3.935 -1.4646  0.8700  0.9840
  714MOL0     H96377   4.852   5.003   3.934 -2.2787  2.3731 -0.3213
  714MOL0     H96378   4.725   4.919   3.751 -0.1517 -0.9120  2.4826
  714MOL0     H96379   4.578   4.977   3.673 -1.8990  1.2001  3.0032
  714MOL0     H96380   4.509   5.066   3.897  2.0919  0.2806 -1.0084
  714MOL0     H96381   4.643   4.978   3.971  0.3212  0.9930  0.3860
  714MOL0     H96382   4.553   4.772   3.853 -0.3615  1.4849 -0.7515
  714MOL0     H96383   4.400   4.871   3.834 -2.0622  0.1845  1.7917
  714MOL0     H96384   4.544   4.809   4.101 -0.2323  0.4065  0.8311
  714MOL0     H96385   4.400   4.910   4.086 -2.3220 -1.5213 -0.3650
  714MOL0     H96386   4.240   4.533   4.024  2.1545 -1.4378  2.6051
  714MOL0     H96387   4.884   5.220   3.555  0.1570  0.3636 -0.2150
  714MOL0     H96388   5.199   5.270   3.515 -1.6226  1.0705 -1.0887
  714MOL0     H96389   5.224   5.099   3.503  1.2310  0.8066  0.7012
  714MOL0     H96390   5.082   5.175   3.423  1.6892 -0.4750 -1.0257
  715MOL0     O96391   8.851  10.699   1.537  0.4639 -0.9416  0.0649
  715MOL0     C96392   8.880  10.821   1.538 -0.0736 -0.8751  0.1235
  715MOL0     O96393   8.795  10.925   1.518  0.1874 -0.4378  0.4891
  715MOL0     C96394   8.692  10.890   1.425 -0.7220  0.2377 -0.0834
  715MOL0     C96395   8.567  10.849   1.478  0.2121  0.0817 -0.2489
  715MOL0     C96396   8.467  10.818   1.388 -0.6105  0.2151 -0.0795
  715MOL0     C96397   8.481  10.820   1.251 -0.8527 -1.2631 -0.6439
  715MOL0     O96398   8.382  10.781   1.171 -0.3322 -0.2060  0.0999
  715MOL0     C96399   8.258  10.838   1.197 -0.1368 -0.2076 -0.9769
  715MOL0     C96400   8.147  10.794   1.101  0.0302  0.4728  0.3499
  715MOL0     C96401   8.022  10.880   1.114  0.2433 -0.1138 -0.5525
  715MOL0     C96402   7.927  10.861   0.996  0.4005  0.0290 -0.1607
  715MOL0     C96403   7.795  10.938   1.016 -0.0202 -0.3784 -0.7614
  715MOL0     C96404   7.810  11.085   1.019 -0.1945  1.1641 -0.3217
  715MOL0     C96405   7.662  11.149   1.024 -0.3714 -0.2225 -0.0880
  715MOL0     C96406   7.670  11.292   1.069 -0.1222 -0.2956 -0.1611
  715MOL0     N96407   7.706  11.381   0.955 -0.6445  0.2140  0.0350
  715MOL0     C96408   7.624  11.450   0.868  0.0352  0.0389 -0.1184
  715MOL0     C96409   7.708  11.533   0.808 -0.3065 -0.9512 -0.3661
  715MOL0     C96410   7.688  11.655   0.719  0.0257  0.1137  1.0857
  715MOL0     C96411   7.566  11.655   0.632  0.0682 -0.4456 -0.1952
  715MOL0     C96412   7.549  11.542   0.532 -0.1472  0.8067  0.1296
  715MOL0     C96413   7.664  11.530   0.427  0.2461 -0.0353  0.3590
  715MOL0     O96414   7.613  11.475   0.304 -0.3349 -0.1129 -0.3647
  715MOL0     C96415   7.706  11.427   0.219 -0.2169 -0.2744  0.3433
  715MOL0     C96416   7.664  11.363   0.102  0.2970  0.9703  0.0392
  715MOL0     C96417   7.754  11.314   0.008 -0.3606  0.5422  1.0574
  715MOL0     C96418   7.899  11.323   0.031  0.8766 -0.2071 -0.3313
  715MOL0     C96419   8.003  11.278  -0.063  0.5090  0.5965  0.0918
  715MOL0     O96420   8.120  11.331  -0.045 -0.7822  0.4854 -0.4924
  715MOL0     C96421   8.221  11.278  -0.109 -1.2706  0.1961 -0.2782
  715MOL0     C96422   8.241  11.151  -0.167 -0.4477  0.8002  0.4462
  715MOL0     C96423   8.360  11.105  -0.227 -0.1205 -0.3667  0.2658
  715MOL0     C96424   8.470  11.191  -0.243 -0.5027  0.0485  0.2301
  715MOL0     O96425   8.583  11.167  -0.311  0.2713  0.3050  0.8928
  715MOL0     C96426   8.592  11.045  -0.398  0.1975  0.0951  0.4094
  715MOL0     C96427   8.651  11.092  -0.539  0.4371 -0.3475 -1.0021
  715MOL0     C96428   8.809  11.086  -0.526 -0.7809 -0.1700 -0.0302
  715MOL0     C96429   8.864  11.155  -0.647  0.2573 -0.4266  1.0261
  715MOL0     C96430   9.017  11.195  -0.648  0.9690  0.0503  0.8493
  715MOL0     C96431   9.075  11.227  -0.780 -0.4701 -0.6281 -0.2637
  715MOL0     C96432   9.027  11.372  -0.812 -0.0632  0.3592 -0.8777
  715MOL0     C96433   9.085  11.426  -0.939 -0.1837 -0.1188  0.2385
  715MOL0    Cl96434   9.022  11.595  -0.972 -0.2018 -0.2700  0.2429
  715MOL0     C96435   8.452  11.323  -0.189  0.0419  1.3504 -0.3968
  715MOL0     C96436   8.324  11.360  -0.130 -0.1842 -0.1766 -0.0058
  715MOL0     O96437   7.959  11.201  -0.155 -0.6516 -0.3274  0.4744
  715MOL0     C96438   7.934  11.387   0.149 -0.3790 -0.3612  0.0810
  715MOL0     C96439   7.845  11.434   0.240 -0.3642 -1.0522 -0.2936
  715MOL0     N96440   7.837  11.532   0.867 -0.5647  0.4339  0.2591
  715MOL0     N96441   7.837  11.428   0.945  0.1895 -0.2009  0.3688
  715MOL0     C96442   8.608  10.860   1.201  0.6941  0.8115 -0.7507
  715MOL0     C96443   8.716  10.882   1.286 -0.2786 -0.3382 -0.2939
  715MOL0     C96444   9.018  10.872   1.575  0.1663  0.8386 -0.3131
  715MOL0     C96445   9.063  10.993   1.529  0.0748 -0.8579  0.0865
  715MOL0     C96446   9.191  11.038   1.546 -0.1206  0.6139  0.7705
  715MOL0     C96447   9.281  10.954   1.614 -0.2856 -0.2390  0.6263
  715MOL0     O96448   9.412  10.973   1.617 -0.2051  0.1268  0.1420
  715MOL0     C96449   9.469  11.056   1.519 -0.5916 -0.3735 -0.0277
  715MOL0     C96450   9.462  10.981   1.385 -0.5316  0.3413  0.2912
  715MOL0     C96451   9.526  10.844   1.381 -0.4670 -0.9834  0.0782
  715MOL0     C96452   9.551  10.794   1.236 -0.4762  0.2948 -0.0333
  715MOL0     C96453   9.670  10.855   1.175 -0.4949 -0.8647 -0.6582
  715MOL0     C96454   9.766  10.916   1.146 -0.2664 -0.0518  0.0119
  715MOL0     C96455   9.244  10.833   1.663 -0.3869  0.3044  0.0334
  715MOL0     C96456   9.110  10.795   1.649  0.0259 -0.2801  0.2490
  715MOL0     C96457   9.068  10.665   1.710  0.9479  0.1173  0.3700
  715MOL0     H96458   8.562  10.832   1.585  1.5924 -0.8184 -0.3045
  715MOL0     H96459   8.379  10.776   1.437  0.0761  0.5220  1.4950
  715MOL0     H96460   8.236  10.826   1.304  2.6021  0.4150 -0.2471
  715MOL0     H96461   8.266  10.946   1.183 -0.6111  0.2025  1.4364
  715MOL0     H96462   8.117  10.690   1.115  1.2067  0.2777  1.5669
  715MOL0     H96463   8.182  10.812   0.999  0.1605  2.6530  0.7398
  715MOL0     H96464   8.054  10.984   1.131 -0.9507  0.4701 -1.7111
  715MOL0     H96465   7.976  10.849   1.209  0.6289  2.4515  0.5602
  715MOL0     H96466   7.973  10.892   0.902  0.9905  0.6568  0.3337
  715MOL0     H96467   7.891  10.758   0.985  2.8213 -0.9361  0.2786
  715MOL0     H96468   7.743  10.910   0.924  2.2436 -0.0939 -2.1960
  715MOL0     H96469   7.732  10.905   1.099  0.2439 -0.5375 -0.6210
  715MOL0     H96470   7.860  11.120   1.110 -0.2253 -0.8521  0.5288
  715MOL0     H96471   7.867  11.129   0.936 -1.3425 -0.3286 -1.9589
  715MOL0     H96472   7.604  11.091   1.096  0.7483 -0.3755  0.7119
  715MOL0     H96473   7.612  11.142   0.926 -1.5914  1.2463  0.3776
  715MOL0     H96474   7.575  11.321   1.114  0.4945  0.7751  0.5060
  715MOL0     H96475   7.751  11.297   1.142  0.5191  0.5577 -0.8929
  715MOL0     H96476   7.516  11.444   0.856  0.2610 -3.3143 -1.5653
  715MOL0     H96477   7.690  11.740   0.787 -1.7221  0.6709  0.4879
  715MOL0     H96478   7.772  11.664   0.649 -0.0416 -1.4456  0.7617
  715MOL0     H96479   7.478  11.659   0.697  0.1883 -0.2437 -0.0444
  715MOL0     H96480   7.576  11.752   0.582 -0.0580  0.1588  0.9212
  715MOL0     H96481   7.454  11.552   0.478  0.7395  0.3807 -1.5952
  715MOL0     H96482   7.551  11.448   0.588  1.5702 -1.3757 -3.2651
  715MOL0     H96483   7.731  11.462   0.481  0.0978 -0.5234 -0.0677
  715MOL0     H96484   7.721  11.623   0.417 -0.0116  0.2520  1.3884
  715MOL0     H96485   7.559  11.338   0.094  0.2864  1.2148 -0.6298
  715MOL0     H96486   7.717  11.283  -0.090 -0.4870  3.1094  0.2260
  715MOL0     H96487   8.161  11.079  -0.159  0.4316 -0.4877 -1.4706
  715MOL0     H96488   8.353  11.001  -0.258 -2.3134  0.2974 -1.8435
  715MOL0     H96489   8.657  10.967  -0.358 -2.1318 -1.7771  0.8109
  715MOL0     H96490   8.494  11.003  -0.422 -1.1658  1.9222  2.4277
  715MOL0     H96491   8.631  11.020  -0.619  0.3846 -1.0552 -0.3629
  715MOL0     H96492   8.621  11.194  -0.565  0.5493 -0.3652 -1.2042
  715MOL0     H96493   8.851  11.121  -0.431 -0.0089  0.6539 -0.6514
  715MOL0     H96494   8.830  10.979  -0.531 -0.8533 -0.3916  2.7558
  715MOL0     H96495   8.809  11.248  -0.664  0.0545 -0.9374 -1.4101
  715MOL0     H96496   8.843  11.096  -0.737  1.8127  0.6122 -0.0635
  715MOL0     H96497   9.076  11.111  -0.611  1.0336 -0.0974  0.4149
  715MOL0     H96498   9.038  11.279  -0.581  1.9370 -1.2316  2.2250
  715MOL0     H96499   9.184  11.225  -0.776 -0.3900  0.3105 -1.4667
  715MOL0     H96500   9.049  11.148  -0.851 -2.2419 -2.0028  1.7934
  715MOL0     H96501   9.056  11.433  -0.726  0.8778 -0.9756 -0.2042
  715MOL0     H96502   8.919  11.382  -0.819 -0.5234 -1.7837  1.6101
  715MOL0     H96503   9.194  11.414  -0.934 -0.1235 -0.5250 -1.4527
  715MOL0     H96504   9.043  11.358  -1.013  0.4343 -4.8140  3.7253
  715MOL0     H96505   8.530  11.398  -0.193 -1.4998  3.0167 -0.4779
  715MOL0     H96506   8.329  11.463  -0.097  3.8416  0.6277 -2.4498
  715MOL0     H96507   8.041  11.400   0.167 -0.1773  2.3178 -2.2691
  715MOL0     H96508   7.882  11.473   0.335 -1.7447  0.4227 -0.3255
  715MOL0     H96509   8.624  10.864   1.094 -0.2640 -1.6065 -1.0559
  715MOL0     H96510   8.815  10.913   1.256 -0.9224  2.2715  0.0405
  715MOL0     H96511   8.989  11.055   1.480 -1.4544 -2.9586 -0.4209
  715MOL0     H96512   9.219  11.138   1.511  2.2396 -0.4086 -0.5033
  715MOL0     H96513   9.575  11.081   1.533 -0.5693 -0.0203 -0.7403
  715MOL0     H96514   9.431  11.158   1.503 -0.2222  0.3511  3.1160
  715MOL0     H96515   9.506  11.040   1.304 -2.6036 -0.5152 -1.5518
  715MOL0     H96516   9.356  10.962   1.366 -0.5987 -0.6606  1.5634
  715MOL0     H96517   9.465  10.774   1.438 -1.0682  0.8523  1.8047
  715MOL0     H96518   9.626  10.841   1.427 -1.3747 -2.6878  2.0901
  715MOL0     H96519   9.570  10.687   1.250  0.4775  0.0796 -2.3678
  715MOL0     H96520   9.468  10.785   1.165  0.4031  0.3292 -1.0868
  715MOL0     H96521   9.841  10.979   1.101 -1.1626  1.3703  0.4437
  715MOL0     H96522   9.312  10.765   1.712 -0.4433 -0.9967 -1.5904
  715MOL0     H96523   9.052  10.584   1.638  0.2149 -1.0103  1.7403
  715MOL0     H96524   9.148  10.637   1.780  0.4578 -0.2443  0.7911
  715MOL0     H96525   8.975  10.673   1.768  0.9236  0.8474  0.2287
  716MOL0     O96526   3.394   4.991   3.636  0.5848 -0.0957 -0.0047
  716MOL0     C96527   3.280   4.962   3.586 -0.8452 -0.5446 -0.5503
  716MOL0     O96528   3.243   4.989   3.462 -0.4281  0.5056  0.1516
  716MOL0     C96529   3.331   5.015   3.358 -0.2086 -0.4865  0.1235
  716MOL0     C96530   3.274   5.090   3.261  0.6466  0.7024 -0.3553
  716MOL0     C96531   3.361   5.142   3.158  0.4179  0.3873 -0.1158
  716MOL0     C96532   3.496   5.118   3.150  0.9316 -0.1664  0.2372
  716MOL0     O96533   3.570   5.183   3.053  0.2334  0.1296  0.0201
  716MOL0     C96534   3.700   5.142   3.053  0.3859 -0.4487  0.5369
  716MOL0     C96535   3.776   5.200   2.935 -0.4892 -0.0460 -0.0833
  716MOL0     C96536   3.853   5.331   2.977 -0.0018  0.5485  0.7408
  716MOL0     C96537   3.922   5.393   2.848 -0.0730 -0.2369 -0.1239
  716MOL0     C96538   4.011   5.506   2.904 -0.2514  0.3427 -0.6892
  716MOL0     C96539   4.101   5.559   2.796  0.6273  0.5364  0.2167
  716MOL0     C96540   4.058   5.681   2.712  0.8420 -0.8678 -0.7733
  716MOL0     C96541   4.168   5.712   2.593 -0.2187 -1.4166  0.0497
  716MOL0     N96542   4.300   5.779   2.650  0.5989 -0.1598 -0.1702
  716MOL0     C96543   4.301   5.908   2.709  0.1758  0.6897 -0.2274
  716MOL0     C96544   4.435   5.918   2.731  0.5853 -0.0837  0.6246
  716MOL0     C96545   4.482   6.040   2.815 -0.5368 -0.7653 -0.6136
  716MOL0     C96546   4.594   6.124   2.739 -0.4762  0.7684 -0.1321
  716MOL0     C96547   4.537   6.208   2.626  0.3693  0.3766 -0.4095
  716MOL0     C96548   4.640   6.296   2.554 -0.0433  0.3147  1.2354
  716MOL0     O96549   4.572   6.356   2.450  0.1815  0.1424 -0.3877
  716MOL0     C96550   4.636   6.448   2.367  0.0335  0.1081 -1.3338
  716MOL0     C96551   4.769   6.452   2.347 -0.3098 -0.3029 -0.5377
  716MOL0     C96552   4.812   6.555   2.270  0.5573 -1.1193  0.6727
  716MOL0     C96553   4.731   6.655   2.206  0.1535 -0.1388  0.3285
  716MOL0     C96554   4.789   6.758   2.127 -0.7608  0.3963 -0.5857
  716MOL0     O96555   4.720   6.806   2.017  0.2134 -0.2133  0.2177
  716MOL0     C96556   4.751   6.939   1.977  0.0082  0.8709  0.3005
  716MOL0     C96557   4.644   7.025   1.947 -0.8250  0.5654 -0.3244
  716MOL0     C96558   4.677   7.143   1.874  0.8648 -0.0261  0.2598
  716MOL0     C96559   4.812   7.181   1.868  0.7520  0.1091  0.7032
  716MOL0     O96560   4.861   7.308   1.828  0.1030 -0.4876 -0.2905
  716MOL0     C96561   4.766   7.418   1.836 -1.5370 -0.5571  0.1469
  716MOL0     C96562   4.842   7.549   1.815 -0.0162  0.9673  1.0541
  716MOL0     C96563   4.923   7.589   1.937 -0.0448 -0.1325 -0.3790
  716MOL0     C96564   4.987   7.729   1.924 -0.5875  0.5752 -0.2364
  716MOL0     C96565   4.985   7.817   2.052  0.4963  0.7491  0.7933
  716MOL0     C96566   5.093   7.926   2.032  0.0779  0.2121  0.5495
  716MOL0     C96567   5.128   7.995   2.172  0.3785 -0.0570 -0.3661
  716MOL0     C96568   5.229   8.116   2.164  0.5819  0.4824 -0.2788
  716MOL0    Cl96569   5.246   8.179   2.342  0.1846  0.4398 -0.3424
  716MOL0     C96570   4.908   7.098   1.909  0.9377  0.2657  0.6315
  716MOL0     C96571   4.878   6.973   1.959  0.4129 -0.7398  0.0127
  716MOL0     O96572   4.882   6.813   2.181  0.1376 -0.6823  0.3400
  716MOL0     C96573   4.596   6.643   2.226 -0.3917 -0.9216  0.5833
  716MOL0     C96574   4.549   6.542   2.310 -0.4227 -0.3631  0.2188
  716MOL0     N96575   4.497   5.806   2.689  0.1795 -0.4462 -0.0341
  716MOL0     N96576   4.419   5.720   2.640  0.3253  0.5438  0.2152
  716MOL0     C96577   3.549   5.032   3.250  0.9765  0.1790  0.7962
  716MOL0     C96578   3.469   4.980   3.345 -0.2700 -0.8175 -0.2941
  716MOL0     C96579   3.189   4.900   3.684 -1.1113  0.7627 -0.0342
  716MOL0     C96580   3.239   4.794   3.768 -0.4484 -0.6772  0.1004
  716MOL0     C96581   3.153   4.717   3.847 -0.3397 -0.2332  0.0517
  716MOL0     C96582   3.018   4.742   3.847 -0.5928 -0.0956 -0.3640
  716MOL0     O96583   2.914   4.678   3.919 -0.1004 -0.3389  0.6777
  716MOL0     C96584   2.950   4.572   4.009 -0.1850  0.0601 -0.2906
  716MOL0     C96585   2.979   4.441   3.932 -0.2260 -0.8956 -0.4342
  716MOL0     C96586   3.025   4.330   4.021  0.3499 -0.5539 -0.0819
  716MOL0     C96587   3.094   4.213   3.954  0.2546  0.4024 -1.3777
  716MOL0     C96588   3.230   4.255   3.914  1.2957 -0.4520  0.0366
  716MOL0     C96589   3.345   4.287   3.889 -0.4640 -0.0452  0.4466
  716MOL0     C96590   2.973   4.846   3.770  0.9629 -1.0611 -0.1990
  716MOL0     C96591   3.053   4.922   3.685  0.2846 -0.1479 -0.0580
  716MOL0     C96592   2.991   5.031   3.616 -0.3750  0.5344  0.1517
  716MOL0     H96593   3.168   5.111   3.248  0.9395  0.7648 -3.6433
  716MOL0     H96594   3.327   5.205   3.077 -1.3828  0.7000  0.8198
  716MOL0     H96595   3.742   5.184   3.145 -4.1557  1.1307  2.1665
  716MOL0     H96596   3.692   5.033   3.048 -2.0764 -0.2727 -1.8900
  716MOL0     H96597   3.711   5.225   2.850 -3.0611 -0.7297  1.5634
  716MOL0     H96598   3.847   5.127   2.895  1.2883  1.9758 -0.8207
  716MOL0     H96599   3.918   5.296   3.057 -1.0405 -0.7668  1.0324
  716MOL0     H96600   3.785   5.408   3.013  0.2224  2.2501 -2.1052
  716MOL0     H96601   3.993   5.330   2.793  1.7269  2.3507 -0.9466
  716MOL0     H96602   3.841   5.426   2.783 -0.4646  0.0157  0.4821
  716MOL0     H96603   3.955   5.590   2.946 -0.4901 -0.7222  1.2234
  716MOL0     H96604   4.073   5.469   2.986 -0.2384 -1.7250 -1.5760
  716MOL0     H96605   4.198   5.594   2.833  1.9128  2.3274 -4.2664
  716MOL0     H96606   4.124   5.485   2.720 -1.1328 -1.2355  1.3229
  716MOL0     H96607   4.056   5.765   2.782 -0.9603 -0.9340 -0.7032
  716MOL0     H96608   3.953   5.671   2.685  0.5181 -2.8511  1.0572
  716MOL0     H96609   4.211   5.620   2.553  2.2150 -0.7480  0.9405
  716MOL0     H96610   4.122   5.773   2.515  1.2781  0.1669  0.3344
  716MOL0     H96611   4.220   5.971   2.744 -1.1594 -1.2340  0.3310
  716MOL0     H96612   4.393   6.102   2.824 -0.3190 -0.5557  0.1594
  716MOL0     H96613   4.522   6.015   2.914 -1.1545 -1.8916 -0.6451
  716MOL0     H96614   4.649   6.189   2.807  1.5594 -0.6269 -0.3463
  716MOL0     H96615   4.670   6.056   2.699  1.4981  2.2475  0.9616
  716MOL0     H96616   4.451   6.271   2.652  0.5942  1.5511 -2.3381
  716MOL0     H96617   4.494   6.135   2.556 -1.5961 -0.2625  1.3381
  716MOL0     H96618   4.718   6.229   2.515 -0.7955  0.8034 -1.2962
  716MOL0     H96619   4.691   6.372   2.614  1.3523  0.6064 -0.2238
  716MOL0     H96620   4.842   6.380   2.383 -0.8092 -0.5975 -0.1041
  716MOL0     H96621   4.917   6.562   2.241  0.0490 -0.7040 -1.2398
  716MOL0     H96622   4.547   6.982   1.973  0.7326 -2.8655  0.3519
  716MOL0     H96623   4.599   7.199   1.823 -0.1194 -0.8042  0.8769
  716MOL0     H96624   4.690   7.406   1.759  0.1482 -0.1634 -1.6409
  716MOL0     H96625   4.716   7.415   1.934  1.7704 -1.2022  1.9875
  716MOL0     H96626   4.917   7.550   1.736  0.6222  1.9982  1.6559
  716MOL0     H96627   4.776   7.632   1.789 -2.6113 -1.4877 -0.7754
  716MOL0     H96628   4.858   7.593   2.025 -2.2627 -0.4765 -1.9536
  716MOL0     H96629   5.011   7.526   1.956  0.1957 -0.2158 -1.7242
  716MOL0     H96630   4.928   7.784   1.850 -3.4645  0.4476  1.7811
  716MOL0     H96631   5.090   7.710   1.894  0.4214 -0.4548  3.3604
  716MOL0     H96632   5.006   7.757   2.141 -1.6812  2.3259  2.4718
  716MOL0     H96633   4.888   7.866   2.067 -0.1003 -0.8529  2.5403
  716MOL0     H96634   5.184   7.877   1.996 -2.1495 -1.7936 -2.8777
  716MOL0     H96635   5.054   8.002   1.964 -0.8597 -1.2770 -0.6159
  716MOL0     H96636   5.178   7.921   2.236  0.8814 -0.7104 -1.4940
  716MOL0     H96637   5.039   8.032   2.224  1.3456 -1.9085  2.9170
  716MOL0     H96638   5.317   8.066   2.122 -0.5351 -3.3048  1.4664
  716MOL0     H96639   5.204   8.194   2.091 -3.7939 -1.4650 -1.2138
  716MOL0     H96640   5.012   7.129   1.908  1.2182 -0.6002  1.1952
  716MOL0     H96641   4.961   6.907   1.979  1.9673  0.2972 -2.4823
  716MOL0     H96642   4.527   6.722   2.196  1.6384  0.2922 -1.2098
  716MOL0     H96643   4.443   6.539   2.333 -0.5853  2.7170  0.2864
  716MOL0     H96644   3.647   4.986   3.259  0.3532 -1.5761 -0.5722
  716MOL0     H96645   3.516   4.927   3.427  2.0518 -1.4580 -1.9393
  716MOL0     H96646   3.346   4.772   3.764 -0.3113  0.1114 -1.9077
  716MOL0     H96647   3.204   4.651   3.917  0.1761  0.7005  0.5796
  716MOL0     H96648   2.864   4.554   4.075 -4.1238  0.2856 -4.8107
  716MOL0     H96649   3.033   4.599   4.075 -2.2884 -2.0527  3.5974
  716MOL0     H96650   3.062   4.451   3.862  0.8322 -0.7091  0.8202
  716MOL0     H96651   2.886   4.411   3.882 -0.8115  1.3356 -0.8129
  716MOL0     H96652   2.945   4.292   4.084 -2.3103  3.0735 -0.9341
  716MOL0     H96653   3.099   4.375   4.087  2.0961 -1.7408 -1.1311
  716MOL0     H96654   3.107   4.129   4.022 -1.0031 -0.6066 -2.3413
  716MOL0     H96655   3.027   4.171   3.879  0.2014  0.0276 -1.1202
  716MOL0     H96656   3.438   4.319   3.848 -1.3677  1.0384 -0.8615
  716MOL0     H96657   2.867   4.870   3.780  1.2358  0.1875 -0.2069
  716MOL0     H96658   3.044   5.124   3.640  0.4225  0.2832 -0.5929
  716MOL0     H96659   3.005   5.020   3.509 -2.6753  1.5926 -0.3302
  716MOL0     H96660   2.883   5.045   3.630 -0.9902  0.9757 -3.9767
  717MOL0     O96661   0.904   5.536   7.449 -0.6944  0.4326  0.6586
  717MOL0     C96662   0.952   5.491   7.344  0.5226 -0.4412  0.5360
  717MOL0     O96663   0.905   5.515   7.217 -0.5509 -0.4585 -0.5500
  717MOL0     C96664   0.792   5.595   7.208  0.3595 -0.0504  0.0507
  717MOL0     C96665   0.660   5.545   7.236  0.1698 -0.0134 -0.5057
  717MOL0     C96666   0.542   5.620   7.223 -0.4291 -0.3722  0.8462
  717MOL0     C96667   0.554   5.752   7.177  0.2879  0.5173 -0.6944
  717MOL0     O96668   0.452   5.846   7.167  0.5282  0.1135  0.3945
  717MOL0     C96669   0.329   5.827   7.243  0.3618  0.4025  0.0606
  717MOL0     C96670   0.208   5.910   7.193  0.0964 -0.4375 -0.4758
  717MOL0     C96671   0.168   5.856   7.054  0.3077  0.0166  0.7700
  717MOL0     C96672   0.072   5.951   6.987  0.1232 -0.1226  0.2642
  717MOL0     C96673   0.020   5.883   6.852 -0.5808  0.0338 -0.1409
  717MOL0     C96674  -0.057   5.989   6.775 -0.3506 -0.3632  0.3561
  717MOL0     C96675  -0.110   5.955   6.637  0.6750  0.0145  0.4358
  717MOL0     C96676  -0.204   6.067   6.578 -0.5316  0.1970 -0.7296
  717MOL0     N96677  -0.270   6.022   6.452  0.2680 -0.4444  0.1382
  717MOL0     C96678  -0.209   6.021   6.325 -0.5409  1.0092 -0.8159
  717MOL0     C96679  -0.314   6.013   6.241 -0.4042 -0.6110  0.0692
  717MOL0     C96680  -0.305   6.004   6.093  1.0422  0.3279  0.5150
  717MOL0     C96681  -0.363   5.863   6.049  0.3779 -0.0511  0.1043
  717MOL0     C96682  -0.290   5.737   6.099  0.0760  0.7601  1.1534
  717MOL0     C96683  -0.148   5.745   6.027  0.2019  0.3670  0.5976
  717MOL0     O96684  -0.089   5.613   6.013  0.1087 -0.2360 -0.6966
  717MOL0     C96685   0.038   5.602   6.067  0.6475  1.4201  0.5033
  717MOL0     C96686   0.144   5.694   6.049 -0.5294 -0.1209  0.0069
  717MOL0     C96687   0.272   5.656   6.078  0.1292  0.1499 -1.1076
  717MOL0     C96688   0.311   5.530   6.117 -0.0917 -0.1147 -0.2874
  717MOL0     C96689   0.459   5.492   6.135  0.2326  0.0992  0.0722
  717MOL0     O96690   0.564   5.579   6.110  1.0406 -0.2433  0.1552
  717MOL0     C96691   0.686   5.538   6.156  0.3184  0.4733  0.2694
  717MOL0     C96692   0.746   5.420   6.116 -0.0230 -0.7708 -0.2379
  717MOL0     C96693   0.860   5.375   6.181  0.3170  1.0765 -0.1973
  717MOL0     C96694   0.913   5.444   6.294  0.3349  0.1597  0.0418
  717MOL0     O96695   1.042   5.417   6.350 -0.0666 -0.3470  0.2591
  717MOL0     C96696   1.110   5.291   6.316  0.2221 -0.2328 -0.3422
  717MOL0     C96697   1.068   5.183   6.410 -0.7873  0.1218 -0.6208
  717MOL0     C96698   1.148   5.057   6.395 -0.7649  0.9916  1.0953
  717MOL0     C96699   1.127   4.958   6.511  0.2196 -0.5221 -0.4639
  717MOL0     C96700   1.239   4.849   6.518  0.5251 -0.3168  0.5632
  717MOL0     C96701   1.276   4.784   6.382  0.3896  0.5411 -0.9349
  717MOL0     C96702   1.372   4.670   6.414 -0.1530 -0.4738  0.1849
  717MOL0     C96703   1.395   4.561   6.299  0.0633  0.5766 -0.2195
  717MOL0    Cl96704   1.234   4.517   6.229  0.2249 -0.2015  0.1948
  717MOL0     C96705   0.842   5.558   6.337 -1.4835  0.0080  0.3581
  717MOL0     C96706   0.734   5.605   6.271 -0.0876  0.1891  0.3946
  717MOL0     O96707   0.474   5.376   6.179 -0.2117 -0.5632  0.1145
  717MOL0     C96708   0.204   5.440   6.146  1.1738  1.3753  0.1690
  717MOL0     C96709   0.073   5.470   6.120  0.5963 -0.4389 -0.3240
  717MOL0     N96710  -0.434   6.019   6.305 -0.2781 -0.4417  0.1638
  717MOL0     N96711  -0.402   6.022   6.433  0.0306 -0.5310  0.4592
  717MOL0     C96712   0.681   5.804   7.156  0.5302 -0.5325  0.2070
  717MOL0     C96713   0.794   5.723   7.157 -0.0944  0.3971  0.1536
  717MOL0     C96714   1.073   5.405   7.355 -0.2235  0.3419 -0.1693
  717MOL0     C96715   1.175   5.427   7.260 -0.7914  0.1881 -0.9901
  717MOL0     C96716   1.290   5.354   7.249  0.0395  0.9126 -0.1730
  717MOL0     C96717   1.312   5.248   7.342  0.5870  0.3597  0.0205
  717MOL0     O96718   1.428   5.179   7.331 -0.1518 -0.0341  0.1083
  717MOL0     C96719   1.450   5.053   7.398 -0.3035  0.2699  0.5052
  717MOL0     C96720   1.499   4.957   7.296  0.5805  1.3630 -0.2837
  717MOL0     C96721   1.558   4.828   7.351 -0.0141  0.8951 -0.0285
  717MOL0     C96722   1.638   4.748   7.247 -0.2926 -0.5340 -0.3963
  717MOL0     C96723   1.711   4.644   7.315  0.0546 -0.1078  0.1375
  717MOL0     C96724   1.778   4.547   7.352  0.1879 -0.6968  0.4850
  717MOL0     C96725   1.213   5.226   7.442  0.0290 -1.2169  0.4741
  717MOL0     C96726   1.098   5.301   7.449  0.4027 -0.0002  1.3105
  717MOL0     C96727   0.991   5.268   7.550  0.0763  0.3802  0.1042
  717MOL0     H96728   0.644   5.445   7.274 -1.9095  0.9025  1.2480
  717MOL0     H96729   0.446   5.574   7.243 -0.9206 -0.2736 -1.0119
  717MOL0     H96730   0.296   5.723   7.240 -1.7639  0.7585  3.9476
  717MOL0     H96731   0.354   5.860   7.344  1.7549  2.5133 -0.9025
  717MOL0     H96732   0.231   6.017   7.189  0.8519 -0.4602  1.7044
  717MOL0     H96733   0.132   5.896   7.270  0.3751 -0.5476 -0.2166
  717MOL0     H96734   0.130   5.753   7.059  0.8124 -0.3097 -1.3385
  717MOL0     H96735   0.251   5.854   6.983 -1.4536 -1.1807 -1.4219
  717MOL0     H96736  -0.008   5.972   7.059  1.7503  1.8570  1.6197
  717MOL0     H96737   0.120   6.049   6.974  0.9985 -0.8327 -2.5100
  717MOL0     H96738   0.096   5.834   6.791 -0.7680 -1.2907  0.6639
  717MOL0     H96739  -0.048   5.799   6.870 -0.9948  0.5357  0.7047
  717MOL0     H96740  -0.143   6.022   6.834 -0.9944 -2.4922  0.7060
  717MOL0     H96741   0.011   6.073   6.762 -1.0966  0.4927  1.7108
  717MOL0     H96742  -0.158   5.857   6.637  0.5025  0.0895  1.2681
  717MOL0     H96743  -0.024   5.934   6.573 -1.1380 -2.3598 -1.3769
  717MOL0     H96744  -0.276   6.078   6.659  0.5912  1.8357  0.1169
  717MOL0     H96745  -0.144   6.158   6.564  0.2128 -0.2303 -0.4078
  717MOL0     H96746  -0.102   6.035   6.312  0.6499 -1.7115  3.8836
  717MOL0     H96747  -0.375   6.075   6.050 -0.2990 -0.8169  0.7490
  717MOL0     H96748  -0.205   6.024   6.052  0.9500 -2.6526 -1.5213
  717MOL0     H96749  -0.463   5.860   6.092  1.1259 -2.5269  1.9147
  717MOL0     H96750  -0.378   5.863   5.941  1.6330  0.8514 -0.0963
  717MOL0     H96751  -0.346   5.649   6.066 -0.3372  1.4451 -0.0452
  717MOL0     H96752  -0.278   5.741   6.208  2.6532  3.6493  0.8906
  717MOL0     H96753  -0.078   5.816   6.071  1.9572 -0.4007 -0.8026
  717MOL0     H96754  -0.164   5.767   5.921  2.1044 -1.5982 -0.1747
  717MOL0     H96755   0.121   5.792   6.011 -2.3089  0.3707  2.1597
  717MOL0     H96756   0.341   5.738   6.063 -0.3429  0.6786 -0.4213
  717MOL0     H96757   0.702   5.359   6.038  0.6339 -2.2244  0.4969
  717MOL0     H96758   0.898   5.282   6.141  0.2682  0.0740  1.9972
  717MOL0     H96759   1.097   5.268   6.210  1.8680  0.2804 -0.6844
  717MOL0     H96760   1.218   5.311   6.316  0.2111 -0.1662 -0.2472
  717MOL0     H96761   1.088   5.225   6.509  1.4582  1.3074 -1.5198
  717MOL0     H96762   0.964   5.161   6.385 -1.6228 -0.9320  3.1669
  717MOL0     H96763   1.141   5.019   6.293  1.7385 -1.0004  1.5368
  717MOL0     H96764   1.253   5.087   6.401 -1.2394  3.0399 -0.1939
  717MOL0     H96765   1.027   4.915   6.498  1.7252 -4.2407 -0.9972
  717MOL0     H96766   1.129   5.019   6.602  0.1220 -2.1537  0.6732
  717MOL0     H96767   1.208   4.774   6.591 -0.8654 -0.1223  0.2019
  717MOL0     H96768   1.332   4.894   6.553  1.2439 -0.9534 -0.4590
  717MOL0     H96769   1.177   4.766   6.338  0.4481 -0.8769 -0.5306
  717MOL0     H96770   1.329   4.855   6.318  3.6110  0.6034  1.5847
  717MOL0     H96771   1.326   4.619   6.499 -2.2093 -1.2643 -1.3047
  717MOL0     H96772   1.461   4.716   6.456 -0.3443 -0.9490  1.1394
  717MOL0     H96773   1.452   4.608   6.218 -2.9579  1.1442 -2.1774
  717MOL0     H96774   1.446   4.473   6.339 -1.1404  1.1122  2.7057
  717MOL0     H96775   0.887   5.616   6.417  2.2424  0.7394 -2.0268
  717MOL0     H96776   0.675   5.686   6.311 -2.8574 -0.8874 -1.2549
  717MOL0     H96777   0.230   5.338   6.174  0.3547  0.9315 -0.6203
  717MOL0     H96778  -0.017   5.417   6.152 -0.2546  0.9211 -0.3700
  717MOL0     H96779   0.700   5.909   7.139  0.5306 -0.3276  1.3415
  717MOL0     H96780   0.893   5.767   7.144  1.3880 -2.4163  1.0488
  717MOL0     H96781   1.159   5.510   7.191 -3.0490  0.7591  0.1041
  717MOL0     H96782   1.370   5.370   7.178  2.2926 -2.9861  1.1542
  717MOL0     H96783   1.354   5.018   7.438 -0.8156  1.7404  0.6463
  717MOL0     H96784   1.514   5.053   7.487  0.7262  0.5854 -0.2150
  717MOL0     H96785   1.585   4.991   7.237  2.4012 -1.3301  0.6241
  717MOL0     H96786   1.418   4.941   7.224  1.3577  3.4599 -1.7440
  717MOL0     H96787   1.475   4.763   7.382 -0.0865  1.0092  0.0162
  717MOL0     H96788   1.620   4.843   7.440  1.7031 -0.5994 -0.9143
  717MOL0     H96789   1.570   4.700   7.175  0.6004 -4.5413  1.1398
  717MOL0     H96790   1.696   4.813   7.182  0.8855 -1.3663 -0.2085
  717MOL0     H96791   1.837   4.464   7.386  2.4150  0.3670 -0.5756
  717MOL0     H96792   1.223   5.160   7.528  0.5189  1.2243  2.4330
  717MOL0     H96793   1.003   5.307   7.652 -2.2962 -0.5453  0.7967
  717MOL0     H96794   0.896   5.317   7.527  0.7619  1.4536 -0.5743
  717MOL0     H96795   0.990   5.159   7.561 -1.8018  0.1374 -1.9301
  718MOL0     O96796   0.328   8.308   0.310 -1.2248  0.4517  0.1230
  718MOL0     C96797   0.252   8.279   0.404  0.1757 -0.0939  0.9797
  718MOL0     O96798   0.286   8.256   0.536  0.5393  0.3390 -0.3267
  718MOL0     C96799   0.416   8.224   0.556 -0.2118  0.1372  0.2490
  718MOL0     C96800   0.473   8.308   0.648 -0.6527 -0.6393  0.1336
  718MOL0     C96801   0.615   8.314   0.659  0.6122  0.4679 -0.2614
  718MOL0     C96802   0.692   8.225   0.579  0.1425 -0.7339 -0.4540
  718MOL0     O96803   0.825   8.236   0.583 -0.0833 -0.6349  0.3968
  718MOL0     C96804   0.875   8.372   0.538  0.0651  0.2089 -0.1260
  718MOL0     C96805   0.996   8.415   0.624  0.1773  0.5372  0.0667
  718MOL0     C96806   0.992   8.564   0.653  0.0655 -0.5732  0.0291
  718MOL0     C96807   1.121   8.623   0.714 -0.2705  0.5807  0.0349
  718MOL0     C96808   1.238   8.619   0.619 -0.1043  1.3469  0.2879
  718MOL0     C96809   1.340   8.718   0.669  0.4063 -0.4408  0.7643
  718MOL0     C96810   1.488   8.702   0.616  0.1255 -0.1758  0.4387
  718MOL0     C96811   1.553   8.579   0.659 -0.1957  0.9961 -0.5079
  718MOL0     N96812   1.585   8.586   0.802 -0.2467 -0.7692 -0.0907
  718MOL0     C96813   1.681   8.670   0.865  0.9102  1.0233 -0.4176
  718MOL0     C96814   1.673   8.628   0.996  0.5960  0.3130 -0.0973
  718MOL0     C96815   1.750   8.669   1.114  0.7282 -0.5013 -0.4947
  718MOL0     C96816   1.664   8.732   1.231  1.0774  0.0662 -0.1292
  718MOL0     C96817   1.737   8.756   1.363 -0.5666 -0.2088 -0.0115
  718MOL0     C96818   1.850   8.669   1.402 -0.8402 -0.4402 -0.0270
  718MOL0     O96819   1.900   8.713   1.527 -0.5000 -0.2791 -0.0900
  718MOL0     C96820   2.019   8.655   1.551 -0.5945 -0.6563  0.1858
  718MOL0     C96821   2.089   8.716   1.656  0.3344 -0.4047  0.7176
  718MOL0     C96822   2.215   8.667   1.704  0.0719  0.8533  0.0603
  718MOL0     C96823   2.280   8.559   1.645 -0.4162 -0.3882  0.6386
  718MOL0     C96824   2.413   8.521   1.691  0.4985  0.4687 -0.0229
  718MOL0     O96825   2.475   8.408   1.633 -0.5165  0.4238 -0.4825
  718MOL0     C96826   2.605   8.392   1.657  0.3416  0.4109  0.1614
  718MOL0     C96827   2.650   8.261   1.661  0.0632 -0.0145 -1.5955
  718MOL0     C96828   2.781   8.236   1.693  0.0741 -0.3102  0.4564
  718MOL0     C96829   2.880   8.334   1.704  1.0398 -0.3586 -0.7162
  718MOL0     O96830   3.009   8.319   1.739  0.6109 -0.0489 -0.1271
  718MOL0     C96831   3.050   8.185   1.783 -0.4579  0.0716 -0.0586
  718MOL0     C96832   3.186   8.196   1.859 -0.2451 -0.3876  1.0621
  718MOL0     C96833   3.308   8.174   1.773 -0.4085  0.0749  0.3540
  718MOL0     C96834   3.445   8.190   1.837 -1.0026 -0.0002  0.0801
  718MOL0     C96835   3.560   8.141   1.746  0.3722  0.2192  0.3573
  718MOL0     C96836   3.690   8.127   1.819 -0.5264  0.9357 -0.0054
  718MOL0     C96837   3.798   8.065   1.734  0.3415 -0.5660 -0.7293
  718MOL0     C96838   3.942   8.100   1.788  0.2497  0.8392  0.6382
  718MOL0    Cl96839   4.060   8.009   1.677 -0.1923 -0.2713 -0.3109
  718MOL0     C96840   2.828   8.463   1.691  0.4651  0.2061 -1.2043
  718MOL0     C96841   2.700   8.501   1.664 -0.9297  0.3072  0.1895
  718MOL0     O96842   2.468   8.595   1.773 -0.3723  0.1505  0.8232
  718MOL0     C96843   2.216   8.493   1.535  0.5915  0.3865 -0.7647
  718MOL0     C96844   2.085   8.542   1.496  0.5216 -0.0302 -0.2779
  718MOL0     N96845   1.579   8.529   1.015 -0.7885 -0.6607  0.1348
  718MOL0     N96846   1.522   8.509   0.899 -0.0537 -0.5419 -0.1558
  718MOL0     C96847   0.638   8.130   0.505 -0.3722  0.2726 -0.0486
  718MOL0     C96848   0.498   8.137   0.485  0.3446 -0.3664 -0.0354
  718MOL0     C96849   0.111   8.279   0.377  0.0249  0.0112 -0.6846
  718MOL0     C96850   0.050   8.402   0.383  0.0557  0.8688  1.2986
  718MOL0     C96851  -0.087   8.421   0.333 -0.7101 -0.6933 -0.1319
  718MOL0     C96852  -0.168   8.308   0.311 -0.4793  0.4673  0.2717
  718MOL0     O96853  -0.296   8.326   0.273  0.4986 -0.7727 -0.6233
  718MOL0     C96854  -0.381   8.220   0.223 -0.4301  0.3907 -0.4232
  718MOL0     C96855  -0.486   8.194   0.339 -0.3974 -0.2395  0.3393
  718MOL0     C96856  -0.436   8.100   0.444 -0.1827  0.0979 -0.3068
  718MOL0     C96857  -0.537   8.069   0.538  0.1384  0.2735 -0.3634
  718MOL0     C96858  -0.604   7.948   0.502  0.2417  0.8848 -0.5595
  718MOL0     C96859  -0.669   7.857   0.465 -0.5162  0.5454  0.9231
  718MOL0     C96860  -0.097   8.188   0.312  0.0255  0.9032 -0.1888
  718MOL0     C96861   0.033   8.170   0.339  1.0841  0.5740 -0.8144
  718MOL0     C96862   0.087   8.036   0.363 -0.4678 -0.2748 -0.6524
  718MOL0     H96863   0.416   8.385   0.698 -0.0434  0.1206 -0.3237
  718MOL0     H96864   0.669   8.377   0.729  2.7219 -2.7993  1.2813
  718MOL0     H96865   0.900   8.366   0.432  1.3908 -2.6082  0.2711
  718MOL0     H96866   0.795   8.447   0.548 -1.5054 -1.6567  2.9179
  718MOL0     H96867   1.087   8.409   0.564  0.4131  0.3402  0.4393
  718MOL0     H96868   0.988   8.360   0.718  0.2562  2.2502  1.1045
  718MOL0     H96869   0.906   8.586   0.717 -0.6024 -0.1111 -1.0038
  718MOL0     H96870   0.967   8.620   0.562 -0.9551 -0.5149  0.3384
  718MOL0     H96871   1.098   8.728   0.736  0.8442  0.5990  1.2627
  718MOL0     H96872   1.141   8.567   0.806  2.4340 -0.3531 -1.0149
  718MOL0     H96873   1.283   8.521   0.601 -1.0761  1.4778 -3.9432
  718MOL0     H96874   1.196   8.644   0.521 -2.1745  0.2225  0.8450
  718MOL0     H96875   1.300   8.818   0.648  0.6839 -0.0912  1.8373
  718MOL0     H96876   1.346   8.718   0.779  1.3654 -2.8136  0.7751
  718MOL0     H96877   1.545   8.792   0.643 -0.5910  0.9002 -1.4002
  718MOL0     H96878   1.471   8.705   0.508 -0.2887  1.0868  0.5244
  718MOL0     H96879   1.491   8.493   0.630  0.9162 -0.2224  0.5802
  718MOL0     H96880   1.640   8.562   0.595 -0.3499  1.2158 -0.7762
  718MOL0     H96881   1.747   8.744   0.821 -0.4694  3.0457  0.7439
  718MOL0     H96882   1.801   8.581   1.153 -0.8770 -1.2674 -0.0180
  718MOL0     H96883   1.821   8.745   1.082  0.9682  0.6438  2.4976
  718MOL0     H96884   1.618   8.826   1.198  1.8203 -0.3401 -2.5250
  718MOL0     H96885   1.581   8.665   1.253  2.5859 -0.6509  4.4854
  718MOL0     H96886   1.660   8.765   1.440  2.6469  2.0389  3.2721
  718MOL0     H96887   1.788   8.852   1.352 -1.3284 -0.0327 -2.5680
  718MOL0     H96888   1.931   8.676   1.329  0.1114 -1.9871  0.8158
  718MOL0     H96889   1.823   8.563   1.400  0.5209 -0.7999 -0.5726
  718MOL0     H96890   2.068   8.808   1.710  3.9323  1.0937 -0.1250
  718MOL0     H96891   2.263   8.731   1.776  0.0537  0.9160  0.0168
  718MOL0     H96892   2.582   8.178   1.645 -1.8666  0.9975  0.7160
  718MOL0     H96893   2.798   8.130   1.705  3.4220  0.1237  0.4751
  718MOL0     H96894   2.981   8.158   1.863  1.0857  1.8386  2.0101
  718MOL0     H96895   3.056   8.115   1.700 -2.2654 -1.0600  0.7022
  718MOL0     H96896   3.198   8.300   1.890  0.8071  0.5983 -2.2721
  718MOL0     H96897   3.182   8.133   1.949 -0.4716  0.0936  1.3981
  718MOL0     H96898   3.300   8.071   1.736 -1.8257  0.8190 -1.5831
  718MOL0     H96899   3.304   8.237   1.683 -3.2573 -1.7237 -0.9123
  718MOL0     H96900   3.442   8.127   1.927  1.3769 -3.0258 -1.7825
  718MOL0     H96901   3.463   8.297   1.857 -3.5515  0.6552 -0.7742
  718MOL0     H96902   3.574   8.206   1.659 -0.8500  2.5948  1.8218
  718MOL0     H96903   3.522   8.046   1.708 -0.0652  0.3485  0.4614
  718MOL0     H96904   3.718   8.222   1.864 -2.3615  0.6295  1.9729
  718MOL0     H96905   3.677   8.066   1.909 -1.6768  2.4561  0.8981
  718MOL0     H96906   3.777   8.099   1.632 -0.6595  2.3918  0.3601
  718MOL0     H96907   3.801   7.956   1.742  1.0205 -0.5928 -1.2496
  718MOL0     H96908   3.955   8.208   1.779  2.3841  0.5740 -0.1154
  718MOL0     H96909   3.956   8.067   1.892 -0.6178 -0.0941  0.4734
  718MOL0     H96910   2.896   8.542   1.721 -0.2812  0.0569  1.0520
  718MOL0     H96911   2.674   8.607   1.655 -0.4811  0.3022 -1.2641
  718MOL0     H96912   2.250   8.417   1.466 -0.1107  0.2490 -0.9643
  718MOL0     H96913   2.024   8.475   1.436  0.1413  0.9196 -0.9714
  718MOL0     H96914   0.701   8.061   0.450  0.1578 -0.4189  1.3595
  718MOL0     H96915   0.447   8.069   0.418 -2.2539  0.7194  0.6943
  718MOL0     H96916   0.093   8.500   0.401  1.9940  0.1365  0.8733
  718MOL0     H96917  -0.128   8.521   0.341  0.9826  0.2802 -2.6667
  718MOL0     H96918  -0.327   8.130   0.191 -0.9165 -0.1053  0.1250
  718MOL0     H96919  -0.436   8.262   0.139  2.4117  2.2865 -1.4982
  718MOL0     H96920  -0.574   8.151   0.290 -1.6957  1.5864  0.9472
  718MOL0     H96921  -0.520   8.286   0.388 -1.5797 -1.6290  2.2453
  718MOL0     H96922  -0.353   8.148   0.497 -1.3049 -1.2658  2.9141
  718MOL0     H96923  -0.388   8.016   0.393  1.8198  2.1280 -2.0220
  718MOL0     H96924  -0.494   8.055   0.638 -1.4137  0.9905  0.4477
  718MOL0     H96925  -0.618   8.141   0.553 -4.1967 -3.8719 -1.4528
  718MOL0     H96926  -0.738   7.777   0.447 -0.6536  0.9119 -0.3098
  718MOL0     H96927  -0.142   8.091   0.299  2.5744 -0.1107 -2.5562
  718MOL0     H96928   0.010   7.958   0.362  1.2425 -2.2354  2.4739
  718MOL0     H96929   0.159   8.011   0.284 -0.7423 -2.8233 -0.1962
  718MOL0     H96930   0.138   8.031   0.460  1.4015 -0.5108 -1.6045
  719MOL0     O96931   9.914   5.010   1.646 -0.3187 -0.0909  0.3145
  719MOL0     C96932   9.973   4.979   1.754  0.0351  0.7685 -0.0159
  719MOL0     O96933  10.084   4.899   1.762  0.0138  0.1674 -0.6118
  719MOL0     C96934  10.150   4.857   1.654 -0.9806  0.6786 -0.3894
  719MOL0     C96935  10.191   4.936   1.550 -1.0111  0.6238 -0.1325
  719MOL0     C96936  10.250   4.877   1.435 -0.5057 -0.1604  0.1968
  719MOL0     C96937  10.259   4.744   1.415  1.3720  0.2900 -1.5290
  719MOL0     O96938  10.308   4.711   1.296 -0.1580 -0.5780 -0.7837
  719MOL0     C96939  10.354   4.574   1.291  0.5456 -0.0328  0.3724
  719MOL0     C96940  10.418   4.548   1.153 -0.5633  0.1244 -0.2235
  719MOL0     C96941  10.320   4.573   1.042 -0.2439  0.9095 -0.5083
  719MOL0     C96942  10.360   4.492   0.933 -0.7027  0.0400 -0.3791
  719MOL0     C96943  10.301   4.539   0.799  0.4517  0.5407  0.5628
  719MOL0     C96944  10.372   4.480   0.672  0.7587 -0.5303 -0.3535
  719MOL0     C96945  10.288   4.482   0.551  1.0217 -0.2171  0.3530
  719MOL0     C96946  10.242   4.629   0.513 -0.4067  0.4365 -1.1389
  719MOL0     N96947  10.145   4.638   0.404  0.1523  0.9676 -0.6775
  719MOL0     C96948  10.168   4.605   0.269 -0.8827 -0.2325  0.1003
  719MOL0     C96949  10.048   4.573   0.223  0.4032  0.4632  1.2473
  719MOL0     C96950  10.019   4.552   0.073  0.2272  0.4463  0.2990
  719MOL0     C96951  10.115   4.624  -0.027  0.2470 -0.1421 -0.2651
  719MOL0     C96952  10.120   4.546  -0.162  0.5375 -0.1442  0.1666
  719MOL0     C96953  10.234   4.589  -0.239  0.0716  0.8296  0.7178
  719MOL0     O96954  10.347   4.533  -0.173 -0.9145  0.3956  0.0999
  719MOL0     C96955  10.475   4.546  -0.222 -0.7559 -0.9221 -0.4771
  719MOL0     C96956  10.505   4.590  -0.346 -0.3230 -0.1017  0.4368
  719MOL0     C96957  10.642   4.600  -0.395  0.4402 -0.0577 -0.5026
  719MOL0     C96958  10.747   4.576  -0.309  0.7036  0.8814 -0.4359
  719MOL0     C96959  10.882   4.591  -0.367 -0.1287 -0.3616 -0.4182
  719MOL0     O96960  10.904   4.639  -0.486 -0.1697 -0.1743 -0.3356
  719MOL0     C96961  11.019   4.637  -0.567  0.3144  0.9248  1.4669
  719MOL0     C96962  10.995   4.670  -0.702  0.6973 -1.0835 -1.4833
  719MOL0     C96963  11.103   4.654  -0.793  0.1936 -0.8065 -0.1782
  719MOL0     C96964  11.230   4.611  -0.749 -0.6021 -0.2334 -1.4121
  719MOL0     O96965  11.315   4.610  -0.855  0.0172 -0.0572 -0.2789
  719MOL0     C96966  11.411   4.510  -0.865 -0.5124  0.5826  0.6310
  719MOL0     C96967  11.346   4.408  -0.966  0.1683  1.1701  0.5627
  719MOL0     C96968  11.442   4.305  -1.022 -0.3000 -0.3226  0.2313
  719MOL0     C96969  11.534   4.364  -1.133 -0.7426  0.3302 -0.9307
  719MOL0     C96970  11.630   4.254  -1.166 -0.1336 -0.7037  0.6748
  719MOL0     C96971  11.734   4.287  -1.273  0.0670 -0.2318 -0.4440
  719MOL0     C96972  11.809   4.155  -1.300  0.0942  0.3875  0.0392
  719MOL0     C96973  11.931   4.167  -1.384 -0.0811 -1.1508  0.3990
  719MOL0    Cl96974  11.894   4.260  -1.523  0.1228 -0.0013 -0.2321
  719MOL0     C96975  11.254   4.566  -0.619 -0.3891  0.6376  0.0120
  719MOL0     C96976  11.143   4.574  -0.531 -0.6310  0.1397  0.8749
  719MOL0     O96977  10.971   4.573  -0.283  0.0173 -0.2832  0.7820
  719MOL0     C96978  10.718   4.530  -0.174  0.2270  0.9482  0.3502
  719MOL0     C96979  10.583   4.523  -0.132 -0.4984  0.2120  0.5291
  719MOL0     N96980   9.951   4.579   0.319  0.2352  0.0987 -0.1024
  719MOL0     N96981  10.010   4.623   0.426  0.3651 -0.0226 -0.2508
  719MOL0     C96982  10.211   4.660   1.526 -0.3142  0.1503 -0.0298
  719MOL0     C96983  10.157   4.720   1.643 -0.6348  0.1429  0.5094
  719MOL0     C96984   9.917   5.041   1.868  0.7199  0.7022 -0.0343
  719MOL0     C96985   9.904   5.179   1.873 -0.4386 -0.9658  0.0955
  719MOL0     C96986   9.871   5.238   1.995 -0.0760 -0.8484 -0.3771
  719MOL0     C96987   9.856   5.169   2.114  1.3358 -0.1003  0.4602
  719MOL0     O96988   9.810   5.224   2.234  0.3203  0.0609  0.0192
  719MOL0     C96989   9.814   5.369   2.247  0.8629  0.4297  0.4632
  719MOL0     C96990   9.744   5.424   2.375  0.5835 -0.5562 -0.1939
  719MOL0     C96991   9.778   5.329   2.496  0.1888  0.8857  1.1045
  719MOL0     C96992   9.649   5.265   2.562 -0.6997 -0.6814 -0.2509
  719MOL0     C96993   9.564   5.375   2.622 -1.2346 -0.2109 -1.4645
  719MOL0     C96994   9.476   5.448   2.672 -0.0920  0.4506 -0.0842
  719MOL0     C96995   9.866   5.030   2.103  0.6155 -0.7848 -0.7187
  719MOL0     C96996   9.892   4.958   1.984  0.2521  0.5253 -0.4233
  719MOL0     C96997   9.886   4.806   1.980 -0.0542 -0.3130  0.4224
  719MOL0     H96998  10.172   5.043   1.557  1.3916  1.0722  0.7364
  719MOL0     H96999  10.264   4.940   1.348  0.8673 -2.4834 -1.3864
  719MOL0     H97000  10.419   4.558   1.378  0.4692  1.4369  0.7180
  719MOL0     H97001  10.272   4.504   1.310  2.4032 -2.2822  0.5821
  719MOL0     H97002  10.465   4.449   1.145 -0.8843  0.1177 -2.7652
  719MOL0     H97003  10.498   4.619   1.128  0.6300 -1.7002 -1.9894
  719MOL0     H97004  10.320   4.680   1.017  0.9313 -0.1116 -6.0625
  719MOL0     H97005  10.223   4.541   1.081  0.4457  1.3110  1.6936
  719MOL0     H97006  10.466   4.477   0.915 -0.9286  0.0470 -1.7861
  719MOL0     H97007  10.319   4.393   0.956  0.2231 -0.4404 -0.7490
  719MOL0     H97008  10.196   4.509   0.799  0.9762 -1.5091  0.0592
  719MOL0     H97009  10.298   4.648   0.803 -1.9470  0.7521 -2.6992
  719MOL0     H97010  10.461   4.543   0.673  0.4724  0.1148  4.3491
  719MOL0     H97011  10.407   4.378   0.690  0.7277 -1.0340 -2.7927
  719MOL0     H97012  10.202   4.418   0.570  2.0533 -1.4565  0.9580
  719MOL0     H97013  10.333   4.445   0.458 -4.6978 -2.1057 -2.1015
  719MOL0     H97014  10.188   4.671   0.598 -1.6250 -1.3878 -0.9432
  719MOL0     H97015  10.326   4.689   0.478 -1.0290  2.2464  0.3368
  719MOL0     H97016  10.265   4.602   0.219 -0.6933 -0.4551  0.4766
  719MOL0     H97017  10.040   4.447   0.054 -0.1531  0.9368 -3.5321
  719MOL0     H97018   9.920   4.594   0.052 -0.7793 -1.4950  0.9642
  719MOL0     H97019  10.066   4.720  -0.047 -0.6934 -0.4684  0.3563
  719MOL0     H97020  10.206   4.651   0.027 -1.7235  1.0754  2.7856
  719MOL0     H97021  10.029   4.561  -0.222  0.6572 -0.7671 -0.1904
  719MOL0     H97022  10.117   4.437  -0.153  1.1630 -0.3505 -1.6960
  719MOL0     H97023  10.236   4.698  -0.240 -0.3948  0.8587 -1.0014
  719MOL0     H97024  10.219   4.571  -0.346 -1.1025  0.7467  0.8776
  719MOL0     H97025  10.423   4.607  -0.415 -2.0022 -0.8303  2.1665
  719MOL0     H97026  10.648   4.630  -0.499  1.4395  3.9842  0.5750
  719MOL0     H97027  10.898   4.714  -0.724 -0.4349 -2.5985  0.2072
  719MOL0     H97028  11.090   4.676  -0.898 -2.7665  2.6914  0.6944
  719MOL0     H97029  11.495   4.553  -0.921 -3.0359  3.0185 -1.6126
  719MOL0     H97030  11.445   4.452  -0.779  1.6347 -1.2192 -1.2881
  719MOL0     H97031  11.271   4.347  -0.916  0.7478  0.8455  1.0513
  719MOL0     H97032  11.301   4.454  -1.054 -1.3984  0.0745  0.7440
  719MOL0     H97033  11.501   4.259  -0.942  1.1638  1.2174  0.1090
  719MOL0     H97034  11.393   4.218  -1.065  1.1430 -1.6234  1.0948
  719MOL0     H97035  11.591   4.453  -1.103  1.6783 -2.2161  2.8368
  719MOL0     H97036  11.462   4.392  -1.210 -4.6318  0.9126  2.5181
  719MOL0     H97037  11.569   4.165  -1.186 -1.2103 -0.2190  1.6508
  719MOL0     H97038  11.682   4.226  -1.074  1.7091 -4.1898 -1.2248
  719MOL0     H97039  11.694   4.323  -1.368  1.6939 -0.8750 -1.4204
  719MOL0     H97040  11.812   4.362  -1.258  0.9737 -1.1389 -0.5019
  719MOL0     H97041  11.744   4.092  -1.362 -0.3164 -0.8845  1.6804
  719MOL0     H97042  11.830   4.094  -1.212 -0.9560 -3.0012 -1.8622
  719MOL0     H97043  12.018   4.212  -1.334 -1.2342  0.1798  1.2639
  719MOL0     H97044  11.970   4.067  -1.407  1.5588 -0.5695  0.4753
  719MOL0     H97045  11.356   4.537  -0.595 -0.4051  0.7753  0.2544
  719MOL0     H97046  11.160   4.538  -0.430 -1.7285 -1.7284  0.4456
  719MOL0     H97047  10.793   4.497  -0.103  1.6568  1.3852 -0.9054
  719MOL0     H97048  10.560   4.510  -0.026  1.5757  0.9951  1.1286
  719MOL0     H97049  10.202   4.552   1.526  0.4335  0.0646  1.5808
  719MOL0     H97050  10.125   4.654   1.724  2.5294 -1.0248  0.9490
  719MOL0     H97051   9.919   5.243   1.787 -1.5818  1.2368  1.4474
  719MOL0     H97052   9.864   5.346   1.988  2.2229 -0.6945 -1.1938
  719MOL0     H97053   9.752   5.406   2.164  0.8578  0.7514  0.6076
  719MOL0     H97054   9.913   5.411   2.227  1.2132 -0.9225 -0.8850
  719MOL0     H97055   9.636   5.428   2.358  0.7307  0.7314 -0.9849
  719MOL0     H97056   9.774   5.527   2.398 -0.7315  0.0301 -0.9781
  719MOL0     H97057   9.821   5.393   2.574  3.5955 -0.8513  0.8558
  719MOL0     H97058   9.845   5.249   2.465  0.5046  1.7163 -0.4902
  719MOL0     H97059   9.600   5.216   2.477 -1.9470  1.8611 -1.0950
  719MOL0     H97060   9.678   5.183   2.628 -2.0015 -0.5971  0.4572
  719MOL0     H97061   9.399   5.509   2.714 -0.7649  0.7769 -1.6968
  719MOL0     H97062   9.853   4.973   2.194 -0.6397 -1.0361 -1.0357
  719MOL0     H97063   9.813   4.779   1.904  1.4748 -2.2987 -0.4428
  719MOL0     H97064   9.981   4.759   1.952 -0.3005  0.0731 -1.1370
  719MOL0     H97065   9.849   4.768   2.076 -0.8389 -0.4044  0.0867
  720MOL0     O97066   3.165   2.669   8.626  1.0241  0.0998  0.6284
  720MOL0     C97067   3.210   2.615   8.526  0.2159 -0.9250 -0.0680
  720MOL0     O97068   3.199   2.676   8.400  0.7016 -0.0603  0.5817
  720MOL0     C97069   3.116   2.785   8.389  0.4979  0.8767  0.4441
  720MOL0     C97070   2.983   2.777   8.423 -0.1254 -0.1998 -0.5216
  720MOL0     C97071   2.917   2.890   8.457 -0.0970 -0.6664  0.6262
  720MOL0     C97072   2.969   3.022   8.433  0.3358 -0.2019  0.1648
  720MOL0     O97073   2.878   3.125   8.437 -0.7236  0.3661 -0.0209
  720MOL0     C97074   2.774   3.123   8.341  0.1068 -0.2015  0.2266
  720MOL0     C97075   2.694   3.260   8.328 -0.5666  0.8460  0.4222
  720MOL0     C97076   2.788   3.376   8.292 -0.2502  0.0884  0.4740
  720MOL0     C97077   2.746   3.446   8.172 -0.6361 -0.1221 -1.1628
  720MOL0     C97078   2.612   3.524   8.203  0.1709 -0.6177 -0.8356
  720MOL0     C97079   2.488   3.464   8.135  0.7753 -0.4835 -0.4864
  720MOL0     C97080   2.350   3.546   8.142 -1.3337 -0.4702 -0.8691
  720MOL0     C97081   2.295   3.556   7.999  0.2949 -0.7600  0.5890
  720MOL0     N97082   2.291   3.431   7.913 -0.3546  0.0379  0.5646
  720MOL0     C97083   2.261   3.306   7.946 -0.0374  0.2936  0.3305
  720MOL0     C97084   2.286   3.220   7.835 -1.0656  0.1055 -0.2125
  720MOL0     C97085   2.258   3.072   7.833 -1.2461  0.1791 -0.5062
  720MOL0     C97086   2.111   3.046   7.791 -0.1140 -0.4712  0.2843
  720MOL0     C97087   2.084   2.901   7.771 -0.1519  0.0032 -0.1106
  720MOL0     C97088   1.938   2.885   7.747 -0.1506 -0.3197 -0.9313
  720MOL0     O97089   1.905   2.745   7.751 -0.1361 -0.3360  0.7849
  720MOL0     C97090   1.779   2.700   7.707 -0.4262  0.2660  0.4289
  720MOL0     C97091   1.666   2.775   7.701 -0.1593 -1.3917 -0.1220
  720MOL0     C97092   1.541   2.722   7.679 -0.4196 -0.1066  0.3453
  720MOL0     C97093   1.527   2.594   7.644 -0.1563 -0.0125 -0.5358
  720MOL0     C97094   1.388   2.549   7.621 -0.2719 -0.2027 -1.1356
  720MOL0     O97095   1.369   2.415   7.624 -0.6611  0.2430 -0.3689
  720MOL0     C97096   1.247   2.361   7.585  0.1966  0.3360 -1.4875
  720MOL0     C97097   1.143   2.372   7.679 -0.8649  0.0942 -0.4470
  720MOL0     C97098   1.018   2.321   7.654 -0.0509  0.0994 -0.5122
  720MOL0     C97099   0.983   2.266   7.532  0.1374  0.4969 -0.4972
  720MOL0     O97100   0.865   2.219   7.487  0.0432  0.7210 -0.8015
  720MOL0     C97101   0.762   2.193   7.585  0.9414 -0.1094 -0.3617
  720MOL0     C97102   0.650   2.104   7.522  0.6230  0.3115 -0.4515
  720MOL0     C97103   0.523   2.151   7.584  0.3033 -0.3053  0.0486
  720MOL0     C97104   0.398   2.065   7.553 -0.1362 -0.2322 -1.0320
  720MOL0     C97105   0.282   2.127   7.641  0.1339  0.3189  0.1762
  720MOL0     C97106   0.241   2.276   7.610 -0.6116  0.2875 -0.2928
  720MOL0     C97107   0.191   2.286   7.464 -0.7558  0.2527  0.0332
  720MOL0     C97108   0.076   2.209   7.429  0.1787  0.5557 -0.5060
  720MOL0    Cl97109   0.022   2.214   7.261  0.5328 -0.7997 -0.3180
  720MOL0     C97110   1.084   2.264   7.437 -0.0978  0.1995  0.2610
  720MOL0     C97111   1.216   2.306   7.464 -0.5025  0.1147  0.1576
  720MOL0     O97112   1.299   2.632   7.595  0.0338 -0.8325  0.7089
  720MOL0     C97113   1.640   2.511   7.639  0.0275  0.1722  0.3851
  720MOL0     C97114   1.770   2.563   7.670 -0.2604  0.5950  0.8397
  720MOL0     N97115   2.322   3.305   7.735  0.5170 -0.8098 -0.5769
  720MOL0     N97116   2.334   3.431   7.779  0.5372  0.0150  0.0075
  720MOL0     C97117   3.098   3.028   8.381 -0.4877  0.2723 -0.6484
  720MOL0     C97118   3.169   2.911   8.351 -0.2513  0.4494 -0.7621
  720MOL0     C97119   3.280   2.488   8.546 -1.0157  0.3499  0.7264
  720MOL0     C97120   3.258   2.420   8.670  0.5545  0.9035  0.1347
  720MOL0     C97121   3.320   2.292   8.695  0.9565 -0.7472 -0.8459
  720MOL0     C97122   3.412   2.236   8.610  0.7863  0.4900 -0.4696
  720MOL0     O97123   3.483   2.122   8.621 -0.0669 -0.2940  0.2029
  720MOL0     C97124   3.504   2.071   8.759  0.0734  0.1587 -0.1533
  720MOL0     C97125   3.628   2.132   8.821 -0.0088  0.6027 -0.6442
  720MOL0     C97126   3.766   2.099   8.770 -0.2512 -0.1527  0.5005
  720MOL0     C97127   3.874   2.147   8.871 -1.0328  0.2796  0.3568
  720MOL0     C97128   3.998   2.073   8.851  0.9532  0.1725 -0.5304
  720MOL0     C97129   4.106   2.012   8.841 -0.5779 -0.2258 -0.1968
  720MOL0     C97130   3.434   2.304   8.485  0.2269 -0.1748 -0.0161
  720MOL0     C97131   3.371   2.429   8.454  0.9150 -0.1137 -0.0851
  720MOL0     C97132   3.399   2.488   8.314  0.1043 -0.8515 -0.3130
  720MOL0     H97133   2.929   2.683   8.428  0.4406 -0.4559  1.9421
  720MOL0     H97134   2.814   2.882   8.490 -0.1878 -1.7836  0.1104
  720MOL0     H97135   2.813   3.114   8.239  0.9384  1.3667  0.3635
  720MOL0     H97136   2.710   3.036   8.346 -1.5382  0.9597  0.1426
  720MOL0     H97137   2.629   3.286   8.412 -1.6344 -0.0284 -0.1076
  720MOL0     H97138   2.628   3.254   8.241  1.4001 -1.1799 -1.0611
  720MOL0     H97139   2.883   3.338   8.254 -0.8365 -1.1172  0.1369
  720MOL0     H97140   2.803   3.439   8.380 -1.1452  0.5549  0.3078
  720MOL0     H97141   2.825   3.518   8.151  0.6499 -0.8230  0.9648
  720MOL0     H97142   2.716   3.375   8.094 -3.5612  0.5502 -0.7587
  720MOL0     H97143   2.606   3.528   8.313  1.7370  3.1867 -0.7596
  720MOL0     H97144   2.619   3.629   8.175  1.6478 -0.3227  0.4963
  720MOL0     H97145   2.516   3.442   8.032 -3.3056 -1.7598 -1.5006
  720MOL0     H97146   2.462   3.369   8.182 -1.7507  0.9712  1.3613
  720MOL0     H97147   2.366   3.647   8.179  2.6952 -0.3857 -2.3768
  720MOL0     H97148   2.290   3.485   8.210  0.7696 -0.2906  1.2991
  720MOL0     H97149   2.191   3.584   8.017  0.4801  0.2857  0.1340
  720MOL0     H97150   2.338   3.640   7.944 -1.1395 -0.1938  0.2884
  720MOL0     H97151   2.216   3.276   8.040  3.1738 -0.7861  1.6406
  720MOL0     H97152   2.324   3.014   7.769 -3.3299 -1.6052 -1.1461
  720MOL0     H97153   2.269   3.021   7.929  0.2163 -2.2221 -1.8737
  720MOL0     H97154   2.046   3.092   7.866  0.1473  0.9445 -0.3297
  720MOL0     H97155   2.088   3.064   7.686 -0.1381 -2.2003 -0.0347
  720MOL0     H97156   2.105   2.853   7.867 -0.3253 -1.6156 -0.8520
  720MOL0     H97157   2.140   2.860   7.687 -0.1074 -1.4080  0.5749
  720MOL0     H97158   1.906   2.925   7.650 -4.8304  1.1060  0.9427
  720MOL0     H97159   1.891   2.940   7.828  0.3066 -0.9708 -0.2160
  720MOL0     H97160   1.680   2.881   7.719 -1.6912 -1.4096  1.4229
  720MOL0     H97161   1.465   2.798   7.665 -2.6860 -2.1212  1.0126
  720MOL0     H97162   1.158   2.418   7.776 -0.6258  0.4490 -0.6503
  720MOL0     H97163   0.936   2.357   7.716 -0.6316 -0.5813 -0.8760
  720MOL0     H97164   0.801   2.140   7.673  0.5367 -0.5324 -0.4303
  720MOL0     H97165   0.727   2.290   7.620  1.7791 -0.0898  0.4576
  720MOL0     H97166   0.647   2.117   7.414 -1.5366 -0.9266 -0.6030
  720MOL0     H97167   0.672   2.000   7.547  1.4436 -0.8975 -5.3062
  720MOL0     H97168   0.540   2.150   7.692 -0.1744 -3.1383  0.1697
  720MOL0     H97169   0.518   2.254   7.548 -0.7892  0.0440  1.1289
  720MOL0     H97170   0.417   1.965   7.592 -0.3287  1.4374  4.1650
  720MOL0     H97171   0.368   2.064   7.448 -2.1035 -1.4662 -0.5036
  720MOL0     H97172   0.313   2.119   7.745  3.2376  2.5583 -0.4288
  720MOL0     H97173   0.191   2.068   7.623 -0.4070  1.4804 -1.1051
  720MOL0     H97174   0.160   2.312   7.674  0.8897  2.7293  0.3722
  720MOL0     H97175   0.330   2.339   7.627  0.8918 -1.5820 -0.9060
  720MOL0     H97176   0.273   2.258   7.397  0.5508  0.1829  1.6027
  720MOL0     H97177   0.166   2.391   7.447 -0.0920  1.0091  3.1486
  720MOL0     H97178   0.105   2.104   7.439 -1.3235  0.2572  1.4702
  720MOL0     H97179  -0.002   2.230   7.503  1.6950  2.0210  0.7539
  720MOL0     H97180   1.064   2.224   7.338  4.2153 -2.1236  0.1040
  720MOL0     H97181   1.297   2.301   7.392 -1.2234  1.1433 -0.7619
  720MOL0     H97182   1.628   2.407   7.610 -3.8205  0.0814  1.7543
  720MOL0     H97183   1.851   2.491   7.677  0.1497  0.6069 -2.3349
  720MOL0     H97184   3.139   3.126   8.355  1.1651 -0.0649  0.5219
  720MOL0     H97185   3.267   2.915   8.304 -0.4706  2.1771 -1.1239
  720MOL0     H97186   3.182   2.463   8.734  1.3750  2.6585 -0.0130
  720MOL0     H97187   3.293   2.248   8.791  1.0768 -2.6822 -1.6464
  720MOL0     H97188   3.503   1.961   8.758  1.3137  0.0828  1.6799
  720MOL0     H97189   3.415   2.092   8.818 -0.6378 -1.3369 -0.6475
  720MOL0     H97190   3.630   2.112   8.928 -1.1604  0.4436 -0.6371
  720MOL0     H97191   3.616   2.240   8.811  0.7034  0.8430  0.8892
  720MOL0     H97192   3.781   2.155   8.677  0.1388  1.5049  1.5162
  720MOL0     H97193   3.778   1.994   8.741 -1.4691 -0.0170 -0.5364
  720MOL0     H97194   3.880   2.256   8.856 -3.0408  0.4159  0.1610
  720MOL0     H97195   3.846   2.124   8.974  1.0771 -4.1069  0.1598
  720MOL0     H97196   4.191   1.948   8.833  1.2628  2.1313 -0.8678
  720MOL0     H97197   3.495   2.256   8.409 -0.5012  1.4300 -1.6973
  720MOL0     H97198   3.466   2.421   8.261 -0.5150 -3.1016  1.5585
  720MOL0     H97199   3.310   2.492   8.251 -2.5153  1.2124  3.1283
  720MOL0     H97200   3.428   2.591   8.333  0.4318 -1.4451  3.2325
  721MOL0     O97201   2.108   2.505   8.909  0.9353 -0.1734 -0.2309
  721MOL0     C97202   2.101   2.617   8.860 -0.2513 -0.3539 -0.4017
  721MOL0     O97203   2.011   2.707   8.895 -0.4588 -0.2680 -0.6479
  721MOL0     C97204   1.941   2.701   9.012  0.7144  0.1083 -0.0201
  721MOL0     C97205   2.000   2.766   9.118  0.6219 -0.2768 -1.0759
  721MOL0     C97206   1.926   2.766   9.237 -0.8434  1.0090  0.8513
  721MOL0     C97207   1.811   2.689   9.253 -0.7485 -0.1111 -0.7904
  721MOL0     O97208   1.759   2.685   9.386 -0.0063 -0.4466  0.0921
  721MOL0     C97209   1.619   2.705   9.398  0.9414 -0.2111  0.9179
  721MOL0     C97210   1.580   2.854   9.423  0.7166 -0.3434  0.6666
  721MOL0     C97211   1.427   2.878   9.444  0.1331 -0.3326 -0.6024
  721MOL0     C97212   1.390   2.820   9.584 -0.2550  0.2524  0.1460
  721MOL0     C97213   1.251   2.864   9.634 -0.3900  0.0846 -0.1082
  721MOL0     C97214   1.259   3.010   9.697  0.0349  0.0821  0.0566
  721MOL0     C97215   1.132   3.061   9.769 -0.2525  0.1700  1.2501
  721MOL0     C97216   1.161   3.200   9.805  0.1273 -0.9405  0.7878
  721MOL0     N97217   1.044   3.276   9.860 -0.3969 -0.1928  0.1131
  721MOL0     C97218   1.018   3.416   9.858 -0.1787  0.0922 -0.0185
  721MOL0     C97219   0.900   3.422   9.922  0.0384  0.1174  1.3465
  721MOL0     C97220   0.819   3.542   9.934 -0.3771 -0.1185  0.2650
  721MOL0     C97221   0.877   3.627  10.046 -0.2301  0.1846 -0.6054
  721MOL0     C97222   0.796   3.757  10.065  0.1510 -0.1022 -0.1843
  721MOL0     C97223   0.852   3.877   9.984 -0.5878  0.4025  0.3789
  721MOL0     O97224   0.822   4.002  10.045  0.4639 -0.1870  0.6599
  721MOL0     C97225   0.884   4.111   9.998  0.3262 -0.1869  0.1107
  721MOL0     C97226   0.860   4.229  10.069 -0.2552 -0.0979 -0.3327
  721MOL0     C97227   0.925   4.350  10.038  0.1649 -0.8013  0.0430
  721MOL0     C97228   1.031   4.347   9.937 -0.4040 -0.0307 -1.0821
  721MOL0     C97229   1.110   4.475   9.918  1.0479  0.5960 -0.8122
  721MOL0     O97230   1.061   4.594   9.960  0.4942 -0.4159  0.2504
  721MOL0     C97231   1.111   4.721   9.935  0.1340  0.0277  0.4365
  721MOL0     C97232   1.243   4.755   9.935 -0.0668  0.1038  0.0881
  721MOL0     C97233   1.283   4.878   9.889  0.0736 -0.2822 -0.6564
  721MOL0     C97234   1.194   4.985   9.873  0.4365 -0.3479  0.9095
  721MOL0     O97235   1.233   5.110   9.839  0.0283 -0.5554 -0.7685
  721MOL0     C97236   1.157   5.237   9.884 -0.3110  0.0682  0.7958
  721MOL0     C97237   1.198   5.273  10.024  0.7487  0.0312 -0.4013
  721MOL0     C97238   1.100   5.374  10.093  0.5429 -1.2904  0.6524
  721MOL0     C97239   0.973   5.299  10.147  0.0491 -0.5482  0.9577
  721MOL0     C97240   0.893   5.384  10.244  1.2081  0.8544  0.0895
  721MOL0     C97241   0.783   5.300  10.323 -0.4029  0.7683 -0.0243
  721MOL0     C97242   0.705   5.388  10.420 -0.3253  0.2298  0.7426
  721MOL0     C97243   0.596   5.317  10.487  0.5026  0.1884  0.0623
  721MOL0    Cl97244   0.492   5.434  10.574  0.2277 -0.3726 -0.2448
  721MOL0     C97245   1.054   4.955   9.876 -0.4570  0.3745 -0.4041
  721MOL0     C97246   1.013   4.819   9.909  1.0429  0.4598  1.4287
  721MOL0     O97247   1.220   4.466   9.858  0.6095  0.4017 -0.0142
  721MOL0     C97248   1.059   4.226   9.867  0.1854  0.2914 -0.0682
  721MOL0     C97249   0.977   4.113   9.893 -0.0329  0.7270  0.4000
  721MOL0     N97250   0.862   3.303   9.971 -0.0801  0.2072 -0.4599
  721MOL0     N97251   0.954   3.215   9.938  0.3933  0.3270  0.0512
  721MOL0     C97252   1.758   2.616   9.150 -1.0483  0.0546 -0.8516
  721MOL0     C97253   1.821   2.627   9.029 -0.3901  0.1436  0.3892
  721MOL0     C97254   2.186   2.641   8.734 -0.9632 -0.0935 -0.6138
  721MOL0     C97255   2.219   2.777   8.708 -0.0594 -1.0793  1.0618
  721MOL0     C97256   2.316   2.811   8.608 -0.5555 -0.2150 -0.2689
  721MOL0     C97257   2.362   2.710   8.521 -0.2929  0.0131  0.0694
  721MOL0     O97258   2.451   2.730   8.427 -0.0104 -0.0796  0.9125
  721MOL0     C97259   2.462   2.861   8.364 -0.5295  0.2026  0.1148
  721MOL0     C97260   2.535   2.837   8.233 -0.3922 -0.0173  0.0880
  721MOL0     C97261   2.459   2.746   8.154 -0.3517  0.7567  0.8743
  721MOL0     C97262   2.460   2.796   8.010 -0.7583 -0.9197 -1.0497
  721MOL0     C97263   2.403   2.707   7.914  0.4081  0.9398 -0.9026
  721MOL0     C97264   2.356   2.626   7.839 -0.0960  0.1317 -0.0890
  721MOL0     C97265   2.324   2.580   8.557  0.3643  0.5005 -0.1071
  721MOL0     C97266   2.244   2.544   8.660 -0.5329  0.3789  0.0222
  721MOL0     C97267   2.244   2.394   8.679  0.4798 -0.3962  0.4658
  721MOL0     H97268   2.088   2.828   9.112  0.6343 -0.2565 -0.6460
  721MOL0     H97269   1.975   2.812   9.323  0.7605 -0.8752  1.0180
  721MOL0     H97270   1.562   2.669   9.312  3.9297  1.3685 -1.9673
  721MOL0     H97271   1.591   2.645   9.485 -0.7015 -3.4230 -1.6121
  721MOL0     H97272   1.613   2.919   9.341 -3.1826 -0.4171 -1.2062
  721MOL0     H97273   1.635   2.877   9.515 -1.2299 -0.2357  1.8518
  721MOL0     H97274   1.366   2.820   9.374  0.4577 -2.5760  0.8873
  721MOL0     H97275   1.395   2.981   9.426 -0.9144 -1.0424 -3.4591
  721MOL0     H97276   1.383   2.711   9.580  0.5517  0.2034 -3.0224
  721MOL0     H97277   1.465   2.850   9.657  0.0931  0.3236 -0.2414
  721MOL0     H97278   1.175   2.854   9.556  0.3107 -0.7078 -0.7017
  721MOL0     H97279   1.233   2.788   9.710  0.3735 -2.0546 -1.9482
  721MOL0     H97280   1.335   3.007   9.775 -1.1254 -2.2225  1.1999
  721MOL0     H97281   1.310   3.076   9.626  3.0656 -2.1404 -0.0196
  721MOL0     H97282   1.104   2.995   9.852  0.8776 -0.6091  1.0280
  721MOL0     H97283   1.050   3.068   9.697  2.1607 -1.6163 -1.8966
  721MOL0     H97284   1.243   3.205   9.877  0.8615  2.7902 -0.0873
  721MOL0     H97285   1.202   3.248   9.715  1.6596 -2.8017  0.4253
  721MOL0     H97286   1.077   3.501   9.824  3.5060 -1.5306  1.7081
  721MOL0     H97287   0.819   3.596   9.839  1.7502 -0.9662 -0.2779
  721MOL0     H97288   0.722   3.508   9.969 -0.8039 -0.1896 -0.9639
  721MOL0     H97289   0.893   3.554  10.126  1.0275  2.6628  1.5214
  721MOL0     H97290   0.983   3.652  10.034 -0.4674  2.9936  2.1861
  721MOL0     H97291   0.794   3.788  10.170 -0.0585 -2.7936  0.6768
  721MOL0     H97292   0.695   3.742  10.028 -0.4700  2.3393  0.2898
  721MOL0     H97293   0.816   3.870   9.881  0.6704 -1.8953  0.0341
  721MOL0     H97294   0.959   3.858   9.994 -0.5613 -0.6674 -1.5313
  721MOL0     H97295   0.781   4.242  10.142  1.0107  0.2513  1.0346
  721MOL0     H97296   0.886   4.444  10.076 -0.4114 -0.3712 -1.5333
  721MOL0     H97297   1.323   4.684   9.954  0.5062  0.3056 -1.4773
  721MOL0     H97298   1.391   4.882   9.876  0.6008 -1.9884  2.2593
  721MOL0     H97299   1.190   5.322   9.824 -0.9318 -1.3110 -1.6518
  721MOL0     H97300   1.049   5.226   9.867  0.3429 -0.8737 -4.5221
  721MOL0     H97301   1.209   5.184  10.086  0.0815 -0.0196 -0.3541
  721MOL0     H97302   1.294   5.326  10.026  0.1672  1.0959 -0.0544
  721MOL0     H97303   1.149   5.426  10.175 -0.1028  0.5355 -0.0676
  721MOL0     H97304   1.050   5.436  10.018  1.8571  0.0604  0.8427
  721MOL0     H97305   1.002   5.208  10.201  0.5741 -1.9896 -1.5476
  721MOL0     H97306   0.916   5.256  10.064  1.2713 -0.3238 -0.0254
  721MOL0     H97307   0.847   5.458  10.178  1.7831  0.9348 -0.2254
  721MOL0     H97308   0.958   5.432  10.317 -0.8232  1.7857  1.3602
  721MOL0     H97309   0.718   5.254  10.248  2.2776 -1.4404 -1.1811
  721MOL0     H97310   0.828   5.216  10.376  0.8892  1.9462  0.8127
  721MOL0     H97311   0.675   5.475  10.361 -4.3309 -1.9376 -0.8405
  721MOL0     H97312   0.765   5.431  10.500 -0.5817  3.8306 -0.8374
  721MOL0     H97313   0.533   5.268  10.413 -0.3432  2.6067 -0.9063
  721MOL0     H97314   0.632   5.241  10.558  1.3452  1.6516  1.2660
  721MOL0     H97315   0.975   5.028   9.862 -0.4908  0.2099 -1.0921
  721MOL0     H97316   0.912   4.781   9.921  2.1815 -2.3578  3.0793
  721MOL0     H97317   1.138   4.224   9.794 -1.2575 -4.7799 -1.9105
  721MOL0     H97318   0.988   4.031   9.823  0.3842  0.6324  0.5741
  721MOL0     H97319   1.668   2.557   9.162  0.7596 -2.7614 -0.3144
  721MOL0     H97320   1.780   2.586   8.937 -0.5062 -0.6204  0.7657
  721MOL0     H97321   2.179   2.861   8.763 -0.8072 -1.2681  0.8206
  721MOL0     H97322   2.356   2.911   8.600 -0.6184 -0.0874  0.8177
  721MOL0     H97323   2.527   2.928   8.420  1.0707 -1.8614  0.8838
  721MOL0     H97324   2.363   2.904   8.342  0.5813  1.7766 -2.1889
  721MOL0     H97325   2.633   2.794   8.258 -1.1804 -0.5798  2.5399
  721MOL0     H97326   2.554   2.927   8.174 -0.9951 -1.6661 -2.7875
  721MOL0     H97327   2.360   2.716   8.191  0.2152 -4.7089 -1.1618
  721MOL0     H97328   2.512   2.651   8.155 -0.6711  0.5756  0.8328
  721MOL0     H97329   2.402   2.889   8.019  1.7472  0.5815  0.9612
  721MOL0     H97330   2.559   2.812   7.969 -1.9666  1.3166 -3.3744
  721MOL0     H97331   2.329   2.549   7.770 -2.0697 -0.5043  1.2950
  721MOL0     H97332   2.373   2.498   8.505  1.4525  0.1787  1.3642
  721MOL0     H97333   2.138   2.369   8.688  0.0560  1.5959  1.4860
  721MOL0     H97334   2.296   2.328   8.609  2.4171 -0.3292  1.7909
  721MOL0     H97335   2.288   2.375   8.777 -1.5364 -3.5463  0.9185
  722MOL0     O97336   2.590   1.854   4.610  0.9045  0.1800  0.0437
  722MOL0     C97337   2.528   1.747   4.639 -0.5338 -0.1613  0.0137
  722MOL0     O97338   2.567   1.650   4.734  0.1716 -0.4133 -0.3244
  722MOL0     C97339   2.661   1.698   4.829  0.1099 -0.2948  0.2011
  722MOL0     C97340   2.798   1.679   4.812  0.6915  0.3228  0.1970
  722MOL0     C97341   2.892   1.710   4.906 -0.1644 -0.6261 -0.2619
  722MOL0     C97342   2.844   1.792   5.011 -0.8188  0.2056  0.5953
  722MOL0     O97343   2.928   1.856   5.108  0.6551 -0.3333  0.0637
  722MOL0     C97344   3.064   1.873   5.086 -1.1144  0.4597  0.5671
  722MOL0     C97345   3.126   1.973   5.185 -0.7124 -0.2606  0.1759
  722MOL0     C97346   3.279   1.994   5.146 -0.8822 -0.8074 -1.1797
  722MOL0     C97347   3.377   1.879   5.162  0.5853  0.3496 -0.4624
  722MOL0     C97348   3.512   1.910   5.106 -0.3656  0.2273 -0.0191
  722MOL0     C97349   3.608   1.801   5.133 -0.1053 -0.0815  0.1953
  722MOL0     C97350   3.756   1.853   5.133 -0.2443  0.0706 -0.3185
  722MOL0     C97351   3.775   1.941   5.013 -1.0027  0.7913  0.2677
  722MOL0     N97352   3.924   1.984   4.992  0.2650  1.4110  0.4074
  722MOL0     C97353   3.976   1.978   4.861 -0.1670 -0.2824 -0.7605
  722MOL0     C97354   4.092   2.041   4.873  0.3680 -0.3325  0.5369
  722MOL0     C97355   4.175   2.073   4.756 -1.1582 -1.1204  0.2933
  722MOL0     C97356   4.304   2.138   4.801 -0.2122 -0.3849  0.6626
  722MOL0     C97357   4.412   2.162   4.694  0.6572 -0.8796  0.4754
  722MOL0     C97358   4.455   2.025   4.614 -0.3503  0.3854 -0.2676
  722MOL0     O97359   4.485   1.916   4.691  0.4009  0.0762 -1.2557
  722MOL0     C97360   4.607   1.915   4.751 -0.0729 -1.4671  0.1334
  722MOL0     C97361   4.624   1.890   4.886  0.5418  0.8295  0.1598
  722MOL0     C97362   4.748   1.845   4.943  0.3517 -1.2027  0.3966
  722MOL0     C97363   4.864   1.844   4.868  0.2691  0.3135  0.2675
  722MOL0     C97364   5.001   1.825   4.923  0.2376  0.5224  0.8347
  722MOL0     O97365   5.086   1.789   4.824  0.4541 -0.2947  0.5398
  722MOL0     C97366   5.216   1.763   4.861  0.4227  0.1193 -0.3772
  722MOL0     C97367   5.261   1.631   4.891  0.7401 -0.1814 -0.0727
  722MOL0     C97368   5.394   1.607   4.923  1.0872  0.4297 -0.6367
  722MOL0     C97369   5.490   1.711   4.908  1.4855 -0.0399  1.0242
  722MOL0     O97370   5.618   1.686   4.920 -0.6947 -0.7949 -0.1713
  722MOL0     C97371   5.684   1.575   4.847  0.1619 -0.5628 -0.0295
  722MOL0     C97372   5.835   1.584   4.835 -0.1302  0.0209 -0.6797
  722MOL0     C97373   5.889   1.652   4.947  0.7001 -0.3533  0.6810
  722MOL0     C97374   6.043   1.658   4.946 -0.2617 -1.0075  0.6406
  722MOL0     C97375   6.081   1.694   5.086  0.0698 -0.5766  0.1653
  722MOL0     C97376   6.232   1.712   5.107 -0.2195 -0.8994 -1.0650
  722MOL0     C97377   6.326   1.598   5.083 -1.4070  1.8232  0.4615
  722MOL0     C97378   6.467   1.653   5.100  0.4245  0.5882 -0.6209
  722MOL0    Cl97379   6.482   1.769   5.228 -0.3100  0.4052 -0.2418
  722MOL0     C97380   5.446   1.839   4.876 -0.2172 -0.6079 -0.0760
  722MOL0     C97381   5.310   1.866   4.852  0.3490  0.1986  0.5219
  722MOL0     O97382   5.025   1.841   5.036 -0.3883  0.2901  0.1640
  722MOL0     C97383   4.850   1.863   4.727 -0.1152  0.0941 -0.5957
  722MOL0     C97384   4.715   1.879   4.673 -0.3849 -0.2148  0.1207
  722MOL0     N97385   4.107   2.088   5.001  0.7799 -0.1564 -0.1745
  722MOL0     N97386   4.004   2.052   5.081  0.1342 -0.2026 -0.1165
  722MOL0     C97387   2.716   1.820   5.024  0.6206 -0.0755 -0.3768
  722MOL0     C97388   2.619   1.768   4.937  0.3155  1.2721 -0.7305
  722MOL0     C97389   2.409   1.719   4.549  0.2312  0.4643 -0.2520
  722MOL0     C97390   2.431   1.734   4.417  0.6635 -0.7947  0.6033
  722MOL0     C97391   2.334   1.709   4.324 -0.0643 -0.0198  0.9262
  722MOL0     C97392   2.208   1.676   4.363  0.0719  0.9386  0.8286
  722MOL0     O97393   2.108   1.636   4.277  0.2853 -0.0702 -0.1537
  722MOL0     C97394   2.124   1.654   4.138  0.9932 -0.3927  0.1331
  722MOL0     C97395   1.986   1.675   4.063 -0.1619 -0.6883 -0.1498
  722MOL0     C97396   1.916   1.545   4.047  0.2013  0.0728 -0.3004
  722MOL0     C97397   1.765   1.557   4.002  0.2776 -0.1539 -0.7395
  722MOL0     C97398   1.692   1.428   4.035  0.1867  0.0455  0.2364
  722MOL0     C97399   1.657   1.317   4.064  0.5472 -0.4180  0.4745
  722MOL0     C97400   2.180   1.673   4.500 -0.1735 -0.1300 -0.5955
  722MOL0     C97401   2.281   1.686   4.595 -0.1338 -0.2121 -0.2929
  722MOL0     C97402   2.247   1.665   4.745  0.0296 -0.2688  0.2873
  722MOL0     H97403   2.823   1.631   4.718  0.1351  1.1213 -0.3773
  722MOL0     H97404   2.996   1.705   4.877 -0.8494 -1.8526 -2.7716
  722MOL0     H97405   3.113   1.775   5.091  0.3654  1.1006 -0.5580
  722MOL0     H97406   3.083   1.914   4.986 -0.6058  0.2424  0.5700
  722MOL0     H97407   3.126   1.929   5.285  0.4856  1.8511  1.1909
  722MOL0     H97408   3.079   2.072   5.190  0.2411  0.2191 -0.0090
  722MOL0     H97409   3.313   2.076   5.210  2.4397 -0.6936 -2.8834
  722MOL0     H97410   3.277   2.018   5.039 -0.7620 -0.6783 -1.1534
  722MOL0     H97411   3.395   1.864   5.269 -0.2666  1.6584 -0.1082
  722MOL0     H97412   3.342   1.786   5.116  3.5926 -1.1266 -0.0508
  722MOL0     H97413   3.507   1.925   4.998  1.9928 -1.5482 -0.4677
  722MOL0     H97414   3.534   2.001   5.162 -2.4237 -0.3200  1.8237
  722MOL0     H97415   3.597   1.761   5.235  0.0864 -1.1778 -0.2063
  722MOL0     H97416   3.605   1.713   5.069 -0.5140  0.6401 -0.8006
  722MOL0     H97417   3.824   1.768   5.140 -1.2428 -0.9871 -2.6228
  722MOL0     H97418   3.773   1.925   5.214  0.4769  1.2281 -1.4622
  722MOL0     H97419   3.731   1.891   4.927 -0.3035 -2.5059  1.6625
  722MOL0     H97420   3.727   2.038   5.026 -1.8651  0.3036  0.8145
  722MOL0     H97421   3.934   1.927   4.775  2.9457 -2.3409 -1.2135
  722MOL0     H97422   4.206   1.978   4.711  0.2426 -0.7992  0.5353
  722MOL0     H97423   4.130   2.142   4.684  1.6899  2.5856  1.7612
  722MOL0     H97424   4.280   2.240   4.832  0.1598  1.2170 -3.6270
  722MOL0     H97425   4.344   2.076   4.882  0.5260 -2.7040 -1.3434
  722MOL0     H97426   4.502   2.214   4.727  2.3727 -0.8355 -3.6682
  722MOL0     H97427   4.368   2.227   4.617  2.1958 -0.4613 -0.0940
  722MOL0     H97428   4.542   2.043   4.550  0.1029  0.7805  0.4511
  722MOL0     H97429   4.371   2.000   4.547  1.3269 -2.4675 -1.4823
  722MOL0     H97430   4.537   1.892   4.950  1.0079  2.2957  0.7857
  722MOL0     H97431   4.751   1.831   5.050 -0.3775  3.6606  1.2657
  722MOL0     H97432   5.184   1.555   4.897 -1.4891  1.9142 -0.3696
  722MOL0     H97433   5.423   1.509   4.958  0.6098  0.6281  0.3258
  722MOL0     H97434   5.652   1.489   4.906 -2.1907  0.3737  0.1550
  722MOL0     H97435   5.635   1.569   4.749 -2.0954 -2.1539  1.1096
  722MOL0     H97436   5.882   1.489   4.810  1.1791  0.2351  0.8362
  722MOL0     H97437   5.865   1.648   4.751  5.9159 -1.1513  0.1219
  722MOL0     H97438   5.843   1.751   4.950  0.5168 -0.3464 -1.1465
  722MOL0     H97439   5.862   1.601   5.040  1.8624  1.7800  2.2892
  722MOL0     H97440   6.078   1.726   4.867 -2.8641 -0.3533 -0.0405
  722MOL0     H97441   6.082   1.557   4.940 -0.1241 -0.9723  0.9265
  722MOL0     H97442   6.042   1.623   5.160  0.3629 -1.0967 -0.1705
  722MOL0     H97443   6.034   1.791   5.104  0.2502 -0.4335 -0.1310
  722MOL0     H97444   6.259   1.797   5.044 -2.5759  1.1395  0.4848
  722MOL0     H97445   6.248   1.732   5.213  1.2534 -2.5853 -0.9082
  722MOL0     H97446   6.321   1.539   4.991 -1.7627 -1.4464  2.4139
  722MOL0     H97447   6.302   1.520   5.156  0.8059 -0.9621 -1.5576
  722MOL0     H97448   6.526   1.565   5.127  1.0935  0.8464 -1.2140
  722MOL0     H97449   6.504   1.689   5.004  3.5386  0.3818  0.3835
  722MOL0     H97450   5.529   1.910   4.880  0.5738 -1.5788  1.8529
  722MOL0     H97451   5.269   1.963   4.828  1.2196  0.9827  2.0091
  722MOL0     H97452   4.921   1.863   4.645  1.6400  0.9322  0.8428
  722MOL0     H97453   4.696   1.882   4.566 -1.7775  1.1802  0.3676
  722MOL0     H97454   2.665   1.887   5.093 -1.2693  0.2477 -1.9904
  722MOL0     H97455   2.512   1.777   4.951  0.4518  1.0080  0.6235
  722MOL0     H97456   2.531   1.746   4.379  0.2707  0.2270 -0.1466
  722MOL0     H97457   2.364   1.698   4.220  0.8966  0.9751  1.0798
  722MOL0     H97458   2.169   1.566   4.091 -1.2836 -1.3107 -0.4692
  722MOL0     H97459   2.174   1.748   4.113 -0.2637 -0.0254 -1.1924
  722MOL0     H97460   1.990   1.725   3.966 -1.3142 -1.9994 -0.8939
  722MOL0     H97461   1.923   1.726   4.136 -2.0762 -3.4200  0.2489
  722MOL0     H97462   1.901   1.496   4.144  0.3539  0.9467  0.1746
  722MOL0     H97463   1.983   1.481   3.990  0.8813  1.0842 -0.6585
  722MOL0     H97464   1.709   1.639   4.048 -0.1045 -1.2714  0.8746
  722MOL0     H97465   1.763   1.586   3.897 -0.3277  0.2191 -0.6306
  722MOL0     H97466   1.614   1.220   4.081 -3.4632  0.4825 -2.9012
  722MOL0     H97467   2.079   1.645   4.527 -0.9688  1.2827 -1.9598
  722MOL0     H97468   2.138   1.661   4.749 -0.3693 -0.7590 -4.5675
  722MOL0     H97469   2.286   1.568   4.776  0.7530 -0.6848 -1.7375
  722MOL0     H97470   2.289   1.741   4.812 -1.3811 -1.1700  2.3031
  723MOL0     O97471   5.392  10.995   1.775  0.3193  0.1356 -0.8982
  723MOL0     C97472   5.440  10.876   1.790 -0.2892 -0.1558  0.0657
  723MOL0     O97473   5.371  10.761   1.826  0.3461 -0.1431  0.8901
  723MOL0     C97474   5.239  10.775   1.825  0.7327  0.1740 -0.1057
  723MOL0     C97475   5.176  10.790   1.694 -0.4884  0.2874 -0.4219
  723MOL0     C97476   5.044  10.826   1.687 -0.8797 -0.2785 -0.8736
  723MOL0     C97477   4.954  10.807   1.797 -0.7589 -0.5597 -0.3161
  723MOL0     O97478   4.815  10.812   1.786  1.1266  0.1273  0.0012
  723MOL0     C97479   4.758  10.728   1.686 -0.1902 -0.1379 -0.9336
  723MOL0     C97480   4.624  10.770   1.614  1.0693 -0.8159 -0.2015
  723MOL0     C97481   4.521  10.847   1.690  0.7599 -0.6643 -0.5051
  723MOL0     C97482   4.559  10.998   1.670 -0.2008 -0.2710  0.0492
  723MOL0     C97483   4.459  11.094   1.732 -0.6777 -0.1869 -0.5530
  723MOL0     C97484   4.517  11.237   1.717 -0.6883 -0.4728  0.4310
  723MOL0     C97485   4.413  11.358   1.740  0.6070 -0.6277  0.0486
  723MOL0     C97486   4.350  11.355   1.883  0.3156  0.5594  0.7611
  723MOL0     N97487   4.284  11.488   1.919  0.0487 -1.0762 -0.1371
  723MOL0     C97488   4.217  11.572   1.836 -0.3895  0.9417  0.1667
  723MOL0     C97489   4.163  11.673   1.909 -0.8429  0.0446  0.1459
  723MOL0     C97490   4.098  11.791   1.843 -0.4353  0.1006 -0.0114
  723MOL0     C97491   4.028  11.886   1.949 -0.0888  0.1702 -0.4707
  723MOL0     C97492   4.115  11.953   2.058  0.1242 -0.2171 -0.6669
  723MOL0     C97493   4.253  11.997   1.998  0.6873  0.1070  0.6975
  723MOL0     O97494   4.340  12.076   2.076  0.5977 -0.3505 -0.3791
  723MOL0     C97495   4.354  12.040   2.203  0.3484  0.2993 -1.0141
  723MOL0     C97496   4.374  11.912   2.256  0.7697  0.2024 -0.0337
  723MOL0     C97497   4.378  11.902   2.400  0.4022  0.2100  0.5702
  723MOL0     C97498   4.384  12.017   2.486  0.0836 -1.0806  0.8895
  723MOL0     C97499   4.394  12.007   2.636  0.9859 -0.9343 -0.9104
  723MOL0     O97500   4.374  11.886   2.695  0.5458 -0.4394  0.3205
  723MOL0     C97501   4.351  11.881   2.825  0.1071  0.5172  0.0428
  723MOL0     C97502   4.233  11.925   2.875  0.7041  0.3907  0.2141
  723MOL0     C97503   4.208  11.914   3.011 -0.0273 -1.1328  0.0588
  723MOL0     C97504   4.298  11.876   3.101  0.1587  0.6512 -0.3038
  723MOL0     O97505   4.279  11.867   3.229 -0.1224  0.2514 -0.4725
  723MOL0     C97506   4.221  11.982   3.297  0.5415 -0.4423  1.6060
  723MOL0     C97507   4.081  11.965   3.351 -0.2315 -0.4060  0.3352
  723MOL0     C97508   4.046  12.079   3.446 -0.0100 -0.3409  0.6052
  723MOL0     C97509   3.900  12.100   3.462  0.6019 -0.1110 -0.6407
  723MOL0     C97510   3.866  12.212   3.559 -0.7809 -0.0555  0.1488
  723MOL0     C97511   3.719  12.201   3.600 -0.5948  0.0558 -0.4366
  723MOL0     C97512   3.655  12.317   3.669  0.2842 -0.3158 -0.0385
  723MOL0     C97513   3.727  12.374   3.793 -0.0137 -0.9595 -0.2848
  723MOL0    Cl97514   3.718  12.249   3.922 -0.2549  0.5239  0.3587
  723MOL0     C97515   4.416  11.829   3.050 -0.4029  0.3467 -0.6237
  723MOL0     C97516   4.450  11.829   2.913 -0.6275  0.9909 -0.1908
  723MOL0     O97517   4.400  12.111   2.704 -0.3454  0.4774  0.1372
  723MOL0     C97518   4.373  12.143   2.425  0.5427 -0.2706 -0.3886
  723MOL0     C97519   4.369  12.150   2.282 -0.1741  0.4213 -0.4486
  723MOL0     N97520   4.190  11.645   2.040  0.2777 -0.2497  0.8622
  723MOL0     N97521   4.257  11.538   2.040 -0.6905 -1.6964  0.2753
  723MOL0     C97522   5.014  10.790   1.916  0.0119 -0.3342  0.6363
  723MOL0     C97523   5.155  10.790   1.935  0.6469 -0.1193  0.6387
  723MOL0     C97524   5.585  10.858   1.768  0.1157  0.0266 -0.4325
  723MOL0     C97525   5.653  10.940   1.679 -0.8529 -0.9893  0.2697
  723MOL0     C97526   5.787  10.917   1.643 -0.2221 -0.1657 -0.1884
  723MOL0     C97527   5.853  10.806   1.691 -0.8282 -0.7111  0.0962
  723MOL0     O97528   5.986  10.784   1.658 -0.7278 -0.3050  0.8962
  723MOL0     C97529   6.040  10.836   1.533 -0.6394 -0.0323  0.3867
  723MOL0     C97530   6.130  10.730   1.463 -0.3233 -0.4781  0.2869
  723MOL0     C97531   6.223  10.776   1.361 -0.4628  0.5286 -0.3434
  723MOL0     C97532   6.322  10.680   1.295 -0.4520 -0.2713 -0.9111
  723MOL0     C97533   6.241  10.563   1.253  0.2833 -0.1545 -0.1102
  723MOL0     C97534   6.183  10.468   1.221  0.0559  0.0660 -0.7981
  723MOL0     C97535   5.793  10.729   1.784  0.0476 -0.5137  0.1029
  723MOL0     C97536   5.659  10.758   1.840  0.2195 -0.5345  0.3493
  723MOL0     C97537   5.609  10.674   1.949  0.3327  0.0509 -0.8083
  723MOL0     H97538   5.241  10.781   1.607  0.8762  1.5968  0.3946
  723MOL0     H97539   5.005  10.836   1.586 -1.2853 -1.1214 -0.8167
  723MOL0     H97540   4.836  10.711   1.611  0.9796 -1.0601  0.4354
  723MOL0     H97541   4.742  10.627   1.724  1.8844  0.5749  2.2185
  723MOL0     H97542   4.576  10.680   1.574 -0.5557  1.0955 -2.9445
  723MOL0     H97543   4.655  10.820   1.521  0.6752 -0.7306 -0.2913
  723MOL0     H97544   4.512  10.823   1.796 -3.3132 -1.0152 -0.7867
  723MOL0     H97545   4.426  10.823   1.642  0.8507 -4.1691  0.7963
  723MOL0     H97546   4.661  11.020   1.705  1.6134 -3.5453 -2.6250
  723MOL0     H97547   4.552  11.024   1.564 -0.6524 -0.6213 -0.0089
  723MOL0     H97548   4.357  11.094   1.694 -1.5705  1.4483  1.6392
  723MOL0     H97549   4.461  11.062   1.837 -1.4024 -0.5997 -0.6645
  723MOL0     H97550   4.595  11.243   1.792  0.5156  2.4172 -0.9041
  723MOL0     H97551   4.562  11.256   1.619  1.0727  1.1198  1.4718
  723MOL0     H97552   4.335  11.367   1.663  0.7186  0.3539  0.0449
  723MOL0     H97553   4.480  11.444   1.730  0.3895 -0.6252 -1.6026
  723MOL0     H97554   4.278  11.274   1.898  0.3102  0.1455 -1.1948
  723MOL0     H97555   4.429  11.333   1.955  1.9972 -0.7736 -1.3959
  723MOL0     H97556   4.218  11.570   1.727 -2.3357  2.5869  0.0710
  723MOL0     H97557   4.180  11.831   1.783  1.2512 -0.3915  1.8194
  723MOL0     H97558   4.022  11.766   1.768  0.7561  0.2692 -1.3155
  723MOL0     H97559   3.990  11.972   1.893  0.3461  0.5929 -0.1381
  723MOL0     H97560   3.943  11.838   1.997 -0.2406  0.7886 -0.1119
  723MOL0     H97561   4.131  11.885   2.142  3.8706  1.2825  0.0501
  723MOL0     H97562   4.069  12.042   2.104  2.2877 -1.2328  4.0917
  723MOL0     H97563   4.236  12.053   1.905  1.8167 -0.3381  0.2048
  723MOL0     H97564   4.293  11.900   1.969  0.0282  0.5708 -2.0634
  723MOL0     H97565   4.368  11.823   2.195  2.0765  0.8942 -1.2391
  723MOL0     H97566   4.387  11.802   2.442  5.4683 -0.5936 -1.6676
  723MOL0     H97567   4.153  11.960   2.811 -0.3254 -0.8383  0.7943
  723MOL0     H97568   4.111  11.941   3.052  0.3621 -2.7703  2.2386
  723MOL0     H97569   4.279  11.991   3.389  1.5981  0.6191  0.8489
  723MOL0     H97570   4.241  12.079   3.251  0.6481  1.0774  4.5726
  723MOL0     H97571   4.008  11.973   3.270 -0.5295  1.9356  0.7661
  723MOL0     H97572   4.079  11.862   3.386 -0.1975 -0.4431  0.2260
  723MOL0     H97573   4.080  12.066   3.550 -2.9774  0.4782  1.7988
  723MOL0     H97574   4.090  12.169   3.401  0.5281  0.3642  2.4328
  723MOL0     H97575   3.862  12.002   3.494 -0.8893  0.3521 -0.9361
  723MOL0     H97576   3.857  12.120   3.364  1.8140  3.7421 -0.5457
  723MOL0     H97577   3.881  12.311   3.515 -2.6115  1.0513  1.8331
  723MOL0     H97578   3.933  12.201   3.645 -0.7480  3.1779  0.6623
  723MOL0     H97579   3.651  12.183   3.516 -0.2153 -4.0558 -0.0641
  723MOL0     H97580   3.697  12.121   3.672 -0.5011 -1.2097 -1.7512
  723MOL0     H97581   3.552  12.291   3.696  0.0021  2.4605  2.0874
  723MOL0     H97582   3.642  12.402   3.601  1.3612 -0.8460 -0.9253
  723MOL0     H97583   3.831  12.381   3.757 -0.4661 -0.7983 -1.6099
  723MOL0     H97584   3.693  12.473   3.824 -0.4733 -1.3041  0.3443
  723MOL0     H97585   4.492  11.790   3.117 -0.6925  0.5470 -0.1706
  723MOL0     H97586   4.542  11.783   2.878 -1.5388  1.1559 -3.0378
  723MOL0     H97587   4.376  12.226   2.495  0.2207 -1.9025  1.6638
  723MOL0     H97588   4.364  12.249   2.238  0.6965 -0.3544 -2.4267
  723MOL0     H97589   4.943  10.792   1.999  1.1877  0.8608  1.6600
  723MOL0     H97590   5.195  10.785   2.036  0.9055  0.0821  0.5456
  723MOL0     H97591   5.614  11.034   1.642 -0.1621  0.5678  3.2279
  723MOL0     H97592   5.843  10.989   1.584  0.1805 -0.0064  0.3721
  723MOL0     H97593   6.101  10.920   1.566 -1.9888  1.4563 -0.7232
  723MOL0     H97594   5.963  10.874   1.465 -2.3374  0.8586  2.6726
  723MOL0     H97595   6.064  10.660   1.410 -1.5363  1.1817 -0.5088
  723MOL0     H97596   6.190  10.677   1.537  2.3762  3.9492  1.7028
  723MOL0     H97597   6.290  10.852   1.402  0.9045 -1.6972  1.8475
  723MOL0     H97598   6.162  10.798   1.273 -3.1905 -2.0293  0.7156
  723MOL0     H97599   6.361  10.720   1.201  1.8376  1.0770  0.5243
  723MOL0     H97600   6.401  10.649   1.363  0.6963 -1.5223 -2.7110
  723MOL0     H97601   6.127  10.387   1.180 -0.0425 -0.6833  0.7544
  723MOL0     H97602   5.863  10.653   1.817  1.3847  0.5835 -0.1283
  723MOL0     H97603   5.536  10.721   2.015  2.1469 -2.3274  3.2757
  723MOL0     H97604   5.577  10.575   1.915  2.6764 -2.6292  3.7445
  723MOL0     H97605   5.696  10.667   2.015 -1.3978  1.6219  1.8057
  724MOL0     O97606   8.000   7.102   5.477 -0.0648  0.2070 -0.0795
  724MOL0     C97607   8.121   7.120   5.454 -0.3619  0.2342  0.2430
  724MOL0     O97608   8.191   7.047   5.361  0.0311 -0.3341 -0.1446
  724MOL0     C97609   8.118   6.964   5.280  0.3179 -1.0875  0.1168
  724MOL0     C97610   8.083   7.014   5.159  0.3349  0.0959 -0.0810
  724MOL0     C97611   8.022   6.923   5.070  0.3493 -0.0027  0.1236
  724MOL0     C97612   7.993   6.795   5.109 -0.0589 -0.0922  0.8021
  724MOL0     O97613   7.933   6.697   5.038  0.1527 -0.0040  0.1523
  724MOL0     C97614   7.929   6.690   4.890 -0.5172  0.0797 -0.5878
  724MOL0     C97615   7.823   6.587   4.860 -0.1628  0.6465 -0.0601
  724MOL0     C97616   7.686   6.650   4.867 -0.0951  0.3285  0.2986
  724MOL0     C97617   7.575   6.545   4.871  1.6629  0.2823 -0.0740
  724MOL0     C97618   7.434   6.605   4.888 -0.1738 -0.4176 -0.4876
  724MOL0     C97619   7.387   6.652   5.025 -0.5957  0.4758  0.0014
  724MOL0     C97620   7.238   6.662   5.019  0.1211 -0.1836  0.7729
  724MOL0     C97621   7.183   6.727   5.142 -0.1251  0.3781  0.8076
  724MOL0     N97622   7.161   6.622   5.234 -0.9390 -0.1369  0.0531
  724MOL0     C97623   7.226   6.612   5.357 -0.2170 -0.3967 -0.1450
  724MOL0     C97624   7.161   6.510   5.432  0.3076 -0.6753 -0.1196
  724MOL0     C97625   7.194   6.477   5.571 -0.5045 -0.3858 -0.3200
  724MOL0     C97626   7.065   6.463   5.659 -0.8042 -0.5841 -0.6293
  724MOL0     C97627   7.118   6.443   5.808  0.0942  0.4101  0.6912
  724MOL0     C97628   7.187   6.314   5.843 -0.2341  0.9288 -0.2539
  724MOL0     O97629   7.316   6.292   5.778  0.0041 -0.6083  0.1819
  724MOL0     C97630   7.422   6.377   5.806 -0.5263  0.6348 -0.4838
  724MOL0     C97631   7.521   6.398   5.715  0.1202  0.2377 -0.1809
  724MOL0     C97632   7.624   6.488   5.732  0.0129  0.6228 -0.0770
  724MOL0     C97633   7.635   6.562   5.849  0.9949 -0.6381  0.5313
  724MOL0     C97634   7.745   6.648   5.872 -0.7504  0.5107 -0.1921
  724MOL0     O97635   7.855   6.623   5.791  0.8136 -0.7909  0.1646
  724MOL0     C97636   7.975   6.685   5.818  0.2679 -0.1508 -0.2647
  724MOL0     C97637   8.065   6.661   5.929  0.2611  0.6221 -0.0601
  724MOL0     C97638   8.194   6.717   5.933 -0.0675 -0.1282  0.9117
  724MOL0     C97639   8.242   6.795   5.829 -0.4343  0.6948 -0.3947
  724MOL0     O97640   8.369   6.850   5.822  0.0416 -0.4327 -0.8360
  724MOL0     C97641   8.381   6.970   5.899 -0.2184  0.1315  0.9712
  724MOL0     C97642   8.503   7.043   5.886  0.3818 -0.4228 -0.1209
  724MOL0     C97643   8.493   7.183   5.940  0.4152 -0.0157  0.7606
  724MOL0     C97644   8.596   7.279   5.880 -0.0058  0.1408 -0.2462
  724MOL0     C97645   8.739   7.255   5.925  0.2440  0.2780  0.2984
  724MOL0     C97646   8.765   7.274   6.080  0.1040  1.3782  0.7215
  724MOL0     C97647   8.782   7.418   6.134  0.0093  0.0706  0.0512
  724MOL0     C97648   8.922   7.473   6.099  0.2860 -0.1450 -0.1919
  724MOL0    Cl97649   9.047   7.379   6.191 -0.2541 -0.0703 -0.2772
  724MOL0     C97650   8.157   6.823   5.726 -0.6353 -0.3674  0.8013
  724MOL0     C97651   8.024   6.776   5.720  0.5598  0.6221  0.7746
  724MOL0     O97652   7.739   6.739   5.950  0.5118 -0.0434 -0.3416
  724MOL0     C97653   7.529   6.554   5.941 -0.7283 -0.4499  0.9259
  724MOL0     C97654   7.433   6.458   5.924  0.8676 -0.2228  0.3688
  724MOL0     N97655   7.068   6.458   5.349 -0.2528 -0.6554  0.1790
  724MOL0     N97656   7.062   6.536   5.246 -0.5667  0.5328  1.0288
  724MOL0     C97657   8.027   6.750   5.230 -0.0307 -0.0812 -0.7561
  724MOL0     C97658   8.099   6.835   5.312 -0.8017 -0.3695 -0.4528
  724MOL0     C97659   8.200   7.239   5.504  0.0210 -0.0549  0.6003
  724MOL0     C97660   8.134   7.350   5.531 -0.5136 -0.2565  0.8736
  724MOL0     C97661   8.196   7.464   5.587  1.3508  0.6618 -0.3369
  724MOL0     C97662   8.328   7.469   5.607  0.6900 -0.6160 -0.4870
  724MOL0     O97663   8.373   7.589   5.648  0.2580 -0.6455 -0.0634
  724MOL0     C97664   8.511   7.624   5.610  0.2128  0.0918 -0.4707
  724MOL0     C97665   8.574   7.753   5.678 -0.1789  0.1516  0.2018
  724MOL0     C97666   8.627   7.721   5.816 -0.4198 -0.2008  0.7327
  724MOL0     C97667   8.611   7.843   5.906 -0.0097  0.5047 -0.3917
  724MOL0     C97668   8.668   7.799   6.033 -0.5647  0.6974  0.1409
  724MOL0     C97669   8.737   7.747   6.119 -0.4691  0.9467  0.0103
  724MOL0     C97670   8.399   7.352   5.582  0.6637  0.0766  0.9511
  724MOL0     C97671   8.338   7.236   5.535 -0.3604 -0.0177  0.0760
  724MOL0     C97672   8.422   7.107   5.511  0.3932 -0.3546 -0.6833
  724MOL0     H97673   8.108   7.115   5.130  1.7654 -1.1315 -3.6952
  724MOL0     H97674   8.000   6.957   4.969  1.2339 -1.7000 -0.6708
  724MOL0     H97675   7.904   6.778   4.830  3.2989 -0.2029 -2.9234
  724MOL0     H97676   8.021   6.643   4.853 -1.6995 -3.3000  0.3595
  724MOL0     H97677   7.821   6.505   4.932 -0.5908  2.3630  1.9759
  724MOL0     H97678   7.840   6.542   4.762 -4.0011  1.0993 -1.1045
  724MOL0     H97679   7.677   6.714   4.779 -1.0040 -0.0177  0.1336
  724MOL0     H97680   7.685   6.715   4.954 -1.3502 -1.3786  1.6322
  724MOL0     H97681   7.579   6.487   4.778 -1.2275 -0.8633  0.3938
  724MOL0     H97682   7.593   6.476   4.954  0.0589  0.3596  0.3798
  724MOL0     H97683   7.432   6.687   4.815  1.3897 -0.0788 -0.1834
  724MOL0     H97684   7.359   6.527   4.875 -1.9307  1.2489 -0.9126
  724MOL0     H97685   7.421   6.601   5.115  1.8598  0.5222 -0.8447
  724MOL0     H97686   7.424   6.755   5.031 -0.2518  0.4212 -1.0031
  724MOL0     H97687   7.195   6.565   4.994  1.7208 -0.3026 -2.0409
  724MOL0     H97688   7.222   6.729   4.933 -0.0617  0.8609  1.5982
  724MOL0     H97689   7.250   6.807   5.176  0.0843 -0.1187  1.5717
  724MOL0     H97690   7.091   6.769   5.100 -0.6925 -3.6843 -2.7552
  724MOL0     H97691   7.305   6.679   5.389  0.1696  0.5774 -2.8323
  724MOL0     H97692   7.260   6.390   5.564 -0.6980 -0.7823  1.8612
  724MOL0     H97693   7.265   6.553   5.606  1.9096 -1.4118 -2.6273
  724MOL0     H97694   7.017   6.561   5.663  4.6226  2.4732 -1.7375
  724MOL0     H97695   7.005   6.378   5.625  0.8815 -1.8127 -0.6910
  724MOL0     H97696   7.022   6.434   5.860 -1.2519  1.8830 -1.3965
  724MOL0     H97697   7.158   6.533   5.855 -0.5508  1.0875 -0.0357
  724MOL0     H97698   7.118   6.234   5.815  0.0641 -0.4782  2.6765
  724MOL0     H97699   7.201   6.319   5.952  1.9613  1.3317 -0.5072
  724MOL0     H97700   7.523   6.343   5.622  1.5740 -0.9903  0.5392
  724MOL0     H97701   7.706   6.479   5.661  0.0619 -0.2759  0.0821
  724MOL0     H97702   8.043   6.593   6.010 -0.9038 -1.5334 -2.0672
  724MOL0     H97703   8.249   6.695   6.024  3.1032  0.9458 -0.5931
  724MOL0     H97704   8.310   7.044   5.861 -1.3171 -0.0280  2.6584
  724MOL0     H97705   8.347   6.944   5.999 -3.2512  1.0193  0.2787
  724MOL0     H97706   8.584   6.995   5.940  2.3262  1.6779 -0.9889
  724MOL0     H97707   8.525   7.050   5.779  2.1727 -0.4878  0.2249
  724MOL0     H97708   8.395   7.230   5.923  0.9622 -0.0937 -3.6843
  724MOL0     H97709   8.507   7.173   6.048  0.2211 -3.6543  0.5650
  724MOL0     H97710   8.569   7.381   5.912  0.5456 -0.5671  2.8238
  724MOL0     H97711   8.592   7.275   5.771  1.1557 -0.2608 -0.2843
  724MOL0     H97712   8.808   7.318   5.868  1.4732 -1.3016 -0.0509
  724MOL0     H97713   8.772   7.150   5.919  2.2005  0.8075  0.8997
  724MOL0     H97714   8.690   7.225   6.143  0.5111 -1.6564 -0.9966
  724MOL0     H97715   8.865   7.233   6.096  1.9232  4.9148 -0.4621
  724MOL0     H97716   8.789   7.420   6.243  0.9969  1.6033 -0.0100
  724MOL0     H97717   8.698   7.484   6.111  2.8829  3.8090 -0.6763
  724MOL0     H97718   8.954   7.469   5.995  2.7142 -1.8820  0.5162
  724MOL0     H97719   8.924   7.577   6.133 -0.0862  0.8937 -3.0675
  724MOL0     H97720   8.189   6.888   5.645 -3.3419  0.6183  0.4254
  724MOL0     H97721   7.958   6.805   5.640 -0.6414  0.6263  1.7357
  724MOL0     H97722   7.532   6.615   6.030 -0.1638  3.5976 -1.5941
  724MOL0     H97723   7.352   6.450   5.997  0.9952  0.8857  0.6409
  724MOL0     H97724   8.015   6.650   5.269  1.5082 -1.6533 -3.9003
  724MOL0     H97725   8.144   6.792   5.401 -0.2699 -4.5278 -2.5314
  724MOL0     H97726   8.032   7.357   5.494 -0.4977  1.9648  1.1130
  724MOL0     H97727   8.121   7.542   5.598  0.4381 -0.3476  0.9664
  724MOL0     H97728   8.510   7.640   5.502  2.6974 -0.3322 -0.6093
  724MOL0     H97729   8.583   7.542   5.618  0.0433  0.0697  1.1677
  724MOL0     H97730   8.489   7.822   5.688 -0.4807  0.7633 -4.4249
  724MOL0     H97731   8.661   7.784   5.620 -0.7333  0.4520 -0.4892
  724MOL0     H97732   8.728   7.680   5.815 -0.1930  0.0214  3.9937
  724MOL0     H97733   8.569   7.643   5.866  0.6833 -2.5780 -1.4660
  724MOL0     H97734   8.672   7.924   5.866 -1.2137  2.1462  0.9292
  724MOL0     H97735   8.504   7.866   5.911  0.0848  0.7754  0.7585
  724MOL0     H97736   8.795   7.707   6.200  0.9898  3.6245  0.4005
  724MOL0     H97737   8.504   7.359   5.607  0.5190  0.4655  1.4829
  724MOL0     H97738   8.524   7.129   5.543  0.1268  0.1857 -0.1987
  724MOL0     H97739   8.386   7.018   5.565  0.0938  0.0636 -0.1826
  724MOL0     H97740   8.411   7.081   5.405 -2.0164 -5.5031  0.4831
  725MOL0     O97741   0.955   7.517  10.396 -0.3988 -0.2651  0.4071
  725MOL0     C97742   0.870   7.515  10.306 -0.3490  0.4513  0.2806
  725MOL0     O97743   0.887   7.568  10.176 -0.7138 -0.0700 -0.5107
  725MOL0     C97744   1.013   7.540  10.124 -0.4579 -0.4412  0.4566
  725MOL0     C97745   1.105   7.438  10.154  0.0895 -0.8942  0.6351
  725MOL0     C97746   1.228   7.429  10.088  0.1618 -0.0926  1.0404
  725MOL0     C97747   1.266   7.525   9.992  0.6246  0.6786 -0.0134
  725MOL0     O97748   1.386   7.518   9.928  0.3025 -0.0424  0.8530
  725MOL0     C97749   1.497   7.462   9.992 -0.1639 -0.4540  0.1073
  725MOL0     C97750   1.615   7.483   9.897  0.7546 -0.2686 -0.0690
  725MOL0     C97751   1.730   7.389   9.943 -0.5980 -0.1970  0.0709
  725MOL0     C97752   1.815   7.456  10.047  0.3412 -0.3393  1.2434
  725MOL0     C97753   1.930   7.360  10.100 -0.7458  0.1175  0.9797
  725MOL0     C97754   2.036   7.328   9.996 -0.1840 -0.2258  0.1086
  725MOL0     C97755   2.161   7.251  10.052 -0.7637 -0.5825  0.1944
  725MOL0     C97756   2.260   7.191   9.943  0.3284  0.2323 -0.8403
  725MOL0     N97757   2.353   7.093   9.999  0.3033 -0.1296  0.6488
  725MOL0     C97758   2.475   7.058   9.938  0.5128  0.2305  0.1908
  725MOL0     C97759   2.512   6.949  10.006 -0.4519  0.4982 -0.6134
  725MOL0     C97760   2.652   6.886   9.985  0.8422  0.4197 -0.7402
  725MOL0     C97761   2.766   6.984   9.981  0.1682  0.0253  0.3859
  725MOL0     C97762   2.885   6.896   9.942  0.3800  1.0013  0.3077
  725MOL0     C97763   3.016   6.965   9.988 -0.0070  0.2785  0.4943
  725MOL0     O97764   3.124   6.874   9.941  0.9051  0.9444 -0.8655
  725MOL0     C97765   3.256   6.908   9.954 -1.2795  0.4010  0.2616
  725MOL0     C97766   3.344   6.799   9.970  0.1539  0.7606 -0.0781
  725MOL0     C97767   3.486   6.818   9.965  0.2049  0.3068  0.0156
  725MOL0     C97768   3.539   6.947   9.949  0.4826 -0.2768 -0.1173
  725MOL0     C97769   3.685   6.982   9.942 -0.2340 -0.0640 -0.4872
  725MOL0     O97770   3.760   6.881   9.990 -0.5489 -0.2223 -0.0970
  725MOL0     C97771   3.893   6.876   9.950 -0.4695 -0.8615 -0.8086
  725MOL0     C97772   3.931   6.807   9.840  0.0305 -0.8215  0.0953
  725MOL0     C97773   4.064   6.789   9.804  0.1551 -0.0562 -0.0702
  725MOL0     C97774   4.166   6.837   9.890 -0.0584 -0.6835  0.2101
  725MOL0     O97775   4.309   6.826   9.874  0.1338 -0.1331 -0.9579
  725MOL0     C97776   4.352   6.727   9.780  0.9175 -0.0600 -0.5102
  725MOL0     C97777   4.496   6.736   9.732  0.2366 -0.4487 -0.6363
  725MOL0     C97778   4.602   6.700   9.833  0.0468  0.5349  0.3936
  725MOL0     C97779   4.745   6.717   9.771 -0.0417  0.0924  0.2205
  725MOL0     C97780   4.841   6.667   9.870 -0.1182  0.8524  0.0226
  725MOL0     C97781   4.983   6.706   9.832 -0.4766  0.2555  0.6796
  725MOL0     C97782   5.090   6.680   9.951  0.1409 -0.1054 -0.0223
  725MOL0     C97783   5.233   6.742   9.928  0.4821 -0.2994 -0.1146
  725MOL0    Cl97784   5.291   6.701   9.763  0.2456  0.3788  0.1338
  725MOL0     C97785   4.126   6.909  10.013  0.0909  0.3779  0.3028
  725MOL0     C97786   3.991   6.919  10.044 -0.2852  0.0284  1.0689
  725MOL0     O97787   3.715   7.076   9.863  0.3205 -0.1894 -0.1810
  725MOL0     C97788   3.450   7.055   9.938 -0.2568  0.5015  0.1203
  725MOL0     C97789   3.312   7.031   9.935 -0.2222 -1.2849  0.2924
  725MOL0     N97790   2.426   6.923  10.115  0.0076 -0.1571 -0.1969
  725MOL0     N97791   2.329   7.017  10.106 -0.1217 -0.3368 -0.7193
  725MOL0     C97792   1.178   7.629   9.963 -0.3970 -0.0381 -0.0846
  725MOL0     C97793   1.054   7.629  10.023 -0.1852 -0.1267  0.0481
  725MOL0     C97794   0.729   7.466  10.327 -0.3417  0.4320 -0.2309
  725MOL0     C97795   0.628   7.490  10.231 -0.1742 -0.0397  0.5827
  725MOL0     C97796   0.499   7.444  10.242  0.3972  0.0262  0.3129
  725MOL0     C97797   0.466   7.380  10.369  0.2833 -0.1143  0.7090
  725MOL0     O97798   0.342   7.338  10.408  0.0162  0.0875  0.7380
  725MOL0     C97799   0.217   7.334  10.336 -0.9872 -0.3994  0.5503
  725MOL0     C97800   0.143   7.259  10.427  0.5595 -0.2081  0.0681
  725MOL0     C97801   0.005   7.221  10.380  0.1956 -0.7884 -0.7480
  725MOL0     C97802  -0.056   7.127  10.483 -0.5175 -0.1896 -0.1217
  725MOL0     C97803  -0.198   7.135  10.491  0.3229 -0.2849 -0.6692
  725MOL0     C97804  -0.319   7.157  10.483  0.6669 -0.3863 -0.2118
  725MOL0     C97805   0.567   7.353  10.471 -0.5232  0.4150  0.1718
  725MOL0     C97806   0.697   7.389  10.447  0.0236  0.1066  0.0265
  725MOL0     C97807   0.796   7.353  10.551 -0.1955 -0.1902  0.1462
  725MOL0     H97808   1.083   7.362  10.228 -1.9804 -0.2102  0.7954
  725MOL0     H97809   1.284   7.336  10.095 -0.2120 -0.3006  1.3029
  725MOL0     H97810   1.523   7.511  10.087 -1.2452 -3.5574  2.1544
  725MOL0     H97811   1.473   7.361  10.026 -0.7202  0.1294  1.5483
  725MOL0     H97812   1.649   7.586   9.910 -2.9969  1.0473  0.4752
  725MOL0     H97813   1.583   7.448   9.798  0.1165 -1.5285  0.5559
  725MOL0     H97814   1.781   7.354   9.853 -1.8018  0.0367 -0.7338
  725MOL0     H97815   1.680   7.299   9.979 -1.8255 -0.7464 -2.7185
  725MOL0     H97816   1.856   7.543   9.995 -3.6477  2.5908  2.5278
  725MOL0     H97817   1.755   7.491  10.132 -3.5060 -1.5283 -0.7618
  725MOL0     H97818   1.961   7.412  10.191 -2.4211 -2.3098  3.1014
  725MOL0     H97819   1.908   7.261  10.140  3.2723 -0.4610  2.1704
  725MOL0     H97820   1.991   7.260   9.924  0.2467  1.0187 -1.3801
  725MOL0     H97821   2.060   7.421   9.943 -3.1764  0.9172  0.5234
  725MOL0     H97822   2.143   7.180  10.134  2.0126  1.6818  3.0469
  725MOL0     H97823   2.232   7.322  10.096  5.2902 -6.4048  1.6568
  725MOL0     H97824   2.199   7.131   9.874 -1.1098  1.6816 -0.8753
  725MOL0     H97825   2.308   7.266   9.880 -0.9936  0.9299 -1.0619
  725MOL0     H97826   2.535   7.101   9.858  0.2276  0.2751  0.0002
  725MOL0     H97827   2.671   6.803  10.053 -0.4561 -1.7074 -2.7803
  725MOL0     H97828   2.644   6.836   9.888  0.3474  0.2771 -0.6298
  725MOL0     H97829   2.750   7.065   9.909  1.0970 -1.0522 -1.1008
  725MOL0     H97830   2.782   7.039  10.074  1.2302  0.6753 -0.1622
  725MOL0     H97831   2.894   6.874   9.835  2.9369  3.4231 -0.0906
  725MOL0     H97832   2.876   6.796   9.985  2.6321  0.9777  0.8235
  725MOL0     H97833   3.017   6.981  10.096 -1.5059 -2.7396  1.0654
  725MOL0     H97834   3.018   7.062   9.937 -0.5661  1.3884  2.4510
  725MOL0     H97835   3.290   6.705   9.983 -3.1321  2.1707 -2.1661
  725MOL0     H97836   3.555   6.735   9.974  0.8670  0.6898 -1.2717
  725MOL0     H97837   3.853   6.762   9.779 -1.0096 -0.8503  1.3926
  725MOL0     H97838   4.082   6.739   9.710  2.0617 -1.7043  1.0946
  725MOL0     H97839   4.333   6.633   9.832  0.7376  1.1866  1.8003
  725MOL0     H97840   4.298   6.726   9.685  3.2656 -1.6501 -1.9179
  725MOL0     H97841   4.521   6.669   9.650  1.1413 -2.7597  1.4023
  725MOL0     H97842   4.512   6.837   9.693  0.5051  0.4789  1.7281
  725MOL0     H97843   4.590   6.772   9.915 -0.5413 -0.6254  1.3651
  725MOL0     H97844   4.588   6.596   9.864 -0.2147  0.2142 -0.7663
  725MOL0     H97845   4.758   6.824   9.754 -1.3399  0.1193 -0.8135
  725MOL0     H97846   4.757   6.666   9.675 -2.6533 -1.8420  0.8010
  725MOL0     H97847   4.834   6.557   9.872  0.0149  0.7858 -1.7492
  725MOL0     H97848   4.814   6.696   9.972  0.2348 -1.5168  0.8732
  725MOL0     H97849   5.023   6.665   9.739 -1.7055  2.8462 -1.1113
  725MOL0     H97850   4.980   6.811   9.801 -2.0981 -0.4833 -2.0051
  725MOL0     H97851   5.114   6.574   9.957  1.2722  0.0379 -1.4349
  725MOL0     H97852   5.053   6.704  10.051 -0.4551 -2.8366  0.5067
  725MOL0     H97853   5.225   6.851   9.932  0.2516 -0.2798 -0.9811
  725MOL0     H97854   5.304   6.698   9.999  2.3153  0.9345 -1.1264
  725MOL0     H97855   4.196   6.953  10.084  1.4584 -2.0075  0.5299
  725MOL0     H97856   3.963   6.973  10.133 -0.6197  0.0941  0.9285
  725MOL0     H97857   3.492   7.155   9.943  0.1023  0.2887  2.8797
  725MOL0     H97858   3.251   7.115   9.904  0.8116 -1.7168 -3.3457
  725MOL0     H97859   1.213   7.693   9.883  0.4702  0.8532  0.9832
  725MOL0     H97860   0.978   7.701   9.994 -1.0211 -0.7095  0.7536
  725MOL0     H97861   0.644   7.530  10.131  2.0666  3.2767  2.0873
  725MOL0     H97862   0.430   7.464  10.159 -1.3738 -1.7273  1.2827
  725MOL0     H97863   0.239   7.296  10.235 -0.6439  1.6008 -0.1693
  725MOL0     H97864   0.167   7.430  10.326 -0.6112 -0.4031 -2.2262
  725MOL0     H97865   0.131   7.325  10.513  0.0886  1.4393 -1.2292
  725MOL0     H97866   0.200   7.170  10.456  2.4298  1.0728  0.5065
  725MOL0     H97867   0.025   7.179  10.281  4.8227  0.9659 -0.7693
  725MOL0     H97868  -0.065   7.304  10.367  0.1385 -1.0091 -2.0427
  725MOL0     H97869  -0.043   7.028  10.438 -1.3153  0.8888 -2.8866
  725MOL0     H97870  -0.016   7.142  10.584  0.1545  1.7605 -0.6316
  725MOL0     H97871  -0.422   7.184  10.496  0.3995 -1.5613  0.3011
  725MOL0     H97872   0.548   7.291  10.557  2.1948 -0.8460 -0.0562
  725MOL0     H97873   0.750   7.296  10.633 -2.1703 -1.8656 -2.0141
  725MOL0     H97874   0.880   7.305  10.501  0.8277  2.1731 -0.5822
  725MOL0     H97875   0.831   7.439  10.611 -0.3576 -1.5155  2.2537
  726MOL0     O97876   4.785   4.672   3.930 -0.5251  0.5391  0.8610
  726MOL0     C97877   4.790   4.550   3.943  0.5558  1.5501 -0.3661
  726MOL0     O97878   4.875   4.482   4.016  0.2897  0.3715 -0.4709
  726MOL0     C97879   4.971   4.549   4.079  0.5993 -0.1673  0.1068
  726MOL0     C97880   4.969   4.562   4.214  0.5591  0.4943 -0.1675
  726MOL0     C97881   5.069   4.635   4.278 -0.1116 -0.9851 -0.3954
  726MOL0     C97882   5.164   4.706   4.207  1.0637  1.2057 -0.4192
  726MOL0     O97883   5.272   4.780   4.263  0.3849 -0.2697  0.0864
  726MOL0     C97884   5.342   4.727   4.379 -0.5692  0.7624  0.3673
  726MOL0     C97885   5.416   4.849   4.430 -0.2618 -0.8848 -0.3012
  726MOL0     C97886   5.546   4.883   4.354  0.3981  0.0098 -0.3684
  726MOL0     C97887   5.653   4.771   4.368 -0.0058 -0.5855  0.8988
  726MOL0     C97888   5.790   4.833   4.333 -0.9516  0.8758  0.4642
  726MOL0     C97889   5.883   4.719   4.277  0.6406  0.0677 -0.3498
  726MOL0     C97890   6.000   4.780   4.214 -0.1991  0.4429  0.1342
  726MOL0     C97891   5.975   4.796   4.063  0.0600  0.3271 -0.3791
  726MOL0     N97892   6.099   4.860   4.009  0.1043 -0.0508  0.9666
  726MOL0     C97893   6.199   4.808   3.934  0.6973  0.6985 -0.4963
  726MOL0     C97894   6.270   4.914   3.899  1.1982 -0.8099 -0.0820
  726MOL0     C97895   6.396   4.913   3.823  0.9414  0.0952 -0.4660
  726MOL0     C97896   6.507   4.813   3.853 -0.2442  0.6731 -0.9087
  726MOL0     C97897   6.630   4.847   3.770  0.0910  0.0962  0.3487
  726MOL0     C97898   6.747   4.749   3.794 -0.0940 -0.0585  0.4110
  726MOL0     O97899   6.687   4.622   3.770 -0.4054  0.7041 -0.1856
  726MOL0     C97900   6.760   4.536   3.689  0.8711 -0.5827  0.1841
  726MOL0     C97901   6.860   4.457   3.737 -0.1432 -1.2896  0.9275
  726MOL0     C97902   6.932   4.364   3.663 -0.0652 -0.0596  0.4550
  726MOL0     C97903   6.897   4.345   3.537  0.1182  0.7241  1.1748
  726MOL0     C97904   6.983   4.253   3.453  0.8326 -0.3604 -0.1174
  726MOL0     O97905   6.946   4.247   3.321 -0.4023  0.4399  0.6135
  726MOL0     C97906   7.041   4.184   3.236  0.1165  0.6311 -0.5840
  726MOL0     C97907   7.119   4.265   3.155 -0.6637 -0.0721 -0.1019
  726MOL0     C97908   7.218   4.216   3.077 -0.0348  1.0184  0.4479
  726MOL0     C97909   7.225   4.073   3.049 -0.7768 -0.4625 -0.0385
  726MOL0     O97910   7.333   4.038   2.969  0.3788 -0.0632  0.0772
  726MOL0     C97911   7.384   3.907   2.983  0.2479  0.4612 -0.1880
  726MOL0     C97912   7.506   3.908   2.901 -0.4086 -0.0702 -0.0060
  726MOL0     C97913   7.585   3.773   2.890 -0.0303  0.1422  0.0261
  726MOL0     C97914   7.729   3.787   2.845 -0.2274 -0.2068  0.1143
  726MOL0     C97915   7.824   3.676   2.863 -0.6425 -0.8255  0.4949
  726MOL0     C97916   7.763   3.547   2.815  0.0559 -0.3580 -0.1211
  726MOL0     C97917   7.872   3.435   2.793 -0.0078  0.0241  0.7977
  726MOL0     C97918   7.839   3.296   2.720 -0.2702 -0.0861  0.2753
  726MOL0    Cl97919   7.972   3.174   2.723 -0.1690  0.1156 -0.0145
  726MOL0     C97920   7.137   3.985   3.113 -0.5333 -0.1382  0.0445
  726MOL0     C97921   7.043   4.046   3.204 -0.5106  0.2423  0.2238
  726MOL0     O97922   7.085   4.210   3.501 -0.2920  0.5328  0.7494
  726MOL0     C97923   6.791   4.423   3.484 -0.1961 -0.1957  0.9982
  726MOL0     C97924   6.728   4.530   3.559  0.5368  1.2175 -1.0790
  726MOL0     N97925   6.210   5.030   3.952 -0.5764  0.0757 -0.2847
  726MOL0     N97926   6.118   4.994   4.021  0.1230 -0.1516  0.8926
  726MOL0     C97927   5.167   4.696   4.065 -0.4428  0.7294  0.1465
  726MOL0     C97928   5.079   4.612   4.001 -0.3111  0.6630 -0.1401
  726MOL0     C97929   4.698   4.459   3.872 -0.4098  0.4550 -0.0010
  726MOL0     C97930   4.672   4.515   3.746  0.3779  0.0280  1.0553
  726MOL0     C97931   4.592   4.437   3.659  0.6904  1.0710 -0.3097
  726MOL0     C97932   4.544   4.313   3.703  0.0976 -0.6407 -0.1433
  726MOL0     O97933   4.466   4.223   3.638 -0.1148  0.1136 -0.0627
  726MOL0     C97934   4.394   4.251   3.516  0.4519  0.7470  0.4434
  726MOL0     C97935   4.293   4.364   3.535  0.8428 -0.2865  0.7156
  726MOL0     C97936   4.194   4.383   3.417  0.1418  0.6638  0.3105
  726MOL0     C97937   4.085   4.280   3.398  0.1662 -0.3624 -1.6278
  726MOL0     C97938   4.111   4.140   3.363  0.5621  0.0787  1.1833
  726MOL0     C97939   4.128   4.029   3.316 -0.1870 -0.0728  0.5932
  726MOL0     C97940   4.578   4.263   3.827 -0.3460 -0.2936 -0.8257
  726MOL0     C97941   4.653   4.335   3.921 -0.2741  0.0199 -0.0367
  726MOL0     C97942   4.666   4.284   4.058 -0.0026  0.0935 -0.4181
  726MOL0     H97943   4.889   4.522   4.276  1.4504 -1.5274 -0.2600
  726MOL0     H97944   5.067   4.637   4.387 -0.3678 -0.5162 -0.4075
  726MOL0     H97945   5.262   4.699   4.448  0.7300 -0.9086  1.2668
  726MOL0     H97946   5.415   4.647   4.372 -0.3599  1.0109 -0.3530
  726MOL0     H97947   5.432   4.838   4.537  0.1574  0.7409 -0.1643
  726MOL0     H97948   5.351   4.935   4.418  0.3137 -0.5293 -0.9553
  726MOL0     H97949   5.595   4.975   4.385  2.7383  0.7660 -5.2604
  726MOL0     H97950   5.521   4.902   4.249 -0.8727  1.9341  0.2460
  726MOL0     H97951   5.649   4.725   4.467  1.3826  0.6779  1.5910
  726MOL0     H97952   5.645   4.685   4.301 -2.1637  1.9222 -2.3701
  726MOL0     H97953   5.784   4.926   4.275 -1.6198  1.0240  0.7572
  726MOL0     H97954   5.841   4.872   4.421  1.7315 -3.9147  1.3198
  726MOL0     H97955   5.916   4.662   4.365 -0.5367  0.7290  0.5533
  726MOL0     H97956   5.832   4.644   4.217 -1.8131 -1.0653  2.8771
  726MOL0     H97957   6.083   4.710   4.219  1.3734  2.2867  0.7747
  726MOL0     H97958   6.028   4.874   4.262 -0.7116  0.9875 -0.5998
  726MOL0     H97959   5.964   4.698   4.015  2.1398 -0.4544  0.6018
  726MOL0     H97960   5.892   4.859   4.031 -1.2622 -0.5490  1.1582
  726MOL0     H97961   6.221   4.703   3.943  1.3688  0.8780  0.0099
  726MOL0     H97962   6.360   4.888   3.723  4.2449 -0.3128 -1.6848
  726MOL0     H97963   6.421   5.019   3.825 -1.8611  0.9386 -3.1815
  726MOL0     H97964   6.534   4.816   3.959 -1.0231  0.7091 -0.7090
  726MOL0     H97965   6.472   4.711   3.837 -0.5044  0.9422 -2.0990
  726MOL0     H97966   6.671   4.946   3.792 -1.3427  1.3729 -2.2139
  726MOL0     H97967   6.604   4.845   3.664 -1.4571 -1.0760  0.7212
  726MOL0     H97968   6.793   4.747   3.893  0.7435 -1.2051  0.0297
  726MOL0     H97969   6.824   4.773   3.719  2.0853 -1.3128  2.1260
  726MOL0     H97970   6.893   4.478   3.839  1.5635 -1.6066  0.4852
  726MOL0     H97971   7.014   4.310   3.710 -0.1447 -1.1009 -0.5655
  726MOL0     H97972   7.121   4.372   3.174  0.7890 -0.3796  1.7769
  726MOL0     H97973   7.296   4.278   3.035  1.3901 -2.1004 -1.9554
  726MOL0     H97974   7.409   3.878   3.086  0.8067 -4.0088 -1.3710
  726MOL0     H97975   7.308   3.836   2.950  1.3345 -0.8232 -0.0200
  726MOL0     H97976   7.477   3.941   2.801 -0.3161  0.8557  0.2673
  726MOL0     H97977   7.579   3.982   2.933 -1.0158  1.2550 -1.5549
  726MOL0     H97978   7.580   3.720   2.986 -0.6544  2.4623  1.3484
  726MOL0     H97979   7.533   3.711   2.816  0.6824 -1.8303  1.1147
  726MOL0     H97980   7.784   3.872   2.886  0.0271  0.1167 -0.8840
  726MOL0     H97981   7.731   3.812   2.739 -1.2335  4.2897  0.9735
  726MOL0     H97982   7.856   3.666   2.967 -2.5823  2.3626  1.5583
  726MOL0     H97983   7.913   3.695   2.803 -1.2482  1.4947  0.2227
  726MOL0     H97984   7.695   3.506   2.889 -0.1479 -2.2368 -1.2745
  726MOL0     H97985   7.706   3.558   2.722 -0.9362 -1.2461  0.3721
  726MOL0     H97986   7.893   3.393   2.892  0.3217  2.4163  1.8110
  726MOL0     H97987   7.960   3.476   2.743 -1.5403  1.7537 -0.6165
  726MOL0     H97988   7.760   3.255   2.782 -0.6397 -0.3033 -0.3386
  726MOL0     H97989   7.814   3.316   2.616  2.6512 -2.2848 -0.9887
  726MOL0     H97990   7.157   3.881   3.088  1.1282  0.7926 -3.0428
  726MOL0     H97991   6.964   3.981   3.239 -0.6032 -1.6710 -3.1803
  726MOL0     H97992   6.759   4.403   3.383 -1.3888  0.9922  1.1045
  726MOL0     H97993   6.638   4.579   3.522 -1.6680 -1.0560  0.8807
  726MOL0     H97994   5.243   4.757   4.018  1.8917 -2.3404 -0.3963
  726MOL0     H97995   5.071   4.600   3.894 -0.2036  3.0410 -0.4825
  726MOL0     H97996   4.716   4.611   3.722  1.5842 -1.1216 -1.7528
  726MOL0     H97997   4.580   4.476   3.558 -2.7254 -1.2743 -0.9735
  726MOL0     H97998   4.331   4.163   3.503  2.6683 -1.0157  1.0129
  726MOL0     H97999   4.467   4.275   3.438  2.0404 -2.8757  0.6277
  726MOL0     H98000   4.330   4.465   3.559  0.0942 -0.1006  1.1080
  726MOL0     H98001   4.240   4.338   3.627  1.1630  2.5432  1.8081
  726MOL0     H98002   4.239   4.387   3.317  1.2148 -3.1069  0.4887
  726MOL0     H98003   4.150   4.481   3.440 -1.2311  0.6088 -1.7942
  726MOL0     H98004   4.024   4.279   3.488  2.1268  0.9807 -0.1960
  726MOL0     H98005   4.022   4.319   3.318  0.4429  0.5818 -1.3978
  726MOL0     H98006   4.155   3.936   3.271 -2.8344 -0.0586 -1.1840
  726MOL0     H98007   4.543   4.163   3.849  0.8186 -0.3181  1.1239
  726MOL0     H98008   4.641   4.179   4.070  1.4607 -0.4052 -1.5056
  726MOL0     H98009   4.773   4.287   4.081  0.5006  1.1662 -2.6898
  726MOL0     H98010   4.605   4.351   4.121  0.1861 -2.6306  2.9836
  727MOL0     O98011   7.656   4.794   7.007 -0.0529 -0.5253 -0.2749
  727MOL0     C98012   7.614   4.811   6.895 -0.1633 -0.2523  1.8875
  727MOL0     O98013   7.594   4.711   6.802 -0.1811 -0.1443 -0.5280
  727MOL0     C98014   7.593   4.570   6.831 -0.7198 -0.0769  0.1000
  727MOL0     C98015   7.515   4.495   6.737  0.0117 -0.5739  0.4419
  727MOL0     C98016   7.486   4.363   6.764  0.0497 -0.3341 -0.7707
  727MOL0     C98017   7.550   4.297   6.868  0.4743 -0.0067  0.2500
  727MOL0     O98018   7.521   4.165   6.894 -0.6166  0.5609  0.9098
  727MOL0     C98019   7.614   4.081   6.951  0.4043 -0.0353  0.7889
  727MOL0     C98020   7.566   3.935   6.916 -0.0615 -0.3797 -0.9751
  727MOL0     C98021   7.619   3.836   7.027 -0.0497 -0.7905 -0.1413
  727MOL0     C98022   7.772   3.837   7.033 -0.3322  0.2108  0.4916
  727MOL0     C98023   7.835   3.786   6.897  0.1389  0.2675  0.2733
  727MOL0     C98024   7.991   3.792   6.889  0.8177 -0.2502  0.1505
  727MOL0     C98025   8.060   3.702   6.986 -0.4900  0.2867  0.2365
  727MOL0     C98026   8.212   3.733   6.990 -0.0816 -0.0254 -0.1034
  727MOL0     N98027   8.273   3.648   7.091 -0.8263  0.6027 -0.7741
  727MOL0     C98028   8.396   3.673   7.155  0.1740  0.3342  0.4462
  727MOL0     C98029   8.408   3.594   7.259 -0.4647  0.1274 -0.7252
  727MOL0     C98030   8.509   3.604   7.366 -0.2761 -0.0429 -0.7782
  727MOL0     C98031   8.469   3.534   7.497 -0.3605 -0.0164 -0.0560
  727MOL0     C98032   8.567   3.568   7.612 -0.0111  0.2220 -0.8066
  727MOL0     C98033   8.539   3.492   7.745  0.2965 -0.1319 -0.5099
  727MOL0     O98034   8.590   3.356   7.735 -0.1016  0.3410  0.8123
  727MOL0     C98035   8.726   3.325   7.747 -0.1811 -0.1563  0.1042
  727MOL0     C98036   8.753   3.188   7.746  0.4507  0.2995  0.2089
  727MOL0     C98037   8.877   3.142   7.789  1.4800 -0.7608  0.0211
  727MOL0     C98038   8.982   3.228   7.823 -1.0819 -1.0568  0.5132
  727MOL0     C98039   9.122   3.180   7.827 -0.3315 -0.0291  0.4682
  727MOL0     O98040   9.227   3.276   7.856  0.5860 -0.5034  0.4093
  727MOL0     C98041   9.360   3.238   7.872  0.0703 -0.4930 -0.2235
  727MOL0     C98042   9.427   3.117   7.861 -0.7537  0.2122 -0.6864
  727MOL0     C98043   9.564   3.105   7.883 -0.4591  0.4557 -0.6225
  727MOL0     C98044   9.633   3.214   7.937  0.4274  0.9357 -0.2640
  727MOL0     O98045   9.767   3.211   7.989  0.4254 -0.1785 -0.7410
  727MOL0     C98046   9.833   3.086   7.958 -0.5267 -0.2283  0.1601
  727MOL0     C98047   9.983   3.114   7.982  0.8186  1.0525  0.7805
  727MOL0     C98048  10.008   3.172   8.123 -0.1191  0.0446  0.5975
  727MOL0     C98049  10.154   3.162   8.153 -0.4589 -0.0291  0.4731
  727MOL0     C98050  10.187   3.242   8.270  0.8659 -0.5138  0.9172
  727MOL0     C98051  10.331   3.227   8.305 -0.1495  0.3180 -0.3572
  727MOL0     C98052  10.377   3.338   8.391  0.8159  0.3725 -0.0799
  727MOL0     C98053  10.510   3.311   8.458  0.2757 -0.5997  0.0004
  727MOL0    Cl98054  10.564   3.467   8.520  0.3609  0.0948 -0.5868
  727MOL0     C98055   9.564   3.335   7.948  0.3348 -0.8199  0.1560
  727MOL0     C98056   9.430   3.343   7.910 -0.0031  0.5996  0.7439
  727MOL0     O98057   9.142   3.059   7.793 -0.1816 -0.4545  0.6625
  727MOL0     C98058   8.950   3.364   7.830 -0.7405  0.1409 -0.1844
  727MOL0     C98059   8.824   3.412   7.791 -0.5924 -0.4451  0.4520
  727MOL0     N98060   8.297   3.514   7.257 -0.2332 -0.5164 -0.1822
  727MOL0     N98061   8.220   3.547   7.168  0.9866  0.3473 -0.0217
  727MOL0     C98062   7.624   4.376   6.960 -0.4323 -0.7676  0.4838
  727MOL0     C98063   7.645   4.514   6.944 -1.0855  0.4974 -0.3810
  727MOL0     C98064   7.595   4.955   6.844  0.1741  0.2774  0.8712
  727MOL0     C98065   7.512   4.975   6.735  0.0152 -0.3166 -0.0307
  727MOL0     C98066   7.494   5.101   6.681 -0.0565 -0.1335 -1.1140
  727MOL0     C98067   7.584   5.200   6.715  0.1084  1.0424  0.4505
  727MOL0     O98068   7.590   5.316   6.655 -0.2166 -0.1033  0.0471
  727MOL0     C98069   7.643   5.313   6.519 -0.6077  0.3201 -0.3982
  727MOL0     C98070   7.687   5.451   6.477 -0.1682 -0.1955 -0.6481
  727MOL0     C98071   7.763   5.438   6.344  0.2967 -0.1758  0.2493
  727MOL0     C98072   7.907   5.376   6.354 -0.0200  0.8903 -0.2255
  727MOL0     C98073   7.963   5.345   6.224  0.4773  0.6851  0.3635
  727MOL0     C98074   7.993   5.310   6.109 -0.4900 -0.2569  0.5088
  727MOL0     C98075   7.658   5.182   6.839 -0.3814  0.1593 -0.0875
  727MOL0     C98076   7.662   5.063   6.905 -0.3129 -0.3753  0.3548
  727MOL0     C98077   7.744   5.064   7.032 -0.5276 -0.4003 -0.8221
  727MOL0     H98078   7.490   4.547   6.645  1.9664 -0.7091 -0.2121
  727MOL0     H98079   7.424   4.313   6.691 -1.2013 -0.2705  0.2166
  727MOL0     H98080   7.716   4.098   6.913  0.2806  1.3953  1.0590
  727MOL0     H98081   7.615   4.096   7.059  1.5581 -0.9603  0.9316
  727MOL0     H98082   7.597   3.913   6.813  1.3293 -0.3398 -0.5875
  727MOL0     H98083   7.458   3.927   6.930 -0.0028 -0.4747 -0.5658
  727MOL0     H98084   7.598   3.730   7.016  1.3503 -1.1923  0.9078
  727MOL0     H98085   7.582   3.871   7.124  0.9164 -2.4503  0.8652
  727MOL0     H98086   7.821   3.932   7.055  0.3216  0.1740 -0.7156
  727MOL0     H98087   7.802   3.760   7.104  2.2176 -1.4161 -2.1555
  727MOL0     H98088   7.814   3.679   6.890  4.3939 -1.0144  3.2633
  727MOL0     H98089   7.802   3.842   6.809 -2.4188  0.3009  1.1559
  727MOL0     H98090   8.030   3.750   6.795  2.7699  0.9378  0.3684
  727MOL0     H98091   8.022   3.896   6.899 -1.5334  0.7191 -1.7032
  727MOL0     H98092   8.038   3.598   6.961 -2.7128  0.8421 -0.3901
  727MOL0     H98093   8.021   3.718   7.087 -0.3424 -3.3870  1.0130
  727MOL0     H98094   8.249   3.709   6.890  1.6049  1.1754  0.2025
  727MOL0     H98095   8.225   3.840   7.004  1.5853  0.4707 -4.0886
  727MOL0     H98096   8.467   3.749   7.123 -1.1125  1.0094 -0.9381
  727MOL0     H98097   8.593   3.559   7.312 -2.6702 -1.3773 -3.6862
  727MOL0     H98098   8.543   3.706   7.383  0.3890 -0.1126 -1.6096
  727MOL0     H98099   8.367   3.565   7.519  0.2242  1.9264  0.0943
  727MOL0     H98100   8.469   3.427   7.473  2.9492 -0.1430 -0.0716
  727MOL0     H98101   8.565   3.676   7.626  1.2370  0.1419  0.1240
  727MOL0     H98102   8.665   3.531   7.579  0.4761  1.4319 -0.7539
  727MOL0     H98103   8.431   3.481   7.758  0.2165 -1.1857 -1.7210
  727MOL0     H98104   8.580   3.532   7.837  4.1026 -2.1607 -1.1360
  727MOL0     H98105   8.674   3.122   7.711  0.3868 -0.1495  1.1692
  727MOL0     H98106   8.881   3.034   7.779  0.6214 -0.7849 -0.1022
  727MOL0     H98107   9.379   3.023   7.838  3.6501 -2.0584 -1.6340
  727MOL0     H98108   9.618   3.011   7.871 -0.6082  0.1540  0.8439
  727MOL0     H98109   9.800   3.011   8.031  0.8391 -0.8700  0.1606
  727MOL0     H98110   9.811   3.058   7.854 -1.2731 -1.0366  0.5259
  727MOL0     H98111  10.039   3.020   7.976 -0.0207  0.3360  2.8430
  727MOL0     H98112  10.017   3.188   7.910 -1.8832  1.1074 -0.5861
  727MOL0     H98113   9.976   3.276   8.115  1.5881  0.4713 -3.0721
  727MOL0     H98114   9.952   3.117   8.200 -1.1507 -0.8293 -0.7232
  727MOL0     H98115  10.220   3.197   8.074 -0.7685  3.6078  1.6516
  727MOL0     H98116  10.173   3.057   8.181 -1.4212 -0.0361  1.1575
  727MOL0     H98117  10.120   3.224   8.355 -1.3582  3.2329  0.2116
  727MOL0     H98118  10.159   3.345   8.246 -0.8314 -1.1421  0.0140
  727MOL0     H98119  10.360   3.132   8.350 -1.9268 -0.1632 -0.1407
  727MOL0     H98120  10.390   3.233   8.213  1.6687 -0.9811  0.6455
  727MOL0     H98121  10.306   3.353   8.473 -1.5157 -0.5417 -1.8156
  727MOL0     H98122  10.373   3.433   8.337 -3.0618  0.0036 -0.7504
  727MOL0     H98123  10.498   3.245   8.544 -1.0029 -0.8925 -0.3902
  727MOL0     H98124  10.581   3.267   8.388  0.0563 -1.3983  0.2719
  727MOL0     H98125   9.617   3.411   8.005  0.5801 -2.1914  1.8111
  727MOL0     H98126   9.378   3.438   7.921 -0.7598  0.3546 -0.5670
  727MOL0     H98127   9.027   3.430   7.867  1.7748 -2.1351 -1.0478
  727MOL0     H98128   8.804   3.514   7.823 -1.3657 -0.5962  0.4739
  727MOL0     H98129   7.651   4.343   7.060  0.8579  1.6644  1.0300
  727MOL0     H98130   7.699   4.561   7.024  0.4292  0.6432 -1.4516
  727MOL0     H98131   7.462   4.894   6.683 -2.0689  1.4255 -0.8962
  727MOL0     H98132   7.435   5.121   6.593 -3.8821 -4.0749  0.1794
  727MOL0     H98133   7.560   5.284   6.453 -1.7697 -0.8150  1.4936
  727MOL0     H98134   7.721   5.238   6.505 -0.9748 -0.0619 -0.4430
  727MOL0     H98135   7.746   5.479   6.565 -1.0427 -0.7006  0.1126
  727MOL0     H98136   7.620   5.534   6.453  2.5026  2.1913 -0.3978
  727MOL0     H98137   7.785   5.540   6.310  1.3510 -1.4258 -3.3145
  727MOL0     H98138   7.702   5.391   6.267 -0.3350 -1.4892  1.4944
  727MOL0     H98139   7.962   5.450   6.413 -0.7762  0.9344  0.4518
  727MOL0     H98140   7.908   5.290   6.422  1.7989  2.6235  2.1103
  727MOL0     H98141   8.017   5.287   6.007 -0.2889 -0.1891  0.5396
  727MOL0     H98142   7.719   5.267   6.870  0.1565 -0.0365 -0.5875
  727MOL0     H98143   7.820   4.986   7.022 -0.9040 -1.2240  1.9439
  727MOL0     H98144   7.793   5.161   7.042 -0.4742 -0.2957 -1.9235
  727MOL0     H98145   7.686   5.057   7.124 -0.8886  1.6901 -0.8532
  728MOL0     O98146  10.685   6.912   5.791  0.2595  0.2184 -0.3613
  728MOL0     C98147  10.618   7.002   5.836 -0.2530  0.4028 -0.2614
  728MOL0     O98148  10.506   7.059   5.771 -0.1886  0.0578  0.2705
  728MOL0     C98149  10.477   7.045   5.645  0.4781  0.4925 -0.0680
  728MOL0     C98150  10.446   6.923   5.589  0.6364 -0.7357  0.2634
  728MOL0     C98151  10.414   6.918   5.454 -0.4425  0.0026 -0.3443
  728MOL0     C98152  10.408   7.033   5.370  0.3127 -0.3364 -1.2775
  728MOL0     O98153  10.379   7.026   5.235  0.8097 -0.8276 -0.4255
  728MOL0     C98154  10.281   6.927   5.202 -1.7324  0.2217  0.3679
  728MOL0     C98155  10.207   6.959   5.067 -0.2220 -0.5495  0.3629
  728MOL0     C98156  10.075   6.886   5.057  0.9251  0.4056  0.4924
  728MOL0     C98157  10.001   6.946   4.934  0.0593  0.4272 -0.0743
  728MOL0     C98158   9.883   6.852   4.895  0.6575  0.3228  0.9024
  728MOL0     C98159   9.788   6.928   4.797  0.0897 -0.8547  0.2118
  728MOL0     C98160   9.687   7.026   4.859  0.3372 -0.8221 -0.9674
  728MOL0     C98161   9.610   7.084   4.739 -0.0999  0.8281  0.2857
  728MOL0     N98162   9.515   7.193   4.772 -0.8060  0.1970  0.8312
  728MOL0     C98163   9.391   7.183   4.835  0.4199  0.3342  0.4503
  728MOL0     C98164   9.332   7.306   4.799  0.4627  0.2189  0.0204
  728MOL0     C98165   9.194   7.351   4.820  0.4375  0.4845 -0.1052
  728MOL0     C98166   9.182   7.426   4.957 -1.5534  0.6619 -0.0544
  728MOL0     C98167   9.041   7.475   4.984 -0.0842  0.3323 -0.3386
  728MOL0     C98168   8.986   7.585   4.900 -0.0938 -0.3570 -0.5021
  728MOL0     O98169   8.853   7.605   4.940  0.3117  0.8909 -0.4632
  728MOL0     C98170   8.784   7.715   4.888 -0.2323  0.2180 -0.1756
  728MOL0     C98171   8.806   7.766   4.762 -0.7654  0.0585  0.3506
  728MOL0     C98172   8.729   7.873   4.717 -1.0467 -0.2198  0.3747
  728MOL0     C98173   8.626   7.934   4.786  0.0778  1.0238  0.5651
  728MOL0     C98174   8.556   8.035   4.719 -0.2078  0.5704 -0.0572
  728MOL0     O98175   8.573   8.032   4.581 -0.8613 -0.6039 -0.3322
  728MOL0     C98176   8.499   8.102   4.496  1.4448 -0.0979  0.8813
  728MOL0     C98177   8.550   8.135   4.371 -0.3320 -0.8844  0.7020
  728MOL0     C98178   8.480   8.220   4.283 -1.0581 -0.4548 -0.2514
  728MOL0     C98179   8.352   8.269   4.304  0.1034  0.0077  0.2794
  728MOL0     O98180   8.260   8.330   4.218 -0.6390  0.2231  0.1998
  728MOL0     C98181   8.311   8.426   4.126 -0.3158  1.3381 -0.1315
  728MOL0     C98182   8.221   8.540   4.095 -0.2035 -0.7469 -0.4108
  728MOL0     C98183   8.240   8.636   4.213  0.3614  0.2315 -0.1876
  728MOL0     C98184   8.133   8.741   4.226 -0.0856  0.0709  1.2700
  728MOL0     C98185   8.149   8.870   4.142  0.2143 -0.7136 -0.0511
  728MOL0     C98186   8.026   8.956   4.130  0.4550 -0.3928 -0.2192
  728MOL0     C98187   8.024   9.064   4.022  0.0359  0.2173 -0.0142
  728MOL0     C98188   7.902   9.156   4.043 -0.3483 -0.3496  0.0301
  728MOL0    Cl98189   7.738   9.086   4.042  0.2420  0.3034 -0.2307
  728MOL0     C98190   8.290   8.219   4.426  0.1487  0.4072 -0.0327
  728MOL0     C98191   8.362   8.137   4.515 -0.7393 -0.0362  0.0300
  728MOL0     O98192   8.485   8.118   4.780  0.1459  0.4318  0.4373
  728MOL0     C98193   8.607   7.881   4.910 -0.8452  0.5801  0.1712
  728MOL0     C98194   8.681   7.774   4.961 -0.7894  0.1719  0.0771
  728MOL0     N98195   9.426   7.382   4.728  0.8122 -0.4961 -0.4040
  728MOL0     N98196   9.521   7.312   4.707  0.6156 -0.5223 -0.7269
  728MOL0     C98197  10.446   7.151   5.426  0.6050  1.1393  0.6771
  728MOL0     C98198  10.483   7.161   5.560  0.1899  0.8666 -1.0185
  728MOL0     C98199  10.669   7.070   5.960 -0.7327  0.7435  0.0275
  728MOL0     C98200  10.584   7.149   6.038  0.0697  0.0991 -1.1423
  728MOL0     C98201  10.632   7.193   6.168 -0.2452  0.0972 -0.1225
  728MOL0     C98202  10.775   7.198   6.193  0.0411 -0.2526 -0.0731
  728MOL0     O98203  10.825   7.257   6.309 -0.3896  0.2851 -0.0304
  728MOL0     C98204  10.746   7.349   6.379  0.4208 -0.0729 -0.7089
  728MOL0     C98205  10.797   7.438   6.488  0.6202 -0.3468  0.8149
  728MOL0     C98206  10.936   7.389   6.534  0.1769  0.1657 -0.7581
  728MOL0     C98207  10.982   7.471   6.655  0.4643  0.3590  0.2981
  728MOL0     C98208  11.125   7.443   6.680 -0.3601 -0.1877 -0.9107
  728MOL0     C98209  11.241   7.413   6.708  0.1582 -1.1254  0.7496
  728MOL0     C98210  10.860   7.147   6.097  0.1035  0.1867  0.0368
  728MOL0     C98211  10.813   7.068   5.987  0.4604  0.4794  0.5500
  728MOL0     C98212  10.923   7.007   5.898 -0.2469 -0.0744  0.1139
  728MOL0     H98213  10.446   6.837   5.655 -0.9315 -1.4567 -0.6249
  728MOL0     H98214  10.393   6.821   5.411  1.2044 -0.8015  0.5675
  728MOL0     H98215  10.335   6.834   5.182 -1.6990  0.2148  0.4893
  728MOL0     H98216  10.210   6.905   5.283 -1.6322 -3.0617 -0.2946
  728MOL0     H98217  10.277   6.948   4.984  2.1437  2.9026  1.6774
  728MOL0     H98218  10.180   7.065   5.067 -3.6511 -1.2131  3.5015
  728MOL0     H98219  10.007   6.895   5.142 -1.6428 -0.9642 -1.2654
  728MOL0     H98220  10.099   6.779   5.055  0.4707  0.2848 -2.1495
  728MOL0     H98221   9.950   7.038   4.962 -1.7223 -0.2838 -0.8230
  728MOL0     H98222  10.071   6.968   4.853  2.3528 -0.9547  1.3911
  728MOL0     H98223   9.916   6.759   4.846 -3.4758 -0.5918 -0.5043
  728MOL0     H98224   9.827   6.822   4.984 -1.9111  1.0360 -0.3861
  728MOL0     H98225   9.833   6.990   4.718 -1.9818  2.8033  1.6239
  728MOL0     H98226   9.722   6.848   4.763 -0.9210 -0.9437  2.2678
  728MOL0     H98227   9.738   7.100   4.921  0.8421 -2.0186  0.0996
  728MOL0     H98228   9.628   6.962   4.926 -1.2064  4.1595  3.0800
  728MOL0     H98229   9.684   7.114   4.663  1.3757 -2.0584  0.4385
  728MOL0     H98230   9.551   7.004   4.694 -2.2978  1.9531  1.0387
  728MOL0     H98231   9.351   7.099   4.890  0.5063 -0.3874 -0.5513
  728MOL0     H98232   9.159   7.416   4.740  0.5160  4.0917  2.5400
  728MOL0     H98233   9.135   7.259   4.814  1.0152  0.0665  0.4864
  728MOL0     H98234   9.196   7.353   5.037 -0.1996  1.7616  0.7524
  728MOL0     H98235   9.250   7.511   4.957  0.5489 -0.8710  2.4671
  728MOL0     H98236   9.038   7.487   5.093 -0.3870  2.1132 -0.5088
  728MOL0     H98237   8.983   7.382   4.983  3.2806 -2.0662  2.2920
  728MOL0     H98238   8.983   7.559   4.793  1.9533  2.3661 -1.3453
  728MOL0     H98239   9.043   7.678   4.908 -1.3280  0.3863  0.0166
  728MOL0     H98240   8.879   7.727   4.692  0.3822  1.9958  0.3941
  728MOL0     H98241   8.768   7.914   4.624 -0.1925  2.2752  1.7426
  728MOL0     H98242   8.652   8.113   4.339  0.2963  1.6786  0.7540
  728MOL0     H98243   8.527   8.249   4.190  0.2154 -0.5667  0.3329
  728MOL0     H98244   8.405   8.462   4.170  0.7324 -2.6512  1.3716
  728MOL0     H98245   8.334   8.372   4.033 -1.2328 -1.2978  1.0701
  728MOL0     H98246   8.258   8.586   4.003  1.2865 -1.7285 -0.3181
  728MOL0     H98247   8.122   8.494   4.096 -0.1576 -0.9031 -1.5575
  728MOL0     H98248   8.263   8.576   4.302  1.7941 -2.2826 -2.1009
  728MOL0     H98249   8.328   8.694   4.184 -1.2175  1.7678 -2.2433
  728MOL0     H98250   8.140   8.779   4.328 -0.5622 -1.0722  1.7493
  728MOL0     H98251   8.034   8.695   4.214 -0.4314  1.3231 -1.4111
  728MOL0     H98252   8.171   8.844   4.038 -0.1142  1.3893 -0.6823
  728MOL0     H98253   8.220   8.940   4.185 -0.2816 -0.4485  0.3539
  728MOL0     H98254   7.947   8.886   4.100  0.0800 -0.8238  1.6721
  728MOL0     H98255   8.000   9.001   4.226 -2.2244 -0.0160 -1.0272
  728MOL0     H98256   8.029   9.013   3.925 -0.0450  0.6819 -0.2676
  728MOL0     H98257   8.113   9.127   4.032  0.2709  0.3982 -2.6132
  728MOL0     H98258   7.914   9.202   4.142 -1.2173  0.3472 -0.1793
  728MOL0     H98259   7.902   9.239   3.972  4.2385 -0.8460 -0.8753
  728MOL0     H98260   8.189   8.249   4.455  0.0640  2.1772 -1.9188
  728MOL0     H98261   8.307   8.100   4.601  0.1173 -0.6704  0.3198
  728MOL0     H98262   8.536   7.933   4.974 -0.8638 -0.3959  0.9685
  728MOL0     H98263   8.676   7.737   5.062 -4.0222  1.3624  0.4708
  728MOL0     H98264  10.434   7.241   5.367 -3.0986  1.3030  1.4103
  728MOL0     H98265  10.492   7.259   5.607 -0.9948  0.3245  0.4254
  728MOL0     H98266  10.480   7.159   6.010  0.0179  0.9829 -0.6645
  728MOL0     H98267  10.553   7.231   6.231 -2.3210  0.6256 -2.8338
  728MOL0     H98268  10.663   7.292   6.422 -0.3940  0.8756 -1.0028
  728MOL0     H98269  10.703   7.416   6.303 -0.0633 -0.1754 -0.5269
  728MOL0     H98270  10.723   7.441   6.568  0.1471 -3.9736  0.6615
  728MOL0     H98271  10.808   7.536   6.440 -2.0165 -0.6432 -0.5090
  728MOL0     H98272  11.021   7.408   6.468  0.8122  3.3938  0.7975
  728MOL0     H98273  10.935   7.279   6.543 -1.5243  0.1587 -0.7592
  728MOL0     H98274  10.972   7.579   6.637  1.1917  0.0931 -2.0779
  728MOL0     H98275  10.931   7.449   6.749 -1.4371  4.1464  0.3532
  728MOL0     H98276  11.340   7.387   6.742  1.2638  1.3605 -0.3147
  728MOL0     H98277  10.962   7.169   6.127 -0.0327  2.0215 -0.7203
  728MOL0     H98278  10.940   7.071   5.811  1.8972  0.3370  0.7729
  728MOL0     H98279  11.023   7.003   5.944  0.1545 -0.4416 -0.7672
  728MOL0     H98280  10.912   6.902   5.871  1.5846 -0.8920  2.2309
  729MOL0     O98281  10.943  10.470   2.950 -0.4934  0.5054 -0.0948
  729MOL0     C98282  10.827  10.468   2.998  0.5216 -1.3269  0.2722
  729MOL0     O98283  10.781  10.396   3.106  1.0352 -0.5759  0.7816
  729MOL0     C98284  10.872  10.324   3.177 -0.7437  1.3050  0.3030
  729MOL0     C98285  10.835  10.186   3.168  0.6429 -0.2744 -0.2184
  729MOL0     C98286  10.913  10.094   3.237 -0.3134  0.2851  0.3372
  729MOL0     C98287  11.029  10.138   3.297 -0.8469  0.0859  0.2771
  729MOL0     O98288  11.102  10.039   3.348 -0.8420  0.6480 -0.8920
  729MOL0     C98289  11.168  10.073   3.473  0.0122  0.3787 -0.4401
  729MOL0     C98290  11.235   9.949   3.526 -0.1065  0.2143 -0.7088
  729MOL0     C98291  11.269   9.944   3.675  0.1200 -0.3712 -0.4796
  729MOL0     C98292  11.149   9.920   3.769 -0.3385 -0.7067  0.6581
  729MOL0     C98293  11.195   9.900   3.916 -0.1526 -0.5735  0.5663
  729MOL0     C98294  11.080   9.879   4.010  0.1364 -0.3671  0.2862
  729MOL0     C98295  11.131   9.819   4.143  0.2237 -0.5772  0.5557
  729MOL0     C98296  11.033   9.857   4.248  0.7752 -0.2695  0.4798
  729MOL0     N98297  11.040   9.773   4.375  0.1264  0.3341  0.0246
  729MOL0     C98298  11.111   9.658   4.396 -1.0469  0.5395 -0.5093
  729MOL0     C98299  11.110   9.640   4.529  0.0197 -0.6199 -0.6819
  729MOL0     C98300  11.171   9.519   4.586  0.1655  0.6139  0.4042
  729MOL0     C98301  11.333   9.541   4.580 -0.2122 -1.0257  0.0757
  729MOL0     C98302  11.413   9.432   4.657  0.5338  0.3352 -0.4407
  729MOL0     C98303  11.445   9.326   4.555 -0.0727  1.0712  0.1642
  729MOL0     O98304  11.480   9.196   4.605  0.2110  0.4123 -0.1017
  729MOL0     C98305  11.555   9.106   4.530 -0.2178 -0.0965 -0.4135
  729MOL0     C98306  11.561   8.976   4.581  0.0009 -0.2251  1.1663
  729MOL0     C98307  11.625   8.869   4.516 -0.5269  1.1764 -0.4324
  729MOL0     C98308  11.680   8.885   4.391 -0.0694 -0.0414 -0.0770
  729MOL0     C98309  11.733   8.773   4.320 -0.6658  0.3410  0.2500
  729MOL0     O98310  11.701   8.638   4.362  0.1571  0.0243 -0.1519
  729MOL0     C98311  11.790   8.538   4.309  0.0255 -0.5587  0.8304
  729MOL0     C98312  11.926   8.543   4.305 -0.3280  0.2604 -0.1487
  729MOL0     C98313  11.999   8.461   4.216  0.3438  0.9123 -0.3097
  729MOL0     C98314  11.936   8.350   4.159  0.2911 -0.2300  0.1132
  729MOL0     O98315  12.009   8.265   4.076  0.8982 -0.4050  0.3796
  729MOL0     C98316  11.940   8.163   3.994  0.0067 -0.4912 -0.5229
  729MOL0     C98317  11.903   8.053   4.090  0.5309  0.2190  0.5368
  729MOL0     C98318  11.886   7.918   4.022  0.5203 -0.5398  0.3714
  729MOL0     C98319  11.772   7.848   4.105 -0.1731  0.7169  0.0408
  729MOL0     C98320  11.745   7.704   4.059  0.0283  0.7718  0.0197
  729MOL0     C98321  11.646   7.692   3.934  1.4312 -0.1306 -0.2701
  729MOL0     C98322  11.711   7.680   3.801  0.0871  0.2743  0.2037
  729MOL0     C98323  11.611   7.705   3.684 -0.5015  0.0570 -0.1651
  729MOL0    Cl98324  11.481   7.591   3.685 -0.1495  0.5372  0.2501
  729MOL0     C98325  11.792   8.345   4.164 -0.1413  0.3000 -0.7355
  729MOL0     C98326  11.727   8.444   4.228 -0.1102  0.1463  0.2880
  729MOL0     O98327  11.801   8.803   4.226  0.3093 -0.0564 -0.2670
  729MOL0     C98328  11.681   9.020   4.337 -0.2539 -0.0380 -0.4139
  729MOL0     C98329  11.621   9.128   4.408 -0.2548  0.4302 -0.5958
  729MOL0     N98330  11.029   9.738   4.587  0.2071  0.1848 -0.2225
  729MOL0     N98331  10.994   9.824   4.491  0.3403  0.6366 -0.8717
  729MOL0     C98332  11.073  10.271   3.302  0.1030  1.8340 -0.5169
  729MOL0     C98333  10.991  10.364   3.240  0.1539 -0.1150  0.1520
  729MOL0     C98334  10.725  10.557   2.921  1.1131  0.4149  0.3141
  729MOL0     C98335  10.587  10.518   2.929  0.0875  0.1139 -0.6438
  729MOL0     C98336  10.488  10.569   2.839  0.4479  0.6728  0.3534
  729MOL0     C98337  10.521  10.669   2.747 -0.6348 -0.5458 -0.7308
  729MOL0     O98338  10.409  10.715   2.684 -0.0181  0.0449  0.6153
  729MOL0     C98339  10.424  10.815   2.574 -0.0760  0.4040  0.1090
  729MOL0     C98340  10.483  10.740   2.455 -0.4979  0.4911  0.2550
  729MOL0     C98341  10.470  10.813   2.320  0.6549 -0.5593 -0.6291
  729MOL0     C98342  10.571  10.762   2.212 -0.6294  0.1052  0.4665
  729MOL0     C98343  10.510  10.762   2.082  0.8884 -0.2952  0.2821
  729MOL0     C98344  10.439  10.776   1.983 -0.2880 -0.3308 -0.5223
  729MOL0     C98345  10.648  10.718   2.751 -0.3603 -0.7846 -0.0445
  729MOL0     C98346  10.753  10.662   2.820  0.6742 -0.8299  0.8602
  729MOL0     C98347  10.891  10.721   2.796  0.9740 -0.6409 -0.0164
  729MOL0     H98348  10.747  10.156   3.112  0.4079  0.7459 -0.4326
  729MOL0     H98349  10.885   9.989   3.227  0.2504  0.1683 -0.0256
  729MOL0     H98350  11.248  10.146   3.459  1.9739 -1.1202  2.0999
  729MOL0     H98351  11.096  10.108   3.547 -0.9970  2.6304 -2.3412
  729MOL0     H98352  11.334   9.946   3.479  0.2868 -0.3612  0.1254
  729MOL0     H98353  11.186   9.855   3.499 -0.6217 -0.3897  2.0151
  729MOL0     H98354  11.309  10.041   3.704 -2.2687 -0.3555  3.6740
  729MOL0     H98355  11.350   9.872   3.691  1.6975  1.7870  2.3360
  729MOL0     H98356  11.074   9.998   3.750 -0.2187 -1.2110 -2.2952
  729MOL0     H98357  11.090   9.838   3.728 -0.6099  0.1307 -0.6854
  729MOL0     H98358  11.265   9.816   3.914  1.9276  0.9400 -4.2241
  729MOL0     H98359  11.262   9.981   3.946 -0.1847 -0.6194  0.7661
  729MOL0     H98360  11.030   9.974   4.028  2.0173  1.3010 -2.5555
  729MOL0     H98361  11.004   9.811   3.970 -1.2593  0.2141  1.8634
  729MOL0     H98362  11.224   9.865   4.176 -0.9224  0.8681  1.9117
  729MOL0     H98363  11.142   9.710   4.135 -1.9167 -0.7344 -1.4533
  729MOL0     H98364  11.057   9.957   4.286  3.5459 -0.1881 -1.2662
  729MOL0     H98365  10.930   9.867   4.211  0.9689  2.2575  0.4183
  729MOL0     H98366  11.167   9.599   4.325 -1.9788  0.0888 -0.8774
  729MOL0     H98367  11.132   9.500   4.687  2.7454 -0.5790  1.2790
  729MOL0     H98368  11.136   9.430   4.533 -2.9469  2.1980 -0.4298
  729MOL0     H98369  11.359   9.551   4.474 -0.1297  3.2534  0.3416
  729MOL0     H98370  11.341   9.644   4.615 -0.7989 -0.5398 -1.1504
  729MOL0     H98371  11.343   9.403   4.736  1.1606  2.0009  0.7908
  729MOL0     H98372  11.506   9.471   4.700  1.9577 -0.4428 -2.6323
  729MOL0     H98373  11.524   9.372   4.495  1.1973 -0.6651  0.4253
  729MOL0     H98374  11.355   9.316   4.493  0.4887 -2.0786 -0.2996
  729MOL0     H98375  11.499   8.950   4.666 -1.8658  1.0998  0.2649
  729MOL0     H98376  11.628   8.769   4.557 -1.7527  1.3935  0.2280
  729MOL0     H98377  11.966   8.627   4.362 -1.2421  0.2687  0.5166
  729MOL0     H98378  12.107   8.465   4.206  0.4546 -1.3288 -0.6103
  729MOL0     H98379  11.846   8.199   3.950  1.3473  1.9311 -1.5634
  729MOL0     H98380  11.998   8.129   3.908  1.0890  1.0798 -0.4438
  729MOL0     H98381  11.976   8.034   4.169  0.4465 -1.0366  0.3311
  729MOL0     H98382  11.809   8.086   4.136 -1.5511  1.5679 -4.0299
  729MOL0     H98383  11.854   7.930   3.918 -1.4636 -1.8814  0.7651
  729MOL0     H98384  11.976   7.855   4.021 -1.1459 -3.1494  1.3432
  729MOL0     H98385  11.678   7.901   4.090 -0.0338  0.4616 -2.0911
  729MOL0     H98386  11.798   7.859   4.210 -0.1204  0.6444  0.0360
  729MOL0     H98387  11.703   7.641   4.138 -2.2318  1.4725 -0.5369
  729MOL0     H98388  11.834   7.656   4.018 -0.3310  0.8268 -0.8510
  729MOL0     H98389  11.582   7.606   3.954  0.0126  0.9120 -0.1490
  729MOL0     H98390  11.578   7.778   3.932 -1.8531 -2.4846 -3.9318
  729MOL0     H98391  11.747   7.580   3.776 -3.1707 -0.2157 -3.6470
  729MOL0     H98392  11.796   7.749   3.795  1.1785 -1.1549 -3.5397
  729MOL0     H98393  11.570   7.805   3.695 -0.8245 -0.2089  1.2750
  729MOL0     H98394  11.666   7.698   3.590  3.1990  0.6384  1.7667
  729MOL0     H98395  11.731   8.277   4.107  1.9402 -0.5650 -2.0554
  729MOL0     H98396  11.619   8.458   4.226 -0.3332 -1.2169  1.2925
  729MOL0     H98397  11.743   9.035   4.249  0.0533  1.2035 -0.0068
  729MOL0     H98398  11.608   9.229   4.370  3.0146  1.2786  0.2126
  729MOL0     H98399  11.161  10.299   3.360  2.2798 -1.3285 -1.9998
  729MOL0     H98400  11.014  10.467   3.219 -1.1162  0.1638  0.0203
  729MOL0     H98401  10.562  10.433   2.992  2.1825  1.7817  2.7415
  729MOL0     H98402  10.389  10.526   2.849  0.7814 -0.5817 -1.3663
  729MOL0     H98403  10.501  10.886   2.605  0.2951 -0.0058  0.1428
  729MOL0     H98404  10.326  10.855   2.548 -0.0577 -0.8741 -2.3328
  729MOL0     H98405  10.429  10.646   2.444 -0.4582  0.7994 -4.4308
  729MOL0     H98406  10.589  10.720   2.471 -0.1755  0.7346 -1.4350
  729MOL0     H98407  10.502  10.916   2.337 -0.9866 -0.0563 -0.4376
  729MOL0     H98408  10.368  10.813   2.279 -1.7483  0.3383  4.5282
  729MOL0     H98409  10.658  10.827   2.207 -1.7814  1.5991 -2.0534
  729MOL0     H98410  10.600  10.660   2.240  0.7966 -0.6435 -3.1450
  729MOL0     H98411  10.381  10.828   1.910 -0.5184  2.2660  1.3469
  729MOL0     H98412  10.673  10.802   2.687  0.3057 -0.5284  0.5396
  729MOL0     H98413  10.943  10.741   2.890 -0.0250  0.0833  0.3894
  729MOL0     H98414  10.961  10.654   2.744  1.7539  1.4382 -1.8203
  729MOL0     H98415  10.883  10.820   2.751  2.7202 -0.7054 -0.5641
  730MOL0     O98416   5.187   3.668  10.177  0.2726 -1.0506 -0.2572
  730MOL0     C98417   5.077   3.701  10.221  0.7391  0.5844 -0.4923
  730MOL0     O98418   5.055   3.786  10.327 -0.0654  0.1339  0.2376
  730MOL0     C98419   5.147   3.803  10.428 -0.6132  1.2055 -0.6346
  730MOL0     C98420   5.267   3.876  10.397 -0.8863  0.4781 -0.0671
  730MOL0     C98421   5.353   3.912  10.500 -0.3601  0.7494  0.2788
  730MOL0     C98422   5.329   3.868  10.625  0.4212  0.7879  0.5050
  730MOL0     O98423   5.422   3.888  10.719 -0.2128  0.3896 -0.5983
  730MOL0     C98424   5.382   3.921  10.854  0.5184  0.3986  0.2853
  730MOL0     C98425   5.497   3.994  10.920 -0.1157  0.0368 -0.1422
  730MOL0     C98426   5.495   4.028  11.070  0.6384 -0.4111 -0.1025
  730MOL0     C98427   5.542   3.909  11.153  0.0049  0.0703 -0.9444
  730MOL0     C98428   5.534   3.926  11.307 -0.3849 -0.1128 -0.3010
  730MOL0     C98429   5.550   3.783  11.377  0.7512 -0.4478  0.1990
  730MOL0     C98430   5.552   3.779  11.531 -0.2751  0.4240 -0.4066
  730MOL0     C98431   5.567   3.630  11.572 -0.6565 -0.1742 -0.8156
  730MOL0     N98432   5.439   3.557  11.583 -0.3217 -0.5751  0.5980
  730MOL0     C98433   5.389   3.510  11.706 -0.2738 -0.2718 -0.3192
  730MOL0     C98434   5.302   3.421  11.659 -1.0005  1.0875 -0.3987
  730MOL0     C98435   5.251   3.305  11.756  0.7986 -0.0489 -1.4686
  730MOL0     C98436   5.092   3.295  11.750  0.2655 -0.4174  0.1226
  730MOL0     C98437   5.044   3.222  11.880 -1.0124  0.7892 -0.1248
  730MOL0     C98438   4.893   3.220  11.897  0.3437 -0.7146  0.2098
  730MOL0     O98439   4.841   3.161  11.774  0.1513 -0.0101 -0.3350
  730MOL0     C98440   4.710   3.182  11.728  0.7064  0.1990 -0.0219
  730MOL0     C98441   4.688   3.177  11.585  0.4272  0.1411  0.6523
  730MOL0     C98442   4.552   3.205  11.537  0.2321  0.1832 -1.2800
  730MOL0     C98443   4.450   3.236  11.626  0.5653  0.8140 -0.1466
  730MOL0     C98444   4.316   3.271  11.585  1.2199 -0.0871  0.1589
  730MOL0     O98445   4.227   3.310  11.679  0.3179  0.2569 -0.2107
  730MOL0     C98446   4.093   3.296  11.666  0.3521 -0.5973 -0.3154
  730MOL0     C98447   4.030   3.181  11.602  0.9011 -0.3467  0.3209
  730MOL0     C98448   3.890   3.179  11.585 -0.6945 -0.4568  0.0546
  730MOL0     C98449   3.812   3.282  11.638 -0.0318 -0.0593 -0.2475
  730MOL0     O98450   3.677   3.299  11.606  0.4509 -0.4684 -0.2009
  730MOL0     C98451   3.594   3.177  11.589  0.5631 -0.7381  0.0112
  730MOL0     C98452   3.467   3.210  11.507  0.3751 -0.2396  0.7860
  730MOL0     C98453   3.508   3.307  11.388 -0.0962 -0.6004 -1.4215
  730MOL0     C98454   3.394   3.357  11.305  0.5128 -0.0034 -0.3090
  730MOL0     C98455   3.436   3.475  11.218  0.6007  0.9681  0.5186
  730MOL0     C98456   3.318   3.521  11.134 -0.4280  0.5051 -0.1429
  730MOL0     C98457   3.193   3.569  11.208  0.5974  0.0381 -0.0172
  730MOL0     C98458   3.157   3.713  11.152 -0.1857  1.6308 -0.1501
  730MOL0    Cl98459   3.053   3.790  11.272  0.6747  0.3241  0.4258
  730MOL0     C98460   3.873   3.385  11.709  0.2306  0.8300 -0.3323
  730MOL0     C98461   4.010   3.406  11.715  0.0605 -0.0563  0.2533
  730MOL0     O98462   4.286   3.260  11.469  0.3740  0.0126  0.4399
  730MOL0     C98463   4.473   3.228  11.762 -0.2676  1.1518 -0.1439
  730MOL0     C98464   4.602   3.203  11.812 -0.0858 -0.1397  0.1971
  730MOL0     N98465   5.285   3.422  11.524  0.0908  0.9356 -0.0063
  730MOL0     N98466   5.380   3.499  11.479  0.2969  0.6658 -0.6038
  730MOL0     C98467   5.224   3.775  10.650  0.2542  0.2172 -0.8607
  730MOL0     C98468   5.131   3.752  10.555  0.4583  0.4245  0.0974
  730MOL0     C98469   4.954   3.643  10.159 -0.2937 -0.6858  0.3524
  730MOL0     C98470   4.859   3.723  10.100 -0.3844 -0.2689  0.2017
  730MOL0     C98471   4.747   3.671  10.039  0.1558  0.4154  0.2183
  730MOL0     C98472   4.720   3.534  10.057 -0.1461  0.0557  0.3349
  730MOL0     O98473   4.601   3.470  10.029 -0.0138 -0.4132  0.4496
  730MOL0     C98474   4.494   3.540   9.960  0.3383 -0.3096  0.7745
  730MOL0     C98475   4.415   3.636  10.051  0.5740  1.0254 -0.4087
  730MOL0     C98476   4.312   3.580  10.142  0.5150 -0.5835  0.0801
  730MOL0     C98477   4.236   3.693  10.218 -1.1699 -0.0837  0.3273
  730MOL0     C98478   4.134   3.766  10.126  0.1205 -0.1560  0.2071
  730MOL0     C98479   4.052   3.801  10.049 -0.2605  0.0219  0.4976
  730MOL0     C98480   4.815   3.456  10.129  0.1520  0.1768 -0.1894
  730MOL0     C98481   4.929   3.512  10.181 -0.3875 -0.2180  0.5789
  730MOL0     C98482   4.998   3.419  10.283 -0.3367 -0.5837  0.2703
  730MOL0     H98483   5.288   3.918  10.299 -0.3909  0.3368 -0.0239
  730MOL0     H98484   5.439   3.969  10.466  0.5088 -1.3249 -1.2682
  730MOL0     H98485   5.296   3.989  10.855  0.0134 -0.1598 -1.4770
  730MOL0     H98486   5.355   3.830  10.910  0.6216 -0.9087 -1.7034
  730MOL0     H98487   5.525   4.080  10.858 -0.4452  2.1205  2.4297
  730MOL0     H98488   5.591   3.938  10.919  0.2645  0.6312 -1.7359
  730MOL0     H98489   5.399   4.053  11.116  1.0108 -1.6831  1.4705
  730MOL0     H98490   5.561   4.109  11.102  0.7539 -1.4492  2.5572
  730MOL0     H98491   5.480   3.822  11.128 -1.1653  0.6921 -0.2574
  730MOL0     H98492   5.645   3.894  11.119 -1.3658  0.2304 -6.1141
  730MOL0     H98493   5.605   3.995  11.356 -1.5907 -0.1968  1.6806
  730MOL0     H98494   5.447   3.977  11.348  0.6606  1.9466 -0.4812
  730MOL0     H98495   5.472   3.716  11.340  0.6404 -0.1016 -0.1931
  730MOL0     H98496   5.645   3.743  11.340  0.9370  0.9927 -0.9751
  730MOL0     H98497   5.466   3.828  11.577  0.3223 -0.3580  1.6862
  730MOL0     H98498   5.637   3.842  11.556  2.0406 -2.9137  0.8671
  730MOL0     H98499   5.632   3.579  11.500  0.7918 -0.7546  0.8548
  730MOL0     H98500   5.618   3.636  11.668 -0.5165 -2.9711 -0.6255
  730MOL0     H98501   5.421   3.538  11.806 -0.4683  0.3998 -0.4411
  730MOL0     H98502   5.284   3.202  11.741 -0.2830 -0.6858  0.1800
  730MOL0     H98503   5.278   3.344  11.854  0.3269 -3.4183  0.1739
  730MOL0     H98504   5.039   3.391  11.752  0.7889 -0.1198  0.1196
  730MOL0     H98505   5.055   3.250  11.658 -1.3324  2.8442 -0.9746
  730MOL0     H98506   5.091   3.263  11.969  1.2790 -1.7129 -0.0466
  730MOL0     H98507   5.067   3.115  11.878  0.1703  0.9281  2.1505
  730MOL0     H98508   4.858   3.322  11.908  3.3775  0.5051 -0.3456
  730MOL0     H98509   4.865   3.167  11.988  2.7107 -0.3044  1.2510
  730MOL0     H98510   4.758   3.156  11.505 -0.4521  0.6195 -0.2583
  730MOL0     H98511   4.529   3.208  11.431  1.7034 -1.1513 -1.6598
  730MOL0     H98512   4.094   3.101  11.565 -0.5864 -2.0073  1.1628
  730MOL0     H98513   3.856   3.090  11.533 -1.0793 -0.6119  0.5651
  730MOL0     H98514   3.651   3.096  11.543  2.3422  0.4707 -0.0391
  730MOL0     H98515   3.574   3.145  11.692 -0.8862  0.3773  0.1177
  730MOL0     H98516   3.425   3.115  11.473  1.2175 -0.5612  0.6090
  730MOL0     H98517   3.399   3.276  11.562 -0.6524  1.0884 -1.9195
  730MOL0     H98518   3.552   3.397  11.432 -0.6732 -1.3335  0.7695
  730MOL0     H98519   3.588   3.267  11.325  3.5652 -1.1919  3.0855
  730MOL0     H98520   3.332   3.392  11.388 -2.0063 -0.4507 -1.9253
  730MOL0     H98521   3.357   3.269  11.251 -1.8855  0.9292 -0.2962
  730MOL0     H98522   3.519   3.434  11.159 -1.1212 -3.5423  0.8344
  730MOL0     H98523   3.472   3.559  11.278 -1.4825  0.9185  1.9269
  730MOL0     H98524   3.352   3.603  11.070 -1.1270 -0.3090 -1.6234
  730MOL0     H98525   3.297   3.441  11.062  1.2670 -1.3230  1.2728
  730MOL0     H98526   3.205   3.600  11.312 -1.8028 -1.4110  0.7788
  730MOL0     H98527   3.121   3.486  11.213  1.4205 -0.6532  0.6054
  730MOL0     H98528   3.244   3.775  11.135 -0.4286  1.8625 -0.5527
  730MOL0     H98529   3.111   3.696  11.054  2.1327 -0.4244 -0.9927
  730MOL0     H98530   3.815   3.472  11.740 -0.9782  0.4102 -1.3356
  730MOL0     H98531   4.062   3.495  11.750  0.3402 -0.3431  0.5758
  730MOL0     H98532   4.397   3.253  11.835  0.5032 -0.6053  1.3372
  730MOL0     H98533   4.620   3.201  11.919 -0.9513 -4.2735  0.4443
  730MOL0     H98534   5.212   3.728  10.747  0.0930  2.3072  0.1886
  730MOL0     H98535   5.046   3.687  10.566  2.7911 -3.0968 -0.8908
  730MOL0     H98536   4.884   3.828  10.085 -0.2863 -0.6201 -2.6490
  730MOL0     H98537   4.682   3.739   9.984  2.1344  0.6926 -1.9123
  730MOL0     H98538   4.429   3.469   9.909 -0.1746 -1.3221  2.7420
  730MOL0     H98539   4.550   3.592   9.882  0.1476 -1.7676 -0.3688
  730MOL0     H98540   4.361   3.705   9.985 -2.6904 -1.5462 -0.6810
  730MOL0     H98541   4.487   3.695  10.108  1.6882  0.2923 -1.0350
  730MOL0     H98542   4.357   3.518  10.219  0.6357 -0.9144 -0.2548
  730MOL0     H98543   4.239   3.521  10.085  0.1486  0.2494 -0.3371
  730MOL0     H98544   4.186   3.659  10.309 -2.4835  0.8632 -0.0165
  730MOL0     H98545   4.307   3.768  10.254 -0.8571  0.1942 -0.8322
  730MOL0     H98546   3.969   3.840   9.994 -1.1078 -2.4589 -0.1251
  730MOL0     H98547   4.785   3.353  10.141 -0.9326  0.5416  0.4279
  730MOL0     H98548   4.967   3.453  10.382 -5.1228 -4.2377  0.3610
  730MOL0     H98549   4.964   3.315  10.274  1.0445 -1.3354  2.6224
  730MOL0     H98550   5.107   3.415  10.268 -0.6320 -1.1334 -2.2728
  731MOL0     O98551   7.743  10.884   6.101  0.7974 -0.2363  0.4198
  731MOL0     C98552   7.660  10.974   6.114 -0.2925 -0.6935 -1.2092
  731MOL0     O98553   7.527  10.952   6.109  0.3130  0.0781  0.0308
  731MOL0     C98554   7.464  10.843   6.057  0.6755 -0.8820 -0.2338
  731MOL0     C98555   7.318  10.856   6.057 -0.4714  0.4490 -0.5291
  731MOL0     C98556   7.233  10.761   5.992  0.2917 -0.2895 -0.3843
  731MOL0     C98557   7.284  10.655   5.921  0.1902  0.1856  0.0286
  731MOL0     O98558   7.211  10.563   5.853 -0.1159  0.1180 -0.0393
  731MOL0     C98559   7.100  10.517   5.932 -0.4671  0.4888 -1.9338
  731MOL0     C98560   7.049  10.387   5.876 -0.3781 -0.6618  0.3678
  731MOL0     C98561   6.892  10.375   5.894 -0.3358 -0.5768  0.4931
  731MOL0     C98562   6.848  10.360   6.046  1.0110 -0.6462  0.3918
  731MOL0     C98563   6.715  10.281   6.045  0.5316  0.5102 -0.2749
  731MOL0     C98564   6.595  10.375   6.011 -0.3781  1.0787 -0.1176
  731MOL0     C98565   6.458  10.322   6.023 -0.2759 -0.1672  0.4248
  731MOL0     C98566   6.350  10.411   5.978 -0.0429  0.0218  0.5107
  731MOL0     N98567   6.348  10.419   5.830 -0.3480 -1.1449 -1.1840
  731MOL0     C98568   6.396  10.521   5.750  0.6622  0.3268  0.7151
  731MOL0     C98569   6.395  10.477   5.622  0.0932  0.0927 -0.4220
  731MOL0     C98570   6.428  10.551   5.495  0.3536 -0.3495 -0.3102
  731MOL0     C98571   6.564  10.617   5.510  0.2562 -0.1644  0.3623
  731MOL0     C98572   6.675  10.507   5.498 -0.0724  0.3663  0.0331
  731MOL0     C98573   6.801  10.587   5.509 -0.0794  0.6642 -0.1334
  731MOL0     O98574   6.813  10.663   5.635  0.4745  0.2109 -0.1066
  731MOL0     C98575   6.923  10.743   5.639  0.1823  0.3749 -0.1318
  731MOL0     C98576   7.053  10.696   5.610 -0.4883 -0.3898  0.3937
  731MOL0     C98577   7.159  10.783   5.601 -0.0251  0.4512  0.1222
  731MOL0     C98578   7.141  10.922   5.620 -0.2223 -0.6718 -0.3481
  731MOL0     C98579   7.255  11.022   5.618  0.4696  0.2681 -0.4956
  731MOL0     O98580   7.374  10.971   5.580  0.6571 -0.4886 -1.0358
  731MOL0     C98581   7.484  11.052   5.557  0.0164  0.0376 -0.0923
  731MOL0     C98582   7.498  11.130   5.440 -0.7903 -0.2802  0.8684
  731MOL0     C98583   7.610  11.217   5.424  0.8879 -0.0202  0.7494
  731MOL0     C98584   7.705  11.235   5.522  0.1057  0.1982  0.5102
  731MOL0     O98585   7.809  11.326   5.500  0.6181 -0.1081 -0.0360
  731MOL0     C98586   7.852  11.414   5.612  0.3257  0.0097 -0.3473
  731MOL0     C98587   7.900  11.546   5.558 -0.2621  0.0001 -0.0444
  731MOL0     C98588   8.001  11.543   5.449 -0.6483  0.4970  0.6095
  731MOL0     C98589   8.033  11.694   5.397 -0.6909  0.3515  0.0102
  731MOL0     C98590   8.143  11.683   5.288  0.1080 -0.0404  0.4973
  731MOL0     C98591   8.274  11.689   5.352  0.9944 -0.1977  0.5237
  731MOL0     C98592   8.382  11.675   5.247  0.4797 -0.6248 -0.3447
  731MOL0     C98593   8.520  11.694   5.320  0.4378 -0.3896 -0.0344
  731MOL0    Cl98594   8.643  11.649   5.198 -0.5168  0.3636 -0.4900
  731MOL0     C98595   7.690  11.165   5.639 -0.1201 -0.2688 -0.5068
  731MOL0     C98596   7.581  11.070   5.659 -0.1612  0.1512 -0.1726
  731MOL0     O98597   7.231  11.136   5.650  0.0477 -0.5510 -0.0142
  731MOL0     C98598   7.012  10.967   5.650 -0.4122  0.1050 -0.0636
  731MOL0     C98599   6.904  10.877   5.662  0.5316  0.1940 -0.5493
  731MOL0     N98600   6.329  10.358   5.629  0.1310  0.1428 -0.5287
  731MOL0     N98601   6.306  10.320   5.749 -0.1730  0.3766  0.8054
  731MOL0     C98602   7.422  10.642   5.915  0.5848 -0.0245 -0.5554
  731MOL0     C98603   7.512  10.733   5.978  0.7690  0.2625  0.7517
  731MOL0     C98604   7.710  11.104   6.147 -0.3005 -0.6206 -0.2659
  731MOL0     C98605   7.827  11.144   6.082 -0.3339 -0.0445 -0.3086
  731MOL0     C98606   7.871  11.275   6.088  0.8568  0.1530  0.3467
  731MOL0     C98607   7.820  11.362   6.177  0.1784  0.3075  0.4975
  731MOL0     O98608   7.872  11.489   6.191 -0.0593 -0.6761  0.5688
  731MOL0     C98609   7.835  11.565   6.306 -0.2918 -0.7015 -0.3510
  731MOL0     C98610   7.924  11.693   6.286 -1.0157  0.1228 -0.5780
  731MOL0     C98611   8.075  11.675   6.283 -1.1417  0.6902  0.5281
  731MOL0     C98612   8.138  11.651   6.415  0.4065  0.2697 -0.2415
  731MOL0     C98613   8.109  11.754   6.516 -0.4679  0.3051 -0.2123
  731MOL0     C98614   8.053  11.821   6.596 -0.4481 -0.1112  0.8233
  731MOL0     C98615   7.713  11.316   6.270 -1.2648  0.6208  0.4499
  731MOL0     C98616   7.653  11.194   6.239  0.5329 -0.5861 -0.0024
  731MOL0     C98617   7.537  11.147   6.324  0.0019  0.4754  0.2663
  731MOL0     H98618   7.264  10.929   6.117 -3.7595 -1.8628 -0.3950
  731MOL0     H98619   7.127  10.778   6.003  0.6395  1.0244  1.2705
  731MOL0     H98620   7.143  10.483   6.027  0.4581 -2.3573 -3.2566
  731MOL0     H98621   7.020  10.590   5.944  0.1841  0.7578  2.0359
  731MOL0     H98622   7.096  10.299   5.920 -3.0553 -1.9764  0.7550
  731MOL0     H98623   7.073  10.395   5.769 -2.2421  1.0262  0.0128
  731MOL0     H98624   6.883  10.283   5.836  1.8112 -0.9386  0.6367
  731MOL0     H98625   6.839  10.453   5.838 -1.3676  0.0769  2.3047
  731MOL0     H98626   6.923  10.304   6.102  1.4953 -0.2484  0.1454
  731MOL0     H98627   6.836  10.459   6.090 -0.6731 -1.1296  1.1320
  731MOL0     H98628   6.715  10.195   5.977 -0.4743 -0.5279  1.0127
  731MOL0     H98629   6.695  10.242   6.145 -0.6676  1.6825 -0.0264
  731MOL0     H98630   6.604  10.464   6.074  1.2593 -0.1273  1.4604
  731MOL0     H98631   6.595  10.408   5.906  1.7475  1.2874 -0.0915
  731MOL0     H98632   6.440  10.278   6.122  2.1234 -3.2592 -0.3229
  731MOL0     H98633   6.453  10.237   5.954 -1.3458 -1.3665  1.9017
  731MOL0     H98634   6.256  10.360   5.998  0.6768 -1.2878  0.6775
  731MOL0     H98635   6.353  10.514   6.015  2.9194  0.7748 -1.4699
  731MOL0     H98636   6.422  10.624   5.774 -0.2284  0.3863  1.5063
  731MOL0     H98637   6.429  10.475   5.417  2.0882  0.9747 -1.6779
  731MOL0     H98638   6.355  10.630   5.475  1.1426  0.5882  0.4085
  731MOL0     H98639   6.585  10.693   5.434  3.6483 -0.0770  1.2503
  731MOL0     H98640   6.577  10.663   5.608 -1.7612  2.6659 -0.5502
  731MOL0     H98641   6.671  10.456   5.401 -0.9456  0.0567  0.2332
  731MOL0     H98642   6.672  10.430   5.575 -0.6871 -0.4052 -0.7530
  731MOL0     H98643   6.807  10.655   5.424 -2.0051 -0.5758 -1.3152
  731MOL0     H98644   6.888  10.522   5.499  0.1925  1.2418 -1.9260
  731MOL0     H98645   7.071  10.590   5.604  3.0033  0.1487 -0.4819
  731MOL0     H98646   7.253  10.734   5.579 -0.0179 -0.0614  1.2185
  731MOL0     H98647   7.431  11.115   5.356  3.4193 -0.9974 -2.7555
  731MOL0     H98648   7.632  11.271   5.332  5.3227 -3.5101 -0.5944
  731MOL0     H98649   7.777  11.438   5.687  2.6301  1.9073  1.5206
  731MOL0     H98650   7.931  11.358   5.664 -1.4186 -1.8052  0.4884
  731MOL0     H98651   7.812  11.594   5.515 -0.7428 -1.9290 -1.3523
  731MOL0     H98652   7.944  11.602   5.640 -1.1445 -1.3398  1.4015
  731MOL0     H98653   8.096  11.497   5.478  0.3083 -1.3957 -4.5538
  731MOL0     H98654   7.954  11.487   5.368 -0.9626  0.6582  0.6791
  731MOL0     H98655   8.061  11.748   5.488 -3.1845  0.2906  0.8968
  731MOL0     H98656   7.945  11.744   5.355  0.3363  1.9031 -0.3312
  731MOL0     H98657   8.146  11.765   5.216  0.4472  0.8797  1.5186
  731MOL0     H98658   8.132  11.592   5.230  0.1114  0.1184  0.2440
  731MOL0     H98659   8.287  11.779   5.413 -3.3540  1.5494 -0.7395
  731MOL0     H98660   8.270  11.605   5.422 -0.6445  1.5251  2.6333
  731MOL0     H98661   8.379  11.754   5.171  2.0559 -1.1090 -0.9473
  731MOL0     H98662   8.372  11.575   5.206 -1.6317 -0.5977 -0.0000
  731MOL0     H98663   8.527  11.795   5.361 -0.9487  0.3417 -1.4983
  731MOL0     H98664   8.518  11.635   5.412 -0.6150  0.4017  0.4591
  731MOL0     H98665   7.763  11.175   5.719 -1.3278  1.2516  0.4580
  731MOL0     H98666   7.565  11.026   5.757 -1.3297 -1.5867 -1.0921
  731MOL0     H98667   6.997  11.074   5.658  4.2831  0.8053  3.3078
  731MOL0     H98668   6.802  10.911   5.678  0.7813  0.9715 -0.5593
  731MOL0     H98669   7.464  10.567   5.849  1.1325 -1.3295  1.2078
  731MOL0     H98670   7.617  10.739   5.951 -0.0740  0.9496 -3.0391
  731MOL0     H98671   7.875  11.079   6.010 -1.7160 -0.8076 -0.5840
  731MOL0     H98672   7.955  11.306   6.026  0.2232 -0.6727 -0.9593
  731MOL0     H98673   7.849  11.508   6.399 -0.2297 -0.5180 -0.2481
  731MOL0     H98674   7.730  11.595   6.310  0.0813  1.4281 -3.4233
  731MOL0     H98675   7.898  11.763   6.366  0.9457  1.1026 -0.7366
  731MOL0     H98676   7.892  11.743   6.194 -0.3773  1.1224 -0.2813
  731MOL0     H98677   8.128  11.758   6.235 -1.3377  1.1698  1.1243
  731MOL0     H98678   8.099  11.591   6.217 -2.9888  0.6732 -0.1953
  731MOL0     H98679   8.087  11.559   6.445  0.6144  0.0969 -0.4153
  731MOL0     H98680   8.244  11.627   6.402  0.1303 -0.3491 -1.4550
  731MOL0     H98681   7.989  11.883   6.655 -1.6823  0.9072 -1.4367
  731MOL0     H98682   7.681  11.378   6.353  0.4784  0.7352  1.0890
  731MOL0     H98683   7.504  11.237   6.377  0.6461  2.7674 -2.8940
  731MOL0     H98684   7.455  11.119   6.256 -0.2125  2.5200 -0.4055
  731MOL0     H98685   7.563  11.073   6.400  1.4385  2.4627  1.8075
  732MOL0     O98686   4.907   7.841   3.747 -0.1529  0.3694  0.3790
  732MOL0     C98687   4.791   7.854   3.790 -0.2142 -0.0966  0.6886
  732MOL0     O98688   4.759   7.898   3.914 -0.0067 -0.2380  0.3553
  732MOL0     C98689   4.845   7.974   3.980  0.3378  0.3670 -0.2412
  732MOL0     C98690   4.927   7.925   4.074 -0.1827  0.8684  0.5110
  732MOL0     C98691   5.002   8.006   4.155  0.6738  0.8640 -0.3992
  732MOL0     C98692   4.991   8.141   4.150 -0.0443  0.2237  1.7107
  732MOL0     O98693   5.066   8.215   4.236  0.0830  0.3379 -0.8224
  732MOL0     C98694   5.203   8.237   4.200 -0.1473  0.2941 -0.1710
  732MOL0     C98695   5.259   8.353   4.284  0.4674  0.0279  0.5223
  732MOL0     C98696   5.405   8.385   4.243  0.6276 -0.2251  0.3778
  732MOL0     C98697   5.505   8.367   4.369  0.1037 -0.4522  0.0870
  732MOL0     C98698   5.517   8.219   4.417 -0.6045  0.4498 -1.3841
  732MOL0     C98699   5.667   8.185   4.471  0.0225  0.1193 -0.6003
  732MOL0     C98700   5.687   8.046   4.542  0.3902  0.2988 -0.3659
  732MOL0     C98701   5.813   8.032   4.622 -0.7753  0.6171  0.9536
  732MOL0     N98702   5.936   8.070   4.550 -0.7419 -0.0409  0.4522
  732MOL0     C98703   6.010   8.180   4.574  0.5040 -0.1582 -0.2018
  732MOL0     C98704   6.116   8.174   4.491 -0.3058 -1.2948  0.0478
  732MOL0     C98705   6.214   8.286   4.477 -1.2049 -0.0570  0.3013
  732MOL0     C98706   6.154   8.398   4.383  0.0555  0.0670  0.3913
  732MOL0     C98707   6.199   8.390   4.235  0.3163 -0.4786 -0.4306
  732MOL0     C98708   6.337   8.454   4.209  0.2469 -0.8150 -0.4045
  732MOL0     O98709   6.373   8.420   4.074 -0.6373 -0.9054  0.3783
  732MOL0     C98710   6.490   8.480   4.017 -0.3531  0.6400  0.2402
  732MOL0     C98711   6.591   8.539   4.092 -0.3987 -0.0713 -0.5943
  732MOL0     C98712   6.694   8.606   4.023  0.3580 -0.3639 -0.7380
  732MOL0     C98713   6.710   8.597   3.882  0.5136 -0.0689 -0.4559
  732MOL0     C98714   6.841   8.647   3.826 -0.2558  0.6175  0.4111
  732MOL0     O98715   6.846   8.633   3.688  0.4752  0.2090 -0.4344
  732MOL0     C98716   6.964   8.678   3.643  0.1832 -0.1827 -0.7585
  732MOL0     C98717   7.076   8.600   3.664 -0.8595  0.8594  0.4700
  732MOL0     C98718   7.202   8.651   3.631  0.0937 -0.1022  0.0055
  732MOL0     C98719   7.205   8.769   3.545  0.5650 -0.2610 -0.1847
  732MOL0     O98720   7.319   8.835   3.495 -0.3459 -0.2343 -0.0961
  732MOL0     C98721   7.417   8.745   3.438 -0.0809 -1.0142 -0.4145
  732MOL0     C98722   7.371   8.681   3.307  0.0716  0.8630  0.9018
  732MOL0     C98723   7.482   8.662   3.207 -0.7682 -0.5754  0.4083
  732MOL0     C98724   7.437   8.584   3.076 -0.4147  0.2792  0.6093
  732MOL0     C98725   7.534   8.601   2.970  0.4176  0.1657 -0.2085
  732MOL0     C98726   7.481   8.516   2.858 -0.0098  0.2881  0.2345
  732MOL0     C98727   7.563   8.543   2.733  0.1708 -0.1031  0.0239
  732MOL0     C98728   7.488   8.518   2.601 -0.0436  0.3037 -0.6225
  732MOL0    Cl98729   7.368   8.650   2.576  0.4180  0.3017 -0.3997
  732MOL0     C98730   7.085   8.847   3.524 -0.4389  0.0110  0.2361
  732MOL0     C98731   6.974   8.804   3.580  0.8809  0.4162  0.2370
  732MOL0     O98732   6.924   8.700   3.892 -0.1845 -0.5012 -0.1267
  732MOL0     C98733   6.620   8.512   3.817 -0.7071  0.4440  0.3834
  732MOL0     C98734   6.511   8.463   3.879 -0.8102  0.1768 -0.3742
  732MOL0     N98735   6.102   8.060   4.405  0.0555  0.5507 -0.4695
  732MOL0     N98736   5.995   7.995   4.445 -0.6027 -0.1823  0.4309
  732MOL0     C98737   4.887   8.199   4.082  0.6155  0.9637  0.2506
  732MOL0     C98738   4.820   8.112   3.986 -0.4522 -0.0772  0.3223
  732MOL0     C98739   4.683   7.819   3.697 -0.6055 -0.6044 -0.7018
  732MOL0     C98740   4.718   7.779   3.568 -0.1118  1.4818  0.0999
  732MOL0     C98741   4.634   7.744   3.469  0.3145  0.3479 -0.3168
  732MOL0     C98742   4.499   7.751   3.499 -0.2231  0.5671  1.1051
  732MOL0     O98743   4.419   7.696   3.396 -0.1090 -0.3187  0.1115
  732MOL0     C98744   4.275   7.683   3.419 -0.0512  0.0549  1.0036
  732MOL0     C98745   4.195   7.606   3.308 -0.3635 -1.0388 -0.7661
  732MOL0     C98746   4.178   7.701   3.191  0.9067 -0.2668 -0.4871
  732MOL0     C98747   4.308   7.724   3.113  0.2751  0.6754 -0.0497
  732MOL0     C98748   4.264   7.772   2.982  0.2687 -0.7274 -0.3934
  732MOL0     C98749   4.233   7.827   2.882  0.4731 -0.9646 -0.6135
  732MOL0     C98750   4.460   7.798   3.621  0.4167  0.7255  0.0137
  732MOL0     C98751   4.545   7.837   3.723  0.0369 -0.0757 -0.3791
  732MOL0     C98752   4.491   7.899   3.848  0.7263 -0.0255  0.0270
  732MOL0     H98753   4.923   7.817   4.078 -2.6404  0.7541 -1.8036
  732MOL0     H98754   5.076   7.953   4.215 -0.4207  0.3843  0.5808
  732MOL0     H98755   5.251   8.147   4.239 -1.6092 -0.7348 -0.6370
  732MOL0     H98756   5.228   8.248   4.094 -1.7802 -2.8977 -1.0164
  732MOL0     H98757   5.258   8.334   4.391 -3.9374  0.6801  0.7572
  732MOL0     H98758   5.184   8.430   4.262  0.9564 -0.1265 -1.9362
  732MOL0     H98759   5.408   8.490   4.212 -0.2691 -0.1837  0.4030
  732MOL0     H98760   5.447   8.323   4.163 -0.6625  1.3484 -1.6187
  732MOL0     H98761   5.600   8.404   4.328 -0.3479 -0.2365 -0.8085
  732MOL0     H98762   5.474   8.425   4.456 -1.7882 -1.9912  0.5284
  732MOL0     H98763   5.458   8.191   4.505  2.0918  0.5907  0.5962
  732MOL0     H98764   5.498   8.139   4.346  0.1486 -2.3392  1.3195
  732MOL0     H98765   5.737   8.194   4.387  1.3770 -1.8972  0.2217
  732MOL0     H98766   5.699   8.268   4.535  3.7423 -0.6044 -1.2642
  732MOL0     H98767   5.686   7.972   4.463 -0.9022 -1.5817  1.3130
  732MOL0     H98768   5.601   8.035   4.609  2.3563 -1.4310  2.0854
  732MOL0     H98769   5.816   8.080   4.720  0.2930 -0.7741  1.6410
  732MOL0     H98770   5.836   7.933   4.661  1.9484  0.6348 -0.3116
  732MOL0     H98771   6.000   8.257   4.650 -1.7783  0.3739 -0.9662
  732MOL0     H98772   6.230   8.321   4.580  3.0341 -2.6794  0.7793
  732MOL0     H98773   6.306   8.240   4.440 -1.0894 -1.2762  1.9865
  732MOL0     H98774   6.050   8.363   4.382  0.7852 -2.4717 -2.6250
  732MOL0     H98775   6.157   8.502   4.417  0.4844  0.7174 -1.5463
  732MOL0     H98776   6.123   8.440   4.175  0.8425  3.1721  1.6837
  732MOL0     H98777   6.193   8.285   4.204 -1.5307 -0.2250 -1.0688
  732MOL0     H98778   6.406   8.411   4.282 -0.2435 -0.2682  0.4005
  732MOL0     H98779   6.320   8.562   4.221 -0.6093 -1.1224  1.4951
  732MOL0     H98780   6.579   8.535   4.199 -0.0923  0.8378 -0.5247
  732MOL0     H98781   6.749   8.674   4.088  0.9672 -0.2084 -1.3966
  732MOL0     H98782   7.057   8.505   3.714  0.1771  0.5415  0.2706
  732MOL0     H98783   7.299   8.605   3.649  0.4293  1.1399  1.5336
  732MOL0     H98784   7.500   8.811   3.410  0.4571 -1.7502 -0.5644
  732MOL0     H98785   7.463   8.677   3.510  2.4780  0.4398 -0.5484
  732MOL0     H98786   7.332   8.586   3.344  2.1009  0.4484  2.1387
  732MOL0     H98787   7.282   8.736   3.275  1.3670  3.9501  2.2274
  732MOL0     H98788   7.530   8.749   3.160 -1.5047 -1.2091 -1.6337
  732MOL0     H98789   7.555   8.603   3.262  1.3359  0.4689 -1.1246
  732MOL0     H98790   7.343   8.634   3.051 -0.8873  1.3267  3.9767
  732MOL0     H98791   7.437   8.475   3.091  1.4538 -0.0593 -1.4417
  732MOL0     H98792   7.632   8.560   2.994 -0.7865 -2.9443 -0.1178
  732MOL0     H98793   7.539   8.707   2.941 -1.5666  0.2710 -0.3145
  732MOL0     H98794   7.486   8.409   2.882  0.9075  0.1019 -0.7095
  732MOL0     H98795   7.380   8.550   2.837  0.8977  0.8667 -3.9666
  732MOL0     H98796   7.651   8.478   2.738 -1.1095 -1.8345  2.9124
  732MOL0     H98797   7.598   8.646   2.731 -0.8306  0.2548  0.3490
  732MOL0     H98798   7.557   8.510   2.517 -0.5175 -3.6407 -0.8017
  732MOL0     H98799   7.433   8.424   2.605 -0.2899  0.2757 -3.0288
  732MOL0     H98800   7.102   8.940   3.470 -0.2941  0.1842  0.5732
  732MOL0     H98801   6.876   8.849   3.568  1.6098  2.0230  0.0878
  732MOL0     H98802   6.636   8.473   3.717  0.1782 -0.3988  0.8428
  732MOL0     H98803   6.438   8.406   3.821  0.3135 -1.4646 -0.2228
  732MOL0     H98804   4.869   8.306   4.090 -1.9858  0.5423  1.3134
  732MOL0     H98805   4.750   8.164   3.921  2.6219  0.8906 -2.5123
  732MOL0     H98806   4.821   7.762   3.539 -0.6251 -3.4731  0.2542
  732MOL0     H98807   4.670   7.718   3.370 -1.0645  1.2033 -1.0640
  732MOL0     H98808   4.234   7.784   3.432  0.3631  0.4961 -0.8997
  732MOL0     H98809   4.260   7.628   3.513 -0.9222 -0.2761  0.6846
  732MOL0     H98810   4.096   7.587   3.350 -0.7788 -0.2759 -1.3844
  732MOL0     H98811   4.234   7.506   3.288 -0.1581 -0.5709 -2.9861
  732MOL0     H98812   4.135   7.792   3.232  0.2160 -0.5153 -0.6491
  732MOL0     H98813   4.101   7.664   3.122 -0.3123  3.8686 -1.6017
  732MOL0     H98814   4.362   7.802   3.168 -1.7028  0.7665  1.9023
  732MOL0     H98815   4.360   7.628   3.110 -0.5790  0.2191 -0.3924
  732MOL0     H98816   4.212   7.864   2.784  1.0219  3.0401  0.6011
  732MOL0     H98817   4.354   7.800   3.641  0.3702 -0.6769 -0.0285
  732MOL0     H98818   4.508   7.823   3.925  0.6363  0.9941  1.1006
  732MOL0     H98819   4.529   7.996   3.884 -0.6515  0.9538 -1.0775
  732MOL0     H98820   4.386   7.922   3.832  1.1216  0.7813 -1.5675
  733MOL0     O98821   1.447   6.487   4.592  0.4555  0.2617  0.7196
  733MOL0     C98822   1.340   6.425   4.620 -0.2320 -0.3152  0.3427
  733MOL0     O98823   1.321   6.370   4.738  0.3102  0.1829  0.1223
  733MOL0     C98824   1.404   6.407   4.844 -0.4668 -0.9412  0.2538
  733MOL0     C98825   1.505   6.330   4.899 -1.3040  0.5823  0.2973
  733MOL0     C98826   1.589   6.383   4.994 -0.5406 -0.0966 -0.4001
  733MOL0     C98827   1.566   6.510   5.057  0.3961  0.3152  0.0843
  733MOL0     O98828   1.659   6.552   5.147 -0.9360  0.6347 -0.4738
  733MOL0     C98829   1.632   6.665   5.224 -0.2295  0.5747  1.3107
  733MOL0     C98830   1.747   6.680   5.316 -0.0807  0.5881  0.8749
  733MOL0     C98831   1.715   6.806   5.400  0.5936  0.0831 -1.2860
  733MOL0     C98832   1.641   6.758   5.529 -0.1322  0.6569  0.4161
  733MOL0     C98833   1.597   6.880   5.614  0.0915 -0.4407 -0.3029
  733MOL0     C98834   1.517   6.831   5.727 -0.5493  0.0462 -0.3484
  733MOL0     C98835   1.416   6.927   5.779 -0.7253 -0.6210  0.8489
  733MOL0     C98836   1.288   6.932   5.697  0.5160  0.2023  0.4039
  733MOL0     N98837   1.175   6.850   5.744 -0.2710 -0.9922  0.1108
  733MOL0     C98838   1.081   6.891   5.834 -0.6246  0.3130 -0.0164
  733MOL0     C98839   0.989   6.793   5.818 -0.4992 -0.4512  0.3482
  733MOL0     C98840   0.856   6.802   5.886  0.1193  0.8435 -1.0981
  733MOL0     C98841   0.820   6.678   5.974 -0.5758  0.2632  1.2216
  733MOL0     C98842   0.679   6.699   6.027 -0.0388  0.3349 -0.0302
  733MOL0     C98843   0.660   6.613   6.156 -0.8995 -0.0313 -0.0144
  733MOL0     O98844   0.552   6.652   6.239  0.0577 -0.7410  0.3356
  733MOL0     C98845   0.424   6.599   6.217  0.2529  0.0407  0.1351
  733MOL0     C98846   0.394   6.485   6.134  0.2509 -0.3482  0.0221
  733MOL0     C98847   0.262   6.445   6.114  0.1381  0.1808  0.5096
  733MOL0     C98848   0.148   6.504   6.170 -1.1554  0.0968  0.8610
  733MOL0     C98849   0.007   6.463   6.138 -0.2102  0.1543 -0.2285
  733MOL0     O98850  -0.090   6.542   6.194  0.6223 -0.1391  0.5949
  733MOL0     C98851  -0.220   6.526   6.160 -0.5529 -0.5703 -0.1279
  733MOL0     C98852  -0.285   6.407   6.162  0.5042  0.7232  0.5220
  733MOL0     C98853  -0.424   6.399   6.132 -0.8158 -0.2768  0.7021
  733MOL0     C98854  -0.486   6.520   6.100 -0.0367 -0.5671  0.1016
  733MOL0     O98855  -0.616   6.501   6.068 -0.3603  0.2523 -0.4534
  733MOL0     C98856  -0.693   6.600   6.001 -0.4356  0.3019  1.3672
  733MOL0     C98857  -0.834   6.553   5.996 -0.1713 -0.0309  0.4418
  733MOL0     C98858  -0.866   6.469   5.876 -0.9532  0.3859 -0.6070
  733MOL0     C98859  -1.008   6.492   5.825  0.1312 -0.2971  0.1232
  733MOL0     C98860  -1.053   6.369   5.751  0.8489 -0.0171  1.2742
  733MOL0     C98861  -1.168   6.384   5.640 -0.0107 -0.7855 -0.1103
  733MOL0     C98862  -1.158   6.488   5.534 -0.7038  0.1671  0.8194
  733MOL0     C98863  -1.043   6.452   5.433 -0.7560  0.2629  0.3018
  733MOL0    Cl98864  -1.039   6.553   5.286 -0.2586  0.1865 -0.9002
  733MOL0     C98865  -0.413   6.636   6.090  0.0515 -0.0744 -0.8955
  733MOL0     C98866  -0.283   6.648   6.127 -0.8893  0.3083 -0.2133
  733MOL0     O98867  -0.015   6.379   6.054  0.2240 -0.1147 -0.9010
  733MOL0     C98868   0.177   6.622   6.246 -0.2951  0.3105  0.1804
  733MOL0     C98869   0.315   6.674   6.262  0.1148  0.0889 -0.9450
  733MOL0     N98870   1.036   6.684   5.746 -1.0236  0.2608  0.2924
  733MOL0     N98871   1.153   6.727   5.703  0.1813 -0.2257  0.2218
  733MOL0     C98872   1.452   6.589   5.013 -0.3287 -0.7946  0.6763
  733MOL0     C98873   1.374   6.530   4.914 -0.1300  0.5151 -0.1055
  733MOL0     C98874   1.229   6.422   4.529 -0.7309 -0.4614  0.5485
  733MOL0     C98875   1.137   6.325   4.553 -0.2894  0.6450  0.0780
  733MOL0     C98876   1.019   6.317   4.477  0.4277  0.4897  0.1479
  733MOL0     C98877   1.016   6.386   4.355  0.3791 -0.3460  0.3133
  733MOL0     O98878   0.921   6.374   4.261 -0.5000 -0.4452  0.1063
  733MOL0     C98879   0.815   6.283   4.274  0.1696 -0.1628  0.3368
  733MOL0     C98880   0.853   6.137   4.254  0.5681 -0.3139 -0.2352
  733MOL0     C98881   0.870   6.096   4.111 -0.4295  0.8835  0.1518
  733MOL0     C98882   0.940   5.954   4.099 -0.2915  0.1503  0.1046
  733MOL0     C98883   0.914   5.891   3.970  0.5545  0.1359 -0.3739
  733MOL0     C98884   0.868   5.843   3.866  0.2074  0.1584 -0.4256
  733MOL0     C98885   1.119   6.473   4.320 -0.3988  0.0688 -0.6022
  733MOL0     C98886   1.228   6.496   4.410  0.0127 -0.0092  0.4053
  733MOL0     C98887   1.325   6.591   4.359  0.5350 -0.6543  0.4102
  733MOL0     H98888   1.523   6.227   4.868  2.8207  1.6356 -1.5533
  733MOL0     H98889   1.677   6.330   5.028 -0.9983 -1.2225 -0.9307
  733MOL0     H98890   1.627   6.761   5.173 -2.2636  0.5345  1.3765
  733MOL0     H98891   1.541   6.656   5.282 -1.5343  1.8893 -0.4271
  733MOL0     H98892   1.843   6.689   5.265  1.2396 -2.8459  2.4020
  733MOL0     H98893   1.759   6.592   5.380 -2.7700 -1.5737 -1.3281
  733MOL0     H98894   1.637   6.873   5.362 -2.0704 -0.7473  2.1446
  733MOL0     H98895   1.797   6.869   5.433 -0.5051  1.3707 -0.9263
  733MOL0     H98896   1.566   6.682   5.506  1.6243 -0.8066 -0.6912
  733MOL0     H98897   1.714   6.698   5.584 -1.2877 -0.7951  0.4170
  733MOL0     H98898   1.697   6.918   5.639  1.9819 -3.1719 -2.9474
  733MOL0     H98899   1.551   6.952   5.546  1.1982 -0.8654 -1.5327
  733MOL0     H98900   1.469   6.736   5.703  1.7070 -1.6895  1.4335
  733MOL0     H98901   1.586   6.811   5.810  1.1297  0.7938 -1.5006
  733MOL0     H98902   1.454   7.029   5.764 -0.4315 -1.0245 -1.6763
  733MOL0     H98903   1.385   6.905   5.881 -2.2086 -0.3185  0.4778
  733MOL0     H98904   1.257   7.037   5.696  1.2897  0.4843 -1.7286
  733MOL0     H98905   1.304   6.915   5.590 -2.5213 -1.3192  0.0797
  733MOL0     H98906   1.075   6.986   5.886  2.9824 -0.8729  2.9720
  733MOL0     H98907   0.857   6.887   5.954 -2.3965  0.1681 -0.1178
  733MOL0     H98908   0.773   6.816   5.815 -3.2950  0.1913  2.4110
  733MOL0     H98909   0.810   6.592   5.908  1.6130  0.5679  0.4131
  733MOL0     H98910   0.894   6.667   6.054  1.8431  1.4658 -0.7450
  733MOL0     H98911   0.606   6.674   5.949  0.3902  0.1949 -0.3926
  733MOL0     H98912   0.679   6.804   6.058  0.3600 -0.4225  2.8647
  733MOL0     H98913   0.750   6.607   6.217  0.4314  0.8911 -1.7719
  733MOL0     H98914   0.661   6.505   6.136  3.6388 -0.2476  0.4585
  733MOL0     H98915   0.474   6.416   6.113  1.4056  0.5218  1.3729
  733MOL0     H98916   0.250   6.365   6.042  1.6449  1.3684 -1.1546
  733MOL0     H98917  -0.238   6.310   6.178 -0.7377 -0.4455 -2.2190
  733MOL0     H98918  -0.471   6.301   6.133  1.8803 -1.6800  1.5436
  733MOL0     H98919  -0.695   6.690   6.064 -1.1042 -0.2939  2.2134
  733MOL0     H98920  -0.651   6.621   5.902 -0.9355 -0.2201  1.0368
  733MOL0     H98921  -0.856   6.493   6.085  1.8375  0.1241  1.1017
  733MOL0     H98922  -0.898   6.641   5.999  0.6202  0.5385  2.1367
  733MOL0     H98923  -0.789   6.478   5.799  1.4357 -0.1869  1.6086
  733MOL0     H98924  -0.859   6.363   5.902 -1.2954  0.2501 -1.0371
  733MOL0     H98925  -1.001   6.580   5.760  1.0809 -0.3174  0.1895
  733MOL0     H98926  -1.076   6.521   5.906  2.2675 -3.0875  3.2270
  733MOL0     H98927  -1.091   6.292   5.819 -0.0278 -1.8163 -1.1333
  733MOL0     H98928  -0.964   6.326   5.703 -0.6051 -4.7424  2.3206
  733MOL0     H98929  -1.185   6.285   5.595 -0.2473 -1.5806  1.6575
  733MOL0     H98930  -1.257   6.415   5.695 -1.3852 -0.8753 -2.1721
  733MOL0     H98931  -1.140   6.590   5.570  0.4824  1.5746 -3.2481
  733MOL0     H98932  -1.255   6.499   5.484 -1.3234 -1.3050  1.6122
  733MOL0     H98933  -0.943   6.472   5.474 -0.6039  1.3801 -0.5635
  733MOL0     H98934  -1.061   6.349   5.402  2.5634 -0.2393 -0.2905
  733MOL0     H98935  -0.467   6.727   6.065  0.9355  0.6957 -0.1125
  733MOL0     H98936  -0.225   6.739   6.135 -0.5332 -0.0371  1.7075
  733MOL0     H98937   0.093   6.672   6.295 -2.9223 -2.8191 -0.7317
  733MOL0     H98938   0.343   6.765   6.316  3.4499  0.2236 -2.6499
  733MOL0     H98939   1.417   6.685   5.049 -2.0525 -0.8349 -0.7556
  733MOL0     H98940   1.290   6.591   4.882 -1.1449 -1.7699 -2.1637
  733MOL0     H98941   1.152   6.260   4.638  2.5291  1.5606  0.3790
  733MOL0     H98942   0.950   6.246   4.523  0.7264 -0.3673 -0.6994
  733MOL0     H98943   0.740   6.320   4.203  1.5409  0.8784 -0.6471
  733MOL0     H98944   0.784   6.291   4.378  0.6783 -2.2062  0.6842
  733MOL0     H98945   0.771   6.078   4.294 -0.0318  1.6336  1.6290
  733MOL0     H98946   0.947   6.118   4.306  1.0216 -1.8676 -1.5325
  733MOL0     H98947   0.937   6.161   4.054  1.8203 -0.9920  0.4698
  733MOL0     H98948   0.769   6.092   4.070 -1.2119 -0.8111  2.0462
  733MOL0     H98949   1.049   5.958   4.109 -0.0819 -2.3024 -0.5539
  733MOL0     H98950   0.900   5.886   4.175 -0.9177 -3.1991 -2.9592
  733MOL0     H98951   0.814   5.806   3.781  0.4089 -2.2953  0.4130
  733MOL0     H98952   1.131   6.522   4.224 -1.3914  1.6613  0.0473
  733MOL0     H98953   1.300   6.635   4.262  1.3772 -1.4160 -0.1669
  733MOL0     H98954   1.334   6.673   4.431 -0.0923  0.0331 -0.2785
  733MOL0     H98955   1.420   6.539   4.342 -0.5124 -2.9603  1.2042
  734MOL0     O98956   1.395   3.816   6.108 -0.1092  0.0009 -0.6018
  734MOL0     C98957   1.395   3.695   6.137  0.2117  0.3921  0.1355
  734MOL0     O98958   1.501   3.616   6.145 -0.2669 -0.3414 -0.9504
  734MOL0     C98959   1.628   3.661   6.105 -0.3174 -0.1490 -0.1360
  734MOL0     C98960   1.732   3.597   6.172  0.3526 -0.5112  0.1933
  734MOL0     C98961   1.863   3.626   6.143  0.3979  0.5436  0.3075
  734MOL0     C98962   1.891   3.716   6.042 -0.9671 -0.3556 -0.6076
  734MOL0     O98963   2.021   3.755   6.013 -0.3284 -0.1467 -0.6647
  734MOL0     C98964   2.130   3.667   6.051 -0.2907  0.3972 -0.0984
  734MOL0     C98965   2.246   3.744   5.995 -0.8797 -0.3121  0.1936
  734MOL0     C98966   2.379   3.676   6.029  0.4409 -0.5207  0.0553
  734MOL0     C98967   2.491   3.768   6.004  0.4736 -1.1591  0.1856
  734MOL0     C98968   2.636   3.719   6.013  0.6417 -0.8991 -0.6259
  734MOL0     C98969   2.746   3.822   5.980  0.3832 -0.8436  0.1941
  734MOL0     C98970   2.872   3.758   5.913 -0.0557 -0.2793  0.0895
  734MOL0     C98971   2.946   3.884   5.867  0.4180  0.8009  1.0514
  734MOL0     N98972   3.086   3.871   5.836  0.6752  0.1451  1.2641
  734MOL0     C98973   3.178   3.898   5.928 -0.2233 -0.6621 -0.1799
  734MOL0     C98974   3.290   3.908   5.850  0.1352  0.3407  0.1699
  734MOL0     C98975   3.433   3.921   5.904  0.4494  0.0232 -0.5519
  734MOL0     C98976   3.474   4.063   5.916  0.2818 -0.2473 -0.0289
  734MOL0     C98977   3.579   4.116   5.814  1.0685 -0.3871  0.0320
  734MOL0     C98978   3.637   4.247   5.862 -0.0409 -0.7708  0.1683
  734MOL0     O98979   3.695   4.236   5.994  0.1084  0.3941 -0.0801
  734MOL0     C98980   3.815   4.174   6.009 -0.0272  0.5725  0.6866
  734MOL0     C98981   3.855   4.143   6.135  0.0960 -0.9094  0.2469
  734MOL0     C98982   3.978   4.079   6.165 -0.3085  1.1447 -0.5481
  734MOL0     C98983   4.061   4.052   6.061  0.3052  0.5849 -0.0042
  734MOL0     C98984   4.196   4.000   6.098 -0.3677 -1.4939 -0.1274
  734MOL0     O98985   4.212   3.956   6.227  0.3670  0.5721  0.1119
  734MOL0     C98986   4.339   3.901   6.258 -0.0390 -0.2528 -0.0634
  734MOL0     C98987   4.441   3.999   6.276  0.1197 -0.4109 -0.1053
  734MOL0     C98988   4.571   3.965   6.291  0.4732 -0.0118 -0.8655
  734MOL0     C98989   4.608   3.830   6.304  0.3546  1.0428  0.5495
  734MOL0     O98990   4.744   3.804   6.322  0.5848  0.8045  0.2322
  734MOL0     C98991   4.792   3.672   6.359 -0.5497  0.0431  0.4346
  734MOL0     C98992   4.942   3.667   6.335  0.1112 -0.1817  0.7113
  734MOL0     C98993   4.976   3.672   6.185  0.5702 -0.2253  0.5748
  734MOL0     C98994   5.127   3.687   6.159 -0.7344  0.2362 -0.0465
  734MOL0     C98995   5.208   3.577   6.236 -0.3743  0.2720  0.1341
  734MOL0     C98996   5.348   3.558   6.177  0.6336  1.0424  1.1174
  734MOL0     C98997   5.429   3.683   6.202 -0.7136  0.3111  0.3467
  734MOL0     C98998   5.580   3.649   6.171  0.0972  0.1142  0.5882
  734MOL0    Cl98999   5.689   3.786   6.227  0.1014  0.3857  0.0770
  734MOL0     C99000   4.501   3.735   6.293  0.0722 -0.8184 -0.3401
  734MOL0     C99001   4.370   3.769   6.264  0.8236 -0.8889  1.2618
  734MOL0     O99002   4.287   4.003   6.010 -0.5335 -0.0873  0.1485
  734MOL0     C99003   4.020   4.067   5.931 -0.1577  0.2450 -0.2563
  734MOL0     C99004   3.900   4.125   5.900  0.1116  0.1213 -0.9011
  734MOL0     N99005   3.265   3.875   5.716 -0.2377  0.2316 -0.5941
  734MOL0     N99006   3.135   3.846   5.718 -0.3505 -0.2313  0.6914
  734MOL0     C99007   1.785   3.790   5.985 -0.7888  0.4100 -0.2778
  734MOL0     C99008   1.651   3.766   6.013 -0.5082  0.0039  0.2978
  734MOL0     C99009   1.268   3.629   6.176  0.2769  0.7194  0.3964
  734MOL0     C99010   1.269   3.500   6.238 -0.1004 -0.4693 -0.6559
  734MOL0     C99011   1.148   3.446   6.287 -0.6214  0.5175 -0.8050
  734MOL0     C99012   1.030   3.513   6.283 -0.2686  0.1727 -0.3228
  734MOL0     O99013   0.915   3.465   6.331  0.7741  0.6486 -0.4159
  734MOL0     C99014   0.859   3.348   6.281  0.8746 -0.3392 -0.2045
  734MOL0     C99015   0.725   3.316   6.347  0.5956 -0.5402 -0.5026
  734MOL0     C99016   0.625   3.438   6.366  0.0423  0.6853  0.5329
  734MOL0     C99017   0.624   3.547   6.260  1.0842 -0.0677  0.5140
  734MOL0     C99018   0.529   3.651   6.282  0.2170 -0.5442 -1.1194
  734MOL0     C99019   0.448   3.746   6.290  0.3423 -0.7927  0.6810
  734MOL0     C99020   1.035   3.636   6.221  0.2906 -0.5468 -0.2386
  734MOL0     C99021   1.147   3.692   6.159 -0.2097  0.5784  0.3495
  734MOL0     C99022   1.124   3.831   6.100 -0.3273 -0.1655  0.0891
  734MOL0     H99023   1.708   3.519   6.243 -1.3295  1.3714  1.8550
  734MOL0     H99024   1.933   3.577   6.210 -2.5400 -0.4240  2.9679
  734MOL0     H99025   2.147   3.669   6.160  2.4372 -1.0853 -0.4066
  734MOL0     H99026   2.134   3.567   6.007  1.1160  1.2044 -1.9479
  734MOL0     H99027   2.245   3.851   6.017  0.2515  0.5599 -3.3130
  734MOL0     H99028   2.253   3.735   5.886 -1.2118 -0.1916  0.1618
  734MOL0     H99029   2.399   3.587   5.968  4.8477  1.0130 -1.1668
  734MOL0     H99030   2.385   3.635   6.130 -0.5915 -0.4141  0.1658
  734MOL0     H99031   2.479   3.803   5.901  2.8724 -0.8005 -0.0359
  734MOL0     H99032   2.494   3.854   6.071  0.4980 -1.4954  0.6203
  734MOL0     H99033   2.646   3.687   6.117 -0.6673 -0.1202 -0.2279
  734MOL0     H99034   2.643   3.634   5.945  0.9853  1.8706 -4.4029
  734MOL0     H99035   2.699   3.889   5.908 -0.3437 -1.7374 -0.1882
  734MOL0     H99036   2.771   3.872   6.074 -0.3473 -1.1673  0.5724
  734MOL0     H99037   2.846   3.693   5.829 -0.1008 -0.9384  0.6062
  734MOL0     H99038   2.933   3.696   5.979  0.5949 -1.4314 -1.5293
  734MOL0     H99039   2.901   3.908   5.770  0.9825 -1.5175  0.1566
  734MOL0     H99040   2.945   3.970   5.935  2.6650  1.1683  0.6805
  734MOL0     H99041   3.163   3.915   6.034 -2.2788 -3.2835  0.0745
  734MOL0     H99042   3.446   3.862   5.995  0.8481  2.8929  1.3467
  734MOL0     H99043   3.495   3.869   5.830  1.4280 -1.4049  1.1868
  734MOL0     H99044   3.378   4.116   5.921 -0.9125 -2.3858  3.2780
  734MOL0     H99045   3.524   4.060   6.014  0.3789 -4.3258 -0.0485
  734MOL0     H99046   3.522   4.149   5.726  0.2440  3.6547  1.8665
  734MOL0     H99047   3.656   4.040   5.803  0.6589 -1.0519  1.5711
  734MOL0     H99048   3.559   4.324   5.867  0.6569 -0.1093  1.7565
  734MOL0     H99049   3.714   4.289   5.797  3.5147 -2.9314  2.6662
  734MOL0     H99050   3.791   4.181   6.215  1.1950  2.4140 -0.2826
  734MOL0     H99051   4.013   4.063   6.266 -0.1502  0.7045 -0.6723
  734MOL0     H99052   4.418   4.105   6.272  1.9562  0.0561  0.8021
  734MOL0     H99053   4.653   4.036   6.297  3.5600 -3.3177 -0.6946
  734MOL0     H99054   4.772   3.650   6.464  2.3471 -1.1838  0.8265
  734MOL0     H99055   4.734   3.599   6.301  2.5914 -1.7422 -0.7226
  734MOL0     H99056   4.978   3.751   6.395 -0.6466 -0.2132  1.2138
  734MOL0     H99057   4.976   3.572   6.379 -0.3016 -1.3943 -1.4462
  734MOL0     H99058   4.940   3.571   6.165 -2.5260  1.0178 -0.7447
  734MOL0     H99059   4.910   3.736   6.126  1.7071 -0.2848 -0.8292
  734MOL0     H99060   5.161   3.784   6.196 -2.9049  1.7980 -1.8709
  734MOL0     H99061   5.150   3.697   6.053 -1.7400 -1.2911 -0.4506
  734MOL0     H99062   5.144   3.488   6.239  0.3348 -0.2951 -0.9973
  734MOL0     H99063   5.211   3.601   6.343 -0.9292 -1.3172  0.5404
  734MOL0     H99064   5.401   3.472   6.217  1.2734  1.5658  1.4098
  734MOL0     H99065   5.338   3.542   6.069  0.5424  0.0983  1.2626
  734MOL0     H99066   5.422   3.719   6.305  1.0876 -0.6919  0.8744
  734MOL0     H99067   5.400   3.764   6.134  0.9799  1.4926  0.9475
  734MOL0     H99068   5.601   3.562   6.233  0.3841  0.3528  0.8315
  734MOL0     H99069   5.592   3.612   6.069 -5.1315 -2.0986  0.4795
  734MOL0     H99070   4.531   3.630   6.288  1.6024 -0.3853 -0.5768
  734MOL0     H99071   4.292   3.700   6.233 -0.3359 -1.1272  4.3369
  734MOL0     H99072   4.084   4.023   5.855  2.7641  0.9419  1.6010
  734MOL0     H99073   3.868   4.132   5.797 -2.7364  0.7205 -0.0848
  734MOL0     H99074   1.814   3.866   5.913  1.0543  0.6809  0.6834
  734MOL0     H99075   1.565   3.801   5.956 -0.5095  0.4473  0.5709
  734MOL0     H99076   1.358   3.438   6.240  0.3187 -0.0260  3.8675
  734MOL0     H99077   1.159   3.343   6.321  2.7887  1.3821  1.1663
  734MOL0     H99078   0.925   3.260   6.277 -0.3679 -1.3007 -0.0094
  734MOL0     H99079   0.827   3.363   6.178 -0.3678  1.5598  0.4243
  734MOL0     H99080   0.735   3.290   6.453  1.8325  1.3528 -0.1196
  734MOL0     H99081   0.668   3.244   6.288  1.3215  0.7303 -2.8621
  734MOL0     H99082   0.638   3.487   6.463 -2.9906  3.0541 -0.0982
  734MOL0     H99083   0.528   3.389   6.377  0.3176 -0.0440 -0.2162
  734MOL0     H99084   0.719   3.601   6.259 -1.1384  4.5641  2.7376
  734MOL0     H99085   0.613   3.518   6.155 -1.2319 -2.4721  1.2983
  734MOL0     H99086   0.376   3.822   6.312 -0.8354 -1.4390 -0.8383
  734MOL0     H99087   0.946   3.697   6.232  0.3605 -0.2289 -1.3839
  734MOL0     H99088   1.187   3.849   6.012  3.0832 -1.2203  2.1333
  734MOL0     H99089   1.018   3.830   6.072 -1.2619  0.5040  3.2043
  734MOL0     H99090   1.137   3.913   6.170  3.6784 -1.7546  1.4842
  735MOL0     O99091   6.538   3.166   5.218  0.3849 -0.1650 -0.2646
  735MOL0     C99092   6.548   3.139   5.337 -0.7898  0.0817 -0.4468
  735MOL0     O99093   6.447   3.125   5.425 -0.1290  0.6631  0.4607
  735MOL0     C99094   6.334   3.169   5.385 -0.4114 -0.6447 -0.1811
  735MOL0     C99095   6.316   3.304   5.360  1.2651 -0.1795 -0.7738
  735MOL0     C99096   6.201   3.356   5.305  0.6849  0.9592 -0.1190
  735MOL0     C99097   6.102   3.268   5.260 -0.5251 -0.1803 -0.0536
  735MOL0     O99098   5.979   3.315   5.211 -0.6245  0.4664 -0.1991
  735MOL0     C99099   5.902   3.233   5.118 -0.0368 -0.3258 -0.2540
  735MOL0     C99100   5.790   3.322   5.080  0.7662  0.0302  0.0502
  735MOL0     C99101   5.842   3.446   4.992 -0.3949  0.3175  0.4810
  735MOL0     C99102   5.734   3.558   4.978  0.1014 -0.5662 -0.3695
  735MOL0     C99103   5.614   3.507   4.877 -0.1768 -0.4917 -0.5422
  735MOL0     C99104   5.498   3.603   4.884  0.6959 -0.4466 -0.1311
  735MOL0     C99105   5.402   3.576   4.762  0.3965 -0.3655 -0.0025
  735MOL0     C99106   5.303   3.690   4.756 -0.2543 -0.4801  0.2148
  735MOL0     N99107   5.222   3.689   4.632  0.1849  0.0462 -0.6095
  735MOL0     C99108   5.275   3.703   4.506 -0.1852  0.3359 -0.5215
  735MOL0     C99109   5.177   3.635   4.438  0.4164  0.9190 -0.1211
  735MOL0     C99110   5.178   3.619   4.285 -0.6361  0.1680 -0.4261
  735MOL0     C99111   5.235   3.478   4.252 -0.5268 -0.4574  0.0448
  735MOL0     C99112   5.388   3.458   4.281  0.7915  0.3095 -0.3685
  735MOL0     C99113   5.433   3.320   4.238  0.6164  0.3642 -0.5344
  735MOL0     O99114   5.573   3.332   4.201 -0.0472 -0.6638 -0.2840
  735MOL0     C99115   5.612   3.312   4.070  0.0903 -0.1567  0.5050
  735MOL0     C99116   5.522   3.310   3.964 -0.0773 -0.0532 -0.1586
  735MOL0     C99117   5.569   3.302   3.832  0.3390 -0.5343  0.1826
  735MOL0     C99118   5.702   3.294   3.806  1.3953 -0.1364  0.3195
  735MOL0     C99119   5.744   3.279   3.664  0.5710  0.4206  0.2425
  735MOL0     O99120   5.640   3.279   3.574  0.2443 -0.5300  0.3131
  735MOL0     C99121   5.655   3.227   3.447 -0.2391 -0.2737  0.1799
  735MOL0     C99122   5.756   3.146   3.399  0.2664 -0.4443 -0.5522
  735MOL0     C99123   5.774   3.114   3.255 -0.3931  0.3278 -0.4533
  735MOL0     C99124   5.682   3.168   3.165  0.1929  0.7660  0.1750
  735MOL0     O99125   5.676   3.137   3.028  0.3750  0.5695 -0.2757
  735MOL0     C99126   5.648   2.995   3.005  0.0993 -0.4076 -0.5952
  735MOL0     C99127   5.584   2.965   2.872  0.8157 -0.2630 -0.7979
  735MOL0     C99128   5.647   3.036   2.752 -0.2293  0.0021 -0.1070
  735MOL0     C99129   5.540   3.049   2.638 -0.4591  0.3118 -0.0817
  735MOL0     C99130   5.607   3.127   2.525  0.6946  0.0703 -0.3800
  735MOL0     C99131   5.583   3.270   2.543  0.7658  0.5050 -0.5820
  735MOL0     C99132   5.620   3.359   2.424  0.2864  0.3428  0.0845
  735MOL0     C99133   5.622   3.513   2.456  0.1617 -0.7462  0.3899
  735MOL0    Cl99134   5.783   3.566   2.499  0.1712 -0.0714 -0.1253
  735MOL0     C99135   5.576   3.253   3.212 -0.6712  0.2833  0.8089
  735MOL0     C99136   5.562   3.270   3.349  0.3946 -0.3538 -0.2881
  735MOL0     O99137   5.866   3.260   3.647 -0.5191 -0.0510  0.2514
  735MOL0     C99138   5.798   3.287   3.916  0.4635 -0.0137 -1.0116
  735MOL0     C99139   5.749   3.292   4.045  0.4703  0.1764  0.1982
  735MOL0     N99140   5.068   3.601   4.506 -0.2441 -0.1433 -0.5628
  735MOL0     N99141   5.094   3.638   4.626 -0.8163  0.0868 -0.7034
  735MOL0     C99142   6.121   3.132   5.279  1.2933  0.0855 -0.0162
  735MOL0     C99143   6.236   3.081   5.334  0.0881 -0.6854 -0.0965
  735MOL0     C99144   6.684   3.109   5.392  0.5033  0.0896 -1.3572
  735MOL0     C99145   6.777   3.057   5.303 -0.0609 -0.4366  0.3913
  735MOL0     C99146   6.896   3.004   5.354  0.8402  0.4384 -0.3860
  735MOL0     C99147   6.934   3.008   5.488 -0.3288 -0.3027 -0.0018
  735MOL0     O99148   7.057   2.950   5.529 -0.1874  0.1881  0.4644
  735MOL0     C99149   7.067   2.922   5.674  0.1706 -0.7531 -0.7034
  735MOL0     C99150   7.180   2.825   5.686 -0.6110 -1.1793 -0.4015
  735MOL0     C99151   7.234   2.832   5.831  0.7697  0.1304  0.1378
  735MOL0     C99152   7.349   2.733   5.858  0.1973  0.0531 -0.6404
  735MOL0     C99153   7.299   2.598   5.867 -0.2374  0.2087  0.3471
  735MOL0     C99154   7.241   2.487   5.850 -0.1556 -0.1325 -0.7427
  735MOL0     C99155   6.831   3.063   5.569 -0.5384  0.3063 -0.3157
  735MOL0     C99156   6.707   3.113   5.536 -0.3922 -0.3184  0.6103
  735MOL0     C99157   6.633   3.182   5.650 -0.3662  0.2482  0.1180
  735MOL0     H99158   6.398   3.371   5.386  0.3333  1.0102 -0.8168
  735MOL0     H99159   6.183   3.460   5.282 -3.0569  0.8658  1.6836
  735MOL0     H99160   5.967   3.197   5.038  2.8458  0.0564  1.7810
  735MOL0     H99161   5.852   3.148   5.165 -1.7750  0.6684 -0.1831
  735MOL0     H99162   5.746   3.369   5.168 -0.4555 -0.0029 -0.5142
  735MOL0     H99163   5.716   3.262   5.026  1.5016 -0.5875 -0.2955
  735MOL0     H99164   5.882   3.419   4.894  2.1505  3.8175  0.3502
  735MOL0     H99165   5.924   3.499   5.042  0.2286 -1.0977  1.0036
  735MOL0     H99166   5.695   3.582   5.078  1.1094  1.3183 -0.3927
  735MOL0     H99167   5.768   3.655   4.943  0.6830 -0.5569  0.2081
  735MOL0     H99168   5.654   3.502   4.775  1.6003 -4.7322  0.1554
  735MOL0     H99169   5.571   3.409   4.901  0.9801 -1.4091 -2.0687
  735MOL0     H99170   5.443   3.588   4.977  1.5438  3.6566  1.2271
  735MOL0     H99171   5.544   3.702   4.888  2.2149 -1.1592  1.3733
  735MOL0     H99172   5.351   3.481   4.777 -0.4147 -0.1762 -1.4075
  735MOL0     H99173   5.465   3.564   4.673  1.9495 -0.4761  1.0803
  735MOL0     H99174   5.235   3.669   4.839 -0.2477 -1.0966  0.0692
  735MOL0     H99175   5.344   3.791   4.770 -0.0345 -0.3356 -1.2815
  735MOL0     H99176   5.367   3.755   4.481  2.4376 -2.7173  1.9370
  735MOL0     H99177   5.079   3.627   4.238 -0.9502  1.7680  0.4152
  735MOL0     H99178   5.240   3.690   4.228 -2.0423 -1.4265 -4.3164
  735MOL0     H99179   5.175   3.404   4.306 -0.0478 -0.5393  0.4779
  735MOL0     H99180   5.223   3.463   4.144 -4.1858 -3.9336  0.6979
  735MOL0     H99181   5.408   3.461   4.389  0.6113  0.8580 -0.3483
  735MOL0     H99182   5.450   3.540   4.244 -0.7007  2.1554  1.0167
  735MOL0     H99183   5.373   3.267   4.163  3.5195 -2.0491 -1.3695
  735MOL0     H99184   5.425   3.261   4.330 -1.8847 -1.8010 -1.9938
  735MOL0     H99185   5.416   3.333   3.967 -1.0850 -3.8605 -0.8252
  735MOL0     H99186   5.497   3.290   3.752  1.4365  0.0896 -0.9236
  735MOL0     H99187   5.836   3.117   3.467  0.3608  1.9455  0.4512
  735MOL0     H99188   5.857   3.051   3.225 -1.2160 -2.8761  3.1460
  735MOL0     H99189   5.752   2.959   3.001  0.1081 -0.2831 -1.7186
  735MOL0     H99190   5.594   2.953   3.090  0.7545 -3.1746 -1.4535
  735MOL0     H99191   5.590   2.856   2.866 -0.9366 -1.0882  5.5865
  735MOL0     H99192   5.480   2.997   2.886  0.7166 -0.5179 -0.9321
  735MOL0     H99193   5.662   3.142   2.771 -1.9171  0.5144 -1.3476
  735MOL0     H99194   5.740   2.997   2.711 -0.0069 -1.4107  1.6140
  735MOL0     H99195   5.442   3.090   2.663 -0.9921  0.0229 -1.5322
  735MOL0     H99196   5.527   2.958   2.577  1.7613  2.7698 -4.8145
  735MOL0     H99197   5.561   3.110   2.428 -2.7865  3.8484  0.3437
  735MOL0     H99198   5.714   3.104   2.522  1.0232  1.5792 -1.3545
  735MOL0     H99199   5.479   3.288   2.570  0.9466 -0.9262  1.2551
  735MOL0     H99200   5.647   3.309   2.623  0.9306 -0.6129 -0.1527
  735MOL0     H99201   5.548   3.334   2.345  1.2868 -0.7931 -0.4946
  735MOL0     H99202   5.717   3.333   2.383  0.8255 -1.3897  2.2641
  735MOL0     H99203   5.608   3.552   2.355  1.6802 -2.7572 -0.6664
  735MOL0     H99204   5.543   3.551   2.522 -1.6411  1.2317 -2.6689
  735MOL0     H99205   5.499   3.295   3.148  1.1937  0.7542 -1.2355
  735MOL0     H99206   5.477   3.319   3.397  2.5411 -0.0470  3.5623
  735MOL0     H99207   5.902   3.263   3.894  0.6277  0.5475 -0.8471
  735MOL0     H99208   5.812   3.296   4.133  1.9203 -2.9055 -0.5451
  735MOL0     H99209   6.045   3.061   5.246 -0.8929  1.2826  2.1276
  735MOL0     H99210   6.239   2.973   5.326 -1.7586 -0.9895  2.0563
  735MOL0     H99211   6.763   3.049   5.195 -0.6657 -1.1498  0.5106
  735MOL0     H99212   6.968   2.973   5.279  0.1417 -0.5557 -0.6672
  735MOL0     H99213   6.973   2.885   5.714  2.0291 -2.6715  2.2535
  735MOL0     H99214   7.082   3.021   5.720 -1.9424  0.1722 -1.8640
  735MOL0     H99215   7.259   2.847   5.613 -0.4844  0.0147  0.0871
  735MOL0     H99216   7.146   2.725   5.655 -3.0661 -0.5161 -0.0650
  735MOL0     H99217   7.158   2.813   5.908  0.2659 -0.8156 -0.5761
  735MOL0     H99218   7.277   2.930   5.853  0.2761  0.4617 -0.3449
  735MOL0     H99219   7.437   2.739   5.794  1.9367  5.1338  1.7179
  735MOL0     H99220   7.396   2.773   5.948 -0.5046  2.4870 -1.2712
  735MOL0     H99221   7.209   2.385   5.844 -0.9485  0.0854 -0.3477
  735MOL0     H99222   6.855   3.080   5.673  0.2802 -2.7697  0.0950
  735MOL0     H99223   6.645   3.128   5.744  1.1663 -1.0058 -0.7334
  735MOL0     H99224   6.684   3.278   5.660  0.1440  0.2882 -2.2755
  735MOL0     H99225   6.525   3.183   5.633 -0.4290 -3.2397 -0.4914
  736MOL0     O99226   7.054   6.547   4.694 -0.2628  0.3340 -0.0007
  736MOL0     C99227   7.030   6.589   4.582  0.1682 -0.5024  0.2846
  736MOL0     O99228   6.925   6.676   4.564  0.3724  0.2905  0.0705
  736MOL0     C99229   6.825   6.671   4.662  0.1201 -0.2259  0.1373
  736MOL0     C99230   6.712   6.601   4.647  0.6920 -0.2348  0.7764
  736MOL0     C99231   6.628   6.568   4.752  0.7001 -0.3807 -0.3244
  736MOL0     C99232   6.636   6.646   4.867  0.2611 -0.1258 -0.0000
  736MOL0     O99233   6.534   6.618   4.956  0.1439 -0.1967  0.5296
  736MOL0     C99234   6.507   6.724   5.048  0.2242  0.4134 -0.7208
  736MOL0     C99235   6.401   6.690   5.146  0.4575 -0.0203 -0.8228
  736MOL0     C99236   6.386   6.804   5.250 -0.1828  0.2364 -0.2939
  736MOL0     C99237   6.483   6.814   5.364 -0.2687  0.7645  0.1970
  736MOL0     C99238   6.475   6.947   5.442  0.3800  0.6678  0.3984
  736MOL0     C99239   6.602   6.987   5.527  0.6847  1.3202  0.6180
  736MOL0     C99240   6.591   7.115   5.605  0.1445  0.0484 -0.4185
  736MOL0     C99241   6.628   7.098   5.750 -0.2336 -1.2202 -0.2162
  736MOL0     N99242   6.522   7.051   5.833  0.0437 -1.0961  0.6605
  736MOL0     C99243   6.442   6.950   5.790 -0.3877 -0.0827 -0.3475
  736MOL0     C99244   6.351   6.935   5.892  0.4609 -0.3768  1.2828
  736MOL0     C99245   6.236   6.838   5.897  0.5341 -0.3105 -0.7124
  736MOL0     C99246   6.186   6.764   5.764 -0.1018 -1.0894 -0.4666
  736MOL0     C99247   6.085   6.653   5.788  0.0180  0.1466  0.3696
  736MOL0     C99248   6.095   6.548   5.678 -0.2587 -0.0992  0.1847
  736MOL0     O99249   6.224   6.486   5.653 -0.4714  0.3794 -0.0817
  736MOL0     C99250   6.236   6.435   5.529  0.1577  1.0301 -0.3522
  736MOL0     C99251   6.276   6.300   5.527 -0.1915 -0.1585 -0.3603
  736MOL0     C99252   6.292   6.229   5.403 -0.4388  0.2058 -0.4404
  736MOL0     C99253   6.271   6.290   5.281  0.9632 -0.3972  0.2639
  736MOL0     C99254   6.280   6.214   5.150 -0.1511  0.2960 -0.5321
  736MOL0     O99255   6.231   6.267   5.040  0.1674 -0.1694  0.9495
  736MOL0     C99256   6.242   6.210   4.921  1.4822 -0.0749  0.4518
  736MOL0     C99257   6.311   6.278   4.824  0.2122 -0.2618  0.6194
  736MOL0     C99258   6.338   6.219   4.705 -0.6199  0.2852 -0.5558
  736MOL0     C99259   6.305   6.094   4.681 -0.1206  0.4177 -0.0766
  736MOL0     O99260   6.333   6.048   4.557  0.0178 -0.6156  0.4347
  736MOL0     C99261   6.368   5.907   4.551  0.1959  0.5327 -0.0480
  736MOL0     C99262   6.444   5.894   4.416  0.1292 -0.5570  0.5153
  736MOL0     C99263   6.462   5.738   4.379 -0.5802  0.7704 -0.0142
  736MOL0     C99264   6.555   5.722   4.266 -0.1027 -0.0648  0.5402
  736MOL0     C99265   6.540   5.582   4.196  0.4803  0.1634 -0.4361
  736MOL0     C99266   6.608   5.573   4.065 -0.8632 -0.9715  0.7654
  736MOL0     C99267   6.757   5.615   4.065  1.2047 -0.1657  0.9048
  736MOL0     C99268   6.844   5.494   4.090 -0.0238 -1.3310 -0.1057
  736MOL0    Cl99269   6.863   5.449   4.263  0.1752 -0.0480 -0.5910
  736MOL0     C99270   6.239   6.018   4.780  0.4832  0.9099  0.1950
  736MOL0     C99271   6.201   6.079   4.897 -0.3694  0.3020  0.4915
  736MOL0     O99272   6.330   6.103   5.152 -0.2202 -0.1552 -0.3205
  736MOL0     C99273   6.229   6.426   5.287  0.1763  0.0578  0.4437
  736MOL0     C99274   6.207   6.490   5.408  0.8404 -0.5526 -0.0871
  736MOL0     N99275   6.373   7.029   5.990 -0.1360 -0.3206  0.2138
  736MOL0     N99276   6.476   7.102   5.961 -0.9194 -0.7206 -1.3465
  736MOL0     C99277   6.746   6.743   4.880  0.6919 -0.0882 -0.3657
  736MOL0     C99278   6.836   6.751   4.778  0.1234 -0.1554  0.6760
  736MOL0     C99279   7.123   6.578   4.463  0.1824 -0.1319  0.9478
  736MOL0     C99280   7.092   6.638   4.340  0.1042 -0.7744 -1.1893
  736MOL0     C99281   7.180   6.627   4.238 -0.4996 -0.1174 -0.1216
  736MOL0     C99282   7.307   6.568   4.251 -0.3837 -0.1862 -1.2027
  736MOL0     O99283   7.396   6.584   4.148 -0.1333 -0.6902  0.5010
  736MOL0     C99284   7.442   6.463   4.087 -0.5651  0.3637  0.0020
  736MOL0     C99285   7.342   6.421   3.984  0.6594  0.3249 -0.5762
  736MOL0     C99286   7.314   6.527   3.868  1.1436 -0.1403 -0.3073
  736MOL0     C99287   7.232   6.458   3.756  0.7668  0.2220 -0.4468
  736MOL0     C99288   7.312   6.470   3.632  0.0372  0.8778 -0.6347
  736MOL0     C99289   7.379   6.508   3.533 -0.4702  0.4900 -0.3226
  736MOL0     C99290   7.342   6.509   4.377 -0.7692  0.1795  0.1703
  736MOL0     C99291   7.247   6.508   4.478 -0.5677  0.4696  0.1324
  736MOL0     C99292   7.301   6.417   4.590  0.6641 -0.6251 -0.4745
  736MOL0     H99293   6.710   6.541   4.557 -2.4502  1.9985 -0.8345
  736MOL0     H99294   6.550   6.493   4.752  3.1552 -3.1683  1.6053
  736MOL0     H99295   6.599   6.743   5.105  1.1646  1.4765 -2.5021
  736MOL0     H99296   6.477   6.817   4.998 -0.8368  0.2950 -0.3202
  736MOL0     H99297   6.439   6.600   5.194 -2.3089  0.1737  2.0264
  736MOL0     H99298   6.315   6.665   5.083  0.2235 -2.0888  0.2528
  736MOL0     H99299   6.288   6.794   5.297 -1.0868  0.4823 -2.0163
  736MOL0     H99300   6.389   6.902   5.200  2.7326 -0.1926 -1.1401
  736MOL0     H99301   6.481   6.726   5.428  2.2086 -0.5523 -1.3778
  736MOL0     H99302   6.581   6.816   5.316 -0.7290 -1.4135 -0.9560
  736MOL0     H99303   6.458   7.029   5.371 -2.2421 -0.1024  0.0285
  736MOL0     H99304   6.382   6.945   5.500 -0.5552  0.6714 -1.0527
  736MOL0     H99305   6.646   6.914   5.595  0.4245  2.1857  1.7430
  736MOL0     H99306   6.680   7.010   5.454 -1.3618  0.9727 -1.8444
  736MOL0     H99307   6.487   7.151   5.602  0.1606  0.3657  1.6282
  736MOL0     H99308   6.651   7.197   5.566 -0.7465  2.5086  2.8841
  736MOL0     H99309   6.714   7.032   5.767 -1.2482 -2.4695  0.2495
  736MOL0     H99310   6.645   7.198   5.792 -1.0980 -1.3260  0.4056
  736MOL0     H99311   6.445   6.891   5.699  0.0721 -0.1377 -0.2982
  736MOL0     H99312   6.268   6.759   5.966  1.7342  0.6326 -0.1553
  736MOL0     H99313   6.148   6.884   5.942 -1.1748 -1.0592 -3.0747
  736MOL0     H99314   6.133   6.827   5.691 -1.2307 -0.8533  0.5213
  736MOL0     H99315   6.272   6.720   5.714 -0.4787 -0.7056 -1.4885
  736MOL0     H99316   5.983   6.691   5.801 -0.3649 -1.2634  1.8492
  736MOL0     H99317   6.107   6.599   5.881 -1.4220  0.3470  0.8409
  736MOL0     H99318   6.049   6.599   5.594 -2.2037  0.0538  1.2690
  736MOL0     H99319   6.025   6.471   5.712  2.0323 -1.9025  1.1438
  736MOL0     H99320   6.297   6.253   5.623  1.5938  1.1593 -0.0375
  736MOL0     H99321   6.317   6.124   5.409 -1.5321 -0.0425 -0.0631
  736MOL0     H99322   6.354   6.376   4.840  1.6991 -0.9198  0.8645
  736MOL0     H99323   6.393   6.268   4.625  1.1458 -0.4707  0.1615
  736MOL0     H99324   6.431   5.884   4.638 -1.9706 -1.0760  1.2197
  736MOL0     H99325   6.282   5.840   4.559 -0.4798  1.5514  2.1471
  736MOL0     H99326   6.397   5.948   4.333 -3.2695 -3.3118  0.4449
  736MOL0     H99327   6.542   5.939   4.434 -1.2404  1.8358  2.7026
  736MOL0     H99328   6.511   5.682   4.458  0.3244  0.7700 -0.5639
  736MOL0     H99329   6.365   5.694   4.355  0.3289 -2.8604  2.2066
  736MOL0     H99330   6.660   5.733   4.294 -0.3028 -1.8657  2.1812
  736MOL0     H99331   6.538   5.799   4.190 -1.3458 -1.5627 -0.7782
  736MOL0     H99332   6.435   5.560   4.175  0.5047  0.9356 -1.4694
  736MOL0     H99333   6.568   5.495   4.256  1.3751  0.1090 -0.9153
  736MOL0     H99334   6.599   5.471   4.025 -1.1125  0.5766 -3.7143
  736MOL0     H99335   6.560   5.632   3.986 -1.1494 -0.8625  1.0185
  736MOL0     H99336   6.781   5.702   4.127 -0.3115  0.3688  0.7862
  736MOL0     H99337   6.780   5.645   3.962 -1.0169 -0.7123  0.1943
  736MOL0     H99338   6.798   5.414   4.032  1.7999 -1.4945 -1.3779
  736MOL0     H99339   6.943   5.514   4.049  1.0290 -1.4190  2.2583
  736MOL0     H99340   6.207   5.917   4.754 -2.5026  1.1673  2.2944
  736MOL0     H99341   6.156   6.030   4.983  2.6933 -0.5128  1.7962
  736MOL0     H99342   6.221   6.488   5.199 -3.1473  0.3185  0.7956
  736MOL0     H99343   6.168   6.591   5.406  3.2930  0.4763 -2.0434
  736MOL0     H99344   6.761   6.789   4.977  1.0487 -2.9893  1.0629
  736MOL0     H99345   6.927   6.809   4.790 -0.6849  1.4686 -0.6618
  736MOL0     H99346   6.999   6.690   4.316  0.4669  0.1028 -0.7498
  736MOL0     H99347   7.154   6.652   4.135 -0.1810 -1.0824 -0.4496
  736MOL0     H99348   7.466   6.387   4.162 -0.1204  0.0457 -0.4668
  736MOL0     H99349   7.540   6.470   4.040  0.4724 -0.2565  1.9793
  736MOL0     H99350   7.245   6.392   4.025  2.0080 -2.8917  0.6169
  736MOL0     H99351   7.382   6.331   3.936  2.5667  2.2933 -3.0341
  736MOL0     H99352   7.405   6.572   3.827 -1.3191  2.1179 -3.8588
  736MOL0     H99353   7.259   6.614   3.906  0.4038 -0.7813  0.1266
  736MOL0     H99354   7.214   6.355   3.788 -3.1010  1.7404  3.1487
  736MOL0     H99355   7.131   6.500   3.750 -0.7533 -3.0739  0.0932
  736MOL0     H99356   7.425   6.530   3.439 -2.4618  2.1113 -0.9967
  736MOL0     H99357   7.436   6.461   4.401 -2.7115 -2.2333  3.9604
  736MOL0     H99358   7.307   6.475   4.682 -1.1228 -0.7717 -0.2424
  736MOL0     H99359   7.233   6.332   4.596 -0.9166  0.6714  0.9815
  736MOL0     H99360   7.402   6.376   4.581  1.0576 -0.1702  1.5129
  737MOL0     O99361   1.028   5.873   6.567  0.1021  0.0049 -0.7203
  737MOL0     C99362   0.980   5.786   6.645  0.4138 -0.0491  0.3169
  737MOL0     O99363   0.864   5.796   6.716 -0.1312 -0.0491  0.2720
  737MOL0     C99364   0.770   5.882   6.678  0.1749  0.2237 -0.3448
  737MOL0     C99365   0.678   5.916   6.777 -0.0809  0.1247  0.9468
  737MOL0     C99366   0.571   6.007   6.753  0.9069  0.3438  0.1020
  737MOL0     C99367   0.550   6.060   6.626  0.2148  0.3483  0.2386
  737MOL0     O99368   0.440   6.137   6.595  0.5078 -0.3535  0.6352
  737MOL0     C99369   0.351   6.184   6.693  0.8547  0.5347  0.6876
  737MOL0     C99370   0.257   6.279   6.616 -0.5450 -0.1801 -0.1589
  737MOL0     C99371   0.161   6.357   6.714 -0.1057 -0.1182  0.3415
  737MOL0     C99372   0.061   6.445   6.637  0.2723 -0.0069 -1.0025
  737MOL0     C99373  -0.038   6.488   6.742 -0.0588 -0.4552 -1.4178
  737MOL0     C99374  -0.115   6.623   6.705  0.1926  1.1569  0.0992
  737MOL0     C99375  -0.194   6.679   6.821 -0.0133  0.8620 -0.2362
  737MOL0     C99376  -0.304   6.574   6.876 -0.3914 -0.2997 -0.1503
  737MOL0     N99377  -0.413   6.541   6.792  0.6550 -0.0182 -0.1516
  737MOL0     C99378  -0.407   6.452   6.693  0.2490  0.4299  0.3932
  737MOL0     C99379  -0.535   6.447   6.644  0.4961 -0.0760 -0.4564
  737MOL0     C99380  -0.574   6.362   6.524 -0.6174 -0.3196 -0.8676
  737MOL0     C99381  -0.725   6.362   6.490  0.7531 -0.0106  0.0476
  737MOL0     C99382  -0.746   6.346   6.338  0.8186 -0.1347 -0.7820
  737MOL0     C99383  -0.883   6.303   6.291  1.2179  0.3343  1.0608
  737MOL0     O99384  -0.987   6.393   6.335  0.4748 -0.2232 -0.0131
  737MOL0     C99385  -1.107   6.385   6.270 -0.3377 -0.3804  0.5540
  737MOL0     C99386  -1.198   6.481   6.299 -0.1188  0.1941  0.4766
  737MOL0     C99387  -1.318   6.488   6.236  0.1562 -0.2883  0.2878
  737MOL0     C99388  -1.367   6.399   6.137 -0.1205 -0.0876 -0.5335
  737MOL0     C99389  -1.513   6.392   6.097 -0.2436 -0.8677  0.7813
  737MOL0     O99390  -1.544   6.277   6.030 -0.5954  0.3588 -0.2285
  737MOL0     C99391  -1.668   6.249   5.981 -0.5804  0.7693 -0.0289
  737MOL0     C99392  -1.784   6.313   6.016  0.3979 -0.2349 -0.3892
  737MOL0     C99393  -1.914   6.283   5.960 -0.1915 -0.0884 -1.3018
  737MOL0     C99394  -1.918   6.189   5.858  0.3782 -0.7533 -0.1490
  737MOL0     O99395  -2.036   6.162   5.803  0.4435 -0.1242 -0.4723
  737MOL0     C99396  -2.108   6.064   5.865  0.9596  1.1327 -0.2490
  737MOL0     C99397  -2.240   6.055   5.779 -0.7172  0.3414  0.7684
  737MOL0     C99398  -2.326   5.938   5.820  0.0399  0.8214 -0.8137
  737MOL0     C99399  -2.424   5.958   5.932 -0.0204  0.7527 -0.1008
  737MOL0     C99400  -2.525   5.840   5.938 -0.9955 -0.5706  0.5513
  737MOL0     C99401  -2.609   5.845   6.061 -0.0995  0.8720 -0.8610
  737MOL0     C99402  -2.551   5.785   6.183 -0.7334 -0.1769  0.2330
  737MOL0     C99403  -2.617   5.846   6.306  0.0051 -0.0058 -0.8094
  737MOL0    Cl99404  -2.574   6.014   6.328  0.3590  0.3468 -0.3229
  737MOL0     C99405  -1.803   6.131   5.813 -0.0842  0.3247 -0.2762
  737MOL0     C99406  -1.680   6.152   5.877  1.0041  0.1226  0.5436
  737MOL0     O99407  -1.589   6.483   6.132  0.0920 -0.1189  0.4090
  737MOL0     C99408  -1.265   6.307   6.095 -0.7579 -0.5177  0.1992
  737MOL0     C99409  -1.148   6.286   6.174  0.9851  0.8733  0.0306
  737MOL0     N99410  -0.605   6.545   6.707 -0.6720 -0.6894  0.3987
  737MOL0     N99411  -0.537   6.596   6.800  0.4265 -0.1941 -0.6030
  737MOL0     C99412   0.648   6.035   6.523 -0.5988  0.0706  0.5327
  737MOL0     C99413   0.748   5.938   6.550 -0.4448  0.3348  0.1999
  737MOL0     C99414   1.055   5.658   6.661 -0.0182 -0.0878 -0.6274
  737MOL0     C99415   0.980   5.536   6.679  0.1680 -0.4608  0.9417
  737MOL0     C99416   1.043   5.425   6.725 -0.5103  0.4742  0.1872
  737MOL0     C99417   1.179   5.424   6.750 -1.0190 -0.5765 -0.5163
  737MOL0     O99418   1.238   5.310   6.801  0.3242 -0.6606  0.1247
  737MOL0     C99419   1.168   5.190   6.831  0.4844  0.0858 -0.0509
  737MOL0     C99420   1.274   5.085   6.829 -0.1272 -1.1051 -0.1543
  737MOL0     C99421   1.361   5.099   6.957 -0.0640 -0.2502 -0.3127
  737MOL0     C99422   1.492   5.022   6.939 -0.7280 -0.2195  0.1065
  737MOL0     C99423   1.490   4.896   6.856  0.4456 -0.0250 -0.9212
  737MOL0     C99424   1.484   4.788   6.800 -0.9785  0.5423 -1.0351
  737MOL0     C99425   1.257   5.540   6.712 -0.2055  0.1783  0.4025
  737MOL0     C99426   1.195   5.654   6.676 -0.5358  0.5477 -0.3285
  737MOL0     C99427   1.292   5.774   6.649 -0.1459  0.6230 -0.4380
  737MOL0     H99428   0.690   5.864   6.872 -0.7266 -2.8990 -0.4997
  737MOL0     H99429   0.500   6.040   6.828  0.7785 -1.3250  0.7663
  737MOL0     H99430   0.288   6.106   6.738 -0.1947 -0.5690 -2.4595
  737MOL0     H99431   0.402   6.234   6.776  1.5686  0.2797  0.4117
  737MOL0     H99432   0.203   6.227   6.536 -0.9717 -0.2589  0.1718
  737MOL0     H99433   0.318   6.357   6.570 -1.1579  1.2511  1.3305
  737MOL0     H99434   0.227   6.419   6.773  2.5537 -1.2354 -1.2725
  737MOL0     H99435   0.107   6.290   6.782  1.5554 -1.7616  0.1281
  737MOL0     H99436   0.110   6.533   6.594  2.5622 -0.9988 -0.5186
  737MOL0     H99437   0.024   6.393   6.548  3.4589  1.1174 -3.1445
  737MOL0     H99438  -0.108   6.409   6.769  1.0995 -0.8033  0.8968
  737MOL0     H99439   0.009   6.506   6.840 -0.7639 -1.7387 -0.8187
  737MOL0     H99440  -0.036   6.688   6.666 -0.5318  0.2076 -3.2916
  737MOL0     H99441  -0.184   6.606   6.622 -0.2533 -0.7179  0.7863
  737MOL0     H99442  -0.233   6.780   6.808  1.2362  1.5201  0.9220
  737MOL0     H99443  -0.113   6.698   6.892  0.2639 -0.1601 -0.2632
  737MOL0     H99444  -0.266   6.482   6.921 -1.5398 -0.2244  1.0121
  737MOL0     H99445  -0.352   6.627   6.958 -0.4155 -0.2925 -0.1701
  737MOL0     H99446  -0.326   6.382   6.674 -0.4171 -0.1653 -0.2924
  737MOL0     H99447  -0.523   6.407   6.438  1.9357 -0.2599  0.5902
  737MOL0     H99448  -0.537   6.261   6.538  0.8493  0.2745 -0.2739
  737MOL0     H99449  -0.778   6.293   6.557 -0.4613  1.8152  1.0454
  737MOL0     H99450  -0.768   6.461   6.506 -1.4271 -0.8106 -0.4954
  737MOL0     H99451  -0.673   6.279   6.291  0.5007  1.0289 -3.0793
  737MOL0     H99452  -0.723   6.438   6.285 -2.9424  0.8915 -0.8975
  737MOL0     H99453  -0.923   6.209   6.331 -2.8254  1.6514  0.6314
  737MOL0     H99454  -0.868   6.284   6.185 -0.4673  1.8507  0.4982
  737MOL0     H99455  -1.163   6.550   6.375  1.4822  1.0119 -0.9363
  737MOL0     H99456  -1.380   6.572   6.266 -0.6732 -1.2584  1.3426
  737MOL0     H99457  -1.790   6.391   6.090 -0.8721 -0.4149 -0.2700
  737MOL0     H99458  -2.004   6.329   5.999  0.4291 -0.2173  0.3657
  737MOL0     H99459  -2.056   5.968   5.858  0.1917  0.7687 -1.4777
  737MOL0     H99460  -2.116   6.084   5.972  1.0095  0.4410 -0.1093
  737MOL0     H99461  -2.291   6.151   5.775  1.0778  1.2770 -0.7423
  737MOL0     H99462  -2.217   6.030   5.675 -1.2243 -0.4871  0.8371
  737MOL0     H99463  -2.386   5.912   5.732 -2.6287  1.0089  0.8425
  737MOL0     H99464  -2.257   5.864   5.861  0.7153  3.1299  2.6665
  737MOL0     H99465  -2.475   6.054   5.925 -1.3595  0.0920  0.1595
  737MOL0     H99466  -2.377   5.971   6.030 -0.6760  0.6601  0.2334
  737MOL0     H99467  -2.461   5.751   5.938 -2.8371 -1.9522  0.1993
  737MOL0     H99468  -2.586   5.858   5.849  0.6138  2.5672 -0.0703
  737MOL0     H99469  -2.641   5.949   6.069 -0.9846  0.6514 -1.4359
  737MOL0     H99470  -2.704   5.792   6.046 -1.5144  2.5175  1.4584
  737MOL0     H99471  -2.446   5.816   6.187 -0.5464 -0.4060 -1.9461
  737MOL0     H99472  -2.549   5.677   6.196  2.1334 -0.1010  1.2375
  737MOL0     H99473  -2.724   5.848   6.283 -0.4772  2.9694  1.1603
  737MOL0     H99474  -2.587   5.794   6.397 -1.4433 -0.7847 -0.7407
  737MOL0     H99475  -1.787   6.066   5.727 -1.1414 -0.2294 -0.0824
  737MOL0     H99476  -1.592   6.090   5.860  0.9146 -0.3935  1.8616
  737MOL0     H99477  -1.296   6.238   6.017 -0.4740  1.3512 -1.6581
  737MOL0     H99478  -1.081   6.202   6.158 -0.1496 -0.6028  2.4715
  737MOL0     H99479   0.628   6.069   6.422  2.1756  4.1749  1.1326
  737MOL0     H99480   0.810   5.923   6.462 -1.1599 -1.2798 -0.0614
  737MOL0     H99481   0.873   5.536   6.660  0.5467 -1.8432 -1.7776
  737MOL0     H99482   0.978   5.342   6.753 -1.3740  0.3867 -1.8840
  737MOL0     H99483   1.094   5.166   6.753  2.3083 -1.7846 -1.3235
  737MOL0     H99484   1.136   5.201   6.935 -0.3456 -0.4369 -0.2453
  737MOL0     H99485   1.330   5.104   6.737  1.2150  3.1415  1.2957
  737MOL0     H99486   1.224   4.988   6.828  0.3484 -1.4067  1.5731
  737MOL0     H99487   1.299   5.058   7.038  0.3701  0.9443  0.6641
  737MOL0     H99488   1.376   5.204   6.983 -1.7278 -0.0189 -0.1822
  737MOL0     H99489   1.562   5.097   6.902 -0.6236  0.3772  1.4504
  737MOL0     H99490   1.519   4.992   7.041 -0.2326  1.1250  0.3886
  737MOL0     H99491   1.489   4.697   6.743  1.3685 -0.8126  1.0845
  737MOL0     H99492   1.366   5.537   6.715 -0.0088  3.7290  1.4226
  737MOL0     H99493   1.245   5.871   6.666 -3.0926 -0.5843 -1.0300
  737MOL0     H99494   1.386   5.762   6.704 -0.6589 -0.8084  0.1863
  737MOL0     H99495   1.322   5.772   6.544  1.1749  4.4522 -0.2791
  738MOL0     O99496   1.955   5.522   5.350 -0.4819 -0.7191 -0.1383
  738MOL0     C99497   2.050   5.468   5.289 -0.0234 -0.1774 -0.0279
  738MOL0     O99498   2.177   5.430   5.337  0.4649  0.3502 -1.1807
  738MOL0     C99499   2.199   5.456   5.463 -0.0993  0.6270  0.5959
  738MOL0     C99500   2.244   5.343   5.539  0.5503  0.5926 -0.4737
  738MOL0     C99501   2.280   5.363   5.677  0.1712 -0.0774 -0.1602
  738MOL0     C99502   2.282   5.489   5.738  0.6174  0.0270  0.5346
  738MOL0     O99503   2.312   5.514   5.870 -0.0166 -0.6340  0.6675
  738MOL0     C99504   2.323   5.395   5.949 -0.0102  0.6261 -0.3117
  738MOL0     C99505   2.320   5.429   6.096 -0.0986 -0.1148  0.5953
  738MOL0     C99506   2.444   5.511   6.129 -1.1276  0.0977  0.7781
  738MOL0     C99507   2.435   5.556   6.275  0.1717  0.0270  0.0990
  738MOL0     C99508   2.563   5.648   6.308  0.2479  0.2330  0.3348
  738MOL0     C99509   2.682   5.558   6.347  0.8820 -0.2542  0.2930
  738MOL0     C99510   2.783   5.634   6.436  0.1429  0.4008 -0.0895
  738MOL0     C99511   2.915   5.553   6.432 -0.3025  0.1958  0.5734
  738MOL0     N99512   3.009   5.602   6.533  0.4768  0.6000 -0.1025
  738MOL0     C99513   3.037   5.729   6.554 -0.7328 -0.1086  0.9426
  738MOL0     C99514   3.112   5.736   6.660  0.0490 -0.4767  0.5253
  738MOL0     C99515   3.175   5.858   6.715 -0.2730  0.5289  0.0454
  738MOL0     C99516   3.169   5.848   6.862 -0.1390 -1.1744  0.5767
  738MOL0     C99517   3.191   5.987   6.925 -0.5173  0.0030 -0.1792
  738MOL0     C99518   3.326   6.040   6.907 -0.7178  0.6094  0.1985
  738MOL0     O99519   3.426   5.951   6.961  0.0985  0.3701  0.4224
  738MOL0     C99520   3.463   5.969   7.095 -0.0863  0.5011  0.5197
  738MOL0     C99521   3.412   6.056   7.187  0.6783 -0.0416  0.5840
  738MOL0     C99522   3.486   6.070   7.299 -0.1776  0.2364 -0.0551
  738MOL0     C99523   3.598   5.996   7.332 -0.7317 -0.2861 -0.8506
  738MOL0     C99524   3.664   6.006   7.466 -0.4953  0.1993  0.1639
  738MOL0     O99525   3.741   5.907   7.521  0.1158  0.2262  0.7315
  738MOL0     C99526   3.764   5.908   7.653  0.2945  0.1162 -0.4778
  738MOL0     C99527   3.818   6.013   7.736  0.5530 -0.2593  0.1471
  738MOL0     C99528   3.833   6.007   7.874 -0.1553  0.2466  0.2951
  738MOL0     C99529   3.804   5.881   7.931  0.6125  0.1280  0.1131
  738MOL0     O99530   3.831   5.876   8.064  0.1250  0.7115  0.3331
  738MOL0     C99531   3.732   5.818   8.150 -0.3149 -1.1471 -0.1485
  738MOL0     C99532   3.723   5.912   8.275  0.4110  0.8499  0.8469
  738MOL0     C99533   3.859   5.928   8.340  0.6382  0.3846 -0.4335
  738MOL0     C99534   3.916   5.793   8.409  0.6821 -0.0445 -0.4179
  738MOL0     C99535   3.890   5.799   8.563 -0.2859 -0.1553  0.5839
  738MOL0     C99536   3.740   5.777   8.590  0.0841 -0.1972 -0.6346
  738MOL0     C99537   3.704   5.732   8.733  0.1367  0.6329  0.2751
  738MOL0     C99538   3.562   5.687   8.748  0.6613  0.2131 -0.1412
  738MOL0    Cl99539   3.468   5.829   8.777  0.6141 -0.1667 -0.2238
  738MOL0     C99540   3.745   5.776   7.854 -0.2595 -0.2506 -0.8482
  738MOL0     C99541   3.727   5.792   7.720 -0.2920 -0.1887 -0.1714
  738MOL0     O99542   3.640   6.116   7.523 -0.0849  0.2197 -0.0042
  738MOL0     C99543   3.641   5.908   7.233  0.0988 -0.2425 -0.8046
  738MOL0     C99544   3.577   5.900   7.118  0.2276  0.6005  0.7821
  738MOL0     N99545   3.134   5.603   6.701 -0.1559 -0.6370  0.4917
  738MOL0     N99546   3.073   5.527   6.623  1.1849  0.5371 -0.4142
  738MOL0     C99547   2.233   5.594   5.665 -0.3862 -0.3187  0.7803
  738MOL0     C99548   2.198   5.581   5.524 -0.0782  0.4136 -0.5735
  738MOL0     C99549   2.021   5.469   5.141  0.2734 -0.0494 -1.4067
  738MOL0     C99550   1.890   5.421   5.107 -0.3829  0.4767 -0.3044
  738MOL0     C99551   1.861   5.414   4.968 -0.5968 -0.1570 -0.5945
  738MOL0     C99552   1.955   5.447   4.871  1.0290  0.4047  1.0891
  738MOL0     O99553   1.903   5.442   4.747 -0.1835 -0.5937 -0.4517
  738MOL0     C99554   1.985   5.471   4.637  0.0734  0.0521  0.5278
  738MOL0     C99555   1.985   5.624   4.613 -0.1774 -0.6149 -0.6420
  738MOL0     C99556   2.094   5.675   4.514  0.6026  0.0092 -0.4038
  738MOL0     C99557   2.234   5.651   4.565 -0.6144 -0.5318 -0.9210
  738MOL0     C99558   2.264   5.737   4.685 -0.6915 -0.2371  0.1863
  738MOL0     C99559   2.312   5.788   4.783 -0.2297  0.1509 -0.4439
  738MOL0     C99560   2.083   5.499   4.913 -0.1399 -0.1611  0.1500
  738MOL0     C99561   2.116   5.506   5.047 -1.4369  0.4974  0.1981
  738MOL0     C99562   2.250   5.551   5.076  0.1679  0.1605 -0.6749
  738MOL0     H99563   2.245   5.246   5.489 -0.9243  0.4766 -0.3312
  738MOL0     H99564   2.318   5.288   5.746  3.7083  3.4903  2.2107
  738MOL0     H99565   2.242   5.324   5.933  0.9425 -0.1952 -1.7137
  738MOL0     H99566   2.417   5.345   5.928 -0.7520 -1.8746  1.8008
  738MOL0     H99567   2.310   5.338   6.155 -0.3719 -2.5475 -2.9403
  738MOL0     H99568   2.237   5.498   6.115  2.1863  3.2875 -0.8273
  738MOL0     H99569   2.458   5.595   6.061 -2.2358 -0.2738  0.0678
  738MOL0     H99570   2.534   5.449   6.120 -1.4168 -0.3841  1.1186
  738MOL0     H99571   2.347   5.620   6.290  0.4835 -0.0886  3.0972
  738MOL0     H99572   2.423   5.483   6.355  1.3186  1.9062  2.1185
  738MOL0     H99573   2.588   5.718   6.228 -0.8978 -0.4536 -0.6678
  738MOL0     H99574   2.532   5.712   6.391 -0.9978  0.4312 -0.2586
  738MOL0     H99575   2.656   5.460   6.387 -1.2750  0.1430  0.0398
  738MOL0     H99576   2.739   5.525   6.260  0.5169 -3.7972  1.2198
  738MOL0     H99577   2.745   5.643   6.538 -1.1962  0.8000 -0.6024
  738MOL0     H99578   2.803   5.735   6.401 -2.5168  0.8125 -0.5655
  738MOL0     H99579   2.891   5.449   6.458  3.4223 -0.7168  0.8591
  738MOL0     H99580   2.952   5.546   6.329 -2.1989 -0.1793 -0.1269
  738MOL0     H99581   2.991   5.811   6.500 -2.8106 -0.9569  1.3297
  738MOL0     H99582   3.276   5.874   6.676  0.2599 -2.1853  0.1083
  738MOL0     H99583   3.124   5.951   6.688  2.4453  2.8241  2.2873
  738MOL0     H99584   3.070   5.808   6.885 -0.8316 -0.5735 -1.1817
  738MOL0     H99585   3.240   5.775   6.904  3.2473  0.1962 -2.2806
  738MOL0     H99586   3.174   5.971   7.032 -1.7498 -5.3812 -0.9045
  738MOL0     H99587   3.109   6.050   6.890  0.4700  1.9897  0.9504
  738MOL0     H99588   3.342   6.139   6.952  3.1217  2.1271 -3.8218
  738MOL0     H99589   3.347   6.057   6.801 -0.9246  0.4024  0.1255
  738MOL0     H99590   3.325   6.117   7.165  0.1288 -0.6813  0.9434
  738MOL0     H99591   3.446   6.142   7.370  0.4608 -0.7930  1.3951
  738MOL0     H99592   3.851   6.102   7.683 -1.4260  0.7948  0.5883
  738MOL0     H99593   3.883   6.081   7.936  1.5073 -0.2764 -0.3620
  738MOL0     H99594   3.637   5.823   8.096 -0.5927  0.5957  0.4590
  738MOL0     H99595   3.748   5.711   8.166  4.1388 -1.4158 -4.1340
  738MOL0     H99596   3.684   6.011   8.252  0.5393  1.6851  3.8391
  738MOL0     H99597   3.649   5.871   8.344  2.7802 -0.0687  3.0086
  738MOL0     H99598   3.930   5.962   8.263 -1.8676  0.5568 -2.8241
  738MOL0     H99599   3.837   6.008   8.411 -0.5315  1.5148 -1.9985
  738MOL0     H99600   4.022   5.771   8.393  1.0282 -0.7017  2.2934
  738MOL0     H99601   3.866   5.705   8.368  0.8008  0.1519 -0.9892
  738MOL0     H99602   3.927   5.881   8.625 -0.3038 -0.2513  0.7219
  738MOL0     H99603   3.942   5.717   8.611  1.9083 -0.1712 -1.6313
  738MOL0     H99604   3.687   5.873   8.583 -1.6263 -0.9825  0.5873
  738MOL0     H99605   3.710   5.704   8.514  2.0123 -1.9619  0.2177
  738MOL0     H99606   3.712   5.809   8.811 -3.2834 -0.3063  1.7307
  738MOL0     H99607   3.771   5.649   8.759  0.3918  0.0188 -2.1553
  738MOL0     H99608   3.540   5.632   8.656  0.8692  0.3976 -0.3013
  738MOL0     H99609   3.546   5.609   8.823  0.8108 -0.2707 -0.6101
  738MOL0     H99610   3.725   5.681   7.902 -1.1672 -0.7167 -2.0975
  738MOL0     H99611   3.681   5.708   7.668 -0.3561 -2.8233  3.6824
  738MOL0     H99612   3.731   5.850   7.252  0.4626  0.3203 -0.7883
  738MOL0     H99613   3.629   5.834   7.050  0.4288  0.3699  1.1564
  738MOL0     H99614   2.240   5.692   5.710 -2.1753  0.0532  0.3267
  738MOL0     H99615   2.162   5.657   5.455 -0.5903 -0.4220 -1.2579
  738MOL0     H99616   1.818   5.387   5.181  0.3356  1.5808  0.9589
  738MOL0     H99617   1.764   5.379   4.934 -0.3656 -1.6971  0.2763
  738MOL0     H99618   1.943   5.422   4.548  1.1922  4.4319 -2.7640
  738MOL0     H99619   2.083   5.424   4.637 -0.1877 -0.5541 -0.7257
  738MOL0     H99620   1.998   5.684   4.704  0.0101  0.5559 -1.4285
  738MOL0     H99621   1.891   5.660   4.570  0.4394 -0.5734 -1.9900
  738MOL0     H99622   2.062   5.773   4.477 -1.4844 -0.6273 -0.4035
  738MOL0     H99623   2.089   5.611   4.425 -1.6004  1.7251 -1.6029
  738MOL0     H99624   2.257   5.547   4.591  0.2093 -0.3607 -0.9544
  738MOL0     H99625   2.303   5.691   4.491  0.9263  0.9899  1.2016
  738MOL0     H99626   2.343   5.829   4.877 -2.0321  2.2450 -0.6834
  738MOL0     H99627   2.151   5.546   4.843  0.4380 -0.1328  0.7288
  738MOL0     H99628   2.301   5.489   5.150  1.1184  1.7597  0.0873
  738MOL0     H99629   2.309   5.556   4.984 -0.9343  1.8531 -1.3516
  738MOL0     H99630   2.244   5.648   5.127  0.7147  0.2148 -0.7087
  739MOL0     O99631   0.668   9.991   6.097 -0.0439  0.3189 -0.0025
  739MOL0     C99632   0.600   9.899   6.149 -0.1426 -0.0202  0.7713
  739MOL0     O99633   0.616   9.768   6.122 -0.0874 -0.7715 -0.6925
  739MOL0     C99634   0.662   9.738   6.002  0.4562 -0.2888 -0.1808
  739MOL0     C99635   0.580   9.674   5.911  0.3494  0.1820  0.2393
  739MOL0     C99636   0.626   9.637   5.788  0.1670  0.1339  0.1195
  739MOL0     C99637   0.757   9.662   5.747  1.3081 -0.3813  0.0479
  739MOL0     O99638   0.810   9.608   5.634  1.3872 -0.3808  0.5872
  739MOL0     C99639   0.737   9.550   5.530  0.1847  0.1705 -0.6495
  739MOL0     C99640   0.833   9.508   5.425 -0.7977 -0.6654  0.3924
  739MOL0     C99641   0.792   9.394   5.332  0.4447  0.1562 -0.1725
  739MOL0     C99642   0.916   9.316   5.275 -0.4031  0.3515 -0.3278
  739MOL0     C99643   0.865   9.204   5.174 -0.3969 -0.8630  0.1862
  739MOL0     C99644   0.831   9.285   5.041 -0.8365 -0.0883  0.0990
  739MOL0     C99645   0.810   9.184   4.930  0.7273  0.8079 -0.2196
  739MOL0     C99646   0.745   9.239   4.801  0.2062  0.4793  0.0054
  739MOL0     N99647   0.802   9.361   4.754  0.9498 -0.1946 -0.3484
  739MOL0     C99648   0.756   9.492   4.785 -0.5169  0.4030  0.4338
  739MOL0     C99649   0.820   9.569   4.698  0.2654 -0.9296  0.3091
  739MOL0     C99650   0.803   9.717   4.676  0.3037  0.4350 -0.0215
  739MOL0     C99651   0.662   9.748   4.628  0.6600 -0.2443 -0.6419
  739MOL0     C99652   0.652   9.889   4.561  0.6559  0.0955  0.2430
  739MOL0     C99653   0.657   9.990   4.684 -0.6306 -0.4077  0.3380
  739MOL0     O99654   0.648  10.133   4.658  0.5355 -0.5775  0.4700
  739MOL0     C99655   0.753  10.182   4.583  1.0277  0.6273 -0.8001
  739MOL0     C99656   0.732  10.240   4.454  0.1553  0.6373 -0.7546
  739MOL0     C99657   0.837  10.293   4.380 -0.3952  0.0771  0.4560
  739MOL0     C99658   0.959  10.309   4.443  0.3323  0.8297 -0.8356
  739MOL0     C99659   1.061  10.392   4.376 -0.8394  0.3517 -0.7405
  739MOL0     O99660   1.040  10.445   4.253 -0.2133 -0.0053  0.3204
  739MOL0     C99661   1.151  10.489   4.179  0.7851 -0.0826 -0.5693
  739MOL0     C99662   1.121  10.588   4.089  0.2263 -0.8275  1.4483
  739MOL0     C99663   1.217  10.621   3.994  0.1886 -0.0781 -0.5712
  739MOL0     C99664   1.345  10.543   3.989  0.1885 -0.7318  0.2311
  739MOL0     O99665   1.455  10.557   3.910 -0.7586  0.0418  0.6526
  739MOL0     C99666   1.457  10.683   3.826  0.3055  0.8857 -0.3964
  739MOL0     C99667   1.512  10.804   3.902  0.2800  1.2331  0.2420
  739MOL0     C99668   1.621  10.767   3.997  0.6884  0.4079 -0.3934
  739MOL0     C99669   1.751  10.756   3.915 -0.3143 -0.0549  0.2954
  739MOL0     C99670   1.863  10.705   4.010 -0.7073 -0.2768 -0.3743
  739MOL0     C99671   1.978  10.655   3.926 -0.0537 -0.7553  0.5727
  739MOL0     C99672   2.094  10.613   4.011  0.5493 -0.2048 -0.3668
  739MOL0     C99673   2.228  10.596   3.940 -0.8961  0.5734  0.9232
  739MOL0    Cl99674   2.297  10.753   3.902 -0.2257  0.5315 -0.2797
  739MOL0     C99675   1.367  10.453   4.088 -0.5623  1.0281  0.3249
  739MOL0     C99676   1.275  10.423   4.186 -0.0243  0.4489 -0.7712
  739MOL0     O99677   1.166  10.418   4.447 -0.4797  0.5918  0.2625
  739MOL0     C99678   0.982  10.248   4.572  0.9901 -0.7866 -0.7034
  739MOL0     C99679   0.881  10.185   4.640  0.7045 -1.0451 -0.8257
  739MOL0     N99680   0.900   9.488   4.623  0.0612  0.1948 -0.8119
  739MOL0     N99681   0.895   9.365   4.657 -0.6665 -0.1328  0.4479
  739MOL0     C99682   0.848   9.717   5.840  0.9326 -0.0691 -0.1915
  739MOL0     C99683   0.800   9.761   5.965 -0.0617  1.0354  0.2267
  739MOL0     C99684   0.482   9.937   6.236  0.7216  0.3379 -0.1151
  739MOL0     C99685   0.376   9.842   6.237 -1.0882 -0.3266 -0.5948
  739MOL0     C99686   0.251   9.868   6.287  0.0417 -0.4110  0.6560
  739MOL0     C99687   0.239   9.995   6.339  0.6765  0.2337  0.7775
  739MOL0     O99688   0.111  10.027   6.380 -0.9294 -0.7406  0.4537
  739MOL0     C99689   0.100  10.085   6.512 -0.5684 -0.4290  0.8185
  739MOL0     C99690  -0.041  10.122   6.553 -0.4862 -0.4347  0.0408
  739MOL0     C99691  -0.060  10.205   6.685 -0.3831  0.2824  0.9938
  739MOL0     C99692   0.008  10.341   6.695  0.3760  0.9928 -0.6323
  739MOL0     C99693   0.005  10.419   6.568  0.3199 -0.2002  0.7249
  739MOL0     C99694  -0.000  10.510   6.490  0.4195 -0.2538  0.0982
  739MOL0     C99695   0.343  10.092   6.347  0.3398  0.2285 -0.6865
  739MOL0     C99696   0.473  10.064   6.293 -0.0053  1.0701  0.2831
  739MOL0     C99697   0.581  10.167   6.303  0.5218 -0.4163 -0.1830
  739MOL0     H99698   0.484   9.645   5.950  1.2051 -1.8370  0.9864
  739MOL0     H99699   0.552   9.599   5.718 -0.1518 -0.0515  0.5550
  739MOL0     H99700   0.686   9.462   5.570  0.4484 -0.8518 -2.4437
  739MOL0     H99701   0.666   9.622   5.488  1.1934  1.6470  0.0676
  739MOL0     H99702   0.916   9.470   5.485 -0.1640  3.1361  2.2244
  739MOL0     H99703   0.854   9.595   5.362  1.9011 -1.0793  0.5920
  739MOL0     H99704   0.730   9.439   5.253  0.0529  0.7565  0.4613
  739MOL0     H99705   0.730   9.325   5.390  1.5638  1.0111  2.1747
  739MOL0     H99706   0.995   9.374   5.227 -1.6681  1.3319 -1.2767
  739MOL0     H99707   0.968   9.271   5.360  1.1062 -2.5054 -2.5893
  739MOL0     H99708   0.939   9.126   5.156  0.1269 -0.3115 -0.0957
  739MOL0     H99709   0.771   9.160   5.208 -0.9911  1.3317  1.5692
  739MOL0     H99710   0.737   9.339   5.051 -0.6659  0.0410  1.0932
  739MOL0     H99711   0.917   9.346   5.010 -1.1650 -0.2671 -1.2203
  739MOL0     H99712   0.744   9.109   4.976  2.0218  0.7566  1.6912
  739MOL0     H99713   0.900   9.129   4.902 -0.4893 -0.9973 -0.8002
  739MOL0     H99714   0.743   9.173   4.714 -0.9043 -1.3074  1.2973
  739MOL0     H99715   0.638   9.255   4.817  0.0066 -0.4378 -0.3569
  739MOL0     H99716   0.678   9.514   4.857  0.1086 -1.0604  1.6135
  739MOL0     H99717   0.825   9.769   4.770 -1.8929  2.6726 -0.6169
  739MOL0     H99718   0.877   9.739   4.598 -1.3901 -1.4636 -2.3103
  739MOL0     H99719   0.620   9.678   4.556 -1.6084  0.5745 -0.1807
  739MOL0     H99720   0.599   9.740   4.717  1.3420 -2.5417 -0.2969
  739MOL0     H99721   0.559   9.908   4.507  0.6212 -0.6740  0.0334
  739MOL0     H99722   0.742   9.901   4.501 -0.6899 -3.2890 -2.7956
  739MOL0     H99723   0.744   9.971   4.748 -1.2831 -2.5895  0.6410
  739MOL0     H99724   0.575   9.962   4.750  0.0193 -2.9038  0.1890
  739MOL0     H99725   0.629  10.232   4.419  0.9542 -0.6891 -3.0258
  739MOL0     H99726   0.815  10.315   4.276 -1.0282 -0.4841  0.4641
  739MOL0     H99727   1.027  10.641   4.072 -0.0543 -2.0940 -1.5133
  739MOL0     H99728   1.190  10.709   3.936 -2.7879  1.1910  2.4197
  739MOL0     H99729   1.523  10.655   3.744  1.0443 -1.4670  0.9331
  739MOL0     H99730   1.361  10.712   3.782  0.2070  2.0094  0.5058
  739MOL0     H99731   1.563  10.885   3.848  4.5746  0.3617  2.5157
  739MOL0     H99732   1.423  10.839   3.955 -0.1546  0.8018 -0.1931
  739MOL0     H99733   1.627  10.849   4.070  2.2485  0.1443 -0.2011
  739MOL0     H99734   1.595  10.676   4.052  1.4214 -0.2803 -1.1621
  739MOL0     H99735   1.783  10.855   3.879 -1.8060  0.1698 -0.4669
  739MOL0     H99736   1.730  10.690   3.831 -2.8725 -0.7203  1.3783
  739MOL0     H99737   1.823  10.621   4.068 -1.4299  0.6877  0.5751
  739MOL0     H99738   1.906  10.787   4.068 -0.5924 -2.2861  2.6399
  739MOL0     H99739   1.944  10.570   3.867 -1.6611 -1.0647  1.8582
  739MOL0     H99740   2.006  10.731   3.852  0.1593  0.4163  1.8117
  739MOL0     H99741   2.063  10.526   4.070 -0.9657  1.0573  0.7688
  739MOL0     H99742   2.102  10.677   4.099 -0.7969 -1.0127  0.3706
  739MOL0     H99743   2.300  10.535   3.995  1.5451  3.9685  1.8189
  739MOL0     H99744   2.204  10.555   3.842 -3.0679  2.2865  0.6739
  739MOL0     H99745   1.462  10.400   4.094 -1.0535 -0.0138 -0.7619
  739MOL0     H99746   1.308  10.347   4.256  0.4406 -0.3795 -1.8635
  739MOL0     H99747   1.076  10.276   4.618 -0.5565  2.0767  0.9487
  739MOL0     H99748   0.880  10.159   4.746  0.6700  0.5584 -0.4112
  739MOL0     H99749   0.954   9.733   5.825  0.3071  3.2614 -1.8207
  739MOL0     H99750   0.870   9.794   6.041 -0.3311  2.5383 -0.1495
  739MOL0     H99751   0.393   9.748   6.185  3.2684 -1.5053  2.4493
  739MOL0     H99752   0.168   9.801   6.267 -1.3077  1.2541  0.4056
  739MOL0     H99753   0.149  10.182   6.495  1.7417 -1.8534 -1.3108
  739MOL0     H99754   0.161  10.034   6.586  3.1315  1.6459 -0.5262
  739MOL0     H99755  -0.104  10.034   6.562  0.3574 -1.1342 -0.6763
  739MOL0     H99756  -0.070  10.176   6.462 -0.8979  0.7282  0.8427
  739MOL0     H99757  -0.015  10.149   6.767  1.0785  0.2125  0.1797
  739MOL0     H99758  -0.164  10.232   6.701 -0.4407 -0.1062  1.2620
  739MOL0     H99759  -0.029  10.404   6.777 -1.3870 -1.3722  0.5000
  739MOL0     H99760   0.115  10.318   6.705  0.3321  0.7191 -0.7846
  739MOL0     H99761  -0.009  10.584   6.413 -4.6673 -0.1185  0.4494
  739MOL0     H99762   0.316  10.190   6.386 -3.3973  1.2998 -5.0847
  739MOL0     H99763   0.681  10.122   6.300  0.3912 -0.6550 -2.0150
  739MOL0     H99764   0.583  10.251   6.233  5.6375  0.8257  1.0561
  739MOL0     H99765   0.565  10.216   6.400 -1.2667 -2.1867  0.4813
  740MOL0     O99766   8.579   5.875   8.626  0.9308  0.0910  0.0930
  740MOL0     C99767   8.594   5.868   8.505  0.8044  0.2944  1.6473
  740MOL0     O99768   8.497   5.826   8.419  0.1015 -0.3575  0.4306
  740MOL0     C99769   8.364   5.866   8.448  0.6443 -0.1527 -0.3117
  740MOL0     C99770   8.298   5.835   8.565 -0.2561  0.1213 -0.0396
  740MOL0     C99771   8.175   5.864   8.601  0.4249 -0.4700  0.0307
  740MOL0     C99772   8.094   5.944   8.508 -0.6754  0.7882 -0.8774
  740MOL0     O99773   7.962   5.987   8.533 -0.4793 -0.1509 -0.2845
  740MOL0     C99774   7.922   6.122   8.506  0.0088 -0.5317 -0.5641
  740MOL0     C99775   7.827   6.174   8.621 -0.3636 -0.0053  0.4384
  740MOL0     C99776   7.700   6.111   8.608  0.7416  0.1025 -0.4987
  740MOL0     C99777   7.594   6.210   8.666  0.1121 -0.1098  0.5151
  740MOL0     C99778   7.457   6.156   8.632  0.0458  0.3071 -0.7457
  740MOL0     C99779   7.341   6.206   8.711 -0.2381 -0.1777 -0.2657
  740MOL0     C99780   7.339   6.153   8.854 -0.5869  0.2409  0.4967
  740MOL0     C99781   7.238   6.218   8.956 -0.7422  0.2580  0.5507
  740MOL0     N99782   7.107   6.244   8.891  0.6528 -0.1306 -0.1605
  740MOL0     C99783   7.014   6.157   8.838  0.0019  0.1363 -0.1658
  740MOL0     C99784   6.911   6.234   8.801 -0.0916 -0.4040  0.2092
  740MOL0     C99785   6.780   6.179   8.744 -0.0486  0.1782 -0.8625
  740MOL0     C99786   6.678   6.198   8.849  0.5800  0.3957 -0.0023
  740MOL0     C99787   6.657   6.347   8.908  0.7116 -0.8196 -0.1973
  740MOL0     C99788   6.629   6.445   8.792 -0.6886  0.3008  1.3531
  740MOL0     O99789   6.567   6.566   8.828  0.1370 -0.1556 -0.5707
  740MOL0     C99790   6.438   6.581   8.873 -0.7111  0.7233  0.1475
  740MOL0     C99791   6.338   6.487   8.854 -0.0302  0.1342 -0.1904
  740MOL0     C99792   6.206   6.511   8.896  0.0513 -0.4136  1.1203
  740MOL0     C99793   6.172   6.629   8.958  0.0112  0.3013  0.4648
  740MOL0     C99794   6.044   6.645   9.019 -0.4605 -0.7879  0.4057
  740MOL0     O99795   6.046   6.756   9.113  0.1199  0.0193 -0.3056
  740MOL0     C99796   5.939   6.768   9.199 -0.0066 -0.6350  0.4155
  740MOL0     C99797   5.891   6.890   9.224 -0.3589  0.3762 -0.0653
  740MOL0     C99798   5.784   6.910   9.308  0.5339  0.3865 -0.6142
  740MOL0     C99799   5.720   6.801   9.373 -0.0215 -0.3875  0.2009
  740MOL0     O99800   5.613   6.827   9.451  0.8186  0.2277 -0.3792
  740MOL0     C99801   5.551   6.726   9.515  0.1421 -0.1090  0.1557
  740MOL0     C99802   5.619   6.692   9.652 -0.3754 -1.0284 -0.4253
  740MOL0     C99803   5.628   6.805   9.749 -0.9053  0.1907  0.4245
  740MOL0     C99804   5.619   6.760   9.893  1.2896  0.4079  0.0195
  740MOL0     C99805   5.559   6.866   9.989  1.1340 -0.5474 -0.8710
  740MOL0     C99806   5.650   6.991  10.010  0.4315 -0.6319 -0.6315
  740MOL0     C99807   5.744   6.973  10.133 -0.5737  0.5035  0.1430
  740MOL0     C99808   5.812   7.121  10.166  0.4230  0.1163  0.5111
  740MOL0    Cl99809   5.680   7.215  10.250  0.0467  0.5162 -0.2925
  740MOL0     C99810   5.781   6.676   9.355  0.5103 -0.4486  0.9346
  740MOL0     C99811   5.880   6.659   9.259  0.0380 -0.0482 -0.2054
  740MOL0     O99812   5.952   6.562   9.002  0.4011 -0.3335 -0.7561
  740MOL0     C99813   6.273   6.727   8.975  0.3640 -0.3123  0.2924
  740MOL0     C99814   6.404   6.700   8.929 -0.2976  0.8366  0.9509
  740MOL0     N99815   6.943   6.370   8.813 -0.1857 -0.0013  0.7590
  740MOL0     N99816   7.055   6.371   8.878 -0.6705  0.6636  0.1543
  740MOL0     C99817   8.152   5.972   8.383  0.3447 -0.6434  0.1530
  740MOL0     C99818   8.290   5.939   8.357 -0.3058 -0.4760 -0.4687
  740MOL0     C99819   8.721   5.918   8.450 -0.5489  0.4830 -0.2932
  740MOL0     C99820   8.808   5.983   8.540  0.0462 -0.6813  0.7910
  740MOL0     C99821   8.933   6.032   8.492 -0.1654 -0.1549  0.6683
  740MOL0     C99822   8.981   6.005   8.365 -0.0675  0.6224  0.2843
  740MOL0     O99823   9.107   6.041   8.329 -0.4551 -0.0194  0.6378
  740MOL0     C99824   9.195   5.926   8.315 -0.5543  0.2353 -0.4771
  740MOL0     C99825   9.339   5.983   8.306  0.0079  0.2229  0.0546
  740MOL0     C99826   9.357   6.059   8.176 -0.0802 -0.5244 -0.4801
  740MOL0     C99827   9.507   6.105   8.163 -0.1698  1.3212 -0.6321
  740MOL0     C99828   9.548   6.211   8.256 -0.3074  0.2231  0.7632
  740MOL0     C99829   9.580   6.296   8.333  0.1442  0.1101  0.0608
  740MOL0     C99830   8.891   5.950   8.279  0.9293 -0.0058 -0.2578
  740MOL0     C99831   8.768   5.908   8.319  1.3285  1.1639  0.7369
  740MOL0     C99832   8.668   5.859   8.208  0.0919  1.4321 -0.3487
  740MOL0     H99833   8.360   5.773   8.629 -0.4296 -0.1286 -0.1137
  740MOL0     H99834   8.136   5.843   8.700 -1.0084  0.5899 -0.2707
  740MOL0     H99835   8.007   6.189   8.492 -2.7606  2.7680 -3.4057
  740MOL0     H99836   7.866   6.123   8.412 -1.0618 -1.6522  0.0407
  740MOL0     H99837   7.830   6.283   8.633 -0.5844  0.4065 -2.4675
  740MOL0     H99838   7.865   6.146   8.720 -1.4066  0.8234  1.0939
  740MOL0     H99839   7.689   6.011   8.651 -0.5450  0.6620  0.5415
  740MOL0     H99840   7.674   6.095   8.503  1.6968 -0.1144 -0.7120
  740MOL0     H99841   7.607   6.226   8.773 -0.0188 -0.9341  0.6582
  740MOL0     H99842   7.610   6.310   8.624  0.7288 -0.6225 -0.5084
  740MOL0     H99843   7.435   6.177   8.528 -0.2350 -0.4040 -0.8388
  740MOL0     H99844   7.461   6.047   8.643  0.4440  0.2577 -1.3697
  740MOL0     H99845   7.350   6.314   8.724  1.1010 -0.6313  4.2639
  740MOL0     H99846   7.256   6.174   8.649 -0.4908  0.2585 -0.1472
  740MOL0     H99847   7.439   6.164   8.897 -0.6559  3.0923  0.0830
  740MOL0     H99848   7.299   6.051   8.857  2.3163 -0.9863  2.2692
  740MOL0     H99849   7.213   6.148   9.037  1.3305 -0.4610  0.6395
  740MOL0     H99850   7.270   6.315   8.994  0.3217  0.0994  0.1002
  740MOL0     H99851   7.016   6.049   8.844  1.7903 -0.0287 -2.3703
  740MOL0     H99852   6.751   6.232   8.652 -1.8340  1.4620  0.3812
  740MOL0     H99853   6.815   6.079   8.719  2.2563  0.2972  1.4976
  740MOL0     H99854   6.580   6.168   8.810  2.1123 -2.4195 -2.0794
  740MOL0     H99855   6.705   6.132   8.932  1.4460 -0.2546 -0.7775
  740MOL0     H99856   6.743   6.379   8.967  0.3658  0.3091 -0.2687
  740MOL0     H99857   6.566   6.345   8.969  1.4611 -1.6286  0.9142
  740MOL0     H99858   6.562   6.401   8.718 -0.6214 -0.5526  1.7908
  740MOL0     H99859   6.722   6.474   8.742 -0.2062 -3.2292 -0.1583
  740MOL0     H99860   6.363   6.393   8.804  1.0942  0.9097 -1.1415
  740MOL0     H99861   6.128   6.436   8.890  0.7372 -1.2954  2.6571
  740MOL0     H99862   5.942   6.980   9.191  1.3004 -0.0463  1.2113
  740MOL0     H99863   5.747   7.010   9.326  0.9296  0.3798  0.2734
  740MOL0     H99864   5.451   6.752   9.552  0.6189 -0.6816  1.9846
  740MOL0     H99865   5.537   6.634   9.457 -2.4244  1.3120 -1.6748
  740MOL0     H99866   5.561   6.606   9.688  0.6758 -2.0685 -1.1350
  740MOL0     H99867   5.722   6.664   9.630  0.0164 -0.4778  0.6499
  740MOL0     H99868   5.717   6.868   9.740 -1.8491  1.5531  0.3472
  740MOL0     H99869   5.533   6.857   9.736 -2.1431 -1.9759  0.2234
  740MOL0     H99870   5.724   6.738   9.915  2.3275  2.3708 -2.3849
  740MOL0     H99871   5.553   6.673   9.887 -1.6200  2.5368 -1.0628
  740MOL0     H99872   5.535   6.835  10.091  0.8924  0.1630 -0.7006
  740MOL0     H99873   5.466   6.903   9.943 -0.9127 -1.9316  1.8674
  740MOL0     H99874   5.698   7.019   9.915 -1.3767  0.5243 -1.2690
  740MOL0     H99875   5.590   7.080  10.033  2.0273  0.4527 -0.4598
  740MOL0     H99876   5.820   6.902  10.097 -0.2847  1.2290 -0.7119
  740MOL0     H99877   5.701   6.930  10.224  1.2733 -0.7120  0.5110
  740MOL0     H99878   5.889   7.100  10.241  1.8405 -2.3197 -1.4976
  740MOL0     H99879   5.858   7.167  10.078  0.3126  0.7704  0.7946
  740MOL0     H99880   5.743   6.583   9.396 -1.0117 -0.3221 -0.0973
  740MOL0     H99881   5.915   6.558   9.241  0.4848 -0.1656  1.2073
  740MOL0     H99882   6.251   6.824   9.018 -0.2833 -0.3746  0.1077
  740MOL0     H99883   6.476   6.782   8.926  4.1950 -2.7366 -1.3785
  740MOL0     H99884   8.084   6.019   8.313  0.8735 -0.2414 -0.0965
  740MOL0     H99885   8.342   5.957   8.264  1.1077 -0.7117  0.2409
  740MOL0     H99886   8.777   6.000   8.643 -2.0906  1.7056 -0.1309
  740MOL0     H99887   8.998   6.084   8.561  1.9441 -0.5900 -0.8924
  740MOL0     H99888   9.161   5.875   8.224  2.9837  1.4101 -2.6511
  740MOL0     H99889   9.184   5.860   8.402  1.3328 -1.0418 -1.1410
  740MOL0     H99890   9.401   5.893   8.311 -2.6371 -1.7634 -0.5922
  740MOL0     H99891   9.363   6.034   8.400  1.7097 -2.7863  1.4320
  740MOL0     H99892   9.289   6.144   8.164  2.6711  2.1092  1.0381
  740MOL0     H99893   9.340   5.985   8.097  1.1403 -0.6040 -0.6910
  740MOL0     H99894   9.574   6.018   8.160 -2.2693 -0.3659 -2.3088
  740MOL0     H99895   9.528   6.153   8.067  2.8149 -0.1216 -0.8128
  740MOL0     H99896   9.621   6.379   8.388 -1.9011  1.8991 -0.9980
  740MOL0     H99897   8.928   5.956   8.176  0.2749  1.3502 -0.4301
  740MOL0     H99898   8.632   5.760   8.235  2.9651  0.5801  0.6817
  740MOL0     H99899   8.586   5.932   8.211 -2.7749 -1.4836  3.6913
  740MOL0     H99900   8.717   5.859   8.111  2.5055  1.1811  0.8044
  741MOL0     O99901   0.070   4.955   7.875  0.1660  0.6247  0.2850
  741MOL0     C99902   0.072   5.024   7.774  0.3939 -0.4929 -0.0112
  741MOL0     O99903   0.180   5.041   7.689  0.0827 -0.2771  0.6805
  741MOL0     C99904   0.282   4.955   7.700 -0.7129  0.6719 -0.3336
  741MOL0     C99905   0.374   5.006   7.788 -0.1893 -0.1313  0.2090
  741MOL0     C99906   0.485   4.931   7.825  0.1654  0.2737 -0.6647
  741MOL0     C99907   0.508   4.806   7.767 -0.3483  0.0814 -0.0320
  741MOL0     O99908   0.613   4.722   7.803  0.1303  0.1184 -0.1685
  741MOL0     C99909   0.695   4.759   7.917  0.1092  0.1888  0.2173
  741MOL0     C99910   0.634   4.699   8.038  0.3242  0.1684  0.6298
  741MOL0     C99911   0.504   4.771   8.093  0.3587 -0.1101  0.5413
  741MOL0     C99912   0.445   4.720   8.227 -0.1979 -0.0374 -0.1222
  741MOL0     C99913   0.328   4.819   8.260  0.1385  0.0574  0.3120
  741MOL0     C99914   0.251   4.763   8.375  0.5511  0.4322 -0.4533
  741MOL0     C99915   0.104   4.812   8.368  0.5091 -0.2937 -0.7183
  741MOL0     C99916   0.014   4.728   8.275  0.3257 -0.1796  0.1195
  741MOL0     N99917  -0.128   4.760   8.279 -0.2267  0.6106 -1.3995
  741MOL0     C99918  -0.237   4.681   8.308  0.0264  0.4544 -0.2838
  741MOL0     C99919  -0.346   4.745   8.267  0.0755 -0.4661  0.0499
  741MOL0     C99920  -0.485   4.697   8.283 -0.1432  0.3689 -0.4798
  741MOL0     C99921  -0.577   4.745   8.168 -0.1242 -0.1824 -0.2315
  741MOL0     C99922  -0.526   4.684   8.034  0.1237 -0.2366  0.1193
  741MOL0     C99923  -0.605   4.757   7.929  0.3917  0.1553  1.0656
  741MOL0     O99924  -0.561   4.888   7.928  0.0255 -0.5058  0.2803
  741MOL0     C99925  -0.638   4.994   7.900 -0.6890 -1.1167 -0.4043
  741MOL0     C99926  -0.584   5.118   7.929 -0.6587 -0.6597  0.6401
  741MOL0     C99927  -0.633   5.238   7.902  0.3549  0.4244 -1.0227
  741MOL0     C99928  -0.748   5.231   7.826 -0.5345  0.5214 -0.2546
  741MOL0     C99929  -0.813   5.353   7.789  0.0553  0.2157  0.2431
  741MOL0     O99930  -0.731   5.464   7.793  0.2072  0.0013 -0.3921
  741MOL0     C99931  -0.768   5.591   7.751  0.2875 -0.0039 -1.0043
  741MOL0     C99932  -0.905   5.644   7.742 -0.0399  0.3609 -0.7255
  741MOL0     C99933  -0.923   5.783   7.695  0.2862  0.3481 -0.0905
  741MOL0     C99934  -0.807   5.870   7.691  0.9408 -0.0135  0.1547
  741MOL0     O99935  -0.816   6.009   7.652  0.0899  0.5021  0.0849
  741MOL0     C99936  -0.956   6.058   7.639 -0.1096 -1.1221 -0.5761
  741MOL0     C99937  -0.966   6.207   7.624 -0.4602  0.2313  0.4262
  741MOL0     C99938  -1.104   6.259   7.607 -0.1728 -0.9753  0.6949
  741MOL0     C99939  -1.091   6.414   7.605  0.5162  0.2538 -0.0561
  741MOL0     C99940  -1.205   6.480   7.521 -0.3146  0.6227 -0.5198
  741MOL0     C99941  -1.188   6.634   7.541 -0.2505 -0.0709  1.1504
  741MOL0     C99942  -1.310   6.706   7.478  0.0836  0.5463  0.2407
  741MOL0     C99943  -1.288   6.858   7.471 -0.4962 -0.3339 -0.6513
  741MOL0    Cl99944  -1.281   6.908   7.640 -0.0759 -0.3015  0.1376
  741MOL0     C99945  -0.688   5.820   7.730 -1.4952 -0.6443  1.0300
  741MOL0     C99946  -0.663   5.687   7.741 -0.6945 -0.2138  0.2689
  741MOL0     O99947  -0.931   5.351   7.756  0.3191  0.1040  0.8981
  741MOL0     C99948  -0.810   5.110   7.789  0.0521  0.5251 -0.1137
  741MOL0     C99949  -0.760   4.985   7.827 -0.8839 -0.1680 -0.8730
  741MOL0     N99950  -0.306   4.877   8.229 -0.3994  0.7893  1.0326
  741MOL0     N99951  -0.175   4.882   8.235  0.3698  0.3154  0.3796
  741MOL0     C99952   0.415   4.765   7.670  0.0348 -0.5158 -0.2120
  741MOL0     C99953   0.299   4.829   7.641  0.2737 -0.1870 -0.7584
  741MOL0     C99954  -0.042   5.127   7.737  1.9099 -0.2030  0.2983
  741MOL0     C99955  -0.019   5.218   7.641  0.3120  0.2462  0.1002
  741MOL0     C99956  -0.115   5.311   7.601 -0.6188  0.0833  0.1094
  741MOL0     C99957  -0.233   5.321   7.664 -0.4359  0.0947 -0.6899
  741MOL0     O99958  -0.311   5.422   7.620 -0.3360  0.2423 -0.0338
  741MOL0     C99959  -0.453   5.430   7.630 -0.2895 -0.4559  0.1672
  741MOL0     C99960  -0.520   5.334   7.539 -0.6548  0.2704  0.0173
  741MOL0     C99961  -0.503   5.358   7.389  0.5854  0.1430  0.3089
  741MOL0     C99962  -0.639   5.314   7.317  0.8385 -0.1865  0.5958
  741MOL0     C99963  -0.755   5.405   7.336 -0.2224  0.7099  0.1374
  741MOL0     C99964  -0.860   5.468   7.324  0.1842 -0.0814  0.1710
  741MOL0     C99965  -0.253   5.237   7.771  0.3913  0.2661 -0.1597
  741MOL0     C99966  -0.162   5.139   7.817 -0.9823  0.5535 -0.2449
  741MOL0     C99967  -0.194   5.060   7.941  0.9355  1.0265 -0.7356
  741MOL0     H99968   0.357   5.107   7.825  2.0722  0.0206  0.9617
  741MOL0     H99969   0.550   4.984   7.894 -0.8823  1.9831 -0.9008
  741MOL0     H99970   0.795   4.715   7.922 -0.2232 -0.4247  3.3193
  741MOL0     H99971   0.723   4.864   7.922  0.1207  0.3321 -1.8940
  741MOL0     H99972   0.711   4.716   8.114  2.0095 -1.3640 -0.6282
  741MOL0     H99973   0.620   4.591   8.025  2.0588 -0.4310  3.0559
  741MOL0     H99974   0.420   4.760   8.024 -2.2624  2.8188  2.8927
  741MOL0     H99975   0.523   4.879   8.101  1.7723 -0.3511  0.6384
  741MOL0     H99976   0.416   4.614   8.225  0.6706 -0.3950  2.2048
  741MOL0     H99977   0.521   4.734   8.305  0.9291  0.0395 -1.2120
  741MOL0     H99978   0.374   4.916   8.280 -4.2161  2.2013  1.0139
  741MOL0     H99979   0.261   4.839   8.176 -1.8970 -2.0360  1.3113
  741MOL0     H99980   0.258   4.654   8.386 -0.3726  0.5892  2.5664
  741MOL0     H99981   0.288   4.786   8.476 -2.2043  2.1089  0.2815
  741MOL0     H99982   0.117   4.917   8.339  1.5962 -0.7084 -1.8493
  741MOL0     H99983   0.064   4.809   8.469  1.6496 -0.7111 -0.2600
  741MOL0     H99984   0.040   4.753   8.172 -1.1342  2.8555  0.3808
  741MOL0     H99985   0.026   4.621   8.292  0.3102 -0.1243  0.5051
  741MOL0     H99986  -0.226   4.581   8.347  3.6443  0.9046  0.2118
  741MOL0     H99987  -0.473   4.588   8.277 -3.0428 -0.2462  2.0227
  741MOL0     H99988  -0.527   4.726   8.379 -0.3429 -3.0779  0.5987
  741MOL0     H99989  -0.681   4.711   8.174 -0.1157 -0.2957 -0.7209
  741MOL0     H99990  -0.572   4.854   8.174  2.8114 -0.3132  2.2660
  741MOL0     H99991  -0.551   4.578   8.044 -0.0628 -0.2555 -0.4831
  741MOL0     H99992  -0.422   4.707   8.009  0.1499 -0.2863  0.1847
  741MOL0     H99993  -0.711   4.742   7.951  0.7525  0.1750  3.0533
  741MOL0     H99994  -0.579   4.714   7.832  0.0605  0.4989  0.8213
  741MOL0     H99995  -0.492   5.115   7.987 -0.0699 -1.4228 -0.3140
  741MOL0     H99996  -0.581   5.329   7.930 -0.1837  0.7616 -1.0992
  741MOL0     H99997  -0.997   5.587   7.750  0.2400 -0.0223 -0.2145
  741MOL0     H99998  -1.024   5.808   7.665  0.3455  0.1200 -0.4766
  741MOL0     H99999  -1.005   6.009   7.555  0.3621  1.2113 -2.3119
  741MOL0     H    0  -1.006   6.050   7.736  2.5117 -0.0341  0.9757
  741MOL0     H    1  -0.925   6.252   7.715  1.0225  0.0527 -0.1193
  741MOL0     H    2  -0.909   6.238   7.536 -1.7948  0.3822 -0.3977
  741MOL0     H    3  -1.153   6.224   7.515  0.3769  0.7696 -0.2915
  741MOL0     H    4  -1.172   6.228   7.687  0.1899 -0.3590  1.2430
  741MOL0     H    5  -0.998   6.455   7.565  0.3186  2.7899  1.8879
  741MOL0     H    6  -1.084   6.449   7.708  0.8725 -0.2902  0.1112
  741MOL0     H    7  -1.295   6.436   7.566  0.9750  0.0925  1.6983
  741MOL0     H    8  -1.218   6.451   7.417 -2.1412 -0.5207 -0.0286
  741MOL0     H    9  -1.179   6.668   7.645  1.8129  4.6801 -0.2838
  741MOL0     H   10  -1.105   6.681   7.488 -2.4489  1.7274 -0.9235
  741MOL0     H   11  -1.405   6.679   7.526 -1.6479  3.8837 -0.9573
  741MOL0     H   12  -1.312   6.657   7.380 -0.1039 -2.3442  1.5866
  741MOL0     H   13  -1.202   6.890   7.411  0.8304 -0.2152  1.1951
  741MOL0     H   14  -1.382   6.909   7.446 -0.9670 -0.1496  1.3364
  741MOL0     H   15  -0.601   5.884   7.740 -1.6078  0.2745 -2.5764
  741MOL0     H   16  -0.569   5.638   7.765 -1.5005 -0.5658  3.1475
  741MOL0     H   17  -0.897   5.109   7.724 -0.4171 -2.1406  0.4546
  741MOL0     H   18  -0.799   4.887   7.805 -2.2163  0.8801 -3.5866
  741MOL0     H   19   0.445   4.671   7.624  1.6675 -0.0839 -0.1150
  741MOL0     H   20   0.230   4.808   7.560  0.3815 -2.6059 -0.2881
  741MOL0     H   21   0.075   5.228   7.587 -0.7134  4.2508 -1.2835
  741MOL0     H   22  -0.097   5.367   7.510  2.1345  0.3268  0.6990
  741MOL0     H   23  -0.486   5.527   7.592 -0.2574 -0.7647 -0.6776
  741MOL0     H   24  -0.481   5.422   7.736  2.7616 -6.4193  0.9418
  741MOL0     H   25  -0.626   5.356   7.555 -0.1111  1.9327  1.6777
  741MOL0     H   26  -0.483   5.236   7.568 -0.4653  0.3107 -0.0841
  741MOL0     H   27  -0.429   5.290   7.346 -1.3919  0.0870 -3.4172
  741MOL0     H   28  -0.474   5.462   7.370  0.3999  0.4778  1.7577
  741MOL0     H   29  -0.619   5.296   7.211  1.2251 -2.5479  1.0070
  741MOL0     H   30  -0.661   5.218   7.365 -0.6529  1.3505  3.2397
  741MOL0     H   31  -0.951   5.524   7.317  0.1506 -0.3047 -1.4373
  741MOL0     H   32  -0.351   5.248   7.817 -0.8887 -1.3036 -2.3503
  741MOL0     H   33  -0.207   4.953   7.921 -4.6061  1.4185 -1.0089
  741MOL0     H   34  -0.120   5.069   8.021  0.6601 -1.3181 -0.1312
  741MOL0     H   35  -0.288   5.085   7.993  3.1010  0.1571  4.2037
  742MOL0     O   36   5.813   4.929   9.417 -0.0572  0.4101 -0.1817
  742MOL0     C   37   5.807   4.805   9.408  0.1975 -0.8773 -0.1940
  742MOL0     O   38   5.906   4.724   9.365  0.8276 -0.4425  0.2796
  742MOL0     C   39   6.030   4.777   9.353 -0.3550  1.1458  0.8982
  742MOL0     C   40   6.092   4.857   9.450  0.6543 -0.6349  0.5103
  742MOL0     C   41   6.217   4.917   9.436  0.0506  0.2410  0.2691
  742MOL0     C   42   6.307   4.873   9.343 -0.2164  0.2246 -0.0014
  742MOL0     O   43   6.432   4.931   9.343 -0.4949 -0.0934 -1.0869
  742MOL0     C   44   6.536   4.852   9.296  0.9968  0.1090 -0.0627
  742MOL0     C   45   6.625   4.940   9.209  0.7673 -0.4673  0.0149
  742MOL0     C   46   6.761   4.877   9.165  0.7867  0.4763  0.8873
  742MOL0     C   47   6.853   4.965   9.082  0.0342  0.4428 -0.6759
  742MOL0     C   48   6.992   4.900   9.050  0.2770 -0.1420  0.7283
  742MOL0     C   49   6.996   4.865   8.897  1.0486 -0.1728  0.1358
  742MOL0     C   50   7.132   4.800   8.865 -0.3232 -0.0462 -0.7908
  742MOL0     C   51   7.143   4.755   8.724 -0.1134  0.0314  0.6367
  742MOL0     N   52   7.268   4.674   8.705 -0.5721  0.2054  0.2818
  742MOL0     C   53   7.281   4.540   8.735 -0.1782 -0.8324 -1.0443
  742MOL0     C   54   7.399   4.506   8.686 -0.2350  0.5320 -0.3883
  742MOL0     C   55   7.470   4.371   8.697  0.4010 -0.4493  0.2762
  742MOL0     C   56   7.572   4.371   8.810  0.1437  0.4148  0.2429
  742MOL0     C   57   7.679   4.485   8.797 -0.0310 -0.2755  0.2941
  742MOL0     C   58   7.803   4.456   8.880 -0.1115 -0.1088 -0.3019
  742MOL0     O   59   7.860   4.338   8.844 -0.9333  0.4124  0.1481
  742MOL0     C   60   7.912   4.342   8.714 -0.0467  0.3148 -1.1971
  742MOL0     C   61   8.034   4.398   8.693  0.3348 -0.9009 -0.4157
  742MOL0     C   62   8.100   4.406   8.577  0.4723  0.0591  0.1626
  742MOL0     C   63   8.058   4.322   8.467  0.0664  0.5063  0.8137
  742MOL0     C   64   8.134   4.311   8.338 -0.5881  0.3355  0.8013
  742MOL0     O   65   8.239   4.393   8.321 -0.3962 -0.1418 -0.3412
  742MOL0     C   66   8.341   4.370   8.229  0.1834 -0.5776 -0.2435
  742MOL0     C   67   8.381   4.250   8.185 -0.5699 -0.1508 -0.6953
  742MOL0     C   68   8.477   4.236   8.086 -0.7158  0.3454  0.2911
  742MOL0     C   69   8.542   4.345   8.021 -0.5185 -0.3854  0.5309
  742MOL0     O   70   8.612   4.326   7.905  0.3393 -0.5996 -0.4180
  742MOL0     C   71   8.722   4.413   7.884  0.0274 -0.0508 -0.8442
  742MOL0     C   72   8.746   4.404   7.733  0.3656 -0.5843 -0.1642
  742MOL0     C   73   8.627   4.462   7.653  0.2272 -0.0120 -1.3684
  742MOL0     C   74   8.648   4.431   7.500  0.6920  0.0412  0.4810
  742MOL0     C   75   8.526   4.461   7.421  0.1507  0.7075 -0.1337
  742MOL0     C   76   8.573   4.453   7.279 -0.0124 -1.0753 -0.6567
  742MOL0     C   77   8.455   4.484   7.184  0.0683 -0.0934  0.1270
  742MOL0     C   78   8.495   4.494   7.041  0.5837  0.1312 -1.0993
  742MOL0    Cl   79   8.359   4.537   6.924  0.7644  0.3265 -0.4263
  742MOL0     C   80   8.505   4.474   8.074  0.8559  0.0225 -0.5608
  742MOL0     C   81   8.412   4.477   8.179 -1.5057  0.6979 -0.4537
  742MOL0     O   82   8.096   4.221   8.260 -0.0669 -0.0550 -0.5606
  742MOL0     C   83   7.943   4.263   8.484  0.0200  0.4182  0.3998
  742MOL0     C   84   7.874   4.265   8.603 -0.2982 -0.2823  0.2847
  742MOL0     N   85   7.452   4.604   8.618 -0.5140 -0.3325 -0.5769
  742MOL0     N   86   7.364   4.707   8.612 -0.5649 -0.0696 -0.3387
  742MOL0     C   87   6.246   4.783   9.248  0.0779  0.3175  0.2656
  742MOL0     C   88   6.116   4.735   9.247 -0.2914 -1.1890 -1.1606
  742MOL0     C   89   5.667   4.742   9.427 -0.5038  0.6131  0.5635
  742MOL0     C   90   5.654   4.610   9.389  1.2060  0.3581  0.0124
  742MOL0     C   91   5.526   4.546   9.399  0.2733 -0.2615  0.1590
  742MOL0     C   92   5.411   4.621   9.438  0.2905  0.5948 -0.5506
  742MOL0     O   93   5.285   4.567   9.447 -0.3319 -0.1155 -0.1822
  742MOL0     C   94   5.224   4.578   9.578  0.2811 -0.2688  0.7842
  742MOL0     C   95   5.101   4.492   9.587  0.2054 -0.2678  0.2284
  742MOL0     C   96   4.974   4.562   9.557  0.6292 -0.2860  0.1999
  742MOL0     C   97   4.851   4.492   9.595 -0.0668  0.0261 -0.1370
  742MOL0     C   98   4.800   4.384   9.515  0.2918  0.2294  0.2329
  742MOL0     C   99   4.772   4.285   9.457 -0.0213  0.7752 -0.3481
  742MOL0     C  100   5.429   4.755   9.467 -0.6901  0.2130  0.4790
  742MOL0     C  101   5.556   4.819   9.470 -0.2751  1.0734 -0.3204
  742MOL0     C  102   5.558   4.957   9.528 -0.5612  0.1485 -0.5082
  742MOL0     H  103   6.024   4.881   9.531 -1.5669 -0.2949 -1.3468
  742MOL0     H  104   6.244   4.999   9.501  2.3999 -1.1756  1.2072
  742MOL0     H  105   6.603   4.800   9.365  0.2517 -0.3859  0.2953
  742MOL0     H  106   6.499   4.775   9.227  1.6229 -1.9356  1.7516
  742MOL0     H  107   6.649   5.034   9.260  3.0137 -0.7898 -0.3146
  742MOL0     H  108   6.572   4.968   9.118  1.3813  0.9467  0.0688
  742MOL0     H  109   6.741   4.782   9.113  1.9525  0.0883  1.1230
  742MOL0     H  110   6.813   4.851   9.257  0.7205  0.3342  0.8858
  742MOL0     H  111   6.793   4.989   8.993  0.4705  0.4155 -0.9841
  742MOL0     H  112   6.869   5.057   9.139 -2.5444 -1.1747  3.0315
  742MOL0     H  113   7.077   4.964   9.073  1.1418 -1.4408  1.2956
  742MOL0     H  114   7.000   4.805   9.104  0.4965 -0.3674  0.3038
  742MOL0     H  115   6.917   4.791   8.880  0.7592  0.0931  0.2997
  742MOL0     H  116   6.966   4.949   8.834 -1.0830 -1.2037 -0.3251
  742MOL0     H  117   7.143   4.712   8.929  2.4334 -0.0260 -1.1260
  742MOL0     H  118   7.210   4.873   8.889 -1.8548  1.8666 -1.3855
  742MOL0     H  119   7.062   4.688   8.695  0.3290  0.7103 -2.5623
  742MOL0     H  120   7.138   4.839   8.654  0.7161 -1.6068 -1.5057
  742MOL0     H  121   7.216   4.474   8.792  1.1867 -1.0826  0.2812
  742MOL0     H  122   7.403   4.287   8.721  0.3852 -0.6352 -0.3979
  742MOL0     H  123   7.523   4.361   8.602 -0.8595  2.2572 -0.8262
  742MOL0     H  124   7.516   4.378   8.903  1.1029  1.6530  0.7512
  742MOL0     H  125   7.623   4.274   8.802  0.4789  0.5736  0.4431
  742MOL0     H  126   7.641   4.583   8.826 -0.9283 -0.3623 -0.5474
  742MOL0     H  127   7.706   4.491   8.691  0.1378 -0.8335  0.2984
  742MOL0     H  128   7.771   4.449   8.985  0.6299  1.7926  0.0785
  742MOL0     H  129   7.867   4.542   8.860 -1.1756  0.4186 -1.5583
  742MOL0     H  130   8.064   4.472   8.767  0.0366  0.7005 -1.8219
  742MOL0     H  131   8.188   4.469   8.574  1.2053 -0.9553 -0.3283
  742MOL0     H  132   8.342   4.164   8.237  1.2602  0.6205  2.1752
  742MOL0     H  133   8.497   4.129   8.075 -1.7966  0.1409  0.2396
  742MOL0     H  134   8.704   4.517   7.912 -2.1529 -0.5430 -0.2145
  742MOL0     H  135   8.808   4.389   7.946 -1.6537 -0.3376  1.5206
  742MOL0     H  136   8.839   4.444   7.692 -0.3179  2.6830  1.2032
  742MOL0     H  137   8.750   4.296   7.712  1.0511 -1.3381  3.1966
  742MOL0     H  138   8.527   4.446   7.695 -0.5058 -0.8912 -3.3287
  742MOL0     H  139   8.631   4.572   7.659 -0.3274  0.2283 -4.0324
  742MOL0     H  140   8.670   4.325   7.489 -0.2380  0.0835 -3.2429
  742MOL0     H  141   8.731   4.489   7.459 -0.2898 -0.8450 -3.1086
  742MOL0     H  142   8.494   4.563   7.447 -1.5210 -0.5671  3.4141
  742MOL0     H  143   8.440   4.397   7.443  0.3104  0.0627 -1.3374
  742MOL0     H  144   8.651   4.528   7.272 -0.9036 -0.1876 -1.3510
  742MOL0     H  145   8.610   4.354   7.252 -0.4052 -1.3686 -0.1609
  742MOL0     H  146   8.409   4.581   7.206  0.4053  0.3680 -1.1261
  742MOL0     H  147   8.366   4.420   7.189 -1.7388  1.6888 -4.1218
  742MOL0     H  148   8.571   4.573   7.035 -2.5898  3.4677 -0.3748
  742MOL0     H  149   8.524   4.394   7.006  1.1443  0.4531 -1.5827
  742MOL0     H  150   8.556   4.566   8.046 -0.8875  1.7142  1.4583
  742MOL0     H  151   8.392   4.574   8.224  1.3562  1.4267 -0.5595
  742MOL0     H  152   7.914   4.198   8.402  0.1611  0.8786 -0.0181
  742MOL0     H  153   7.793   4.193   8.614 -0.9567  0.4308  0.2272
  742MOL0     H  154   6.294   4.776   9.150 -0.1187  0.6524  0.1421
  742MOL0     H  155   6.084   4.686   9.156  0.0636  0.8866 -2.4599
  742MOL0     H  156   5.733   4.546   9.353  2.4624  2.0823 -0.4333
  742MOL0     H  157   5.498   4.444   9.375 -0.9942 -0.9054  3.7908
  742MOL0     H  158   5.200   4.683   9.596  0.1413  0.6790 -3.7954
  742MOL0     H  159   5.299   4.560   9.655  0.6842  2.5068  1.1494
  742MOL0     H  160   5.090   4.458   9.690 -1.4113 -1.6361 -0.3530
  742MOL0     H  161   5.120   4.406   9.522  0.1384  1.0656 -1.6379
  742MOL0     H  162   4.957   4.598   9.455  0.2901 -0.3745  0.2238
  742MOL0     H  163   4.985   4.650   9.622 -0.3682  0.2579 -0.3406
  742MOL0     H  164   4.875   4.444   9.691  0.8143 -0.1100 -0.4170
  742MOL0     H  165   4.777   4.571   9.611 -0.9186 -0.6123 -0.8740
  742MOL0     H  166   4.750   4.191   9.409  1.4188  1.3094 -2.1754
  742MOL0     H  167   5.342   4.815   9.490 -0.6047 -0.2985  2.2918
  742MOL0     H  168   5.555   5.037   9.454 -3.1606 -0.0389 -0.7166
  742MOL0     H  169   5.475   4.950   9.600  0.8357 -2.7583  1.0276
  742MOL0     H  170   5.648   4.981   9.585 -0.1914 -3.0336  0.4631
  743MOL0     O  171   1.083   4.605   5.553  0.1123 -0.7613 -0.0014
  743MOL0     C  172   1.025   4.505   5.527 -0.3025  0.4909 -0.3981
  743MOL0     O  173   0.916   4.458   5.593  1.2749  0.2102 -0.3520
  743MOL0     C  174   0.880   4.490   5.716  0.2330  0.7216 -0.6047
  743MOL0     C  175   0.748   4.478   5.742 -0.1785  0.1383 -0.4098
  743MOL0     C  176   0.696   4.515   5.873  0.4516  0.6274  0.7890
  743MOL0     C  177   0.775   4.549   5.977  0.2002 -0.2413 -1.0355
  743MOL0     O  178   0.714   4.566   6.100  0.4045  0.3095 -0.0262
  743MOL0     C  179   0.796   4.593   6.210  0.6959 -0.3833 -0.1381
  743MOL0     C  180   0.713   4.664   6.320  0.0846 -1.0761 -0.8609
  743MOL0     C  181   0.804   4.712   6.432 -0.8412  0.7677 -0.3606
  743MOL0     C  182   0.842   4.576   6.506 -0.2036  0.0645 -0.0988
  743MOL0     C  183   0.910   4.622   6.640  0.1089  0.5453  0.0123
  743MOL0     C  184   0.930   4.495   6.724  0.0126  1.0590 -1.3156
  743MOL0     C  185   1.055   4.403   6.690  0.5982  1.2978 -0.7243
  743MOL0     C  186   1.197   4.459   6.721  0.1571  0.1408  0.7954
  743MOL0     N  187   1.298   4.382   6.650  0.5781  0.3707 -0.3272
  743MOL0     C  188   1.294   4.337   6.525 -0.6057  0.0136 -0.3002
  743MOL0     C  189   1.394   4.239   6.519 -0.5011  0.5049 -0.1129
  743MOL0     C  190   1.436   4.145   6.406  0.1012 -0.5002 -0.1266
  743MOL0     C  191   1.584   4.137   6.409 -0.2421  0.1517 -0.1673
  743MOL0     C  192   1.636   4.033   6.309  0.3499  0.0811  0.1732
  743MOL0     C  193   1.625   4.077   6.161  0.0260  0.2602  1.9121
  743MOL0     O  194   1.691   4.199   6.125 -0.2250  0.4123  0.4484
  743MOL0     C  195   1.824   4.209   6.111 -0.2656  0.6885 -0.4157
  743MOL0     C  196   1.893   4.132   6.008  0.2430  0.0564 -0.0567
  743MOL0     C  197   2.034   4.143   6.013 -0.6094  0.9347  0.0970
  743MOL0     C  198   2.110   4.218   6.104 -0.7565 -0.8244 -0.3574
  743MOL0     C  199   2.254   4.235   6.084  0.0863  0.3308 -1.0140
  743MOL0     O  200   2.312   4.207   5.971 -0.3342  0.4974  0.5306
  743MOL0     C  201   2.444   4.242   5.960 -0.9440  0.0459 -0.6186
  743MOL0     C  202   2.542   4.154   5.985  0.0517 -0.6021  0.3298
  743MOL0     C  203   2.679   4.191   5.975 -0.5242 -0.3364 -0.2830
  743MOL0     C  204   2.707   4.329   5.948  0.1175  0.5944  0.0101
  743MOL0     O  205   2.831   4.376   5.920  0.2007 -0.8923  0.1181
  743MOL0     C  206   2.934   4.330   6.006  0.6411  1.0984  0.0020
  743MOL0     C  207   3.060   4.370   5.925 -0.8851  0.3254 -1.1339
  743MOL0     C  208   3.076   4.347   5.789  0.9461  0.5233  0.1933
  743MOL0     C  209   3.218   4.333   5.742  0.4741  0.0943 -0.2984
  743MOL0     C  210   3.231   4.298   5.597  0.3628  0.5103  0.0144
  743MOL0     C  211   3.163   4.393   5.498  0.2183  0.2175 -0.7929
  743MOL0     C  212   3.234   4.533   5.507 -0.3030  0.2322  0.7286
  743MOL0     C  213   3.384   4.528   5.459  0.6741  0.1142  0.4144
  743MOL0    Cl  214   3.498   4.519   5.601 -0.1110 -0.8850 -0.3210
  743MOL0     C  215   2.606   4.427   5.932  0.4923  0.3878  0.7177
  743MOL0     C  216   2.469   4.373   5.925  0.4831 -0.6408 -0.3124
  743MOL0     O  217   2.310   4.274   6.190 -0.3108 -0.2944 -0.7985
  743MOL0     C  218   2.037   4.275   6.205  0.6901  0.4860  0.1607
  743MOL0     C  219   1.896   4.276   6.208 -0.3219 -0.5419 -0.4115
  743MOL0     N  220   1.439   4.226   6.645 -0.4439  0.0893  0.5684
  743MOL0     N  221   1.390   4.321   6.718 -0.5855 -0.4275 -0.1398
  743MOL0     C  222   0.917   4.560   5.950  0.1366 -1.2069  0.3796
  743MOL0     C  223   0.969   4.537   5.827 -0.7729  0.3237 -0.0596
  743MOL0     C  224   1.078   4.443   5.406 -1.1831  0.3720 -0.6216
  743MOL0     C  225   1.139   4.532   5.303 -1.0176  0.4653  0.6277
  743MOL0     C  226   1.189   4.481   5.188 -0.1368  0.4033  0.6027
  743MOL0     C  227   1.172   4.342   5.157 -0.2048  0.2291  0.2259
  743MOL0     O  228   1.207   4.282   5.041 -0.4066 -0.1454  0.2714
  743MOL0     C  229   1.230   4.360   4.928 -1.4007  0.2211  0.2871
  743MOL0     C  230   1.287   4.276   4.821  0.2051 -0.8243  0.2498
  743MOL0     C  231   1.337   4.355   4.703  0.1759  0.4218 -0.2790
  743MOL0     C  232   1.460   4.283   4.635 -0.1172  0.2500 -0.0079
  743MOL0     C  233   1.571   4.292   4.720 -0.0348 -0.6959 -0.5677
  743MOL0     C  234   1.658   4.307   4.800 -0.3728  0.2877 -0.9759
  743MOL0     C  235   1.122   4.262   5.260 -0.5448 -0.8436  0.0728
  743MOL0     C  236   1.074   4.311   5.380 -0.5416 -0.5105 -0.5295
  743MOL0     C  237   1.047   4.208   5.482 -0.3342  0.2461  0.7088
  743MOL0     H  238   0.681   4.437   5.668  2.2614 -0.4303 -2.4264
  743MOL0     H  239   0.592   4.508   5.901  0.4841 -0.3115  0.7251
  743MOL0     H  240   0.841   4.504   6.255  2.9885  0.1375 -1.2511
  743MOL0     H  241   0.869   4.670   6.182  0.2844  0.5397  1.2487
  743MOL0     H  242   0.641   4.592   6.359  0.6136  0.1019  2.6120
  743MOL0     H  243   0.650   4.749   6.290 -0.6005 -2.0399 -2.2284
  743MOL0     H  244   0.753   4.777   6.505  1.1216  1.5491  0.4095
  743MOL0     H  245   0.896   4.762   6.401  1.3472 -1.8952  1.3490
  743MOL0     H  246   0.744   4.541   6.539 -0.3814 -1.0063 -1.6563
  743MOL0     H  247   0.895   4.502   6.446 -1.3499 -0.6718 -0.2417
  743MOL0     H  248   0.989   4.688   6.604 -2.8966  3.6859 -1.4571
  743MOL0     H  249   0.836   4.685   6.691  0.7733  0.9821  0.4547
  743MOL0     H  250   0.947   4.525   6.828  0.8497 -3.7856  0.1785
  743MOL0     H  251   0.838   4.437   6.722  0.4515  0.3525 -3.1480
  743MOL0     H  252   1.051   4.372   6.585 -0.9411  1.7278 -0.8192
  743MOL0     H  253   1.046   4.304   6.736  2.4669  2.2709  2.0076
  743MOL0     H  254   1.210   4.558   6.677  1.2946  1.8450  4.5466
  743MOL0     H  255   1.206   4.466   6.830 -3.6649  0.2913  1.2342
  743MOL0     H  256   1.230   4.361   6.442 -0.2710 -1.4341 -1.0089
  743MOL0     H  257   1.381   4.051   6.416 -3.8129  1.3535 -1.9115
  743MOL0     H  258   1.400   4.189   6.313  0.6920 -2.1146 -1.1661
  743MOL0     H  259   1.628   4.233   6.378  1.2040 -0.9596 -1.7169
  743MOL0     H  260   1.619   4.114   6.510  0.6066 -0.1820 -0.5256
  743MOL0     H  261   1.575   3.943   6.316 -0.2528  0.1054 -3.1200
  743MOL0     H  262   1.735   4.000   6.340 -1.2857 -2.4944  3.3209
  743MOL0     H  263   1.518   4.091   6.143  0.1333 -0.3738  0.6246
  743MOL0     H  264   1.653   3.995   6.093  2.0933  0.1980  2.7694
  743MOL0     H  265   1.835   4.072   5.940  0.6274  0.4235 -0.7144
  743MOL0     H  266   2.094   4.102   5.933 -2.6192 -1.3152 -0.3428
  743MOL0     H  267   2.534   4.050   6.014  1.6030 -1.1377 -0.9737
  743MOL0     H  268   2.758   4.117   5.985 -0.0034  0.3879  1.0669
  743MOL0     H  269   2.932   4.378   6.104 -0.9693 -0.0299  0.5700
  743MOL0     H  270   2.950   4.223   6.025 -0.0081  1.2939  1.8777
  743MOL0     H  271   3.076   4.478   5.921  2.0001 -0.0679 -3.7340
  743MOL0     H  272   3.137   4.319   5.983 -0.7070  1.6897 -0.1380
  743MOL0     H  273   3.035   4.247   5.775  1.1572  0.4446  0.1205
  743MOL0     H  274   3.016   4.421   5.736 -0.2610  1.3479  2.5618
  743MOL0     H  275   3.249   4.241   5.794 -1.6555 -1.9463 -2.3804
  743MOL0     H  276   3.260   4.429   5.772 -1.0708  0.8911 -0.5815
  743MOL0     H  277   3.200   4.194   5.580 -0.2198  0.3403  1.9497
  743MOL0     H  278   3.338   4.294   5.572  0.2316  1.9558 -0.9207
  743MOL0     H  279   3.171   4.351   5.398 -1.1196 -3.5010  0.4753
  743MOL0     H  280   3.055   4.398   5.513 -0.1171 -1.8109 -2.1803
  743MOL0     H  281   3.236   4.571   5.610  1.1918 -0.0822  0.8442
  743MOL0     H  282   3.185   4.604   5.441  1.7605 -1.0096 -2.3860
  743MOL0     H  283   3.402   4.440   5.397  2.7855 -0.0984  1.2303
  743MOL0     H  284   3.406   4.622   5.408  1.8420 -0.0094  0.6517
  743MOL0     H  285   2.610   4.533   5.912  0.7050 -0.0294 -1.7336
  743MOL0     H  286   2.392   4.444   5.894  3.6588  4.0133  1.3984
  743MOL0     H  287   2.094   4.319   6.286 -1.4476  0.7687  1.5657
  743MOL0     H  288   1.843   4.347   6.271 -0.1099  0.0957 -0.9450
  743MOL0     H  289   0.983   4.600   6.027 -0.2493  3.2867 -1.3458
  743MOL0     H  290   1.074   4.567   5.826 -0.8439  0.7346  1.8563
  743MOL0     H  291   1.156   4.637   5.326  0.9771  0.2623  0.3091
  743MOL0     H  292   1.229   4.562   5.127  0.8680 -0.7472 -0.3201
  743MOL0     H  293   1.299   4.439   4.957 -1.5851  0.3694  0.3188
  743MOL0     H  294   1.142   4.410   4.889 -0.7713  1.7977  0.8045
  743MOL0     H  295   1.201   4.219   4.786 -0.7626  1.6404 -1.7246
  743MOL0     H  296   1.361   4.202   4.855 -0.8024 -1.4911  1.0380
  743MOL0     H  297   1.358   4.456   4.738  3.2224 -0.2663  0.1723
  743MOL0     H  298   1.256   4.370   4.631 -0.8083  2.6888  1.1816
  743MOL0     H  299   1.433   4.178   4.628  2.5673 -0.4649 -0.7284
  743MOL0     H  300   1.478   4.305   4.530 -1.5386  1.9537  0.0425
  743MOL0     H  301   1.738   4.332   4.867 -0.8508 -2.0037  0.5895
  743MOL0     H  302   1.118   4.155   5.241  0.4316 -0.9924  0.6039
  743MOL0     H  303   1.101   4.114   5.469 -0.5192  0.3637 -1.0809
  743MOL0     H  304   1.079   4.233   5.584  0.9853 -1.8637  0.8646
  743MOL0     H  305   0.941   4.184   5.478  0.0520 -1.3909 -1.7141
  744MOL0     O  306   1.508   3.288  10.594 -0.1066 -0.4414  0.5185
  744MOL0     C  307   1.539   3.171  10.601 -1.1964  0.2981 -0.6501
  744MOL0     O  308   1.668   3.133  10.594 -0.2359  0.7278 -1.0627
  744MOL0     C  309   1.768   3.213  10.547  0.0725  0.8315  0.2427
  744MOL0     C  310   1.835   3.170  10.435  0.0921 -0.7417  0.1053
  744MOL0     C  311   1.931   3.256  10.379 -1.4075  0.5664 -0.0498
  744MOL0     C  312   1.961   3.381  10.420 -0.2661 -0.2277 -0.3037
  744MOL0     O  313   2.061   3.446  10.349 -1.0098  0.2919 -0.2565
  744MOL0     C  314   2.100   3.579  10.381 -0.5910  0.4017 -0.2938
  744MOL0     C  315   2.215   3.622  10.285  0.3815  0.1741  0.7715
  744MOL0     C  316   2.257   3.764  10.308  0.3038  0.2922  0.1221
  744MOL0     C  317   2.149   3.876  10.280 -0.8027 -0.6707  0.0982
  744MOL0     C  318   2.205   4.016  10.325 -0.7881 -0.7440 -0.6471
  744MOL0     C  319   2.126   4.130  10.254  0.0934 -0.7102 -0.0549
  744MOL0     C  320   2.150   4.158  10.112 -0.1128 -0.4354  0.5987
  744MOL0     C  321   2.073   4.294  10.084 -0.0423 -0.2453  0.8222
  744MOL0     N  322   2.091   4.343   9.944 -0.3932  0.0483  0.6567
  744MOL0     C  323   2.214   4.372   9.882 -0.3587  1.2407  0.4679
  744MOL0     C  324   2.172   4.428   9.763 -0.4711  0.3577 -0.5081
  744MOL0     C  325   2.257   4.487   9.659 -0.4041 -1.0510 -0.0164
  744MOL0     C  326   2.402   4.421   9.648 -0.4104 -0.4637 -0.2610
  744MOL0     C  327   2.478   4.466   9.519  0.7360  0.5104  0.4937
  744MOL0     C  328   2.610   4.397   9.503 -0.3111  0.4443 -0.5915
  744MOL0     O  329   2.601   4.257   9.513 -0.2844 -0.7074 -0.2305
  744MOL0     C  330   2.714   4.184   9.479  1.0284  1.1851 -0.0836
  744MOL0     C  331   2.688   4.046   9.455 -0.1148  0.5777 -0.1119
  744MOL0     C  332   2.778   3.964   9.394 -0.7668  0.6907 -1.0442
  744MOL0     C  333   2.905   4.010   9.366  0.0331  0.1887 -0.3283
  744MOL0     C  334   3.001   3.927   9.296 -0.6940 -0.3769  0.4193
  744MOL0     O  335   2.943   3.815   9.241 -0.4603  0.3286  0.5535
  744MOL0     C  336   3.035   3.729   9.182  0.9232 -0.3373  0.2585
  744MOL0     C  337   3.077   3.617   9.254 -0.7010  0.5461  0.1654
  744MOL0     C  338   3.178   3.536   9.215 -0.4515  0.0323  0.1940
  744MOL0     C  339   3.258   3.574   9.103  0.0968 -0.3252 -0.2640
  744MOL0     O  340   3.372   3.501   9.068 -0.2360  0.2691 -0.7220
  744MOL0     C  341   3.464   3.449   9.182 -0.1514  0.0718  0.4558
  744MOL0     C  342   3.446   3.302   9.222 -0.2291  2.0271  0.5492
  744MOL0     C  343   3.427   3.191   9.110 -0.1478  0.0656 -0.3506
  744MOL0     C  344   3.290   3.175   9.062  0.1793  0.1469 -0.0079
  744MOL0     C  345   3.267   3.052   8.970 -1.4818  0.5210 -0.5316
  744MOL0     C  346   3.130   3.045   8.922 -1.2471 -0.9161 -0.0697
  744MOL0     C  347   3.121   2.915   8.836 -0.7756 -0.1333  0.3142
  744MOL0     C  348   2.973   2.862   8.848  0.5448 -0.1129  0.4724
  744MOL0    Cl  349   2.951   2.824   9.019  0.0800  0.0327  0.4457
  744MOL0     C  350   3.216   3.677   9.020  0.4072 -0.2082  0.4448
  744MOL0     C  351   3.109   3.756   9.060  1.0539  0.3612  0.1552
  744MOL0     O  352   3.119   3.967   9.286  0.1415 -1.2742 -0.3477
  744MOL0     C  353   2.932   4.145   9.396 -0.9357  1.1820 -0.6046
  744MOL0     C  354   2.845   4.232   9.454  0.3293 -0.6134  0.2872
  744MOL0     N  355   2.037   4.440   9.762  0.0513 -1.2116  0.2004
  744MOL0     N  356   1.987   4.381   9.861 -0.1015 -0.0120  0.1084
  744MOL0     C  357   1.900   3.419  10.537  0.3264  0.6917  0.4100
  744MOL0     C  358   1.801   3.339  10.598  0.1295  0.1574 -0.3189
  744MOL0     C  359   1.426   3.073  10.648  0.2822 -0.5970 -0.9309
  744MOL0     C  360   1.471   2.963  10.726 -0.4300  0.5600 -0.9300
  744MOL0     C  361   1.384   2.875  10.783  0.2712  1.1325  0.3744
  744MOL0     C  362   1.241   2.889  10.763 -0.2136 -0.7019  0.3057
  744MOL0     O  363   1.140   2.808  10.814  0.3573 -0.2775 -0.0809
  744MOL0     C  364   1.178   2.709  10.907  1.4587  0.1988 -0.7906
  744MOL0     C  365   1.046   2.637  10.960 -0.6893 -0.6062 -0.8846
  744MOL0     C  366   0.971   2.569  10.848  0.8514 -0.4199 -0.6918
  744MOL0     C  367   0.865   2.480  10.904  0.4817 -0.1379  0.4738
  744MOL0     C  368   0.768   2.559  10.982 -0.2216  0.4166  0.4054
  744MOL0     C  369   0.708   2.631  11.054 -0.1310  0.7010  0.2906
  744MOL0     C  370   1.199   3.004  10.687  0.4286 -0.0867 -0.8755
  744MOL0     C  371   1.284   3.087  10.629 -0.5002 -0.1547  1.0844
  744MOL0     C  372   1.218   3.178  10.530  0.2460 -0.0640  0.1197
  744MOL0     H  373   1.822   3.076  10.382  2.5901  0.9682 -4.0606
  744MOL0     H  374   1.986   3.230  10.289  1.3835  2.8568  0.8354
  744MOL0     H  375   2.010   3.641  10.386  0.1929  1.4895  1.9685
  744MOL0     H  376   2.154   3.569  10.476 -0.0095 -1.8156 -0.7999
  744MOL0     H  377   2.190   3.628  10.179  3.2251  0.8232  0.0542
  744MOL0     H  378   2.291   3.544  10.293  1.7385  1.2530 -1.1269
  744MOL0     H  379   2.348   3.776  10.247 -1.1293  2.6444 -1.7502
  744MOL0     H  380   2.277   3.759  10.415  0.5837 -2.3635  0.0182
  744MOL0     H  381   2.127   3.877  10.172 -0.3564 -3.1283 -0.0728
  744MOL0     H  382   2.055   3.844  10.327  1.1818 -2.6611  2.9918
  744MOL0     H  383   2.205   4.030  10.434 -0.3122 -1.4223 -0.5501
  744MOL0     H  384   2.312   4.025  10.304 -0.1712 -2.5754  1.2741
  744MOL0     H  385   2.017   4.120  10.255 -0.5424  3.9910 -0.1327
  744MOL0     H  386   2.163   4.219  10.306  1.7837 -0.0341 -2.2799
  744MOL0     H  387   2.095   4.079  10.060 -2.2175 -1.0476  3.4394
  744MOL0     H  388   2.258   4.161  10.097 -0.0065  3.4810  1.1061
  744MOL0     H  389   1.967   4.278  10.107  0.0107 -0.9826  0.5837
  744MOL0     H  390   2.108   4.380  10.143 -0.7005  2.5596 -2.5253
  744MOL0     H  391   2.318   4.347   9.905 -1.0895  0.2646  3.0572
  744MOL0     H  392   2.203   4.485   9.564  1.8642  0.0801 -1.4280
  744MOL0     H  393   2.266   4.593   9.685 -3.7148 -0.8679  0.8287
  744MOL0     H  394   2.466   4.457   9.729  0.6308  0.4104 -1.4278
  744MOL0     H  395   2.390   4.314   9.662  0.6477 -0.6368 -0.5776
  744MOL0     H  396   2.489   4.575   9.512  1.3869  0.4753  0.8245
  744MOL0     H  397   2.413   4.428   9.440  2.4075 -0.8823 -0.2880
  744MOL0     H  398   2.674   4.426   9.587  1.8645 -2.4326 -1.0954
  744MOL0     H  399   2.659   4.422   9.408 -0.5216  0.6039 -0.6595
  744MOL0     H  400   2.587   4.009   9.473 -0.2698  0.8309 -0.4597
  744MOL0     H  401   2.750   3.861   9.376 -1.9859  0.3612  2.1283
  744MOL0     H  402   3.036   3.587   9.350  1.9808  0.2674  1.3086
  744MOL0     H  403   3.218   3.460   9.282  0.3567 -1.2779 -1.6874
  744MOL0     H  404   3.565   3.457   9.141  0.0769 -0.8897  0.7988
  744MOL0     H  405   3.459   3.507   9.275 -1.5686  0.3720  0.2218
  744MOL0     H  406   3.542   3.280   9.270 -1.2167  0.3748  1.8957
  744MOL0     H  407   3.360   3.282   9.287 -0.4281  1.6325  0.1732
  744MOL0     H  408   3.483   3.219   9.021  1.4805 -4.4184 -1.0065
  744MOL0     H  409   3.465   3.096   9.149  0.2570  0.3008 -0.1705
  744MOL0     H  410   3.264   3.265   9.007 -0.1486  0.6099  0.8855
  744MOL0     H  411   3.226   3.160   9.150  1.7655  0.0390  1.1788
  744MOL0     H  412   3.303   2.960   9.018 -1.5537  1.8779  2.3315
  744MOL0     H  413   3.343   3.066   8.893 -0.8642  0.5498  0.0652
  744MOL0     H  414   3.074   3.043   9.016  2.2916 -1.2927  2.2452
  744MOL0     H  415   3.118   3.125   8.849 -3.9690  0.8564  2.0948
  744MOL0     H  416   3.197   2.843   8.868  1.8050  1.5668 -1.5190
  744MOL0     H  417   3.143   2.944   8.732  0.4537 -2.7906 -0.2564
  744MOL0     H  418   2.906   2.942   8.814  2.3018  0.8666 -0.8664
  744MOL0     H  419   2.958   2.776   8.783 -3.2914  1.4041 -0.9243
  744MOL0     H  420   3.279   3.702   8.935  3.0503 -2.1898  1.6762
  744MOL0     H  421   3.101   3.852   9.010  1.1314  1.0251  1.3582
  744MOL0     H  422   3.032   4.182   9.378 -0.9113  2.4978  1.8067
  744MOL0     H  423   2.874   4.332   9.484 -0.8002 -0.2289  0.1621
  744MOL0     H  424   1.934   3.511  10.585 -0.2645  1.1460 -0.0195
  744MOL0     H  425   1.770   3.364  10.699  2.7492 -0.9232  0.8548
  744MOL0     H  426   1.574   2.945  10.757 -0.0064 -3.9012 -4.0492
  744MOL0     H  427   1.424   2.789  10.836 -0.3531  0.2737 -0.5346
  744MOL0     H  428   1.219   2.751  10.999 -0.3386 -0.3911  0.3269
  744MOL0     H  429   1.258   2.646  10.867  2.9282  2.1841 -1.1366
  744MOL0     H  430   0.982   2.710  11.009  1.8210  1.5771 -0.6640
  744MOL0     H  431   1.068   2.574  11.047  1.2832  1.7742  0.4484
  744MOL0     H  432   1.041   2.515  10.783 -0.3126 -0.6913 -1.7665
  744MOL0     H  433   0.927   2.652  10.793 -0.9875  0.2704  1.6458
  744MOL0     H  434   0.804   2.444  10.820  0.3588  2.3267 -0.5828
  744MOL0     H  435   0.912   2.396  10.955  3.6394  0.7802 -0.6338
  744MOL0     H  436   0.657   2.689  11.128  0.8551 -1.0961  2.5186
  744MOL0     H  437   1.093   3.023  10.671  0.2177 -1.1664 -0.8185
  744MOL0     H  438   1.198   3.127  10.435  5.2342 -1.1899 -0.6008
  744MOL0     H  439   1.123   3.206  10.578  0.1382  0.2819 -0.2772
  744MOL0     H  440   1.279   3.267  10.511  0.3012 -0.2884 -0.7991
  745MOL0     O  441   9.698   2.174   3.708 -0.4185  0.6084 -0.1738
  745MOL0     C  442   9.654   2.287   3.702 -0.1723 -0.2402  0.5192
  745MOL0     O  443   9.711   2.391   3.639  0.2359 -0.2872  0.3797
  745MOL0     C  444   9.830   2.371   3.554  1.0204  0.2858 -0.1813
  745MOL0     C  445   9.956   2.425   3.591 -0.1558 -0.3592 -0.0925
  745MOL0     C  446  10.064   2.378   3.518  0.2407 -0.1176  0.1868
  745MOL0     C  447  10.057   2.279   3.416 -0.6066  0.3472 -0.0798
  745MOL0     O  448  10.182   2.231   3.371 -0.0778 -0.8464  0.3227
  745MOL0     C  449  10.179   2.137   3.267 -0.1127 -0.5942  0.1692
  745MOL0     C  450  10.324   2.088   3.252 -0.2228 -0.6151 -0.3102
  745MOL0     C  451  10.407   2.213   3.211 -0.7558  1.2454 -1.2067
  745MOL0     C  452  10.547   2.142   3.179  0.4289 -0.1456 -0.6180
  745MOL0     C  453  10.639   2.232   3.088  0.5942 -0.4416 -1.2989
  745MOL0     C  454  10.597   2.279   2.947 -0.8904 -0.0719  0.5221
  745MOL0     C  455  10.716   2.359   2.894  0.1041  0.6043  0.6239
  745MOL0     C  456  10.788   2.287   2.773  0.2321 -0.2446  0.0778
  745MOL0     N  457  10.906   2.204   2.811  0.7348  0.3994  0.5385
  745MOL0     C  458  11.031   2.241   2.866  0.7825 -0.3279 -0.0926
  745MOL0     C  459  11.105   2.126   2.855 -0.6103 -0.7553  0.5225
  745MOL0     C  460  11.261   2.123   2.874 -0.1010 -0.0041  0.3101
  745MOL0     C  461  11.309   2.239   2.787  0.0540  0.0289  0.1564
  745MOL0     C  462  11.462   2.239   2.774  0.2828 -0.7175 -0.0574
  745MOL0     C  463  11.526   2.329   2.867  0.7798 -1.1333 -1.1453
  745MOL0     O  464  11.497   2.468   2.837  0.6428  0.5082 -0.7761
  745MOL0     C  465  11.549   2.563   2.929 -0.0051  0.2081  1.0795
  745MOL0     C  466  11.562   2.688   2.877 -0.4819  0.9580 -1.1274
  745MOL0     C  467  11.608   2.798   2.955  0.4932 -0.1902 -0.4514
  745MOL0     C  468  11.623   2.780   3.096 -0.9841 -1.1248 -0.5927
  745MOL0     C  469  11.656   2.897   3.171  0.1431  0.4230 -0.4301
  745MOL0     O  470  11.598   2.895   3.293 -0.5747 -1.1525 -0.8039
  745MOL0     C  471  11.621   3.005   3.379 -0.2504  0.2619  0.1579
  745MOL0     C  472  11.598   3.132   3.339  0.0717  0.1962  1.0175
  745MOL0     C  473  11.619   3.235   3.427  0.0618 -0.5510  0.3634
  745MOL0     C  474  11.669   3.212   3.555  0.6834  0.1002 -0.7381
  745MOL0     O  475  11.678   3.324   3.626  0.2305  0.2869 -0.0109
  745MOL0     C  476  11.755   3.320   3.747 -0.2263  0.5451 -0.1521
  745MOL0     C  477  11.794   3.463   3.806  0.0135  0.0777  0.1337
  745MOL0     C  478  11.849   3.466   3.940 -0.8355  0.3508 -0.4287
  745MOL0     C  479  11.885   3.599   4.009 -0.2061  0.0177 -0.7098
  745MOL0     C  480  12.038   3.612   3.991  0.0135 -0.5223 -0.0130
  745MOL0     C  481  12.079   3.751   4.038 -0.2972 -0.0642  0.5200
  745MOL0     C  482  12.220   3.792   4.001  0.3639  0.5521 -0.5715
  745MOL0     C  483  12.266   3.894   4.100  0.1105 -0.5813 -0.3341
  745MOL0    Cl  484  12.303   3.841   4.260  0.1297 -0.0841 -0.4240
  745MOL0     C  485  11.684   3.079   3.596 -0.9715  1.0630 -0.6226
  745MOL0     C  486  11.667   2.977   3.502 -0.7741  0.9108 -0.4212
  745MOL0     O  487  11.732   2.984   3.129 -0.4797  0.4004 -0.2432
  745MOL0     C  488  11.610   2.651   3.149 -0.2829 -0.2500  0.1592
  745MOL0     C  489  11.587   2.538   3.064  0.5821 -1.2166  0.9425
  745MOL0     N  490  11.024   2.022   2.798 -0.4614  0.1275  0.3682
  745MOL0     N  491  10.914   2.075   2.764  0.4866  0.5369 -0.0476
  745MOL0     C  492   9.930   2.230   3.377  1.2910  1.2633 -0.5267
  745MOL0     C  493   9.822   2.290   3.446 -0.2371  0.0223 -0.5532
  745MOL0     C  494   9.559   2.330   3.800 -0.0785 -0.4133 -0.4704
  745MOL0     C  495   9.597   2.324   3.933 -0.1326  0.0529 -0.4392
  745MOL0     C  496   9.521   2.379   4.032  0.4184 -1.0040  0.5485
  745MOL0     C  497   9.399   2.439   4.002  0.3812 -0.4626 -0.6593
  745MOL0     O  498   9.330   2.491   4.113 -0.1264  0.6742 -0.1945
  745MOL0     C  499   9.228   2.588   4.091 -0.4811  0.1116  1.2545
  745MOL0     C  500   9.150   2.595   4.223  0.2969 -0.6019  0.5980
  745MOL0     C  501   9.019   2.682   4.222 -0.2152 -0.0869  1.0643
  745MOL0     C  502   8.937   2.682   4.349  0.3642 -1.3518 -0.7484
  745MOL0     C  503   9.018   2.711   4.471 -0.5540  0.0942 -0.0340
  745MOL0     C  504   9.106   2.722   4.558  0.0054 -0.0604  1.1156
  745MOL0     C  505   9.349   2.435   3.875 -0.9570 -0.1765  0.7772
  745MOL0     C  506   9.430   2.391   3.769  1.2517 -0.1684 -0.0437
  745MOL0     C  507   9.364   2.373   3.623 -0.3845  0.1036 -0.0972
  745MOL0     H  508   9.971   2.500   3.668  1.3359 -1.3596  0.6282
  745MOL0     H  509  10.166   2.411   3.532  1.4808 -2.0866 -3.0896
  745MOL0     H  510  10.112   2.054   3.290  1.9829 -4.1744 -4.7174
  745MOL0     H  511  10.151   2.180   3.170  1.4070  1.0403  0.3910
  745MOL0     H  512  10.318   2.015   3.170 -1.8784 -1.5324  0.5793
  745MOL0     H  513  10.368   2.040   3.340 -1.5599 -1.8404 -0.2537
  745MOL0     H  514  10.425   2.288   3.289  1.4695  0.7358 -1.1523
  745MOL0     H  515  10.372   2.253   3.116 -0.3654 -0.3648 -2.0647
  745MOL0     H  516  10.590   2.116   3.276 -1.7800 -0.3488  0.3735
  745MOL0     H  517  10.531   2.051   3.122 -3.6260  0.9710 -1.6116
  745MOL0     H  518  10.642   2.320   3.152 -1.2870 -1.8720  0.8959
  745MOL0     H  519  10.740   2.190   3.081  0.3124 -1.2246 -0.8886
  745MOL0     H  520  10.564   2.198   2.881  0.9786 -0.6002  0.1741
  745MOL0     H  521  10.508   2.343   2.953 -0.0106  1.1141  1.2118
  745MOL0     H  522  10.789   2.383   2.973  2.0261 -1.6717 -0.3383
  745MOL0     H  523  10.680   2.459   2.869 -3.5752 -0.0238  2.6529
  745MOL0     H  524  10.718   2.218   2.724 -2.5668  0.6377  2.5499
  745MOL0     H  525  10.823   2.361   2.700  4.5643 -1.5673  0.5029
  745MOL0     H  526  11.070   2.339   2.892 -0.5153  0.7759 -2.0797
  745MOL0     H  527  11.275   2.139   2.981  1.4903  1.2379 -0.0342
  745MOL0     H  528  11.309   2.029   2.847  2.2673  1.0310  0.6607
  745MOL0     H  529  11.273   2.246   2.684  3.0996  1.9595 -0.9095
  745MOL0     H  530  11.269   2.330   2.832 -0.0524  0.3385 -0.5548
  745MOL0     H  531  11.498   2.263   2.673  2.1871 -2.0517  0.2536
  745MOL0     H  532  11.503   2.139   2.790  1.8934 -0.0248  0.3055
  745MOL0     H  533  11.632   2.303   2.876  0.5538 -1.2080  2.8628
  745MOL0     H  534  11.476   2.299   2.959  1.4770 -0.3386 -0.4924
  745MOL0     H  535  11.539   2.707   2.773 -0.9954  0.0353 -1.1902
  745MOL0     H  536  11.623   2.900   2.920  0.9663 -0.3498 -0.7219
  745MOL0     H  537  11.558   3.155   3.241 -0.1561 -1.1211  0.7764
  745MOL0     H  538  11.584   3.334   3.397 -1.2422 -0.8931  0.6664
  745MOL0     H  539  11.699   3.261   3.820 -0.1945 -0.3188 -0.8104
  745MOL0     H  540  11.847   3.263   3.728  0.2442  0.3508  2.3277
  745MOL0     H  541  11.876   3.493   3.739 -0.3779  1.0349  0.0740
  745MOL0     H  542  11.708   3.531   3.809  0.1542  0.3399 -1.0731
  745MOL0     H  543  11.773   3.417   4.002  1.2068 -2.4010  0.1062
  745MOL0     H  544  11.929   3.391   3.939 -0.6719  0.5267 -0.4556
  745MOL0     H  545  11.844   3.605   4.110 -0.3669  1.0357 -0.8190
  745MOL0     H  546  11.831   3.681   3.960  0.6456  2.4294  2.0936
  745MOL0     H  547  12.065   3.594   3.887  0.0492  0.6671 -0.2209
  745MOL0     H  548  12.091   3.538   4.052  0.7422 -1.0506 -1.2484
  745MOL0     H  549  12.021   3.827   3.985  0.5027  0.5207  0.4557
  745MOL0     H  550  12.053   3.769   4.143 -2.1162  2.2705 -0.2403
  745MOL0     H  551  12.228   3.834   3.900  0.0117  1.2880 -0.2959
  745MOL0     H  552  12.275   3.697   4.004 -0.8316 -0.1740  2.5900
  745MOL0     H  553  12.365   3.924   4.064  0.2531 -1.0657 -0.3421
  745MOL0     H  554  12.201   3.982   4.101  2.8618  1.6405 -1.2942
  745MOL0     H  555  11.720   3.052   3.695 -0.4619  1.6906 -0.6360
  745MOL0     H  556  11.682   2.873   3.528 -2.2349  0.1466 -2.4015
  745MOL0     H  557  11.636   2.644   3.254 -0.0484  0.5087  0.1574
  745MOL0     H  558  11.594   2.439   3.108  0.3092 -1.9105 -0.5151
  745MOL0     H  559   9.899   2.154   3.306  1.0514 -0.9991  1.8226
  745MOL0     H  560   9.720   2.264   3.419  0.0873 -0.5096 -1.2902
  745MOL0     H  561   9.687   2.280   3.976  1.0990  1.0086 -1.9070
  745MOL0     H  562   9.542   2.350   4.134 -1.2087 -2.0743  0.6223
  745MOL0     H  563   9.158   2.560   4.011  1.9606  0.7423 -1.2419
  745MOL0     H  564   9.264   2.686   4.058  0.3537 -0.9408 -1.1951
  745MOL0     H  565   9.220   2.635   4.296  1.6021 -1.8252  0.0818
  745MOL0     H  566   9.131   2.492   4.254  1.7230 -1.4407 -1.0561
  745MOL0     H  567   8.962   2.641   4.138  3.0668 -1.6006 -0.6068
  745MOL0     H  568   9.042   2.784   4.191 -1.8918  0.1464  0.5161
  745MOL0     H  569   8.854   2.754   4.350 -1.0094 -2.8739  0.9966
  745MOL0     H  570   8.897   2.582   4.364  2.4954 -1.9604  1.6132
  745MOL0     H  571   9.194   2.728   4.619 -0.3820 -2.7031  2.0634
  745MOL0     H  572   9.244   2.459   3.864 -1.0056 -1.0497 -0.9987
  745MOL0     H  573   9.265   2.419   3.621 -0.8630 -0.1986  4.7976
  745MOL0     H  574   9.426   2.416   3.543 -1.6104  1.7206 -0.2335
  745MOL0     H  575   9.343   2.268   3.600 -2.5951  0.3380  0.6370
  746MOL0     O  576   8.709   1.681   1.949 -0.7306 -0.0654  0.3939
  746MOL0     C  577   8.596   1.715   1.908  0.5026  0.3897  0.3180
  746MOL0     O  578   8.483   1.633   1.896 -0.1592  0.2171  0.3425
  746MOL0     C  579   8.496   1.505   1.944 -0.0360  0.2007 -0.0431
  746MOL0     C  580   8.442   1.469   2.069 -0.2224 -0.5147  0.0741
  746MOL0     C  581   8.429   1.342   2.107  0.1441 -0.1811  0.4638
  746MOL0     C  582   8.485   1.242   2.032 -1.0996 -0.3503  0.7592
  746MOL0     O  583   8.462   1.111   2.079  0.0004  0.7486 -0.3856
  746MOL0     C  584   8.498   1.004   1.987  0.9163  0.0576  0.6723
  746MOL0     C  585   8.466   0.862   2.047  0.4971 -0.3649 -0.4639
  746MOL0     C  586   8.507   0.744   1.957 -0.0090 -0.4717  0.0479
  746MOL0     C  587   8.405   0.637   1.997 -1.0536 -0.4193  0.2476
  746MOL0     C  588   8.459   0.507   1.932  0.1373 -0.5328  0.8294
  746MOL0     C  589   8.375   0.390   1.974 -0.1377 -0.1571 -0.3000
  746MOL0     C  590   8.417   0.257   1.918 -0.5851 -1.1271  0.6741
  746MOL0     C  591   8.370   0.138   1.983  0.6732  0.1892  0.2448
  746MOL0     N  592   8.219   0.132   2.001  0.1692 -0.6827 -0.3549
  746MOL0     C  593   8.145   0.219   2.076 -0.2657  0.8718  0.2768
  746MOL0     C  594   8.022   0.157   2.077 -0.0687 -1.0780  0.3071
  746MOL0     C  595   7.897   0.186   2.154  0.2221 -0.3471  0.1449
  746MOL0     C  596   7.862   0.336   2.167 -0.6182 -0.0743 -0.3891
  746MOL0     C  597   7.848   0.409   2.032  0.2609  0.2177 -0.6880
  746MOL0     C  598   7.811   0.560   2.047  0.0975  0.5960  0.5181
  746MOL0     O  599   7.935   0.619   2.080  0.5463 -0.1561  0.0370
  746MOL0     C  600   7.933   0.735   2.157  0.0049 -0.0007 -0.5835
  746MOL0     C  601   7.830   0.833   2.142 -0.0381 -0.4844  0.0134
  746MOL0     C  602   7.840   0.948   2.221 -0.9435 -0.4640 -0.4182
  746MOL0     C  603   7.950   0.976   2.300  0.8383  0.1313  1.0825
  746MOL0     C  604   7.955   1.110   2.368 -0.3633  0.6490 -0.5885
  746MOL0     O  605   8.065   1.137   2.447  0.4165 -0.5269 -0.1148
  746MOL0     C  606   8.045   1.246   2.535 -0.1178 -0.2132 -0.4063
  746MOL0     C  607   8.114   1.362   2.503 -0.2930  0.3155  0.1723
  746MOL0     C  608   8.100   1.472   2.582 -0.1456  0.8064 -0.3510
  746MOL0     C  609   8.025   1.466   2.703 -1.0527 -1.0461 -0.5566
  746MOL0     O  610   8.031   1.571   2.788  0.0029  0.3979  0.3656
  746MOL0     C  611   8.043   1.698   2.723 -0.5972 -0.2469 -1.5635
  746MOL0     C  612   8.030   1.815   2.821  0.3315 -0.9291 -1.1466
  746MOL0     C  613   7.884   1.881   2.812 -0.2605 -0.8149  0.5319
  746MOL0     C  614   7.902   2.030   2.766 -0.9560  0.1976  0.0442
  746MOL0     C  615   7.929   2.068   2.621 -0.6258  0.1402  0.1405
  746MOL0     C  616   7.844   1.991   2.519 -0.2141  0.6548  0.2998
  746MOL0     C  617   7.883   2.038   2.376 -0.0440 -0.0578  0.2504
  746MOL0     C  618   7.795   1.978   2.270 -0.2685  0.3803  0.6366
  746MOL0    Cl  619   7.818   1.806   2.254 -0.6105 -0.0139  0.1507
  746MOL0     C  620   7.968   1.345   2.745 -1.1661 -0.2640  0.2720
  746MOL0     C  621   7.981   1.238   2.658  0.0739  0.2517 -0.8702
  746MOL0     O  622   7.869   1.192   2.345  0.5770  0.4898  0.3099
  746MOL0     C  623   8.053   0.885   2.308 -0.0072 -0.3389 -0.3639
  746MOL0     C  624   8.040   0.768   2.235  0.0425  0.5668 -0.7252
  746MOL0     N  625   8.024   0.044   2.000 -0.4819  0.5834 -1.2101
  746MOL0     N  626   8.147   0.030   1.955 -0.1970  1.3234  0.2718
  746MOL0     C  627   8.546   1.274   1.904 -0.3640  0.5968 -0.2297
  746MOL0     C  628   8.539   1.406   1.862 -0.5037  0.1627  0.9394
  746MOL0     C  629   8.561   1.861   1.886 -1.0624  0.9039 -0.7777
  746MOL0     C  630   8.427   1.897   1.881  0.4288 -0.4095 -0.7467
  746MOL0     C  631   8.387   2.022   1.855 -0.9764 -0.7260 -1.0418
  746MOL0     C  632   8.487   2.124   1.833  0.1686  0.1362  0.6903
  746MOL0     O  633   8.427   2.246   1.813  0.4309  0.7539  0.1565
  746MOL0     C  634   8.412   2.292   1.677 -0.5203 -0.2100  0.4971
  746MOL0     C  635   8.424   2.443   1.695  0.3865  0.5014  0.2597
  746MOL0     C  636   8.472   2.528   1.577  0.4729  0.8202  0.4785
  746MOL0     C  637   8.499   2.678   1.596 -0.0253  1.1263  0.2665
  746MOL0     C  638   8.569   2.716   1.472 -0.3493 -0.1224  0.1606
  746MOL0     C  639   8.618   2.714   1.362 -0.7195 -1.4608 -0.4947
  746MOL0     C  640   8.625   2.095   1.852  0.3142  0.0046  0.2251
  746MOL0     C  641   8.666   1.960   1.869  0.2090 -0.4121 -0.0881
  746MOL0     C  642   8.805   1.931   1.863 -0.3804  0.0482  0.4711
  746MOL0     H  643   8.393   1.557   2.109 -0.7898 -1.4952  1.6342
  746MOL0     H  644   8.374   1.318   2.197 -2.3173  0.0321 -0.9159
  746MOL0     H  645   8.440   1.011   1.894  0.7255 -2.6953  0.5159
  746MOL0     H  646   8.607   1.006   1.972  0.9185  0.0808  0.6911
  746MOL0     H  647   8.363   0.852   2.084 -0.4677  1.1321 -2.5637
  746MOL0     H  648   8.526   0.837   2.135 -1.1168  0.3627  0.8987
  746MOL0     H  649   8.606   0.706   1.982 -2.0003 -5.3586  1.6934
  746MOL0     H  650   8.498   0.779   1.854 -0.7061  2.3937  0.9751
  746MOL0     H  651   8.410   0.621   2.105  0.7534 -0.4281  0.1989
  746MOL0     H  652   8.307   0.670   1.961  1.3365  4.4285 -2.9252
  746MOL0     H  653   8.442   0.513   1.824 -0.3288  0.8538  0.9636
  746MOL0     H  654   8.565   0.496   1.957  1.3912  1.5681 -2.7670
  746MOL0     H  655   8.398   0.389   2.080  1.6597  0.0449 -0.6614
  746MOL0     H  656   8.266   0.400   1.963 -0.0444 -0.3672 -1.6403
  746MOL0     H  657   8.526   0.253   1.912 -0.5262  1.4062 -3.0504
  746MOL0     H  658   8.378   0.252   1.816  2.7091  2.8869 -1.0947
  746MOL0     H  659   8.398   0.055   1.918  1.2900 -1.6841  2.7688
  746MOL0     H  660   8.420   0.115   2.077 -2.5150 -0.3978  1.9275
  746MOL0     H  661   8.165   0.314   2.124  0.7456  1.7346 -1.7361
  746MOL0     H  662   7.818   0.145   2.090  0.4710  1.0547 -1.1464
  746MOL0     H  663   7.898   0.137   2.251  2.0233 -0.8588 -0.0857
  746MOL0     H  664   7.763   0.336   2.213  1.2885  0.9859  4.1917
  746MOL0     H  665   7.932   0.392   2.229 -0.2631 -0.3105 -0.5720
  746MOL0     H  666   7.771   0.359   1.973 -1.9278 -1.2853  3.0435
  746MOL0     H  667   7.942   0.414   1.977  0.8424 -3.1360 -0.2220
  746MOL0     H  668   7.735   0.564   2.125 -0.5904 -2.3145  0.1267
  746MOL0     H  669   7.780   0.602   1.951  3.9353  1.9667 -0.3241
  746MOL0     H  670   7.743   0.822   2.079 -0.2370  0.0048  0.1926
  746MOL0     H  671   7.771   1.029   2.199  1.2379  1.1551 -1.6542
  746MOL0     H  672   8.182   1.338   2.422  0.3398 -1.4913  1.1797
  746MOL0     H  673   8.151   1.557   2.538  0.9808 -1.6938 -4.4329
  746MOL0     H  674   8.140   1.705   2.672 -0.5196 -0.2531 -1.4191
  746MOL0     H  675   7.974   1.717   2.641 -1.3719  2.0326 -0.4765
  746MOL0     H  676   8.048   1.776   2.921  2.8769 -1.5054 -1.7495
  746MOL0     H  677   8.097   1.901   2.814  0.4837 -1.0125 -0.7783
  746MOL0     H  678   7.812   1.821   2.756 -1.2060 -1.8834  2.7406
  746MOL0     H  679   7.842   1.891   2.913 -5.1104 -0.0674 -1.3091
  746MOL0     H  680   7.981   2.088   2.815  0.2150  1.5814 -3.2079
  746MOL0     H  681   7.806   2.077   2.790 -1.8235 -0.4534 -1.9083
  746MOL0     H  682   8.035   2.060   2.591 -0.9438 -2.9354 -0.5881
  746MOL0     H  683   7.899   2.172   2.616  2.5944  1.2243  0.8327
  746MOL0     H  684   7.859   1.882   2.525 -2.0803  0.3451  0.1287
  746MOL0     H  685   7.735   2.004   2.527 -0.3956  0.8401 -1.9592
  746MOL0     H  686   7.985   2.011   2.345 -0.3492 -0.2367 -0.6438
  746MOL0     H  687   7.873   2.146   2.367  1.0788  0.1871  1.6095
  746MOL0     H  688   7.687   1.972   2.287 -1.0040 -2.4094 -3.5712
  746MOL0     H  689   7.814   2.037   2.180 -0.9919 -3.4886 -2.3116
  746MOL0     H  690   7.937   1.324   2.846  0.1550  1.6243  1.1371
  746MOL0     H  691   7.933   1.146   2.690 -1.3807  0.6246 -1.8422
  746MOL0     H  692   8.137   0.916   2.368 -1.7336 -0.6912  2.4255
  746MOL0     H  693   8.110   0.684   2.237 -0.2031  0.3003 -2.1981
  746MOL0     H  694   8.584   1.200   1.834  1.5358 -1.6455  2.8953
  746MOL0     H  695   8.577   1.422   1.761 -1.7131 -3.2444 -0.1911
  746MOL0     H  696   8.344   1.828   1.886 -0.9485  1.1177 -1.6075
  746MOL0     H  697   8.280   2.037   1.851 -1.0911 -0.7902  0.7744
  746MOL0     H  698   8.316   2.254   1.639  0.4929 -1.9535 -0.4863
  746MOL0     H  699   8.481   2.240   1.609 -2.2903 -1.6026 -0.3190
  746MOL0     H  700   8.485   2.463   1.784  3.5629  0.6389 -1.7676
  746MOL0     H  701   8.321   2.470   1.718  0.3529  1.0634 -0.5212
  746MOL0     H  702   8.408   2.515   1.489  1.8760  4.3028 -1.2494
  746MOL0     H  703   8.567   2.480   1.550 -1.2185 -0.9958 -2.8330
  746MOL0     H  704   8.405   2.734   1.598 -0.2025  0.9155 -1.1480
  746MOL0     H  705   8.560   2.686   1.687 -1.0653  1.4009  0.9625
  746MOL0     H  706   8.680   2.719   1.275 -1.4693  2.4747 -0.9737
  746MOL0     H  707   8.699   2.172   1.867 -0.6857  0.5118  3.2729
  746MOL0     H  708   8.820   1.842   1.801 -0.0931  1.0932 -1.0075
  746MOL0     H  709   8.853   2.012   1.808 -1.0706 -0.5534 -1.0479
  746MOL0     H  710   8.853   1.915   1.960 -1.1614 -2.1000  0.5640
  747MOL0     O  711   1.388   9.983   6.639  0.4765  0.3782  0.0215
  747MOL0     C  712   1.422  10.097   6.618  0.1162  0.0941  0.7949
  747MOL0     O  713   1.338  10.190   6.568 -0.5487 -0.3303  0.5016
  747MOL0     C  714   1.207  10.156   6.580  0.2325  0.5542  0.5372
  747MOL0     C  715   1.136  10.166   6.697 -0.2972  0.0870 -0.8563
  747MOL0     C  716   0.998  10.143   6.705 -0.4882 -0.6965 -0.0469
  747MOL0     C  717   0.935  10.086   6.589 -0.7558  0.5628  0.5197
  747MOL0     O  718   0.803  10.056   6.589  0.1996  0.1043  0.4142
  747MOL0     C  719   0.787   9.910   6.605  0.1882 -0.4612  0.4586
  747MOL0     C  720   0.646   9.861   6.617  0.7878  0.9132  0.2760
  747MOL0     C  721   0.582   9.919   6.761  0.7383  0.5314 -0.4632
  747MOL0     C  722   0.674   9.919   6.881  0.0526 -0.5993  0.0427
  747MOL0     C  723   0.606   9.935   7.010  0.5968 -1.1030 -0.0922
  747MOL0     C  724   0.510  10.064   7.010  0.4006  0.1744 -0.8056
  747MOL0     C  725   0.595  10.190   7.031 -0.0550  0.4195  0.6124
  747MOL0     C  726   0.510  10.317   7.023 -0.0870 -1.0073  0.1716
  747MOL0     N  727   0.582  10.445   7.029 -0.8899  0.5229 -0.3831
  747MOL0     C  728   0.711  10.458   7.080 -0.5772  0.2899 -0.0725
  747MOL0     C  729   0.748  10.583   7.047  0.2414 -0.7525 -0.2926
  747MOL0     C  730   0.883  10.651   7.059 -0.4808 -0.4685 -0.3325
  747MOL0     C  731   0.997  10.571   7.007  0.0954  0.4188  0.1373
  747MOL0     C  732   1.133  10.645   7.021 -0.1029  0.0167 -0.9393
  747MOL0     C  733   1.254  10.550   6.993 -0.5763  0.7087 -0.0588
  747MOL0     O  734   1.362  10.618   6.929 -0.1810 -0.0630 -0.0319
  747MOL0     C  735   1.487  10.582   6.974  0.0767  0.8601  0.4738
  747MOL0     C  736   1.517  10.446   6.999 -0.2843  0.5013  0.4936
  747MOL0     C  737   1.644  10.404   7.034 -0.3439  0.5563  0.4444
  747MOL0     C  738   1.757  10.489   7.035 -0.0774 -0.2180 -0.4689
  747MOL0     C  739   1.891  10.442   7.081 -0.5381 -0.1268  0.9816
  747MOL0     O  740   1.915  10.309   7.118  0.1822 -0.1645 -0.3582
  747MOL0     C  741   2.044  10.274   7.148 -0.3450  0.5066 -0.9989
  747MOL0     C  742   2.142  10.252   7.051 -0.7537 -0.6191  0.1283
  747MOL0     C  743   2.266  10.196   7.087 -0.0299  0.2524  0.5163
  747MOL0     C  744   2.291  10.154   7.218 -0.7884 -0.0560 -0.0433
  747MOL0     O  745   2.397  10.088   7.269 -0.5038 -0.0243 -0.7439
  747MOL0     C  746   2.476  10.018   7.170  0.2175  0.1723 -0.8879
  747MOL0     C  747   2.410   9.883   7.125 -0.3879  0.1598  0.2110
  747MOL0     C  748   2.483   9.814   7.012  0.3498  0.5392  0.3693
  747MOL0     C  749   2.615   9.758   7.063  0.1072 -0.4914  0.1909
  747MOL0     C  750   2.677   9.658   6.968  0.1512  0.8966 -0.5939
  747MOL0     C  751   2.814   9.608   7.013 -0.4747 -0.4577 -0.4927
  747MOL0     C  752   2.861   9.491   6.930  1.1096 -0.8070  0.1038
  747MOL0     C  753   2.982   9.430   6.993  0.1189  0.9881  0.5287
  747MOL0    Cl  754   3.130   9.541   7.007 -0.0887 -0.1013  0.1847
  747MOL0     C  755   2.194  10.177   7.316 -0.9064  0.2066  0.9613
  747MOL0     C  756   2.073  10.238   7.274 -0.5136  0.9824 -0.1888
  747MOL0     O  757   1.972  10.527   7.076  0.1525  0.1755 -0.4798
  747MOL0     C  758   1.727  10.614   7.003 -0.0075  0.0015  0.2014
  747MOL0     C  759   1.602  10.664   6.959 -0.2408 -0.7551 -0.8768
  747MOL0     N  760   0.650  10.649   6.990  1.2010  0.4688 -0.1097
  747MOL0     N  761   0.546  10.565   6.975 -0.7930 -0.7234 -0.8381
  747MOL0     C  762   1.014  10.075   6.466 -0.9021  0.2136  0.1460
  747MOL0     C  763   1.147  10.112   6.459 -0.9970  0.0281 -1.2329
  747MOL0     C  764   1.567  10.129   6.632  0.2847 -0.4300 -0.5455
  747MOL0     C  765   1.586  10.263   6.653 -0.1959  0.3707 -0.1745
  747MOL0     C  766   1.714  10.326   6.660  0.0418  0.1267  0.1593
  747MOL0     C  767   1.828  10.240   6.662 -0.3440  1.3292  0.0913
  747MOL0     O  768   1.958  10.288   6.668  0.1040 -0.1077 -0.5906
  747MOL0     C  769   1.999  10.402   6.589 -0.1650  0.5992 -0.6285
  747MOL0     C  770   2.114  10.477   6.669  0.2131  0.1211 -1.0511
  747MOL0     C  771   2.163  10.615   6.617 -0.1669 -1.1283  0.0498
  747MOL0     C  772   2.048  10.706   6.626  0.6241 -0.4054  0.0975
  747MOL0     C  773   2.113  10.834   6.590 -1.2186 -0.1151 -0.2469
  747MOL0     C  774   2.171  10.939   6.557 -0.6442  0.0776 -0.2248
  747MOL0     C  775   1.810  10.100   6.649 -0.2563  0.2063  0.2321
  747MOL0     C  776   1.679  10.041   6.635  0.9119 -0.2105  0.0760
  747MOL0     C  777   1.670   9.891   6.597  0.0161 -0.4782 -0.5805
  747MOL0     H  778   1.171  10.211   6.789  1.4784 -1.1360 -0.8862
  747MOL0     H  779   0.931  10.176   6.783 -0.2888  2.3694 -1.0507
  747MOL0     H  780   0.830   9.850   6.525 -0.1548 -0.2561  0.1195
  747MOL0     H  781   0.841   9.887   6.697 -2.2020  1.1135  2.4058
  747MOL0     H  782   0.653   9.752   6.618 -1.4610  0.7189  1.8740
  747MOL0     H  783   0.587   9.897   6.532 -0.1943 -1.7405 -0.2655
  747MOL0     H  784   0.486   9.868   6.776  0.0590  0.9959 -2.8099
  747MOL0     H  785   0.546  10.022   6.745 -2.7171 -0.3713  0.6010
  747MOL0     H  786   0.736   9.830   6.873  2.2062  0.9037 -0.8589
  747MOL0     H  787   0.748   9.999   6.871  2.4794 -2.4920  1.7720
  747MOL0     H  788   0.550   9.845   7.038  1.4212 -1.1701  1.4774
  747MOL0     H  789   0.689   9.956   7.078  1.9085  2.1548 -2.4108
  747MOL0     H  790   0.444  10.073   6.923 -2.9918 -0.1995  1.5249
  747MOL0     H  791   0.445  10.045   7.095  3.2360  0.3242  1.5509
  747MOL0     H  792   0.669  10.188   6.950  1.2682 -2.2651  1.7527
  747MOL0     H  793   0.646  10.179   7.127  1.1160  0.4099  0.0066
  747MOL0     H  794   0.458  10.304   6.927  0.2556 -1.9241  0.1017
  747MOL0     H  795   0.450  10.312   7.114 -0.4580 -0.9047 -0.0641
  747MOL0     H  796   0.774  10.379   7.121  2.3564  1.3263 -2.2479
  747MOL0     H  797   0.880  10.744   7.002 -0.9307  0.1607  0.6757
  747MOL0     H  798   0.904  10.686   7.161 -2.0490  1.4376 -0.6144
  747MOL0     H  799   1.003  10.474   7.057  1.5479  1.0538  1.2735
  747MOL0     H  800   0.979  10.551   6.901  0.3691  1.3925 -0.0973
  747MOL0     H  801   1.147  10.694   7.118  1.3747  2.1833 -2.1523
  747MOL0     H  802   1.135  10.723   6.944  2.0547  0.0579 -0.9062
  747MOL0     H  803   1.221  10.480   6.915  1.4036  2.0633 -2.2533
  747MOL0     H  804   1.275  10.496   7.086 -1.8206  1.0429  0.4337
  747MOL0     H  805   1.444  10.367   7.014  1.3313 -0.5909  3.1923
  747MOL0     H  806   1.647  10.296   7.033  0.9651  0.5298 -2.2794
  747MOL0     H  807   2.132  10.269   6.944  0.6017 -0.5900 -0.0173
  747MOL0     H  808   2.345  10.179   7.013  2.2618  1.3876  2.5551
  747MOL0     H  809   2.501  10.075   7.081  5.7916 -1.8102 -0.9875
  747MOL0     H  810   2.570  10.000   7.224  1.9390  3.3241 -2.5773
  747MOL0     H  811   2.397   9.813   7.208  0.1064 -1.7072 -1.1994
  747MOL0     H  812   2.311   9.908   7.087  0.2474  2.6424  0.0038
  747MOL0     H  813   2.419   9.736   6.969  1.8863  0.8987 -2.8596
  747MOL0     H  814   2.506   9.884   6.931  1.3140 -1.1181 -0.8665
  747MOL0     H  815   2.584   9.708   7.155 -0.5335 -1.1913 -0.3882
  747MOL0     H  816   2.679   9.842   7.091 -1.0102  0.6101 -0.5032
  747MOL0     H  817   2.687   9.703   6.868  0.0989  3.3950  0.4502
  747MOL0     H  818   2.617   9.567   6.965  3.0801 -1.2274  0.2522
  747MOL0     H  819   2.884   9.692   7.012 -0.8934 -0.0525  1.0330
  747MOL0     H  820   2.815   9.587   7.121  0.1833  2.6144  0.1842
  747MOL0     H  821   2.867   9.526   6.827  0.8183  0.2644  0.4367
  747MOL0     H  822   2.778   9.420   6.933 -0.1763  0.2610 -3.9048
  747MOL0     H  823   2.958   9.392   7.093  0.9376 -1.3327 -0.0852
  747MOL0     H  824   3.010   9.345   6.929  1.6242  1.7339  0.1356
  747MOL0     H  825   2.219  10.131   7.411 -2.0603 -0.6989  0.8538
  747MOL0     H  826   1.991  10.236   7.346 -0.1122 -1.4537  0.2934
  747MOL0     H  827   1.808  10.686   7.002  0.5408 -0.5938 -0.9367
  747MOL0     H  828   1.593  10.768   6.929  0.3119  0.3910  2.5839
  747MOL0     H  829   0.951  10.042   6.385 -1.0910 -0.9731  0.7485
  747MOL0     H  830   1.211  10.113   6.372  2.1114  1.2392  0.8734
  747MOL0     H  831   1.505  10.335   6.657 -1.5699 -0.9619 -2.0572
  747MOL0     H  832   1.730  10.433   6.659 -0.6701  0.2330 -0.3004
  747MOL0     H  833   1.908  10.463   6.589 -1.3380 -1.0646  0.3201
  747MOL0     H  834   2.026  10.381   6.485  0.1230  1.2894 -0.6960
  747MOL0     H  835   2.198  10.407   6.681  0.2725  0.5651  1.7470
  747MOL0     H  836   2.080  10.491   6.772  1.1063 -1.4689 -0.5028
  747MOL0     H  837   2.204  10.605   6.516  1.1891 -2.1028  0.6641
  747MOL0     H  838   2.238  10.642   6.692 -0.8196  2.8396 -0.5088
  747MOL0     H  839   1.969  10.680   6.555 -0.2743  1.2881  0.4029
  747MOL0     H  840   2.000  10.713   6.724 -0.0718  2.0213 -0.3308
  747MOL0     H  841   2.234  11.022   6.532 -1.2961  1.9494  3.5178
  747MOL0     H  842   1.893  10.031   6.655  1.0427  1.5149 -1.6559
  747MOL0     H  843   1.768   9.852   6.569  0.9226  1.8545 -0.8790
  747MOL0     H  844   1.631   9.826   6.676 -1.1533 -0.6538 -1.2787
  747MOL0     H  845   1.598   9.898   6.515  2.1142  2.7205 -2.3619
  748MOL0     O  846   3.324   2.080   6.835  0.2465  0.1005  0.0485
  748MOL0     C  847   3.439   2.047   6.810  0.5283 -0.2448 -0.1570
  748MOL0     O  848   3.503   1.936   6.861  0.4451  0.4486 -0.2184
  748MOL0     C  849   3.421   1.859   6.950 -0.8656  0.0994  0.1580
  748MOL0     C  850   3.475   1.827   7.076  0.5123  0.3349  0.0113
  748MOL0     C  851   3.400   1.745   7.161  0.5717 -0.3948 -0.3358
  748MOL0     C  852   3.276   1.695   7.123 -0.4802 -0.4544  0.0689
  748MOL0     O  853   3.215   1.627   7.220  0.3775  0.3085 -0.7284
  748MOL0     C  854   3.084   1.661   7.286  0.6756 -0.1802  0.2840
  748MOL0     C  855   3.053   1.579   7.407 -1.1845  0.1214 -0.2421
  748MOL0     C  856   2.986   1.447   7.368  0.0452  0.4059  0.6776
  748MOL0     C  857   2.884   1.384   7.471  1.1375  1.2165 -0.8376
  748MOL0     C  858   2.736   1.444   7.492  1.0639 -0.2429  0.6033
  748MOL0     C  859   2.634   1.342   7.560 -0.4535  0.3106  0.1117
  748MOL0     C  860   2.525   1.424   7.620 -0.1082  0.1895  0.2117
  748MOL0     C  861   2.408   1.326   7.668 -0.4837 -0.2100 -0.0358
  748MOL0     N  862   2.291   1.412   7.709  0.4219  0.2898  0.7676
  748MOL0     C  863   2.194   1.461   7.618  0.8088 -0.5251  0.6922
  748MOL0     C  864   2.090   1.501   7.697 -0.3775  0.1441 -0.0637
  748MOL0     C  865   1.958   1.553   7.658 -0.5726 -0.1295  0.1156
  748MOL0     C  866   1.919   1.676   7.749 -0.2968  0.5185 -0.6182
  748MOL0     C  867   1.959   1.804   7.688 -0.0070 -0.4186 -0.2849
  748MOL0     C  868   1.903   1.923   7.783 -0.3574 -0.5161  0.9357
  748MOL0     O  869   1.938   2.057   7.738 -0.1022 -0.4945  0.0252
  748MOL0     C  870   2.066   2.095   7.754 -0.2404  0.1727 -0.4819
  748MOL0     C  871   2.141   2.126   7.644 -0.6388  0.1177 -0.3578
  748MOL0     C  872   2.282   2.144   7.652 -0.6748  0.2777 -0.2069
  748MOL0     C  873   2.346   2.143   7.775  0.3134  0.0765  0.5783
  748MOL0     C  874   2.495   2.170   7.781 -0.6321 -0.1193  0.1641
  748MOL0     O  875   2.560   2.168   7.662 -0.2811 -0.1488  0.3898
  748MOL0     C  876   2.694   2.196   7.672  0.3640  0.6089  0.2315
  748MOL0     C  877   2.788   2.128   7.593 -0.5239  0.7661  0.6174
  748MOL0     C  878   2.919   2.172   7.591 -0.5268 -0.9042  0.5381
  748MOL0     C  879   2.964   2.292   7.646  0.9170 -0.3960 -0.9316
  748MOL0     O  880   3.090   2.334   7.644 -0.3901  0.3548 -0.8913
  748MOL0     C  881   3.176   2.341   7.532 -0.4569  0.3380 -0.1708
  748MOL0     C  882   3.289   2.429   7.560 -0.8567 -0.4299 -0.6120
  748MOL0     C  883   3.408   2.351   7.619  0.0003 -0.1947 -0.8628
  748MOL0     C  884   3.393   2.266   7.746 -0.3478  0.4436  0.3179
  748MOL0     C  885   3.504   2.156   7.764  0.2730 -0.8484 -0.1588
  748MOL0     C  886   3.493   2.036   7.667 -0.3474  0.0186 -0.4368
  748MOL0     C  887   3.382   1.941   7.704 -0.4190  1.0283 -0.3478
  748MOL0     C  888   3.364   1.836   7.604 -0.2227  0.0605 -0.3177
  748MOL0    Cl  889   3.282   1.881   7.455  0.1903  0.1151  0.1370
  748MOL0     C  890   2.866   2.361   7.715  0.1811  1.0496 -0.3619
  748MOL0     C  891   2.739   2.314   7.731 -0.4179  0.5468 -0.5421
  748MOL0     O  892   2.543   2.188   7.888  0.3160  0.6089  0.4623
  748MOL0     C  893   2.268   2.118   7.886 -0.5972 -0.4091 -0.2964
  748MOL0     C  894   2.123   2.096   7.880 -1.0384 -0.7578 -0.2915
  748MOL0     N  895   2.137   1.477   7.830  0.1190  0.5350  0.1820
  748MOL0     N  896   2.252   1.431   7.837 -0.0620 -0.8172  0.2201
  748MOL0     C  897   3.229   1.718   6.991 -0.0609  0.9317 -0.7509
  748MOL0     C  898   3.305   1.804   6.908 -0.8126  0.2322  0.8162
  748MOL0     C  899   3.501   2.118   6.701  1.4294 -0.3634  0.6216
  748MOL0     C  900   3.597   2.052   6.620 -0.6461  0.0073  0.7096
  748MOL0     C  901   3.667   2.119   6.517 -1.0580  0.8128  0.0758
  748MOL0     C  902   3.633   2.248   6.481  1.0217  0.8746  0.1116
  748MOL0     O  903   3.689   2.318   6.378  0.2451  0.2291  0.4265
  748MOL0     C  904   3.768   2.237   6.284  0.7242  0.7694 -0.9130
  748MOL0     C  905   3.812   2.302   6.160 -1.5510 -0.3430 -0.1400
  748MOL0     C  906   3.943   2.238   6.109  0.0972  0.9750 -0.0138
  748MOL0     C  907   4.034   2.312   6.008 -0.3206 -0.2201  0.0301
  748MOL0     C  908   3.947   2.368   5.908  0.7093  0.3030  0.2178
  748MOL0     C  909   3.878   2.423   5.820 -0.6689  0.7498  0.3293
  748MOL0     C  910   3.533   2.307   6.553  0.0592 -0.1615 -0.1856
  748MOL0     C  911   3.463   2.246   6.652 -0.4700 -0.0423 -0.5793
  748MOL0     C  912   3.349   2.326   6.719 -0.4902 -0.4007 -0.8068
  748MOL0     H  913   3.571   1.865   7.108  2.6188 -1.5587 -3.4269
  748MOL0     H  914   3.428   1.715   7.261 -1.3360 -0.6326  0.1627
  748MOL0     H  915   3.085   1.763   7.323  0.5065 -0.3878  0.8717
  748MOL0     H  916   3.004   1.655   7.212 -0.7143  0.9452  1.6320
  748MOL0     H  917   2.979   1.641   7.458  0.0596  0.2126  1.5447
  748MOL0     H  918   3.140   1.565   7.472 -1.5003  0.4557  0.2606
  748MOL0     H  919   3.070   1.380   7.350  1.2083  1.7270  1.0153
  748MOL0     H  920   2.937   1.460   7.271 -0.4202 -0.3648  0.8042
  748MOL0     H  921   2.856   1.281   7.448  2.0075  0.5527  0.9284
  748MOL0     H  922   2.930   1.372   7.569 -1.5818  0.1483  0.4164
  748MOL0     H  923   2.749   1.544   7.533  1.0044  0.3164 -0.6832
  748MOL0     H  924   2.693   1.471   7.395 -3.2899 -0.5889  2.2305
  748MOL0     H  925   2.585   1.281   7.484 -0.6925  2.4893 -1.5839
  748MOL0     H  926   2.686   1.273   7.628 -1.4693 -1.9148 -1.2461
  748MOL0     H  927   2.474   1.497   7.556 -0.4116  0.7210  1.0491
  748MOL0     H  928   2.558   1.470   7.713 -0.2741 -1.6248  1.2052
  748MOL0     H  929   2.380   1.269   7.579  0.9786  0.9877 -1.3076
  748MOL0     H  930   2.450   1.264   7.749 -2.3249 -2.3459 -0.6011
  748MOL0     H  931   2.191   1.460   7.509  3.9020  0.8967  0.5014
  748MOL0     H  932   1.964   1.584   7.553  1.2669  0.7016  0.4258
  748MOL0     H  933   1.882   1.477   7.680  1.2498 -1.3860  2.6540
  748MOL0     H  934   1.812   1.680   7.768 -0.2156 -2.1157  0.8031
  748MOL0     H  935   1.963   1.684   7.849  1.4720  1.3246 -1.4072
  748MOL0     H  936   1.918   1.814   7.587  0.6200 -1.7535 -0.7031
  748MOL0     H  937   2.065   1.827   7.698 -0.2202  0.2747  0.4438
  748MOL0     H  938   1.936   1.913   7.887 -1.0082 -1.7242  1.0404
  748MOL0     H  939   1.796   1.909   7.771 -0.1028 -1.5436 -0.3200
  748MOL0     H  940   2.103   2.137   7.543 -0.9928  1.3994 -0.0923
  748MOL0     H  941   2.344   2.157   7.564 -0.7170  0.4316 -0.2157
  748MOL0     H  942   2.764   2.034   7.544 -2.5390  0.6390  1.7396
  748MOL0     H  943   2.984   2.108   7.534 -2.3877 -0.7544 -1.9424
  748MOL0     H  944   3.204   2.237   7.512 -1.8841  0.0806 -1.0027
  748MOL0     H  945   3.111   2.368   7.448  0.4851  1.9853 -0.4228
  748MOL0     H  946   3.310   2.458   7.456 -0.4936  0.6033 -0.2658
  748MOL0     H  947   3.274   2.524   7.613 -1.3583 -1.1225  0.5243
  748MOL0     H  948   3.462   2.292   7.545 -1.3966 -2.2314 -0.3501
  748MOL0     H  949   3.476   2.433   7.645 -1.7545  1.7289 -1.9932
  748MOL0     H  950   3.300   2.209   7.732 -1.4503  2.2941 -0.3331
  748MOL0     H  951   3.375   2.314   7.842  0.2494 -0.8401  1.0911
  748MOL0     H  952   3.486   2.107   7.860 -0.1854  1.1924  0.8479
  748MOL0     H  953   3.606   2.194   7.762 -0.2681  0.6801 -0.0698
  748MOL0     H  954   3.474   2.064   7.563 -1.8538 -1.7580 -0.7046
  748MOL0     H  955   3.581   1.971   7.681 -0.2569  0.5041  1.4902
  748MOL0     H  956   3.294   2.005   7.707 -1.4520 -0.3184 -1.0212
  748MOL0     H  957   3.419   1.895   7.797  0.9293  3.0301  0.1696
  748MOL0     H  958   3.459   1.793   7.570  0.3864 -1.5047  2.9119
  748MOL0     H  959   3.303   1.758   7.651 -1.2592  1.3369  0.5447
  748MOL0     H  960   2.890   2.457   7.760 -1.0885  2.5992 -2.7652
  748MOL0     H  961   2.690   2.395   7.785  1.7109  1.6467 -0.1540
  748MOL0     H  962   2.311   2.105   7.985 -1.9035 -2.7223  0.0315
  748MOL0     H  963   2.079   2.077   7.977  0.1865 -0.6894  0.3026
  748MOL0     H  964   3.130   1.676   6.976  1.1168 -2.8493  0.7219
  748MOL0     H  965   3.256   1.840   6.818 -2.2369 -0.3222  1.3346
  748MOL0     H  966   3.625   1.947   6.627 -1.0563 -0.2238 -0.7199
  748MOL0     H  967   3.741   2.061   6.462 -1.6815  2.3208 -2.5376
  748MOL0     H  968   3.706   2.151   6.255  0.2219 -0.9543  4.2357
  748MOL0     H  969   3.855   2.198   6.336 -1.1130 -1.4962  0.6890
  748MOL0     H  970   3.822   2.408   6.183  2.8652 -0.1266 -2.1146
  748MOL0     H  971   3.723   2.296   6.097 -0.0294 -4.2342 -2.2615
  748MOL0     H  972   3.927   2.148   6.049 -0.9198  1.4244 -0.4523
  748MOL0     H  973   4.007   2.218   6.195  0.4312 -0.7187 -0.6212
  748MOL0     H  974   4.081   2.393   6.064  1.1942 -1.7335  1.0260
  748MOL0     H  975   4.112   2.250   5.964 -0.0071  2.2317 -3.2428
  748MOL0     H  976   3.809   2.460   5.746  1.9702 -0.3206 -2.9305
  748MOL0     H  977   3.495   2.407   6.533 -1.2237 -0.8201 -1.1547
  748MOL0     H  978   3.364   2.340   6.826  0.1010  0.6042 -1.0075
  748MOL0     H  979   3.351   2.430   6.685  2.3315 -0.3384 -0.6740
  748MOL0     H  980   3.256   2.273   6.697 -1.0842 -0.0012  0.6174
  749MOL0     O  981  11.158   6.723   3.316 -0.9569 -0.1675 -0.2158
  749MOL0     C  982  11.178   6.661   3.211 -0.9996  0.4700  0.0957
  749MOL0     O  983  11.285   6.580   3.179 -0.0282 -0.0878 -0.0086
  749MOL0     C  984  11.374   6.557   3.281  0.0004 -0.4181  1.0888
  749MOL0     C  985  11.498   6.620   3.278 -0.4106  0.0555  0.1684
  749MOL0     C  986  11.588   6.621   3.385 -0.1128  0.3603  0.2434
  749MOL0     C  987  11.557   6.559   3.503 -0.8670  0.0517 -0.2742
  749MOL0     O  988  11.647   6.527   3.605 -0.0678  0.7474  0.1165
  749MOL0     C  989  11.780   6.585   3.595  0.0692 -0.4449 -0.4493
  749MOL0     C  990  11.861   6.574   3.724 -0.4335  0.8048 -1.0441
  749MOL0     C  991  11.816   6.655   3.848  0.3285  1.3463 -0.5566
  749MOL0     C  992  11.826   6.802   3.844  0.3691  0.6273 -0.7255
  749MOL0     C  993  11.760   6.848   3.977  0.6404 -0.5943 -0.5580
  749MOL0     C  994  11.785   7.006   4.007 -0.1608  0.1247  0.5815
  749MOL0     C  995  11.746   7.083   3.886  0.0189  0.7245 -0.1396
  749MOL0     C  996  11.760   7.237   3.888 -0.4276  0.3817 -0.4897
  749MOL0     N  997  11.691   7.296   3.996 -0.5995 -0.1513 -0.2825
  749MOL0     C  998  11.727   7.301   4.129  0.0395  0.5652  0.4885
  749MOL0     C  999  11.627   7.360   4.204  0.5537  0.6791 -0.0104
  749MOL0     C 1000  11.616   7.400   4.351  0.1546 -0.5764 -0.3352
  749MOL0     C 1001  11.755   7.410   4.427 -0.2656 -0.4119 -0.4965
  749MOL0     C 1002  11.734   7.436   4.573 -0.8677  0.1775  0.1764
  749MOL0     C 1003  11.860   7.435   4.658  0.2789 -0.2700  0.3002
  749MOL0     O 1004  11.830   7.457   4.795  0.0573 -0.5279 -0.5731
  749MOL0     C 1005  11.937   7.482   4.881  0.3714  0.3178  0.2066
  749MOL0     C 1006  11.903   7.542   5.002 -1.1659  0.3104 -0.4915
  749MOL0     C 1007  12.001   7.586   5.096 -0.2715 -0.1692 -0.4102
  749MOL0     C 1008  12.139   7.569   5.061 -0.1993 -0.0694  0.0251
  749MOL0     C 1009  12.246   7.612   5.151  0.2803  0.4384  0.3400
  749MOL0     O 1010  12.374   7.562   5.137 -0.3409 -0.3832  1.0684
  749MOL0     C 1011  12.488   7.604   5.205  0.2387 -0.0959 -0.7658
  749MOL0     C 1012  12.603   7.534   5.168 -0.8616 -0.2268  0.1706
  749MOL0     C 1013  12.733   7.574   5.210 -0.4555  0.0837  0.9887
  749MOL0     C 1014  12.756   7.700   5.276  0.2435 -0.1467  0.4782
  749MOL0     O 1015  12.882   7.763   5.293  0.2067  0.5593  0.2493
  749MOL0     C 1016  12.965   7.688   5.383  0.1888 -0.0635  0.5266
  749MOL0     C 1017  13.068   7.771   5.463  0.4007  0.1009  0.4814
  749MOL0     C 1018  13.186   7.685   5.526  0.9308  0.2056 -0.0950
  749MOL0     C 1019  13.260   7.768   5.639 -0.3078  0.5232  0.1394
  749MOL0     C 1020  13.381   7.689   5.694 -1.4593  0.4303 -0.1224
  749MOL0     C 1021  13.420   7.750   5.834  0.2178  0.1545 -1.0947
  749MOL0     C 1022  13.546   7.672   5.878 -0.1153 -0.0670  0.2223
  749MOL0     C 1023  13.605   7.734   5.995  0.0804 -1.1270 -0.0795
  749MOL0    Cl 1024  13.785   7.714   6.018  0.1563 -0.2232 -0.0588
  749MOL0     C 1025  12.641   7.774   5.304 -0.0924 -0.0994  0.5587
  749MOL0     C 1026  12.513   7.734   5.274  0.5457  0.1699 -0.7063
  749MOL0     O 1027  12.213   7.688   5.238  0.4267  0.4027 -0.0438
  749MOL0     C 1028  12.166   7.500   4.940 -0.1708 -0.6666  0.1177
  749MOL0     C 1029  12.076   7.459   4.846  0.0878 -0.4394  0.4635
  749MOL0     N 1030  11.517   7.353   4.123 -0.3738  0.1912  1.2772
  749MOL0     N 1031  11.561   7.320   4.004  0.6549 -0.6061 -0.9814
  749MOL0     C 1032  11.436   6.500   3.514 -0.3384  0.7590  0.2700
  749MOL0     C 1033  11.341   6.502   3.410 -0.2156 -0.7522  0.4003
  749MOL0     C 1034  11.059   6.644   3.117 -0.0381 -0.4784 -0.3920
  749MOL0     C 1035  10.975   6.757   3.117  0.4095  0.4512 -0.3537
  749MOL0     C 1036  10.870   6.767   3.023 -0.1089  0.4691  0.5331
  749MOL0     C 1037  10.840   6.655   2.934  0.0442 -0.0861 -1.4556
  749MOL0     O 1038  10.748   6.646   2.837  0.2163 -0.1863 -1.1740
  749MOL0     C 1039  10.726   6.773   2.761 -0.5918 -0.6013  0.5724
  749MOL0     C 1040  10.649   6.745   2.629  0.4293 -0.2000 -0.3199
  749MOL0     C 1041  10.597   6.858   2.543  0.6797 -0.2554 -0.5427
  749MOL0     C 1042  10.528   6.968   2.626 -0.5785 -0.2635  1.2220
  749MOL0     C 1043  10.453   7.056   2.535  0.1159  0.7391  0.8643
  749MOL0     C 1044  10.397   7.128   2.452  0.6038 -0.6210  0.4129
  749MOL0     C 1045  10.912   6.536   2.949 -0.0691  0.2248 -0.1857
  749MOL0     C 1046  11.016   6.529   3.040 -0.2275  0.4744 -0.3187
  749MOL0     C 1047  11.096   6.399   3.064  0.0125 -0.3408 -1.4153
  749MOL0     H 1048  11.523   6.672   3.186 -0.9151  0.0710  0.0373
  749MOL0     H 1049  11.684   6.667   3.367 -1.0208  2.3231  0.2023
  749MOL0     H 1050  11.848   6.538   3.523  2.6390  1.4943  0.5776
  749MOL0     H 1051  11.767   6.690   3.568 -1.4827 -1.3341 -3.5924
  749MOL0     H 1052  11.963   6.602   3.698  0.7524 -0.8577  1.4677
  749MOL0     H 1053  11.857   6.469   3.754 -0.0574  1.1543  0.2549
  749MOL0     H 1054  11.883   6.633   3.931 -1.1748 -1.1618  0.0794
  749MOL0     H 1055  11.711   6.636   3.870 -0.5664  3.9667 -2.0459
  749MOL0     H 1056  11.932   6.830   3.835  0.1012  1.4247 -1.5708
  749MOL0     H 1057  11.767   6.846   3.763  0.1101 -2.0634 -2.0954
  749MOL0     H 1058  11.654   6.825   3.983  0.1754  1.6863  2.4974
  749MOL0     H 1059  11.813   6.793   4.055  1.1528 -1.6730 -1.6405
  749MOL0     H 1060  11.729   7.028   4.098 -0.3756 -1.3540  0.8347
  749MOL0     H 1061  11.890   7.026   4.030  0.7872 -1.8343 -1.6411
  749MOL0     H 1062  11.646   7.054   3.851 -1.1742  4.0103  0.1780
  749MOL0     H 1063  11.813   7.053   3.805  0.2125  3.7531 -1.2548
  749MOL0     H 1064  11.864   7.269   3.893 -0.6076  0.8215  1.4099
  749MOL0     H 1065  11.711   7.290   3.807  1.7728  2.8432 -0.3217
  749MOL0     H 1066  11.828   7.284   4.162  1.0368  1.4172 -1.8826
  749MOL0     H 1067  11.569   7.499   4.352 -0.2218 -0.7461  0.8992
  749MOL0     H 1068  11.546   7.336   4.406 -1.8092  0.6351 -1.3138
  749MOL0     H 1069  11.809   7.317   4.411 -1.7072 -1.4236  0.2653
  749MOL0     H 1070  11.811   7.494   4.384 -3.3649  1.5684 -1.0341
  749MOL0     H 1071  11.672   7.353   4.605  0.6013 -0.8194  0.5293
  749MOL0     H 1072  11.670   7.521   4.597 -0.8898  0.3394 -0.4415
  749MOL0     H 1073  11.928   7.514   4.625 -0.2633 -0.7086 -2.0988
  749MOL0     H 1074  11.922   7.351   4.629  3.0351  1.5935  0.4110
  749MOL0     H 1075  11.804   7.565   5.041  0.2811  1.3670  3.0089
  749MOL0     H 1076  11.988   7.632   5.194  3.0540  2.3187 -0.9610
  749MOL0     H 1077  12.576   7.450   5.106 -3.9013 -0.9726  2.2715
  749MOL0     H 1078  12.816   7.516   5.169 -1.9788 -1.4505 -0.1004
  749MOL0     H 1079  12.904   7.634   5.457  0.2848 -1.7405 -0.5766
  749MOL0     H 1080  13.020   7.618   5.319 -1.0446 -1.6308  1.1053
  749MOL0     H 1081  13.106   7.845   5.390 -1.4415  0.6788  0.0633
  749MOL0     H 1082  13.022   7.838   5.536 -2.0285 -0.1455 -0.7344
  749MOL0     H 1083  13.145   7.596   5.575  0.5504  0.3215 -0.2049
  749MOL0     H 1084  13.260   7.652   5.452  0.4759 -0.7614 -0.1269
  749MOL0     H 1085  13.199   7.796   5.725 -1.5211  1.1941 -0.9096
  749MOL0     H 1086  13.287   7.866   5.598  2.6899 -0.7691 -1.2767
  749MOL0     H 1087  13.468   7.682   5.628 -0.6140 -2.7467  1.1305
  749MOL0     H 1088  13.356   7.583   5.708  4.8502 -1.0853  3.5961
  749MOL0     H 1089  13.439   7.857   5.820 -1.6816  0.7013  0.0793
  749MOL0     H 1090  13.344   7.736   5.911 -0.7832 -1.8174 -2.3616
  749MOL0     H 1091  13.613   7.696   5.795 -1.8222 -0.6749 -1.4057
  749MOL0     H 1092  13.540   7.565   5.899 -0.6809 -0.5483 -2.1282
  749MOL0     H 1093  13.601   7.843   5.990 -1.1718 -0.7998  4.0519
  749MOL0     H 1094  13.545   7.696   6.078 -0.3747 -0.4158 -0.0824
  749MOL0     H 1095  12.658   7.875   5.338  2.0260 -0.5572  1.0168
  749MOL0     H 1096  12.435   7.805   5.298  1.1175  1.6768 -2.9850
  749MOL0     H 1097  12.271   7.486   4.915 -0.7702 -1.6997 -2.0984
  749MOL0     H 1098  12.107   7.413   4.752 -0.7455  2.6894 -1.4844
  749MOL0     H 1099  11.411   6.447   3.606 -1.6804 -0.1883 -0.6011
  749MOL0     H 1100  11.246   6.456   3.436 -1.5335  0.6656 -1.6517
  749MOL0     H 1101  11.001   6.838   3.184  0.8101  1.2427 -1.4262
  749MOL0     H 1102  10.809   6.857   3.016  1.2052  1.2935 -0.7992
  749MOL0     H 1103  10.819   6.820   2.726 -1.4966  3.8007  3.1784
  749MOL0     H 1104  10.673   6.852   2.816 -1.5790 -1.4033  0.7927
  749MOL0     H 1105  10.558   6.687   2.649 -1.1056  2.2498  0.1441
  749MOL0     H 1106  10.712   6.686   2.562 -0.6561  0.0552 -1.6212
  749MOL0     H 1107  10.518   6.814   2.481 -4.2944  0.8096  4.2484
  749MOL0     H 1108  10.681   6.889   2.480  0.3449  0.4276 -0.6531
  749MOL0     H 1109  10.457   6.924   2.697 -0.3649 -1.0591  0.9539
  749MOL0     H 1110  10.594   7.032   2.685 -1.2523 -0.2902  2.0211
  749MOL0     H 1111  10.336   7.180   2.381  1.2106 -1.7699 -0.9959
  749MOL0     H 1112  10.878   6.452   2.889 -0.6884 -1.3799  2.2501
  749MOL0     H 1113  11.112   6.385   3.171  4.0386  1.2895 -1.6185
  749MOL0     H 1114  11.037   6.317   3.023  0.6927 -0.7122 -1.6702
  749MOL0     H 1115  11.196   6.398   3.020  1.0945 -2.2575  0.9209
  750MOL0     O 1116   7.976   1.231   0.304 -0.3828 -0.8790 -0.2306
  750MOL0     C 1117   8.022   1.184   0.409  0.5857  0.4475  0.4089
  750MOL0     O 1118   8.087   1.250   0.508  0.5897 -0.1167  0.0579
  750MOL0     C 1119   8.130   1.386   0.488  0.6632  0.8969 -0.5347
  750MOL0     C 1120   8.160   1.452   0.612  0.2428 -0.2129  0.5714
  750MOL0     C 1121   8.221   1.577   0.601 -0.3369  0.4311 -0.0901
  750MOL0     C 1122   8.248   1.637   0.478  0.0698 -0.3820 -0.9474
  750MOL0     O 1123   8.282   1.771   0.488  0.8203 -0.2550  0.1201
  750MOL0     C 1124   8.292   1.845   0.362 -0.2029 -0.8155 -0.5604
  750MOL0     C 1125   8.295   1.993   0.403 -0.1130 -0.5021 -0.1298
  750MOL0     C 1126   8.157   2.050   0.439 -0.3697  0.9728 -0.6777
  750MOL0     C 1127   8.152   2.189   0.418 -0.1678 -0.4298  0.8472
  750MOL0     C 1128   8.022   2.255   0.459  0.2999  0.5019  0.3943
  750MOL0     C 1129   8.045   2.410   0.464 -0.5420 -0.3194 -0.5926
  750MOL0     C 1130   8.043   2.477   0.330  0.2570  0.0502  0.0731
  750MOL0     C 1131   7.907   2.537   0.299  0.4989 -0.1447 -1.4870
  750MOL0     N 1132   7.865   2.655   0.374  0.5796 -0.3485 -0.7120
  750MOL0     C 1133   7.934   2.772   0.378 -1.7638  1.2966 -1.3247
  750MOL0     C 1134   7.866   2.847   0.470 -0.3446 -0.4320  0.6703
  750MOL0     C 1135   7.904   2.985   0.510  0.4375 -0.2298  0.8591
  750MOL0     C 1136   8.010   2.987   0.609  0.1905 -0.4910 -0.7799
  750MOL0     C 1137   7.996   3.107   0.711 -0.5183  0.0259 -0.2873
  750MOL0     C 1138   8.135   3.131   0.785 -0.1108 -0.4483  1.0181
  750MOL0     O 1139   8.245   3.157   0.690 -0.1178  0.3048  0.2176
  750MOL0     C 1140   8.371   3.191   0.740 -0.1309  0.5708  0.8872
  750MOL0     C 1141   8.406   3.320   0.719  0.0317 -1.3894  0.0293
  750MOL0     C 1142   8.539   3.361   0.738  0.1065  0.3906 -0.7168
  750MOL0     C 1143   8.646   3.266   0.762  0.8501  0.1112  0.0338
  750MOL0     C 1144   8.781   3.321   0.761  0.1927  0.7123  0.4864
  750MOL0     O 1145   8.783   3.449   0.787 -0.9747 -0.2233 -0.1249
  750MOL0     C 1146   8.904   3.513   0.791  0.1303  0.8007 -0.0068
  750MOL0     C 1147   9.020   3.500   0.704  0.4495  0.2627 -0.2175
  750MOL0     C 1148   9.137   3.574   0.737  1.0877 -0.7593 -0.1656
  750MOL0     C 1149   9.132   3.680   0.834 -0.1910 -0.6895 -1.1863
  750MOL0     O 1150   9.238   3.762   0.864  0.4983 -0.5310  0.9121
  750MOL0     C 1151   9.355   3.752   0.785 -0.7544  0.2648 -0.7776
  750MOL0     C 1152   9.472   3.830   0.851  0.0613  0.2807 -0.1162
  750MOL0     C 1153   9.598   3.848   0.763  0.4705  0.0010 -0.4809
  750MOL0     C 1154   9.717   3.897   0.846 -0.4796  0.6201 -0.7858
  750MOL0     C 1155   9.820   3.948   0.754 -0.4755 -0.3733  0.5882
  750MOL0     C 1156   9.953   3.981   0.825 -0.4450 -0.3912 -0.2458
  750MOL0     C 1157  10.049   4.069   0.737 -0.0485  0.0381 -0.7182
  750MOL0     C 1158  10.189   4.012   0.732 -0.0205  0.0453 -0.6704
  750MOL0    Cl 1159  10.301   4.143   0.678 -0.0604  0.1712  0.1911
  750MOL0     C 1160   9.018   3.693   0.909 -0.5682 -0.2511 -0.0898
  750MOL0     C 1161   8.908   3.610   0.888  0.0072  0.2861  0.3106
  750MOL0     O 1162   8.879   3.243   0.750 -0.1377 -0.6770  0.1547
  750MOL0     C 1163   8.601   3.132   0.784  0.1611  0.2482  0.4909
  750MOL0     C 1164   8.467   3.088   0.772  0.0987 -0.4760 -0.8424
  750MOL0     N 1165   7.754   2.785   0.506 -0.3277  0.4182  0.1308
  750MOL0     N 1166   7.751   2.677   0.445 -0.8106  0.3217  0.5380
  750MOL0     C 1167   8.228   1.568   0.353 -0.7837 -0.7493 -0.2577
  750MOL0     C 1168   8.169   1.439   0.367  0.1509 -0.0862 -0.5753
  750MOL0     C 1169   8.018   1.036   0.417  0.7185 -0.1492  0.2289
  750MOL0     C 1170   7.968   0.971   0.303  0.3592  0.1767 -0.7404
  750MOL0     C 1171   7.955   0.834   0.304 -0.2878  0.8791  0.2475
  750MOL0     C 1172   7.983   0.759   0.416 -0.7477  0.3654  0.4398
  750MOL0     O 1173   7.965   0.626   0.425 -0.4167  1.4038  0.4940
  750MOL0     C 1174   8.065   0.550   0.350 -0.2509  0.0684 -0.6522
  750MOL0     C 1175   8.037   0.510   0.209  0.2536  1.0387 -0.2524
  750MOL0     C 1176   7.888   0.477   0.155 -0.4995 -0.1942 -0.7231
  750MOL0     C 1177   7.877   0.377   0.033 -0.1763 -0.0732 -0.1136
  750MOL0     C 1178   7.746   0.318   0.034 -0.3823  0.3474  0.4312
  750MOL0     C 1179   7.636   0.269   0.022 -0.5963  0.7759  0.0092
  750MOL0     C 1180   8.030   0.824   0.528  0.3905 -0.8301 -0.0767
  750MOL0     C 1181   8.063   0.965   0.534 -0.8897  0.0823 -0.5358
  750MOL0     C 1182   8.104   1.028   0.665  0.8069  0.0727  0.7372
  750MOL0     H 1183   8.119   1.408   0.703 -0.4558 -0.2659  0.2417
  750MOL0     H 1184   8.238   1.626   0.696 -1.6651 -2.8538  2.0180
  750MOL0     H 1185   8.386   1.820   0.312  0.4189  2.5744 -1.3309
  750MOL0     H 1186   8.207   1.820   0.299  0.5053 -2.7364 -0.8377
  750MOL0     H 1187   8.336   2.060   0.327 -0.1193 -1.2773 -0.8363
  750MOL0     H 1188   8.357   2.002   0.493 -0.5111  3.5668 -0.1048
  750MOL0     H 1189   8.150   2.031   0.546 -0.4629  3.8283 -0.1141
  750MOL0     H 1190   8.072   2.003   0.387  1.2712 -1.9455 -0.9333
  750MOL0     H 1191   8.238   2.226   0.476 -0.1881  0.3011  0.4293
  750MOL0     H 1192   8.168   2.206   0.311 -0.4135 -0.0813  0.8653
  750MOL0     H 1193   7.944   2.211   0.397 -0.9297  1.8251  0.9129
  750MOL0     H 1194   8.001   2.223   0.562  2.0460 -1.8193  0.1108
  750MOL0     H 1195   7.974   2.455   0.533 -0.0445  2.9237 -2.0465
  750MOL0     H 1196   8.144   2.423   0.509 -0.6714 -5.3218  1.9103
  750MOL0     H 1197   8.072   2.407   0.251 -1.4383  1.6410 -2.0850
  750MOL0     H 1198   8.110   2.563   0.332 -0.2333  0.4212  1.2770
  750MOL0     H 1199   7.902   2.556   0.191 -0.6285  1.3094 -1.2080
  750MOL0     H 1200   7.834   2.458   0.319 -0.7195  1.0018 -1.2342
  750MOL0     H 1201   8.030   2.786   0.329 -1.0383  0.9118 -0.0868
  750MOL0     H 1202   7.934   3.034   0.418 -1.3074 -0.1821  0.2757
  750MOL0     H 1203   7.819   3.039   0.554 -0.0279  2.0392 -2.4672
  750MOL0     H 1204   8.007   2.898   0.672  0.3077 -0.8852 -1.3244
  750MOL0     H 1205   8.108   2.987   0.561  1.3853  1.7842  1.4386
  750MOL0     H 1206   7.912   3.086   0.778 -2.0983 -0.4334 -2.3205
  750MOL0     H 1207   7.963   3.200   0.663  1.2775  1.5779  1.3394
  750MOL0     H 1208   8.167   3.043   0.840  3.0575 -0.2725 -0.2829
  750MOL0     H 1209   8.124   3.206   0.864  0.4927  0.8425 -0.0736
  750MOL0     H 1210   8.335   3.397   0.691  0.3852 -0.9989  0.2028
  750MOL0     H 1211   8.558   3.465   0.711 -1.3516  0.8359 -0.1637
  750MOL0     H 1212   9.026   3.426   0.624  0.6820  0.2285 -0.1702
  750MOL0     H 1213   9.222   3.546   0.675  2.8361 -0.9414  2.1788
  750MOL0     H 1214   9.383   3.646   0.776 -0.7544  0.3825 -2.7836
  750MOL0     H 1215   9.328   3.785   0.684 -4.1921  0.4707  0.1047
  750MOL0     H 1216   9.442   3.930   0.883 -1.3809  0.0440 -0.6753
  750MOL0     H 1217   9.496   3.768   0.937  0.0825 -1.0607 -1.0544
  750MOL0     H 1218   9.626   3.752   0.718  0.2064  0.3764 -1.4707
  750MOL0     H 1219   9.568   3.913   0.681  4.5374  0.0052 -2.1862
  750MOL0     H 1220   9.759   3.813   0.902 -0.0292 -0.6703 -2.9505
  750MOL0     H 1221   9.672   3.967   0.917 -2.1460 -0.3385 -0.8353
  750MOL0     H 1222   9.777   4.035   0.704 -0.2884 -1.0411 -0.7913
  750MOL0     H 1223   9.855   3.875   0.680 -0.1704 -1.3038  1.6279
  750MOL0     H 1224   9.932   4.013   0.927 -1.6441 -0.9248 -0.3035
  750MOL0     H 1225  10.003   3.884   0.835  3.4680  1.2620 -1.7771
  750MOL0     H 1226  10.052   4.163   0.792 -0.0440 -1.4317  1.9913
  750MOL0     H 1227  10.009   4.090   0.638 -0.4396 -0.6393 -0.7128
  750MOL0     H 1228  10.213   3.967   0.829  0.3073 -0.9667 -1.2063
  750MOL0     H 1229  10.185   3.923   0.669 -1.8190  1.6606 -2.9855
  750MOL0     H 1230   9.015   3.772   0.984 -2.4702  0.6452 -1.0262
  750MOL0     H 1231   8.822   3.611   0.955  0.0564  0.8236  0.3698
  750MOL0     H 1232   8.671   3.056   0.814 -2.4338 -1.7609  1.8643
  750MOL0     H 1233   8.433   2.985   0.782 -2.3558  0.1683 -1.7583
  750MOL0     H 1234   8.261   1.613   0.260 -0.4674 -1.9675 -0.7593
  750MOL0     H 1235   8.155   1.387   0.273  1.6494 -2.0222  0.2217
  750MOL0     H 1236   7.927   1.020   0.215  1.7299 -0.6896 -1.9041
  750MOL0     H 1237   7.916   0.774   0.222  0.7370  1.6632 -0.8508
  750MOL0     H 1238   8.090   0.466   0.415 -0.6408  0.4321 -0.0243
  750MOL0     H 1239   8.160   0.605   0.352 -0.8522  1.1501 -0.9150
  750MOL0     H 1240   8.090   0.414   0.205 -3.1534 -0.9337 -2.0964
  750MOL0     H 1241   8.076   0.583   0.138 -1.5916  0.3350 -2.0768
  750MOL0     H 1242   7.844   0.572   0.123  5.8294  2.5825 -2.6708
  750MOL0     H 1243   7.834   0.445   0.244 -0.6575  0.9715 -0.3873
  750MOL0     H 1244   7.878   0.435  -0.060 -2.9988  1.1075  0.5150
  750MOL0     H 1245   7.950   0.295   0.029 -2.3269 -2.1543  1.1298
  750MOL0     H 1246   7.538   0.261  -0.020  0.1258  0.4897 -1.7523
  750MOL0     H 1247   8.066   0.779   0.620 -2.1533 -0.4866  1.1911
  750MOL0     H 1248   8.204   1.073   0.665  0.6870  0.3881  1.8758
  750MOL0     H 1249   8.032   1.104   0.697 -1.7204 -2.4335  1.4444
  750MOL0     H 1250   8.095   0.944   0.735 -1.7109 -0.1047  0.2848
  751MOL0     O 1251   6.849   7.494   1.990  0.8620 -0.2864 -0.3020
  751MOL0     C 1252   6.783   7.538   2.080  0.1170 -0.1147 -0.2059
  751MOL0     O 1253   6.824   7.557   2.208 -0.0495 -0.3057  0.4607
  751MOL0     C 1254   6.957   7.557   2.250 -0.1413 -0.2787 -0.0121
  751MOL0     C 1255   6.980   7.607   2.377 -0.5050 -0.1411  0.6215
  751MOL0     C 1256   7.103   7.600   2.447  0.1177  0.3599 -0.0602
  751MOL0     C 1257   7.210   7.533   2.381 -0.3563 -0.3034  0.0299
  751MOL0     O 1258   7.328   7.497   2.431 -0.7662  1.1209 -0.2688
  751MOL0     C 1259   7.333   7.449   2.565  0.4422  0.8366  0.8894
  751MOL0     C 1260   7.341   7.301   2.570 -0.5078  1.1414 -0.0006
  751MOL0     C 1261   7.264   7.231   2.468  1.1919  0.3563 -0.2166
  751MOL0     C 1262   7.277   7.072   2.477 -1.1209  0.0671 -0.7310
  751MOL0     C 1263   7.219   7.002   2.372  0.4777  0.3773  0.1870
  751MOL0     C 1264   7.243   6.851   2.371  0.2437 -0.7250 -0.7315
  751MOL0     C 1265   7.166   6.770   2.475  0.0551  0.1544  0.2084
  751MOL0     C 1266   7.042   6.692   2.420 -0.0375  0.1403 -0.0309
  751MOL0     N 1267   7.086   6.570   2.340 -0.2580 -0.5321 -0.4037
  751MOL0     C 1268   7.126   6.546   2.207  0.8475 -0.0513  0.0214
  751MOL0     C 1269   7.168   6.420   2.208  0.7941  0.1123  0.1646
  751MOL0     C 1270   7.251   6.368   2.093  0.4555 -0.3328  0.7664
  751MOL0     C 1271   7.154   6.321   1.983 -0.5150  0.3344 -0.4134
  751MOL0     C 1272   7.223   6.209   1.904 -0.0239  0.7100  0.2015
  751MOL0     C 1273   7.124   6.115   1.832 -0.1124 -0.0790  0.6256
  751MOL0     O 1274   7.124   5.983   1.887  0.0847 -0.4081  0.5625
  751MOL0     C 1275   7.044   5.887   1.835  0.3362 -0.4976 -0.1696
  751MOL0     C 1276   7.035   5.766   1.894  0.5449  0.2337 -0.3048
  751MOL0     C 1277   6.963   5.663   1.833 -0.0119 -0.9088  0.4760
  751MOL0     C 1278   6.907   5.682   1.707 -0.7348  0.0931  0.0513
  751MOL0     C 1279   6.859   5.566   1.633  0.1637 -0.4727 -0.6885
  751MOL0     O 1280   6.870   5.565   1.499  0.1129  0.0375 -0.5078
  751MOL0     C 1281   6.808   5.460   1.432 -0.2665  0.5299 -0.6308
  751MOL0     C 1282   6.725   5.498   1.322 -0.0506  0.0478  0.7647
  751MOL0     C 1283   6.662   5.403   1.250  0.8626  0.1543  0.0796
  751MOL0     C 1284   6.680   5.265   1.285 -0.6077 -0.1125  1.0431
  751MOL0     O 1285   6.625   5.163   1.207 -0.6084  0.0014  0.1880
  751MOL0     C 1286   6.733   5.075   1.164  0.9031  0.1855 -0.1380
  751MOL0     C 1287   6.690   4.990   1.048 -0.0059  0.3130  0.2743
  751MOL0     C 1288   6.553   4.921   1.062  0.2518 -0.0861  0.5340
  751MOL0     C 1289   6.535   4.800   0.972 -0.6511  0.0316 -0.4608
  751MOL0     C 1290   6.544   4.845   0.825 -0.3835 -1.1508 -0.4327
  751MOL0     C 1291   6.529   4.711   0.755  0.2264 -0.0226 -0.3129
  751MOL0     C 1292   6.532   4.730   0.597 -0.8220  0.9163 -0.4627
  751MOL0     C 1293   6.502   4.601   0.508  0.0677 -0.0369 -0.6937
  751MOL0    Cl 1294   6.342   4.552   0.557 -0.0128  0.5006  0.4735
  751MOL0     C 1295   6.755   5.229   1.393 -0.7376 -0.0255 -0.5604
  751MOL0     C 1296   6.819   5.325   1.465 -0.0039 -0.2294 -0.5124
  751MOL0     O 1297   6.806   5.481   1.703  0.3583 -0.5758  0.0298
  751MOL0     C 1298   6.910   5.812   1.648  0.7074 -0.3969 -0.7112
  751MOL0     C 1299   6.969   5.907   1.717  0.1019  0.4188 -0.5437
  751MOL0     N 1300   7.125   6.363   2.326 -0.2903 -0.1516 -0.0749
  751MOL0     N 1301   7.080   6.456   2.404 -0.3246 -0.1973  0.1722
  751MOL0     C 1302   7.194   7.515   2.243 -0.1822  1.0340  0.0559
  751MOL0     C 1303   7.071   7.517   2.182 -0.6098  0.3595 -0.1442
  751MOL0     C 1304   6.637   7.566   2.063  0.1152 -0.0876 -0.1200
  751MOL0     C 1305   6.582   7.673   2.131 -0.6077  0.1067 -0.5950
  751MOL0     C 1306   6.440   7.705   2.126  0.3503 -0.5777 -0.1229
  751MOL0     C 1307   6.360   7.637   2.037 -0.5160 -0.0295  0.1826
  751MOL0     O 1308   6.229   7.664   2.029 -0.1601 -0.3094  0.0651
  751MOL0     C 1309   6.183   7.802   2.055  0.3676  0.6867 -0.9941
  751MOL0     C 1310   6.040   7.816   2.008  0.3488  0.2428 -0.0890
  751MOL0     C 1311   5.929   7.764   2.103 -0.0267 -0.7055 -0.1396
  751MOL0     C 1312   5.784   7.761   2.043 -0.2389  0.2581 -0.0258
  751MOL0     C 1313   5.729   7.894   2.032 -0.0433  0.3343 -0.2511
  751MOL0     C 1314   5.653   7.986   2.025  0.3455  1.1846  0.9144
  751MOL0     C 1315   6.412   7.533   1.965 -0.0648  0.4854 -0.6568
  751MOL0     C 1316   6.548   7.499   1.969 -0.3374  0.4508 -0.3510
  751MOL0     C 1317   6.593   7.398   1.871 -0.0446  0.6110  0.1100
  751MOL0     H 1318   6.905   7.661   2.434 -1.6268  0.6225 -1.4942
  751MOL0     H 1319   7.098   7.632   2.551  0.7275  1.2752 -0.2987
  751MOL0     H 1320   7.400   7.498   2.636  0.2989 -1.0809  2.4343
  751MOL0     H 1321   7.239   7.468   2.618 -0.4629  1.6554 -0.9109
  751MOL0     H 1322   7.318   7.270   2.672  0.4273  0.4915  0.0233
  751MOL0     H 1323   7.445   7.277   2.549 -1.2700 -0.0173 -2.9027
  751MOL0     H 1324   7.308   7.270   2.375 -0.5731  1.0519 -0.8070
  751MOL0     H 1325   7.158   7.254   2.482  1.0695 -0.1228 -0.3352
  751MOL0     H 1326   7.381   7.041   2.489 -0.7985  1.3056 -0.1446
  751MOL0     H 1327   7.231   7.052   2.575  0.3864  4.4479  1.1241
  751MOL0     H 1328   7.110   7.008   2.370  0.4948  1.8300  1.5253
  751MOL0     H 1329   7.256   7.039   2.276 -3.0459  1.6751 -0.8348
  751MOL0     H 1330   7.228   6.809   2.271  0.8033  2.1883 -2.1316
  751MOL0     H 1331   7.343   6.814   2.398 -0.0272 -2.2952 -1.7121
  751MOL0     H 1332   7.130   6.851   2.539  1.9710 -0.8318  2.7111
  751MOL0     H 1333   7.223   6.710   2.547 -2.5923 -1.2678  1.2404
  751MOL0     H 1334   6.979   6.657   2.502 -1.6180  2.7066 -0.0355
  751MOL0     H 1335   6.991   6.755   2.348  0.2434  2.6082  1.8009
  751MOL0     H 1336   7.157   6.615   2.129  2.6708 -2.6438 -1.7047
  751MOL0     H 1337   7.316   6.450   2.059 -1.1490  0.6970  0.0007
  751MOL0     H 1338   7.317   6.290   2.132  0.2633  0.4847  2.8640
  751MOL0     H 1339   7.062   6.284   2.030  0.5538  1.0903  2.4836
  751MOL0     H 1340   7.126   6.406   1.921  1.0610  0.6360 -0.7544
  751MOL0     H 1341   7.285   6.142   1.963 -0.9333 -1.7843 -1.5139
  751MOL0     H 1342   7.287   6.255   1.827 -1.3472 -1.4158 -2.3480
  751MOL0     H 1343   7.154   6.105   1.727  0.3716 -2.2330  0.9253
  751MOL0     H 1344   7.028   6.168   1.837 -0.9687 -1.6088  0.7933
  751MOL0     H 1345   7.086   5.750   1.988 -3.1391 -1.3833  1.6521
  751MOL0     H 1346   6.951   5.562   1.869  0.6145 -1.1357  0.0510
  751MOL0     H 1347   6.710   5.600   1.290  1.7913 -0.0214 -0.4980
  751MOL0     H 1348   6.604   5.439   1.166  0.6839 -1.0931 -0.3436
  751MOL0     H 1349   6.825   5.127   1.136  0.1458  0.6131 -2.0065
  751MOL0     H 1350   6.757   5.009   1.247  0.3595  0.4951  0.2702
  751MOL0     H 1351   6.672   5.057   0.963  1.7465 -1.8795 -2.0081
  751MOL0     H 1352   6.770   4.919   1.027  0.7182  1.2282 -0.1498
  751MOL0     H 1353   6.551   4.882   1.164  1.3148 -1.1978  0.1436
  751MOL0     H 1354   6.466   4.983   1.036 -2.0601 -2.3139  2.4144
  751MOL0     H 1355   6.432   4.765   0.977 -0.6581 -1.0064 -4.3958
  751MOL0     H 1356   6.603   4.717   0.992 -0.0649  0.6671  0.2620
  751MOL0     H 1357   6.632   4.906   0.805 -1.5712  1.1821  1.0183
  751MOL0     H 1358   6.465   4.915   0.797  0.1759  0.1174  1.0951
  751MOL0     H 1359   6.609   4.643   0.784 -0.1858 -1.0397 -1.4716
  751MOL0     H 1360   6.438   4.660   0.788  1.5199 -1.8346  0.6691
  751MOL0     H 1361   6.627   4.770   0.561 -0.1454  0.1355  0.4296
  751MOL0     H 1362   6.469   4.816   0.572 -0.6093  0.6106 -2.1732
  751MOL0     H 1363   6.503   4.615   0.399 -0.5299 -1.9218 -0.9856
  751MOL0     H 1364   6.570   4.523   0.543 -2.2216 -1.1449  1.6200
  751MOL0     H 1365   6.761   5.129   1.436 -1.2303  0.0687 -0.2643
  751MOL0     H 1366   6.875   5.289   1.551 -0.4962 -3.3745 -1.3895
  751MOL0     H 1367   6.873   5.840   1.550  3.0394 -0.8939 -1.8024
  751MOL0     H 1368   6.974   6.002   1.664  0.0359  1.1915  0.7845
  751MOL0     H 1369   7.277   7.473   2.187 -1.6550 -1.9727 -0.0619
  751MOL0     H 1370   7.064   7.483   2.079  0.3221  0.6625 -0.3164
  751MOL0     H 1371   6.646   7.739   2.189  0.6570  0.3934 -2.2614
  751MOL0     H 1372   6.391   7.778   2.189  0.4988  0.0181 -0.6866
  751MOL0     H 1373   6.249   7.884   2.025  2.5290  1.1836  4.1286
  751MOL0     H 1374   6.165   7.802   2.162 -2.4689  0.3216 -1.4019
  751MOL0     H 1375   6.023   7.771   1.910 -0.4836 -1.7772  0.9372
  751MOL0     H 1376   6.032   7.925   1.996  3.1089  0.8903  2.7171
  751MOL0     H 1377   5.938   7.825   2.194  3.6188  0.0624 -0.8919
  751MOL0     H 1378   5.953   7.665   2.143  0.0130 -0.2985  0.8831
  751MOL0     H 1379   5.782   7.728   1.939 -1.2260  1.9967 -0.6027
  751MOL0     H 1380   5.727   7.688   2.100  2.8861 -1.4165  1.2206
  751MOL0     H 1381   5.585   8.070   2.029  1.2352  1.8889  2.3270
  751MOL0     H 1382   6.340   7.483   1.901  1.1108 -0.7103 -1.0783
  751MOL0     H 1383   6.514   7.327   1.847  1.1861  0.2267 -3.5517
  751MOL0     H 1384   6.618   7.443   1.774 -2.8379 -1.0412 -1.5170
  751MOL0     H 1385   6.675   7.335   1.906  0.1918  0.8473 -0.0039
  752MOL0     O 1386   3.439  10.838   0.657  0.3829  0.7220  0.2284
  752MOL0     C 1387   3.406  10.720   0.688 -0.0024 -0.0089 -1.1106
  752MOL0     O 1388   3.485  10.613   0.685  0.5164  0.6112 -0.3699
  752MOL0     C 1389   3.604  10.645   0.635 -1.4486  1.0631  0.4040
  752MOL0     C 1390   3.705  10.704   0.707  0.5831 -0.8996 -0.5925
  752MOL0     C 1391   3.828  10.738   0.649 -0.3464  0.4792  0.2708
  752MOL0     C 1392   3.852  10.707   0.512  0.0321  0.4666 -0.0730
  752MOL0     O 1393   3.979  10.733   0.461  0.0285  0.2535  0.2482
  752MOL0     C 1394   4.032  10.637   0.369 -0.3710  1.1811  0.0797
  752MOL0     C 1395   4.180  10.681   0.348  0.6944 -0.4029  0.0141
  752MOL0     C 1396   4.276  10.674   0.471 -0.4241  0.6399 -0.3624
  752MOL0     C 1397   4.397  10.755   0.439 -0.1746 -0.2216  1.0746
  752MOL0     C 1398   4.499  10.738   0.546  0.9425 -0.0920  0.7692
  752MOL0     C 1399   4.631  10.807   0.505  0.1131  0.0018 -0.3973
  752MOL0     C 1400   4.761  10.757   0.566  0.0759 -0.2705  0.1219
  752MOL0     C 1401   4.758  10.739   0.718 -0.5001 -0.2988 -0.6792
  752MOL0     N 1402   4.886  10.687   0.774 -0.0524 -0.1603 -0.5710
  752MOL0     C 1403   5.004  10.761   0.776  0.3292  0.7485 -0.0286
  752MOL0     C 1404   5.099  10.672   0.817 -0.5139 -0.6417  1.0568
  752MOL0     C 1405   5.239  10.699   0.837 -0.0438 -0.7445  0.2317
  752MOL0     C 1406   5.267  10.720   0.981  0.1348 -0.9686  0.8899
  752MOL0     C 1407   5.270  10.599   1.077 -0.2130 -0.0973 -0.1614
  752MOL0     C 1408   5.370  10.491   1.031  0.2828  0.7862  0.0092
  752MOL0     O 1409   5.378  10.391   1.138  0.5273 -0.6260 -0.5989
  752MOL0     C 1410   5.272  10.318   1.179 -1.2382 -0.3602  0.9084
  752MOL0     C 1411   5.274  10.269   1.312  0.3830 -0.1868  0.4286
  752MOL0     C 1412   5.168  10.201   1.369 -1.0233  0.0675  0.2311
  752MOL0     C 1413   5.048  10.173   1.288  0.0310  0.4021 -1.0779
  752MOL0     C 1414   4.945  10.083   1.343  0.9167  0.1852  0.0833
  752MOL0     O 1415   4.838  10.059   1.271 -0.1860  0.4461  0.1905
  752MOL0     C 1416   4.731  10.004   1.336 -0.8325  1.0301  0.5110
  752MOL0     C 1417   4.690  10.029   1.465  0.1241 -0.8596 -0.0825
  752MOL0     C 1418   4.592   9.955   1.522  0.8564 -0.0652 -0.1370
  752MOL0     C 1419   4.503   9.875   1.438  0.9171 -0.4057 -0.1598
  752MOL0     O 1420   4.399   9.813   1.499  0.6137  0.5656  0.3435
  752MOL0     C 1421   4.341   9.854   1.630 -0.5108  0.0697 -0.7119
  752MOL0     C 1422   4.206   9.788   1.667 -0.3231 -0.4294  0.5407
  752MOL0     C 1423   4.191   9.785   1.816 -0.5433  0.6349 -0.4313
  752MOL0     C 1424   4.048   9.751   1.848 -0.2094  0.8154 -0.1222
  752MOL0     C 1425   4.033   9.737   1.998  0.5161  1.0305 -0.4994
  752MOL0     C 1426   3.885   9.723   2.037  0.5067  0.4206 -0.9301
  752MOL0     C 1427   3.860   9.705   2.186 -0.3410  0.7475  0.2251
  752MOL0     C 1428   3.859   9.831   2.281  0.5723  0.3556 -0.2372
  752MOL0    Cl 1429   4.012   9.907   2.301 -0.3917 -0.3143  0.1073
  752MOL0     C 1430   4.534   9.871   1.298 -0.7605 -0.1321  0.2141
  752MOL0     C 1431   4.650   9.929   1.254 -0.1976 -0.1558 -0.4761
  752MOL0     O 1432   4.968  10.041   1.459  0.3463 -0.6448 -0.6275
  752MOL0     C 1433   5.054  10.212   1.155 -0.2917 -0.1639  0.2764
  752MOL0     C 1434   5.158  10.285   1.106  0.1900 -1.6278 -0.3263
  752MOL0     N 1435   5.031  10.558   0.846 -0.0990  0.8500 -1.2788
  752MOL0     N 1436   4.904  10.570   0.832 -0.2941  0.2761 -0.7010
  752MOL0     C 1437   3.747  10.651   0.437 -0.5498  0.3512 -0.2651
  752MOL0     C 1438   3.627  10.608   0.500 -0.0872 -0.3932  0.5062
  752MOL0     C 1439   3.282  10.700   0.745  0.4498  0.8690 -0.0623
  752MOL0     C 1440   3.275  10.607   0.854  0.9574 -0.0100  0.4158
  752MOL0     C 1441   3.146  10.587   0.908 -0.5730 -0.2110 -0.3072
  752MOL0     C 1442   3.027  10.648   0.866  0.2053 -0.3541  0.1090
  752MOL0     O 1443   2.898  10.629   0.918  0.1040 -0.2743  0.7643
  752MOL0     C 1444   2.899  10.657   1.059 -0.0721 -0.5005  0.0905
  752MOL0     C 1445   2.758  10.633   1.117 -0.2001  0.0158 -0.4792
  752MOL0     C 1446   2.729  10.670   1.261 -0.7245  0.4119  0.2577
  752MOL0     C 1447   2.818  10.600   1.363  0.3611  0.1751 -0.4048
  752MOL0     C 1448   2.766  10.464   1.401 -0.1033  0.7105  0.8749
  752MOL0     C 1449   2.715  10.356   1.422 -0.0902  0.4702 -0.1332
  752MOL0     C 1450   3.037  10.733   0.760  0.0050  0.7648  0.5230
  752MOL0     C 1451   3.162  10.759   0.697  0.1860  0.2750 -0.4882
  752MOL0     C 1452   3.165  10.853   0.576  0.1489 -0.0567 -0.5671
  752MOL0     H 1453   3.692  10.725   0.813  1.2249  0.6559 -0.7887
  752MOL0     H 1454   3.913  10.785   0.699 -1.5466  3.7606 -0.5041
  752MOL0     H 1455   4.034  10.542   0.423 -4.0904  0.4092 -0.9113
  752MOL0     H 1456   3.981  10.626   0.273 -1.1595  2.8208  0.2661
  752MOL0     H 1457   4.174  10.787   0.326  1.2628 -0.6199 -1.2642
  752MOL0     H 1458   4.213  10.623   0.261  2.4431  1.4230 -0.5958
  752MOL0     H 1459   4.302  10.571   0.496 -3.0329 -0.7391 -2.7457
  752MOL0     H 1460   4.226  10.723   0.555  2.9031  1.3995  1.3573
  752MOL0     H 1461   4.448  10.717   0.350  1.1027  2.1050  0.7106
  752MOL0     H 1462   4.366  10.860   0.429  3.1026  1.2948  4.2192
  752MOL0     H 1463   4.470  10.785   0.641 -0.4370 -2.4336  1.5903
  752MOL0     H 1464   4.500  10.630   0.566  1.1169 -0.4356 -0.9582
  752MOL0     H 1465   4.653  10.791   0.399  0.8739  1.9752 -0.5879
  752MOL0     H 1466   4.628  10.917   0.512 -1.1639 -0.1240  1.8628
  752MOL0     H 1467   4.843  10.819   0.531  0.2477 -1.6665 -2.1922
  752MOL0     H 1468   4.772  10.660   0.516 -4.3648 -0.8937 -0.1157
  752MOL0     H 1469   4.739  10.840   0.754  0.8315  0.1490 -1.1894
  752MOL0     H 1470   4.671  10.681   0.750 -0.2183 -0.5256 -0.2993
  752MOL0     H 1471   5.021  10.864   0.746  2.6473 -0.4221 -3.3832
  752MOL0     H 1472   5.297  10.613   0.801 -3.2575 -2.5992 -1.0195
  752MOL0     H 1473   5.265  10.791   0.785 -3.8430  1.0414  1.1599
  752MOL0     H 1474   5.363  10.772   0.977 -1.1545  1.7762  2.6909
  752MOL0     H 1475   5.202  10.798   1.020 -0.3589  0.6389 -2.7631
  752MOL0     H 1476   5.175  10.545   1.072 -2.3972  3.2450  1.8596
  752MOL0     H 1477   5.275  10.629   1.182 -2.9712  0.0469  0.0074
  752MOL0     H 1478   5.471  10.527   1.009  0.1901  0.1903 -1.5437
  752MOL0     H 1479   5.338  10.449   0.935 -2.4779 -2.4896  2.1338
  752MOL0     H 1480   5.352  10.306   1.378 -1.8808  0.9439  2.6425
  752MOL0     H 1481   5.184  10.177   1.473  1.7504  0.2751 -0.0826
  752MOL0     H 1482   4.735  10.108   1.523 -0.4940 -1.3459  1.0775
  752MOL0     H 1483   4.571   9.977   1.626 -0.7705  3.7873 -1.1295
  752MOL0     H 1484   4.410   9.826   1.710 -0.6804  0.4171 -0.4391
  752MOL0     H 1485   4.335   9.963   1.628 -1.3021  0.0207 -1.8582
  752MOL0     H 1486   4.122   9.833   1.613  0.8071  0.1266 -0.8234
  752MOL0     H 1487   4.222   9.685   1.632  0.2470 -1.0982  2.6088
  752MOL0     H 1488   4.259   9.704   1.845 -0.1896  0.3351 -1.9999
  752MOL0     H 1489   4.217   9.877   1.869 -0.0570 -0.1339  0.7088
  752MOL0     H 1490   4.018   9.652   1.814 -0.3027  0.8881 -0.2503
  752MOL0     H 1491   3.977   9.820   1.802 -1.4278  0.0566  0.5676
  752MOL0     H 1492   4.069   9.828   2.047 -0.0997  0.8969  0.2325
  752MOL0     H 1493   4.101   9.658   2.030 -0.5070  0.4221  0.2379
  752MOL0     H 1494   3.828   9.812   2.007  1.9254  1.1140 -1.6819
  752MOL0     H 1495   3.852   9.640   1.974  1.1731 -0.0612 -0.6596
  752MOL0     H 1496   3.933   9.637   2.231  0.6675  1.0606 -0.8633
  752MOL0     H 1497   3.768   9.652   2.211 -0.2343  1.9248  3.6156
  752MOL0     H 1498   3.789   9.897   2.229 -0.2817 -0.5854 -0.3196
  752MOL0     H 1499   3.831   9.794   2.380  0.9831  0.3176 -0.1329
  752MOL0     H 1500   4.470   9.826   1.223 -1.1012 -0.4185  0.6703
  752MOL0     H 1501   4.667   9.930   1.147 -2.0138 -1.5528 -0.8299
  752MOL0     H 1502   4.991  10.169   1.077  2.1675 -2.8218 -0.4465
  752MOL0     H 1503   5.174  10.310   1.002  3.2722  0.1320  0.4393
  752MOL0     H 1504   3.757  10.621   0.333  1.7852 -2.0755  0.5588
  752MOL0     H 1505   3.542  10.563   0.449 -0.4373  1.0016 -0.1833
  752MOL0     H 1506   3.355  10.546   0.894 -2.0982 -1.5024  5.0936
  752MOL0     H 1507   3.129  10.513   0.986 -2.6367  1.1353  0.6058
  752MOL0     H 1508   2.918  10.765   1.065  0.8261 -0.1938 -4.5617
  752MOL0     H 1509   2.973  10.595   1.110 -0.7688 -0.4500  1.1977
  752MOL0     H 1510   2.725  10.529   1.107 -2.1656  0.4485  0.8379
  752MOL0     H 1511   2.690  10.689   1.051  1.1629 -0.0498 -1.9966
  752MOL0     H 1512   2.626  10.645   1.290 -1.0767 -1.6271 -2.3528
  752MOL0     H 1513   2.743  10.778   1.264  0.3301  0.3090 -0.5853
  752MOL0     H 1514   2.920  10.588   1.327  0.1429 -2.7851 -0.2758
  752MOL0     H 1515   2.826  10.658   1.456  0.3433 -1.9491  0.9718
  752MOL0     H 1516   2.690  10.255   1.445  4.2923 -1.1727 -1.6322
  752MOL0     H 1517   2.949  10.784   0.722 -0.2936  0.4627  0.7974
  752MOL0     H 1518   3.065  10.877   0.540  0.9000  3.8216 -0.5078
  752MOL0     H 1519   3.210  10.946   0.613  2.1467 -1.1622 -0.0721
  752MOL0     H 1520   3.220  10.804   0.495 -2.4470 -4.9335  0.2527
  753MOL0     O 1521  11.318  10.131  11.011  0.0850  0.1010  0.3514
  753MOL0     C 1522  11.235  10.170  10.935 -0.1591 -0.4952  1.0954
  753MOL0     O 1523  11.173  10.288  10.946  0.1872 -0.1420  0.0148
  753MOL0     C 1524  11.172  10.355  11.065 -0.5053 -0.6774 -1.0009
  753MOL0     C 1525  11.059  10.362  11.139  0.3131  0.1473  1.4339
  753MOL0     C 1526  11.058  10.450  11.254  0.3050  0.5446 -0.3924
  753MOL0     C 1527  11.171  10.513  11.297 -0.1500 -0.6043 -0.1312
  753MOL0     O 1528  11.153  10.588  11.414  0.0127  0.4867 -0.0450
  753MOL0     C 1529  11.252  10.579  11.515  0.4175 -0.3138 -0.2511
  753MOL0     C 1530  11.229  10.653  11.641  0.1924  0.2522 -0.0928
  753MOL0     C 1531  11.200  10.802  11.620 -0.8449  0.9990  0.7111
  753MOL0     C 1532  11.286  10.891  11.530  0.1593  0.2465  0.3499
  753MOL0     C 1533  11.204  11.007  11.483  0.4165 -0.1184  0.3032
  753MOL0     C 1534  11.148  10.973  11.346 -0.1370  0.4714 -0.5391
  753MOL0     C 1535  11.076  11.104  11.303  0.2744 -0.1220 -0.0338
  753MOL0     C 1536  10.965  11.085  11.207 -0.0037 -0.8299  0.1138
  753MOL0     N 1537  11.026  11.028  11.083 -0.1689  0.0752 -0.0179
  753MOL0     C 1538  10.995  10.905  11.031  1.0188  0.8541  0.5926
  753MOL0     C 1539  11.057  10.895  10.913 -0.6956 -0.9664  0.2872
  753MOL0     C 1540  11.041  10.792  10.808 -0.1588  0.0334 -0.2233
  753MOL0     C 1541  11.154  10.688  10.804 -0.0183  0.0577 -0.4651
  753MOL0     C 1542  11.125  10.593  10.692 -0.2612  0.6275 -0.3201
  753MOL0     C 1543  11.226  10.482  10.700 -0.4478 -0.6981 -0.0384
  753MOL0     O 1544  11.355  10.540  10.653  0.0102 -0.2847 -0.0147
  753MOL0     C 1545  11.471  10.467  10.651  0.5032  0.2008  0.4583
  753MOL0     C 1546  11.587  10.528  10.600  0.3786  0.8463 -0.7458
  753MOL0     C 1547  11.715  10.462  10.607 -0.3425  1.2772 -1.0068
  753MOL0     C 1548  11.729  10.327  10.647 -0.9674  0.9267  0.1243
  753MOL0     C 1549  11.855  10.250  10.627 -0.1016 -0.3190 -0.8253
  753MOL0     O 1550  11.853  10.114  10.625  0.0028  0.2821 -0.2303
  753MOL0     C 1551  11.965  10.041  10.592 -0.1340  0.2995  0.1205
  753MOL0     C 1552  11.960   9.960  10.486 -0.0664 -0.2433 -0.7931
  753MOL0     C 1553  12.065   9.880  10.445 -0.2310  0.8040  0.2519
  753MOL0     C 1554  12.185   9.880  10.518  0.4729 -0.4501  0.5003
  753MOL0     O 1555  12.286   9.800  10.471  0.2728 -0.3764  0.0292
  753MOL0     C 1556  12.398   9.776  10.553  0.0700 -0.1339  0.7893
  753MOL0     C 1557  12.470   9.642  10.507  0.1175 -0.5632 -0.1696
  753MOL0     C 1558  12.594   9.610  10.589  0.0647  0.1733  0.8714
  753MOL0     C 1559  12.679   9.522  10.499 -0.3416 -0.3192 -0.0672
  753MOL0     C 1560  12.786   9.467  10.577 -0.1234 -0.1494  0.3010
  753MOL0     C 1561  12.759   9.354  10.682  0.3506  0.0846 -0.0037
  753MOL0     C 1562  12.690   9.230  10.623 -0.0913  0.3976  0.0718
  753MOL0     C 1563  12.700   9.098  10.704  0.3479 -0.6456  0.3147
  753MOL0    Cl 1564  12.641   9.134  10.861 -0.6880 -0.4705 -0.1655
  753MOL0     C 1565  12.196   9.976  10.615 -0.6374 -0.5068  0.5368
  753MOL0     C 1566  12.086  10.049  10.659 -0.5768  0.5304  0.2407
  753MOL0     O 1567  11.953  10.319  10.611  1.0996 -0.0462  0.2473
  753MOL0     C 1568  11.610  10.261  10.687  0.4359 -0.6514 -0.3716
  753MOL0     C 1569  11.485  10.339  10.706  0.1877 -0.3574 -1.0641
  753MOL0     N 1570  11.143  11.007  10.900  0.0637 -0.0172  0.4862
  753MOL0     N 1571  11.111  11.089  10.996  0.2313  0.3431  0.0416
  753MOL0     C 1572  11.282  10.512  11.217 -0.3846 -0.3226 -0.1984
  753MOL0     C 1573  11.291  10.429  11.105 -0.1942  0.0493  0.8793
  753MOL0     C 1574  11.201  10.088  10.820 -0.1664 -0.0986 -1.0019
  753MOL0     C 1575  11.304  10.010  10.764 -0.1071 -0.8731  0.3126
  753MOL0     C 1576  11.276   9.915  10.666  0.6465  0.6255 -0.5574
  753MOL0     C 1577  11.136   9.896  10.624 -0.3510 -0.5592  0.3153
  753MOL0     O 1578  11.092   9.799  10.543  0.0236 -0.1033 -0.1937
  753MOL0     C 1579  11.179   9.703  10.493 -0.5754  0.1825  0.4576
  753MOL0     C 1580  11.108   9.593  10.417  0.1445  0.5330 -0.4417
  753MOL0     C 1581  11.012   9.643  10.307  0.1380 -0.3135 -0.6144
  753MOL0     C 1582  11.041   9.574  10.170  0.5809 -0.4446 -0.4304
  753MOL0     C 1583  11.006   9.432  10.194  0.0222 -0.4737  0.4755
  753MOL0     C 1584  10.986   9.317  10.224 -0.2110 -0.6273  0.0215
  753MOL0     C 1585  11.041   9.973  10.681 -0.6271  0.2406 -0.0517
  753MOL0     C 1586  11.069  10.087  10.769 -0.2290  0.8608  0.4730
  753MOL0     C 1587  10.950  10.147  10.825  0.7254  0.5056  0.3501
  753MOL0     H 1588  10.973  10.307  11.102 -0.3735  1.4502  1.0501
  753MOL0     H 1589  10.966  10.460  11.311 -2.6880  0.4633 -4.7006
  753MOL0     H 1590  11.262  10.474  11.543  0.4004 -0.2370  0.0412
  753MOL0     H 1591  11.345  10.607  11.465 -0.5788 -1.4178 -2.9494
  753MOL0     H 1592  11.309  10.637  11.714  0.3386 -1.3469 -0.5527
  753MOL0     H 1593  11.145  10.618  11.702  0.9853  1.2075  1.6261
  753MOL0     H 1594  11.211  10.843  11.721  0.4198  0.0033  1.0121
  753MOL0     H 1595  11.100  10.827  11.584 -0.4263  1.5158 -0.1133
  753MOL0     H 1596  11.369  10.931  11.589 -1.4740  3.8647  0.4405
  753MOL0     H 1597  11.330  10.837  11.445  1.4502 -1.5599  2.0835
  753MOL0     H 1598  11.124  11.032  11.553 -1.6388  0.9984 -2.2910
  753MOL0     H 1599  11.267  11.096  11.485 -0.0337  0.2595  3.7119
  753MOL0     H 1600  11.229  10.953  11.275  0.9672 -1.7432  1.2000
  753MOL0     H 1601  11.088  10.882  11.336  0.1837 -0.3749  3.5709
  753MOL0     H 1602  11.153  11.169  11.261  0.4191 -0.1448  0.1900
  753MOL0     H 1603  11.039  11.157  11.392 -0.2308  1.7740 -1.3116
  753MOL0     H 1604  10.891  11.015  11.246 -2.3349  1.4916  0.1518
  753MOL0     H 1605  10.908  11.175  11.181  1.6764  0.4675  0.7360
  753MOL0     H 1606  10.918  10.835  11.063  1.8847 -0.8643 -0.8466
  753MOL0     H 1607  10.953  10.729  10.821  1.4253 -1.9155  2.1670
  753MOL0     H 1608  11.042  10.847  10.713 -0.4947 -1.1433 -0.9302
  753MOL0     H 1609  11.246  10.733  10.764  1.4592 -1.0972  1.4531
  753MOL0     H 1610  11.165  10.634  10.898 -1.7567  1.6641  0.7093
  753MOL0     H 1611  11.128  10.637  10.592 -0.4235  2.8091  0.5664
  753MOL0     H 1612  11.025  10.552  10.709  0.6676 -0.9571  1.8621
  753MOL0     H 1613  11.204  10.398  10.634  5.2202 -2.5461 -0.1436
  753MOL0     H 1614  11.247  10.444  10.800  3.4751 -2.6488 -1.3865
  753MOL0     H 1615  11.581  10.635  10.582  3.3386  1.1812 -0.1639
  753MOL0     H 1616  11.804  10.512  10.568 -1.5907  1.4978 -3.8393
  753MOL0     H 1617  11.857   9.955  10.453 -0.4522 -1.2472  0.4796
  753MOL0     H 1618  12.059   9.800  10.372 -2.6704  1.0688  0.0835
  753MOL0     H 1619  12.463   9.864  10.552 -1.6196  1.1639  0.2035
  753MOL0     H 1620  12.372   9.759  10.658 -0.0054 -0.5090  0.7128
  753MOL0     H 1621  12.399   9.559  10.507  0.4886 -0.8862 -0.1314
  753MOL0     H 1622  12.499   9.665  10.404  0.8640  1.8422  0.4963
  753MOL0     H 1623  12.645   9.703  10.614 -0.9122  1.5767 -1.8469
  753MOL0     H 1624  12.566   9.560  10.682 -0.8277  1.0261  1.0759
  753MOL0     H 1625  12.708   9.583  10.413  0.1356  0.0052  0.3217
  753MOL0     H 1626  12.625   9.434  10.462 -0.2433 -0.0533 -0.8580
  753MOL0     H 1627  12.826   9.549  10.639 -1.7529  0.5752  0.4451
  753MOL0     H 1628  12.863   9.435  10.506 -2.1256 -1.7373 -1.2525
  753MOL0     H 1629  12.851   9.317  10.728  0.1895 -0.4989 -0.1372
  753MOL0     H 1630  12.704   9.388  10.771  1.2636 -1.1905  1.0977
  753MOL0     H 1631  12.716   9.211  10.519 -1.8095 -0.1700 -0.2921
  753MOL0     H 1632  12.582   9.247  10.625 -0.8884 -3.7368  1.6447
  753MOL0     H 1633  12.648   9.013  10.659  2.5168 -2.8236  1.7071
  753MOL0     H 1634  12.804   9.067  10.714  0.4568 -0.2638  0.4043
  753MOL0     H 1635  12.284  10.006  10.671 -1.9413  1.8334  1.4659
  753MOL0     H 1636  12.090  10.105  10.752 -1.4520  0.6720  0.2005
  753MOL0     H 1637  11.618  10.155  10.711  0.0161 -0.9931 -1.6874
  753MOL0     H 1638  11.401  10.282  10.744  2.8125 -3.5045  0.4967
  753MOL0     H 1639  11.368  10.576  11.232 -0.0599 -1.2906  2.9076
  753MOL0     H 1640  11.381  10.422  11.045  0.3270 -0.8502  1.7318
  753MOL0     H 1641  11.406  10.008  10.799 -0.4102 -1.8092  1.2133
  753MOL0     H 1642  11.358   9.863  10.617  1.8941  1.8552  0.1409
  753MOL0     H 1643  11.245   9.656  10.566  0.3692  0.2414 -0.3372
  753MOL0     H 1644  11.242   9.759  10.423 -0.2520 -1.7917 -0.9111
  753MOL0     H 1645  11.051   9.530  10.485  1.2247  0.8023  0.7701
  753MOL0     H 1646  11.192   9.531  10.385 -0.3742 -2.0498  2.6960
  753MOL0     H 1647  11.019   9.752  10.302  2.0684 -0.3559  0.1601
  753MOL0     H 1648  10.907   9.626  10.332  0.1850  1.0974  0.6962
  753MOL0     H 1649  10.969   9.609  10.095 -1.1453  0.6916  1.6123
  753MOL0     H 1650  11.145   9.582  10.140  1.3853 -0.9362  1.9884
  753MOL0     H 1651  10.972   9.214  10.248  1.3664 -1.0425 -0.7483
  753MOL0     H 1652  10.937   9.958  10.654 -0.6514 -0.3812  0.3851
  753MOL0     H 1653  10.964  10.254  10.841 -2.0321  1.2045 -1.2533
  753MOL0     H 1654  10.863  10.145  10.759  0.1424  1.9028  1.0422
  753MOL0     H 1655  10.919  10.109  10.923  0.5265  3.2275  1.4232
  754MOL0     O 1656   6.066   2.924   1.705 -0.5224 -0.3500 -0.2655
  754MOL0     C 1657   5.991   2.835   1.737  0.0404 -0.1139 -0.0523
  754MOL0     O 1658   5.849   2.836   1.725  0.0140  0.3162  0.5761
  754MOL0     C 1659   5.783   2.947   1.669 -0.5579  0.3626 -0.3797
  754MOL0     C 1660   5.823   3.077   1.671  0.6154 -0.0691  0.2379
  754MOL0     C 1661   5.740   3.176   1.625 -0.3746 -0.6760 -0.6630
  754MOL0     C 1662   5.632   3.145   1.545 -0.4333  0.3719 -0.3909
  754MOL0     O 1663   5.557   3.251   1.506  0.6859 -0.6592 -0.5245
  754MOL0     C 1664   5.481   3.313   1.605  0.1071 -0.3167  0.9977
  754MOL0     C 1665   5.385   3.411   1.533 -0.9658  0.2313  0.3934
  754MOL0     C 1666   5.464   3.525   1.463  0.3679 -0.5453  0.0055
  754MOL0     C 1667   5.559   3.603   1.561 -0.4136  0.6469 -0.1374
  754MOL0     C 1668   5.603   3.735   1.517  0.4441  0.0907 -0.0717
  754MOL0     C 1669   5.682   3.834   1.609  0.3876  0.2238 -0.4116
  754MOL0     C 1670   5.809   3.783   1.662  0.5917 -0.2090 -0.7904
  754MOL0     C 1671   5.910   3.735   1.547  0.6905  0.1318 -0.0586
  754MOL0     N 1672   5.990   3.842   1.490 -0.1653  0.1262 -0.2697
  754MOL0     C 1673   6.075   3.916   1.561 -0.6478 -0.5202 -0.0480
  754MOL0     C 1674   6.099   4.024   1.481 -0.0938  0.7344  0.5161
  754MOL0     C 1675   6.179   4.138   1.541 -0.4821 -0.6532 -0.5928
  754MOL0     C 1676   6.315   4.139   1.501 -0.4105  0.1382 -0.3739
  754MOL0     C 1677   6.404   4.037   1.572  0.5055 -0.8528  1.5887
  754MOL0     C 1678   6.548   4.060   1.536 -0.0730  0.0588 -0.1676
  754MOL0     O 1679   6.607   4.192   1.582  0.7103 -0.2145  0.5783
  754MOL0     C 1680   6.726   4.217   1.515 -0.3113 -0.1315 -0.5512
  754MOL0     C 1681   6.729   4.266   1.379 -0.9404 -0.1608 -0.5190
  754MOL0     C 1682   6.846   4.280   1.306  0.5034  0.0713  0.1956
  754MOL0     C 1683   6.969   4.247   1.373 -0.9211  0.3322  1.1708
  754MOL0     C 1684   7.103   4.258   1.301  0.3080 -0.0205  0.1815
  754MOL0     O 1685   7.098   4.336   1.185 -0.1703  0.3135  0.5018
  754MOL0     C 1686   7.215   4.396   1.140 -0.2788  0.6075 -0.1788
  754MOL0     C 1687   7.311   4.451   1.217 -0.2977  0.4201 -0.8007
  754MOL0     C 1688   7.418   4.521   1.163 -0.9295 -0.0377 -0.4145
  754MOL0     C 1689   7.426   4.550   1.028 -0.8063 -0.6813  0.3733
  754MOL0     O 1690   7.532   4.628   0.985 -0.2726 -0.0231 -0.1282
  754MOL0     C 1691   7.666   4.583   1.010  0.3745  0.1323 -0.8160
  754MOL0     C 1692   7.776   4.675   0.970 -0.1965 -0.5435 -0.5601
  754MOL0     C 1693   7.756   4.820   1.017  0.2845 -0.2815 -0.0511
  754MOL0     C 1694   7.758   4.846   1.168 -0.1463  0.3353 -0.9435
  754MOL0     C 1695   7.774   4.986   1.231  0.4116  0.0582  0.6069
  754MOL0     C 1696   7.672   5.079   1.154 -0.4629 -0.4924 -0.8609
  754MOL0     C 1697   7.647   5.202   1.239 -0.2865 -1.2404  0.1885
  754MOL0     C 1698   7.554   5.303   1.170  0.4187  0.0367 -0.1615
  754MOL0    Cl 1699   7.585   5.359   1.009 -0.4610 -0.0505  0.3016
  754MOL0     C 1700   7.316   4.516   0.953  0.5502 -0.2080  0.6657
  754MOL0     C 1701   7.219   4.428   1.002 -0.1241 -0.0704 -0.8004
  754MOL0     O 1702   7.191   4.179   1.341 -0.4359 -0.0121  0.0321
  754MOL0     C 1703   6.963   4.214   1.505 -1.1304 -0.4693 -0.2005
  754MOL0     C 1704   6.845   4.206   1.582 -0.9638  0.0187  0.8307
  754MOL0     N 1705   6.039   4.006   1.356  0.9724 -0.8852  0.4811
  754MOL0     N 1706   5.982   3.897   1.366 -0.0955  0.1873  0.3211
  754MOL0     C 1707   5.612   3.018   1.507  0.3355  1.2721 -0.4988
  754MOL0     C 1708   5.673   2.913   1.590 -0.0050  0.0061 -0.4308
  754MOL0     C 1709   6.039   2.718   1.810 -0.5249 -0.7862  0.8604
  754MOL0     C 1710   5.997   2.715   1.939 -0.1406  1.1379  0.0399
  754MOL0     C 1711   6.042   2.604   2.018  0.3813 -0.0190 -0.0096
  754MOL0     C 1712   6.126   2.503   1.977 -0.6272 -0.6075 -0.0940
  754MOL0     O 1713   6.168   2.389   2.046 -0.6234  0.7085 -0.0259
  754MOL0     C 1714   6.250   2.286   1.985 -0.3300  0.0360  0.3240
  754MOL0     C 1715   6.262   2.150   2.076 -0.2036 -0.8349  0.2680
  754MOL0     C 1716   6.129   2.091   2.112  0.2728 -0.7158 -0.5263
  754MOL0     C 1717   6.140   1.936   2.131  0.4402  0.5504 -0.1111
  754MOL0     C 1718   6.006   1.877   2.103  0.3957 -0.8780  0.1665
  754MOL0     C 1719   5.885   1.848   2.103 -0.6615 -0.2531 -0.2490
  754MOL0     C 1720   6.162   2.518   1.835  1.2786  0.0165  0.1914
  754MOL0     C 1721   6.116   2.621   1.751 -0.9918  0.3583  0.5419
  754MOL0     C 1722   6.126   2.619   1.596  0.5746 -0.2955 -0.4829
  754MOL0     H 1723   5.916   3.104   1.718  1.0985  1.9445 -1.6714
  754MOL0     H 1724   5.761   3.280   1.644  2.7011 -1.2734 -0.2412
  754MOL0     H 1725   5.423   3.238   1.659 -2.5231  0.7583 -0.1558
  754MOL0     H 1726   5.530   3.386   1.672 -2.5157  1.4697  1.1253
  754MOL0     H 1727   5.330   3.455   1.616 -1.7817 -1.1686  0.6283
  754MOL0     H 1728   5.321   3.356   1.463 -1.3250  0.6867  0.3593
  754MOL0     H 1729   5.386   3.589   1.420  1.5921 -0.6579 -2.5715
  754MOL0     H 1730   5.518   3.490   1.375 -2.0088  1.1025 -2.2722
  754MOL0     H 1731   5.514   3.618   1.660  1.0936 -0.3393  0.7239
  754MOL0     H 1732   5.652   3.546   1.573 -0.5608  0.3357 -0.4624
  754MOL0     H 1733   5.657   3.730   1.422  1.8682  0.5809  0.6741
  754MOL0     H 1734   5.508   3.781   1.488 -1.9273 -4.2733  0.0508
  754MOL0     H 1735   5.691   3.935   1.569  0.1962 -1.1009 -4.2224
  754MOL0     H 1736   5.613   3.847   1.693 -3.6736 -1.0240 -3.2387
  754MOL0     H 1737   5.792   3.698   1.729  0.2133  0.5159  0.0562
  754MOL0     H 1738   5.861   3.864   1.715  1.8173  1.6056 -4.4246
  754MOL0     H 1739   5.985   3.669   1.590  1.2480  1.1412  0.5549
  754MOL0     H 1740   5.862   3.693   1.458  0.2087  2.3352 -0.9271
  754MOL0     H 1741   6.109   3.897   1.662 -1.8266 -3.0705 -0.0487
  754MOL0     H 1742   6.126   4.222   1.495  0.0694  0.0858  0.0963
  754MOL0     H 1743   6.158   4.155   1.648 -2.7079  0.0737 -1.0784
  754MOL0     H 1744   6.332   4.132   1.393 -2.4471 -0.4758 -0.6957
  754MOL0     H 1745   6.343   4.240   1.532 -1.1037 -0.8930  4.2558
  754MOL0     H 1746   6.380   3.935   1.539  0.0929 -0.7111  1.4521
  754MOL0     H 1747   6.385   4.051   1.679 -1.0249  3.3544  0.9372
  754MOL0     H 1748   6.563   4.046   1.429 -1.1593  1.5748 -0.5521
  754MOL0     H 1749   6.600   3.983   1.593 -0.6418  0.9779  1.6995
  754MOL0     H 1750   6.636   4.277   1.323 -1.2662 -1.4440 -0.2655
  754MOL0     H 1751   6.831   4.303   1.201 -2.1071 -2.3088 -0.0585
  754MOL0     H 1752   7.306   4.439   1.325 -3.0011  1.0592 -0.8001
  754MOL0     H 1753   7.493   4.553   1.233  0.3435  2.3678 -2.6888
  754MOL0     H 1754   7.670   4.573   1.119 -0.8848 -1.1444 -0.8548
  754MOL0     H 1755   7.689   4.492   0.954  0.1924  0.6926 -1.8247
  754MOL0     H 1756   7.870   4.643   1.016 -0.6746 -0.7747  0.2771
  754MOL0     H 1757   7.805   4.668   0.865  1.4768  0.1695 -0.1833
  754MOL0     H 1758   7.841   4.880   0.984  0.7692  1.2979  3.5891
  754MOL0     H 1759   7.678   4.877   0.967 -0.7805 -0.4034  1.4284
  754MOL0     H 1760   7.838   4.782   1.207  0.3812  0.5360 -1.6801
  754MOL0     H 1761   7.667   4.815   1.221  1.0581  0.1180  1.1188
  754MOL0     H 1762   7.872   5.033   1.229 -0.6104  2.5551  2.8505
  754MOL0     H 1763   7.753   4.976   1.338 -0.1220 -4.2774  0.3007
  754MOL0     H 1764   7.722   5.106   1.061 -0.5667  1.0474 -0.4880
  754MOL0     H 1765   7.579   5.031   1.121  1.2605 -2.6929 -2.8009
  754MOL0     H 1766   7.739   5.260   1.251 -0.5112 -0.8416 -0.0039
  754MOL0     H 1767   7.612   5.180   1.341 -2.6082 -0.4120 -0.3702
  754MOL0     H 1768   7.459   5.249   1.182 -0.3421  0.3180 -3.8698
  754MOL0     H 1769   7.543   5.394   1.230 -2.9520  0.0451 -0.6174
  754MOL0     H 1770   7.309   4.555   0.852 -0.8320 -0.5519  0.6096
  754MOL0     H 1771   7.128   4.398   0.949 -1.5899  1.1281  0.9190
  754MOL0     H 1772   7.059   4.196   1.552 -2.0164 -0.6038  1.6701
  754MOL0     H 1773   6.841   4.191   1.690  0.4537  1.3559  1.0908
  754MOL0     H 1774   5.531   3.000   1.437  1.1879 -0.4253 -1.1242
  754MOL0     H 1775   5.644   2.811   1.568  1.8856 -0.6689  0.0270
  754MOL0     H 1776   5.951   2.799   1.989  0.3648  1.0698  0.6201
  754MOL0     H 1777   6.002   2.598   2.118  1.7640 -0.8914  0.5238
  754MOL0     H 1778   6.351   2.327   1.970 -0.1333  0.3149  2.2221
  754MOL0     H 1779   6.212   2.256   1.886  1.4927  2.4262 -1.2275
  754MOL0     H 1780   6.321   2.183   2.162 -3.4047  3.4878  1.1849
  754MOL0     H 1781   6.311   2.076   2.013  0.4408  0.3909 -0.7237
  754MOL0     H 1782   6.063   2.112   2.028 -2.9933 -0.2915  1.9250
  754MOL0     H 1783   6.074   2.136   2.195 -4.0552  1.2770 -4.0851
  754MOL0     H 1784   6.220   1.898   2.066  2.0495  2.4765  0.6132
  754MOL0     H 1785   6.154   1.896   2.232 -1.2415 -2.0012 -0.7995
  754MOL0     H 1786   5.793   1.793   2.103 -0.2435 -1.2784 -4.0572
  754MOL0     H 1787   6.207   2.436   1.778 -1.5842  0.9248 -3.8083
  754MOL0     H 1788   6.163   2.518   1.575  2.0514 -0.2687  1.6662
  754MOL0     H 1789   6.026   2.627   1.551  0.1022 -2.1694  0.1214
  754MOL0     H 1790   6.205   2.679   1.551  2.9916 -3.0461 -0.2114
  755MOL0     O 1791   8.678   3.662   2.584  0.2215 -0.1570 -0.3733
  755MOL0     C 1792   8.710   3.557   2.528  0.8405 -0.8303  2.1836
  755MOL0     O 1793   8.675   3.426   2.568 -0.4818  0.2534 -0.3536
  755MOL0     C 1794   8.573   3.401   2.663  0.8372  0.6014  0.3662
  755MOL0     C 1795   8.486   3.292   2.621 -0.0146  0.1164 -0.0747
  755MOL0     C 1796   8.380   3.265   2.716 -0.1431 -1.0391 -0.4472
  755MOL0     C 1797   8.355   3.349   2.829 -0.0164 -0.2644  0.0342
  755MOL0     O 1798   8.249   3.332   2.913  0.2998 -0.6547  0.0956
  755MOL0     C 1799   8.270   3.348   3.053  0.2489  0.6015  0.0711
  755MOL0     C 1800   8.126   3.339   3.114 -0.9379  0.3508 -0.1642
  755MOL0     C 1801   8.122   3.358   3.265 -0.3657 -0.4313 -0.5269
  755MOL0     C 1802   8.223   3.268   3.339  0.3395 -0.2470  0.4198
  755MOL0     C 1803   8.205   3.287   3.487  0.5957  0.5397 -0.5188
  755MOL0     C 1804   8.298   3.197   3.560 -1.1651  0.2505  0.3262
  755MOL0     C 1805   8.270   3.195   3.708  0.2302 -0.6616 -0.0526
  755MOL0     C 1806   8.139   3.129   3.762  0.0031 -0.3145 -0.1039
  755MOL0     N 1807   8.158   2.984   3.734  0.4893 -1.0527 -0.1030
  755MOL0     C 1808   8.201   2.886   3.817 -1.0000 -1.0893  0.1467
  755MOL0     C 1809   8.150   2.772   3.772  0.1747  1.1229  0.6285
  755MOL0     C 1810   8.142   2.635   3.841 -0.5541 -0.8915  0.1685
  755MOL0     C 1811   8.027   2.646   3.949 -0.1836  0.7282 -0.1103
  755MOL0     C 1812   7.904   2.701   3.888  0.5391 -0.9377 -0.4447
  755MOL0     C 1813   7.783   2.677   3.986 -0.4956  0.0689 -0.6908
  755MOL0     O 1814   7.806   2.737   4.115 -0.3655  1.4391 -0.5937
  755MOL0     C 1815   7.697   2.768   4.194  0.0222 -1.0804 -0.1115
  755MOL0     C 1816   7.562   2.737   4.164  0.1802  1.1899 -0.1723
  755MOL0     C 1817   7.451   2.781   4.247 -0.8667  0.5752  0.4595
  755MOL0     C 1818   7.476   2.850   4.363  0.4184 -1.2186 -0.1969
  755MOL0     C 1819   7.357   2.893   4.449 -0.7774  1.1176  0.3714
  755MOL0     O 1820   7.379   2.916   4.586 -0.0318 -0.1277  0.3486
  755MOL0     C 1821   7.290   2.991   4.651  0.4047 -0.3336  0.0912
  755MOL0     C 1822   7.320   3.125   4.676  0.1237 -0.1435  0.7599
  755MOL0     C 1823   7.222   3.207   4.739  0.2009 -0.5141  0.3992
  755MOL0     C 1824   7.100   3.153   4.777 -0.7088  0.8109 -0.5756
  755MOL0     O 1825   7.003   3.224   4.839  0.0186 -0.2942  0.5242
  755MOL0     C 1826   6.952   3.339   4.773 -0.3817  0.2954  0.5914
  755MOL0     C 1827   6.816   3.379   4.820 -0.8735  0.7333 -0.8196
  755MOL0     C 1828   6.713   3.309   4.733  0.5048 -0.8464 -0.1566
  755MOL0     C 1829   6.698   3.164   4.749  0.3168 -0.1028 -0.0030
  755MOL0     C 1830   6.657   3.104   4.886  0.4930  0.5270  0.3128
  755MOL0     C 1831   6.530   3.012   4.891  0.0202  0.5746 -0.1596
  755MOL0     C 1832   6.393   3.068   4.859 -0.1759 -0.1842 -0.9282
  755MOL0     C 1833   6.366   3.209   4.912  0.5519 -0.2163 -0.5088
  755MOL0    Cl 1834   6.217   3.279   4.825  0.0381  0.2898 -0.2559
  755MOL0     C 1835   7.077   3.023   4.751  0.0994 -0.2192  0.5867
  755MOL0     C 1836   7.165   2.946   4.682  0.2829  1.2812  0.3471
  755MOL0     O 1837   7.260   2.925   4.391 -0.1809  0.4846  0.4645
  755MOL0     C 1838   7.609   2.873   4.399  0.5662  0.1256 -0.5234
  755MOL0     C 1839   7.720   2.843   4.310 -0.3330 -0.5384  0.0696
  755MOL0     N 1840   8.095   2.788   3.650  0.0699  0.5958  0.1083
  755MOL0     N 1841   8.100   2.923   3.629 -0.0802 -0.6950  0.1696
  755MOL0     C 1842   8.458   3.438   2.865  0.5608  1.4010 -0.6012
  755MOL0     C 1843   8.566   3.461   2.777  0.6094 -0.0994 -0.3449
  755MOL0     C 1844   8.788   3.563   2.395  0.5847  0.5317 -0.4141
  755MOL0     C 1845   8.830   3.437   2.345 -1.0208 -0.3254  0.0741
  755MOL0     C 1846   8.895   3.435   2.221  0.0031  0.3826  0.4108
  755MOL0     C 1847   8.921   3.541   2.147  0.3032 -0.3260 -0.6544
  755MOL0     O 1848   8.985   3.530   2.011  0.2854 -0.1483 -0.0538
  755MOL0     C 1849   9.037   3.400   1.968  0.0471  0.1441  0.4768
  755MOL0     C 1850   9.122   3.421   1.838  0.2048  0.7599  0.5988
  755MOL0     C 1851   9.041   3.393   1.715 -1.0422 -0.0463  0.9192
  755MOL0     C 1852   9.126   3.404   1.578  0.4545  0.5637 -0.3183
  755MOL0     C 1853   9.033   3.374   1.466 -0.9811  0.4587 -0.0057
  755MOL0     C 1854   8.954   3.344   1.380 -0.2014 -0.6299 -0.0517
  755MOL0     C 1855   8.892   3.665   2.197 -0.0536  0.0414  0.8512
  755MOL0     C 1856   8.832   3.680   2.327 -0.1109 -0.5328  0.8240
  755MOL0     C 1857   8.824   3.811   2.377 -0.1584  0.1237 -0.5220
  755MOL0     H 1858   8.499   3.244   2.525 -0.1905  1.6413 -0.8857
  755MOL0     H 1859   8.320   3.176   2.701 -2.3627 -0.3386  3.1074
  755MOL0     H 1860   8.318   3.258   3.093 -1.4209 -0.8909 -1.1192
  755MOL0     H 1861   8.324   3.438   3.085  0.0560  0.7938 -0.1415
  755MOL0     H 1862   8.086   3.239   3.095  1.0318 -0.2774 -1.3402
  755MOL0     H 1863   8.059   3.409   3.064 -1.8148 -1.1719 -1.2048
  755MOL0     H 1864   8.019   3.352   3.303  0.0633 -1.5208  0.5368
  755MOL0     H 1865   8.135   3.466   3.277 -0.6286 -0.4804  0.2605
  755MOL0     H 1866   8.199   3.164   3.315 -2.1805  0.1787  0.8141
  755MOL0     H 1867   8.325   3.294   3.308  0.1689 -1.0993 -0.9166
  755MOL0     H 1868   8.229   3.389   3.518  0.7340 -0.0960  1.6165
  755MOL0     H 1869   8.099   3.269   3.510  1.0195  0.1140  1.2402
  755MOL0     H 1870   8.294   3.094   3.520  2.3550 -0.5487  1.6622
  755MOL0     H 1871   8.399   3.234   3.542 -0.4743 -0.7628  1.8741
  755MOL0     H 1872   8.272   3.296   3.751  0.7089  0.8226 -3.2942
  755MOL0     H 1873   8.353   3.142   3.757  0.2312  1.5984  2.7207
  755MOL0     H 1874   8.120   3.150   3.868  0.4820 -2.3821  0.4247
  755MOL0     H 1875   8.051   3.162   3.705 -2.5145 -2.7688  2.0925
  755MOL0     H 1876   8.266   2.897   3.903 -1.0747  1.8455 -0.0396
  755MOL0     H 1877   8.132   2.543   3.783 -0.4428 -1.8231  1.5811
  755MOL0     H 1878   8.239   2.624   3.888 -0.6422  2.3172  1.3657
  755MOL0     H 1879   8.003   2.546   3.985  0.5074  0.9735  1.0826
  755MOL0     H 1880   8.070   2.711   4.025 -2.4760  1.3986  0.7017
  755MOL0     H 1881   7.879   2.660   3.790  0.5491  0.2481 -0.9586
  755MOL0     H 1882   7.911   2.810   3.878  0.1285 -0.9927 -1.5157
  755MOL0     H 1883   7.758   2.572   4.003 -3.1013  0.5394 -1.3389
  755MOL0     H 1884   7.701   2.738   3.949 -0.5078 -1.2896 -3.0832
  755MOL0     H 1885   7.533   2.675   4.080  0.7779 -0.1856  0.6042
  755MOL0     H 1886   7.349   2.772   4.212 -0.1408  1.1339 -2.0489
  755MOL0     H 1887   7.406   3.171   4.628 -0.7073 -1.4396 -2.1250
  755MOL0     H 1888   7.239   3.313   4.752 -3.8991  0.2956  0.3635
  755MOL0     H 1889   7.017   3.425   4.788 -0.7613  0.6288  0.3334
  755MOL0     H 1890   6.946   3.334   4.663 -0.5530  3.6361  0.3581
  755MOL0     H 1891   6.801   3.348   4.924  1.7331  1.3505 -0.1945
  755MOL0     H 1892   6.798   3.487   4.811 -1.6787  0.7358  0.4485
  755MOL0     H 1893   6.615   3.351   4.758  0.1171 -0.9073 -1.4615
  755MOL0     H 1894   6.726   3.321   4.625  1.1364 -0.9051 -0.0885
  755MOL0     H 1895   6.792   3.120   4.716  0.3819  2.0651 -3.0915
  755MOL0     H 1896   6.628   3.136   4.670  0.7749  3.9315 -2.1201
  755MOL0     H 1897   6.650   3.174   4.970 -1.5814 -2.6339  3.0285
  755MOL0     H 1898   6.738   3.033   4.907 -0.0846 -1.5269 -3.4224
  755MOL0     H 1899   6.543   2.927   4.822 -0.0502 -0.3128  0.8926
  755MOL0     H 1900   6.516   2.967   4.990 -0.3965 -1.1966 -0.9781
  755MOL0     H 1901   6.322   3.004   4.912  1.0504 -0.6143  0.2603
  755MOL0     H 1902   6.376   3.062   4.751 -2.5029 -1.0860 -0.5588
  755MOL0     H 1903   6.345   3.207   5.019 -0.1484 -0.0598 -0.6411
  755MOL0     H 1904   6.446   3.280   4.889  1.6571 -1.3437 -0.2681
  755MOL0     H 1905   6.978   2.986   4.775  0.4455 -0.2662  2.0581
  755MOL0     H 1906   7.140   2.843   4.659 -2.1219  2.4703 -3.1556
  755MOL0     H 1907   7.624   2.919   4.496 -2.8666 -3.4569  2.0533
  755MOL0     H 1908   7.822   2.873   4.331 -0.2648 -0.6064 -0.1630
  755MOL0     H 1909   8.468   3.500   2.953  2.4317 -0.9021  0.9595
  755MOL0     H 1910   8.634   3.544   2.793 -0.5927  0.9639 -0.5590
  755MOL0     H 1911   8.809   3.344   2.397  1.5477 -1.3098 -0.5118
  755MOL0     H 1912   8.922   3.334   2.189 -2.0210  0.0472 -0.3425
  755MOL0     H 1913   8.948   3.337   1.961  1.7165 -2.9531  3.9034
  755MOL0     H 1914   9.111   3.374   2.044  0.9463 -1.1544 -0.7957
  755MOL0     H 1915   9.205   3.351   1.823 -1.5811 -0.7884 -4.4365
  755MOL0     H 1916   9.175   3.517   1.835 -0.4428  1.1683 -3.0965
  755MOL0     H 1917   8.951   3.455   1.714  1.4058  3.8447  0.6681
  755MOL0     H 1918   9.004   3.290   1.713 -0.8695 -0.1263  1.7042
  755MOL0     H 1919   9.160   3.508   1.577  1.0442  0.4050  1.2244
  755MOL0     H 1920   9.209   3.333   1.576  0.2951  0.0505  3.7211
  755MOL0     H 1921   8.882   3.347   1.301  0.3788  2.5884 -0.6078
  755MOL0     H 1922   8.910   3.752   2.134 -0.3337 -0.8514 -0.4863
  755MOL0     H 1923   8.725   3.829   2.420  0.1294 -0.7902  0.5992
  755MOL0     H 1924   8.880   3.809   2.471 -1.7627 -1.6663  0.4815
  755MOL0     H 1925   8.862   3.895   2.319  0.5771  0.0873 -0.1086
  756MOL0     O 1926   6.060   6.880  10.710  0.4584  0.1833  0.2136
  756MOL0     C 1927   5.943   6.851  10.693  0.1952  0.0202  0.2012
  756MOL0     O 1928   5.836   6.943  10.673  0.3516  0.2671  0.0485
  756MOL0     C 1929   5.867   7.076  10.661  0.4129 -0.1594 -0.4639
  756MOL0     C 1930   5.937   7.137  10.767  1.1841 -0.8731  0.3737
  756MOL0     C 1931   5.989   7.267  10.756 -0.6760  0.0825 -0.2461
  756MOL0     C 1932   5.959   7.346  10.639 -0.0180  0.0450 -0.4920
  756MOL0     O 1933   5.990   7.475  10.616 -0.4518 -0.2074 -0.3649
  756MOL0     C 1934   6.037   7.551  10.731  0.2711 -1.1988  0.7130
  756MOL0     C 1935   6.073   7.691  10.672 -0.0715 -0.3295  0.4420
  756MOL0     C 1936   6.185   7.699  10.561  0.3581 -0.0885 -0.3681
  756MOL0     C 1937   6.258   7.831  10.589  0.2097  1.0006  0.4247
  756MOL0     C 1938   6.385   7.815  10.503 -0.7172  0.4858 -0.0918
  756MOL0     C 1939   6.485   7.937  10.527  0.4000  0.4239  0.2101
  756MOL0     C 1940   6.621   7.923  10.450  0.4722 -0.1994  0.5732
  756MOL0     C 1941   6.706   8.058  10.463 -0.3359  0.7756 -0.4535
  756MOL0     N 1942   6.743   8.091  10.600 -0.3844  0.7063 -0.2863
  756MOL0     C 1943   6.782   7.993  10.688  0.1837 -0.8925  0.2928
  756MOL0     C 1944   6.777   8.053  10.810  0.9329  1.2106  0.3648
  756MOL0     C 1945   6.761   7.982  10.949 -0.2733 -0.9829  0.1553
  756MOL0     C 1946   6.714   7.840  10.942  0.0026 -0.0504  1.3662
  756MOL0     C 1947   6.813   7.731  10.899 -0.3269 -0.4712  0.4944
  756MOL0     C 1948   6.741   7.592  10.892 -0.1479  0.1750 -0.1611
  756MOL0     O 1949   6.720   7.553  11.031 -0.2393  0.1220 -0.3977
  756MOL0     C 1950   6.694   7.426  11.073  0.4163 -0.2344  0.1139
  756MOL0     C 1951   6.702   7.308  10.997  0.1925 -0.9321  0.8625
  756MOL0     C 1952   6.678   7.182  11.043  1.1255  0.2316 -0.5463
  756MOL0     C 1953   6.641   7.164  11.177  1.2130  0.2528 -0.1453
  756MOL0     C 1954   6.606   7.030  11.223 -0.4978 -0.6114  0.6384
  756MOL0     O 1955   6.520   7.021  11.332  0.5086 -0.3850  0.6065
  756MOL0     C 1956   6.501   6.908  11.403 -0.2943  0.3562  0.0376
  756MOL0     C 1957   6.397   6.920  11.486  0.5817  1.0121 -0.0261
  756MOL0     C 1958   6.352   6.808  11.565  0.0484 -1.1283 -1.3349
  756MOL0     C 1959   6.420   6.687  11.563 -0.8032  0.1810  0.1818
  756MOL0     O 1960   6.372   6.589  11.650 -0.8967 -0.4718 -0.0254
  756MOL0     C 1961   6.464   6.518  11.739  0.4279 -0.2334  0.1125
  756MOL0     C 1962   6.523   6.619  11.840 -0.0823  0.0991  0.7717
  756MOL0     C 1963   6.411   6.653  11.940  0.0097 -1.3797 -0.6531
  756MOL0     C 1964   6.383   6.797  11.956 -0.2941 -0.6771 -0.2209
  756MOL0     C 1965   6.240   6.827  12.008 -0.1719 -0.2964  0.1537
  756MOL0     C 1966   6.235   6.829  12.158  0.0007 -0.6020  0.0649
  756MOL0     C 1967   6.093   6.853  12.212 -0.7177 -0.4523  0.6861
  756MOL0     C 1968   6.070   6.804  12.357  0.0187 -0.1809  0.0830
  756MOL0    Cl 1969   5.967   6.930  12.439  0.1354 -0.2571 -0.1174
  756MOL0     C 1970   6.536   6.676  11.478 -0.7249 -0.5058 -0.1257
  756MOL0     C 1971   6.571   6.789  11.394 -0.7521 -0.1025  0.2591
  756MOL0     O 1972   6.648   6.939  11.159  0.5606  0.1743 -0.7117
  756MOL0     C 1973   6.630   7.274  11.257 -0.7970 -0.6453 -0.2858
  756MOL0     C 1974   6.653   7.404  11.211  0.9120  0.1470 -0.9914
  756MOL0     N 1975   6.740   8.188  10.792  0.2912  0.4009  1.7230
  756MOL0     N 1976   6.714   8.209  10.664 -0.0209  0.5109 -1.2791
  756MOL0     C 1977   5.897   7.280  10.529  0.9081 -0.5956 -0.4909
  756MOL0     C 1978   5.848   7.152  10.549 -0.0155 -0.2227 -0.1676
  756MOL0     C 1979   5.899   6.707  10.690  0.6523 -0.7197 -0.1424
  756MOL0     C 1980   5.761   6.672  10.652 -0.6713  0.0327 -0.4228
  756MOL0     C 1981   5.718   6.542  10.638  0.5166  0.1712 -0.2936
  756MOL0     C 1982   5.808   6.443  10.665 -0.5625  0.0613  0.2649
  756MOL0     O 1983   5.777   6.311  10.669  0.3314  0.0163 -0.2731
  756MOL0     C 1984   5.646   6.267  10.637 -0.1231 -0.2526  0.6219
  756MOL0     C 1985   5.632   6.123  10.677 -0.7628 -0.9728 -0.4966
  756MOL0     C 1986   5.492   6.074  10.644 -0.0121 -0.2200  0.0156
  756MOL0     C 1987   5.468   6.029  10.509 -0.4314  0.9471 -0.5879
  756MOL0     C 1988   5.542   5.903  10.477  0.0424 -0.3135  0.8824
  756MOL0     C 1989   5.595   5.790  10.453  1.3012 -0.9203 -0.0349
  756MOL0     C 1990   5.942   6.474  10.705  1.0343  0.4559 -0.0793
  756MOL0     C 1991   5.984   6.602  10.724  0.0330  0.7059 -0.9992
  756MOL0     C 1992   6.124   6.617  10.780  0.0745  0.3471 -0.0069
  756MOL0     H 1993   5.952   7.069  10.850  1.7952 -2.7919 -1.2324
  756MOL0     H 1994   6.047   7.301  10.841  0.8915 -2.0129 -0.4103
  756MOL0     H 1995   5.953   7.561  10.801 -1.4142  2.0144 -1.5205
  756MOL0     H 1996   6.121   7.507  10.785  0.2995 -0.2045  1.4938
  756MOL0     H 1997   6.107   7.746  10.760  4.0893  2.5457 -2.5674
  756MOL0     H 1998   5.983   7.738  10.631 -0.8541 -0.4969  1.8922
  756MOL0     H 1999   6.133   7.705  10.465 -3.2916  1.6094  1.4966
  756MOL0     H 2000   6.251   7.612  10.555 -0.1272 -0.4259 -1.0082
  756MOL0     H 2001   6.201   7.917  10.552 -0.1751  1.4817  2.0656
  756MOL0     H 2002   6.292   7.846  10.691 -1.3564 -2.3261  1.5676
  756MOL0     H 2003   6.436   7.726  10.538 -0.8236  1.2023  1.9964
  756MOL0     H 2004   6.358   7.809  10.397  0.5970 -0.9260 -0.3880
  756MOL0     H 2005   6.440   8.032  10.496  1.2153  0.8681  0.3746
  756MOL0     H 2006   6.503   7.937  10.635 -0.7026 -2.6933  0.5047
  756MOL0     H 2007   6.593   7.900  10.347  1.6957  2.3554 -0.4150
  756MOL0     H 2008   6.679   7.841  10.494  0.5365 -0.6017 -0.2563
  756MOL0     H 2009   6.795   8.059  10.399 -0.3937  1.3821 -0.5255
  756MOL0     H 2010   6.644   8.138  10.425 -2.9216 -0.8391  0.0995
  756MOL0     H 2011   6.810   7.891  10.662  2.1749 -0.4999  0.7813
  756MOL0     H 2012   6.856   8.002  10.998  0.5943  2.2746 -2.4642
  756MOL0     H 2013   6.689   8.036  11.011 -1.4522 -3.0769  0.7033
  756MOL0     H 2014   6.674   7.802  11.036 -1.1680 -3.2510 -0.2701
  756MOL0     H 2015   6.635   7.854  10.867  2.3036 -0.4183 -1.2682
  756MOL0     H 2016   6.897   7.729  10.970 -0.2853  2.2757  0.6440
  756MOL0     H 2017   6.858   7.765  10.806 -0.4120  0.2828  0.7259
  756MOL0     H 2018   6.796   7.522  10.829 -0.1621  0.7011 -0.7644
  756MOL0     H 2019   6.641   7.608  10.851  0.6835  3.8850 -1.1073
  756MOL0     H 2020   6.753   7.313  10.902 -3.1119 -1.0236 -1.0588
  756MOL0     H 2021   6.684   7.101  10.971 -1.4890  0.7191 -1.4308
  756MOL0     H 2022   6.348   7.015  11.503 -1.1700  0.5379 -1.9522
  756MOL0     H 2023   6.269   6.824  11.633  1.6537  2.7848 -0.0382
  756MOL0     H 2024   6.402   6.445  11.792 -0.6147 -0.3846 -1.2745
  756MOL0     H 2025   6.553   6.478  11.689  0.5028  1.6425 -1.3529
  756MOL0     H 2026   6.595   6.560  11.897 -1.8384 -1.7423  1.2298
  756MOL0     H 2027   6.565   6.710  11.797 -0.8724  1.6639  3.1278
  756MOL0     H 2028   6.319   6.608  11.902 -1.8129 -0.1311  1.9825
  756MOL0     H 2029   6.423   6.617  12.042  0.2588  0.3716 -0.0259
  756MOL0     H 2030   6.394   6.837  11.855  2.5478  2.2211  1.0988
  756MOL0     H 2031   6.456   6.850  12.017  2.9136 -0.9413 -3.4819
  756MOL0     H 2032   6.167   6.754  11.971 -1.8290  1.8710 -1.1364
  756MOL0     H 2033   6.199   6.922  11.972 -3.1487 -0.0935  3.4941
  756MOL0     H 2034   6.275   6.734  12.195  0.2040 -0.8636 -0.8072
  756MOL0     H 2035   6.304   6.901  12.203  1.1456 -2.1587  0.8959
  756MOL0     H 2036   6.022   6.795  12.153 -0.3119  0.6336 -0.9480
  756MOL0     H 2037   6.079   6.962  12.203  0.2569 -0.3852 -0.2527
  756MOL0     H 2038   6.013   6.711  12.364  0.0747 -0.1166  1.8974
  756MOL0     H 2039   6.162   6.805  12.417 -0.1863 -2.0450  0.4697
  756MOL0     H 2040   6.599   6.588  11.469 -0.7535 -0.5421  0.0280
  756MOL0     H 2041   6.653   6.765  11.327 -2.6012 -1.5724 -1.5855
  756MOL0     H 2042   6.592   7.263  11.358 -2.3365  2.3068 -0.4237
  756MOL0     H 2043   6.644   7.492  11.272  1.4955 -0.4686  0.0109
  756MOL0     H 2044   5.861   7.340  10.446 -0.1443 -2.8230 -1.7060
  756MOL0     H 2045   5.809   7.102  10.460 -2.0423  0.1906  0.4436
  756MOL0     H 2046   5.681   6.745  10.649 -2.2472 -1.3847  2.4961
  756MOL0     H 2047   5.612   6.527  10.624  0.5829  1.0184 -2.0130
  756MOL0     H 2048   5.618   6.282  10.532 -1.1547  2.4708  1.1853
  756MOL0     H 2049   5.567   6.321  10.691  1.0938 -0.0780  2.2907
  756MOL0     H 2050   5.642   6.115  10.786 -1.6873 -2.8080 -0.5133
  756MOL0     H 2051   5.716   6.080  10.622  1.6640  0.9612  1.4056
  756MOL0     H 2052   5.423   6.156  10.665  1.1305  0.7779  0.0186
  756MOL0     H 2053   5.462   5.993  10.711  0.6689 -1.3451 -0.9996
  756MOL0     H 2054   5.361   6.009  10.495 -0.6853  1.8923 -0.0151
  756MOL0     H 2055   5.506   6.097  10.432  2.5202  0.1872  0.0427
  756MOL0     H 2056   5.626   5.693  10.422  3.2348 -0.1931 -0.5143
  756MOL0     H 2057   6.011   6.395  10.732  0.4882  0.2120  0.6528
  756MOL0     H 2058   6.114   6.691  10.860 -2.8058  0.3492 -0.2628
  756MOL0     H 2059   6.160   6.529  10.833 -0.7449 -2.3606 -3.5328
  756MOL0     H 2060   6.197   6.633  10.700  0.4910 -1.4265 -0.0253
  757MOL0     O 2061   2.059  11.155   2.374  0.3452 -0.5604  0.2673
  757MOL0     C 2062   1.937  11.135   2.401  0.1202  0.0808  0.6710
  757MOL0     O 2063   1.871  11.188   2.511  0.5034 -0.3197  1.0110
  757MOL0     C 2064   1.946  11.262   2.598  0.0626 -0.0954  0.8274
  757MOL0     C 2065   1.961  11.397   2.602  0.3426  0.3215 -0.0407
  757MOL0     C 2066   2.046  11.456   2.692  0.3319  0.4102  0.7511
  757MOL0     C 2067   2.119  11.377   2.788  0.0207  0.2461  0.3799
  757MOL0     O 2068   2.200  11.432   2.880 -0.0186 -0.6868 -0.6570
  757MOL0     C 2069   2.300  11.529   2.833  0.8154  0.0922  0.8012
  757MOL0     C 2070   2.423  11.456   2.768 -0.1123  0.5871  0.4148
  757MOL0     C 2071   2.514  11.566   2.713 -0.5780 -0.4588 -0.0625
  757MOL0     C 2072   2.608  11.505   2.605  0.2034 -0.4259  0.2339
  757MOL0     C 2073   2.724  11.609   2.568  0.4519  0.5851  0.1687
  757MOL0     C 2074   2.858  11.598   2.650  0.5635 -0.2428  0.0063
  757MOL0     C 2075   2.841  11.675   2.785  0.1650 -0.3457 -0.5055
  757MOL0     C 2076   2.983  11.701   2.821  0.4211  0.4576  1.1133
  757MOL0     N 2077   2.998  11.744   2.959 -0.0592 -0.4856  0.5484
  757MOL0     C 2078   3.084  11.840   3.004 -0.2021 -0.2932 -0.1723
  757MOL0     C 2079   3.088  11.832   3.147 -0.3140 -0.7043 -0.5345
  757MOL0     C 2080   3.177  11.905   3.252  0.1333 -0.2167 -0.4081
  757MOL0     C 2081   3.116  12.044   3.281  0.0549  0.9380 -0.1827
  757MOL0     C 2082   3.194  12.108   3.402 -0.2225  0.7128 -0.5425
  757MOL0     C 2083   3.128  12.231   3.460  0.0706 -0.4425  0.0736
  757MOL0     O 2084   3.129  12.336   3.358  0.3287 -0.5667 -0.1082
  757MOL0     C 2085   3.233  12.422   3.354  0.9519  0.0844 -0.1225
  757MOL0     C 2086   3.257  12.455   3.227 -0.2086  0.4359  0.8159
  757MOL0     C 2087   3.372  12.523   3.188 -0.3016 -0.1083 -0.1997
  757MOL0     C 2088   3.465  12.562   3.288  0.4094  0.3082 -0.2808
  757MOL0     C 2089   3.599  12.616   3.247  0.5076  1.3033 -0.5014
  757MOL0     O 2090   3.628  12.624   3.108  0.4634 -0.7954 -0.2011
  757MOL0     C 2091   3.749  12.667   3.061 -0.2485 -0.4243 -0.6110
  757MOL0     C 2092   3.753  12.799   3.010 -1.0831  0.2941  0.8328
  757MOL0     C 2093   3.876  12.857   2.957 -0.8635 -0.2107  0.0955
  757MOL0     C 2094   3.998  12.793   2.978 -0.1752 -0.0976 -0.5555
  757MOL0     O 2095   4.129  12.850   2.974  0.7020 -0.0886  0.1961
  757MOL0     C 2096   4.144  12.957   2.873  0.1923  0.6526  0.3844
  757MOL0     C 2097   4.275  12.911   2.806  0.1982  0.6019  0.6724
  757MOL0     C 2098   4.340  13.031   2.733  0.0585 -0.2296 -0.0826
  757MOL0     C 2099   4.484  12.982   2.694  0.4885  0.0689 -0.7053
  757MOL0     C 2100   4.540  13.070   2.588  1.1785 -0.7787  0.4713
  757MOL0     C 2101   4.534  13.218   2.613  0.3077 -0.1860 -1.2889
  757MOL0     C 2102   4.603  13.313   2.516  0.7624 -1.2042 -0.4941
  757MOL0     C 2103   4.587  13.455   2.572  0.1145  0.0309 -0.4569
  757MOL0    Cl 2104   4.630  13.590   2.455  0.0272  0.2867  0.2777
  757MOL0     C 2105   3.994  12.667   3.046 -0.3519  0.9469 -0.6398
  757MOL0     C 2106   3.873  12.605   3.081 -0.8164 -0.8469 -0.2101
  757MOL0     O 2107   3.679  12.642   3.335  0.5310  0.2838 -0.2627
  757MOL0     C 2108   3.433  12.541   3.422  0.5272  0.1459 -0.1063
  757MOL0     C 2109   3.319  12.468   3.459 -0.0665  0.4824 -0.1380
  757MOL0     N 2110   2.975  11.752   3.191 -0.5907 -1.1878  0.3527
  757MOL0     N 2111   2.938  11.699   3.076  1.2990  0.2641 -0.6638
  757MOL0     C 2112   2.102  11.240   2.790 -0.4422 -0.5968 -0.4591
  757MOL0     C 2113   2.009  11.188   2.698 -0.7336 -0.4006 -0.5113
  757MOL0     C 2114   1.871  11.046   2.299  0.1721 -0.2266  0.4102
  757MOL0     C 2115   1.927  11.045   2.171  0.9271 -0.9226 -0.3376
  757MOL0     C 2116   1.872  10.970   2.068  0.3150 -0.0077 -0.6186
  757MOL0     C 2117   1.753  10.906   2.086  0.1204 -0.7660 -0.5454
  757MOL0     O 2118   1.694  10.841   1.987  0.5359  0.5233  0.1675
  757MOL0     C 2119   1.551  10.866   1.976  0.6149 -0.4202  0.4670
  757MOL0     C 2120   1.491  10.845   1.838 -1.4655 -0.7604 -0.4318
  757MOL0     C 2121   1.519  10.972   1.755  0.4792  1.0155 -1.4721
  757MOL0     C 2122   1.659  11.000   1.710  0.5679 -0.0130 -0.8119
  757MOL0     C 2123   1.709  10.891   1.629 -0.7078  0.0856 -0.7477
  757MOL0     C 2124   1.752  10.798   1.564  0.7084 -0.0389 -0.1191
  757MOL0     C 2125   1.697  10.900   2.212  0.2945 -0.5997 -0.2081
  757MOL0     C 2126   1.753  10.976   2.321 -0.3219 -0.8462 -0.0026
  757MOL0     C 2127   1.671  10.962   2.436  0.2117  0.7204 -0.7084
  757MOL0     H 2128   1.906  11.469   2.542 -2.8665  0.8485  3.2135
  757MOL0     H 2129   2.048  11.564   2.687  2.4613  0.3674 -0.6658
  757MOL0     H 2130   2.247  11.597   2.766 -1.5936 -1.1396  1.3435
  757MOL0     H 2131   2.326  11.596   2.916  2.1320  1.5496 -0.7227
  757MOL0     H 2132   2.384  11.395   2.687 -2.3205  0.7896  1.2604
  757MOL0     H 2133   2.474  11.386   2.835 -0.3978 -1.4644 -1.4217
  757MOL0     H 2134   2.575  11.614   2.790 -0.3971  0.3532 -0.7071
  757MOL0     H 2135   2.463  11.653   2.672  0.3406  0.5304  0.8212
  757MOL0     H 2136   2.659  11.411   2.629  2.4132  1.1901  2.3238
  757MOL0     H 2137   2.549  11.473   2.519  3.0394  0.2814 -2.1481
  757MOL0     H 2138   2.748  11.606   2.461 -3.8827  0.8126 -0.9784
  757MOL0     H 2139   2.693  11.711   2.589 -1.0994 -0.3471  2.7918
  757MOL0     H 2140   2.899  11.498   2.664  1.5020  0.3381  1.6937
  757MOL0     H 2141   2.940  11.652   2.602  0.5162 -1.1157 -1.0797
  757MOL0     H 2142   2.794  11.607   2.857 -1.1015  0.6391 -0.3739
  757MOL0     H 2143   2.789  11.771   2.784  0.7832  0.0846  1.6390
  757MOL0     H 2144   3.040  11.610   2.800 -1.8787 -0.7374 -0.4814
  757MOL0     H 2145   3.019  11.783   2.758 -4.3688  0.5457 -2.0738
  757MOL0     H 2146   3.148  11.911   2.954  0.4091 -0.7551 -0.0589
  757MOL0     H 2147   3.192  11.852   3.347  0.1542  1.4811  0.5767
  757MOL0     H 2148   3.277  11.912   3.209  0.3313 -0.2417  0.0472
  757MOL0     H 2149   3.115  12.101   3.188 -0.7501  2.5368  0.7468
  757MOL0     H 2150   3.014  12.016   3.307  0.9903 -1.0439  1.6982
  757MOL0     H 2151   3.293  12.129   3.360  1.0017  2.1508  2.7115
  757MOL0     H 2152   3.207  12.031   3.478 -0.8286 -0.8243 -1.9250
  757MOL0     H 2153   3.181  12.264   3.550  1.0125 -1.4877 -0.0860
  757MOL0     H 2154   3.022  12.211   3.473 -0.9943  3.5748 -0.9156
  757MOL0     H 2155   3.190  12.422   3.148 -0.4199 -0.0200  1.1783
  757MOL0     H 2156   3.404  12.547   3.088 -2.0066  0.1584 -0.7010
  757MOL0     H 2157   3.665  12.863   3.015 -0.8355  0.5615  3.2964
  757MOL0     H 2158   3.866  12.961   2.929  2.7452  0.6346  1.3443
  757MOL0     H 2159   4.059  12.966   2.805  1.0982  0.6015 -0.7922
  757MOL0     H 2160   4.168  13.045   2.933 -0.4327  1.0939 -0.0057
  757MOL0     H 2161   4.349  12.877   2.879  0.1417 -1.7181 -0.2631
  757MOL0     H 2162   4.253  12.829   2.737  2.1908  1.5339 -1.1786
  757MOL0     H 2163   4.301  13.075   2.641  1.5143  1.5003  0.0620
  757MOL0     H 2164   4.347  13.123   2.792 -1.3371  0.8949 -1.5766
  757MOL0     H 2165   4.485  12.875   2.669  0.0502  0.4284 -2.4444
  757MOL0     H 2166   4.550  12.994   2.780  1.4105  1.3904 -1.5500
  757MOL0     H 2167   4.485  13.065   2.494 -0.0382  0.5148  1.0875
  757MOL0     H 2168   4.643  13.034   2.574  1.0491 -0.0763 -3.4202
  757MOL0     H 2169   4.428  13.247   2.614  0.5603  1.1351  2.3611
  757MOL0     H 2170   4.576  13.233   2.713  0.2427 -0.9864 -1.1349
  757MOL0     H 2171   4.554  13.306   2.418 -1.6021  0.6695  0.4462
  757MOL0     H 2172   4.711  13.299   2.513  1.0173  0.6603 -1.6493
  757MOL0     H 2173   4.485  13.483   2.601  0.8692  2.7770 -0.1279
  757MOL0     H 2174   4.652  13.466   2.659 -0.3480 -3.3913  0.4473
  757MOL0     H 2175   4.084  12.615   3.075 -1.1884 -1.7125 -2.4119
  757MOL0     H 2176   3.880  12.510   3.132  0.5519 -1.1267 -0.8913
  757MOL0     H 2177   3.510  12.556   3.496 -3.1124 -2.0442  4.6559
  757MOL0     H 2178   3.337  12.417   3.553  2.9733 -1.0626 -1.4145
  757MOL0     H 2179   2.134  11.174   2.871 -2.0744  0.5480  1.2086
  757MOL0     H 2180   2.008  11.079   2.697 -0.8316 -0.4013 -0.4114
  757MOL0     H 2181   2.019  11.097   2.147  1.7383 -1.5347  1.3244
  757MOL0     H 2182   1.914  10.954   1.970  1.6238 -5.1117  0.5218
  757MOL0     H 2183   1.514  10.966   2.001  0.5068 -0.0408 -1.1073
  757MOL0     H 2184   1.493  10.790   2.030  0.2246 -0.8328 -0.5085
  757MOL0     H 2185   1.383  10.832   1.856 -1.0676 -0.4779  2.8228
  757MOL0     H 2186   1.536  10.758   1.790  2.2055  0.6817  0.0928
  757MOL0     H 2187   1.474  11.057   1.807  2.0738 -0.2823  2.3849
  757MOL0     H 2188   1.455  10.954   1.667 -2.6557 -1.4503  1.0618
  757MOL0     H 2189   1.656  11.098   1.662  1.4755 -0.1113 -1.0905
  757MOL0     H 2190   1.723  11.007   1.799 -0.8189  0.2784  0.2044
  757MOL0     H 2191   1.768  10.705   1.514 -0.7183 -0.1636 -0.4045
  757MOL0     H 2192   1.604  10.849   2.235  0.4545  0.3049  2.8777
  757MOL0     H 2193   1.609  11.052   2.446 -0.4107  0.3783 -1.4347
  757MOL0     H 2194   1.603  10.877   2.432 -4.2974  3.9413 -0.7796
  757MOL0     H 2195   1.740  10.946   2.519  1.2724  0.0624 -1.6948
  758MOL0     O 2196   2.622   5.275   1.878  0.6633 -0.2635 -0.4209
  758MOL0     C 2197   2.506   5.239   1.905 -0.3284 -0.4590 -0.0260
  758MOL0     O 2198   2.431   5.275   2.017 -1.2531 -0.2955 -0.4300
  758MOL0     C 2199   2.486   5.359   2.113 -0.0383 -0.3910  0.5601
  758MOL0     C 2200   2.472   5.495   2.078 -0.8190  0.1024 -0.7746
  758MOL0     C 2201   2.520   5.595   2.167  0.2929  0.1021  0.4425
  758MOL0     C 2202   2.603   5.563   2.280  0.3443  0.4750  0.6768
  758MOL0     O 2203   2.648   5.663   2.357  0.8018 -0.0770  0.0938
  758MOL0     C 2204   2.709   5.640   2.486  0.8632  0.0012 -0.2813
  758MOL0     C 2205   2.673   5.739   2.592  0.5488 -1.5206 -0.8404
  758MOL0     C 2206   2.524   5.761   2.607 -0.0023 -1.0591  0.0261
  758MOL0     C 2207   2.480   5.827   2.742  0.4555  0.1317  0.7536
  758MOL0     C 2208   2.329   5.839   2.736 -0.1470  0.5553  0.3464
  758MOL0     C 2209   2.272   5.958   2.801  0.5983  0.0573  0.3565
  758MOL0     C 2210   2.305   6.089   2.734 -0.0821 -0.9321 -0.0722
  758MOL0     C 2211   2.204   6.197   2.779 -1.0518  0.4215 -0.8393
  758MOL0     N 2212   2.241   6.260   2.906  0.6014  0.0198  0.2389
  758MOL0     C 2213   2.224   6.218   3.033  0.4707 -0.0957 -1.1597
  758MOL0     C 2214   2.256   6.327   3.116  0.3928 -0.3673  0.4890
  758MOL0     C 2215   2.243   6.341   3.260  0.0794  0.5050 -0.2223
  758MOL0     C 2216   2.380   6.349   3.321  0.3177 -1.0869  0.0156
  758MOL0     C 2217   2.454   6.490   3.285  0.0375  0.4651  0.0692
  758MOL0     C 2218   2.568   6.517   3.387 -0.6179 -0.5385 -1.0430
  758MOL0     O 2219   2.522   6.506   3.522  0.3242  0.1515 -0.3064
  758MOL0     C 2220   2.607   6.520   3.623 -0.3302  1.1318 -0.0891
  758MOL0     C 2221   2.557   6.540   3.747  0.3888 -0.8176  0.3232
  758MOL0     C 2222   2.631   6.550   3.858 -0.3190 -0.9189  0.1000
  758MOL0     C 2223   2.775   6.563   3.855  0.4285 -0.4810  0.0278
  758MOL0     C 2224   2.858   6.583   3.975 -0.2556  0.2003  1.1665
  758MOL0     O 2225   2.966   6.662   3.965 -0.1215 -1.3206 -0.1237
  758MOL0     C 2226   3.047   6.685   4.071 -0.5005 -0.4395  0.1060
  758MOL0     C 2227   3.162   6.605   4.087  0.3835  0.0605  0.7309
  758MOL0     C 2228   3.245   6.635   4.191 -0.5079 -1.1028  0.0748
  758MOL0     C 2229   3.223   6.730   4.292 -0.6238  0.5793  0.2912
  758MOL0     O 2230   3.316   6.753   4.391 -0.5282  0.2221 -0.1399
  758MOL0     C 2231   3.387   6.642   4.447  0.1450  0.6333 -0.3970
  758MOL0     C 2232   3.409   6.682   4.596  0.1788  0.0582 -0.1203
  758MOL0     C 2233   3.284   6.701   4.682 -0.3458  0.4782 -0.0487
  758MOL0     C 2234   3.216   6.562   4.692 -0.0441 -0.7523  0.4271
  758MOL0     C 2235   3.296   6.472   4.775  0.5667 -0.5325 -0.1750
  758MOL0     C 2236   3.199   6.381   4.848  0.1567  0.6326  0.6340
  758MOL0     C 2237   3.276   6.284   4.930 -0.3073 -0.9236  0.0061
  758MOL0     C 2238   3.187   6.166   4.969 -0.2092 -0.5798 -1.0007
  758MOL0    Cl 2239   3.251   6.112   5.125 -0.0779  0.1243 -0.3421
  758MOL0     C 2240   3.113   6.807   4.274 -0.2024 -0.0682  0.1025
  758MOL0     C 2241   3.023   6.789   4.166 -1.1234 -0.0554  0.8417
  758MOL0     O 2242   2.813   6.552   4.083  0.2555 -0.1642 -0.2198
  758MOL0     C 2243   2.834   6.550   3.724 -0.0284  0.0801  0.2723
  758MOL0     C 2244   2.751   6.531   3.611 -0.5524 -0.0037  0.0880
  758MOL0     N 2245   2.282   6.439   3.032  0.3432 -0.0446 -0.4683
  758MOL0     N 2246   2.272   6.397   2.914 -0.0435  0.8825 -0.1460
  758MOL0     C 2247   2.631   5.426   2.295  0.2873  0.7934  0.1736
  758MOL0     C 2248   2.573   5.326   2.216  1.0489 -0.0437  0.6056
  758MOL0     C 2249   2.453   5.138   1.805 -0.2123  0.8946  0.7171
  758MOL0     C 2250   2.464   5.165   1.672 -0.1916  0.6988 -0.2523
  758MOL0     C 2251   2.406   5.079   1.574  0.1405 -0.3882  0.4666
  758MOL0     C 2252   2.335   4.963   1.608  0.9377  1.3217 -0.2006
  758MOL0     O 2253   2.265   4.876   1.526  0.1050 -0.7532  0.5953
  758MOL0     C 2254   2.305   4.880   1.382 -0.0497 -0.0505  0.4072
  758MOL0     C 2255   2.252   4.767   1.295  0.3186  0.6970 -0.4745
  758MOL0     C 2256   2.102   4.724   1.314  0.2008 -0.4138  0.3225
  758MOL0     C 2257   2.082   4.591   1.240  0.7898  0.8436  0.1446
  758MOL0     C 2258   1.933   4.580   1.230 -0.4523 -0.3825 -0.6901
  758MOL0     C 2259   1.817   4.570   1.227 -0.5328 -0.5154 -0.1300
  758MOL0     C 2260   2.323   4.935   1.742  0.4562 -0.9438 -0.4429
  758MOL0     C 2261   2.382   5.019   1.840  0.7321  0.8711  0.1547
  758MOL0     C 2262   2.377   4.979   1.986 -0.2794  0.0624  0.1967
  758MOL0     H 2263   2.415   5.533   1.994  1.1602  1.3918 -1.6015
  758MOL0     H 2264   2.487   5.695   2.143  1.1673  0.5988  1.2369
  758MOL0     H 2265   2.673   5.544   2.525 -1.9689  1.6827  1.6178
  758MOL0     H 2266   2.818   5.638   2.484  0.8571 -0.9822 -0.4169
  758MOL0     H 2267   2.705   5.837   2.555 -1.2296 -1.0953 -1.3266
  758MOL0     H 2268   2.720   5.731   2.690  0.5616 -0.7665 -0.7762
  758MOL0     H 2269   2.464   5.670   2.610 -1.3293 -0.2159 -0.1837
  758MOL0     H 2270   2.486   5.813   2.519  0.2942 -3.1959 -1.4260
  758MOL0     H 2271   2.518   5.776   2.831  2.2935 -2.4138 -1.3358
  758MOL0     H 2272   2.517   5.930   2.743 -1.9378  1.0865 -0.7750
  758MOL0     H 2273   2.299   5.848   2.631 -0.9063 -2.9737  0.1212
  758MOL0     H 2274   2.283   5.747   2.773 -2.8048  1.7548  0.2534
  758MOL0     H 2275   2.166   5.941   2.780  1.1967 -2.6765 -0.9673
  758MOL0     H 2276   2.302   5.944   2.905  2.3710 -0.8871 -0.2438
  758MOL0     H 2277   2.290   6.072   2.627  3.7957 -0.2415 -0.8876
  758MOL0     H 2278   2.404   6.131   2.753 -0.5311  0.8072 -1.3825
  758MOL0     H 2279   2.177   6.276   2.708  0.3017 -0.0054 -1.8891
  758MOL0     H 2280   2.113   6.138   2.796  0.7839 -1.6346  3.4554
  758MOL0     H 2281   2.182   6.121   3.055 -0.3321  0.0967 -1.8166
  758MOL0     H 2282   2.180   6.430   3.275 -0.7359  0.1376 -1.2949
  758MOL0     H 2283   2.196   6.252   3.304  0.4154  1.9292  3.3857
  758MOL0     H 2284   2.367   6.345   3.429  4.0316 -2.0320  0.5854
  758MOL0     H 2285   2.446   6.263   3.303 -0.8151 -2.1607  0.8067
  758MOL0     H 2286   2.372   6.563   3.280  0.2122  0.6139 -0.7561
  758MOL0     H 2287   2.499   6.488   3.186  0.8167 -1.1149  0.4244
  758MOL0     H 2288   2.640   6.597   3.370  0.6463 -0.4801  3.2219
  758MOL0     H 2289   2.639   6.435   3.376  1.5234  1.1487 -0.5051
  758MOL0     H 2290   2.450   6.535   3.764  0.2844 -1.4067 -0.4444
  758MOL0     H 2291   2.594   6.553   3.960  0.3061 -0.5924  0.3264
  758MOL0     H 2292   3.176   6.527   4.012 -0.2028 -0.0961  0.7745
  758MOL0     H 2293   3.343   6.589   4.185  0.9354  1.9100 -2.8077
  758MOL0     H 2294   3.336   6.546   4.439  0.1830  0.3374  2.1066
  758MOL0     H 2295   3.486   6.627   4.402  0.2406 -1.7908  0.4774
  758MOL0     H 2296   3.489   6.624   4.642  0.8391  0.1387 -1.1194
  758MOL0     H 2297   3.441   6.786   4.586 -0.5525  0.3115  0.1375
  758MOL0     H 2298   3.307   6.743   4.781  1.5680  0.5699 -0.4947
  758MOL0     H 2299   3.225   6.778   4.631  1.0918  0.8534 -1.2076
  758MOL0     H 2300   3.189   6.528   4.592 -0.8654  0.9375  0.0281
  758MOL0     H 2301   3.130   6.598   4.749  1.6680 -2.2306  4.2683
  758MOL0     H 2302   3.356   6.518   4.854  2.6436 -0.6626 -1.5844
  758MOL0     H 2303   3.350   6.412   4.701 -2.1399  0.6846 -3.3854
  758MOL0     H 2304   3.120   6.432   4.903 -0.4145  1.3999 -0.8272
  758MOL0     H 2305   3.145   6.321   4.774 -1.9287  2.0113  0.9608
  758MOL0     H 2306   3.315   6.337   5.018 -2.0077 -2.7064  1.9548
  758MOL0     H 2307   3.358   6.263   4.861 -1.4991  1.4273 -2.3201
  758MOL0     H 2308   3.079   6.179   4.980 -0.1836 -0.4186 -0.9324
  758MOL0     H 2309   3.211   6.093   4.892 -0.1057 -0.0995 -1.4303
  758MOL0     H 2310   3.091   6.889   4.342  1.4947 -1.2062  2.1456
  758MOL0     H 2311   2.940   6.855   4.142 -2.4662 -2.1548 -0.6409
  758MOL0     H 2312   2.943   6.556   3.726 -0.0701  0.9112  0.9625
  758MOL0     H 2313   2.794   6.520   3.512 -0.1707 -1.4039  0.3833
  758MOL0     H 2314   2.704   5.393   2.368 -0.9005  1.7249  1.8306
  758MOL0     H 2315   2.585   5.220   2.236 -3.7221 -0.6306  1.4819
  758MOL0     H 2316   2.501   5.256   1.624  0.7597 -0.1220 -1.1374
  758MOL0     H 2317   2.403   5.106   1.469  0.7320  3.2393  1.2628
  758MOL0     H 2318   2.414   4.876   1.389 -0.0541  1.3070  2.0622
  758MOL0     H 2319   2.269   4.972   1.335  0.6345  0.1566  0.2773
  758MOL0     H 2320   2.309   4.677   1.319 -1.0023 -0.4771 -1.5255
  758MOL0     H 2321   2.264   4.781   1.187  1.6718  0.1636 -0.4101
  758MOL0     H 2322   2.032   4.807   1.299  0.4653  0.1882  2.1537
  758MOL0     H 2323   2.087   4.705   1.421  0.7687  0.7153  0.6142
  758MOL0     H 2324   2.133   4.588   1.144  1.1018  2.4828  0.2220
  758MOL0     H 2325   2.132   4.516   1.302 -1.5608 -1.5334 -0.6460
  758MOL0     H 2326   1.711   4.568   1.214 -0.2991 -0.3271 -2.5216
  758MOL0     H 2327   2.264   4.849   1.768  0.7903 -0.9553  0.2944
  758MOL0     H 2328   2.365   4.871   1.991  1.7524 -0.1625  1.1387
  758MOL0     H 2329   2.471   4.995   2.040  0.0328  1.7921 -0.7823
  758MOL0     H 2330   2.297   5.034   2.037  1.0222  1.0722  1.1941
  759MOL0     O 2331   7.709   4.798   8.191  0.1890 -0.8420  0.2135
  759MOL0     C 2332   7.775   4.788   8.090 -1.1714 -0.3674  0.2025
  759MOL0     O 2333   7.731   4.765   7.960 -0.0709 -0.5972 -0.8347
  759MOL0     C 2334   7.601   4.743   7.933 -0.4607 -0.3471  0.7575
  759MOL0     C 2335   7.564   4.774   7.802 -0.1373  0.3691  0.3168
  759MOL0     C 2336   7.443   4.740   7.751  1.0935  0.3831 -0.2077
  759MOL0     C 2337   7.339   4.697   7.837  0.4034  0.2071 -0.4276
  759MOL0     O 2338   7.205   4.669   7.807 -0.0681 -0.8384 -0.1751
  759MOL0     C 2339   7.150   4.683   7.675  0.1729  0.7064  0.5933
  759MOL0     C 2340   7.002   4.662   7.675 -0.4442 -0.5620 -0.8594
  759MOL0     C 2341   6.924   4.753   7.779 -0.6601  0.7693  0.0589
  759MOL0     C 2342   6.978   4.898   7.787  0.5694  0.5285 -0.3227
  759MOL0     C 2343   6.895   4.985   7.875  0.3516  0.2750  0.3017
  759MOL0     C 2344   6.961   5.118   7.885 -0.1316  0.3956  0.2473
  759MOL0     C 2345   6.865   5.217   7.944 -0.2983  0.6231 -0.3718
  759MOL0     C 2346   6.935   5.361   7.936  0.0609  0.0967 -0.1473
  759MOL0     N 2347   6.858   5.467   8.004  0.5618  0.1087 -0.1844
  759MOL0     C 2348   6.789   5.457   8.127  0.1041  1.1636 -0.4805
  759MOL0     C 2349   6.719   5.571   8.128  0.3170  0.1548 -0.1109
  759MOL0     C 2350   6.601   5.599   8.217 -1.0749  0.1602  0.0087
  759MOL0     C 2351   6.573   5.741   8.252  0.1176 -0.4231 -0.0802
  759MOL0     C 2352   6.658   5.776   8.376 -0.3755  0.2054  0.6406
  759MOL0     C 2353   6.608   5.916   8.408  0.3300 -0.1846 -0.1482
  759MOL0     O 2354   6.473   5.901   8.458  0.4685 -0.0138  0.4886
  759MOL0     C 2355   6.395   6.016   8.477 -0.5424 -0.9132 -0.2430
  759MOL0     C 2356   6.257   5.990   8.482 -0.4489  0.9093 -0.2553
  759MOL0     C 2357   6.167   6.092   8.502 -0.0048 -0.1386  0.6532
  759MOL0     C 2358   6.204   6.230   8.535  0.5797  0.8342 -0.2027
  759MOL0     C 2359   6.115   6.337   8.555 -0.3441 -0.5578 -0.1850
  759MOL0     O 2360   5.985   6.303   8.560 -0.2346  0.5386  0.7946
  759MOL0     C 2361   5.899   6.398   8.602 -0.1771  0.1099  0.2561
  759MOL0     C 2362   5.851   6.395   8.733 -0.3418 -0.0845 -0.1093
  759MOL0     C 2363   5.773   6.497   8.781  0.1046 -0.7966 -1.1583
  759MOL0     C 2364   5.731   6.606   8.695 -0.6474  0.6495  0.7713
  759MOL0     O 2365   5.660   6.712   8.727  0.1436  0.3557  0.0547
  759MOL0     C 2366   5.676   6.756   8.865  0.3879  0.0504 -1.2723
  759MOL0     C 2367   5.608   6.895   8.868  0.6552 -0.0394  0.1748
  759MOL0     C 2368   5.444   6.889   8.879  0.0380  0.4721  1.0850
  759MOL0     C 2369   5.409   6.860   9.028 -0.3209  0.3849 -0.2247
  759MOL0     C 2370   5.286   6.761   9.025  1.0640 -0.3793  0.8099
  759MOL0     C 2371   5.218   6.734   9.159 -0.0279 -0.0736  0.2706
  759MOL0     C 2372   5.304   6.661   9.262  0.1515 -0.5406  0.1436
  759MOL0     C 2373   5.216   6.577   9.363  0.1300 -0.8138 -0.5566
  759MOL0    Cl 2374   5.313   6.459   9.461 -0.2728  0.1383 -0.1214
  759MOL0     C 2375   5.763   6.597   8.562  0.0596  0.0361 -0.5656
  759MOL0     C 2376   5.852   6.499   8.518  0.0617 -0.0606 -0.2888
  759MOL0     O 2377   6.165   6.447   8.570  0.1121 -0.5300  0.2193
  759MOL0     C 2378   6.341   6.252   8.532 -1.1085  0.0041 -0.4000
  759MOL0     C 2379   6.439   6.153   8.505  0.7401 -0.2396  0.1525
  759MOL0     N 2380   6.753   5.642   8.013 -0.3078 -0.1954  0.6924
  759MOL0     N 2381   6.837   5.580   7.934 -0.3451  0.2911 -0.0580
  759MOL0     C 2382   7.371   4.666   7.968 -0.4522 -0.4787 -0.5579
  759MOL0     C 2383   7.508   4.685   8.016 -0.2259  0.0736 -0.5931
  759MOL0     C 2384   7.919   4.798   8.110 -1.3452  0.2840 -0.3956
  759MOL0     C 2385   8.001   4.854   8.005  0.5582  0.0530  0.3495
  759MOL0     C 2386   8.143   4.864   8.011 -0.2617 -0.7325  0.0811
  759MOL0     C 2387   8.207   4.823   8.127 -0.3726  0.1456 -0.0049
  759MOL0     O 2388   8.340   4.822   8.148 -0.1756 -0.3186  0.2375
  759MOL0     C 2389   8.429   4.846   8.042  0.7986 -0.6013 -0.6513
  759MOL0     C 2390   8.577   4.855   8.085  0.2112 -0.1740  0.2405
  759MOL0     C 2391   8.675   4.846   7.971  0.0249 -0.0089 -0.6487
  759MOL0     C 2392   8.814   4.890   8.009  0.6288 -0.1908 -0.1596
  759MOL0     C 2393   8.880   4.790   8.107  0.3054  0.1507 -0.7965
  759MOL0     C 2394   8.945   4.704   8.170  0.4706  0.7108  0.3668
  759MOL0     C 2395   8.126   4.755   8.226 -0.5246  0.0834  0.1563
  759MOL0     C 2396   7.985   4.750   8.223 -0.0601  0.3542 -0.2608
  759MOL0     C 2397   7.930   4.674   8.337  0.6362 -0.0393 -0.5743
  759MOL0     H 2398   7.629   4.819   7.727  0.2177 -2.2941 -1.1083
  759MOL0     H 2399   7.406   4.753   7.650 -0.9844 -1.7502  0.1890
  759MOL0     H 2400   7.178   4.779   7.632  1.2372  0.6519  1.1507
  759MOL0     H 2401   7.182   4.606   7.603 -1.1609 -0.8758  1.6005
  759MOL0     H 2402   6.976   4.560   7.704  0.7277 -0.0770  2.3708
  759MOL0     H 2403   6.963   4.663   7.573 -0.2652 -0.9596 -0.9327
  759MOL0     H 2404   6.931   4.698   7.873  0.3201 -0.2941 -0.6136
  759MOL0     H 2405   6.818   4.750   7.751 -0.6622 -3.0099 -0.0606
  759MOL0     H 2406   7.080   4.894   7.825  0.7593  1.4285 -0.7107
  759MOL0     H 2407   6.987   4.944   7.688  2.4186  1.3337  0.1780
  759MOL0     H 2408   6.797   4.999   7.828  1.0025  0.2989 -1.1151
  759MOL0     H 2409   6.886   4.949   7.978 -1.6951 -2.2441 -0.6420
  759MOL0     H 2410   7.053   5.100   7.941 -0.0407  0.8843  0.2633
  759MOL0     H 2411   6.985   5.148   7.783  0.1578 -2.2360 -0.5240
  759MOL0     H 2412   6.849   5.185   8.047  2.7674 -0.2708 -0.0766
  759MOL0     H 2413   6.765   5.215   7.899 -1.0354 -0.3132  1.2388
  759MOL0     H 2414   7.033   5.355   7.983  0.0975  2.9203  0.3022
  759MOL0     H 2415   6.950   5.394   7.832  2.6184  0.8167  0.3965
  759MOL0     H 2416   6.804   5.370   8.190  0.2468 -0.5291 -2.7562
  759MOL0     H 2417   6.510   5.567   8.166 -0.5514 -0.5392 -0.4992
  759MOL0     H 2418   6.600   5.536   8.307 -3.1439 -2.4522 -1.7101
  759MOL0     H 2419   6.598   5.809   8.170  1.1526  1.1713  1.5092
  759MOL0     H 2420   6.467   5.766   8.261  0.1029 -0.9024  1.2485
  759MOL0     H 2421   6.758   5.795   8.337 -1.5302 -1.8372 -4.0397
  759MOL0     H 2422   6.654   5.706   8.460  0.1522 -2.3643 -1.3324
  759MOL0     H 2423   6.599   5.984   8.322 -0.6605 -0.5656 -0.3672
  759MOL0     H 2424   6.683   5.954   8.477 -1.1714  2.9600 -0.0562
  759MOL0     H 2425   6.229   5.885   8.475 -0.9522  1.1445 -2.1328
  759MOL0     H 2426   6.062   6.063   8.502  0.0775 -0.8948 -2.7271
  759MOL0     H 2427   5.896   6.319   8.796 -0.4439  0.5569  0.7518
  759MOL0     H 2428   5.758   6.510   8.888 -3.4734 -0.7301 -1.5669
  759MOL0     H 2429   5.618   6.687   8.927 -1.5867  2.9688  0.3578
  759MOL0     H 2430   5.783   6.761   8.885  0.9474  1.3689 -4.0450
  759MOL0     H 2431   5.638   6.951   8.957  2.0717  1.5235 -1.2244
  759MOL0     H 2432   5.647   6.963   8.792  3.0647 -2.2991 -0.7978
  759MOL0     H 2433   5.407   6.990   8.858 -1.6026 -0.3179  0.0484
  759MOL0     H 2434   5.408   6.811   8.812 -0.0202  2.2735 -1.1092
  759MOL0     H 2435   5.393   6.951   9.086 -1.0584  1.0691 -1.4574
  759MOL0     H 2436   5.475   6.797   9.089  0.6157  0.4409 -1.1522
  759MOL0     H 2437   5.310   6.668   8.972 -0.6927  1.5913 -3.9485
  759MOL0     H 2438   5.212   6.812   8.964  2.7335  0.4791 -0.5926
  759MOL0     H 2439   5.189   6.831   9.201  1.6119 -0.0056  1.3323
  759MOL0     H 2440   5.126   6.679   9.137 -1.3762  2.0155  0.4015
  759MOL0     H 2441   5.365   6.726   9.326 -0.8448  0.8307 -0.2611
  759MOL0     H 2442   5.372   6.589   9.215  0.2151 -0.7051  0.4834
  759MOL0     H 2443   5.154   6.642   9.426  1.6415 -1.0074  1.2264
  759MOL0     H 2444   5.136   6.528   9.306 -2.2800  0.7536  1.2270
  759MOL0     H 2445   5.729   6.679   8.501  1.8299  1.4590  0.2695
  759MOL0     H 2446   5.887   6.489   8.416  0.8704  3.0949 -0.4053
  759MOL0     H 2447   6.382   6.350   8.555  1.3757 -1.5302  2.4829
  759MOL0     H 2448   6.542   6.181   8.525  0.6370  3.1873 -3.0382
  759MOL0     H 2449   7.291   4.640   8.036  0.8637 -4.1494 -0.2038
  759MOL0     H 2450   7.523   4.661   8.121 -0.9819 -2.1372 -0.9423
  759MOL0     H 2451   7.952   4.879   7.912  1.5772 -1.5161 -0.6806
  759MOL0     H 2452   8.194   4.908   7.925  1.6768  3.5855  3.0883
  759MOL0     H 2453   8.405   4.938   7.988  1.9383 -0.7400 -1.4186
  759MOL0     H 2454   8.420   4.765   7.969 -1.5491 -0.8695 -0.1599
  759MOL0     H 2455   8.598   4.768   8.148 -0.6196 -0.1850  0.5145
  759MOL0     H 2456   8.586   4.957   8.125 -1.0199  0.6059 -1.3432
  759MOL0     H 2457   8.643   4.899   7.880 -1.3905  3.2399  1.5584
  759MOL0     H 2458   8.688   4.741   7.946 -2.9697 -0.6893  0.2929
  759MOL0     H 2459   8.857   4.874   7.909  0.0352 -1.2372 -0.2617
  759MOL0     H 2460   8.814   4.993   8.044  0.2457 -0.2449 -0.0011
  759MOL0     H 2461   9.002   4.647   8.241 -0.4130  2.2675  2.4055
  759MOL0     H 2462   8.175   4.709   8.310 -1.1877  0.5000  0.7855
  759MOL0     H 2463   7.952   4.568   8.325  2.5200  0.4733 -2.1688
  759MOL0     H 2464   7.981   4.709   8.427 -1.3464  2.2002 -0.2213
  759MOL0     H 2465   7.822   4.677   8.354  0.6533 -0.5764 -0.3435
  760MOL0     O 2466   7.605   6.055   4.511 -0.9786  0.9432  0.0633
  760MOL0     C 2467   7.491   6.085   4.541  0.3108 -0.0793 -0.0415
  760MOL0     O 2468   7.389   6.106   4.451 -0.2383 -0.1695  0.5842
  760MOL0     C 2469   7.383   6.058   4.318  0.8629  1.4277 -0.6755
  760MOL0     C 2470   7.282   6.097   4.232 -0.7428 -0.9424 -0.3873
  760MOL0     C 2471   7.289   6.092   4.096 -0.4353  0.5929 -0.1095
  760MOL0     C 2472   7.397   6.029   4.027 -0.2498 -0.2208  0.0589
  760MOL0     O 2473   7.396   6.017   3.886  0.3236  0.0133 -0.0801
  760MOL0     C 2474   7.282   5.964   3.815 -1.1626 -0.2386 -0.6650
  760MOL0     C 2475   7.255   6.038   3.682  0.1554 -0.4937 -0.0364
  760MOL0     C 2476   7.373   6.017   3.576 -0.0962  0.3101  0.0611
  760MOL0     C 2477   7.328   6.070   3.438 -0.1671  0.2914  0.8079
  760MOL0     C 2478   7.443   6.099   3.331 -0.3794  0.2437 -0.9564
  760MOL0     C 2479   7.561   6.169   3.388 -0.1209 -0.0043 -0.1473
  760MOL0     C 2480   7.639   6.226   3.268  0.0593 -0.4245 -0.0306
  760MOL0     C 2481   7.627   6.373   3.239 -1.0640 -0.2311 -0.1911
  760MOL0     N 2482   7.713   6.408   3.115  0.5696  0.2923 -0.5149
  760MOL0     C 2483   7.783   6.325   3.030  0.1393 -0.2334 -0.6102
  760MOL0     C 2484   7.828   6.413   2.937  0.1327  0.0719  0.5001
  760MOL0     C 2485   7.935   6.358   2.841 -0.4909  0.8607  0.6098
  760MOL0     C 2486   8.004   6.490   2.776 -0.2020  0.3023 -0.5405
  760MOL0     C 2487   8.098   6.456   2.666 -0.2293  0.3389  0.6379
  760MOL0     C 2488   8.162   6.593   2.618  0.1218  0.2668 -0.6083
  760MOL0     O 2489   8.267   6.541   2.534 -0.0921  0.0200  0.4035
  760MOL0     C 2490   8.373   6.620   2.501 -0.2336 -0.5973  0.0642
  760MOL0     C 2491   8.356   6.760   2.467  0.3371  0.1421  0.5343
  760MOL0     C 2492   8.462   6.837   2.438 -0.0835 -0.6265  0.2111
  760MOL0     C 2493   8.590   6.789   2.439 -0.3890 -0.6788 -0.1030
  760MOL0     C 2494   8.705   6.874   2.402  0.0110  0.6961  0.4754
  760MOL0     O 2495   8.677   6.990   2.336  0.1084 -0.2600  0.4207
  760MOL0     C 2496   8.771   7.082   2.326 -0.6372  0.6505  0.2988
  760MOL0     C 2497   8.905   7.055   2.280  0.6336  0.5090  0.5347
  760MOL0     C 2498   8.998   7.160   2.272  0.0700  0.5812  0.4312
  760MOL0     C 2499   8.961   7.289   2.321  0.5686  0.5630  0.0130
  760MOL0     O 2500   9.044   7.398   2.319 -0.0609  0.2631 -0.5875
  760MOL0     C 2501   9.183   7.374   2.322  0.6219  0.1180  0.3632
  760MOL0     C 2502   9.233   7.372   2.176  0.2842 -0.7947 -0.3169
  760MOL0     C 2503   9.199   7.502   2.109 -0.6387 -0.4078 -0.7526
  760MOL0     C 2504   9.209   7.497   1.960  1.2313 -0.1257 -0.5208
  760MOL0     C 2505   9.217   7.643   1.909  0.1282  0.0561  0.3520
  760MOL0     C 2506   9.206   7.651   1.759 -0.6226 -0.1379 -0.8770
  760MOL0     C 2507   9.067   7.641   1.698 -0.3999 -0.1638  0.9792
  760MOL0     C 2508   9.072   7.645   1.544 -0.2233 -0.3314  0.8289
  760MOL0    Cl 2509   8.908   7.642   1.473 -0.2777 -0.0624 -0.2280
  760MOL0     C 2510   8.833   7.318   2.352 -0.1891  0.2970  0.1683
  760MOL0     C 2511   8.738   7.217   2.352  0.7283 -0.1906 -0.3382
  760MOL0     O 2512   8.810   6.844   2.457  0.8892 -0.2704 -0.1087
  760MOL0     C 2513   8.610   6.655   2.459  0.6412 -1.0008 -0.2750
  760MOL0     C 2514   8.502   6.568   2.497 -1.3898  0.4035 -0.1394
  760MOL0     N 2515   7.790   6.542   2.963 -0.2758 -0.0170 -0.4232
  760MOL0     N 2516   7.721   6.538   3.074  0.7056 -0.0049 -0.1109
  760MOL0     C 2517   7.494   5.978   4.111  0.1767  0.2626 -0.7802
  760MOL0     C 2518   7.486   5.989   4.251 -0.1276 -0.1201 -0.9660
  760MOL0     C 2519   7.472   6.101   4.693  0.3981  0.1465 -0.5578
  760MOL0     C 2520   7.339   6.101   4.742  0.0421 -0.6904 -1.1970
  760MOL0     C 2521   7.305   6.119   4.881 -0.7166  1.3516 -0.2513
  760MOL0     C 2522   7.409   6.129   4.979 -0.5654 -0.5495  0.8213
  760MOL0     O 2523   7.393   6.133   5.111  0.1010 -0.1439 -0.2633
  760MOL0     C 2524   7.255   6.118   5.164  0.1029  0.7203  0.9273
  760MOL0     C 2525   7.270   6.066   5.306  0.3016 -0.5134  0.2709
  760MOL0     C 2526   7.133   6.085   5.367 -0.8477  0.2984  0.0005
  760MOL0     C 2527   7.135   5.993   5.494 -0.3406  0.4014 -0.3060
  760MOL0     C 2528   7.039   6.007   5.596 -0.0572 -0.1356 -0.0952
  760MOL0     C 2529   6.943   6.022   5.675 -0.3545  0.4781 -0.1140
  760MOL0     C 2530   7.541   6.133   4.928 -0.5810 -0.4300  0.2957
  760MOL0     C 2531   7.576   6.125   4.797  0.3595 -0.0740  0.0218
  760MOL0     C 2532   7.724   6.133   4.766  0.8779  0.8515  0.0486
  760MOL0     H 2533   7.188   6.135   4.269 -2.3425 -4.4757 -0.3964
  760MOL0     H 2534   7.209   6.135   4.037 -1.2608 -0.8908 -0.1354
  760MOL0     H 2535   7.307   5.858   3.803 -1.3983 -0.6380  1.8774
  760MOL0     H 2536   7.188   5.962   3.871 -1.7935  2.9490 -1.4081
  760MOL0     H 2537   7.236   6.144   3.703 -0.7578 -0.8261  0.9114
  760MOL0     H 2538   7.170   5.989   3.634  1.2573 -1.7143 -0.8010
  760MOL0     H 2539   7.386   5.909   3.575 -2.1955 -0.2081  4.3050
  760MOL0     H 2540   7.460   6.072   3.613 -0.5976  0.8100  0.5272
  760MOL0     H 2541   7.253   6.007   3.389  0.4065 -0.4164  0.8316
  760MOL0     H 2542   7.277   6.166   3.451 -1.9432 -0.5894  0.7173
  760MOL0     H 2543   7.467   6.001   3.288 -0.4665  0.8688 -2.4979
  760MOL0     H 2544   7.387   6.170   3.269 -0.3929  0.3083 -0.8696
  760MOL0     H 2545   7.528   6.255   3.446  1.8665 -0.3807  1.6714
  760MOL0     H 2546   7.633   6.115   3.449  0.7907  0.2704 -0.9525
  760MOL0     H 2547   7.593   6.175   3.183 -1.6225 -0.4744  0.8805
  760MOL0     H 2548   7.741   6.187   3.281  0.1761 -0.1675 -0.1640
  760MOL0     H 2549   7.522   6.386   3.210 -0.6377 -1.0206 -2.2591
  760MOL0     H 2550   7.656   6.441   3.319 -0.2165  0.7833 -1.3190
  760MOL0     H 2551   7.816   6.222   3.037 -0.1268 -0.5020 -2.5554
  760MOL0     H 2552   8.018   6.314   2.897  1.3692  1.5899 -1.4050
  760MOL0     H 2553   7.892   6.293   2.765  2.0660  1.6501 -1.6815
  760MOL0     H 2554   7.935   6.567   2.740 -0.7241  1.7602  3.1597
  760MOL0     H 2555   8.057   6.546   2.854  5.9027 -1.6550 -2.7014
  760MOL0     H 2556   8.041   6.398   2.593 -0.7921 -0.9809  2.0554
  760MOL0     H 2557   8.176   6.389   2.704  1.2099  1.7170  0.1913
  760MOL0     H 2558   8.217   6.645   2.697  0.0801 -3.0858  1.8155
  760MOL0     H 2559   8.084   6.646   2.563 -0.9690  2.6501  2.8443
  760MOL0     H 2560   8.257   6.804   2.466  0.6881  1.2152 -3.7142
  760MOL0     H 2561   8.443   6.939   2.407  3.2655  0.2771  0.6572
  760MOL0     H 2562   8.928   6.951   2.255 -0.6824  0.2706  0.2457
  760MOL0     H 2563   9.098   7.135   2.240  0.6464  1.3699  1.5539
  760MOL0     H 2564   9.221   7.454   2.387  1.7713  0.2210 -0.4109
  760MOL0     H 2565   9.204   7.278   2.369  0.0738  0.0389  0.4582
  760MOL0     H 2566   9.339   7.353   2.163  1.3798  4.6780 -1.7206
  760MOL0     H 2567   9.180   7.291   2.124  2.8734 -1.3276 -2.3044
  760MOL0     H 2568   9.099   7.537   2.135  0.6153  1.3882  2.1104
  760MOL0     H 2569   9.270   7.569   2.158 -1.4136 -0.1671  0.0742
  760MOL0     H 2570   9.125   7.440   1.918  1.6003 -1.6303  0.6687
  760MOL0     H 2571   9.304   7.448   1.940  2.5599  1.2572  1.8767
  760MOL0     H 2572   9.313   7.683   1.942  1.6223 -3.7145  1.0113
  760MOL0     H 2573   9.137   7.707   1.947 -0.8991 -1.6305  1.1198
  760MOL0     H 2574   9.242   7.748   1.724  1.2829 -0.6727 -0.4956
  760MOL0     H 2575   9.275   7.579   1.714 -0.6481 -1.1803  0.6918
  760MOL0     H 2576   9.004   7.719   1.741 -1.1205 -1.1853  1.8060
  760MOL0     H 2577   9.027   7.543   1.723 -0.5266  0.1779  2.1529
  760MOL0     H 2578   9.118   7.734   1.501 -4.2126  1.5751  0.0940
  760MOL0     H 2579   9.121   7.554   1.509 -0.5519 -0.1067 -0.2484
  760MOL0     H 2580   8.800   7.418   2.379 -1.3438  0.2096 -0.8320
  760MOL0     H 2581   8.634   7.235   2.378  0.3281 -0.3915 -1.7173
  760MOL0     H 2582   8.708   6.611   2.474  1.5858  1.0874  0.1196
  760MOL0     H 2583   8.528   6.465   2.521 -1.2601  1.0402  2.9518
  760MOL0     H 2584   7.579   5.925   4.069  0.0082 -0.1885 -0.5588
  760MOL0     H 2585   7.568   5.940   4.304 -1.0996 -0.7758 -0.0339
  760MOL0     H 2586   7.258   6.075   4.674 -1.2150  1.1999 -0.5124
  760MOL0     H 2587   7.199   6.111   4.904 -0.5839  1.6016  0.4828
  760MOL0     H 2588   7.192   6.045   5.111  2.7845 -0.5744 -0.6720
  760MOL0     H 2589   7.200   6.212   5.159  0.8391  1.1354  0.5401
  760MOL0     H 2590   7.334   6.131   5.366 -0.6076 -0.2385  0.9637
  760MOL0     H 2591   7.301   5.961   5.310 -0.5883 -0.8066 -0.2145
  760MOL0     H 2592   7.057   6.050   5.298 -2.2672 -4.3596  3.4048
  760MOL0     H 2593   7.140   6.193   5.388  2.3633  0.4413 -1.2782
  760MOL0     H 2594   7.128   5.898   5.441  2.2513  1.6343 -3.1604
  760MOL0     H 2595   7.235   5.986   5.537  1.4077  0.0257 -4.0481
  760MOL0     H 2596   6.856   6.037   5.737 -0.2033 -0.3996  0.3341
  760MOL0     H 2597   7.619   6.138   5.004 -0.7435 -3.6069  0.7727
  760MOL0     H 2598   7.739   6.188   4.673 -0.5867  0.1008 -0.6780
  760MOL0     H 2599   7.787   6.181   4.841  2.2667 -0.3493 -0.3156
  760MOL0     H 2600   7.754   6.029   4.752 -3.6752 -1.1126  2.4736
  761MOL0     O 2601   5.188   8.912   5.103  0.6430 -0.5334 -0.1772
  761MOL0     C 2602   5.159   9.029   5.069  0.6023  0.2375 -0.7070
  761MOL0     O 2603   5.251   9.131   5.071  0.5051 -0.9141  0.1680
  761MOL0     C 2604   5.369   9.107   5.130 -0.0085  0.0411  0.1847
  761MOL0     C 2605   5.382   9.137   5.269  0.1808  1.0970 -0.7675
  761MOL0     C 2606   5.504   9.128   5.329  0.3761 -0.5895  0.0533
  761MOL0     C 2607   5.619   9.094   5.257 -0.4909 -0.0807  0.1203
  761MOL0     O 2608   5.744   9.081   5.311  0.2996 -0.9651  0.2672
  761MOL0     C 2609   5.771   9.129   5.441 -0.2718  0.2310  0.0138
  761MOL0     C 2610   5.919   9.105   5.460 -0.0466  0.8137 -0.8122
  761MOL0     C 2611   5.930   8.961   5.536 -0.1311 -0.3721 -0.1795
  761MOL0     C 2612   6.061   8.946   5.591  0.8128 -0.2564  0.5170
  761MOL0     C 2613   6.072   8.817   5.676 -0.1422  0.1476 -0.2922
  761MOL0     C 2614   6.196   8.797   5.750  0.1541 -0.5948  0.9259
  761MOL0     C 2615   6.319   8.799   5.662 -0.2326  0.5736  0.3725
  761MOL0     C 2616   6.376   8.936   5.643  0.4369  0.4504 -0.1822
  761MOL0     N 2617   6.419   9.004   5.768 -0.9915  0.2054  0.9211
  761MOL0     C 2618   6.518   8.948   5.852  0.1157  0.9188 -0.2726
  761MOL0     C 2619   6.542   9.043   5.947 -1.2838 -0.4814 -0.1184
  761MOL0     C 2620   6.632   9.049   6.066 -0.4015  0.2322 -0.5315
  761MOL0     C 2621   6.773   9.061   6.022 -0.1073  0.1407  0.2968
  761MOL0     C 2622   6.803   9.170   5.921  0.3032 -1.2270 -0.1624
  761MOL0     C 2623   6.952   9.192   5.892 -0.0210 -0.7163 -0.7160
  761MOL0     O 2624   7.015   9.063   5.863 -1.0121 -0.2559 -0.0619
  761MOL0     C 2625   7.112   9.076   5.768 -0.9213  0.7149 -0.4094
  761MOL0     C 2626   7.220   9.163   5.787  0.4284 -1.0377  0.1158
  761MOL0     C 2627   7.333   9.156   5.703  0.6569  0.3673  0.5661
  761MOL0     C 2628   7.349   9.055   5.604  1.2254 -0.0590 -0.5661
  761MOL0     C 2629   7.461   9.042   5.517 -0.6766  0.8736 -0.4877
  761MOL0     O 2630   7.578   9.070   5.582  0.3417  0.0484 -0.1043
  761MOL0     C 2631   7.697   9.092   5.510  0.8584 -0.3634 -0.0074
  761MOL0     C 2632   7.704   9.195   5.406  0.5917  0.6014  0.6280
  761MOL0     C 2633   7.831   9.227   5.343  1.4046  0.3353  0.2043
  761MOL0     C 2634   7.943   9.147   5.370  0.5365  0.2946 -0.2348
  761MOL0     O 2635   8.069   9.149   5.311  0.1858  0.1356 -1.0140
  761MOL0     C 2636   8.080   9.246   5.201  0.3869 -0.1237 -0.1730
  761MOL0     C 2637   8.226   9.290   5.185  0.0231 -0.1199 -0.1156
  761MOL0     C 2638   8.232   9.423   5.105  0.0554  0.8524  0.2067
  761MOL0     C 2639   8.376   9.472   5.100 -0.8711 -0.7472  0.5402
  761MOL0     C 2640   8.367   9.620   5.069 -0.1617  0.3076  0.2965
  761MOL0     C 2641   8.325   9.638   4.932  0.5556 -0.3725  0.8559
  761MOL0     C 2642   8.337   9.772   4.877  0.1179  0.0730 -0.1308
  761MOL0     C 2643   8.243   9.879   4.934 -0.9548  0.6989 -0.3051
  761MOL0    Cl 2644   8.076   9.859   4.878 -0.0026 -0.5249  0.2106
  761MOL0     C 2645   7.934   9.055   5.477  0.2592 -0.0426 -0.3071
  761MOL0     C 2646   7.813   9.031   5.544  0.4171  0.2164  0.8425
  761MOL0     O 2647   7.449   8.978   5.414  0.1310 -0.5334  0.1888
  761MOL0     C 2648   7.234   8.975   5.581 -0.2204 -0.4111  0.0039
  761MOL0     C 2649   7.122   8.980   5.662  0.2391 -0.7109 -0.8902
  761MOL0     N 2650   6.455   9.152   5.912 -0.0468  0.0358  1.0170
  761MOL0     N 2651   6.388   9.127   5.800  0.8688  0.5688 -0.0067
  761MOL0     C 2652   5.608   9.082   5.119  0.0222  0.4720 -0.1191
  761MOL0     C 2653   5.482   9.081   5.054 -0.4845  0.8663  0.0320
  761MOL0     C 2654   5.023   9.048   5.011 -1.3091 -0.7672 -0.1720
  761MOL0     C 2655   4.911   8.972   5.059  0.1534  0.4233  0.2051
  761MOL0     C 2656   4.788   9.001   5.014 -0.6919 -0.3700 -0.3134
  761MOL0     C 2657   4.756   9.108   4.933 -0.5373  0.6245  0.0375
  761MOL0     O 2658   4.625   9.148   4.905 -0.2873  0.8951 -0.6303
  761MOL0     C 2659   4.578   9.148   4.775 -1.0247 -0.2642 -0.0254
  761MOL0     C 2660   4.438   9.125   4.763  0.1341  0.2546 -0.4529
  761MOL0     C 2661   4.388   9.178   4.624  0.9405 -0.4448 -0.0877
  761MOL0     C 2662   4.243   9.158   4.609  0.3753 -0.0924 -0.0477
  761MOL0     C 2663   4.161   9.228   4.697  0.9267 -1.0078  1.1369
  761MOL0     C 2664   4.077   9.288   4.767 -0.4078  0.1300  0.2228
  761MOL0     C 2665   4.866   9.176   4.870  0.6168 -0.5917  0.1313
  761MOL0     C 2666   4.993   9.147   4.910 -0.8897  0.3883  0.0837
  761MOL0     C 2667   5.109   9.222   4.841 -0.6698  0.1427  0.6927
  761MOL0     H 2668   5.292   9.159   5.325  0.5783 -1.3077  0.9418
  761MOL0     H 2669   5.507   9.131   5.437  3.8338  0.1069  0.0573
  761MOL0     H 2670   5.749   9.233   5.466 -3.7460  0.0077 -1.5322
  761MOL0     H 2671   5.712   9.068   5.510  1.0109 -1.1612 -0.0597
  761MOL0     H 2672   5.954   9.191   5.518 -0.9417 -1.0497  2.7598
  761MOL0     H 2673   5.975   9.106   5.367  1.3341 -2.3371 -0.1468
  761MOL0     H 2674   5.906   8.881   5.465 -1.0928 -1.1315  0.9437
  761MOL0     H 2675   5.852   8.970   5.612 -1.1383  1.2728 -1.3473
  761MOL0     H 2676   6.116   8.939   5.496 -2.3621  0.2220 -1.5015
  761MOL0     H 2677   6.074   9.038   5.648 -0.2949 -0.4491  1.1061
  761MOL0     H 2678   6.005   8.821   5.762 -0.7374  3.2879 -0.7798
  761MOL0     H 2679   6.054   8.731   5.611 -2.0422 -0.3115  0.7536
  761MOL0     H 2680   6.207   8.878   5.823  0.6282  0.3248 -0.1234
  761MOL0     H 2681   6.191   8.702   5.804 -1.5672 -0.8722  0.3377
  761MOL0     H 2682   6.297   8.765   5.560  0.6417  1.9033 -0.3020
  761MOL0     H 2683   6.403   8.742   5.702  0.8689  1.6000 -0.3913
  761MOL0     H 2684   6.469   8.929   5.586  0.4729 -4.0914  0.0873
  761MOL0     H 2685   6.301   9.001   5.596 -0.8256 -1.4721 -0.9485
  761MOL0     H 2686   6.569   8.853   5.840  2.2502  1.8260  0.9532
  761MOL0     H 2687   6.610   9.127   6.139  1.3548 -2.6246  3.4418
  761MOL0     H 2688   6.624   8.959   6.128 -0.3822  0.9144  0.4892
  761MOL0     H 2689   6.836   9.072   6.111  0.4812 -1.3216  0.0844
  761MOL0     H 2690   6.803   8.969   5.972 -1.9972  0.2605 -1.1614
  761MOL0     H 2691   6.748   9.251   5.970  0.9734 -1.3486  0.8251
  761MOL0     H 2692   6.749   9.144   5.830  1.5323 -2.6385 -0.5266
  761MOL0     H 2693   7.006   9.235   5.976 -0.8170 -1.7323  0.3451
  761MOL0     H 2694   6.972   9.266   5.814  1.0130 -3.1720 -2.9369
  761MOL0     H 2695   7.221   9.253   5.847  0.5568 -1.6541  1.0543
  761MOL0     H 2696   7.397   9.244   5.710  0.4447  0.6974 -1.0817
  761MOL0     H 2697   7.613   9.241   5.367  1.4737  0.8266 -1.2817
  761MOL0     H 2698   7.829   9.312   5.275 -1.7212 -1.8663 -2.8220
  761MOL0     H 2699   8.043   9.208   5.106 -4.9471 -0.5076  1.7275
  761MOL0     H 2700   8.012   9.330   5.217  2.9564  2.3420 -1.3324
  761MOL0     H 2701   8.284   9.287   5.277  1.2426  1.9615 -0.7448
  761MOL0     H 2702   8.281   9.216   5.127  0.9723  0.0828  0.5006
  761MOL0     H 2703   8.189   9.407   5.006  0.4346 -1.0564  0.3126
  761MOL0     H 2704   8.173   9.498   5.157 -0.5282 -0.7651  2.0008
  761MOL0     H 2705   8.429   9.409   5.029  1.7942  0.4637  1.3467
  761MOL0     H 2706   8.418   9.454   5.199  1.2394 -0.1241 -0.2082
  761MOL0     H 2707   8.468   9.661   5.079 -0.7466  1.2013  3.0570
  761MOL0     H 2708   8.302   9.667   5.142 -1.2031 -2.1612  1.0518
  761MOL0     H 2709   8.382   9.573   4.865  1.9480  0.2992  1.3467
  761MOL0     H 2710   8.224   9.598   4.922  1.5162 -2.8574  0.0758
  761MOL0     H 2711   8.319   9.766   4.769 -0.5411  0.9236 -0.0852
  761MOL0     H 2712   8.438   9.808   4.896 -0.7963  1.7338  2.0749
  761MOL0     H 2713   8.256   9.879   5.042  2.0089  0.7990 -0.5709
  761MOL0     H 2714   8.276   9.979   4.904 -2.5146  1.6285  0.9527
  761MOL0     H 2715   8.015   8.997   5.519 -0.6029 -0.8037  0.3218
  761MOL0     H 2716   7.805   8.952   5.618  1.7309  0.2523  1.0399
  761MOL0     H 2717   7.240   8.884   5.521  0.9436 -0.5402  0.2934
  761MOL0     H 2718   7.038   8.917   5.632  2.1664 -2.6807 -2.4725
  761MOL0     H 2719   5.701   9.079   5.063 -0.2577  4.9653 -1.1919
  761MOL0     H 2720   5.463   9.067   4.948 -0.9727 -0.3154  0.2564
  761MOL0     H 2721   4.937   8.897   5.133  1.2654 -0.6205 -1.1818
  761MOL0     H 2722   4.708   8.943   5.058 -0.9015 -0.6463 -1.0389
  761MOL0     H 2723   4.614   9.060   4.721  1.8323  0.1064  1.0625
  761MOL0     H 2724   4.607   9.239   4.721 -0.1451 -0.1128  0.6734
  761MOL0     H 2725   4.383   9.172   4.845  2.0811  0.5838  0.7513
  761MOL0     H 2726   4.430   9.017   4.778 -0.6681  0.2416 -0.9314
  761MOL0     H 2727   4.440   9.123   4.546 -3.5255 -0.8657 -3.1719
  761MOL0     H 2728   4.402   9.286   4.612  1.3041 -0.6262 -1.4549
  761MOL0     H 2729   4.218   9.190   4.508 -0.7039  4.2048  1.3795
  761MOL0     H 2730   4.212   9.056   4.633 -0.7939  0.2732  0.0514
  761MOL0     H 2731   4.004   9.348   4.818 -0.0267 -1.6006  3.0052
  761MOL0     H 2732   4.845   9.251   4.795  0.5016 -0.7977 -0.0438
  761MOL0     H 2733   5.185   9.155   4.801  2.1752  2.6925  1.4820
  761MOL0     H 2734   5.076   9.285   4.758 -1.0280  1.0821  1.5325
  761MOL0     H 2735   5.165   9.287   4.908  1.1021  1.7489 -2.1272
  762MOL0     O 2736   9.530   9.693   3.846 -0.3763  0.0051  0.2163
  762MOL0     C 2737   9.465   9.598   3.815  1.1204  0.2009 -1.2932
  762MOL0     O 2738   9.418   9.576   3.697  0.2596 -0.8684  0.8317
  762MOL0     C 2739   9.466   9.664   3.599 -0.9070 -0.8350  0.1688
  762MOL0     C 2740   9.513   9.614   3.477  0.4384 -0.0650  0.4728
  762MOL0     C 2741   9.560   9.685   3.375 -0.0566  0.7928  0.0944
  762MOL0     C 2742   9.568   9.826   3.376  0.5698  0.4697  0.5144
  762MOL0     O 2743   9.631   9.915   3.288  0.6351  0.6337 -0.4006
  762MOL0     C 2744   9.684   9.869   3.163  0.3219  1.7304  0.4790
  762MOL0     C 2745   9.730   9.996   3.077 -0.3273  0.4164 -0.0743
  762MOL0     C 2746   9.861  10.040   3.136 -0.3329  0.4276  0.8942
  762MOL0     C 2747   9.893  10.184   3.102  0.0684 -0.1209  0.1092
  762MOL0     C 2748   9.918  10.192   2.950  0.4386  0.0826 -0.0533
  762MOL0     C 2749   9.928  10.336   2.889  0.4240 -0.3437  0.1801
  762MOL0     C 2750  10.054  10.395   2.943 -0.0606 -0.6773 -0.2483
  762MOL0     C 2751  10.062  10.547   2.899 -0.1590 -0.6557 -0.2366
  762MOL0     N 2752  10.021  10.600   2.764 -0.8387 -0.0362 -0.3101
  762MOL0     C 2753  10.111  10.623   2.663  0.2431  0.3796 -0.4595
  762MOL0     C 2754  10.029  10.644   2.560  0.1004 -0.4020  0.4030
  762MOL0     C 2755  10.101  10.642   2.424  0.6864 -0.1640  0.7985
  762MOL0     C 2756  10.000  10.604   2.309  0.3384  0.2149 -0.5064
  762MOL0     C 2757  10.049  10.634   2.173  0.1941 -0.3053 -0.8311
  762MOL0     C 2758  10.166  10.563   2.129 -0.2837 -0.6658  0.2206
  762MOL0     O 2759  10.138  10.428   2.109  0.2544  0.1029  0.3229
  762MOL0     C 2760  10.221  10.326   2.074 -0.2565  0.0065  0.2852
  762MOL0     C 2761  10.345  10.351   2.022  0.0706  0.3565  0.0376
  762MOL0     C 2762  10.426  10.247   1.973  0.0073 -0.0421  0.0389
  762MOL0     C 2763  10.385  10.110   1.979 -0.5709 -0.3205 -0.4329
  762MOL0     C 2764  10.476  10.015   1.924 -0.2449 -0.0269  0.2068
  762MOL0     O 2765  10.456   9.883   1.970  0.1668 -0.5085 -0.1211
  762MOL0     C 2766  10.539   9.796   1.907 -0.3148  0.3255  0.0112
  762MOL0     C 2767  10.492   9.746   1.789 -0.1481 -0.4969  0.5012
  762MOL0     C 2768  10.565   9.654   1.713  0.8201 -0.1943 -0.0319
  762MOL0     C 2769  10.690   9.616   1.763  0.5472 -0.9478  0.3833
  762MOL0     O 2770  10.767   9.543   1.676 -0.4425 -1.1704 -0.8636
  762MOL0     C 2771  10.897   9.598   1.646  0.2199  0.6513  0.6201
  762MOL0     C 2772  10.954   9.536   1.519 -0.4855 -0.1346  0.6837
  762MOL0     C 2773  11.093   9.563   1.496  0.8941 -0.4083  0.3426
  762MOL0     C 2774  11.192   9.485   1.582 -0.6532 -0.1730 -0.5012
  762MOL0     C 2775  11.329   9.550   1.580  1.0279  0.3454 -0.6762
  762MOL0     C 2776  11.333   9.691   1.646  0.8194  0.8046  1.0307
  762MOL0     C 2777  11.477   9.732   1.682 -0.0813 -0.6234  0.2968
  762MOL0     C 2778  11.511   9.880   1.666  0.7747 -0.5200  0.1469
  762MOL0    Cl 2779  11.417   9.981   1.780 -0.0661  0.3816 -0.4379
  762MOL0     C 2780  10.740   9.672   1.881  0.5782 -0.0196 -0.0176
  762MOL0     C 2781  10.666   9.761   1.960 -0.4532  0.3373  0.6009
  762MOL0     O 2782  10.572  10.052   1.849  0.2970 -0.0342 -0.4706
  762MOL0     C 2783  10.254  10.086   2.031 -0.1381 -0.5376 -0.0480
  762MOL0     C 2784  10.172  10.190   2.089 -0.0464 -0.3673 -0.0898
  762MOL0     N 2785   9.900  10.645   2.590  0.0671  0.2595 -0.3840
  762MOL0     N 2786   9.897  10.621   2.719 -0.5576 -0.0181 -0.1296
  762MOL0     C 2787   9.504   9.883   3.494 -0.2745 -0.7258  0.6432
  762MOL0     C 2788   9.447   9.803   3.596 -0.5730 -0.7186  0.2887
  762MOL0     C 2789   9.420   9.509   3.932 -0.5651  0.1415 -0.3775
  762MOL0     C 2790   9.489   9.495   4.057  0.5798 -0.3325  0.3372
  762MOL0     C 2791   9.439   9.419   4.161  0.0043  0.2592  0.5575
  762MOL0     C 2792   9.326   9.339   4.159 -0.4138 -0.3377  0.5852
  762MOL0     O 2793   9.269   9.260   4.259  0.1711  0.3740 -0.0456
  762MOL0     C 2794   9.275   9.309   4.393  0.0527 -0.3941  0.3217
  762MOL0     C 2795   9.212   9.209   4.493 -0.9099  1.0521  0.1994
  762MOL0     C 2796   9.253   9.241   4.638 -0.1652 -0.2681 -0.7594
  762MOL0     C 2797   9.384   9.192   4.682 -0.6393  0.4324  0.5351
  762MOL0     C 2798   9.435   9.273   4.793 -0.0646  0.5315  0.3151
  762MOL0     C 2799   9.471   9.323   4.896  0.5593  0.6129  0.4483
  762MOL0     C 2800   9.254   9.358   4.040  0.1951  0.9417 -0.3398
  762MOL0     C 2801   9.298   9.430   3.932 -0.2193 -0.2281  0.1122
  762MOL0     C 2802   9.195   9.412   3.826 -0.1472  0.2055 -0.2126
  762MOL0     H 2803   9.525   9.507   3.463  2.2275  0.1783 -0.1680
  762MOL0     H 2804   9.603   9.620   3.300  0.3442 -2.5586  2.9976
  762MOL0     H 2805   9.760   9.791   3.170 -1.9552 -0.7429 -0.2292
  762MOL0     H 2806   9.600   9.833   3.103 -1.9117  4.2745  1.8616
  762MOL0     H 2807   9.647  10.067   3.071 -2.2152 -1.1500  3.8758
  762MOL0     H 2808   9.759   9.961   2.978 -0.7846 -1.4874  0.4163
  762MOL0     H 2809   9.940   9.971   3.105 -1.3551 -1.8310  3.0365
  762MOL0     H 2810   9.848  10.044   3.244 -0.7231 -2.9820  1.0910
  762MOL0     H 2811   9.812  10.248   3.138  0.3528  1.0555 -1.2557
  762MOL0     H 2812   9.983  10.217   3.155  1.0804  0.8677 -2.0990
  762MOL0     H 2813  10.006  10.130   2.926 -0.4323 -0.6386 -1.5368
  762MOL0     H 2814   9.847  10.133   2.891  2.6878 -0.7683 -2.1270
  762MOL0     H 2815   9.940  10.316   2.782  0.9840 -0.3794  0.2438
  762MOL0     H 2816   9.842  10.398   2.916  0.6375 -1.1632  3.1434
  762MOL0     H 2817  10.145  10.351   2.900  0.7485  1.4785 -0.8567
  762MOL0     H 2818  10.053  10.396   3.053 -0.5168 -3.3568 -0.1629
  762MOL0     H 2819  10.005  10.600   2.975  0.5798  0.5387 -0.4846
  762MOL0     H 2820  10.168  10.569   2.914 -0.4413  0.2388  0.5163
  762MOL0     H 2821  10.218  10.610   2.663  0.2186 -0.6063  2.2946
  762MOL0     H 2822  10.149  10.739   2.409 -1.0340  0.5787 -0.2336
  762MOL0     H 2823  10.181  10.568   2.426  0.1765 -0.7241  0.9173
  762MOL0     H 2824   9.971  10.498   2.310 -0.0961  0.3318  0.4743
  762MOL0     H 2825   9.908  10.660   2.330 -0.7289 -1.7296  0.3907
  762MOL0     H 2826  10.057  10.743   2.169 -2.8285 -0.0263 -1.8633
  762MOL0     H 2827   9.971  10.622   2.096 -1.5760  2.8610  0.2752
  762MOL0     H 2828  10.253  10.576   2.194  0.0912  0.2249 -0.4345
  762MOL0     H 2829  10.190  10.599   2.029 -1.9769 -0.4630 -0.1394
  762MOL0     H 2830  10.379  10.454   2.017 -1.5993  0.8610 -2.9905
  762MOL0     H 2831  10.518  10.276   1.923  0.7106 -0.9629  0.7495
  762MOL0     H 2832  10.395   9.770   1.745  1.0594  0.4537 -1.7815
  762MOL0     H 2833  10.526   9.616   1.619  0.3410 -1.9743  0.8436
  762MOL0     H 2834  10.902   9.706   1.634  1.6920  0.3222 -2.6793
  762MOL0     H 2835  10.966   9.569   1.727  3.5720  1.0266 -1.8685
  762MOL0     H 2836  10.934   9.428   1.519  0.0761 -0.2599 -0.8906
  762MOL0     H 2837  10.904   9.584   1.434 -1.8187  1.0730  2.0718
  762MOL0     H 2838  11.125   9.561   1.392 -0.1234 -0.2814  0.0216
  762MOL0     H 2839  11.098   9.670   1.518 -1.4010 -0.1997  0.0399
  762MOL0     H 2840  11.205   9.388   1.533  0.4836  0.6833 -1.9864
  762MOL0     H 2841  11.163   9.472   1.687  4.0540 -2.6544  0.8305
  762MOL0     H 2842  11.358   9.549   1.474  3.1563 -3.0246 -0.2360
  762MOL0     H 2843  11.397   9.486   1.638  0.8987  0.8397  0.0242
  762MOL0     H 2844  11.298   9.762   1.571 -3.1531  0.7179  2.5449
  762MOL0     H 2845  11.261   9.697   1.729  1.1580 -0.8283  1.4835
  762MOL0     H 2846  11.551   9.680   1.620  0.5888 -1.6994  1.9123
  762MOL0     H 2847  11.501   9.707   1.786 -1.3236  0.0552  0.7662
  762MOL0     H 2848  11.618   9.898   1.686  1.6122 -4.9679  0.6719
  762MOL0     H 2849  11.491   9.916   1.565  5.1049  2.9646  0.2009
  762MOL0     H 2850  10.836   9.645   1.925  0.9138  0.4389 -0.4591
  762MOL0     H 2851  10.698   9.799   2.057  3.2259 -2.1354  0.5657
  762MOL0     H 2852  10.216   9.987   2.051 -1.1919  0.1342  1.4523
  762MOL0     H 2853  10.079  10.162   2.138  0.5977  0.0456  1.4378
  762MOL0     H 2854   9.502   9.991   3.497 -1.3536 -0.6515 -1.2002
  762MOL0     H 2855   9.393   9.847   3.679 -1.2818 -3.0891  1.1730
  762MOL0     H 2856   9.585   9.546   4.053 -0.3607  1.4739  0.2087
  762MOL0     H 2857   9.501   9.415   4.250  0.8683 -0.0762 -0.0499
  762MOL0     H 2858   9.211   9.398   4.390 -0.6049 -0.7425  2.2543
  762MOL0     H 2859   9.378   9.334   4.420  0.2878  3.9318 -3.4235
  762MOL0     H 2860   9.241   9.108   4.463  1.1588  1.5641  0.2966
  762MOL0     H 2861   9.104   9.216   4.483 -0.9722  0.7585  0.6122
  762MOL0     H 2862   9.177   9.189   4.699 -0.7116  2.2004  0.7954
  762MOL0     H 2863   9.247   9.348   4.657  0.0681 -0.0785 -1.7148
  762MOL0     H 2864   9.380   9.086   4.709  3.1804  0.5680  2.3672
  762MOL0     H 2865   9.448   9.194   4.593  0.6051 -1.4985  1.3027
  762MOL0     H 2866   9.500   9.355   4.993 -1.7468  3.8546  0.2272
  762MOL0     H 2867   9.164   9.297   4.032 -2.0846  4.1133 -1.0364
  762MOL0     H 2868   9.095   9.395   3.866 -0.9260  2.0214 -1.2457
  762MOL0     H 2869   9.196   9.495   3.754  0.9944 -0.8519 -1.4670
  762MOL0     H 2870   9.226   9.328   3.763  1.2786  0.6236 -0.1066
  763MOL0     O 2871   7.983  11.055   6.447 -0.0430 -0.1330 -0.1395
  763MOL0     C 2872   8.087  11.123   6.441  1.2806 -0.4962 -0.3944
  763MOL0     O 2873   8.101  11.241   6.502  0.6863 -0.3599 -0.2994
  763MOL0     C 2874   8.012  11.309   6.584  0.2338 -0.3981  0.1468
  763MOL0     C 2875   8.064  11.420   6.658  0.6306 -0.5369  0.1407
  763MOL0     C 2876   7.970  11.497   6.729  0.3632  0.1409 -0.4319
  763MOL0     C 2877   7.831  11.469   6.729  0.5111  1.6158 -0.8987
  763MOL0     O 2878   7.758  11.560   6.792 -0.0185  0.0460  0.2444
  763MOL0     C 2879   7.629  11.524   6.839  0.5119  0.2737 -0.1461
  763MOL0     C 2880   7.583  11.635   6.925  0.4063 -0.9382  0.3142
  763MOL0     C 2881   7.433  11.643   6.963 -0.7171 -0.4455 -0.2733
  763MOL0     C 2882   7.395  11.534   7.075 -0.1456 -0.6190 -0.0740
  763MOL0     C 2883   7.248  11.559   7.122  0.2262  0.1749  0.1720
  763MOL0     C 2884   7.147  11.530   7.016  0.3779 -0.3158  0.4224
  763MOL0     C 2885   7.009  11.574   7.077  0.3807  0.0030 -0.4143
  763MOL0     C 2886   6.979  11.718   7.077 -0.5126  0.0741 -0.1857
  763MOL0     N 2887   6.845  11.739   7.110  0.2206  0.2616 -0.1308
  763MOL0     C 2888   6.741  11.726   7.025  0.1769  0.0563 -0.2541
  763MOL0     C 2889   6.640  11.799   7.091  0.0055 -0.6156  0.6160
  763MOL0     C 2890   6.498  11.793   7.035 -0.5163 -1.3966 -0.1624
  763MOL0     C 2891   6.467  11.903   6.943 -0.3166  0.7686  0.1642
  763MOL0     C 2892   6.317  11.899   6.894 -0.3578  0.4920 -0.4204
  763MOL0     C 2893   6.306  11.777   6.806  0.9384  0.1058  0.2825
  763MOL0     O 2894   6.251  11.830   6.677 -0.3786  0.5038 -0.1996
  763MOL0     C 2895   6.118  11.834   6.666  0.2131 -0.5965 -0.2996
  763MOL0     C 2896   6.073  11.929   6.568 -0.4826  0.2204 -0.2705
  763MOL0     C 2897   5.936  11.953   6.567 -0.2037  0.3667  0.2110
  763MOL0     C 2898   5.841  11.878   6.638 -0.9948  0.3963  0.1812
  763MOL0     C 2899   5.703  11.906   6.630  0.0314 -0.0603  0.2041
  763MOL0     O 2900   5.623  11.845   6.712 -0.4562  0.2802 -0.0863
  763MOL0     C 2901   5.487  11.863   6.695 -0.1911 -0.5801  0.7702
  763MOL0     C 2902   5.404  11.936   6.776  0.5980 -0.4751  0.6837
  763MOL0     C 2903   5.266  11.942   6.756  0.3192 -0.2917  0.0144
  763MOL0     C 2904   5.205  11.870   6.653  0.4516  0.3220 -0.3965
  763MOL0     O 2905   5.074  11.883   6.629  0.0562  0.0110  0.1652
  763MOL0     C 2906   5.004  11.768   6.673  0.5798 -0.1405  0.0687
  763MOL0     C 2907   4.857  11.786   6.654  0.1547  0.0320  0.3837
  763MOL0     C 2908   4.817  11.780   6.509 -0.2111  0.5887 -0.6069
  763MOL0     C 2909   4.663  11.797   6.489 -0.7371  0.3907  0.6776
  763MOL0     C 2910   4.622  11.811   6.349  0.2619 -0.5456  0.0517
  763MOL0     C 2911   4.471  11.820   6.313 -0.1042 -0.4815  0.7182
  763MOL0     C 2912   4.466  11.867   6.159 -0.1474  0.0849  0.0944
  763MOL0     C 2913   4.441  11.754   6.066 -0.6321 -0.0419  0.0947
  763MOL0    Cl 2914   4.275  11.693   6.060 -0.2133 -0.7157 -0.0669
  763MOL0     C 2915   5.292  11.791   6.567 -0.5541 -0.0842  0.2852
  763MOL0     C 2916   5.426  11.788   6.594 -0.2842 -1.9638 -0.3745
  763MOL0     O 2917   5.666  11.996   6.552 -0.6475  0.1331 -0.0083
  763MOL0     C 2918   5.888  11.789   6.720  0.0358  0.5417  0.0331
  763MOL0     C 2919   6.027  11.764   6.741 -0.3506 -0.3008  0.1065
  763MOL0     N 2920   6.686  11.856   7.209 -0.2296 -1.1729 -0.0424
  763MOL0     N 2921   6.806  11.802   7.228 -0.6359  0.0848  0.5884
  763MOL0     C 2922   7.781  11.355   6.657  0.0048 -0.7981  0.2558
  763MOL0     C 2923   7.870  11.276   6.585  0.3904 -0.4906  0.3776
  763MOL0     C 2924   8.207  11.072   6.383 -0.6904 -0.8552 -0.0028
  763MOL0     C 2925   8.330  11.146   6.404 -0.1218 -0.4177 -0.0283
  763MOL0     C 2926   8.452  11.111   6.360 -0.6863  0.1998  0.8205
  763MOL0     C 2927   8.470  10.994   6.280 -0.0227 -0.8434 -0.3796
  763MOL0     O 2928   8.581  10.964   6.210 -0.2631 -0.1428 -0.3093
  763MOL0     C 2929   8.686  11.065   6.200 -0.1289  0.0225 -0.4558
  763MOL0     C 2930   8.774  11.029   6.075  0.9487 -0.6068  0.3231
  763MOL0     C 2931   8.881  10.919   6.116  0.0056 -0.2793  0.2323
  763MOL0     C 2932   8.989  10.882   6.004  0.3019 -0.0610 -0.2311
  763MOL0     C 2933   9.062  10.998   5.946 -0.3528  0.8020 -0.2242
  763MOL0     C 2934   9.134  11.079   5.906  0.8339  0.1755  0.4590
  763MOL0     C 2935   8.352  10.922   6.252 -0.2957  0.0258  0.2519
  763MOL0     C 2936   8.222  10.953   6.306  0.4631 -0.8529  0.3966
  763MOL0     C 2937   8.108  10.861   6.259  0.7366  0.4931 -0.0066
  763MOL0     H 2938   8.170  11.444   6.653  0.4719  0.0089 -0.7297
  763MOL0     H 2939   8.010  11.588   6.775  1.9980  0.3257 -2.0897
  763MOL0     H 2940   7.560  11.518   6.754  0.6939 -3.3722 -0.2277
  763MOL0     H 2941   7.624  11.433   6.900  1.2869  0.1171 -0.2991
  763MOL0     H 2942   7.611  11.721   6.863 -0.4582 -2.3268 -2.1020
  763MOL0     H 2943   7.644  11.636   7.016 -0.1569 -0.5096  0.6950
  763MOL0     H 2944   7.363  11.651   6.880  0.1424  6.2519 -0.9350
  763MOL0     H 2945   7.417  11.744   7.003 -0.4916 -0.4809 -0.0893
  763MOL0     H 2946   7.408  11.430   7.045 -1.5550 -1.0361  0.6540
  763MOL0     H 2947   7.457  11.549   7.163  2.8679 -0.8294 -2.0190
  763MOL0     H 2948   7.227  11.489   7.203 -2.8185 -0.4545 -1.0169
  763MOL0     H 2949   7.241  11.666   7.145 -1.6759  0.8941 -3.0684
  763MOL0     H 2950   7.155  11.580   6.919 -1.9395  1.8928  1.2645
  763MOL0     H 2951   7.134  11.424   6.991 -0.5274 -0.2263  0.4806
  763MOL0     H 2952   7.011  11.541   7.182  2.0193 -1.4987 -0.8566
  763MOL0     H 2953   6.939  11.518   7.015  1.6686 -1.6698 -0.4427
  763MOL0     H 2954   7.040  11.772   7.150  0.7528 -1.6760  0.1355
  763MOL0     H 2955   6.994  11.761   6.977 -1.6571 -0.7238 -0.7231
  763MOL0     H 2956   6.732  11.686   6.925  1.6856  1.8183 -1.1637
  763MOL0     H 2957   6.480  11.696   6.986  0.1518 -0.8434 -1.5578
  763MOL0     H 2958   6.424  11.794   7.115 -0.6590 -0.6686 -0.2957
  763MOL0     H 2959   6.483  11.997   6.997 -0.5438  0.5477  0.6185
  763MOL0     H 2960   6.538  11.908   6.860  0.8065  0.2802  1.0726
  763MOL0     H 2961   6.307  11.986   6.829 -0.6997  1.2240  0.5907
  763MOL0     H 2962   6.244  11.905   6.975 -1.3542  0.3361 -1.2868
  763MOL0     H 2963   6.251  11.702   6.864 -1.6830  0.6209 -1.3646
  763MOL0     H 2964   6.406  11.739   6.783 -0.1385 -2.8049 -0.1242
  763MOL0     H 2965   6.143  11.986   6.507 -2.3357  3.3846  0.3376
  763MOL0     H 2966   5.910  12.029   6.495 -0.8226 -1.4997 -1.6437
  763MOL0     H 2967   5.446  11.990   6.860 -0.4831  1.5528 -0.0252
  763MOL0     H 2968   5.193  11.992   6.819 -1.4094 -2.5340 -0.0836
  763MOL0     H 2969   5.038  11.678   6.620  3.9693  0.7037  0.5457
  763MOL0     H 2970   5.032  11.765   6.779  3.4204  3.0568 -0.4324
  763MOL0     H 2971   4.808  11.700   6.701 -0.8805  0.0395 -0.6477
  763MOL0     H 2972   4.833  11.877   6.710  1.6507  2.3445 -2.4511
  763MOL0     H 2973   4.878  11.846   6.447  2.8878 -2.4466 -1.1164
  763MOL0     H 2974   4.849  11.685   6.466 -2.1360  0.2370 -1.3816
  763MOL0     H 2975   4.625  11.888   6.536  0.7628  0.9507  0.8467
  763MOL0     H 2976   4.609  11.713   6.535  1.4418 -1.5077 -0.0833
  763MOL0     H 2977   4.662  11.733   6.283  2.0232  0.4348 -0.0642
  763MOL0     H 2978   4.665  11.905   6.315 -0.6981  0.2868  1.0492
  763MOL0     H 2979   4.417  11.725   6.323 -1.6223  0.2638  0.0222
  763MOL0     H 2980   4.423  11.892   6.380  1.7855  1.2711  0.2556
  763MOL0     H 2981   4.560  11.914   6.127 -2.2163  3.8909 -0.9838
  763MOL0     H 2982   4.390  11.944   6.142  1.0588  1.4466  0.6571
  763MOL0     H 2983   4.456  11.798   5.967  1.3613 -2.7688 -0.9221
  763MOL0     H 2984   4.517  11.677   6.077  1.2876  1.6589 -0.6617
  763MOL0     H 2985   5.237  11.733   6.494 -3.4337 -1.7084  3.4583
  763MOL0     H 2986   5.489  11.716   6.542 -0.1413 -1.4878 -0.8680
  763MOL0     H 2987   5.818  11.732   6.780  1.2074  3.2736  4.4684
  763MOL0     H 2988   6.063  11.699   6.820  1.2856  2.8502  2.1476
  763MOL0     H 2989   7.677  11.326   6.657 -0.5683  0.8352 -2.9367
  763MOL0     H 2990   7.828  11.205   6.515  2.6508 -1.1220 -0.4540
  763MOL0     H 2991   8.331  11.238   6.462  1.5246 -0.3197 -0.1584
  763MOL0     H 2992   8.538  11.167   6.394 -0.8440  0.8220  0.2203
  763MOL0     H 2993   8.743  11.073   6.292  1.4936 -1.0774 -1.3174
  763MOL0     H 2994   8.633  11.159   6.182 -2.6021 -1.3240 -0.5918
  763MOL0     H 2995   8.829  11.118   6.045 -0.3403 -0.4050 -1.6276
  763MOL0     H 2996   8.706  11.002   5.994  1.6105 -0.1843 -0.3843
  763MOL0     H 2997   8.834  10.824   6.142 -1.5169 -0.8076 -3.7092
  763MOL0     H 2998   8.940  10.946   6.204 -0.3055 -1.3864  0.7960
  763MOL0     H 2999   9.063  10.820   6.056  2.3189 -0.9456 -3.7747
  763MOL0     H 3000   8.944  10.824   5.923 -1.2542 -0.7837  1.1135
  763MOL0     H 3001   9.201  11.149   5.860  0.3826 -1.4336 -2.9292
  763MOL0     H 3002   8.362  10.839   6.182  1.0110 -1.7278  2.4072
  763MOL0     H 3003   8.148  10.775   6.205  0.0464 -1.0552  1.8423
  763MOL0     H 3004   8.063  10.821   6.350  3.3799  0.1771  1.2426
  763MOL0     H 3005   8.028  10.909   6.201  0.8755 -1.2299 -1.7418
  764MOL0     O 3006   9.783   7.983   1.100 -0.9740  0.2764 -0.1334
  764MOL0     C 3007   9.714   7.926   1.180  0.2970  0.4628  0.3054
  764MOL0     O 3008   9.575   7.912   1.168 -0.3908  0.4875  0.0774
  764MOL0     C 3009   9.513   7.993   1.084 -1.1763  0.1407 -0.5245
  764MOL0     C 3010   9.457   8.104   1.146  0.0718  0.4436 -1.0490
  764MOL0     C 3011   9.394   8.204   1.069  0.4305 -1.0199 -0.5393
  764MOL0     C 3012   9.393   8.192   0.927  0.1438  0.1405  0.4871
  764MOL0     O 3013   9.323   8.293   0.862 -0.2706  0.2490 -0.3870
  764MOL0     C 3014   9.293   8.274   0.728  0.5386  0.2583 -0.7573
  764MOL0     C 3015   9.247   8.393   0.643  1.0369 -0.0189 -0.5245
  764MOL0     C 3016   9.329   8.523   0.670 -0.1803 -0.0419 -1.1088
  764MOL0     C 3017   9.255   8.648   0.614 -0.1141  0.3659  0.1655
  764MOL0     C 3018   9.332   8.776   0.619  0.2539  0.9978 -0.4201
  764MOL0     C 3019   9.452   8.795   0.521 -0.4030 -0.2610 -0.7045
  764MOL0     C 3020   9.589   8.833   0.584  0.6789 -0.1787 -0.2034
  764MOL0     C 3021   9.678   8.714   0.584 -0.1648  0.8522 -0.3744
  764MOL0     N 3022   9.813   8.739   0.640  0.0388 -0.9490 -0.0226
  764MOL0     C 3023   9.923   8.687   0.578 -0.0691 -0.0426  0.8068
  764MOL0     C 3024  10.026   8.702   0.663 -0.0008  0.3962  0.2481
  764MOL0     C 3025  10.168   8.648   0.639 -0.5219  0.2970  0.2169
  764MOL0     C 3026  10.230   8.680   0.509 -0.0347 -0.9062  0.5617
  764MOL0     C 3027  10.199   8.578   0.397 -0.7377 -0.1852 -0.8057
  764MOL0     C 3028  10.259   8.631   0.258  0.0163  0.0749  0.1322
  764MOL0     O 3029  10.190   8.747   0.206 -0.2253 -0.2235 -0.3847
  764MOL0     C 3030  10.056   8.748   0.204  0.2194 -0.3729  0.1852
  764MOL0     C 3031   9.972   8.636   0.159  0.2493  0.2189  0.2915
  764MOL0     C 3032   9.828   8.641   0.145 -0.3527 -0.4707  0.1827
  764MOL0     C 3033   9.759   8.767   0.166  0.9906 -0.9702  0.1359
  764MOL0     C 3034   9.616   8.784   0.145  0.4779 -0.7257  0.3148
  764MOL0     O 3035   9.559   8.910   0.162  0.8930  0.1692  0.7132
  764MOL0     C 3036   9.445   8.944   0.087  0.2280  0.6397 -0.2807
  764MOL0     C 3037   9.449   9.044  -0.009  0.5110 -0.0069  0.4082
  764MOL0     C 3038   9.335   9.074  -0.081 -0.3323 -0.5475  0.2527
  764MOL0     C 3039   9.215   9.011  -0.053 -0.0924  0.1795 -0.4409
  764MOL0     O 3040   9.101   9.024  -0.126  0.2136  0.1664 -0.5785
  764MOL0     C 3041   8.964   9.002  -0.071 -0.5687  0.4430 -0.2420
  764MOL0     C 3042   8.927   8.859  -0.114  0.5904 -0.3282  0.2808
  764MOL0     C 3043   8.956   8.794  -0.250 -0.3064  0.1151  0.8681
  764MOL0     C 3044   8.893   8.875  -0.362 -0.0174 -0.0710  0.1318
  764MOL0     C 3045   8.910   8.801  -0.487  0.2404 -0.7079  1.0374
  764MOL0     C 3046   9.051   8.763  -0.548 -0.2266  0.2838  0.3384
  764MOL0     C 3047   9.122   8.884  -0.594  0.6819  1.0770 -0.1355
  764MOL0     C 3048   9.234   8.849  -0.692  0.7911 -0.2657 -0.1968
  764MOL0    Cl 3049   9.332   8.998  -0.742  0.1930  0.1894  0.4263
  764MOL0     C 3050   9.215   8.921   0.060  0.1016  0.3915  0.1658
  764MOL0     C 3051   9.332   8.878   0.118 -0.2151  0.7259 -1.7393
  764MOL0     O 3052   9.556   8.685   0.096 -1.1233  0.6459 -0.3446
  764MOL0     C 3053   9.834   8.886   0.197 -0.7338 -0.2078 -0.6014
  764MOL0     C 3054   9.979   8.873   0.215  0.1400  0.1995 -0.0584
  764MOL0     N 3055   9.968   8.758   0.770 -0.3662  0.3175  0.2506
  764MOL0     N 3056   9.844   8.782   0.764  0.6652  0.0211 -0.0648
  764MOL0     C 3057   9.446   8.075   0.868 -0.0791 -0.3386  0.4299
  764MOL0     C 3058   9.517   7.980   0.943 -0.0667 -0.3970 -0.9134
  764MOL0     C 3059   9.769   7.844   1.287 -0.0246 -0.4930  0.8447
  764MOL0     C 3060   9.684   7.797   1.381 -0.0753 -0.4517 -0.2450
  764MOL0     C 3061   9.729   7.747   1.498  0.5284 -0.1352  0.1833
  764MOL0     C 3062   9.865   7.733   1.526  0.6233 -1.2146  0.0252
  764MOL0     O 3063   9.914   7.687   1.643  0.2041 -0.1229 -0.1940
  764MOL0     C 3064   9.827   7.667   1.760  0.1301 -0.2467  0.2310
  764MOL0     C 3065   9.769   7.520   1.773 -0.9791 -0.2538 -0.4242
  764MOL0     C 3066   9.668   7.522   1.890 -0.0253 -0.0482  0.8574
  764MOL0     C 3067   9.715   7.575   2.027 -0.6350  0.5191 -0.0661
  764MOL0     C 3068   9.843   7.522   2.073 -0.0664  0.7621  1.0715
  764MOL0     C 3069   9.942   7.453   2.089  0.2027 -0.6696  0.9286
  764MOL0     C 3070   9.957   7.772   1.428  0.5272 -0.5882 -0.2066
  764MOL0     C 3071   9.909   7.831   1.311 -0.1459 -0.2275 -0.0298
  764MOL0     C 3072  10.025   7.873   1.211  0.6501 -0.2829 -0.3355
  764MOL0     H 3073   9.473   8.110   1.253 -1.5144  4.9673 -0.8768
  764MOL0     H 3074   9.364   8.294   1.122  1.4475 -1.1859  0.3585
  764MOL0     H 3075   9.385   8.233   0.683 -0.5570 -1.7970 -1.2892
  764MOL0     H 3076   9.221   8.192   0.721  1.6923 -1.1467  2.0516
  764MOL0     H 3077   9.142   8.414   0.666  1.5426  2.6176 -0.2972
  764MOL0     H 3078   9.246   8.365   0.537  1.0496 -3.0152  0.1874
  764MOL0     H 3079   9.425   8.514   0.619 -0.1971  0.7232 -1.2808
  764MOL0     H 3080   9.345   8.534   0.778  0.4902 -1.7778 -0.9958
  764MOL0     H 3081   9.232   8.632   0.508  1.0832 -1.4890  0.1280
  764MOL0     H 3082   9.163   8.668   0.670  0.9115  1.5626  1.4920
  764MOL0     H 3083   9.261   8.859   0.609 -2.6584 -0.8895  2.5819
  764MOL0     H 3084   9.367   8.777   0.722  0.3575 -3.4447 -0.2254
  764MOL0     H 3085   9.476   8.699   0.473  2.2608 -1.5707  2.7782
  764MOL0     H 3086   9.421   8.862   0.440 -1.2528 -0.6331 -0.7020
  764MOL0     H 3087   9.587   8.878   0.684 -0.7524 -0.0700 -0.2564
  764MOL0     H 3088   9.635   8.915   0.527  1.3002 -0.5345 -0.2271
  764MOL0     H 3089   9.632   8.638   0.648 -2.0058  1.1874 -1.2213
  764MOL0     H 3090   9.693   8.682   0.481  4.6284  0.3725  0.2426
  764MOL0     H 3091   9.931   8.641   0.480 -2.5436 -0.5054  0.7694
  764MOL0     H 3092  10.222   8.709   0.712 -0.3345  1.4614 -0.8613
  764MOL0     H 3093  10.159   8.541   0.659  1.0828  0.5809  3.0229
  764MOL0     H 3094  10.192   8.777   0.474  3.0392  0.2657  0.0751
  764MOL0     H 3095  10.336   8.697   0.531 -0.8810  1.7189  3.2240
  764MOL0     H 3096  10.090   8.575   0.396 -0.7534  0.5883 -2.0027
  764MOL0     H 3097  10.243   8.479   0.416 -0.5138 -0.0140 -0.3958
  764MOL0     H 3098  10.256   8.551   0.183  0.3394 -1.9513  2.1900
  764MOL0     H 3099  10.367   8.644   0.267  0.5325 -2.6528 -1.0705
  764MOL0     H 3100  10.009   8.541   0.122 -2.6706 -0.6807 -0.5896
  764MOL0     H 3101   9.762   8.562   0.113  0.1039  0.3283 -3.0684
  764MOL0     H 3102   9.543   9.095  -0.029 -0.0564  0.0580 -2.6475
  764MOL0     H 3103   9.332   9.136  -0.170 -0.2670 -2.6632 -1.3029
  764MOL0     H 3104   8.962   9.015   0.037 -3.2707 -2.2092  0.1499
  764MOL0     H 3105   8.898   9.074  -0.120 -0.8831  0.4471  0.1842
  764MOL0     H 3106   8.966   8.793  -0.035  4.0309  2.4066  1.1184
  764MOL0     H 3107   8.819   8.852  -0.099  0.7000 -0.9875  0.8373
  764MOL0     H 3108   9.064   8.806  -0.263 -0.4753  0.4604 -0.2924
  764MOL0     H 3109   8.918   8.692  -0.255 -2.4582  0.6273  3.8082
  764MOL0     H 3110   8.927   8.978  -0.366 -1.1465  0.3714  1.2696
  764MOL0     H 3111   8.787   8.889  -0.339  0.7892  3.2839  2.5230
  764MOL0     H 3112   8.864   8.872  -0.557 -1.7263 -0.4844  2.4806
  764MOL0     H 3113   8.854   8.708  -0.486  0.5145 -0.8864  0.2379
  764MOL0     H 3114   9.116   8.707  -0.481  1.1966 -1.2507 -2.1658
  764MOL0     H 3115   9.026   8.702  -0.636  1.6034  2.3757 -1.7762
  764MOL0     H 3116   9.163   8.930  -0.503 -0.7536 -1.6258  2.0022
  764MOL0     H 3117   9.056   8.953  -0.647  0.4348 -0.2280 -1.5773
  764MOL0     H 3118   9.300   8.773  -0.652 -0.2543  0.1085  2.4055
  764MOL0     H 3119   9.198   8.803  -0.785  3.2062 -2.2328 -0.2323
  764MOL0     H 3120   9.123   8.874   0.094  0.4458 -0.9130 -0.6114
  764MOL0     H 3121   9.329   8.810   0.202 -0.1575  3.4288  0.6128
  764MOL0     H 3122   9.788   8.984   0.209  2.1842  1.2483 -0.3946
  764MOL0     H 3123  10.026   8.963   0.253 -0.2496 -0.2521  1.5478
  764MOL0     H 3124   9.445   8.056   0.761  0.7005 -2.3691  0.7411
  764MOL0     H 3125   9.569   7.899   0.894  4.9098  2.5113 -1.0779
  764MOL0     H 3126   9.578   7.816   1.365  0.6605  3.9948 -1.1411
  764MOL0     H 3127   9.651   7.714   1.567  0.1391 -0.1030 -0.2375
  764MOL0     H 3128   9.757   7.744   1.793  2.1055  1.3536  0.9359
  764MOL0     H 3129   9.899   7.675   1.842  0.6623  2.0771 -0.4005
  764MOL0     H 3130   9.860   7.460   1.776  0.4728  1.7915 -0.7224
  764MOL0     H 3131   9.706   7.502   1.685 -0.1287  1.4998 -1.4563
  764MOL0     H 3132   9.632   7.421   1.914  0.7472 -0.2944  1.0113
  764MOL0     H 3133   9.580   7.578   1.859  0.3984 -0.7475 -1.9233
  764MOL0     H 3134   9.728   7.684   2.028  1.6461  0.2954 -0.1823
  764MOL0     H 3135   9.634   7.540   2.092 -1.2036  1.7820 -0.0571
  764MOL0     H 3136  10.030   7.393   2.098  1.4699  1.2225  1.9939
  764MOL0     H 3137  10.062   7.747   1.433 -0.0022 -2.9641  0.2619
  764MOL0     H 3138  10.026   7.969   1.159  0.0754 -1.4080 -2.5499
  764MOL0     H 3139  10.117   7.869   1.270 -0.6082  0.6823  1.7890
  764MOL0     H 3140  10.035   7.788   1.142 -0.5678 -0.9008  0.2370
  765MOL0     O 3141   7.162   1.981   5.432  0.3535  0.1827 -0.3130
  765MOL0     C 3142   7.114   2.070   5.363 -0.5326  0.0155 -0.4200
  765MOL0     O 3143   7.185   2.162   5.289  0.4695  0.8526  0.0973
  765MOL0     C 3144   7.319   2.175   5.299  0.8043  0.4480  0.5069
  765MOL0     C 3145   7.390   2.202   5.177 -0.3691  0.5631 -1.5357
  765MOL0     C 3146   7.534   2.208   5.178 -0.4528  0.0942 -0.6792
  765MOL0     C 3147   7.603   2.196   5.300 -0.2258 -0.5645  0.2909
  765MOL0     O 3148   7.742   2.207   5.301  0.1390  1.0331  0.1506
  765MOL0     C 3149   7.802   2.285   5.407 -0.6733 -0.4809  0.2762
  765MOL0     C 3150   7.914   2.199   5.478  0.1997 -0.8697 -0.5695
  765MOL0     C 3151   7.884   2.057   5.515 -0.7193  0.5347  0.2956
  765MOL0     C 3152   8.004   1.983   5.578 -0.6043  0.3271  0.3931
  765MOL0     C 3153   7.982   1.840   5.617 -0.1244  0.9876 -0.6606
  765MOL0     C 3154   8.110   1.775   5.668 -0.3923 -0.4891  0.5204
  765MOL0     C 3155   8.084   1.631   5.724 -0.7370 -0.0815  1.0736
  765MOL0     C 3156   8.032   1.541   5.619 -0.4491  0.8611 -0.6444
  765MOL0     N 3157   8.021   1.402   5.669 -0.2518  0.6180 -0.0098
  765MOL0     C 3158   7.941   1.357   5.762 -0.8260 -0.1367  0.0596
  765MOL0     C 3159   7.973   1.226   5.786 -0.6350 -0.0495 -0.3190
  765MOL0     C 3160   7.898   1.125   5.877 -0.2513 -0.4424  0.1556
  765MOL0     C 3161   7.984   1.083   5.999 -0.3356  0.9150  0.1864
  765MOL0     C 3162   8.112   1.008   5.960 -0.9367 -0.3744  0.0434
  765MOL0     C 3163   8.085   0.885   5.872  0.2862 -0.3403  0.0258
  765MOL0     O 3164   8.206   0.799   5.876  0.2096  0.2540 -0.1317
  765MOL0     C 3165   8.265   0.766   5.757 -0.1118  0.3319  0.3196
  765MOL0     C 3166   8.231   0.651   5.688  0.2510  0.1735  0.6174
  765MOL0     C 3167   8.278   0.620   5.567 -0.0533 -0.4560  0.7178
  765MOL0     C 3168   8.350   0.719   5.500  0.8270 -0.1540  0.6075
  765MOL0     C 3169   8.371   0.716   5.353  0.5245 -0.2804 -0.7070
  765MOL0     O 3170   8.316   0.622   5.286  0.1728  0.4598 -0.0405
  765MOL0     C 3171   8.383   0.573   5.182 -0.3664 -0.3539 -0.1127
  765MOL0     C 3172   8.525   0.577   5.171 -0.1000  0.2113 -0.2581
  765MOL0     C 3173   8.587   0.545   5.047 -0.5462 -0.0413 -0.4788
  765MOL0     C 3174   8.511   0.512   4.936  0.4993 -0.1342 -0.0592
  765MOL0     O 3175   8.583   0.491   4.816 -0.2837  0.0994  0.0516
  765MOL0     C 3176   8.518   0.506   4.685  0.2240  0.1332 -0.1625
  765MOL0     C 3177   8.591   0.426   4.578 -0.4762  0.6744 -0.5237
  765MOL0     C 3178   8.726   0.485   4.531  0.1821  0.5611 -0.0483
  765MOL0     C 3179   8.788   0.411   4.412  0.1669  0.5764  0.8323
  765MOL0     C 3180   8.917   0.486   4.362 -0.0578 -0.2859 -0.7699
  765MOL0     C 3181   8.989   0.410   4.253 -0.0187 -0.0009 -0.6779
  765MOL0     C 3182   9.109   0.483   4.198 -0.0932 -0.9337 -0.1951
  765MOL0     C 3183   9.200   0.383   4.119  0.3913 -0.0067  0.4345
  765MOL0    Cl 3184   9.313   0.462   4.005 -0.0054 -0.5664 -0.1977
  765MOL0     C 3185   8.368   0.499   4.959  0.4765 -0.2468  0.1311
  765MOL0     C 3186   8.308   0.538   5.078 -0.1962 -0.6888  0.2682
  765MOL0     O 3187   8.451   0.806   5.319  0.1797  0.4728 -0.4581
  765MOL0     C 3188   8.386   0.837   5.569  1.0175  0.8042 -0.4080
  765MOL0     C 3189   8.358   0.850   5.703 -0.0341  0.1491 -0.3753
  765MOL0     N 3190   8.075   1.194   5.703 -0.0191 -0.4770 -0.1718
  765MOL0     N 3191   8.108   1.297   5.630 -0.1841  0.8251  0.1652
  765MOL0     C 3192   7.534   2.187   5.417  0.5785 -0.3835 -1.2646
  765MOL0     C 3193   7.392   2.163   5.416 -0.2169  0.8171 -0.0200
  765MOL0     C 3194   6.974   2.086   5.353 -0.2861 -0.5435  0.6217
  765MOL0     C 3195   6.898   1.979   5.406  0.2472  0.1353  0.3723
  765MOL0     C 3196   6.757   1.991   5.408  0.5957  0.1178  0.9500
  765MOL0     C 3197   6.687   2.098   5.351 -0.2175  0.6640 -1.0265
  765MOL0     O 3198   6.549   2.102   5.362 -0.3909 -0.2959  0.7393
  765MOL0     C 3199   6.481   2.225   5.385 -0.1504 -0.3893  0.8336
  765MOL0     C 3200   6.335   2.206   5.429 -0.5062 -0.6834 -0.7133
  765MOL0     C 3201   6.262   2.117   5.330 -1.3373  1.0567  1.0328
  765MOL0     C 3202   6.116   2.089   5.362 -0.4194  0.2731  0.2450
  765MOL0     C 3203   6.110   2.018   5.486  0.4294  0.1736 -0.0776
  765MOL0     C 3204   6.079   1.948   5.578  0.2599 -0.0603  0.4980
  765MOL0     C 3205   6.765   2.199   5.293 -0.5807 -0.5568  0.7502
  765MOL0     C 3206   6.906   2.200   5.291  0.5306 -0.6055 -0.4970
  765MOL0     C 3207   6.968   2.322   5.232 -0.5716  0.3277 -0.1242
  765MOL0     H 3208   7.337   2.202   5.082 -1.5106 -0.2404 -0.9368
  765MOL0     H 3209   7.586   2.232   5.086  0.5605 -1.3496 -0.5117
  765MOL0     H 3210   7.845   2.377   5.365 -0.2715 -1.4839 -1.6327
  765MOL0     H 3211   7.726   2.324   5.476 -0.0954 -0.1419  0.7329
  765MOL0     H 3212   7.946   2.252   5.569  0.5737  0.4048 -1.4219
  765MOL0     H 3213   7.998   2.217   5.410  1.1177 -1.1409  0.4452
  765MOL0     H 3214   7.850   1.996   5.431 -1.4604  1.1948  0.1048
  765MOL0     H 3215   7.817   2.059   5.601  0.3664 -1.1368  1.2456
  765MOL0     H 3216   8.090   1.990   5.511 -1.3880 -2.1613 -0.9752
  765MOL0     H 3217   8.030   2.034   5.672  0.6573  4.0162 -1.7579
  765MOL0     H 3218   7.919   1.834   5.706  0.4135 -0.8806 -0.3534
  765MOL0     H 3219   7.941   1.775   5.539 -0.4017 -0.4067  0.5851
  765MOL0     H 3220   8.184   1.780   5.588 -0.0517 -2.4446  0.6871
  765MOL0     H 3221   8.153   1.835   5.749 -1.6356  2.9731 -1.1792
  765MOL0     H 3222   8.022   1.624   5.814 -3.4316  1.7723 -0.4993
  765MOL0     H 3223   8.184   1.598   5.755  0.0977 -1.6907 -2.8171
  765MOL0     H 3224   7.931   1.574   5.593 -1.6914 -2.0816  0.0096
  765MOL0     H 3225   8.094   1.546   5.529 -1.7862  1.8572 -1.5569
  765MOL0     H 3226   7.860   1.409   5.811  1.4873  3.7954  0.1543
  765MOL0     H 3227   7.798   1.162   5.898  0.2977  2.5747 -1.9157
  765MOL0     H 3228   7.885   1.034   5.817 -0.5431 -0.1376 -0.2546
  765MOL0     H 3229   8.005   1.174   6.056  1.8959  1.1914 -0.9605
  765MOL0     H 3230   7.930   1.021   6.071  0.9595  2.3464  2.5208
  765MOL0     H 3231   8.165   0.986   6.053  3.9010  2.9341 -1.5115
  765MOL0     H 3232   8.181   1.076   5.908 -0.5839 -0.8067 -0.0591
  765MOL0     H 3233   8.056   0.919   5.772  0.4695 -1.9255 -0.5987
  765MOL0     H 3234   7.997   0.834   5.913  0.2448  1.4764  2.4292
  765MOL0     H 3235   8.147   0.599   5.734  0.9387 -2.9741 -1.3743
  765MOL0     H 3236   8.240   0.533   5.515  0.5043 -0.0393 -0.4252
  765MOL0     H 3237   8.598   0.592   5.250  1.2611  2.8344 -1.8934
  765MOL0     H 3238   8.695   0.539   5.046 -0.1596  4.0338  1.0209
  765MOL0     H 3239   8.424   0.451   4.696  0.0172  0.4444 -0.3459
  765MOL0     H 3240   8.510   0.611   4.652 -0.3814  0.1028 -0.1183
  765MOL0     H 3241   8.601   0.323   4.616 -0.2984  0.1402 -1.9516
  765MOL0     H 3242   8.521   0.424   4.494 -2.0221 -1.1120  0.6867
  765MOL0     H 3243   8.720   0.591   4.502 -1.0444  1.4589  3.0806
  765MOL0     H 3244   8.785   0.493   4.623 -2.8367  4.6470  1.8554
  765MOL0     H 3245   8.707   0.396   4.341  1.1798  0.0086 -0.2531
  765MOL0     H 3246   8.805   0.311   4.453 -0.3200 -1.5637 -3.6599
  765MOL0     H 3247   8.983   0.491   4.448 -0.6686  0.5370 -0.3383
  765MOL0     H 3248   8.892   0.584   4.321  2.6065  0.1405 -1.5931
  765MOL0     H 3249   9.031   0.321   4.301 -0.0226 -0.4318 -1.4548
  765MOL0     H 3250   8.921   0.379   4.174 -0.8777 -0.5976  0.2785
  765MOL0     H 3251   9.172   0.512   4.282  2.9431 -1.4853 -2.1148
  765MOL0     H 3252   9.090   0.566   4.129  3.8937 -1.1497 -1.7770
  765MOL0     H 3253   9.256   0.331   4.197  1.0215  0.2373  0.1599
  765MOL0     H 3254   9.129   0.322   4.062  0.6141 -0.0943  0.2482
  765MOL0     H 3255   8.300   0.482   4.876 -2.1550 -0.5894  2.2233
  765MOL0     H 3256   8.200   0.538   5.093  0.0994  1.2037  3.2075
  765MOL0     H 3257   8.456   0.908   5.527  1.3857  0.7647  0.1293
  765MOL0     H 3258   8.395   0.943   5.746  1.1263  0.2711 -1.5624
  765MOL0     H 3259   7.580   2.172   5.514  0.9064 -1.7584 -1.6159
  765MOL0     H 3260   7.337   2.151   5.509  2.0810  0.2651  1.3668
  765MOL0     H 3261   6.950   1.894   5.450  0.1700  0.9172  2.0598
  765MOL0     H 3262   6.709   1.915   5.469 -0.0571 -0.4238 -0.2165
  765MOL0     H 3263   6.487   2.291   5.298  5.3647 -3.2997 -1.4935
  765MOL0     H 3264   6.545   2.283   5.452 -2.8032  3.4359  0.3371
  765MOL0     H 3265   6.280   2.299   5.446 -0.9075 -1.3903  2.8387
  765MOL0     H 3266   6.346   2.160   5.528 -1.1731  2.4477  0.9770
  765MOL0     H 3267   6.309   2.019   5.330 -2.0415  0.6943 -0.0940
  765MOL0     H 3268   6.261   2.158   5.228  0.4820 -0.4331  0.3740
  765MOL0     H 3269   6.061   2.183   5.364  2.6802  2.2574 -0.9843
  765MOL0     H 3270   6.065   2.030   5.285 -4.6552  0.2566  2.7022
  765MOL0     H 3271   6.078   1.895   5.671 -3.7257 -0.7513  0.2118
  765MOL0     H 3272   6.710   2.280   5.247  1.0186  0.3028  0.2862
  765MOL0     H 3273   7.032   2.310   5.145 -1.2592  2.0422 -0.9209
  765MOL0     H 3274   6.898   2.391   5.183 -1.0135 -1.2817 -1.8892
  765MOL0     H 3275   7.021   2.366   5.318 -1.7540 -1.7420  1.7680
  766MOL0     O 3276   4.228   6.663   9.220  0.4707 -0.7771 -0.8276
  766MOL0     C 3277   4.114   6.672   9.183 -1.1091  0.7741  0.9061
  766MOL0     O 3278   4.077   6.656   9.050  0.0997  0.3126  0.0740
  766MOL0     C 3279   4.168   6.663   8.946  0.9786 -0.7936 -0.8856
  766MOL0     C 3280   4.152   6.585   8.826  0.2544 -0.2332 -0.5958
  766MOL0     C 3281   4.249   6.580   8.721  0.2551  0.1328 -0.1722
  766MOL0     C 3282   4.356   6.671   8.739  0.4689 -0.2335  0.0830
  766MOL0     O 3283   4.447   6.678   8.638 -0.0584 -0.2873 -0.1842
  766MOL0     C 3284   4.573   6.608   8.665  0.0787  0.1840 -0.0716
  766MOL0     C 3285   4.654   6.604   8.536  0.0722  0.6875  0.3360
  766MOL0     C 3286   4.577   6.537   8.429 -0.3112  0.1636 -0.1067
  766MOL0     C 3287   4.658   6.507   8.304  0.5520 -0.8215 -0.4053
  766MOL0     C 3288   4.731   6.632   8.250  0.5728 -0.2840  0.6559
  766MOL0     C 3289   4.818   6.607   8.124  0.0542  0.3876  0.2881
  766MOL0     C 3290   4.935   6.716   8.108 -0.0300  0.0031  0.1075
  766MOL0     C 3291   5.021   6.693   7.983 -0.7345 -0.3428  0.3354
  766MOL0     N 3292   4.959   6.748   7.859  0.2336  0.4114  0.2243
  766MOL0     C 3293   4.893   6.677   7.765  0.2869 -0.6373  0.1558
  766MOL0     C 3294   4.850   6.763   7.672  0.3054 -0.1603 -0.2854
  766MOL0     C 3295   4.756   6.744   7.553  0.6127 -0.5366  0.8010
  766MOL0     C 3296   4.689   6.601   7.543  0.1856  0.1835  0.0313
  766MOL0     C 3297   4.797   6.493   7.500 -0.2378 -1.5580  0.4633
  766MOL0     C 3298   4.766   6.357   7.570 -0.3366 -0.5510  0.7291
  766MOL0     O 3299   4.758   6.380   7.713  0.0805 -0.3325  0.6270
  766MOL0     C 3300   4.717   6.285   7.797 -0.4713 -0.1988  0.3058
  766MOL0     C 3301   4.642   6.168   7.772 -0.4757 -0.9060  0.3892
  766MOL0     C 3302   4.588   6.087   7.871 -0.5705  0.1662  0.2440
  766MOL0     C 3303   4.604   6.113   8.008  0.6461  0.9272  0.8618
  766MOL0     C 3304   4.559   6.012   8.117 -1.0001 -0.3256 -0.9880
  766MOL0     O 3305   4.477   5.906   8.089  1.0106 -0.4099  0.2862
  766MOL0     C 3306   4.418   5.846   8.196 -0.8247  0.2303  0.1049
  766MOL0     C 3307   4.424   5.703   8.210  0.3626 -0.0981 -0.6885
  766MOL0     C 3308   4.353   5.635   8.310 -0.2715  0.3449  0.7559
  766MOL0     C 3309   4.291   5.701   8.413 -0.7663 -0.1992  0.3101
  766MOL0     O 3310   4.230   5.632   8.521 -0.6176 -0.3031  1.1207
  766MOL0     C 3311   4.233   5.686   8.650  0.6389 -0.9266  0.3446
  766MOL0     C 3312   4.166   5.590   8.759 -0.1582  1.2791  0.4352
  766MOL0     C 3313   4.142   5.659   8.893  0.8986 -0.7818  0.3255
  766MOL0     C 3314   4.104   5.549   9.001  1.4952  0.2905 -0.1432
  766MOL0     C 3315   4.073   5.601   9.145 -0.4155  1.1935  0.0492
  766MOL0     C 3316   3.984   5.498   9.210 -0.5209  0.4928 -0.8406
  766MOL0     C 3317   3.980   5.528   9.357 -0.0885 -0.1559 -0.1443
  766MOL0     C 3318   3.912   5.430   9.449  0.3998  0.2749  0.2943
  766MOL0    Cl 3319   3.918   5.496   9.612 -0.4646 -0.1791 -0.0903
  766MOL0     C 3320   4.276   5.841   8.394  0.9599  0.4615  1.2855
  766MOL0     C 3321   4.335   5.914   8.291 -1.3294 -0.2052 -0.0940
  766MOL0     O 3322   4.605   6.034   8.235  0.0621 -0.4502  0.2548
  766MOL0     C 3323   4.683   6.229   8.037 -0.5627  0.2260  0.5430
  766MOL0     C 3324   4.722   6.324   7.929  0.3744  0.4135 -0.3861
  766MOL0     N 3325   4.914   6.884   7.696 -0.3517 -0.2836  0.4222
  766MOL0     N 3326   4.967   6.879   7.815  0.7611 -0.2911  0.0848
  766MOL0     C 3327   4.371   6.753   8.849  0.9778  0.1602  0.1114
  766MOL0     C 3328   4.279   6.741   8.949 -0.5702 -0.3766 -1.0640
  766MOL0     C 3329   4.006   6.707   9.272  0.0441 -0.7024 -1.1520
  766MOL0     C 3330   4.010   6.820   9.357  0.1786  0.2222 -0.2561
  766MOL0     C 3331   3.911   6.857   9.451  0.4520 -0.0480  0.9316
  766MOL0     C 3332   3.792   6.787   9.448 -0.1691  0.9090  0.0627
  766MOL0     O 3333   3.695   6.805   9.537 -0.2414  0.1791 -0.6919
  766MOL0     C 3334   3.608   6.916   9.506 -0.3979 -0.4033  0.3403
  766MOL0     C 3335   3.482   6.911   9.589 -0.3341  0.8420  0.4631
  766MOL0     C 3336   3.395   6.797   9.548 -0.6759 -0.3060  0.5765
  766MOL0     C 3337   3.265   6.779   9.622  0.3740 -0.1532 -0.3686
  766MOL0     C 3338   3.181   6.689   9.544  0.6191  0.5713  0.1923
  766MOL0     C 3339   3.099   6.614   9.485  0.5084 -0.3039 -1.1972
  766MOL0     C 3340   3.789   6.660   9.378  0.9626 -0.6191 -0.6784
  766MOL0     C 3341   3.881   6.631   9.280 -0.5855  0.2611  0.6495
  766MOL0     C 3342   3.860   6.503   9.204  0.3276  0.1376 -0.4720
  766MOL0     H 3343   4.062   6.529   8.805 -2.5292  2.4346  2.9946
  766MOL0     H 3344   4.226   6.514   8.639 -0.3518  0.8665 -0.6077
  766MOL0     H 3345   4.622   6.664   8.745 -1.5407  2.7636 -0.7579
  766MOL0     H 3346   4.555   6.506   8.702 -1.5662 -0.4157 -2.3254
  766MOL0     H 3347   4.750   6.556   8.557  0.2675  1.5162  1.4143
  766MOL0     H 3348   4.681   6.704   8.501 -0.1305  0.9695  0.9693
  766MOL0     H 3349   4.491   6.593   8.390  1.8922  1.8082 -2.9631
  766MOL0     H 3350   4.548   6.436   8.462  0.7136 -0.5501 -1.2941
  766MOL0     H 3351   4.729   6.425   8.314 -1.9241 -2.8607  1.6756
  766MOL0     H 3352   4.590   6.466   8.229  1.1906  0.9263 -2.0277
  766MOL0     H 3353   4.654   6.704   8.223  0.6052 -0.7005 -0.6213
  766MOL0     H 3354   4.792   6.670   8.332  0.5500 -2.8715  1.9863
  766MOL0     H 3355   4.871   6.511   8.128 -0.5978  0.0525  1.0746
  766MOL0     H 3356   4.759   6.611   8.032  0.5633 -0.7291 -0.1134
  766MOL0     H 3357   5.000   6.714   8.196  0.5793 -1.8675 -0.3473
  766MOL0     H 3358   4.887   6.814   8.105 -1.7483 -0.8255 -1.0784
  766MOL0     H 3359   5.111   6.755   7.995  0.4111 -2.0861  1.2786
  766MOL0     H 3360   5.039   6.585   7.981  1.4340 -0.0747  1.2930
  766MOL0     H 3361   4.860   6.577   7.790 -0.7298  0.3180  3.0745
  766MOL0     H 3362   4.674   6.815   7.566 -0.3155 -1.2097 -1.0073
  766MOL0     H 3363   4.799   6.775   7.458 -0.2337  1.6847  1.0745
  766MOL0     H 3364   4.650   6.582   7.644  1.4868 -0.9832  0.3446
  766MOL0     H 3365   4.603   6.604   7.476  0.0066  0.9832  0.2767
  766MOL0     H 3366   4.897   6.528   7.526 -1.3815  0.9076  1.9229
  766MOL0     H 3367   4.799   6.488   7.391 -0.6054 -1.2162  0.4378
  766MOL0     H 3368   4.839   6.283   7.539 -1.0946 -1.8586  1.9478
  766MOL0     H 3369   4.668   6.314   7.546 -0.2360 -1.6469  2.1662
  766MOL0     H 3370   4.625   6.138   7.669 -2.3257 -0.9478  0.6714
  766MOL0     H 3371   4.557   5.995   7.822  1.0564  0.6546 -1.8255
  766MOL0     H 3372   4.486   5.647   8.140 -1.3035  1.3589 -3.5314
  766MOL0     H 3373   4.344   5.527   8.318 -1.8065  0.3606 -0.3830
  766MOL0     H 3374   4.338   5.693   8.680  0.4310 -1.3091  1.1932
  766MOL0     H 3375   4.185   5.785   8.646 -0.1634 -1.3332 -0.5052
  766MOL0     H 3376   4.070   5.548   8.729  0.6260 -0.4607  0.2443
  766MOL0     H 3377   4.235   5.505   8.767 -1.7181 -0.0753  0.1368
  766MOL0     H 3378   4.227   5.717   8.928  0.6420  0.2142 -0.6270
  766MOL0     H 3379   4.057   5.728   8.892  1.6052  0.1018 -0.5842
  766MOL0     H 3380   4.190   5.482   9.007  0.9252 -0.5217 -0.8853
  766MOL0     H 3381   4.020   5.488   8.969  0.4502 -1.4356  4.8920
  766MOL0     H 3382   4.023   5.696   9.123 -1.8871  0.3386 -0.4926
  766MOL0     H 3383   4.166   5.623   9.197  0.7766 -0.4636 -1.2504
  766MOL0     H 3384   3.878   5.493   9.180 -0.8482  2.4026 -0.1336
  766MOL0     H 3385   4.029   5.398   9.205 -1.7358 -0.1768  0.8755
  766MOL0     H 3386   3.914   5.616   9.361 -0.2349  0.0238 -3.6664
  766MOL0     H 3387   4.078   5.552   9.400 -0.9467 -0.5266  2.1830
  766MOL0     H 3388   3.808   5.406   9.423  0.2770 -0.5919  1.5276
  766MOL0     H 3389   3.966   5.336   9.441 -0.7207 -0.2588 -1.7240
  766MOL0     H 3390   4.213   5.896   8.463 -3.7125  1.4010 -3.1745
  766MOL0     H 3391   4.321   6.020   8.271 -3.7485 -0.2981  0.7867
  766MOL0     H 3392   4.698   6.247   8.143 -0.3289  2.7611  0.1382
  766MOL0     H 3393   4.778   6.412   7.958 -0.3157  0.6698  0.1779
  766MOL0     H 3394   4.449   6.827   8.867 -0.5350  1.5377  1.4261
  766MOL0     H 3395   4.302   6.809   9.031 -1.8179 -1.4186  0.1949
  766MOL0     H 3396   4.100   6.879   9.354  2.1735 -2.6208  0.0842
  766MOL0     H 3397   3.936   6.939   9.518 -3.8309  1.7932  0.6038
  766MOL0     H 3398   3.586   6.912   9.399  0.4321 -2.7104  0.1894
  766MOL0     H 3399   3.661   7.011   9.516 -0.0134 -0.4312 -1.0941
  766MOL0     H 3400   3.423   7.003   9.587 -1.3320  0.2257 -1.9131
  766MOL0     H 3401   3.513   6.872   9.686  3.7037 -0.2050 -1.0268
  766MOL0     H 3402   3.454   6.704   9.550 -1.4833 -1.1932 -4.0035
  766MOL0     H 3403   3.364   6.800   9.443 -4.1344 -0.1144  1.4790
  766MOL0     H 3404   3.285   6.729   9.717  4.0772 -0.2084 -1.0581
  766MOL0     H 3405   3.207   6.872   9.630 -1.0967 -1.1961  2.6183
  766MOL0     H 3406   3.035   6.542   9.438 -1.4079  0.9826 -0.6760
  766MOL0     H 3407   3.711   6.591   9.409  0.2537  0.1504 -0.6987
  766MOL0     H 3408   3.949   6.442   9.186  0.3728 -0.2921  1.0191
  766MOL0     H 3409   3.793   6.434   9.256  2.8481 -1.4594  0.8796
  766MOL0     H 3410   3.809   6.526   9.110 -1.2967  1.1634  0.6025
  767MOL0     O 3411   8.293  11.135   2.471 -0.3707 -0.5584 -0.0000
  767MOL0     C 3412   8.171  11.114   2.435 -0.6333 -0.7367  0.1643
  767MOL0     O 3413   8.136  11.032   2.332 -0.3058 -0.3882  0.4983
  767MOL0     C 3414   8.242  10.988   2.260 -0.2342  0.4015  0.2161
  767MOL0     C 3415   8.297  10.855   2.258 -0.4316  1.0068 -1.1801
  767MOL0     C 3416   8.403  10.821   2.168 -0.1462 -0.1591  0.2162
  767MOL0     C 3417   8.477  10.923   2.101 -0.3843 -0.2728 -0.3650
  767MOL0     O 3418   8.604  10.917   2.051 -0.5064 -0.4621 -0.3998
  767MOL0     C 3419   8.660  10.783   2.037 -0.2887  0.2859 -0.1841
  767MOL0     C 3420   8.802  10.792   1.969 -0.9036  0.1368  0.8235
  767MOL0     C 3421   8.885  10.889   2.050 -0.4644 -0.4282 -0.2945
  767MOL0     C 3422   9.039  10.877   2.031  0.0340 -1.1555 -0.1082
  767MOL0     C 3423   9.120  10.986   2.111 -0.6002  0.0096 -0.9977
  767MOL0     C 3424   9.266  10.962   2.081 -0.2453  0.4542 -0.7666
  767MOL0     C 3425   9.318  10.821   2.125  0.1473 -0.6994  0.1863
  767MOL0     C 3426   9.469  10.841   2.170 -0.7506  0.4113 -0.2122
  767MOL0     N 3427   9.533  10.713   2.202 -0.3302  0.2835 -0.4701
  767MOL0     C 3428   9.499  10.612   2.292  0.1103  0.2461  0.6138
  767MOL0     C 3429   9.580  10.508   2.244 -0.2234  0.3136 -0.1822
  767MOL0     C 3430   9.575  10.366   2.286  0.1597  0.6579  0.2651
  767MOL0     C 3431   9.664  10.323   2.406  0.5624  0.2692 -0.0729
  767MOL0     C 3432   9.630  10.403   2.534 -0.5916 -0.1829 -0.7659
  767MOL0     C 3433   9.715  10.346   2.646  0.1717  0.4546  0.5380
  767MOL0     O 3434   9.719  10.195   2.661 -0.0370  0.2106  0.8860
  767MOL0     C 3435   9.612  10.132   2.722 -0.6037  0.5214  0.3526
  767MOL0     C 3436   9.605   9.990   2.709 -0.3206 -0.3386  0.0951
  767MOL0     C 3437   9.510   9.908   2.776 -0.1285 -0.0832  0.1646
  767MOL0     C 3438   9.410   9.968   2.856 -0.9882  0.3905  0.4999
  767MOL0     C 3439   9.322   9.881   2.926  0.2634  0.5304 -0.3628
  767MOL0     O 3440   9.365   9.749   2.941  0.1379  0.1656  0.8309
  767MOL0     C 3441   9.317   9.655   3.017  0.0581  0.1348  0.0738
  767MOL0     C 3442   9.195   9.660   3.091  0.5302  0.8301 -0.2399
  767MOL0     C 3443   9.162   9.546   3.169 -0.0825  0.4884  0.6343
  767MOL0     C 3444   9.252   9.438   3.182 -1.2474 -0.0271 -0.4733
  767MOL0     O 3445   9.221   9.328   3.253  0.3143  1.1042  0.0069
  767MOL0     C 3446   9.200   9.343   3.391  0.4794  1.2439 -0.1561
  767MOL0     C 3447   9.087   9.245   3.425  0.0866 -0.5499  0.0545
  767MOL0     C 3448   9.137   9.108   3.449  0.2991 -0.7541 -0.4444
  767MOL0     C 3449   9.035   9.006   3.444 -0.4374  0.7819  0.3166
  767MOL0     C 3450   9.083   8.858   3.458  0.1910  0.8523 -0.5346
  767MOL0     C 3451   8.968   8.757   3.422  0.5486  0.0336  0.4133
  767MOL0     C 3452   8.968   8.724   3.273 -1.0642 -0.0850  0.0124
  767MOL0     C 3453   8.831   8.668   3.223  0.5279 -0.1404 -1.0730
  767MOL0    Cl 3454   8.778   8.723   3.060 -0.0400  0.2691 -0.4247
  767MOL0     C 3455   9.365   9.439   3.101  0.8976 -0.6934  0.1589
  767MOL0     C 3456   9.398   9.540   3.022 -0.4605 -0.4964  0.8360
  767MOL0     O 3457   9.228   9.931   2.990  0.1318  0.7554  0.4227
  767MOL0     C 3458   9.415  10.110   2.868 -0.1371 -0.0120  0.0020
  767MOL0     C 3459   9.511  10.191   2.796  0.3734 -0.4392 -0.4537
  767MOL0     N 3460   9.658  10.547   2.140 -0.0325  0.3430  0.5846
  767MOL0     N 3461   9.621  10.664   2.108  1.2022  0.3061  0.3031
  767MOL0     C 3462   8.414  11.053   2.098  0.5778  1.1840 -0.1839
  767MOL0     C 3463   8.296  11.076   2.167  0.3798 -0.1333  0.4041
  767MOL0     C 3464   8.062  11.186   2.503  1.6514 -0.2893 -0.0252
  767MOL0     C 3465   7.950  11.124   2.565 -0.0017  0.9081 -0.1170
  767MOL0     C 3466   7.837  11.189   2.619  1.5656  0.1687 -0.1528
  767MOL0     C 3467   7.834  11.325   2.603 -0.4193 -0.2272 -0.7411
  767MOL0     O 3468   7.733  11.394   2.666 -0.9532 -0.7685 -0.4320
  767MOL0     C 3469   7.751  11.526   2.711  0.0850  0.5284 -0.5067
  767MOL0     C 3470   7.689  11.612   2.606  0.2940  0.3131  0.6378
  767MOL0     C 3471   7.531  11.582   2.567  0.2570  0.2335 -0.5847
  767MOL0     C 3472   7.448  11.517   2.682  0.3244 -0.0692 -0.4717
  767MOL0     C 3473   7.315  11.479   2.624 -0.0064 -1.0196 -0.3314
  767MOL0     C 3474   7.205  11.466   2.564  0.2032  0.4043  0.0929
  767MOL0     C 3475   7.937  11.390   2.532  0.0335 -0.5439  0.3389
  767MOL0     C 3476   8.047  11.330   2.488  0.5346 -0.6864  0.6230
  767MOL0     C 3477   8.145  11.407   2.391 -0.3860 -1.1847  0.0172
  767MOL0     H 3478   8.253  10.780   2.323  0.4722  0.9212 -0.6474
  767MOL0     H 3479   8.445  10.721   2.164 -4.3804 -2.0961 -1.8727
  767MOL0     H 3480   8.675  10.742   2.137  0.1636 -1.8391 -1.0717
  767MOL0     H 3481   8.593  10.715   1.983 -2.5718  2.4687 -0.3064
  767MOL0     H 3482   8.792  10.819   1.864  1.4762 -1.3648  0.1463
  767MOL0     H 3483   8.858  10.698   1.968  1.1383  1.2694  1.7846
  767MOL0     H 3484   8.872  10.877   2.158 -0.5113 -0.7188 -0.3319
  767MOL0     H 3485   8.856  10.995   2.050 -1.4105 -0.6424  1.5708
  767MOL0     H 3486   9.076  10.776   2.051 -0.1499 -1.4105 -0.9920
  767MOL0     H 3487   9.063  10.906   1.928 -0.2294 -0.4606  0.0181
  767MOL0     H 3488   9.098  11.077   2.055  1.2260  2.5078  2.0062
  767MOL0     H 3489   9.112  10.997   2.219  0.9515  1.5593 -0.9779
  767MOL0     H 3490   9.275  10.962   1.972 -1.6298 -2.3373 -0.9655
  767MOL0     H 3491   9.333  11.040   2.119  0.5604  0.1190 -1.4742
  767MOL0     H 3492   9.300  10.753   2.042 -0.0398  1.6513 -1.8152
  767MOL0     H 3493   9.259  10.783   2.209 -0.7573 -0.7071 -0.4308
  767MOL0     H 3494   9.524  10.897   2.094  2.4547  0.0341  1.6613
  767MOL0     H 3495   9.468  10.900   2.261  2.1853  0.9712 -0.4426
  767MOL0     H 3496   9.422  10.604   2.368 -1.6471  0.7147 -1.0412
  767MOL0     H 3497   9.470  10.345   2.309 -0.0648 -0.3095 -1.5110
  767MOL0     H 3498   9.604  10.302   2.202  0.1974 -0.0290  0.7889
  767MOL0     H 3499   9.632  10.221   2.428 -1.3074  0.7413 -0.4516
  767MOL0     H 3500   9.767  10.336   2.371  0.3172 -0.6095 -1.1867
  767MOL0     H 3501   9.525  10.399   2.562  0.1426  1.7292  3.0682
  767MOL0     H 3502   9.653  10.510   2.529  0.4015 -0.3496 -0.2257
  767MOL0     H 3503   9.709  10.404   2.739  1.7940 -0.3088  1.1715
  767MOL0     H 3504   9.814  10.367   2.603  0.6709 -2.1642  0.2234
  767MOL0     H 3505   9.686   9.947   2.651  0.4399  3.4722 -2.0252
  767MOL0     H 3506   9.510   9.800   2.766 -3.5877  0.0017 -2.9739
  767MOL0     H 3507   9.127   9.744   3.095 -2.5400 -1.5109 -0.4103
  767MOL0     H 3508   9.070   9.545   3.225 -1.4684 -1.4022 -1.5049
  767MOL0     H 3509   9.284   9.298   3.445 -2.9767 -1.4635  3.6666
  767MOL0     H 3510   9.182   9.447   3.419 -1.1900  0.9705 -0.1162
  767MOL0     H 3511   9.052   9.272   3.525  4.7820 -1.3071  2.1793
  767MOL0     H 3512   9.008   9.244   3.349 -2.8871  0.1879  2.9227
  767MOL0     H 3513   9.229   9.086   3.395 -0.1911 -1.1045 -1.1624
  767MOL0     H 3514   9.171   9.098   3.553  0.7682 -2.7232 -0.7421
  767MOL0     H 3515   8.990   9.021   3.345 -1.5616  0.0426  0.6844
  767MOL0     H 3516   8.954   9.022   3.516 -3.1001  0.3893 -2.3874
  767MOL0     H 3517   9.112   8.857   3.564 -1.4188  3.0127  0.0071
  767MOL0     H 3518   9.174   8.832   3.403  0.8952 -0.8486  1.2734
  767MOL0     H 3519   8.988   8.659   3.466 -4.7156 -1.6600 -0.3117
  767MOL0     H 3520   8.877   8.790   3.473  0.9170  0.5005  0.7840
  767MOL0     H 3521   9.053   8.658   3.252 -1.5943  0.2817 -3.9316
  767MOL0     H 3522   8.996   8.815   3.220 -1.7229  1.6039  2.3964
  767MOL0     H 3523   8.821   8.559   3.231 -5.1256  0.1769  0.0889
  767MOL0     H 3524   8.759   8.721   3.286  4.0478  4.1112 -0.1167
  767MOL0     H 3525   9.426   9.349   3.105 -0.0258 -1.3209  0.7596
  767MOL0     H 3526   9.465   9.532   2.937 -0.0837  1.4161  0.8999
  767MOL0     H 3527   9.329  10.157   2.915 -0.6969 -0.1728 -0.8404
  767MOL0     H 3528   9.506  10.299   2.809  0.6441 -0.4178 -0.5143
  767MOL0     H 3529   8.459  11.129   2.035 -1.0362  0.9310 -1.6952
  767MOL0     H 3530   8.250  11.173   2.152  2.9923  1.1059 -0.2031
  767MOL0     H 3531   7.969  11.020   2.592  0.5149  1.5521  2.2339
  767MOL0     H 3532   7.762  11.136   2.677  1.4733  0.9746  0.4906
  767MOL0     H 3533   7.855  11.562   2.715  0.6218 -1.0170  0.3104
  767MOL0     H 3534   7.710  11.543   2.811 -0.5290  2.9762 -1.0940
  767MOL0     H 3535   7.743  11.610   2.510 -1.3904  3.1150 -0.4949
  767MOL0     H 3536   7.707  11.714   2.641  1.7261  0.4033 -0.2950
  767MOL0     H 3537   7.545  11.506   2.490  1.1690 -0.4026  0.1841
  767MOL0     H 3538   7.474  11.669   2.534 -1.9026 -1.0587 -0.4081
  767MOL0     H 3539   7.492  11.425   2.723  0.1524  0.7703  1.7156
  767MOL0     H 3540   7.435  11.581   2.770  0.2822 -1.3805  0.5102
  767MOL0     H 3541   7.132  11.443   2.489  2.2436  1.1518 -2.2456
  767MOL0     H 3542   7.927  11.495   2.505 -1.5694 -1.2418 -2.2191
  767MOL0     H 3543   8.249  11.376   2.406  1.7939  3.7580 -2.5272
  767MOL0     H 3544   8.124  11.389   2.286 -2.0592 -2.9711  0.6157
  767MOL0     H 3545   8.143  11.516   2.401  2.3573 -1.1323  0.9413
  768MOL0     O 3546   2.804   5.415   7.135  0.1457  0.0981 -1.1098
  768MOL0     C 3547   2.849   5.521   7.092 -0.3849  0.1231  0.7328
  768MOL0     O 3548   2.809   5.590   6.982 -0.2319  0.2072 -0.0059
  768MOL0     C 3549   2.693   5.546   6.919  0.7568 -0.4898  0.7680
  768MOL0     C 3550   2.695   5.473   6.800  0.1645  0.4043 -0.0392
  768MOL0     C 3551   2.578   5.431   6.732 -0.5073 -0.2936  0.1565
  768MOL0     C 3552   2.449   5.458   6.782 -0.2406  0.1511 -0.9250
  768MOL0     O 3553   2.334   5.416   6.725  0.1409  0.0076  0.5414
  768MOL0     C 3554   2.310   5.454   6.586  0.8936 -0.4711  0.0187
  768MOL0     C 3555   2.155   5.481   6.560 -0.8430  0.1118 -0.1467
  768MOL0     C 3556   2.108   5.593   6.650 -0.5200 -0.3894  0.6162
  768MOL0     C 3557   2.202   5.716   6.657  0.4973 -0.3100 -0.4426
  768MOL0     C 3558   2.133   5.844   6.705 -0.7578  0.0686  1.2414
  768MOL0     C 3559   2.237   5.953   6.688 -0.4531 -1.4479  0.6614
  768MOL0     C 3560   2.210   6.079   6.768  0.2051  0.0914  0.0052
  768MOL0     C 3561   2.303   6.205   6.755  0.5116  0.7643  0.6541
  768MOL0     N 3562   2.248   6.327   6.701  0.7884  0.3965  0.2436
  768MOL0     C 3563   2.305   6.446   6.740  0.6845 -0.3933 -0.0436
  768MOL0     C 3564   2.234   6.542   6.679 -0.5801  0.1073  0.0233
  768MOL0     C 3565   2.266   6.685   6.683  0.9396  0.2340 -0.6553
  768MOL0     C 3566   2.138   6.771   6.693 -0.0992 -0.1038 -0.6156
  768MOL0     C 3567   2.171   6.917   6.715  0.4472  0.0999 -0.6671
  768MOL0     C 3568   2.051   7.026   6.696 -0.3209 -0.0702  0.7622
  768MOL0     O 3569   2.025   7.033   6.550  0.4714  0.3312 -0.5615
  768MOL0     C 3570   1.895   7.065   6.506 -0.5354  0.5959 -0.3259
  768MOL0     C 3571   1.882   7.048   6.367  0.0189  0.5474  0.1993
  768MOL0     C 3572   1.754   7.072   6.318 -0.4985  0.7944 -0.7551
  768MOL0     C 3573   1.645   7.103   6.401 -0.2973 -0.0082 -0.0966
  768MOL0     C 3574   1.508   7.115   6.344 -0.5518  0.5323  0.0121
  768MOL0     O 3575   1.485   7.115   6.202 -0.6322  0.4027  0.6806
  768MOL0     C 3576   1.353   7.130   6.160  0.1172 -0.4109 -0.4447
  768MOL0     C 3577   1.339   7.216   6.053 -0.3708 -0.8591 -0.5381
  768MOL0     C 3578   1.211   7.252   6.013 -0.4423 -0.4262  0.9684
  768MOL0     C 3579   1.095   7.206   6.075 -0.2556  1.1161 -0.0183
  768MOL0     O 3580   0.970   7.247   6.022  0.2062  0.0918  0.2713
  768MOL0     C 3581   0.850   7.193   6.073  1.1715 -0.4750 -0.2879
  768MOL0     C 3582   0.748   7.190   5.951 -0.2621  0.5131  0.3365
  768MOL0     C 3583   0.630   7.092   5.979 -0.2937 -0.5534 -0.5071
  768MOL0     C 3584   0.536   7.142   6.089  0.6533  0.2165 -0.0900
  768MOL0     C 3585   0.415   7.049   6.094  0.3210  0.5790  0.0330
  768MOL0     C 3586   0.296   7.106   6.167  1.2678  0.4379 -0.2195
  768MOL0     C 3587   0.176   7.007   6.155  0.2785 -0.1362  0.8242
  768MOL0     C 3588   0.071   7.027   6.264  0.2683 -0.0145 -0.8715
  768MOL0    Cl 3589   0.024   7.198   6.301  0.5605  0.1071 -0.6361
  768MOL0     C 3590   1.107   7.108   6.183 -0.1511  0.2947 -0.6852
  768MOL0     C 3591   1.236   7.076   6.226  0.6219 -0.1089 -0.3351
  768MOL0     O 3592   1.424   7.127   6.431 -0.0989  0.2329  0.1092
  768MOL0     C 3593   1.669   7.121   6.541 -0.3991  0.1172  0.5513
  768MOL0     C 3594   1.792   7.106   6.590  0.3223 -0.8491  0.1919
  768MOL0     N 3595   2.124   6.488   6.607  0.6421 -0.2962 -0.2098
  768MOL0     N 3596   2.140   6.357   6.618 -0.4841  0.0245 -0.2805
  768MOL0     C 3597   2.439   5.527   6.901 -0.0399 -1.0060 -0.3756
  768MOL0     C 3598   2.561   5.569   6.972 -0.1473 -0.4149 -1.4260
  768MOL0     C 3599   2.951   5.582   7.176  0.0166 -0.6944 -0.1909
  768MOL0     C 3600   3.084   5.590   7.123 -0.7537 -0.0033 -0.6437
  768MOL0     C 3601   3.182   5.634   7.212 -0.5258 -0.3898 -0.5530
  768MOL0     C 3602   3.155   5.690   7.333  0.0838 -0.8183  0.4991
  768MOL0     O 3603   3.230   5.765   7.419 -0.4893 -0.5175 -0.9031
  768MOL0     C 3604   3.374   5.761   7.428 -0.0521 -0.1139  0.5019
  768MOL0     C 3605   3.418   5.624   7.485  0.3787  0.1333 -0.2366
  768MOL0     C 3606   3.354   5.583   7.621  0.0129 -0.5998 -0.3807
  768MOL0     C 3607   3.385   5.437   7.659  0.4202 -0.0864 -0.0010
  768MOL0     C 3608   3.531   5.423   7.697  0.3411 -0.5386  0.1226
  768MOL0     C 3609   3.647   5.415   7.724 -0.1866  1.1040 -0.3425
  768MOL0     C 3610   3.024   5.678   7.384  0.4137 -0.0300  0.4151
  768MOL0     C 3611   2.921   5.624   7.301 -0.6793 -1.0150 -0.6429
  768MOL0     C 3612   2.786   5.626   7.358 -0.0574  0.4285  0.9724
  768MOL0     H 3613   2.795   5.450   6.767  0.2019 -3.9178  2.2966
  768MOL0     H 3614   2.588   5.393   6.630  0.7254  0.7767 -0.1534
  768MOL0     H 3615   2.375   5.536   6.555 -0.4239 -0.0268 -1.6903
  768MOL0     H 3616   2.334   5.369   6.521 -2.6242 -0.8038 -1.0393
  768MOL0     H 3617   2.092   5.393   6.580 -0.4441 -0.0902  0.2449
  768MOL0     H 3618   2.141   5.499   6.453  0.7111 -1.9670 -0.7685
  768MOL0     H 3619   2.106   5.551   6.752  1.0369  0.0969  0.8764
  768MOL0     H 3620   2.008   5.626   6.622  0.8494  0.7092 -3.7642
  768MOL0     H 3621   2.286   5.704   6.727 -0.3467 -1.7304  0.3656
  768MOL0     H 3622   2.237   5.729   6.555 -3.5077  2.1446 -1.7220
  768MOL0     H 3623   2.048   5.858   6.637  0.5610  1.6836 -0.1634
  768MOL0     H 3624   2.085   5.838   6.803  0.8036 -0.2014  2.0113
  768MOL0     H 3625   2.336   5.919   6.719  0.8816  1.5686  0.0971
  768MOL0     H 3626   2.236   5.974   6.581 -0.7795 -1.2633  0.6975
  768MOL0     H 3627   2.191   6.051   6.872 -4.3983  0.6276 -0.4622
  768MOL0     H 3628   2.112   6.117   6.739 -0.6234 -1.6424  0.3542
  768MOL0     H 3629   2.342   6.223   6.856 -1.4720 -0.2644  1.6581
  768MOL0     H 3630   2.396   6.171   6.709 -0.6163 -2.5624  0.5910
  768MOL0     H 3631   2.389   6.440   6.809 -0.4716 -2.5772  1.2996
  768MOL0     H 3632   2.319   6.702   6.777 -0.9734 -0.8275  0.6990
  768MOL0     H 3633   2.326   6.710   6.595  1.7209 -0.4555 -0.3361
  768MOL0     H 3634   2.082   6.764   6.599 -0.3403 -0.8871 -0.4203
  768MOL0     H 3635   2.076   6.736   6.776  0.0115  2.0024  0.4215
  768MOL0     H 3636   2.236   6.961   6.639 -0.6941  1.2942 -0.9986
  768MOL0     H 3637   2.221   6.927   6.811  1.4704  0.2036 -1.1980
  768MOL0     H 3638   2.070   7.130   6.725 -3.4831  1.2680 -1.3395
  768MOL0     H 3639   1.961   6.998   6.751 -1.4360 -1.0793 -1.4536
  768MOL0     H 3640   1.962   7.004   6.308  2.4587 -0.7091  4.0480
  768MOL0     H 3641   1.724   7.054   6.215 -2.1822  0.3997 -0.2276
  768MOL0     H 3642   1.435   7.252   6.016  0.4563 -4.0070 -1.8458
  768MOL0     H 3643   1.197   7.320   5.930 -0.6747  1.6998  2.6556
  768MOL0     H 3644   0.868   7.089   6.102  2.6112  0.1299  1.1792
  768MOL0     H 3645   0.811   7.253   6.156  1.1131  0.9475 -1.3019
  768MOL0     H 3646   0.715   7.289   5.915 -0.4053 -0.2550 -1.8086
  768MOL0     H 3647   0.805   7.153   5.866  0.7080 -0.3434  1.3374
  768MOL0     H 3648   0.577   7.074   5.885  2.7952 -1.0703 -2.3063
  768MOL0     H 3649   0.678   6.996   6.003 -0.6342 -1.1680 -2.1775
  768MOL0     H 3650   0.498   7.241   6.061  0.5914  0.1066 -0.4117
  768MOL0     H 3651   0.577   7.144   6.190 -0.8718  1.4821  0.5544
  768MOL0     H 3652   0.448   6.952   6.131  0.1834  0.6606  0.3730
  768MOL0     H 3653   0.378   7.023   5.994  0.2448  1.6565 -0.2354
  768MOL0     H 3654   0.326   7.118   6.272  0.9142 -1.2815  0.1121
  768MOL0     H 3655   0.259   7.201   6.128 -0.8618 -0.4963 -0.6269
  768MOL0     H 3656   0.215   6.904   6.153 -0.9368 -0.6409 -2.0125
  768MOL0     H 3657   0.128   7.022   6.057 -1.2072 -3.4621  0.9067
  768MOL0     H 3658  -0.018   6.964   6.254  0.9519 -2.0199  3.2158
  768MOL0     H 3659   0.109   6.986   6.358 -1.8252  1.3760  0.6530
  768MOL0     H 3660   1.023   7.052   6.225  0.7400 -1.0737 -0.6586
  768MOL0     H 3661   1.256   7.017   6.315  2.1193 -1.0762 -1.2736
  768MOL0     H 3662   1.587   7.154   6.604 -2.0176  0.9880 -1.8501
  768MOL0     H 3663   1.811   7.143   6.690  0.6671 -0.3392 -0.0616
  768MOL0     H 3664   2.341   5.555   6.939  1.5615  1.6910  2.0965
  768MOL0     H 3665   2.563   5.619   7.069 -0.6052 -0.8726 -1.1738
  768MOL0     H 3666   3.118   5.564   7.023  2.4935  1.1278  0.0507
  768MOL0     H 3667   3.277   5.655   7.164  1.0583 -2.1294  1.6019
  768MOL0     H 3668   3.421   5.841   7.487  0.0592  1.5532 -1.7441
  768MOL0     H 3669   3.406   5.758   7.324 -0.8815 -1.7357  0.2515
  768MOL0     H 3670   3.525   5.645   7.489  0.2026  1.3033 -1.1536
  768MOL0     H 3671   3.394   5.553   7.405 -0.3354  2.0718 -1.8339
  768MOL0     H 3672   3.247   5.605   7.633 -0.2216 -1.5079 -0.7242
  768MOL0     H 3673   3.398   5.641   7.703 -3.3651  0.6996  0.7054
  768MOL0     H 3674   3.342   5.406   7.754  1.7803 -0.3248  0.5532
  768MOL0     H 3675   3.347   5.377   7.575 -1.1145  1.4257 -0.4439
  768MOL0     H 3676   3.750   5.410   7.755 -0.4594  2.3736  0.8947
  768MOL0     H 3677   2.994   5.713   7.483  0.0979 -1.1543  0.7333
  768MOL0     H 3678   2.784   5.573   7.454  4.6314  1.1350  1.7196
  768MOL0     H 3679   2.763   5.732   7.368  1.7418  1.0987 -1.1258
  768MOL0     H 3680   2.712   5.583   7.290  2.1129 -0.3328 -1.0358
  769MOL0     O 3681   5.821   3.923   2.482  0.2809  0.6954 -0.1514
  769MOL0     C 3682   5.799   3.875   2.368 -0.1872 -0.2217 -0.2719
  769MOL0     O 3683   5.897   3.828   2.284  0.2424  0.1810 -0.1250
  769MOL0     C 3684   6.028   3.864   2.318 -0.0953 -0.5546 -0.1084
  769MOL0     C 3685   6.107   3.808   2.411 -0.0752  1.0673 -0.6099
  769MOL0     C 3686   6.240   3.846   2.444  0.5386 -0.8021  0.5230
  769MOL0     C 3687   6.287   3.960   2.385 -0.0223 -0.4007  0.2558
  769MOL0     O 3688   6.415   4.003   2.437 -0.4278 -0.0841 -0.3893
  769MOL0     C 3689   6.506   4.052   2.338  0.0121  0.8505  0.0079
  769MOL0     C 3690   6.620   4.106   2.422 -0.0316  0.1215 -0.0559
  769MOL0     C 3691   6.741   4.119   2.325  0.6003  0.6739 -0.4427
  769MOL0     C 3692   6.835   4.216   2.384  0.5212 -0.8060 -0.7723
  769MOL0     C 3693   6.972   4.214   2.324 -0.6986  0.3609  0.4178
  769MOL0     C 3694   7.058   4.319   2.391 -0.1381  0.0785  0.1458
  769MOL0     C 3695   7.193   4.335   2.305  0.4505  0.3488  0.6048
  769MOL0     C 3696   7.247   4.467   2.327  0.2238  0.5760  0.2460
  769MOL0     N 3697   7.376   4.475   2.259  1.4492 -1.0355 -0.5599
  769MOL0     C 3698   7.410   4.460   2.128  0.4442  1.2026  0.3239
  769MOL0     C 3699   7.531   4.508   2.124 -0.3153  0.9296  0.4480
  769MOL0     C 3700   7.606   4.524   2.001  0.1096 -0.8953 -0.0741
  769MOL0     C 3701   7.744   4.457   2.016 -0.2831 -0.1296 -0.1963
  769MOL0     C 3702   7.864   4.510   1.936 -0.7731  0.0351 -0.8338
  769MOL0     C 3703   7.905   4.646   1.986  0.1800  0.5878 -0.5661
  769MOL0     O 3704   8.035   4.685   1.945  0.1065  0.5264  0.4961
  769MOL0     C 3705   8.075   4.811   1.961 -0.0142 -0.2202 -0.0188
  769MOL0     C 3706   8.010   4.913   2.022 -0.2497  0.1974  0.0042
  769MOL0     C 3707   8.061   5.045   2.014 -0.4815  1.3942 -0.5917
  769MOL0     C 3708   8.186   5.077   1.959 -0.5113  0.1836 -0.9113
  769MOL0     C 3709   8.245   5.216   1.947  0.7627 -0.8207 -0.1872
  769MOL0     O 3710   8.352   5.235   1.867 -0.0102  0.6904  0.2750
  769MOL0     C 3711   8.438   5.342   1.870  0.5453 -1.1146 -0.6350
  769MOL0     C 3712   8.404   5.474   1.909 -0.8471 -0.2918 -0.3341
  769MOL0     C 3713   8.497   5.583   1.917  0.2044  0.0372  0.0909
  769MOL0     C 3714   8.631   5.551   1.896  0.5358  0.1135  0.6185
  769MOL0     O 3715   8.729   5.648   1.909 -0.2557 -0.2773  0.4557
  769MOL0     C 3716   8.785   5.688   1.782 -0.5433 -0.0285  1.1923
  769MOL0     C 3717   8.844   5.830   1.782  0.0663  0.0001 -0.4665
  769MOL0     C 3718   8.895   5.867   1.641  0.5209 -0.1048  0.2278
  769MOL0     C 3719   8.786   5.905   1.543  0.4750 -0.2318 -0.6127
  769MOL0     C 3720   8.831   5.938   1.398  0.3257 -1.1992  0.1502
  769MOL0     C 3721   8.917   6.072   1.402  0.8302  0.9268 -0.1867
  769MOL0     C 3722   8.921   6.135   1.258 -0.6148  0.2422 -0.2168
  769MOL0     C 3723   9.061   6.193   1.231 -0.1930  0.0160  0.7403
  769MOL0    Cl 3724   9.182   6.052   1.230 -0.3450  0.3390  0.5234
  769MOL0     C 3725   8.665   5.419   1.859  0.0093 -0.5317  0.2420
  769MOL0     C 3726   8.569   5.317   1.848 -1.1021 -0.5445  0.4606
  769MOL0     O 3727   8.197   5.303   2.017 -0.1310  0.0156 -0.3855
  769MOL0     C 3728   8.263   4.967   1.919  0.2967 -0.1864  0.7097
  769MOL0     C 3729   8.197   4.840   1.909 -0.1367  1.1898 -0.9354
  769MOL0     N 3730   7.564   4.557   2.246  0.2727  0.0041 -0.2021
  769MOL0     N 3731   7.477   4.527   2.336  0.1870  0.6881 -0.4783
  769MOL0     C 3732   6.210   4.028   2.288  0.5431 -0.7199 -0.7947
  769MOL0     C 3733   6.083   3.980   2.258 -0.0865  1.1382  0.3995
  769MOL0     C 3734   5.655   3.874   2.336 -0.5110 -0.5141  0.2988
  769MOL0     C 3735   5.563   3.941   2.427 -0.8266  0.0347 -0.0483
  769MOL0     C 3736   5.426   3.937   2.392  0.8154 -0.1972 -0.4135
  769MOL0     C 3737   5.369   3.867   2.290  0.7060  0.6393  0.5695
  769MOL0     O 3738   5.235   3.857   2.287  0.7303 -0.2724 -0.5589
  769MOL0     C 3739   5.168   3.743   2.238 -0.8594  0.4352  0.5005
  769MOL0     C 3740   5.021   3.779   2.229  0.1707 -0.2758  0.2465
  769MOL0     C 3741   4.952   3.774   2.363 -0.1705 -0.5336  0.1132
  769MOL0     C 3742   4.821   3.860   2.364  0.2826 -0.3770 -0.4666
  769MOL0     C 3743   4.727   3.823   2.259 -0.1692 -0.5900  0.3535
  769MOL0     C 3744   4.657   3.804   2.163  0.3322 -0.3727  0.1271
  769MOL0     C 3745   5.459   3.809   2.203 -0.1540  0.2723 -0.1744
  769MOL0     C 3746   5.598   3.805   2.222  1.1141  1.1315  0.2768
  769MOL0     C 3747   5.683   3.719   2.120  1.0026 -0.7220  0.0373
  769MOL0     H 3748   6.053   3.726   2.457  2.9289 -1.2173 -0.8119
  769MOL0     H 3749   6.295   3.794   2.522  1.3735  0.8217  1.0707
  769MOL0     H 3750   6.539   3.966   2.280 -1.1203 -0.0375  0.6441
  769MOL0     H 3751   6.464   4.132   2.276 -0.0146  1.2114  0.4764
  769MOL0     H 3752   6.640   4.033   2.500 -0.7493 -0.0100  0.0110
  769MOL0     H 3753   6.589   4.202   2.464 -0.1779  0.7044 -1.4385
  769MOL0     H 3754   6.703   4.151   2.228  1.1189  1.9809 -0.2354
  769MOL0     H 3755   6.788   4.020   2.318 -0.8106  0.0187 -0.9866
  769MOL0     H 3756   6.789   4.315   2.380  0.7320 -0.6233  0.8611
  769MOL0     H 3757   6.835   4.199   2.492  0.0844 -1.1879 -0.8295
  769MOL0     H 3758   7.018   4.116   2.340  0.8343  1.0826  0.5949
  769MOL0     H 3759   6.969   4.233   2.216  0.2716  0.7397  0.4516
  769MOL0     H 3760   7.015   4.419   2.392  1.1843  0.7065 -1.3394
  769MOL0     H 3761   7.086   4.285   2.491  4.9275 -0.3200 -1.1390
  769MOL0     H 3762   7.174   4.315   2.199  2.9505 -1.3892  0.4078
  769MOL0     H 3763   7.268   4.264   2.342 -0.2073  0.8480  3.0997
  769MOL0     H 3764   7.177   4.531   2.272 -1.0136 -1.1278 -0.2592
  769MOL0     H 3765   7.247   4.499   2.431  1.3848 -1.1536  0.8156
  769MOL0     H 3766   7.356   4.411   2.049  3.0067  2.8112 -2.6735
  769MOL0     H 3767   7.557   4.467   1.921 -1.4429  0.2070  0.0386
  769MOL0     H 3768   7.615   4.629   1.971  5.0787 -0.7161  1.2326
  769MOL0     H 3769   7.777   4.461   2.120  2.6854  0.0298 -1.0278
  769MOL0     H 3770   7.740   4.350   1.994 -0.5185  0.5000 -3.9384
  769MOL0     H 3771   7.833   4.509   1.831  0.9065 -1.3287 -1.3526
  769MOL0     H 3772   7.949   4.443   1.952 -2.9389 -2.2248  2.6675
  769MOL0     H 3773   7.918   4.638   2.094 -0.2175 -3.9076 -0.6871
  769MOL0     H 3774   7.835   4.723   1.950  0.5413  2.1892  1.9106
  769MOL0     H 3775   7.919   4.897   2.079 -0.5884  0.9462 -0.3161
  769MOL0     H 3776   7.997   5.121   2.058 -1.5089  1.4398 -2.0800
  769MOL0     H 3777   8.297   5.488   1.925 -0.4920  1.2276  0.9969
  769MOL0     H 3778   8.464   5.682   1.949  2.4774  1.2372 -1.0775
  769MOL0     H 3779   8.878   5.635   1.757 -1.2400  0.6913 -4.1185
  769MOL0     H 3780   8.717   5.670   1.698  1.2044 -0.9939 -0.0803
  769MOL0     H 3781   8.772   5.896   1.831 -0.7687 -0.4278 -1.0900
  769MOL0     H 3782   8.935   5.827   1.842  0.7545 -0.0075 -1.4713
  769MOL0     H 3783   8.962   5.952   1.657  1.9952 -0.7433 -2.0529
  769MOL0     H 3784   8.961   5.789   1.602 -0.1020 -0.7815  0.5080
  769MOL0     H 3785   8.737   5.991   1.590 -2.3132 -1.0130 -1.8520
  769MOL0     H 3786   8.716   5.821   1.552  0.7531 -0.3213  1.1004
  769MOL0     H 3787   8.743   5.972   1.343  1.3273  0.8950 -0.2883
  769MOL0     H 3788   8.876   5.849   1.352  3.4103  0.4166 -0.2462
  769MOL0     H 3789   8.869   6.148   1.464  1.1123 -0.0237  1.2299
  769MOL0     H 3790   9.015   6.039   1.436  0.5242  2.4920  2.4164
  769MOL0     H 3791   8.844   6.212   1.268 -1.5472 -0.9638  2.9642
  769MOL0     H 3792   8.887   6.068   1.179 -1.7086  0.1187  0.3494
  769MOL0     H 3793   9.065   6.242   1.133 -1.9395 -0.2296  0.5168
  769MOL0     H 3794   9.082   6.260   1.315  1.2714 -3.0546  3.0204
  769MOL0     H 3795   8.767   5.408   1.824  1.8560  3.0744  3.7193
  769MOL0     H 3796   8.605   5.223   1.808 -1.4780 -1.2272  1.6640
  769MOL0     H 3797   8.364   4.976   1.880 -1.0111 -1.7046 -3.6468
  769MOL0     H 3798   8.243   4.754   1.862  1.5036  1.7879 -0.5305
  769MOL0     H 3799   6.230   4.122   2.238 -2.0637 -0.6576 -1.8467
  769MOL0     H 3800   6.027   4.041   2.187 -1.6794 -1.2015 -0.4708
  769MOL0     H 3801   5.584   3.985   2.524 -0.2712  0.4365 -0.3433
  769MOL0     H 3802   5.352   3.974   2.463  2.4496  0.3639  1.0775
  769MOL0     H 3803   5.190   3.659   2.304  0.3340 -3.6364 -4.3860
  769MOL0     H 3804   5.215   3.713   2.143 -0.3159 -2.3589  1.5353
  769MOL0     H 3805   4.972   3.714   2.156  0.8209 -0.0158 -0.4406
  769MOL0     H 3806   5.001   3.878   2.186 -2.0876 -0.0835  1.5921
  769MOL0     H 3807   5.018   3.817   2.438 -0.7781  1.8115 -0.6075
  769MOL0     H 3808   4.924   3.677   2.404 -0.3941 -1.3397 -1.8416
  769MOL0     H 3809   4.779   3.855   2.465  0.0161 -0.9130 -0.5982
  769MOL0     H 3810   4.849   3.964   2.347 -0.8307  0.0221  0.0176
  769MOL0     H 3811   4.594   3.784   2.079 -0.1478  2.7261 -0.3718
  769MOL0     H 3812   5.421   3.733   2.136 -1.4239  0.8336 -0.1189
  769MOL0     H 3813   5.739   3.794   2.063  0.2883  1.1870  1.7262
  769MOL0     H 3814   5.749   3.648   2.171  0.7011 -2.2465 -1.5632
  769MOL0     H 3815   5.618   3.667   2.048  2.6532 -1.4241 -0.9987
  770MOL0     O 3816   8.996   3.094   9.060  0.1331 -0.0685  0.1327
  770MOL0     C 3817   9.000   3.197   9.126  0.2322 -0.1262  0.2582
  770MOL0     O 3818   8.892   3.254   9.184  0.2724  0.2575  0.0881
  770MOL0     C 3819   8.782   3.172   9.173 -0.2059  0.7024 -0.3367
  770MOL0     C 3820   8.722   3.131   9.053  0.7379 -0.1460 -1.2538
  770MOL0     C 3821   8.611   3.049   9.048 -0.1582 -1.1659  0.4420
  770MOL0     C 3822   8.552   3.014   9.172  0.8932 -0.3192 -0.5569
  770MOL0     O 3823   8.421   2.954   9.150  0.3597  0.6153 -0.1043
  770MOL0     C 3824   8.330   2.993   9.255  0.0112 -0.6139 -0.8220
  770MOL0     C 3825   8.197   2.941   9.213  0.3927 -0.3164  0.0514
  770MOL0     C 3826   8.123   2.902   9.332 -0.2851 -0.1536  0.2432
  770MOL0     C 3827   7.993   2.808   9.308  0.4304 -0.2865 -0.7443
  770MOL0     C 3828   8.001   2.683   9.403 -0.0222 -0.6662  0.5150
  770MOL0     C 3829   7.956   2.713   9.554 -0.4886  0.2478 -0.3825
  770MOL0     C 3830   7.978   2.601   9.656  0.6009  0.1558  0.1586
  770MOL0     C 3831   8.102   2.624   9.743 -0.3550  0.5195  0.2267
  770MOL0     N 3832   8.226   2.651   9.673 -0.8683  0.6289 -0.8717
  770MOL0     C 3833   8.304   2.562   9.611 -0.1493 -0.4258 -0.2520
  770MOL0     C 3834   8.401   2.645   9.555  0.4639  0.6948  1.2457
  770MOL0     C 3835   8.493   2.602   9.438  0.0739 -0.9509 -0.6016
  770MOL0     C 3836   8.417   2.631   9.307  0.2618  0.0130 -0.2123
  770MOL0     C 3837   8.490   2.581   9.184  0.0388 -0.4145 -0.7193
  770MOL0     C 3838   8.622   2.639   9.137  0.1863 -0.2098 -0.2158
  770MOL0     O 3839   8.717   2.592   9.241 -0.3454  0.1760  0.5359
  770MOL0     C 3840   8.842   2.641   9.253 -0.6903  0.6379  0.6150
  770MOL0     C 3841   8.899   2.650   9.381 -0.4691  0.4108  0.2926
  770MOL0     C 3842   9.032   2.691   9.401  0.3506 -0.5554  0.6730
  770MOL0     C 3843   9.113   2.713   9.297  0.1129 -0.7333  0.2853
  770MOL0     C 3844   9.243   2.772   9.313  0.0488  0.4716  0.3512
  770MOL0     O 3845   9.274   2.820   9.439  1.3485  0.3017 -0.3631
  770MOL0     C 3846   9.401   2.847   9.438 -1.0278  0.7574  0.1280
  770MOL0     C 3847   9.501   2.757   9.484 -0.5685 -0.3852 -0.4044
  770MOL0     C 3848   9.643   2.803   9.484 -0.7970 -0.3739  0.1142
  770MOL0     C 3849   9.678   2.933   9.449  0.1157  1.0744 -0.2078
  770MOL0     O 3850   9.811   2.968   9.439  0.9471  0.8971 -0.2371
  770MOL0     C 3851   9.838   3.099   9.472  0.1888 -0.2033  0.8048
  770MOL0     C 3852   9.982   3.117   9.522  1.2678  1.2058  0.2143
  770MOL0     C 3853  10.084   3.115   9.419 -0.3173  0.8578 -0.1173
  770MOL0     C 3854  10.226   3.113   9.495  0.4705 -0.3441 -0.5302
  770MOL0     C 3855  10.335   3.121   9.393  0.6016  0.3932 -0.2299
  770MOL0     C 3856  10.472   3.077   9.459 -0.0654 -0.7448 -0.1821
  770MOL0     C 3857  10.571   3.052   9.350 -0.4396 -1.2512  0.4925
  770MOL0     C 3858  10.701   3.005   9.401 -0.2240 -0.5489  0.4713
  770MOL0    Cl 3859  10.851   3.040   9.285 -0.5170  0.1348  0.1711
  770MOL0     C 3860   9.568   3.020   9.420 -0.4112 -0.2507  0.2839
  770MOL0     C 3861   9.443   2.976   9.408 -0.7315 -0.9656 -0.4975
  770MOL0     O 3862   9.318   2.762   9.212  0.2597 -0.5074 -0.3735
  770MOL0     C 3863   9.055   2.717   9.172 -0.4325  0.2920 -0.3436
  770MOL0     C 3864   8.919   2.693   9.147 -0.2527 -0.1568 -0.0258
  770MOL0     N 3865   8.388   2.771   9.590 -0.2154  0.4681 -0.5765
  770MOL0     N 3866   8.273   2.774   9.657 -0.7801  0.5136 -0.5950
  770MOL0     C 3867   8.605   3.060   9.295  0.4088 -0.6123 -0.1437
  770MOL0     C 3868   8.724   3.132   9.293 -1.4251 -0.1295  0.1374
  770MOL0     C 3869   9.130   3.274   9.136 -0.1171 -0.1086 -0.0810
  770MOL0     C 3870   9.128   3.411   9.187  0.8641  0.0252  0.6794
  770MOL0     C 3871   9.244   3.485   9.197 -0.0235  0.5624 -0.6476
  770MOL0     C 3872   9.368   3.429   9.160 -0.2486  0.3463 -0.9153
  770MOL0     O 3873   9.479   3.502   9.165 -0.3751  0.0340 -0.1344
  770MOL0     C 3874   9.489   3.591   9.052 -0.3603  0.4637  1.0955
  770MOL0     C 3875   9.638   3.616   9.027 -0.1212  0.0671  0.5348
  770MOL0     C 3876   9.661   3.673   8.892  0.5931  0.0291  0.4452
  770MOL0     C 3877   9.807   3.686   8.844  0.1496 -0.1161 -1.3339
  770MOL0     C 3878   9.827   3.751   8.721  0.2671 -0.1688  0.1686
  770MOL0     C 3879   9.853   3.799   8.612  1.0644  0.7217  0.3129
  770MOL0     C 3880   9.370   3.303   9.107 -0.5912  0.8951  0.3542
  770MOL0     C 3881   9.256   3.216   9.101 -0.0856 -0.0323 -0.1352
  770MOL0     C 3882   9.274   3.072   9.067 -0.5919  1.0808  0.7798
  770MOL0     H 3883   8.771   3.163   8.962  3.2469  2.3286  0.7640
  770MOL0     H 3884   8.562   3.003   8.963  0.1461 -1.4470  0.4192
  770MOL0     H 3885   8.352   2.963   9.358  3.1210  1.5109 -0.7167
  770MOL0     H 3886   8.322   3.102   9.260 -0.8915 -0.4440 -3.8749
  770MOL0     H 3887   8.223   2.854   9.153  0.8384 -0.9708  1.1723
  770MOL0     H 3888   8.137   3.019   9.165 -2.4480 -0.7242  2.5908
  770MOL0     H 3889   8.092   2.999   9.373  1.1618  1.2059 -1.7177
  770MOL0     H 3890   8.177   2.841   9.405 -2.1578  0.3003  2.0963
  770MOL0     H 3891   7.900   2.865   9.313  0.8280  0.2922  0.4141
  770MOL0     H 3892   7.998   2.759   9.210 -1.2004 -1.9766 -0.0368
  770MOL0     H 3893   7.933   2.606   9.365  0.5681 -0.3540 -1.2803
  770MOL0     H 3894   8.097   2.631   9.407 -0.7118 -2.2147 -1.3685
  770MOL0     H 3895   8.001   2.809   9.582 -0.7896  0.7066 -1.4262
  770MOL0     H 3896   7.849   2.733   9.565 -0.6527 -1.6965  2.5810
  770MOL0     H 3897   7.957   2.504   9.610 -3.3313  1.5864 -1.5034
  770MOL0     H 3898   7.900   2.608   9.733  1.1758 -2.3885  1.0800
  770MOL0     H 3899   8.082   2.714   9.802 -2.6955 -0.2013  0.6547
  770MOL0     H 3900   8.122   2.537   9.806  1.6189  0.6244 -0.1907
  770MOL0     H 3901   8.292   2.455   9.601 -0.0426 -0.4185 -0.4595
  770MOL0     H 3902   8.587   2.656   9.451 -1.3413  1.2879  1.2500
  770MOL0     H 3903   8.518   2.496   9.448 -1.7156 -1.3260  0.2857
  770MOL0     H 3904   8.319   2.583   9.310 -1.4329  3.2099 -0.5038
  770MOL0     H 3905   8.394   2.737   9.298 -0.3189  0.2501  2.9230
  770MOL0     H 3906   8.421   2.579   9.100 -1.4067  0.1630  0.4016
  770MOL0     H 3907   8.509   2.475   9.203  3.0998  0.2082  0.3750
  770MOL0     H 3908   8.618   2.748   9.129  0.3221 -0.3143 -2.6934
  770MOL0     H 3909   8.640   2.600   9.036 -1.0966 -0.1791 -0.4723
  770MOL0     H 3910   8.839   2.626   9.469  3.3453 -2.6921  2.3891
  770MOL0     H 3911   9.060   2.726   9.500  0.5071  0.7461  0.1877
  770MOL0     H 3912   9.475   2.652   9.494 -0.8257 -0.1737  1.3832
  770MOL0     H 3913   9.724   2.734   9.505 -1.3773 -2.2332 -3.0923
  770MOL0     H 3914   9.825   3.152   9.377  1.2580  0.0237  0.7731
  770MOL0     H 3915   9.767   3.142   9.543 -1.7460 -1.6573 -0.1577
  770MOL0     H 3916   9.991   3.215   9.569  0.5061  1.6449 -0.5304
  770MOL0     H 3917  10.005   3.033   9.588  0.1674 -0.3274 -1.2374
  770MOL0     H 3918  10.073   3.022   9.362 -1.5544  0.9683 -0.0745
  770MOL0     H 3919  10.079   3.198   9.348  0.3725  0.9442 -0.0730
  770MOL0     H 3920  10.231   3.020   9.553 -0.1588  1.9261  3.4588
  770MOL0     H 3921  10.236   3.198   9.563 -3.3621 -1.3750  1.6145
  770MOL0     H 3922  10.341   3.224   9.355 -0.7649  0.8496  0.6978
  770MOL0     H 3923  10.304   3.051   9.315 -3.0344 -0.1223  1.4587
  770MOL0     H 3924  10.505   3.165   9.516 -0.6031  0.8127 -2.1515
  770MOL0     H 3925  10.465   2.994   9.530 -1.2283  0.1672  0.8203
  770MOL0     H 3926  10.581   3.143   9.291 -4.8230  1.2554  3.0472
  770MOL0     H 3927  10.538   2.971   9.284  2.5561 -3.1186  1.0777
  770MOL0     H 3928  10.735   3.054   9.493 -0.1263 -0.6697  0.4995
  770MOL0     H 3929  10.685   2.902   9.432  2.3394 -0.9374  0.7490
  770MOL0     H 3930   9.579   3.123   9.389 -0.4664 -0.4066 -0.2663
  770MOL0     H 3931   9.367   3.050   9.384 -1.7685 -1.1118  1.9659
  770MOL0     H 3932   9.114   2.766   9.095  1.2341  1.3675  1.5239
  770MOL0     H 3933   8.881   2.712   9.047  0.4693 -1.2587 -0.5320
  770MOL0     H 3934   8.563   3.033   9.391  0.8748  1.9104  0.8537
  770MOL0     H 3935   8.775   3.150   9.387  1.6988  1.5788 -1.7174
  770MOL0     H 3936   9.037   3.451   9.230  1.6545  0.6507  1.8513
  770MOL0     H 3937   9.234   3.581   9.247  1.9576 -1.2504  3.7733
  770MOL0     H 3938   9.442   3.687   9.072 -0.8330  0.8448 -1.4610
  770MOL0     H 3939   9.428   3.565   8.965  0.0967  0.8569  0.6417
  770MOL0     H 3940   9.697   3.524   9.036  0.8377  0.7093  0.9136
  770MOL0     H 3941   9.671   3.692   9.098  0.2090 -1.6155  2.2904
  770MOL0     H 3942   9.623   3.775   8.903  0.5186  0.2526 -1.5242
  770MOL0     H 3943   9.616   3.620   8.807 -1.3575  1.7346  0.3481
  770MOL0     H 3944   9.868   3.736   8.920 -0.3252 -0.1492 -0.9249
  770MOL0     H 3945   9.831   3.579   8.838  3.8193  0.3417  1.5690
  770MOL0     H 3946   9.877   3.844   8.518  2.0002  1.4643  0.8840
  770MOL0     H 3947   9.462   3.260   9.069 -1.6541 -2.0422  0.8697
  770MOL0     H 3948   9.377   3.035   9.074 -1.5285 -2.0477 -0.2271
  770MOL0     H 3949   9.219   3.002   9.131 -3.1340 -0.1229 -2.4229
  770MOL0     H 3950   9.238   3.054   8.966  1.5463 -0.3295  0.2008
  771MOL0     O 3951   4.058   3.791   1.717  0.1448 -0.3419 -0.2512
  771MOL0     C 3952   4.119   3.793   1.826  0.0493  0.1186 -0.1217
  771MOL0     O 3953   4.149   3.916   1.899  0.5802  0.0048  1.1138
  771MOL0     C 3954   4.099   4.032   1.851 -0.8850 -0.2082 -0.1156
  771MOL0     C 3955   3.967   4.054   1.841  0.4045 -0.5419 -0.1028
  771MOL0     C 3956   3.915   4.183   1.805 -1.3146  0.0511 -0.1434
  771MOL0     C 3957   4.007   4.282   1.773  0.4708  1.0493  0.3561
  771MOL0     O 3958   3.948   4.398   1.730  0.0325  0.4872  0.2734
  771MOL0     C 3959   3.994   4.459   1.607 -0.3562  0.9484  0.5563
  771MOL0     C 3960   4.071   4.594   1.640 -0.0384  0.0623  1.0959
  771MOL0     C 3961   3.996   4.692   1.718 -1.2591  0.4480 -0.6042
  771MOL0     C 3962   4.074   4.833   1.745  0.3190 -0.2014  0.1527
  771MOL0     C 3963   4.193   4.825   1.850  0.2130  0.5053 -0.0412
  771MOL0     C 3964   4.259   4.963   1.875  0.2455  0.1772  0.4954
  771MOL0     C 3965   4.404   4.944   1.899 -1.1196  0.7079  0.5487
  771MOL0     C 3966   4.477   5.076   1.942  0.0706  0.5194 -0.2026
  771MOL0     N 3967   4.616   5.031   1.939  0.0032  0.3579 -0.3805
  771MOL0     C 3968   4.708   5.058   1.830  0.2865 -0.8794 -0.7342
  771MOL0     C 3969   4.832   5.026   1.885  0.5773 -0.3125 -0.7370
  771MOL0     C 3970   4.976   5.030   1.840  0.3301  0.4019  0.5552
  771MOL0     C 3971   5.063   5.144   1.905 -0.1358  1.0974 -0.6995
  771MOL0     C 3972   5.209   5.123   1.864 -0.1885 -0.0019  0.0186
  771MOL0     C 3973   5.310   5.235   1.911 -0.1008 -0.4244  0.3147
  771MOL0     O 3974   5.441   5.180   1.889  0.4462 -0.2158  0.5516
  771MOL0     C 3975   5.541   5.233   1.974 -0.2124  0.0210  0.6806
  771MOL0     C 3976   5.668   5.172   1.963 -0.7318 -0.1092 -0.7999
  771MOL0     C 3977   5.772   5.209   2.046 -0.0802 -0.1700  0.2081
  771MOL0     C 3978   5.759   5.312   2.141  0.6642  0.0794  0.8681
  771MOL0     C 3979   5.874   5.363   2.216 -0.0019 -0.7930  0.3832
  771MOL0     O 3980   5.996   5.296   2.203 -0.0791  0.2657  0.3255
  771MOL0     C 3981   6.096   5.332   2.280 -0.3510 -0.8108  0.6618
  771MOL0     C 3982   6.211   5.377   2.217 -0.1321 -0.3610  0.1081
  771MOL0     C 3983   6.311   5.441   2.296  0.0087 -0.1335  0.9275
  771MOL0     C 3984   6.310   5.444   2.437  0.7327 -0.3908 -0.1489
  771MOL0     O 3985   6.406   5.479   2.525  0.3786  0.5751 -0.1948
  771MOL0     C 3986   6.507   5.562   2.477 -0.3888 -0.0682  0.0616
  771MOL0     C 3987   6.558   5.650   2.592 -0.5900 -1.0711  0.5148
  771MOL0     C 3988   6.698   5.709   2.568  0.3823  0.2966  0.0943
  771MOL0     C 3989   6.692   5.807   2.444 -0.3090  0.9639 -0.3512
  771MOL0     C 3990   6.834   5.878   2.429  0.3391  0.7662  0.4850
  771MOL0     C 3991   6.839   5.963   2.312 -1.2393 -0.1199  0.3924
  771MOL0     C 3992   6.846   5.896   2.165 -0.5729  0.1306  0.2953
  771MOL0     C 3993   6.739   5.964   2.074  0.2710 -0.3755 -0.1549
  771MOL0    Cl 3994   6.568   5.922   2.112 -0.1584 -0.0763  0.1254
  771MOL0     C 3995   6.192   5.387   2.499 -0.0866 -0.3581  0.2921
  771MOL0     C 3996   6.094   5.339   2.421  1.1592  0.3301  0.3031
  771MOL0     O 3997   5.855   5.456   2.296  0.4795  0.8766 -0.6037
  771MOL0     C 3998   5.633   5.372   2.153 -0.3546  1.0780 -1.7635
  771MOL0     C 3999   5.523   5.329   2.071 -0.3257 -0.2988 -0.7079
  771MOL0     N 4000   4.807   4.976   2.018 -0.3888  0.2259 -0.0059
  771MOL0     N 4001   4.681   4.952   2.036  0.3467 -0.7253  0.0500
  771MOL0     C 4002   4.136   4.253   1.760 -0.2676  1.1669  0.3378
  771MOL0     C 4003   4.188   4.133   1.805  1.5302  0.0947  0.0718
  771MOL0     C 4004   4.197   3.673   1.883 -0.1133  0.3685  0.1900
  771MOL0     C 4005   4.313   3.678   1.960  1.0652 -0.7525 -0.2209
  771MOL0     C 4006   4.388   3.554   1.986 -0.2959  0.5451  0.5678
  771MOL0     C 4007   4.335   3.423   1.962  0.1246  0.3173  0.5037
  771MOL0     O 4008   4.390   3.307   1.992  0.1095 -0.0266 -0.6773
  771MOL0     C 4009   4.478   3.248   1.899  0.0841 -0.6607 -0.4826
  771MOL0     C 4010   4.593   3.172   1.967 -0.0468 -0.1015 -0.5455
  771MOL0     C 4011   4.667   3.251   2.070 -0.2384 -0.3089  0.4785
  771MOL0     C 4012   4.795   3.187   2.119 -0.3040  0.3050  0.1600
  771MOL0     C 4013   4.899   3.169   2.008 -0.5751 -0.1545  0.0700
  771MOL0     C 4014   4.978   3.138   1.920  0.3589  0.8131  0.7784
  771MOL0     C 4015   4.212   3.426   1.904  0.7932 -0.5214  0.1247
  771MOL0     C 4016   4.139   3.540   1.856 -0.7570 -0.0686 -0.7088
  771MOL0     C 4017   4.011   3.521   1.781 -0.5647  0.1822 -0.4261
  771MOL0     H 4018   3.907   3.971   1.876 -0.5667  0.2864  0.2346
  771MOL0     H 4019   3.811   4.210   1.787 -0.7532  0.3832 -3.6925
  771MOL0     H 4020   4.060   4.400   1.544  1.4204  4.4547 -1.1613
  771MOL0     H 4021   3.904   4.486   1.551  0.8909  1.2481 -1.3671
  771MOL0     H 4022   4.106   4.637   1.545 -1.1265  2.9817  1.8800
  771MOL0     H 4023   4.163   4.580   1.696  1.4527 -3.5208 -1.8657
  771MOL0     H 4024   3.983   4.649   1.817 -1.5422 -1.3436 -1.3811
  771MOL0     H 4025   3.895   4.704   1.679 -3.3153 -0.4255  3.8343
  771MOL0     H 4026   4.117   4.859   1.648 -1.7683 -1.9084 -1.3250
  771MOL0     H 4027   3.996   4.903   1.775  0.0322 -1.0315  1.4445
  771MOL0     H 4028   4.159   4.781   1.944 -0.7582 -0.1011 -0.6587
  771MOL0     H 4029   4.270   4.758   1.811  0.5622 -0.4507  2.1187
  771MOL0     H 4030   4.251   5.034   1.792  3.1387 -0.5206 -0.4976
  771MOL0     H 4031   4.216   5.006   1.966 -0.6646 -1.0508  0.6805
  771MOL0     H 4032   4.436   4.915   1.799 -1.3594 -1.5043  1.0649
  771MOL0     H 4033   4.424   4.857   1.962  0.2817 -2.2779 -3.6062
  771MOL0     H 4034   4.460   5.157   1.872 -0.2627  1.8969  1.4071
  771MOL0     H 4035   4.448   5.103   2.044  1.3139 -3.3876  1.3815
  771MOL0     H 4036   4.679   5.097   1.733 -2.0120  1.3844  0.7435
  771MOL0     H 4037   5.010   4.932   1.876 -0.3105  0.1129  0.3907
  771MOL0     H 4038   4.993   5.027   1.732  0.2641  1.6048  0.4948
  771MOL0     H 4039   5.026   5.239   1.865  0.2639  0.7182 -2.0098
  771MOL0     H 4040   5.051   5.148   2.014 -3.6877  0.5749 -0.9520
  771MOL0     H 4041   5.219   5.125   1.755 -1.2992 -0.1723 -0.1051
  771MOL0     H 4042   5.246   5.033   1.913  0.2369 -0.2205 -0.6810
  771MOL0     H 4043   5.278   5.262   2.012 -1.2128 -0.1516 -0.1012
  771MOL0     H 4044   5.303   5.328   1.855  3.6694  0.2173  0.6627
  771MOL0     H 4045   5.693   5.085   1.903  2.6280  1.1448 -1.4153
  771MOL0     H 4046   5.869   5.163   2.026 -0.4792  0.6312 -4.7293
  771MOL0     H 4047   6.212   5.368   2.108 -1.6871 -0.1713  0.0643
  771MOL0     H 4048   6.405   5.474   2.252  0.6253 -0.8757  1.6315
  771MOL0     H 4049   6.591   5.497   2.450 -0.6878 -1.7609  2.8106
  771MOL0     H 4050   6.482   5.610   2.382 -2.3388 -4.2910 -1.7967
  771MOL0     H 4051   6.491   5.734   2.614  0.6021  0.8101 -2.3922
  771MOL0     H 4052   6.550   5.588   2.682 -2.8604  2.4474  3.0130
  771MOL0     H 4053   6.727   5.771   2.653  0.7636 -0.8274  0.8085
  771MOL0     H 4054   6.761   5.620   2.571  1.0737  0.7584 -0.5200
  771MOL0     H 4055   6.612   5.880   2.463 -1.3624  0.2532 -1.8680
  771MOL0     H 4056   6.662   5.758   2.351  4.3627 -0.5119 -1.3284
  771MOL0     H 4057   6.907   5.797   2.417 -0.6526 -0.8209  3.8514
  771MOL0     H 4058   6.866   5.933   2.518  3.1450 -0.8632  0.6053
  771MOL0     H 4059   6.742   6.014   2.314 -2.1886 -1.4339 -3.2527
  771MOL0     H 4060   6.916   6.040   2.317 -0.7550 -0.5992  0.3405
  771MOL0     H 4061   6.832   5.787   2.164 -2.8174  0.3506  1.2932
  771MOL0     H 4062   6.937   5.933   2.117 -0.9389  1.1510  0.3586
  771MOL0     H 4063   6.753   6.072   2.075  1.3972 -0.4312  3.3969
  771MOL0     H 4064   6.763   5.930   1.972 -3.8124 -1.0125 -1.0803
  771MOL0     H 4065   6.188   5.383   2.607  3.9638 -1.4794  0.5511
  771MOL0     H 4066   6.009   5.293   2.471  0.4304 -0.5305 -1.6346
  771MOL0     H 4067   5.625   5.434   2.242 -4.1224 -1.9728  0.3414
  771MOL0     H 4068   5.424   5.365   2.095  0.4232  1.4168 -0.0247
  771MOL0     H 4069   4.216   4.316   1.724  2.8731 -2.6711 -0.0733
  771MOL0     H 4070   4.295   4.130   1.791  1.2182  0.8418 -3.9638
  771MOL0     H 4071   4.354   3.775   1.985  1.6924 -1.2469  0.7016
  771MOL0     H 4072   4.483   3.550   2.038  0.1725 -2.0303 -0.3183
  771MOL0     H 4073   4.528   3.327   1.843 -1.5221 -0.5513 -1.8439
  771MOL0     H 4074   4.427   3.190   1.821 -0.9400  1.0901 -1.1837
  771MOL0     H 4075   4.654   3.136   1.884 -0.8719  1.6115 -1.9661
  771MOL0     H 4076   4.560   3.088   2.028 -1.6580  0.9372  0.0756
  771MOL0     H 4077   4.617   3.272   2.165  2.1841 -2.4861  2.3753
  771MOL0     H 4078   4.687   3.348   2.022 -1.9608 -2.3074 -5.0964
  771MOL0     H 4079   4.840   3.247   2.199 -0.9604 -0.6605  1.2923
  771MOL0     H 4080   4.770   3.093   2.168 -2.7239  2.2735  3.1005
  771MOL0     H 4081   5.065   3.131   1.857  0.5960  1.0351  1.0770
  771MOL0     H 4082   4.161   3.330   1.904 -0.9469  0.3119 -2.0297
  771MOL0     H 4083   3.983   3.416   1.790  0.6393 -0.2434 -1.2935
  771MOL0     H 4084   3.935   3.585   1.828 -2.3276 -3.5742  2.3135
  771MOL0     H 4085   4.032   3.545   1.676 -1.7199  1.8324 -0.3287
  772MOL0     O 4086   1.569   5.389   9.126 -0.6514 -0.0430  0.7043
  772MOL0     C 4087   1.484   5.461   9.077  0.4397 -0.8124 -0.1377
  772MOL0     O 4088   1.507   5.550   8.969 -0.6645 -0.2622  0.1542
  772MOL0     C 4089   1.622   5.535   8.893 -0.0696  0.3023 -0.5504
  772MOL0     C 4090   1.607   5.508   8.754 -0.8685 -0.0740 -0.5166
  772MOL0     C 4091   1.714   5.481   8.676  0.3144  0.8122  0.6264
  772MOL0     C 4092   1.848   5.489   8.728  1.2561 -0.4286  0.8456
  772MOL0     O 4093   1.963   5.461   8.656  0.3743  0.2114  0.0234
  772MOL0     C 4094   1.952   5.368   8.553 -0.1906 -0.2232  0.7943
  772MOL0     C 4095   1.934   5.219   8.612 -0.7340  0.1186 -0.3450
  772MOL0     C 4096   2.067   5.148   8.652  0.3681  0.7542 -0.0133
  772MOL0     C 4097   2.128   5.219   8.779 -0.3903  0.4336 -0.0910
  772MOL0     C 4098   2.239   5.127   8.827  0.1543  0.9271  0.2110
  772MOL0     C 4099   2.364   5.088   8.738 -0.5009 -0.2262 -0.0011
  772MOL0     C 4100   2.415   4.943   8.771 -0.5215 -0.8764  0.0270
  772MOL0     C 4101   2.568   4.917   8.750  0.4623  0.6755  1.0023
  772MOL0     N 4102   2.611   4.935   8.608  0.1027 -0.7344  0.2354
  772MOL0     C 4103   2.541   4.893   8.493  0.1713 -0.4987 -0.7496
  772MOL0     C 4104   2.629   4.910   8.392 -0.1451 -0.1833 -0.0918
  772MOL0     C 4105   2.595   4.853   8.258  0.4459  1.0684  0.1510
  772MOL0     C 4106   2.498   4.930   8.169 -0.0083  0.0795  0.1894
  772MOL0     C 4107   2.480   4.833   8.045  0.9892  0.7466 -0.0683
  772MOL0     C 4108   2.405   4.905   7.930 -0.2883 -0.1615 -0.7957
  772MOL0     O 4109   2.280   4.962   7.968 -0.2368  0.0411  0.9545
  772MOL0     C 4110   2.194   5.007   7.867  0.0384  0.9240  0.5656
  772MOL0     C 4111   2.241   5.043   7.741  0.7551 -0.1747  0.4721
  772MOL0     C 4112   2.145   5.076   7.643  0.5812 -0.1145 -0.1764
  772MOL0     C 4113   2.004   5.081   7.664 -0.2047 -0.9878 -0.8683
  772MOL0     C 4114   1.909   5.129   7.565  0.3770  0.2397  0.1910
  772MOL0     O 4115   1.960   5.239   7.496  0.1965 -0.2102 -0.2650
  772MOL0     C 4116   1.871   5.288   7.405  0.8753 -0.1784  0.7711
  772MOL0     C 4117   1.893   5.274   7.263  0.0358  0.7056  0.5006
  772MOL0     C 4118   1.801   5.311   7.170 -0.5445 -0.2911  0.0249
  772MOL0     C 4119   1.698   5.408   7.199 -0.8443  0.1140  0.6020
  772MOL0     O 4120   1.613   5.473   7.109  0.2222 -0.2390 -0.8036
  772MOL0     C 4121   1.587   5.409   6.986  0.3105  0.5113 -0.8661
  772MOL0     C 4122   1.691   5.455   6.881  0.1678  1.3448  0.6623
  772MOL0     C 4123   1.684   5.372   6.754 -0.1228 -0.8668 -0.4729
  772MOL0     C 4124   1.766   5.427   6.642  0.7041  0.3461 -0.5724
  772MOL0     C 4125   1.730   5.374   6.507 -0.3618  0.4167 -0.1748
  772MOL0     C 4126   1.574   5.368   6.476  0.1983 -0.2326 -0.4295
  772MOL0     C 4127   1.560   5.357   6.322 -0.1897  0.0236 -0.5799
  772MOL0     C 4128   1.627   5.235   6.263 -0.1994 -0.4248 -0.2539
  772MOL0    Cl 4129   1.576   5.074   6.327 -0.3156  0.0817 -0.4097
  772MOL0     C 4130   1.669   5.425   7.334 -0.9080  0.3553 -0.4600
  772MOL0     C 4131   1.751   5.355   7.436  0.8931 -0.2328 -0.6177
  772MOL0     O 4132   1.794   5.089   7.559 -0.0712  0.2408  0.1246
  772MOL0     C 4133   1.956   5.063   7.796 -0.4343 -0.8429  0.1754
  772MOL0     C 4134   2.052   5.027   7.891  0.6087 -0.6142  0.0857
  772MOL0     N 4135   2.755   4.947   8.445 -0.0969  0.3879 -0.0048
  772MOL0     N 4136   2.740   4.963   8.575  0.7956 -0.6825  0.3598
  772MOL0     C 4137   1.865   5.505   8.861 -0.1800  0.1150 -0.3071
  772MOL0     C 4138   1.749   5.527   8.947 -0.5196 -0.1644 -0.7307
  772MOL0     C 4139   1.344   5.444   9.141  0.6462  0.6690  0.7853
  772MOL0     C 4140   1.327   5.344   9.238  0.5228 -0.8905 -0.3236
  772MOL0     C 4141   1.212   5.331   9.307 -0.8908  0.6049 -0.2365
  772MOL0     C 4142   1.102   5.415   9.284 -0.3054 -1.1718  0.1028
  772MOL0     O 4143   0.991   5.422   9.356 -0.1496 -0.2528 -0.0165
  772MOL0     C 4144   0.960   5.341   9.465  0.3743  0.0064 -0.4052
  772MOL0     C 4145   0.806   5.360   9.492 -0.6613  0.1418  0.0689
  772MOL0     C 4146   0.753   5.316   9.627  0.1042 -0.6062  0.5340
  772MOL0     C 4147   0.738   5.166   9.655  0.2348  0.9234 -0.7912
  772MOL0     C 4148   0.696   5.152   9.790 -0.0998  0.8708  0.0230
  772MOL0     C 4149   0.635   5.157   9.894  0.3709  0.4030 -0.3948
  772MOL0     C 4150   1.116   5.504   9.185  0.0583 -0.7074  0.5458
  772MOL0     C 4151   1.233   5.529   9.116 -0.5608  0.5910  0.2855
  772MOL0     C 4152   1.232   5.634   9.004  0.0729 -0.7920  0.0865
  772MOL0     H 4153   1.507   5.503   8.711 -1.0731 -2.7176  0.0498
  772MOL0     H 4154   1.717   5.456   8.571  3.1455 -1.9979  1.2220
  772MOL0     H 4155   1.876   5.395   8.479 -0.3416  0.4656  1.1904
  772MOL0     H 4156   2.043   5.374   8.492 -0.2620  1.3074  0.7922
  772MOL0     H 4157   1.873   5.171   8.535 -0.8720  2.8466 -2.0542
  772MOL0     H 4158   1.877   5.217   8.706  1.0115 -1.8318  0.7662
  772MOL0     H 4159   2.141   5.152   8.571  0.0880 -1.2633 -0.4029
  772MOL0     H 4160   2.057   5.040   8.667  2.6509  0.5945  0.7255
  772MOL0     H 4161   2.171   5.311   8.738  2.0142 -1.5564 -2.3867
  772MOL0     H 4162   2.044   5.234   8.848 -1.7607 -1.5185 -1.2144
  772MOL0     H 4163   2.285   5.157   8.921  0.2478  0.0469  0.4590
  772MOL0     H 4164   2.179   5.036   8.840 -0.7814  0.7640 -3.8291
  772MOL0     H 4165   2.349   5.093   8.630  0.6123  1.0405 -0.1281
  772MOL0     H 4166   2.432   5.168   8.768 -2.0516  0.0457  3.2430
  772MOL0     H 4167   2.356   4.865   8.723 -0.2506 -1.8998  1.2926
  772MOL0     H 4168   2.405   4.930   8.879  0.8371 -0.7272  0.1890
  772MOL0     H 4169   2.631   4.987   8.807  2.3456 -1.5070  1.7546
  772MOL0     H 4170   2.607   4.821   8.786  0.7933 -0.2686 -1.6781
  772MOL0     H 4171   2.443   4.848   8.487  0.1255 -0.4372 -0.4936
  772MOL0     H 4172   2.685   4.860   8.196 -0.5851  0.9090 -1.4374
  772MOL0     H 4173   2.564   4.752   8.286  3.7112  0.6678  3.0533
  772MOL0     H 4174   2.396   4.944   8.206 -0.7706 -1.7546 -1.0605
  772MOL0     H 4175   2.536   5.031   8.147  1.2912  0.2147  2.6535
  772MOL0     H 4176   2.422   4.746   8.076 -1.0599  2.3996  0.9358
  772MOL0     H 4177   2.573   4.781   8.018 -0.6211 -0.7602 -3.3095
  772MOL0     H 4178   2.387   4.851   7.837 -0.9666 -1.5735  0.1284
  772MOL0     H 4179   2.470   4.991   7.908  2.6102 -1.1235  2.9568
  772MOL0     H 4180   2.345   5.044   7.711  0.2230  0.9816 -1.5327
  772MOL0     H 4181   2.175   5.112   7.545 -2.6991  0.5114 -1.0619
  772MOL0     H 4182   1.982   5.214   7.242  2.2624  3.6055  0.9786
  772MOL0     H 4183   1.821   5.281   7.067 -0.8010  1.6332 -0.6237
  772MOL0     H 4184   1.591   5.301   7.005 -1.4961  0.4606 -0.6682
  772MOL0     H 4185   1.485   5.419   6.950  0.5143 -1.0792 -1.9924
  772MOL0     H 4186   1.663   5.559   6.864 -0.1335  0.9719 -1.3984
  772MOL0     H 4187   1.794   5.456   6.918  1.2465  2.4948 -2.0960
  772MOL0     H 4188   1.713   5.267   6.766 -0.2139 -0.9107 -0.6346
  772MOL0     H 4189   1.577   5.370   6.731 -0.8087 -1.8415  2.3676
  772MOL0     H 4190   1.871   5.403   6.663  0.8361  0.8967 -0.5981
  772MOL0     H 4191   1.742   5.533   6.650 -1.4458 -0.2323  2.5835
  772MOL0     H 4192   1.761   5.269   6.510 -0.7015  0.2506 -1.6487
  772MOL0     H 4193   1.800   5.407   6.430  2.3312 -2.6778  0.7327
  772MOL0     H 4194   1.533   5.279   6.525  0.0874 -0.1285 -0.3345
  772MOL0     H 4195   1.516   5.452   6.515 -1.6260 -2.1438  1.2072
  772MOL0     H 4196   1.593   5.453   6.282  3.3525 -0.4194  0.9147
  772MOL0     H 4197   1.456   5.337   6.295  0.3463 -1.9952 -1.3294
  772MOL0     H 4198   1.606   5.232   6.156 -2.4815 -2.0903  0.1487
  772MOL0     H 4199   1.733   5.258   6.274 -0.0747 -1.6650  1.8027
  772MOL0     H 4200   1.578   5.482   7.351 -0.9137  1.1519 -2.7326
  772MOL0     H 4201   1.728   5.361   7.542 -3.6921 -0.0928 -1.4024
  772MOL0     H 4202   1.856   5.069   7.839  1.0334 -2.4052  4.2657
  772MOL0     H 4203   2.009   5.003   7.988 -0.5861 -1.0380 -0.5362
  772MOL0     H 4204   1.964   5.522   8.901 -0.1023  0.3416 -0.5991
  772MOL0     H 4205   1.758   5.528   9.055 -1.2384  0.8047 -0.6669
  772MOL0     H 4206   1.413   5.282   9.261 -0.5800 -3.5496 -2.8088
  772MOL0     H 4207   1.203   5.267   9.394  3.1502  1.3224  0.9087
  772MOL0     H 4208   1.018   5.378   9.550  2.1939  0.4678 -1.7758
  772MOL0     H 4209   0.983   5.235   9.455  3.5275  0.6323 -0.9968
  772MOL0     H 4210   0.745   5.319   9.411  0.5615  1.4465 -1.5824
  772MOL0     H 4211   0.796   5.468   9.487 -0.7500  0.0724 -1.8461
  772MOL0     H 4212   0.657   5.365   9.647  0.3386 -0.7860  2.3214
  772MOL0     H 4213   0.819   5.362   9.701  0.0057 -0.4072  0.4992
  772MOL0     H 4214   0.662   5.116   9.593 -1.0547  1.2108  0.4960
  772MOL0     H 4215   0.838   5.124   9.649  0.2063  0.2747  1.9539
  772MOL0     H 4216   0.587   5.148   9.989 -2.2630 -1.8738 -1.7983
  772MOL0     H 4217   1.028   5.561   9.155 -0.0800 -0.2919  1.6953
  772MOL0     H 4218   1.308   5.709   9.029  0.1317 -1.1678  1.0601
  772MOL0     H 4219   1.244   5.597   8.901 -2.0242 -1.0350 -0.1112
  772MOL0     H 4220   1.143   5.696   9.009  0.3844 -0.2490 -0.8450
  773MOL0     O 4221   1.678  10.059   9.586  0.9449  0.1952  0.0950
  773MOL0     C 4222   1.783  10.001   9.573  1.1865  0.6699 -0.3524
  773MOL0     O 4223   1.838   9.914   9.660  0.3208  0.0768  0.2096
  773MOL0     C 4224   1.755   9.849   9.736  1.0158  0.3082 -0.1425
  773MOL0     C 4225   1.628   9.783   9.702 -0.6915 -0.1217  0.5546
  773MOL0     C 4226   1.566   9.690   9.792  0.3287  0.3892  0.5652
  773MOL0     C 4227   1.631   9.663   9.914 -0.2337  0.5295  0.9459
  773MOL0     O 4228   1.594   9.556  10.000  0.4752  0.1962 -0.0643
  773MOL0     C 4229   1.613   9.560  10.141 -0.2859  0.5321  0.5192
  773MOL0     C 4230   1.534   9.446  10.213  1.4617  0.1638  0.0478
  773MOL0     C 4231   1.531   9.303  10.159 -0.0732 -0.0660  0.5602
  773MOL0     C 4232   1.534   9.201  10.280 -0.9600  0.5666 -0.1726
  773MOL0     C 4233   1.547   9.053  10.237 -0.0763 -0.3538  0.4170
  773MOL0     C 4234   1.623   8.969  10.336 -0.1826 -0.3962 -0.7376
  773MOL0     C 4235   1.544   8.950  10.464  0.4863  0.0931 -0.0781
  773MOL0     C 4236   1.604   8.862  10.574 -0.3364 -0.2672  0.7479
  773MOL0     N 4237   1.643   8.735  10.516 -0.0887  1.1441 -0.0296
  773MOL0     C 4238   1.759   8.696  10.466 -0.5011  0.2484  0.5066
  773MOL0     C 4239   1.755   8.558  10.453 -0.0196 -0.8184 -0.5158
  773MOL0     C 4240   1.854   8.471  10.392  0.8302  0.1162  0.1922
  773MOL0     C 4241   1.932   8.406  10.503 -0.1662  0.6489 -0.7188
  773MOL0     C 4242   2.035   8.507  10.556  0.9729  0.1161 -0.0295
  773MOL0     C 4243   2.126   8.448  10.661  0.0536  0.5477  0.0588
  773MOL0     O 4244   2.051   8.371  10.759  1.1634 -0.1082 -0.4853
  773MOL0     C 4245   2.113   8.279  10.843  0.2192  0.4380 -0.0503
  773MOL0     C 4246   2.250   8.261  10.854 -0.2675 -0.3635 -0.3534
  773MOL0     C 4247   2.299   8.160  10.940  1.1084 -0.1158 -0.1360
  773MOL0     C 4248   2.206   8.078  11.024  0.1901 -0.3864  0.7432
  773MOL0     C 4249   2.263   7.981  11.124  0.5340 -0.3171 -0.2723
  773MOL0     O 4250   2.388   7.999  11.159 -0.2596 -0.1983 -0.1299
  773MOL0     C 4251   2.461   7.909  11.232  0.7270 -0.6175  0.3116
  773MOL0     C 4252   2.420   7.781  11.265  0.4872 -0.2530  0.1217
  773MOL0     C 4253   2.489   7.710  11.357 -0.8131  1.2917 -0.7775
  773MOL0     C 4254   2.607   7.757  11.425  0.8509  0.0674  0.6312
  773MOL0     O 4255   2.669   7.685  11.523 -0.3139 -0.2128 -0.5317
  773MOL0     C 4256   2.651   7.745  11.662 -0.1944  0.2773 -0.7715
  773MOL0     C 4257   2.714   7.651  11.768  0.8917 -0.5835  0.3064
  773MOL0     C 4258   2.864   7.624  11.738  0.1630  0.1417 -0.1765
  773MOL0     C 4259   2.940   7.568  11.862 -0.6201  0.3119  0.3121
  773MOL0     C 4260   3.083   7.536  11.820  0.2681  0.5178  0.2696
  773MOL0     C 4261   3.161   7.524  11.951  0.6817 -0.2129 -1.1837
  773MOL0     C 4262   3.299   7.453  11.931  0.2406 -1.3392  0.2131
  773MOL0     C 4263   3.385   7.511  11.819 -0.0222  0.3840  0.5655
  773MOL0    Cl 4264   3.554   7.435  11.819 -0.2726 -0.1607  0.3319
  773MOL0     C 4265   2.636   7.894  11.398  0.2999  0.6421  0.2130
  773MOL0     C 4266   2.567   7.965  11.305 -0.7742  0.3804  0.7195
  773MOL0     O 4267   2.190   7.890  11.168 -0.0817 -0.0190  0.2103
  773MOL0     C 4268   2.072   8.106  11.013 -0.1162 -1.1145 -0.1709
  773MOL0     C 4269   2.030   8.212  10.931 -0.0424 -0.2641 -0.6404
  773MOL0     N 4270   1.627   8.522  10.502  0.3535  0.6542  0.0507
  773MOL0     N 4271   1.565   8.626  10.544 -0.0870  0.0411 -0.3040
  773MOL0     C 4272   1.749   9.731   9.954 -0.0761 -0.2168  0.9104
  773MOL0     C 4273   1.804   9.827   9.866  1.2737  0.0387 -0.3208
  773MOL0     C 4274   1.860  10.021   9.450 -0.9781 -0.4383 -0.3280
  773MOL0     C 4275   1.941   9.911   9.402  0.5253  0.0902  0.2462
  773MOL0     C 4276   2.033   9.928   9.299  0.0444  0.8586  0.0071
  773MOL0     C 4277   2.052  10.053   9.243 -0.0514  0.8016 -0.2432
  773MOL0     O 4278   2.138  10.059   9.135  0.2167 -0.5866 -0.0874
  773MOL0     C 4279   2.148  10.186   9.060  0.5761  0.0976 -0.7532
  773MOL0     C 4280   2.260  10.273   9.128  0.1561 -0.3188 -0.2455
  773MOL0     C 4281   2.243  10.413   9.085 -0.1430 -0.5694  0.5050
  773MOL0     C 4282   2.354  10.495   9.140 -0.2628 -0.6274  0.1113
  773MOL0     C 4283   2.321  10.640   9.131 -0.3473  0.6660 -0.2824
  773MOL0     C 4284   2.307  10.757   9.110  0.0480 -0.3267  0.0360
  773MOL0     C 4285   1.978  10.159   9.303 -0.5573 -1.4109  0.4193
  773MOL0     C 4286   1.875  10.150   9.399 -0.1486  1.4631 -0.0129
  773MOL0     C 4287   1.813  10.272   9.455  0.3580 -0.3859  0.4683
  773MOL0     H 4288   1.581   9.812   9.609 -0.5857 -0.5175  0.3758
  773MOL0     H 4289   1.468   9.657   9.760  0.9981  0.0988 -1.2613
  773MOL0     H 4290   1.718   9.545  10.166 -0.2744  0.6387  0.5312
  773MOL0     H 4291   1.576   9.655  10.180  1.6859 -0.0180  4.2093
  773MOL0     H 4292   1.429   9.477  10.213  1.5117  0.7080  3.6290
  773MOL0     H 4293   1.568   9.444  10.316 -0.2627 -1.5648  0.6495
  773MOL0     H 4294   1.623   9.292  10.102 -0.0633  2.1553  0.0600
  773MOL0     H 4295   1.448   9.273  10.094 -3.4199 -1.0120  4.7807
  773MOL0     H 4296   1.612   9.228  10.351  0.3283 -0.8656 -0.9821
  773MOL0     H 4297   1.440   9.214  10.335 -1.7625  0.6748 -1.5176
  773MOL0     H 4298   1.445   9.015  10.228 -2.0650  4.3040  0.2728
  773MOL0     H 4299   1.589   9.050  10.136 -0.4831  1.8921  0.1317
  773MOL0     H 4300   1.643   8.876  10.282 -1.2624  1.3672 -4.5393
  773MOL0     H 4301   1.715   9.018  10.370 -1.4340  1.7776 -0.2654
  773MOL0     H 4302   1.450   8.898  10.444  2.1723 -2.7953 -1.1688
  773MOL0     H 4303   1.520   9.047  10.507 -3.4732 -1.8469  2.7388
  773MOL0     H 4304   1.698   8.904  10.611  0.1428  0.0644 -0.7456
  773MOL0     H 4305   1.536   8.845  10.657 -0.3381 -1.3807  0.5298
  773MOL0     H 4306   1.837   8.769  10.444 -2.4807  3.2386  2.6572
  773MOL0     H 4307   1.794   8.395  10.340  0.2150 -0.7140  2.0454
  773MOL0     H 4308   1.908   8.529  10.316  1.6454  2.3905  2.3884
  773MOL0     H 4309   1.872   8.360  10.581  0.7438 -0.2002 -0.5055
  773MOL0     H 4310   1.989   8.326  10.454  2.0714  1.8790 -0.2982
  773MOL0     H 4311   1.991   8.601  10.591  0.4377 -0.1349 -0.0139
  773MOL0     H 4312   2.083   8.540  10.463 -1.3403 -1.1375 -1.7836
  773MOL0     H 4313   2.172   8.530  10.717 -1.0120  0.8816  0.4673
  773MOL0     H 4314   2.203   8.391  10.608  0.1519  0.9101 -0.1964
  773MOL0     H 4315   2.323   8.313  10.793  2.0105 -2.2441  0.5901
  773MOL0     H 4316   2.406   8.144  10.947  1.1272  0.3384  0.8717
  773MOL0     H 4317   2.333   7.732  11.220  0.2072  0.1184  0.2553
  773MOL0     H 4318   2.457   7.607  11.372 -3.4414  2.1928  0.5005
  773MOL0     H 4319   2.696   7.844  11.669 -0.1488  0.1998  0.2351
  773MOL0     H 4320   2.545   7.759  11.688  1.1153  1.3141  5.3868
  773MOL0     H 4321   2.703   7.707  11.861 -0.4134  1.5338 -1.0542
  773MOL0     H 4322   2.653   7.560  11.762 -0.3007  0.2613 -3.5514
  773MOL0     H 4323   2.879   7.552  11.658 -0.5213  2.0619 -2.1430
  773MOL0     H 4324   2.908   7.718  11.703 -0.5530  1.1587  1.5036
  773MOL0     H 4325   2.889   7.478  11.898 -0.1428  0.4302  1.2952
  773MOL0     H 4326   2.934   7.636  11.947 -0.5593 -2.6118  2.8073
  773MOL0     H 4327   3.125   7.607  11.748 -0.4141 -0.8058 -1.5080
  773MOL0     H 4328   3.088   7.432  11.786 -3.4120  0.7584 -1.5410
  773MOL0     H 4329   3.173   7.622  11.998  2.1200  0.3337 -2.5809
  773MOL0     H 4330   3.108   7.452  12.013  2.0306 -0.6996 -0.5561
  773MOL0     H 4331   3.280   7.347  11.915  1.3031 -1.4089 -0.6732
  773MOL0     H 4332   3.357   7.474  12.022  0.4622  1.6473 -0.5071
  773MOL0     H 4333   3.332   7.494  11.725 -1.4827 -0.3944  1.4935
  773MOL0     H 4334   3.394   7.620  11.824  0.3433  0.4109 -0.5552
  773MOL0     H 4335   2.719   7.943  11.449  1.4878  0.0637 -1.1194
  773MOL0     H 4336   2.595   8.069  11.291  1.9543 -0.4716 -1.0281
  773MOL0     H 4337   1.993   8.049  11.062 -2.7233 -0.4345 -3.2256
  773MOL0     H 4338   1.922   8.208  10.921 -0.3371  0.0364  1.7994
  773MOL0     H 4339   1.797   9.726  10.052  0.3554  2.8976  0.9469
  773MOL0     H 4340   1.887   9.892   9.891  0.1862  1.6410 -0.7798
  773MOL0     H 4341   1.942   9.809   9.440 -1.7365 -0.7840 -1.7722
  773MOL0     H 4342   2.085   9.845   9.253 -1.3492 -0.0793  0.0735
  773MOL0     H 4343   2.050  10.234   9.073  0.4614 -0.7291  1.8967
  773MOL0     H 4344   2.163  10.163   8.954  0.6632 -2.6972 -0.2114
  773MOL0     H 4345   2.348  10.219   9.094 -2.4182 -3.9089 -1.9045
  773MOL0     H 4346   2.252  10.255   9.236 -0.9090  1.4633  0.0051
  773MOL0     H 4347   2.149  10.452   9.124 -0.0572  3.2091 -2.4363
  773MOL0     H 4348   2.258  10.412   8.976  3.4134 -2.1807  0.8793
  773MOL0     H 4349   2.367  10.472   9.246 -1.5443  0.2395  0.4778
  773MOL0     H 4350   2.454  10.485   9.096  0.5844  2.2256  1.2092
  773MOL0     H 4351   2.274  10.859   9.099 -2.3844 -0.9104  1.2682
  773MOL0     H 4352   2.002  10.262   9.277 -2.6988 -1.1472 -0.7089
  773MOL0     H 4353   1.848  10.358   9.396  1.7589 -1.4580 -0.3208
  773MOL0     H 4354   1.704  10.273   9.450  0.3802  1.9109 -1.0525
  773MOL0     H 4355   1.857  10.276   9.556  0.9694 -2.5486  0.3414
  774MOL0     O 4356  10.885   2.302   3.459 -0.5157 -0.7018 -0.1866
  774MOL0     C 4357  10.916   2.234   3.355 -0.3650 -0.5212 -0.3614
  774MOL0     O 4358  10.973   2.279   3.238  0.0464 -0.4566 -0.6592
  774MOL0     C 4359  11.002   2.414   3.207  0.2257  0.4925 -0.0333
  774MOL0     C 4360  10.922   2.526   3.246 -0.7148  0.1463 -0.5252
  774MOL0     C 4361  10.971   2.653   3.218 -0.4755 -0.1177  0.8638
  774MOL0     C 4362  11.094   2.675   3.145  0.1443 -0.2412  0.0091
  774MOL0     O 4363  11.121   2.800   3.109  0.8913  0.1170  0.3743
  774MOL0     C 4364  11.256   2.826   3.082 -0.4919  0.1441 -0.6469
  774MOL0     C 4365  11.290   2.968   3.066  0.5942  0.6412  0.2899
  774MOL0     C 4366  11.245   3.044   3.195 -0.3528  0.5186  1.3545
  774MOL0     C 4367  11.238   3.200   3.172 -0.0283  0.4855  0.4207
  774MOL0     C 4368  11.174   3.273   3.288  0.7397 -0.6451  0.6197
  774MOL0     C 4369  11.263   3.272   3.412 -0.3807  0.2138  0.0716
  774MOL0     C 4370  11.195   3.331   3.537 -0.6573  0.0658  0.9545
  774MOL0     C 4371  11.168   3.480   3.535  0.0226 -1.2398 -0.5277
  774MOL0     N 4372  11.291   3.556   3.486  0.1766  0.2388 -0.0604
  774MOL0     C 4373  11.411   3.556   3.547  0.1950  0.4490  1.0651
  774MOL0     C 4374  11.479   3.644   3.473  0.0588 -0.2781  0.4613
  774MOL0     C 4375  11.625   3.683   3.482 -0.3370 -0.0317 -0.5136
  774MOL0     C 4376  11.639   3.802   3.573 -0.0489 -0.2192  0.5834
  774MOL0     C 4377  11.783   3.853   3.593  0.2589 -0.0287 -0.0769
  774MOL0     C 4378  11.791   3.977   3.678 -0.5750 -0.5556  0.5001
  774MOL0     O 4379  11.801   3.947   3.817 -0.5158  0.1967  0.1073
  774MOL0     C 4380  11.874   4.026   3.905  0.7528 -0.5597 -0.8641
  774MOL0     C 4381  11.839   4.014   4.044 -1.1191  0.2798  0.4293
  774MOL0     C 4382  11.913   4.081   4.143  0.2099  0.2149  0.9252
  774MOL0     C 4383  12.005   4.176   4.107 -0.4798  0.5019 -0.3346
  774MOL0     C 4384  12.065   4.265   4.207  0.2634  0.2718  0.0359
  774MOL0     O 4385  12.115   4.384   4.160 -0.3375 -0.0363  0.2892
  774MOL0     C 4386  12.184   4.470   4.249  0.3124  0.4275 -0.1053
  774MOL0     C 4387  12.132   4.597   4.276 -1.1239 -0.9778 -0.0208
  774MOL0     C 4388  12.197   4.686   4.364  0.8273 -0.0926  0.3654
  774MOL0     C 4389  12.310   4.648   4.431 -0.6668 -0.4446  0.4870
  774MOL0     O 4390  12.361   4.744   4.513 -0.1186 -0.4035  0.0496
  774MOL0     C 4391  12.453   4.691   4.608 -0.4883  0.1754 -0.2022
  774MOL0     C 4392  12.499   4.805   4.699  0.6465 -0.2513 -0.1235
  774MOL0     C 4393  12.531   4.769   4.840 -0.3020  1.8025 -0.4832
  774MOL0     C 4394  12.574   4.882   4.931  0.5974 -0.6343 -0.5461
  774MOL0     C 4395  12.593   4.836   5.081  0.3247 -0.0856 -0.0552
  774MOL0     C 4396  12.644   4.963   5.162  0.8658  0.0682 -0.3233
  774MOL0     C 4397  12.631   4.919   5.311 -0.2146 -0.8572  0.4143
  774MOL0     C 4398  12.695   5.031   5.401  0.5826 -0.3941  0.1018
  774MOL0    Cl 4399  12.628   4.994   5.559  0.9272  0.3283 -0.7042
  774MOL0     C 4400  12.372   4.528   4.390  1.0181  0.0826  0.0953
  774MOL0     C 4401  12.309   4.432   4.303  0.3651 -0.8493  0.5062
  774MOL0     O 4402  12.051   4.225   4.324 -0.4974  0.4515  0.1866
  774MOL0     C 4403  12.039   4.190   3.972  0.5778 -0.9442 -0.1992
  774MOL0     C 4404  11.973   4.117   3.875  0.3969  0.1066  0.5387
  774MOL0     N 4405  11.395   3.708   3.387 -0.2173  0.4702  1.4499
  774MOL0     N 4406  11.280   3.650   3.389  0.2262 -0.2268  0.7157
  774MOL0     C 4407  11.163   2.555   3.100  0.0667 -0.7934 -0.2160
  774MOL0     C 4408  11.124   2.429   3.137  0.6197  0.7533  0.4599
  774MOL0     C 4409  10.869   2.095   3.365 -0.0004  0.2645  0.7549
  774MOL0     C 4410  10.798   2.057   3.479  0.3210  0.1198  0.1832
  774MOL0     C 4411  10.752   1.929   3.508  0.4325  0.6906  0.8956
  774MOL0     C 4412  10.771   1.825   3.409 -0.0770  0.3253  0.0827
  774MOL0     O 4413  10.721   1.705   3.442  0.2898  0.5488  0.0375
  774MOL0     C 4414  10.797   1.621   3.532 -0.0199  0.6328  0.1606
  774MOL0     C 4415  10.874   1.512   3.459 -0.9280 -0.4314  0.0102
  774MOL0     C 4416  10.777   1.411   3.399 -0.4248 -0.2181 -0.4233
  774MOL0     C 4417  10.848   1.304   3.312  0.3283 -0.0188 -0.3599
  774MOL0     C 4418  10.735   1.231   3.242  0.1821  0.0271 -0.5544
  774MOL0     C 4419  10.644   1.165   3.199  0.2641 -0.5709 -0.4173
  774MOL0     C 4420  10.833   1.869   3.287 -0.1491 -0.6989  1.1717
  774MOL0     C 4421  10.886   1.998   3.263 -0.7158  0.4372 -0.2492
  774MOL0     C 4422  10.962   2.013   3.137 -0.2478  0.1804 -0.8359
  774MOL0     H 4423  10.827   2.512   3.298  0.4625 -2.1097  1.2033
  774MOL0     H 4424  10.921   2.742   3.254 -2.3073 -0.0301 -1.5950
  774MOL0     H 4425  11.316   2.795   3.169 -0.8326 -1.0870 -0.8307
  774MOL0     H 4426  11.296   2.773   2.995  4.1885  0.3049  1.0792
  774MOL0     H 4427  11.235   2.993   2.975  1.6980 -2.2551 -1.3040
  774MOL0     H 4428  11.396   2.982   3.042  2.1817  2.3502  6.5128
  774MOL0     H 4429  11.313   3.015   3.276 -1.5448 -0.4769  2.0301
  774MOL0     H 4430  11.145   3.010   3.224 -0.4958  1.3386  1.8587
  774MOL0     H 4431  11.333   3.246   3.142 -0.6985  0.2858 -2.2023
  774MOL0     H 4432  11.163   3.217   3.094  0.6068  2.7683  0.2309
  774MOL0     H 4433  11.156   3.379   3.265  1.4005 -0.3891  1.2555
  774MOL0     H 4434  11.077   3.227   3.311  0.0145 -1.6514 -3.6547
  774MOL0     H 4435  11.270   3.165   3.435 -1.1090 -0.3183 -1.9999
  774MOL0     H 4436  11.365   3.302   3.388 -0.3800  1.3972  1.3972
  774MOL0     H 4437  11.258   3.295   3.620 -0.0985 -0.2930  0.3855
  774MOL0     H 4438  11.096   3.285   3.542 -0.3730 -0.6188  0.4473
  774MOL0     H 4439  11.083   3.505   3.471 -0.3033 -1.4767 -0.1973
  774MOL0     H 4440  11.137   3.515   3.634 -0.9964 -0.3066 -1.1477
  774MOL0     H 4441  11.438   3.490   3.629 -3.2991  0.8011  2.6670
  774MOL0     H 4442  11.682   3.599   3.525 -2.4685 -0.9081  0.7637
  774MOL0     H 4443  11.663   3.700   3.381 -0.9768 -1.2876 -0.9883
  774MOL0     H 4444  11.573   3.878   3.531  0.0896  0.1234  0.9772
  774MOL0     H 4445  11.606   3.767   3.672 -0.5251 -2.1837 -0.2256
  774MOL0     H 4446  11.837   3.868   3.499  0.5782 -1.2844 -0.1160
  774MOL0     H 4447  11.835   3.772   3.644 -2.4467 -1.1698  1.0890
  774MOL0     H 4448  11.707   4.041   3.648  0.1372 -0.6095 -1.7683
  774MOL0     H 4449  11.881   4.030   3.644 -0.7108  0.2819  1.3857
  774MOL0     H 4450  11.758   3.951   4.079 -3.9901  1.0414 -3.9354
  774MOL0     H 4451  11.881   4.072   4.246 -1.4741 -0.0368  0.4025
  774MOL0     H 4452  12.049   4.630   4.214  0.4764 -0.0990 -1.8103
  774MOL0     H 4453  12.159   4.783   4.396 -0.3689  0.6180 -2.8063
  774MOL0     H 4454  12.405   4.618   4.675  3.1068  0.1096  2.6465
  774MOL0     H 4455  12.541   4.654   4.555  0.2758  2.6668 -0.7820
  774MOL0     H 4456  12.590   4.850   4.658 -1.6959  1.8254 -3.6186
  774MOL0     H 4457  12.422   4.883   4.703  0.4921 -0.3073 -1.5357
  774MOL0     H 4458  12.456   4.715   4.899  0.8803 -1.7530 -1.9231
  774MOL0     H 4459  12.619   4.704   4.834 -2.5137 -1.9625  2.4215
  774MOL0     H 4460  12.492   4.953   4.948  1.1609 -0.2002  0.4199
  774MOL0     H 4461  12.665   4.933   4.896 -0.4656 -0.2942 -3.0369
  774MOL0     H 4462  12.665   4.756   5.094 -0.7574 -1.0268  0.3004
  774MOL0     H 4463  12.496   4.803   5.121  1.2475 -0.2340  2.1946
  774MOL0     H 4464  12.748   4.993   5.144  1.0949  0.2179  1.1609
  774MOL0     H 4465  12.582   5.052   5.147  0.4468 -0.6396 -3.4533
  774MOL0     H 4466  12.694   4.830   5.321 -1.9499 -2.5149 -2.2012
  774MOL0     H 4467  12.527   4.890   5.322  0.1017 -3.0424 -1.5441
  774MOL0     H 4468  12.803   5.019   5.391  0.5801 -2.1012  1.6252
  774MOL0     H 4469  12.649   5.125   5.369  2.2954 -0.4190 -2.7888
  774MOL0     H 4470  12.465   4.488   4.428  0.5884 -1.0128  0.0342
  774MOL0     H 4471  12.368   4.342   4.288  2.2656  0.2314  1.0847
  774MOL0     H 4472  12.127   4.251   3.956  1.5349 -0.9662  3.8761
  774MOL0     H 4473  11.991   4.126   3.768 -0.9904  5.2352  0.4446
  774MOL0     H 4474  11.244   2.559   3.027 -0.3715  3.6551 -0.7099
  774MOL0     H 4475  11.173   2.335   3.111  0.9957  0.6780  1.3886
  774MOL0     H 4476  10.768   2.128   3.556 -1.2288  1.2928 -1.4379
  774MOL0     H 4477  10.702   1.902   3.601 -1.6413  0.6690 -0.1685
  774MOL0     H 4478  10.723   1.580   3.602 -1.9087  0.6927 -1.6999
  774MOL0     H 4479  10.872   1.682   3.584  1.7340 -0.4351 -1.0142
  774MOL0     H 4480  10.940   1.456   3.526  1.3522 -0.2082 -1.9302
  774MOL0     H 4481  10.926   1.571   3.384 -2.1589  3.1207  1.7387
  774MOL0     H 4482  10.702   1.471   3.347 -0.7738 -0.0158  0.2972
  774MOL0     H 4483  10.722   1.351   3.473 -2.2607  0.6361 -1.0343
  774MOL0     H 4484  10.924   1.341   3.242 -0.1139  0.3946 -0.6266
  774MOL0     H 4485  10.901   1.235   3.379 -0.7657  0.1479  0.6991
  774MOL0     H 4486  10.548   1.124   3.175 -0.8606  0.5900  1.8113
  774MOL0     H 4487  10.851   1.783   3.223  0.1726  1.3472 -1.6599
  774MOL0     H 4488  10.903   2.033   3.048 -1.2146 -2.1391 -0.7857
  774MOL0     H 4489  11.049   2.079   3.145 -0.0447 -0.1891  0.2433
  774MOL0     H 4490  11.016   1.922   3.110  0.7644  0.9427 -1.4628
  775MOL0     O 4491   9.570   9.480   4.520 -0.2057  0.2263 -0.6676
  775MOL0     C 4492   9.656   9.475   4.609  0.6297 -1.0112 -0.8304
  775MOL0     O 4493   9.658   9.561   4.726  0.1013 -0.1346  0.6654
  775MOL0     C 4494   9.557   9.652   4.753  0.9062 -0.2558  1.3541
  775MOL0     C 4495   9.470   9.712   4.656  0.1037 -0.4554 -0.2600
  775MOL0     C 4496   9.377   9.809   4.698  0.2340  0.2158  0.2619
  775MOL0     C 4497   9.372   9.843   4.836  0.1609  0.5062 -0.4778
  775MOL0     O 4498   9.302   9.938   4.893 -0.3623  0.5945 -0.4212
  775MOL0     C 4499   9.253  10.042   4.808  0.3083 -0.3343  0.1229
  775MOL0     C 4500   9.161  10.125   4.906 -0.5598  0.4569 -0.0737
  775MOL0     C 4501   9.020  10.065   4.919 -1.0304  0.6211  0.0047
  775MOL0     C 4502   8.949  10.139   5.030 -0.8018 -0.1178 -0.8099
  775MOL0     C 4503   8.918  10.291   5.008  0.0763 -0.3434  0.3513
  775MOL0     C 4504   8.801  10.342   5.097  0.5441  0.1445 -0.6209
  775MOL0     C 4505   8.664  10.275   5.063 -0.5274 -1.0085  0.1276
  775MOL0     C 4506   8.602  10.343   4.943  0.0287 -0.3351 -0.0833
  775MOL0     N 4507   8.454  10.321   4.929 -0.1289 -0.2360 -0.5006
  775MOL0     C 4508   8.353  10.390   5.004  0.1968 -0.1572  0.5313
  775MOL0     C 4509   8.233  10.354   4.951  0.1752 -0.0132  0.4798
  775MOL0     C 4510   8.093  10.399   5.004  0.2835  0.4024  0.0172
  775MOL0     C 4511   8.001  10.296   5.079  0.2779  0.0625  1.0476
  775MOL0     C 4512   7.920  10.214   4.980  0.5029  0.0593  0.2329
  775MOL0     C 4513   7.818  10.113   5.038  0.0381  0.5293  0.7246
  775MOL0     O 4514   7.752  10.051   4.928  0.2278  0.5600  0.0780
  775MOL0     C 4515   7.634   9.983   4.960  0.6135 -0.0038  0.1660
  775MOL0     C 4516   7.530   9.984   4.862 -0.0044 -0.5291 -0.3007
  775MOL0     C 4517   7.408   9.924   4.879  0.3054  0.2501 -0.2579
  775MOL0     C 4518   7.385   9.855   5.007 -0.3998  0.0876 -0.1400
  775MOL0     C 4519   7.260   9.787   5.051 -0.3695 -0.4213  0.9624
  775MOL0     O 4520   7.248   9.723   5.174 -0.1914  0.7022  0.2158
  775MOL0     C 4521   7.120   9.716   5.220  0.2525  0.5068  1.4135
  775MOL0     C 4522   7.035   9.605   5.186 -0.3658 -1.1311  0.2373
  775MOL0     C 4523   6.906   9.601   5.241 -0.0403 -0.1519 -0.5921
  775MOL0     C 4524   6.849   9.718   5.299  1.1324 -0.4896 -0.5247
  775MOL0     O 4525   6.718   9.705   5.333  0.8035 -0.9411  0.0848
  775MOL0     C 4526   6.674   9.763   5.462 -0.7088  0.2867  0.3659
  775MOL0     C 4527   6.538   9.812   5.469 -0.3020  0.5433  0.8306
  775MOL0     C 4528   6.433   9.725   5.395 -0.0908 -0.8726  0.8716
  775MOL0     C 4529   6.367   9.604   5.467  0.0430 -0.3434 -0.6342
  775MOL0     C 4530   6.289   9.639   5.598  0.1729 -0.3221  0.7146
  775MOL0     C 4531   6.194   9.539   5.665 -1.3119  0.7767  0.5932
  775MOL0     C 4532   6.072   9.524   5.575 -1.4456  0.3020 -0.3201
  775MOL0     C 4533   5.950   9.463   5.640 -0.5129  0.0215  0.6357
  775MOL0    Cl 4534   5.893   9.587   5.757  0.1414 -0.1560 -0.2383
  775MOL0     C 4535   6.928   9.834   5.318  0.4699 -0.0651  0.3396
  775MOL0     C 4536   7.067   9.821   5.299  0.0457 -0.7845 -0.6203
  775MOL0     O 4537   7.170   9.791   4.963  0.0770 -0.3019  0.1786
  775MOL0     C 4538   7.490   9.832   5.095  0.0989  0.4068  0.1914
  775MOL0     C 4539   7.616   9.894   5.073 -0.9822  0.2642  0.2906
  775MOL0     N 4540   8.261  10.264   4.849  0.7907 -0.8089  0.4225
  775MOL0     N 4541   8.392  10.245   4.833 -0.4354 -0.3069 -0.0244
  775MOL0     C 4542   9.445   9.772   4.928 -0.1441  0.2994 -0.9858
  775MOL0     C 4543   9.546   9.687   4.891  0.1634 -1.4199 -0.9301
  775MOL0     C 4544   9.747   9.357   4.610  0.1049 -0.8774  0.8375
  775MOL0     C 4545   9.788   9.292   4.733 -1.0311 -0.6686 -0.4530
  775MOL0     C 4546   9.889   9.200   4.741 -0.8340  0.9221  0.2051
  775MOL0     C 4547   9.955   9.158   4.631 -0.3519 -0.1582  0.9060
  775MOL0     O 4548  10.077   9.078   4.624 -0.1343  0.2988  0.1852
  775MOL0     C 4549  10.092   8.963   4.711 -0.0455  0.4073 -0.4026
  775MOL0     C 4550  10.245   8.939   4.713 -0.1917  0.4549 -0.3632
  775MOL0     C 4551  10.332   9.062   4.741  0.5644 -0.4197  0.1350
  775MOL0     C 4552  10.476   9.028   4.756  0.1881 -0.8756 -0.4118
  775MOL0     C 4553  10.548   9.145   4.807  0.5901 -0.5438  0.1211
  775MOL0     C 4554  10.595   9.238   4.872  1.6449 -0.1069 -0.4012
  775MOL0     C 4555   9.914   9.215   4.505 -0.2618 -0.0047 -0.5140
  775MOL0     C 4556   9.819   9.320   4.500  1.3876  1.0121  0.3913
  775MOL0     C 4557   9.799   9.373   4.360  0.0018 -0.1746  0.0508
  775MOL0     H 4558   9.456   9.671   4.557  0.2019 -1.2202  0.0361
  775MOL0     H 4559   9.306   9.854   4.630  1.2348  3.5020  1.2115
  775MOL0     H 4560   9.327  10.102   4.754  1.4683 -2.6759 -1.0525
  775MOL0     H 4561   9.197  10.006   4.722  2.9522  1.2569 -2.4554
  775MOL0     H 4562   9.156  10.225   4.861  2.5968  1.0994  0.7593
  775MOL0     H 4563   9.209  10.142   5.003  0.4690 -1.9864 -0.0744
  775MOL0     H 4564   9.042   9.961   4.945  0.6993  0.0766 -3.0780
  775MOL0     H 4565   8.971  10.065   4.821  1.9837 -2.0141 -1.6929
  775MOL0     H 4566   8.863  10.077   5.058  1.4370 -1.9491  2.7538
  775MOL0     H 4567   9.012  10.133   5.119  0.3988 -0.5869 -1.6694
  775MOL0     H 4568   9.006  10.354   5.024 -0.8158  0.3206  3.3597
  775MOL0     H 4569   8.900  10.312   4.903 -0.0798 -0.8280  0.2789
  775MOL0     H 4570   8.824  10.324   5.203  0.9811 -1.6716 -0.9899
  775MOL0     H 4571   8.789  10.451   5.101 -0.5112  0.0217 -0.2465
  775MOL0     H 4572   8.604  10.287   5.154  1.7399 -2.9652  2.0314
  775MOL0     H 4573   8.676  10.167   5.058  3.1969 -0.6892 -0.4810
  775MOL0     H 4574   8.629  10.449   4.939  1.1219 -0.5942  0.3302
  775MOL0     H 4575   8.654  10.304   4.855  0.3139 -3.3973  1.3390
  775MOL0     H 4576   8.350  10.448   5.095 -1.6372  0.1764  0.2936
  775MOL0     H 4577   8.101  10.485   5.070 -2.4816  0.5175  0.3325
  775MOL0     H 4578   8.042  10.450   4.922 -0.9751 -2.4087 -1.1076
  775MOL0     H 4579   8.059  10.233   5.146 -1.7195 -0.7523  2.0706
  775MOL0     H 4580   7.928  10.350   5.140 -0.8691  1.8898 -1.7356
  775MOL0     H 4581   7.985  10.155   4.915  0.1132  1.3127 -1.3854
  775MOL0     H 4582   7.858  10.274   4.912  0.5387 -1.0919 -0.8524
  775MOL0     H 4583   7.749  10.164   5.106  0.6839 -1.0511  2.6508
  775MOL0     H 4584   7.873  10.041   5.099 -0.9767 -0.8660  0.0254
  775MOL0     H 4585   7.549  10.039   4.771  3.1158  0.9773  1.1014
  775MOL0     H 4586   7.336   9.935   4.798 -0.5882  0.7249  0.5842
  775MOL0     H 4587   7.075   9.518   5.135  0.7072 -1.1778  1.1176
  775MOL0     H 4588   6.852   9.513   5.207 -0.2483  0.7513 -2.7870
  775MOL0     H 4589   6.681   9.686   5.539  0.1374  2.0995  2.1701
  775MOL0     H 4590   6.744   9.835   5.503 -1.1049  1.1685 -0.4578
  775MOL0     H 4591   6.505   9.821   5.573 -1.5422  0.4837  0.4531
  775MOL0     H 4592   6.527   9.905   5.413  0.7540  0.1167 -0.1253
  775MOL0     H 4593   6.355   9.795   5.363  3.3953  2.5959 -0.8863
  775MOL0     H 4594   6.470   9.687   5.299  0.5390  2.1009 -0.1839
  775MOL0     H 4595   6.445   9.533   5.496  0.4835 -0.0759 -1.1518
  775MOL0     H 4596   6.295   9.560   5.398  0.7711 -0.8405 -1.0867
  775MOL0     H 4597   6.233   9.730   5.574  1.0492 -0.2362 -1.1694
  775MOL0     H 4598   6.361   9.673   5.673 -0.6300  1.5522  0.7142
  775MOL0     H 4599   6.255   9.453   5.692 -2.4121 -0.5752 -0.9675
  775MOL0     H 4600   6.174   9.593   5.758 -0.5674 -1.7434  2.3066
  775MOL0     H 4601   6.112   9.454   5.501  0.8587  0.8324  0.3308
  775MOL0     H 4602   6.042   9.619   5.529  2.3601  1.7108 -0.2909
  775MOL0     H 4603   5.866   9.427   5.581 -1.8123  2.8268  0.5843
  775MOL0     H 4604   5.988   9.383   5.704  0.1631  0.0321  0.2539
  775MOL0     H 4605   6.886   9.924   5.360  0.2002 -0.2053  0.3701
  775MOL0     H 4606   7.140   9.900   5.315  0.4196 -1.1992 -0.3025
  775MOL0     H 4607   7.483   9.764   5.180  0.2047 -0.0363 -0.1462
  775MOL0     H 4608   7.692   9.867   5.145 -1.6623  0.5548  1.1402
  775MOL0     H 4609   9.434   9.792   5.034 -1.9752  0.2799 -1.1266
  775MOL0     H 4610   9.626   9.651   4.955  1.0136  2.4322  0.4879
  775MOL0     H 4611   9.752   9.341   4.824  3.6561  1.8295  0.3391
  775MOL0     H 4612   9.926   9.162   4.836  2.5207 -0.5687 -1.5077
  775MOL0     H 4613  10.032   8.876   4.682  2.4342 -2.2633  1.7875
  775MOL0     H 4614  10.055   8.991   4.810 -1.0049  0.8253 -0.8629
  775MOL0     H 4615  10.257   8.908   4.609  0.2706 -0.0657 -0.1582
  775MOL0     H 4616  10.258   8.858   4.786 -0.9969 -0.0330 -0.7433
  775MOL0     H 4617  10.292   9.117   4.826  0.4873 -0.0409 -0.1466
  775MOL0     H 4618  10.319   9.131   4.657  0.7298  0.4347  0.8064
  775MOL0     H 4619  10.483   8.958   4.839 -2.0151 -0.5446  0.0937
  775MOL0     H 4620  10.517   9.005   4.657  1.7491 -0.7303  0.1727
  775MOL0     H 4621  10.641   9.309   4.939 -1.4577  0.1686  1.6468
  775MOL0     H 4622   9.958   9.180   4.412 -0.7736 -1.0126 -0.3884
  775MOL0     H 4623   9.902   9.382   4.322  0.1498 -1.9176 -0.0425
  775MOL0     H 4624   9.741   9.319   4.285  0.7242 -1.1551  0.1748
  775MOL0     H 4625   9.761   9.476   4.362  1.1203  0.5463 -4.5201
  776MOL0     O 4626   1.236   5.992   6.955 -0.3641 -1.6571 -0.0674
  776MOL0     C 4627   1.172   5.937   7.041 -1.0806  0.6342 -0.0622
  776MOL0     O 4628   1.038   5.944   7.060 -0.0020 -0.9154  0.0127
  776MOL0     C 4629   0.969   6.040   6.989 -0.1812 -0.0340 -0.2890
  776MOL0     C 4630   0.980   6.069   6.852  0.4578  0.1720 -0.2546
  776MOL0     C 4631   0.921   6.184   6.799 -0.9170 -0.6096  0.4075
  776MOL0     C 4632   0.850   6.267   6.883 -0.3203 -0.1829  0.0180
  776MOL0     O 4633   0.804   6.385   6.844 -0.1938  0.3717 -0.8117
  776MOL0     C 4634   0.837   6.437   6.723  0.3928  0.3041 -1.1945
  776MOL0     C 4635   0.753   6.391   6.608  0.5007  0.0852  0.5737
  776MOL0     C 4636   0.607   6.434   6.619 -0.0044  0.1346  1.3482
  776MOL0     C 4637   0.580   6.586   6.593  0.0758  0.3391 -0.2715
  776MOL0     C 4638   0.438   6.629   6.637  0.5150  0.5732 -0.0465
  776MOL0     C 4639   0.396   6.782   6.637  0.6523  0.9300 -0.1550
  776MOL0     C 4640   0.507   6.858   6.705  0.0049  0.2601 -0.3003
  776MOL0     C 4641   0.486   7.014   6.704 -0.8847  0.2735  0.1602
  776MOL0     N 4642   0.362   7.059   6.767 -0.5157 -0.8937 -0.4507
  776MOL0     C 4643   0.242   7.061   6.706 -0.2402  0.4605 -0.9776
  776MOL0     C 4644   0.161   7.116   6.797  0.4354  0.0766  0.2994
  776MOL0     C 4645   0.015   7.132   6.793 -0.2339  0.4584  0.9180
  776MOL0     C 4646  -0.062   7.012   6.841  0.4676  0.9440  0.1269
  776MOL0     C 4647  -0.197   7.046   6.909 -0.2223  0.4696  0.7230
  776MOL0     C 4648  -0.304   7.082   6.799  0.2242  0.2455 -0.3631
  776MOL0     O 4649  -0.402   7.160   6.870 -0.4501  0.3088  0.0180
  776MOL0     C 4650  -0.536   7.136   6.836  0.1916 -0.3562  0.2823
  776MOL0     C 4651  -0.577   7.044   6.720 -0.3282 -0.2302 -1.5961
  776MOL0     C 4652  -0.716   7.043   6.684  0.0877 -1.1466  0.3483
  776MOL0     C 4653  -0.811   7.121   6.763  0.3837  0.2263  0.0207
  776MOL0     C 4654  -0.947   7.118   6.708  0.1785 -0.0683  0.5323
  776MOL0     O 4655  -1.028   7.227   6.735  0.5522 -0.5704 -0.0192
  776MOL0     C 4656  -1.159   7.236   6.690  0.2996  1.2023 -0.6535
  776MOL0     C 4657  -1.257   7.243   6.791  0.0344 -0.5366  0.1225
  776MOL0     C 4658  -1.391   7.255   6.758  0.4834 -0.3912  0.1580
  776MOL0     C 4659  -1.427   7.256   6.618  0.8536 -0.7408 -0.0452
  776MOL0     O 4660  -1.559   7.269   6.597 -0.7394 -0.8610 -0.0371
  776MOL0     C 4661  -1.600   7.317   6.468  0.7861 -0.2421 -0.8648
  776MOL0     C 4662  -1.754   7.310   6.459 -0.0113 -0.4621  0.2378
  776MOL0     C 4663  -1.788   7.162   6.471 -0.3160  0.2724  0.6481
  776MOL0     C 4664  -1.939   7.140   6.473 -0.1901 -0.9607  0.2886
  776MOL0     C 4665  -1.969   7.001   6.485 -0.3821 -0.1571 -0.1899
  776MOL0     C 4666  -2.105   6.963   6.438  0.0363 -0.0576 -0.5214
  776MOL0     C 4667  -2.135   6.966   6.292 -0.4755  0.0886  0.2659
  776MOL0     C 4668  -2.239   7.070   6.247 -0.6739 -0.1301  0.2341
  776MOL0    Cl 4669  -2.303   7.037   6.080 -0.4158  0.0938 -0.0344
  776MOL0     C 4670  -1.326   7.253   6.516  0.1783  0.8620 -0.9275
  776MOL0     C 4671  -1.194   7.231   6.559 -0.6805 -0.0153 -0.8855
  776MOL0     O 4672  -0.972   7.024   6.623 -0.2473 -0.2839  0.2963
  776MOL0     C 4673  -0.767   7.211   6.858 -1.4532 -0.6346 -0.0926
  776MOL0     C 4674  -0.637   7.217   6.906  0.8088  0.3817  0.7441
  776MOL0     N 4675   0.233   7.149   6.914  0.1877  0.6653  0.8651
  776MOL0     N 4676   0.352   7.112   6.888 -0.5703  0.4189  0.0720
  776MOL0     C 4677   0.819   6.234   7.018  0.2688  1.0435  0.7541
  776MOL0     C 4678   0.890   6.119   7.065  0.6715 -0.2984 -0.0473
  776MOL0     C 4679   1.231   5.855   7.150 -0.0004 -0.2644 -0.3806
  776MOL0     C 4680   1.160   5.839   7.273 -0.2364  0.7998 -0.0178
  776MOL0     C 4681   1.213   5.768   7.382  0.4661 -0.8808  1.0537
  776MOL0     C 4682   1.347   5.724   7.379  0.4438  0.0637 -0.2537
  776MOL0     O 4683   1.399   5.654   7.482  0.1579 -0.1328 -0.1583
  776MOL0     C 4684   1.311   5.602   7.584  0.9320 -1.0490  0.4691
  776MOL0     C 4685   1.393   5.501   7.654  0.1170  0.2880  0.1012
  776MOL0     C 4686   1.322   5.419   7.764 -0.4029 -0.1583 -0.5443
  776MOL0     C 4687   1.410   5.410   7.897  0.1225  0.0142  0.2634
  776MOL0     C 4688   1.536   5.348   7.856 -0.0054 -0.5798 -0.0846
  776MOL0     C 4689   1.641   5.316   7.802  0.1736  0.4042 -0.6678
  776MOL0     C 4690   1.415   5.738   7.263  0.3191 -0.5619  0.3217
  776MOL0     C 4691   1.360   5.792   7.143 -0.4156 -0.2269 -0.6567
  776MOL0     C 4692   1.443   5.781   7.014 -0.7389 -0.1753 -0.0982
  776MOL0     H 4693   1.035   5.997   6.792  2.4769 -0.0354  1.7162
  776MOL0     H 4694   0.931   6.203   6.693  1.1861  4.0075  1.1525
  776MOL0     H 4695   0.834   6.546   6.732  3.1545  0.3575  0.2134
  776MOL0     H 4696   0.942   6.414   6.700  0.4896  0.6764 -1.1270
  776MOL0     H 4697   0.744   6.282   6.597  0.3486  0.1362  0.1950
  776MOL0     H 4698   0.805   6.422   6.517  1.3707 -1.3143  0.5629
  776MOL0     H 4699   0.563   6.408   6.716 -2.9761 -0.2994  0.0204
  776MOL0     H 4700   0.550   6.381   6.542  1.3418 -0.9487  1.0499
  776MOL0     H 4701   0.649   6.647   6.651 -1.8403  2.1750  0.2268
  776MOL0     H 4702   0.593   6.606   6.486 -2.0287 -1.1370 -0.8708
  776MOL0     H 4703   0.367   6.581   6.569  0.2920  2.1468 -0.9521
  776MOL0     H 4704   0.413   6.582   6.733  3.0999 -0.6603  0.0835
  776MOL0     H 4705   0.389   6.811   6.532 -0.3641 -0.4342 -0.4851
  776MOL0     H 4706   0.296   6.797   6.679 -0.6856 -1.6228 -2.1572
  776MOL0     H 4707   0.599   6.854   6.646  0.2311  0.7087  0.0205
  776MOL0     H 4708   0.536   6.827   6.805  1.6077  4.6452  0.8242
  776MOL0     H 4709   0.576   7.062   6.742 -0.2861  0.7108 -1.6885
  776MOL0     H 4710   0.485   7.036   6.597  0.3089 -0.2934  0.0205
  776MOL0     H 4711   0.211   7.021   6.610 -3.5657 -0.8675  0.4829
  776MOL0     H 4712  -0.005   7.227   6.845 -1.2906  0.5147  0.4397
  776MOL0     H 4713  -0.020   7.155   6.692 -0.9231 -3.2265  0.1802
  776MOL0     H 4714  -0.086   6.941   6.761  2.3919  0.6163 -0.1850
  776MOL0     H 4715   0.004   6.954   6.905 -0.4257  0.0866  0.2868
  776MOL0     H 4716  -0.190   7.123   6.986 -2.1992 -0.6611  2.1353
  776MOL0     H 4717  -0.236   6.961   6.966  0.5198 -0.2470  0.1937
  776MOL0     H 4718  -0.335   6.984   6.761 -0.9378 -0.3362  1.9613
  776MOL0     H 4719  -0.271   7.142   6.714 -0.9350 -0.3516 -1.2685
  776MOL0     H 4720  -0.505   6.981   6.670  1.7013  0.7414 -0.0350
  776MOL0     H 4721  -0.746   6.973   6.607 -0.7256 -1.1851  0.6867
  776MOL0     H 4722  -1.230   7.246   6.896 -0.5679  0.2956  0.2720
  776MOL0     H 4723  -1.469   7.264   6.832 -0.3785 -0.8806 -0.6706
  776MOL0     H 4724  -1.577   7.424   6.461  0.5085 -0.1844 -0.8749
  776MOL0     H 4725  -1.565   7.259   6.382 -2.4163 -0.1944 -2.3298
  776MOL0     H 4726  -1.799   7.367   6.540 -1.6083  0.0651 -0.9504
  776MOL0     H 4727  -1.777   7.337   6.355 -1.8517  1.6305  1.1141
  776MOL0     H 4728  -1.750   7.109   6.383 -3.1280 -0.1835 -0.3835
  776MOL0     H 4729  -1.740   7.128   6.563 -0.1659  1.7772  1.1481
  776MOL0     H 4730  -1.979   7.179   6.380  3.9648  1.1903 -0.8545
  776MOL0     H 4731  -1.985   7.200   6.552  0.6126  2.4305 -1.6107
  776MOL0     H 4732  -1.958   6.979   6.592  2.7680 -0.6095 -0.5347
  776MOL0     H 4733  -1.896   6.945   6.427  1.1692  4.4938 -3.3035
  776MOL0     H 4734  -2.129   6.863   6.476  0.5726  0.1151  0.3014
  776MOL0     H 4735  -2.169   7.036   6.488 -0.3555 -0.9278  0.2908
  776MOL0     H 4736  -2.168   6.868   6.259  1.5004 -0.8486  0.9332
  776MOL0     H 4737  -2.053   6.989   6.223 -1.6169 -1.4872 -1.7234
  776MOL0     H 4738  -2.330   7.062   6.307 -0.8809 -0.9721 -0.1755
  776MOL0     H 4739  -2.194   7.169   6.238  1.0098 -0.8361  0.4775
  776MOL0     H 4740  -1.336   7.283   6.412 -1.5131  2.5505 -0.3430
  776MOL0     H 4741  -1.117   7.226   6.483 -1.7425  1.8147 -2.1651
  776MOL0     H 4742  -0.850   7.258   6.909 -1.1824 -0.0680 -0.1625
  776MOL0     H 4743  -0.613   7.267   7.000  0.6716 -0.7161  1.3732
  776MOL0     H 4744   0.757   6.305   7.072 -0.9832  0.8809 -0.3920
  776MOL0     H 4745   0.884   6.085   7.168  1.3667 -1.1166 -0.2681
  776MOL0     H 4746   1.063   5.886   7.278 -0.4356  0.2947  1.3180
  776MOL0     H 4747   1.146   5.747   7.465 -0.0665 -3.1929  0.0906
  776MOL0     H 4748   1.223   5.555   7.538 -0.5268  1.6961  0.2238
  776MOL0     H 4749   1.275   5.679   7.652  1.4491  2.0842 -2.5153
  776MOL0     H 4750   1.477   5.556   7.697  2.0188 -1.7931 -0.7004
  776MOL0     H 4751   1.441   5.423   7.594 -3.9451 -1.3464 -1.3684
  776MOL0     H 4752   1.289   5.321   7.729 -1.6476 -0.2050  0.6797
  776MOL0     H 4753   1.224   5.463   7.786 -0.3848 -1.6050  3.0584
  776MOL0     H 4754   1.423   5.511   7.935 -1.9472  0.2857  0.3875
  776MOL0     H 4755   1.367   5.360   7.984  0.5167 -1.1131 -0.1676
  776MOL0     H 4756   1.724   5.278   7.745  1.8622  0.4820  1.6343
  776MOL0     H 4757   1.513   5.691   7.256  0.4328 -0.4391  0.9841
  776MOL0     H 4758   1.508   5.869   7.012 -4.3232  2.8622  2.3923
  776MOL0     H 4759   1.495   5.686   6.999 -2.8439 -1.6521  1.3524
  776MOL0     H 4760   1.376   5.796   6.929  0.6397  2.3618 -0.8483
  777MOL0     O 4761   5.111   4.363  10.769  0.5410 -0.2814  0.6977
  777MOL0     C 4762   5.051   4.258  10.784 -0.2742  0.4793  0.8069
  777MOL0     O 4763   4.979   4.192  10.683 -0.0174 -0.0432  0.3061
  777MOL0     C 4764   4.994   4.235  10.544  0.1612  0.3218 -1.8234
  777MOL0     C 4765   4.966   4.369  10.512 -0.0265  0.1034 -0.3177
  777MOL0     C 4766   4.960   4.410  10.378  0.7096  0.4793 -0.1793
  777MOL0     C 4767   5.004   4.329  10.273 -0.3623  0.1618  0.4375
  777MOL0     O 4768   5.043   4.378  10.154  0.4534  0.3074  0.0585
  777MOL0     C 4769   4.988   4.501  10.111 -0.0678  0.8843 -0.2628
  777MOL0     C 4770   5.040   4.529   9.970 -0.7830  0.1163  0.8094
  777MOL0     C 4771   5.196   4.549   9.985  0.2213  0.1878 -0.1642
  777MOL0     C 4772   5.241   4.689   9.946  0.0714  0.0547  0.0974
  777MOL0     C 4773   5.393   4.695   9.925 -0.4888  0.1761 -0.9029
  777MOL0     C 4774   5.444   4.831   9.881  0.0507  0.1761 -0.8293
  777MOL0     C 4775   5.600   4.827   9.872  0.3947  1.2501 -0.0419
  777MOL0     C 4776   5.664   4.961   9.909 -0.3952 -0.9566 -0.5637
  777MOL0     N 4777   5.801   4.939   9.933 -0.3403 -0.3925  0.2057
  777MOL0     C 4778   5.873   4.938  10.049  0.4105 -0.6566  0.0708
  777MOL0     C 4779   6.004   4.931  10.002  0.5504 -0.3276 -0.1634
  777MOL0     C 4780   6.112   4.948  10.102 -0.0436 -0.4852 -0.5627
  777MOL0     C 4781   6.083   5.018  10.244  0.2651  0.3518 -1.2790
  777MOL0     C 4782   6.219   5.054  10.314 -0.2107  0.1891  0.1225
  777MOL0     C 4783   6.300   5.156  10.249  0.9225  0.3173 -0.0769
  777MOL0     O 4784   6.436   5.158  10.317  0.6622  0.1713 -0.0159
  777MOL0     C 4785   6.551   5.210  10.276  0.3062  0.3610  0.5941
  777MOL0     C 4786   6.558   5.270  10.152  0.5128  0.2284 -0.7581
  777MOL0     C 4787   6.677   5.316  10.098  0.2582  0.1279  0.7071
  777MOL0     C 4788   6.801   5.308  10.164  0.6589 -0.4546 -0.6512
  777MOL0     C 4789   6.922   5.367  10.107 -0.7082 -0.4866  0.1844
  777MOL0     O 4790   7.026   5.404  10.192  1.1488  0.2066 -0.7512
  777MOL0     C 4791   7.143   5.452  10.142 -0.1507 -1.2868 -0.2954
  777MOL0     C 4792   7.182   5.579  10.183 -0.6835 -0.6320 -0.7709
  777MOL0     C 4793   7.311   5.621  10.155 -0.2960 -0.0192  0.2163
  777MOL0     C 4794   7.402   5.543  10.086  0.3942 -0.3149 -0.5993
  777MOL0     O 4795   7.528   5.585  10.054  0.1051 -0.6500  0.3781
  777MOL0     C 4796   7.626   5.484  10.041  0.5225  0.0687 -0.0641
  777MOL0     C 4797   7.767   5.542  10.037  0.3740 -0.0597  0.1295
  777MOL0     C 4798   7.823   5.599  10.172 -0.2248  0.6662  0.3430
  777MOL0     C 4799   7.957   5.556  10.211 -0.9263 -1.4857  0.4021
  777MOL0     C 4800   8.074   5.607  10.118 -0.3318  0.6853 -0.6385
  777MOL0     C 4801   8.211   5.589  10.186 -0.0323 -0.6154  0.2486
  777MOL0     C 4802   8.313   5.523  10.093  0.0804  0.6754  0.1680
  777MOL0     C 4803   8.416   5.435  10.168  0.0659 -0.6050 -0.4533
  777MOL0    Cl 4804   8.454   5.287  10.078  0.2053  0.0642 -0.3355
  777MOL0     C 4805   7.362   5.417  10.037 -0.4237 -0.5705  0.4158
  777MOL0     C 4806   7.234   5.370  10.072  0.2488 -0.3520 -0.5891
  777MOL0     O 4807   6.927   5.371   9.981  0.7550  0.0552 -0.4816
  777MOL0     C 4808   6.787   5.249  10.292  0.5458  0.0411 -0.0564
  777MOL0     C 4809   6.670   5.198  10.343 -0.2856 -0.1402 -0.4803
  777MOL0     N 4810   6.014   4.921   9.866 -0.4286  0.9398 -0.3829
  777MOL0     N 4811   5.889   4.921   9.827 -0.3965 -1.0400 -0.1256
  777MOL0     C 4812   5.024   4.193  10.308  0.3494 -0.2578  0.8554
  777MOL0     C 4813   5.018   4.153  10.438 -0.9024  0.0058  0.5892
  777MOL0     C 4814   5.069   4.194  10.918  0.1161 -0.3352  0.1598
  777MOL0     C 4815   5.053   4.058  10.927 -1.2476 -0.6469  0.2774
  777MOL0     C 4816   5.073   3.980  11.042 -0.0156 -0.2838  0.4772
  777MOL0     C 4817   5.114   4.050  11.158  1.1857  0.0571 -0.1769
  777MOL0     O 4818   5.143   3.987  11.277  0.4015  0.5967 -0.9788
  777MOL0     C 4819   5.153   3.843  11.289  0.4071 -0.2615 -0.1681
  777MOL0     C 4820   5.181   3.815  11.427 -0.1880 -0.3709  0.2507
  777MOL0     C 4821   5.054   3.836  11.509  0.6744 -0.1392 -0.8219
  777MOL0     C 4822   5.063   3.784  11.659 -0.0674  0.2933  0.5823
  777MOL0     C 4823   4.957   3.834  11.752 -0.6970  0.4969  0.7055
  777MOL0     C 4824   4.866   3.871  11.819 -0.5010  0.4967  0.3471
  777MOL0     C 4825   5.123   4.188  11.157 -0.1815 -0.9231 -0.7458
  777MOL0     C 4826   5.104   4.261  11.044 -0.0084 -0.2939  1.4094
  777MOL0     C 4827   5.097   4.414  11.059  0.3081 -0.1304  0.1931
  777MOL0     H 4828   4.954   4.438  10.595 -0.6445 -0.6533  0.2381
  777MOL0     H 4829   4.947   4.518  10.372  2.6616  0.6814 -1.5359
  777MOL0     H 4830   4.880   4.505  10.099  0.0715  4.4503 -1.4113
  777MOL0     H 4831   5.016   4.588  10.171  1.0034  1.8836 -2.1352
  777MOL0     H 4832   4.992   4.623   9.942 -1.1933 -0.5741 -0.8792
  777MOL0     H 4833   5.018   4.447   9.901  1.3848 -0.1181  0.3317
  777MOL0     H 4834   5.250   4.481   9.918 -0.9767 -0.6987 -0.2537
  777MOL0     H 4835   5.228   4.524  10.087 -0.0647 -0.8903 -0.3292
  777MOL0     H 4836   5.192   4.703   9.849  1.4858  0.2041 -0.6145
  777MOL0     H 4837   5.194   4.766  10.008 -0.8316 -0.4869  0.1114
  777MOL0     H 4838   5.426   4.672  10.027 -1.8812  1.1268 -0.1984
  777MOL0     H 4839   5.426   4.619   9.853 -3.9712 -1.6081 -0.8456
  777MOL0     H 4840   5.393   4.844   9.784 -1.8144 -1.4395 -0.1390
  777MOL0     H 4841   5.408   4.891   9.965 -0.8635 -2.1337  0.5136
  777MOL0     H 4842   5.629   4.802   9.769 -0.7793  1.4588 -0.4302
  777MOL0     H 4843   5.638   4.749   9.939  1.4584  2.1940  0.4902
  777MOL0     H 4844   5.654   5.017   9.815 -1.2956 -2.4096 -1.3550
  777MOL0     H 4845   5.614   5.004   9.997  1.8102 -1.7749  1.2014
  777MOL0     H 4846   5.842   4.943  10.152  1.0503  0.2959  0.2375
  777MOL0     H 4847   6.154   4.848  10.117  2.2653  0.0567 -2.7892
  777MOL0     H 4848   6.182   5.011  10.046  1.9775  1.3907  3.5713
  777MOL0     H 4849   6.014   5.103  10.241  1.7484  1.9094  2.4255
  777MOL0     H 4850   6.032   4.942  10.305  2.2556  1.1380  1.5526
  777MOL0     H 4851   6.282   4.965  10.318 -0.4848 -0.1791 -2.4096
  777MOL0     H 4852   6.197   5.085  10.417 -0.7163 -0.1202  0.1109
  777MOL0     H 4853   6.247   5.252  10.259 -0.9418 -0.7399  0.7840
  777MOL0     H 4854   6.300   5.139  10.141  0.8041  3.1172 -0.6020
  777MOL0     H 4855   6.469   5.271  10.090  0.3654 -0.2112 -0.5554
  777MOL0     H 4856   6.675   5.359   9.998 -3.2891 -2.3220 -0.4767
  777MOL0     H 4857   7.109   5.642  10.234  0.5238 -0.0285  0.2797
  777MOL0     H 4858   7.338   5.724  10.178  1.2549 -0.3488  0.0342
  777MOL0     H 4859   7.619   5.424  10.132 -1.9497  1.8134  1.0123
  777MOL0     H 4860   7.617   5.420   9.953  1.9507 -1.6615  0.9933
  777MOL0     H 4861   7.842   5.471  10.002  3.0817  1.5508  2.2749
  777MOL0     H 4862   7.780   5.631   9.976  2.3109  0.6983  1.5402
  777MOL0     H 4863   7.800   5.706  10.170 -3.7417  0.1626  3.3269
  777MOL0     H 4864   7.761   5.560  10.253 -0.3299 -1.5671 -0.7458
  777MOL0     H 4865   7.953   5.447  10.205 -1.9416 -1.5185  1.3529
  777MOL0     H 4866   7.975   5.589  10.314 -2.0953 -4.2653  1.6265
  777MOL0     H 4867   8.076   5.709  10.080  0.3331 -0.2310 -3.2411
  777MOL0     H 4868   8.080   5.553  10.024  2.0391  0.9297 -0.6957
  777MOL0     H 4869   8.247   5.689  10.214  3.4963 -1.8497  0.5311
  777MOL0     H 4870   8.203   5.535  10.280  2.0567 -0.4562  0.5751
  777MOL0     H 4871   8.376   5.596  10.040 -0.8964 -0.8628 -3.4410
  777MOL0     H 4872   8.269   5.455  10.019 -0.1079 -0.5758  1.4035
  777MOL0     H 4873   8.515   5.479  10.185  0.3215 -1.8762  1.7917
  777MOL0     H 4874   8.380   5.404  10.267  0.0338  0.7130 -0.0401
  777MOL0     H 4875   7.425   5.346   9.984 -0.3330 -1.2103  1.3460
  777MOL0     H 4876   7.206   5.269  10.043  1.8403 -0.4571 -1.8928
  777MOL0     H 4877   6.873   5.238  10.356 -0.7061  0.8534  1.8666
  777MOL0     H 4878   6.662   5.132  10.429  0.4900  0.9862  0.4836
  777MOL0     H 4879   5.050   4.127  10.225  1.9221  1.2466  0.1017
  777MOL0     H 4880   5.035   4.047  10.451 -0.5284  0.0582  0.5420
  777MOL0     H 4881   5.042   4.016  10.828 -0.4296  2.5943 -1.3101
  777MOL0     H 4882   5.068   3.872  11.040  0.2949 -0.2863 -0.5860
  777MOL0     H 4883   5.237   3.808  11.228  0.4414 -1.9753  0.8042
  777MOL0     H 4884   5.063   3.786  11.264 -1.1539  0.9029  2.4121
  777MOL0     H 4885   5.273   3.869  11.452  1.3253 -0.5752 -4.0296
  777MOL0     H 4886   5.209   3.710  11.416 -1.6982 -0.8340  0.6125
  777MOL0     H 4887   4.967   3.788  11.463  0.8212 -0.7551 -0.4756
  777MOL0     H 4888   5.040   3.943  11.526 -1.2193 -0.8927  3.9834
  777MOL0     H 4889   5.048   3.676  11.660 -2.6735  0.6023  2.1350
  777MOL0     H 4890   5.165   3.800  11.697  1.6942 -3.5904 -1.9152
  777MOL0     H 4891   4.784   3.903  11.881 -0.2392  0.2409  0.8331
  777MOL0     H 4892   5.173   4.229  11.245 -4.3372  3.1909  0.1103
  777MOL0     H 4893   5.044   4.452  11.147 -2.3403  1.8129 -2.0638
  777MOL0     H 4894   5.188   4.471  11.079 -2.1018  3.0598  3.4967
  777MOL0     H 4895   5.048   4.459  10.972 -3.2240 -0.5144  1.8191
  778MOL0     O 4896   7.766   2.167   3.836 -0.7890  0.2149 -0.2686
  778MOL0     C 4897   7.800   2.212   3.943 -0.3605 -0.0324  0.4126
  778MOL0     O 4898   7.926   2.209   3.988 -0.5455  0.8380 -0.0148
  778MOL0     C 4899   8.035   2.161   3.910  0.5018  0.2386 -0.4853
  778MOL0     C 4900   8.137   2.249   3.894 -0.0023 -0.1507  0.2290
  778MOL0     C 4901   8.252   2.213   3.830  0.0564  0.1601  0.2885
  778MOL0     C 4902   8.265   2.085   3.778  0.2055  0.6831  0.3479
  778MOL0     O 4903   8.376   2.020   3.723 -0.0967 -0.7816  0.9702
  778MOL0     C 4904   8.502   2.084   3.762  0.2860 -0.1092  0.4094
  778MOL0     C 4905   8.540   2.196   3.671 -0.7205  0.1777  0.3406
  778MOL0     C 4906   8.610   2.143   3.541 -0.0809  0.6511  0.8764
  778MOL0     C 4907   8.758   2.119   3.562  0.3398 -0.1581 -0.1625
  778MOL0     C 4908   8.823   2.074   3.427  0.6542 -0.0061 -0.0451
  778MOL0     C 4909   8.804   1.918   3.417  0.2016  0.0775 -0.0423
  778MOL0     C 4910   8.918   1.828   3.463 -0.3001  0.9924 -0.5959
  778MOL0     C 4911   8.948   1.836   3.614  0.2654 -0.0452  0.0061
  778MOL0     N 4912   8.846   1.777   3.701  0.7556  0.1958  0.2146
  778MOL0     C 4913   8.748   1.694   3.666  0.2878 -0.0626  0.0979
  778MOL0     C 4914   8.674   1.678   3.778 -0.8351 -1.1819  1.2897
  778MOL0     C 4915   8.551   1.599   3.802 -0.1619 -0.3855  0.3541
  778MOL0     C 4916   8.480   1.617   3.935  0.6571 -0.0045 -0.6730
  778MOL0     C 4917   8.401   1.755   3.951 -0.6795 -0.2492  0.9656
  778MOL0     C 4918   8.456   1.858   4.047  0.4159  0.4520 -0.4066
  778MOL0     O 4919   8.404   1.806   4.173 -0.2863 -0.1460  0.6465
  778MOL0     C 4920   8.268   1.822   4.222  0.4126  0.3045  0.5312
  778MOL0     C 4921   8.164   1.905   4.173  0.6044 -0.3681  0.1840
  778MOL0     C 4922   8.038   1.906   4.242  1.4069 -0.1751  0.3506
  778MOL0     C 4923   8.011   1.810   4.341 -0.3829 -0.1866  0.7067
  778MOL0     C 4924   7.877   1.805   4.393 -0.2820  0.4146  1.0565
  778MOL0     O 4925   7.796   1.913   4.385  0.0164 -0.2131  0.0370
  778MOL0     C 4926   7.666   1.907   4.431  0.8840 -0.4222 -0.6262
  778MOL0     C 4927   7.581   1.793   4.439 -0.1446 -0.0155 -0.1888
  778MOL0     C 4928   7.446   1.810   4.474 -0.7685  0.5112 -0.5755
  778MOL0     C 4929   7.392   1.934   4.497  0.1331  0.3640  0.0998
  778MOL0     O 4930   7.258   1.965   4.505  0.2239 -0.9698 -0.1513
  778MOL0     C 4931   7.161   1.859   4.513  1.0445 -0.2717  0.0462
  778MOL0     C 4932   7.021   1.925   4.508 -0.3204  0.0717 -0.0352
  778MOL0     C 4933   6.910   1.818   4.545 -0.0810 -0.5669 -0.6277
  778MOL0     C 4934   6.773   1.885   4.578 -0.4664 -0.2524 -0.2163
  778MOL0     C 4935   6.673   1.917   4.470 -0.2423  1.3075 -0.1050
  778MOL0     C 4936   6.602   1.801   4.409  0.9770 -0.0426  0.9197
  778MOL0     C 4937   6.514   1.848   4.287  0.2078 -0.8842 -0.0497
  778MOL0     C 4938   6.445   1.726   4.213  0.4519  0.0595 -1.2010
  778MOL0    Cl 4939   6.313   1.666   4.309  0.5922 -0.2949 -0.1648
  778MOL0     C 4940   7.472   2.050   4.495 -1.0555 -0.0797  0.1623
  778MOL0     C 4941   7.606   2.032   4.451 -0.3046  0.1566 -0.2419
  778MOL0     O 4942   7.853   1.690   4.426  1.1545 -0.4081 -0.0977
  778MOL0     C 4943   8.121   1.728   4.386  0.0266  0.9506  0.4348
  778MOL0     C 4944   8.246   1.740   4.329 -0.4498 -0.0343 -0.4014
  778MOL0     N 4945   8.736   1.749   3.883 -0.2039  0.7559  0.0660
  778MOL0     N 4946   8.839   1.807   3.832  0.5818 -0.4025 -0.3025
  778MOL0     C 4947   8.155   2.000   3.796  0.1182  0.0908  0.1713
  778MOL0     C 4948   8.037   2.034   3.856 -0.6945 -0.3910 -0.2025
  778MOL0     C 4949   7.705   2.279   4.021 -0.2297 -0.4422 -0.6826
  778MOL0     C 4950   7.724   2.282   4.159 -0.4411 -0.5563 -0.0621
  778MOL0     C 4951   7.632   2.345   4.243  0.1447  0.4159 -0.5085
  778MOL0     C 4952   7.520   2.416   4.198 -0.5004 -0.3818  0.8313
  778MOL0     O 4953   7.423   2.454   4.292  0.0454 -0.3856  0.0753
  778MOL0     C 4954   7.441   2.465   4.434 -0.5655 -0.0100  0.2421
  778MOL0     C 4955   7.306   2.500   4.502  0.2953  0.9257 -0.1394
  778MOL0     C 4956   7.331   2.499   4.654 -0.1230 -0.8184  0.1774
  778MOL0     C 4957   7.198   2.518   4.728  0.1168 -0.3131  0.0857
  778MOL0     C 4958   7.230   2.534   4.871 -0.2127 -0.0847 -0.2695
  778MOL0     C 4959   7.267   2.541   4.988 -0.1329  0.6792  0.2954
  778MOL0     C 4960   7.499   2.421   4.061 -0.2875  0.5775 -0.2457
  778MOL0     C 4961   7.584   2.346   3.971 -0.4692 -0.7488  0.4218
  778MOL0     C 4962   7.553   2.359   3.826 -0.9002 -0.7938  1.0242
  778MOL0     H 4963   8.131   2.345   3.943  0.6887  0.5573 -1.0297
  778MOL0     H 4964   8.331   2.286   3.827  1.9676 -1.7494  1.4407
  778MOL0     H 4965   8.494   2.117   3.866 -3.7572 -1.2191  0.5903
  778MOL0     H 4966   8.589   2.018   3.767  2.3151  2.4227  0.8636
  778MOL0     H 4967   8.599   2.267   3.731 -1.9701 -0.5521  2.5656
  778MOL0     H 4968   8.452   2.248   3.632  0.3456  4.2771  2.7690
  778MOL0     H 4969   8.595   2.215   3.460 -2.9490  2.8208  3.1276
  778MOL0     H 4970   8.569   2.045   3.513  1.4366  0.1661  0.2529
  778MOL0     H 4971   8.807   2.214   3.585  0.2253  0.6143 -2.8642
  778MOL0     H 4972   8.770   2.038   3.635 -0.3787 -0.4064 -0.3119
  778MOL0     H 4973   8.768   2.121   3.346 -1.0019  1.5189  1.8628
  778MOL0     H 4974   8.929   2.103   3.423  0.8063  0.4616  3.5655
  778MOL0     H 4975   8.711   1.881   3.461 -2.0844  1.3398 -3.3847
  778MOL0     H 4976   8.783   1.901   3.311 -2.6534 -3.1210  0.8736
  778MOL0     H 4977   9.001   1.842   3.393 -1.9269  2.3430 -2.3424
  778MOL0     H 4978   8.895   1.725   3.435 -0.9545  0.3994  1.9240
  778MOL0     H 4979   9.040   1.785   3.643  1.7811  2.4653 -0.1676
  778MOL0     H 4980   8.953   1.941   3.642 -0.5667 -0.3766  1.5225
  778MOL0     H 4981   8.719   1.664   3.566  1.2811  2.6095 -1.0697
  778MOL0     H 4982   8.481   1.621   3.720  0.8849  2.3199  0.0979
  778MOL0     H 4983   8.572   1.493   3.784 -1.8858 -0.8692  0.9704
  778MOL0     H 4984   8.409   1.535   3.953 -1.0588  1.1335 -1.8596
  778MOL0     H 4985   8.554   1.609   4.015 -0.1986  0.0985  0.1461
  778MOL0     H 4986   8.292   1.746   3.962 -0.6730 -2.1705 -0.0807
  778MOL0     H 4987   8.420   1.791   3.850  0.9683 -2.1376  0.5277
  778MOL0     H 4988   8.416   1.958   4.029 -0.9373  0.5039  2.3947
  778MOL0     H 4989   8.565   1.869   4.043  0.5194  1.2462  2.5091
  778MOL0     H 4990   8.176   1.988   4.105 -0.2027 -0.9111 -0.6499
  778MOL0     H 4991   7.958   1.974   4.215  4.4842  3.2911 -1.0151
  778MOL0     H 4992   7.614   1.697   4.402  0.2910 -0.1476  0.5297
  778MOL0     H 4993   7.378   1.729   4.453 -2.0515  0.4492  3.1550
  778MOL0     H 4994   7.180   1.792   4.429 -0.3592 -0.2588 -0.3112
  778MOL0     H 4995   7.177   1.803   4.606  2.2658 -1.8893 -1.0818
  778MOL0     H 4996   7.024   2.001   4.587 -0.8553  1.3382 -1.2011
  778MOL0     H 4997   7.005   1.981   4.416 -1.4480  3.7014  2.1680
  778MOL0     H 4998   6.886   1.746   4.466  1.5771 -1.8234 -0.0520
  778MOL0     H 4999   6.940   1.753   4.628 -0.0608 -1.0956 -1.0426
  778MOL0     H 5000   6.810   1.984   4.608 -1.7966  0.8907 -2.1399
  778MOL0     H 5001   6.727   1.832   4.662  1.4612  0.8889  1.6702
  778MOL0     H 5002   6.720   1.978   4.391  1.1104  1.1547  0.5508
  778MOL0     H 5003   6.600   1.983   4.517 -0.0860  1.6962 -0.4057
  778MOL0     H 5004   6.665   1.725   4.362 -1.2233 -0.2031 -2.0621
  778MOL0     H 5005   6.536   1.751   4.480 -1.0084  0.2588 -0.6383
  778MOL0     H 5006   6.574   1.891   4.207 -1.3573 -0.6940 -1.1606
  778MOL0     H 5007   6.429   1.911   4.313  0.6361  0.8318 -2.5245
  778MOL0     H 5008   6.404   1.759   4.118 -2.5075 -1.0025 -0.3854
  778MOL0     H 5009   6.522   1.653   4.184  1.0808  1.1740 -2.4331
  778MOL0     H 5010   7.425   2.145   4.516 -0.6385 -0.0726  1.0740
  778MOL0     H 5011   7.681   2.110   4.439  1.7358 -2.0520 -3.3780
  778MOL0     H 5012   8.119   1.657   4.467  2.0034 -2.7395 -2.4246
  778MOL0     H 5013   8.320   1.677   4.378 -2.3468 -1.8189  0.2601
  778MOL0     H 5014   8.174   1.902   3.754  2.9188  0.7674 -0.3317
  778MOL0     H 5015   7.942   1.982   3.864 -0.9989  0.4020  2.0439
  778MOL0     H 5016   7.814   2.254   4.213 -0.4009 -0.1708  0.0785
  778MOL0     H 5017   7.642   2.319   4.347 -0.6707  1.3215 -0.1933
  778MOL0     H 5018   7.514   2.546   4.446 -0.4792  0.1549 -1.2218
  778MOL0     H 5019   7.485   2.375   4.477  0.1735  0.9082  1.4838
  778MOL0     H 5020   7.245   2.414   4.472  1.3613  0.5932 -1.4703
  778MOL0     H 5021   7.268   2.591   4.453 -1.9536  1.4440  2.3426
  778MOL0     H 5022   7.394   2.588   4.666 -2.6586  0.8990  1.7504
  778MOL0     H 5023   7.379   2.405   4.683 -1.1333 -1.5984 -0.6204
  778MOL0     H 5024   7.143   2.608   4.701  1.5636  0.5010 -0.2800
  778MOL0     H 5025   7.124   2.440   4.706 -1.8358  1.0214  1.5561
  778MOL0     H 5026   7.303   2.539   5.089  0.8476 -0.2974 -0.0613
  778MOL0     H 5027   7.413   2.469   4.016  0.5085  0.1117 -2.3961
  778MOL0     H 5028   7.461   2.415   3.807 -0.8763 -1.2366 -0.5558
  778MOL0     H 5029   7.627   2.413   3.767 -0.5104 -3.2498 -0.9457
  778MOL0     H 5030   7.551   2.260   3.778 -0.7346  0.2225 -1.1932
  779MOL0     O 5031   5.255   5.230   6.370  0.2241 -0.1539  0.1619
  779MOL0     C 5032   5.281   5.186   6.481 -0.1754  0.5401 -0.1601
  779MOL0     O 5033   5.399   5.211   6.537 -0.4098  0.4790  0.5322
  779MOL0     C 5034   5.467   5.326   6.510 -0.6331  0.0080  0.6633
  779MOL0     C 5035   5.556   5.327   6.404 -0.4333 -0.4250  0.8286
  779MOL0     C 5036   5.611   5.448   6.359 -0.5138 -0.5006 -0.6907
  779MOL0     C 5037   5.585   5.567   6.424  0.7268  0.8000  0.0645
  779MOL0     O 5038   5.623   5.683   6.380 -0.5553 -0.6579  0.0768
  779MOL0     C 5039   5.769   5.697   6.384 -0.5614  0.1879 -0.3661
  779MOL0     C 5040   5.778   5.851   6.396 -0.1816  0.7370  0.4926
  779MOL0     C 5041   5.923   5.904   6.413  1.0489 -0.4113 -0.2611
  779MOL0     C 5042   6.014   5.856   6.313 -1.0676 -0.7510  0.4840
  779MOL0     C 5043   6.147   5.946   6.309 -0.6594  0.4909  0.8419
  779MOL0     C 5044   6.214   5.921   6.173  0.7777 -0.1654 -0.1596
  779MOL0     C 5045   6.263   5.778   6.158 -0.7456 -0.0324  0.8411
  779MOL0     C 5046   6.360   5.760   6.044  0.4200 -0.2138  0.3395
  779MOL0     N 5047   6.291   5.767   5.914 -0.8214  0.0059 -0.4722
  779MOL0     C 5048   6.215   5.658   5.862  0.5117 -0.2568  0.2544
  779MOL0     C 5049   6.180   5.702   5.737 -0.2964 -0.6480 -0.5548
  779MOL0     C 5050   6.081   5.626   5.654  0.9632 -0.7093  0.1536
  779MOL0     C 5051   5.967   5.716   5.595  0.8349 -0.2230  0.7801
  779MOL0     C 5052   5.874   5.636   5.505 -0.2199  0.3326 -0.0915
  779MOL0     C 5053   5.722   5.667   5.515  1.0472 -0.6727 -0.0204
  779MOL0     O 5054   5.706   5.803   5.482 -0.8838  0.3663 -0.4139
  779MOL0     C 5055   5.584   5.842   5.447 -0.7203  0.1229  0.0936
  779MOL0     C 5056   5.467   5.765   5.452 -0.3846  0.2838  0.7684
  779MOL0     C 5057   5.345   5.823   5.430  0.2290  0.8953  0.2929
  779MOL0     C 5058   5.324   5.959   5.406  0.0472 -0.6004 -0.1472
  779MOL0     C 5059   5.192   6.024   5.376  0.2489 -0.0451  0.0649
  779MOL0     O 5060   5.083   5.951   5.384  0.4947 -0.2494 -0.6825
  779MOL0     C 5061   4.951   5.998   5.393  0.0659  0.1079  0.4061
  779MOL0     C 5062   4.856   5.917   5.328 -0.3191 -1.0724  0.7370
  779MOL0     C 5063   4.720   5.948   5.331 -0.2538  0.4424  0.5193
  779MOL0     C 5064   4.674   6.064   5.391 -0.6626  0.2730  0.1371
  779MOL0     O 5065   4.542   6.100   5.389 -0.3963  0.9177  0.3548
  779MOL0     C 5066   4.475   6.056   5.278 -0.1307 -1.0652 -0.2750
  779MOL0     C 5067   4.340   6.119   5.294 -0.1516  0.1502 -0.5959
  779MOL0     C 5068   4.255   6.073   5.186  0.4847 -0.0864  1.2202
  779MOL0     C 5069   4.118   6.118   5.235  0.0265  0.1318 -0.4892
  779MOL0     C 5070   4.012   6.107   5.122 -0.9099 -0.2872  0.1231
  779MOL0     C 5071   3.877   6.172   5.161  0.5677 -1.1188 -0.1967
  779MOL0     C 5072   3.777   6.177   5.053 -0.0634 -0.1637  0.5407
  779MOL0     C 5073   3.705   6.038   5.026 -0.3464 -0.3960 -0.2538
  779MOL0    Cl 5074   3.588   6.042   4.900 -0.5533  0.0891 -0.1605
  779MOL0     C 5075   4.770   6.138   5.467  0.2748 -0.4204  0.1838
  779MOL0     C 5076   4.905   6.110   5.459 -0.3858 -0.1982 -0.5732
  779MOL0     O 5077   5.194   6.147   5.372  0.6491  0.6020  0.4015
  779MOL0     C 5078   5.444   6.036   5.387 -0.2085  0.0871  0.6374
  779MOL0     C 5079   5.570   5.975   5.414  0.4417  0.3658  0.0904
  779MOL0     N 5080   6.240   5.829   5.712 -0.5652  0.1970 -0.0717
  779MOL0     N 5081   6.320   5.863   5.814  0.4567  0.4601  0.2165
  779MOL0     C 5082   5.510   5.563   6.540 -0.1186  0.3234  0.2138
  779MOL0     C 5083   5.437   5.445   6.572  0.7060 -0.4775 -0.7461
  779MOL0     C 5084   5.202   5.078   6.545  0.1834 -0.1710  1.0497
  779MOL0     C 5085   5.252   4.978   6.628 -1.0957 -0.0884 -0.5168
  779MOL0     C 5086   5.177   4.873   6.675 -0.3251  0.0766 -0.0903
  779MOL0     C 5087   5.044   4.863   6.645  0.3015 -0.1599 -0.0588
  779MOL0     O 5088   4.981   4.759   6.706 -0.1854  0.3307  0.5369
  779MOL0     C 5089   4.838   4.776   6.725 -0.4334  0.0765  0.1364
  779MOL0     C 5090   4.765   4.650   6.670 -0.2710 -0.7738 -0.7550
  779MOL0     C 5091   4.619   4.672   6.701  0.6227  0.4465 -0.0750
  779MOL0     C 5092   4.553   4.779   6.614  0.4835 -0.0466  0.5891
  779MOL0     C 5093   4.410   4.764   6.658 -0.7971 -0.0570 -0.1207
  779MOL0     C 5094   4.297   4.740   6.692 -0.0586 -0.2542 -0.0658
  779MOL0     C 5095   4.990   4.957   6.558  0.7593 -0.3500  0.9487
  779MOL0     C 5096   5.057   5.070   6.514 -1.2515 -0.1106 -0.3508
  779MOL0     C 5097   4.983   5.169   6.427 -1.0432  0.8426  0.1315
  779MOL0     H 5098   5.585   5.233   6.356 -3.2412 -0.7513 -0.4153
  779MOL0     H 5099   5.670   5.443   6.267  1.5604  0.9089  0.4804
  779MOL0     H 5100   5.801   5.649   6.477  1.4911  2.1874  0.0624
  779MOL0     H 5101   5.817   5.660   6.293  1.0335 -1.6703  1.1258
  779MOL0     H 5102   5.716   5.891   6.476  0.5279 -2.1870  2.6677
  779MOL0     H 5103   5.738   5.887   6.301  0.2855 -0.4663 -0.1890
  779MOL0     H 5104   5.964   5.870   6.509  5.1490 -2.9848 -2.6237
  779MOL0     H 5105   5.922   6.012   6.398 -0.9675  0.4959  4.5974
  779MOL0     H 5106   6.039   5.750   6.315  1.9003 -0.3266 -2.9214
  779MOL0     H 5107   5.975   5.871   6.212 -1.6313  0.5500  0.8675
  779MOL0     H 5108   6.117   6.050   6.326 -1.5886  0.4567 -0.4240
  779MOL0     H 5109   6.213   5.920   6.392 -0.6910 -1.5709  0.2816
  779MOL0     H 5110   6.142   5.948   6.095  0.4034  3.4906  1.2733
  779MOL0     H 5111   6.295   5.994   6.165 -2.8442  4.0534 -2.6837
  779MOL0     H 5112   6.177   5.713   6.142 -0.4629 -0.6518  1.7626
  779MOL0     H 5113   6.314   5.762   6.253  2.1400  2.9677  0.0166
  779MOL0     H 5114   6.431   5.841   6.062  1.3921 -0.9369 -0.1221
  779MOL0     H 5115   6.419   5.669   6.052  4.3345  1.7880 -2.1616
  779MOL0     H 5116   6.184   5.565   5.910 -2.3801 -1.5982 -3.5834
  779MOL0     H 5117   6.142   5.594   5.569  1.2131  0.3719 -0.0906
  779MOL0     H 5118   6.036   5.549   5.717  0.0006  0.1780  0.5826
  779MOL0     H 5119   5.918   5.757   5.684  0.5102 -0.4607  0.7132
  779MOL0     H 5120   6.010   5.792   5.528 -2.3364 -0.0854 -1.3442
  779MOL0     H 5121   5.893   5.531   5.531 -2.2203 -0.9552 -3.2650
  779MOL0     H 5122   5.912   5.642   5.402  2.4187 -0.0880  0.7673
  779MOL0     H 5123   5.681   5.655   5.616  1.3210 -1.5156 -0.0006
  779MOL0     H 5124   5.661   5.596   5.458  0.7768  0.6155 -1.4035
  779MOL0     H 5125   5.460   5.659   5.470  0.5459  0.1055  0.1995
  779MOL0     H 5126   5.257   5.760   5.433  1.3306 -0.7267 -0.4130
  779MOL0     H 5127   4.899   5.827   5.284  3.6457 -0.4103  2.7938
  779MOL0     H 5128   4.661   5.877   5.273 -0.7668  1.8743 -0.7791
  779MOL0     H 5129   4.519   6.085   5.182  1.7177 -0.2340  0.7673
  779MOL0     H 5130   4.459   5.948   5.278 -0.0423 -1.1969 -4.0515
  779MOL0     H 5131   4.300   6.081   5.388 -0.4271  3.3740  0.6925
  779MOL0     H 5132   4.367   6.224   5.291 -2.7802  0.9760  0.9482
  779MOL0     H 5133   4.270   6.129   5.093 -3.7165  0.6300  0.7565
  779MOL0     H 5134   4.271   5.966   5.168  3.7884  0.8025 -2.7573
  779MOL0     H 5135   4.125   6.218   5.277  0.0910 -0.0766  0.0011
  779MOL0     H 5136   4.072   6.050   5.308 -1.3422 -1.3438 -2.6006
  779MOL0     H 5137   3.991   6.001   5.108 -0.7546 -0.8101  3.1679
  779MOL0     H 5138   4.056   6.156   5.035 -2.4922  0.3609 -0.3489
  779MOL0     H 5139   3.832   6.124   5.248  0.3996  2.5078  1.9463
  779MOL0     H 5140   3.906   6.276   5.176 -1.4730 -0.2065 -1.9790
  779MOL0     H 5141   3.808   6.227   4.960  0.3892  2.6432  2.1057
  779MOL0     H 5142   3.694   6.240   5.086 -0.9305  0.5857 -2.7107
  779MOL0     H 5143   3.780   5.961   5.006  2.6462  2.1799  0.2147
  779MOL0     H 5144   3.644   6.016   5.114  1.2207  2.6026  1.7903
  779MOL0     H 5145   4.729   6.217   5.529  0.9754  1.3180 -1.4757
  779MOL0     H 5146   4.979   6.170   5.512  1.5394 -2.9722  0.1688
  779MOL0     H 5147   5.435   6.138   5.352 -1.2596 -0.2443 -0.1066
  779MOL0     H 5148   5.664   6.030   5.412  0.8578 -0.2555  1.2606
  779MOL0     H 5149   5.480   5.647   6.601  4.2438  0.0065  3.2609
  779MOL0     H 5150   5.355   5.453   6.642  1.8987  2.8000  0.4329
  779MOL0     H 5151   5.355   4.975   6.661 -2.5704 -1.6571  4.8939
  779MOL0     H 5152   5.226   4.792   6.728 -3.2489 -1.8157 -0.0263
  779MOL0     H 5153   4.798   4.872   6.690  1.0117  0.1206 -1.5296
  779MOL0     H 5154   4.822   4.771   6.833 -1.3515  1.6176  0.0952
  779MOL0     H 5155   4.813   4.567   6.723  3.1028  2.0792  1.1573
  779MOL0     H 5156   4.789   4.639   6.564  1.0147  3.1030 -1.0333
  779MOL0     H 5157   4.623   4.692   6.808  0.9641  0.3814 -0.0749
  779MOL0     H 5158   4.575   4.572   6.695 -0.5203  0.9330 -0.0804
  779MOL0     H 5159   4.598   4.877   6.636 -1.8632  1.4438 -0.8808
  779MOL0     H 5160   4.561   4.751   6.509 -1.5581  0.9059  0.1300
  779MOL0     H 5161   4.191   4.744   6.706 -0.1294  4.6202 -0.3989
  779MOL0     H 5162   4.885   4.952   6.531  0.5864 -0.6121  1.6486
  779MOL0     H 5163   4.875   5.157   6.438 -0.9921 -1.8555 -1.4035
  779MOL0     H 5164   5.010   5.274   6.440 -0.5859  0.7344  0.0786
  779MOL0     H 5165   4.998   5.134   6.324 -4.1030  1.2675 -0.5508
  780MOL0     O 5166   0.963   3.128   0.593  0.8966 -0.7552 -0.3800
  780MOL0     C 5167   0.908   3.111   0.699  0.5215  0.0454  0.6088
  780MOL0     O 5168   0.839   3.210   0.758  0.4669  0.0306 -0.0176
  780MOL0     C 5169   0.790   3.318   0.684  0.2137  0.2459 -0.2229
  780MOL0     C 5170   0.757   3.434   0.763  0.0371  0.3929 -0.3531
  780MOL0     C 5171   0.722   3.555   0.700  0.3815 -0.9566 -0.2400
  780MOL0     C 5172   0.691   3.555   0.568 -0.1373 -0.2398 -0.5183
  780MOL0     O 5173   0.633   3.661   0.495 -0.2077  0.7814  0.2482
  780MOL0     C 5174   0.662   3.793   0.537 -0.2335 -0.3453 -0.6685
  780MOL0     C 5175   0.616   3.887   0.436  0.2070  0.0061  0.0326
  780MOL0     C 5176   0.675   4.023   0.474 -0.1430 -0.1780  0.1442
  780MOL0     C 5177   0.827   4.022   0.450  0.0808  0.2655  0.9884
  780MOL0     C 5178   0.901   4.112   0.563 -0.4340  0.4950  0.1933
  780MOL0     C 5179   0.881   4.057   0.710 -0.6664  0.4350  0.7748
  780MOL0     C 5180   0.986   4.110   0.809 -0.1280  0.5452  1.3050
  780MOL0     C 5181   0.950   4.090   0.953 -0.4339  0.6840  0.4631
  780MOL0     N 5182   0.951   3.942   0.997 -0.7266  0.3390  0.8466
  780MOL0     C 5183   1.064   3.873   1.040 -0.3205  0.0636 -0.1508
  780MOL0     C 5184   1.020   3.753   1.085 -0.2848  0.3083  0.5772
  780MOL0     C 5185   1.094   3.643   1.148  0.2060 -0.3732  0.5621
  780MOL0     C 5186   1.164   3.552   1.045 -0.2290  0.4776 -0.8949
  780MOL0     C 5187   1.061   3.475   0.954  0.0722 -0.0949  0.1971
  780MOL0     C 5188   1.130   3.399   0.845  0.2946  1.3081  0.5092
  780MOL0     O 5189   1.222   3.299   0.881  0.0717  0.9396 -0.6445
  780MOL0     C 5190   1.268   3.199   0.798 -1.1186 -0.6229  0.2945
  780MOL0     C 5191   1.242   3.204   0.660  0.6723  0.0782 -0.3440
  780MOL0     C 5192   1.286   3.093   0.583 -0.4656  1.5227 -1.5730
  780MOL0     C 5193   1.353   2.986   0.629 -0.2484  0.2068 -0.2626
  780MOL0     C 5194   1.374   2.858   0.552  0.5878  0.7553 -0.3198
  780MOL0     O 5195   1.291   2.818   0.444 -0.0091 -0.0827  0.4309
  780MOL0     C 5196   1.330   2.697   0.384  0.8471 -0.4958  0.0315
  780MOL0     C 5197   1.361   2.700   0.254  0.4088  0.5915  0.0702
  780MOL0     C 5198   1.404   2.588   0.189 -0.1696 -0.9339  0.3020
  780MOL0     C 5199   1.433   2.469   0.261  0.3192  0.5552  0.4521
  780MOL0     O 5200   1.503   2.358   0.215  0.2288  0.1353  0.2812
  780MOL0     C 5201   1.500   2.348   0.073 -0.1919 -0.4660  0.4555
  780MOL0     C 5202   1.518   2.208   0.040  0.6965  0.7881  0.0257
  780MOL0     C 5203   1.401   2.129   0.091  0.5805 -0.0695 -0.4137
  780MOL0     C 5204   1.438   2.002   0.173  1.0669  0.1592  0.4331
  780MOL0     C 5205   1.488   1.885   0.087  0.1488 -0.4380  0.5077
  780MOL0     C 5206   1.476   1.756   0.179 -0.5817  0.3561 -0.4882
  780MOL0     C 5207   1.513   1.618   0.118  0.5880  0.0091  0.4250
  780MOL0     C 5208   1.449   1.502   0.193 -0.2508 -0.3266  0.2098
  780MOL0    Cl 5209   1.513   1.508   0.357 -0.0969 -0.5112  0.5668
  780MOL0     C 5210   1.404   2.466   0.397 -0.6590  0.4971 -0.6630
  780MOL0     C 5211   1.341   2.572   0.456  0.3256  0.4620  0.2466
  780MOL0     O 5212   1.476   2.811   0.586 -0.5071  0.4109 -0.2235
  780MOL0     C 5213   1.385   2.991   0.755 -0.1210  0.7919 -0.4327
  780MOL0     C 5214   1.345   3.093   0.846 -0.8061 -0.3480  0.4996
  780MOL0     N 5215   0.884   3.753   1.051  0.5850 -0.3524  0.2015
  780MOL0     N 5216   0.845   3.865   0.995 -0.1982  0.2995 -0.4200
  780MOL0     C 5217   0.701   3.430   0.504 -0.3321 -0.6341 -0.3091
  780MOL0     C 5218   0.750   3.313   0.556 -0.7161 -0.2959 -0.1412
  780MOL0     C 5219   0.930   2.974   0.755 -0.6403  0.0706  0.3024
  780MOL0     C 5220   1.012   2.877   0.681  0.1839  0.3059 -0.1194
  780MOL0     C 5221   1.043   2.753   0.731 -0.8202 -0.3174  0.2522
  780MOL0     C 5222   1.016   2.720   0.865  0.1874  1.0743  0.7494
  780MOL0     O 5223   1.051   2.592   0.915  0.7401  0.5757  0.3719
  780MOL0     C 5224   0.996   2.466   0.856  0.5449  0.1651 -0.8099
  780MOL0     C 5225   1.089   2.390   0.759  0.1521 -0.9991 -0.3044
  780MOL0     C 5226   1.085   2.236   0.773 -0.2113 -0.5388  0.4966
  780MOL0     C 5227   1.169   2.162   0.676  0.4610  0.3215 -0.0789
  780MOL0     C 5228   1.139   2.197   0.539  0.2266  0.8685 -0.2762
  780MOL0     C 5229   1.124   2.213   0.416  0.2997 -0.7054  0.3122
  780MOL0     C 5230   0.939   2.811   0.934  0.3934  0.8022  0.0298
  780MOL0     C 5231   0.902   2.934   0.889  0.4775 -0.1456 -0.4244
  780MOL0     C 5232   0.854   3.034   0.993  0.3903 -0.3023  0.0097
  780MOL0     H 5233   0.773   3.437   0.870  2.5370 -0.5845 -0.6287
  780MOL0     H 5234   0.700   3.643   0.760  0.4277 -1.0473 -0.0904
  780MOL0     H 5235   0.598   3.814   0.623 -0.9741  1.3817 -1.5844
  780MOL0     H 5236   0.769   3.809   0.558 -0.2637  0.3306 -1.0068
  780MOL0     H 5237   0.507   3.889   0.427  0.1506  2.4339  0.5461
  780MOL0     H 5238   0.648   3.857   0.336  0.2078 -0.0330  0.0447
  780MOL0     H 5239   0.646   4.065   0.570  2.8184  1.5473  0.3828
  780MOL0     H 5240   0.627   4.086   0.399 -0.7900 -0.6761  0.1297
  780MOL0     H 5241   0.880   3.927   0.440  0.2841  0.4988 -0.2780
  780MOL0     H 5242   0.835   4.074   0.354 -1.4859 -0.2286  0.5624
  780MOL0     H 5243   1.004   4.100   0.528 -1.6774 -1.3427 -3.2999
  780MOL0     H 5244   0.873   4.217   0.553  1.5271  1.0678  0.4361
  780MOL0     H 5245   0.779   4.083   0.742 -0.8394  2.9844 -1.4482
  780MOL0     H 5246   0.887   3.949   0.698  0.9016  0.7089 -1.5825
  780MOL0     H 5247   0.999   4.216   0.784 -1.3544  0.6536  1.0779
  780MOL0     H 5248   1.083   4.063   0.789 -0.3812  0.5221 -0.0116
  780MOL0     H 5249   1.025   4.148   1.008  1.2230  1.3402 -2.3077
  780MOL0     H 5250   0.854   4.141   0.966 -1.2895 -1.0738  1.3855
  780MOL0     H 5251   1.165   3.910   1.030  0.6737 -3.0861 -4.7352
  780MOL0     H 5252   1.152   3.681   1.233  0.2117  2.7503 -0.6962
  780MOL0     H 5253   1.015   3.586   1.197  0.7565 -1.7545 -0.1306
  780MOL0     H 5254   1.237   3.611   0.988 -0.2627  1.0630 -0.3432
  780MOL0     H 5255   1.238   3.492   1.098  0.7659  3.2239  1.0604
  780MOL0     H 5256   0.994   3.544   0.901 -0.3495  0.1163  0.9882
  780MOL0     H 5257   1.011   3.411   1.027  1.2466  1.2245  2.2402
  780MOL0     H 5258   1.186   3.469   0.782  3.7676 -0.8235  0.9561
  780MOL0     H 5259   1.052   3.356   0.782  2.2768  1.6724 -2.3992
  780MOL0     H 5260   1.179   3.282   0.619 -1.2732 -0.8941  0.6679
  780MOL0     H 5261   1.238   3.080   0.486 -3.0524 -0.3381 -0.1653
  780MOL0     H 5262   1.347   2.787   0.190  3.1603  0.0502 -1.4351
  780MOL0     H 5263   1.439   2.593   0.087  4.5929 -2.6842  1.5678
  780MOL0     H 5264   1.411   2.393   0.028 -0.1387  1.4584  2.1067
  780MOL0     H 5265   1.591   2.393   0.031 -0.6078  1.4738  1.5248
  780MOL0     H 5266   1.516   2.187  -0.067  0.3464 -1.3359  0.3863
  780MOL0     H 5267   1.615   2.164   0.067  2.6163  1.7707 -4.4110
  780MOL0     H 5268   1.334   2.199   0.143 -1.2691 -0.0323 -2.6991
  780MOL0     H 5269   1.334   2.092   0.013 -0.7451  1.2220  0.0439
  780MOL0     H 5270   1.345   1.974   0.223  0.0244  0.1616 -1.4231
  780MOL0     H 5271   1.510   2.001   0.256  1.4156 -1.5782  0.1405
  780MOL0     H 5272   1.585   1.902   0.041 -1.0830  0.1092 -2.0724
  780MOL0     H 5273   1.416   1.863   0.008 -0.3356 -1.0635  1.1152
  780MOL0     H 5274   1.522   1.776   0.277 -0.8976  0.2524 -0.3183
  780MOL0     H 5275   1.369   1.752   0.204 -0.4408  1.0591  0.2820
  780MOL0     H 5276   1.623   1.611   0.117  0.5415 -1.1048 -1.4735
  780MOL0     H 5277   1.493   1.616   0.011 -1.0802  0.2928  0.7160
  780MOL0     H 5278   1.340   1.507   0.184 -0.3368 -3.2852 -2.0744
  780MOL0     H 5279   1.490   1.417   0.137  1.7230  0.5735  0.1979
  780MOL0     H 5280   1.433   2.379   0.455  1.8251  1.7553  0.0939
  780MOL0     H 5281   1.330   2.562   0.563  3.8991 -1.4535  0.5670
  780MOL0     H 5282   1.442   2.911   0.801 -2.4669 -1.2688 -0.9228
  780MOL0     H 5283   1.384   3.092   0.948 -4.0973 -0.9329  1.8594
  780MOL0     H 5284   0.673   3.445   0.401 -4.7380  0.2343  0.8054
  780MOL0     H 5285   0.770   3.230   0.488 -2.7638 -2.8978  2.2125
  780MOL0     H 5286   1.034   2.906   0.579 -0.6082 -3.4202 -1.5262
  780MOL0     H 5287   1.091   2.681   0.665  1.5979 -0.4929  2.0800
  780MOL0     H 5288   0.901   2.463   0.801  0.2958 -3.5218 -0.4532
  780MOL0     H 5289   1.003   2.409   0.950  1.4461  1.4970 -0.0306
  780MOL0     H 5290   1.189   2.426   0.784 -0.3624 -0.7079  1.4970
  780MOL0     H 5291   1.063   2.430   0.661  0.2420  0.4900  0.2542
  780MOL0     H 5292   0.981   2.202   0.767 -0.2765 -0.6191  1.7770
  780MOL0     H 5293   1.124   2.203   0.870  2.6575  1.0190 -0.0006
  780MOL0     H 5294   1.275   2.180   0.695  0.3120 -0.9128  2.2835
  780MOL0     H 5295   1.158   2.055   0.694 -2.9033  0.6822  0.7843
  780MOL0     H 5296   1.121   2.222   0.310 -0.8774  0.6030  0.4328
  780MOL0     H 5297   0.918   2.796   1.040 -2.8000  3.1913 -0.1048
  780MOL0     H 5298   0.927   3.115   0.987  0.4920  0.2549  4.6841
  780MOL0     H 5299   0.749   3.065   0.984  0.6192  0.1843 -1.2025
  780MOL0     H 5300   0.854   2.981   1.089 -1.0658  0.5135  0.5004
  781MOL0     O 5301   3.241   2.161   0.681  1.0686  0.9505  0.3706
  781MOL0     C 5302   3.126   2.130   0.701  0.3244  0.1270 -0.1577
  781MOL0     O 5303   3.060   2.046   0.621 -0.7338  0.3749  0.2721
  781MOL0     C 5304   3.135   1.971   0.538 -0.6007 -0.1390  0.4596
  781MOL0     C 5305   3.158   1.837   0.570  0.5803  0.2492  0.5937
  781MOL0     C 5306   3.220   1.748   0.488 -0.7657  0.1745 -0.1894
  781MOL0     C 5307   3.257   1.795   0.358  0.9532 -0.4046  0.4747
  781MOL0     O 5308   3.326   1.724   0.258 -0.3022 -0.0179  0.6517
  781MOL0     C 5309   3.372   1.592   0.293  0.4250 -0.0555  0.5120
  781MOL0     C 5310   3.491   1.601   0.376  0.1752  0.6152  0.4518
  781MOL0     C 5311   3.562   1.467   0.386 -0.2696 -0.8008 -0.2847
  781MOL0     C 5312   3.671   1.483   0.489 -0.1822  0.3347 -0.3950
  781MOL0     C 5313   3.763   1.361   0.489  0.6190 -0.8883 -0.1884
  781MOL0     C 5314   3.838   1.347   0.620 -0.5998  0.9727 -0.3645
  781MOL0     C 5315   3.933   1.223   0.623  0.0527  0.1515 -0.0284
  781MOL0     C 5316   4.035   1.241   0.507 -0.3225 -0.2762 -0.7055
  781MOL0     N 5317   4.167   1.189   0.544  0.3824 -0.4201  0.8384
  781MOL0     C 5318   4.283   1.265   0.530  0.2099  0.1363  0.0790
  781MOL0     C 5319   4.385   1.173   0.540  0.3204  0.0957  0.8214
  781MOL0     C 5320   4.525   1.198   0.516 -0.5595 -0.5208  0.1154
  781MOL0     C 5321   4.604   1.177   0.648  1.0300  0.7978  0.5071
  781MOL0     C 5322   4.751   1.203   0.647  0.4832  0.0412  0.3702
  781MOL0     C 5323   4.788   1.342   0.586 -0.1362 -0.2677  0.1756
  781MOL0     O 5324   4.919   1.383   0.633 -0.2749 -0.7653 -0.1327
  781MOL0     C 5325   5.036   1.383   0.560 -0.6328 -1.2450 -0.5907
  781MOL0     C 5326   5.049   1.306   0.449  0.3312 -0.7195  1.2821
  781MOL0     C 5327   5.163   1.298   0.375 -0.0947  0.7509 -0.8173
  781MOL0     C 5328   5.272   1.387   0.406  0.3611  0.1651  0.0044
  781MOL0     C 5329   5.399   1.398   0.326 -0.5913  0.2157 -0.1723
  781MOL0     O 5330   5.397   1.339   0.201  0.3810 -0.0475 -0.5455
  781MOL0     C 5331   5.503   1.313   0.128  0.6413 -0.4425  0.6128
  781MOL0     C 5332   5.613   1.401   0.118  1.0078  1.2059 -0.4389
  781MOL0     C 5333   5.722   1.375   0.039 -0.3400  0.1769  0.0807
  781MOL0     C 5334   5.725   1.265  -0.043 -0.3447  0.0588 -0.2128
  781MOL0     O 5335   5.839   1.243  -0.105  0.2394  0.1408  0.6206
  781MOL0     C 5336   5.867   1.113  -0.161  0.4626  0.3550  0.2575
  781MOL0     C 5337   5.994   1.123  -0.245 -0.0026  0.2428 -1.1223
  781MOL0     C 5338   6.109   1.165  -0.151  0.2326 -0.1708 -0.2042
  781MOL0     C 5339   6.243   1.164  -0.224 -0.2298 -0.3971  0.0860
  781MOL0     C 5340   6.366   1.190  -0.126  0.0541  0.5869  0.0303
  781MOL0     C 5341   6.496   1.166  -0.202 -0.5026  0.5261 -0.8977
  781MOL0     C 5342   6.613   1.215  -0.115  0.2610 -0.8194 -0.8513
  781MOL0     C 5343   6.752   1.196  -0.174  0.6115  0.6394 -0.3494
  781MOL0    Cl 5344   6.806   1.025  -0.171 -0.2660 -0.4003  0.5372
  781MOL0     C 5345   5.618   1.172  -0.026  0.0965  0.2902  0.9038
  781MOL0     C 5346   5.508   1.195   0.050  0.0245 -1.2860 -0.4957
  781MOL0     O 5347   5.502   1.422   0.395 -0.1565  0.1825  0.1910
  781MOL0     C 5348   5.261   1.470   0.526 -0.0948  0.8446 -0.1934
  781MOL0     C 5349   5.141   1.467   0.595 -0.4573 -0.4166  0.0177
  781MOL0     N 5350   4.331   1.042   0.552  0.3246 -0.5902  0.4633
  781MOL0     N 5351   4.205   1.051   0.544  0.6315 -0.3024 -0.0258
  781MOL0     C 5352   3.250   1.932   0.333  0.7380 -0.7883 -0.5034
  781MOL0     C 5353   3.193   2.027   0.415 -0.2658 -0.2712 -1.0467
  781MOL0     C 5354   3.049   2.189   0.819  0.5193 -0.2402  0.4374
  781MOL0     C 5355   2.922   2.134   0.849 -0.9148 -0.9988 -0.7425
  781MOL0     C 5356   2.844   2.183   0.960  0.2518 -0.4074 -0.1992
  781MOL0     C 5357   2.899   2.288   1.039  0.5557 -0.2035  0.2629
  781MOL0     O 5358   2.847   2.350   1.151  0.2172  0.2680  0.2400
  781MOL0     C 5359   2.715   2.311   1.193  0.3933  0.0634 -0.0089
  781MOL0     C 5360   2.591   2.358   1.103  0.1723  0.5424  0.3180
  781MOL0     C 5361   2.600   2.505   1.060  0.1287 -1.0564 -1.1063
  781MOL0     C 5362   2.470   2.561   0.998 -0.0943 -0.2386 -0.9709
  781MOL0     C 5363   2.467   2.560   0.846 -0.0168  0.4740 -0.4701
  781MOL0     C 5364   2.487   2.545   0.725  0.7357 -0.0542 -1.1244
  781MOL0     C 5365   3.019   2.346   1.005  0.3912 -0.0468 -0.5397
  781MOL0     C 5366   3.091   2.299   0.894  0.4488  0.5306 -0.4637
  781MOL0     C 5367   3.212   2.379   0.866 -1.0918  0.0753  0.2834
  781MOL0     H 5368   3.130   1.808   0.670  0.6154  1.4158  0.9524
  781MOL0     H 5369   3.228   1.647   0.528  0.1931  0.9628  1.7425
  781MOL0     H 5370   3.292   1.528   0.332  0.2254  0.9181  1.7768
  781MOL0     H 5371   3.402   1.563   0.192  1.2701  0.6405  0.5504
  781MOL0     H 5372   3.458   1.631   0.476 -2.0873  2.4950 -0.7776
  781MOL0     H 5373   3.560   1.671   0.328  1.5321  0.4715  2.0897
  781MOL0     H 5374   3.596   1.430   0.289 -1.0406 -0.6378 -0.6281
  781MOL0     H 5375   3.492   1.391   0.422  0.5153 -1.0907  0.6542
  781MOL0     H 5376   3.739   1.564   0.463 -0.9906  0.0166 -4.2378
  781MOL0     H 5377   3.628   1.500   0.588 -0.6937 -2.5678 -0.0136
  781MOL0     H 5378   3.719   1.266   0.458  2.9057 -2.0996  0.0419
  781MOL0     H 5379   3.842   1.374   0.414  1.1525 -0.1711  0.4884
  781MOL0     H 5380   3.905   1.427   0.652  2.2870 -2.5866  3.8947
  781MOL0     H 5381   3.765   1.326   0.699  0.5837  0.4344  0.6179
  781MOL0     H 5382   3.883   1.131   0.591  0.6238  0.5488 -2.2402
  781MOL0     H 5383   3.972   1.203   0.723 -3.2681 -0.9832  1.1892
  781MOL0     H 5384   4.006   1.182   0.419 -1.0808  1.3863 -1.5996
  781MOL0     H 5385   4.044   1.347   0.484 -1.3523 -0.2556 -1.0736
  781MOL0     H 5386   4.304   1.371   0.527  0.8139  0.0788  1.6250
  781MOL0     H 5387   4.552   1.127   0.438  0.4630  0.7326 -0.7191
  781MOL0     H 5388   4.538   1.298   0.472 -0.3269  0.2821  1.9464
  781MOL0     H 5389   4.562   1.237   0.729  0.1026 -2.6266  2.7656
  781MOL0     H 5390   4.591   1.072   0.675  6.0392 -1.2363 -3.3596
  781MOL0     H 5391   4.803   1.131   0.582 -0.0883 -0.2892  0.2733
  781MOL0     H 5392   4.789   1.208   0.749  1.6586 -1.2905  0.0461
  781MOL0     H 5393   4.727   1.425   0.624  4.3877  2.5821  1.9862
  781MOL0     H 5394   4.790   1.329   0.478  1.4234 -0.9882  0.2633
  781MOL0     H 5395   4.971   1.239   0.415  0.6029 -0.5583  0.3105
  781MOL0     H 5396   5.173   1.227   0.294  0.4603 -1.4214  1.0572
  781MOL0     H 5397   5.619   1.497   0.169 -1.2308  1.5479 -0.7027
  781MOL0     H 5398   5.802   1.447   0.029 -0.6616  0.6461  0.7851
  781MOL0     H 5399   5.879   1.049  -0.072 -1.4419 -0.3250  0.0626
  781MOL0     H 5400   5.785   1.070  -0.218 -0.7076  2.1750  0.4844
  781MOL0     H 5401   6.016   1.035  -0.305 -1.0585  1.7812 -3.9412
  781MOL0     H 5402   5.966   1.197  -0.320 -2.3090  0.9427  0.3122
  781MOL0     H 5403   6.088   1.262  -0.106 -2.8393 -1.1185  0.6850
  781MOL0     H 5404   6.134   1.101  -0.066 -0.2340 -0.7237 -0.4742
  781MOL0     H 5405   6.242   1.239  -0.304 -2.1469  0.5123  0.8994
  781MOL0     H 5406   6.265   1.065  -0.266  0.8691  0.2693 -1.0048
  781MOL0     H 5407   6.340   1.120  -0.047 -0.1254  1.2238  0.5391
  781MOL0     H 5408   6.356   1.293  -0.090 -2.2431  0.0673  1.0877
  781MOL0     H 5409   6.499   1.059  -0.228  1.1970 -0.1790  1.7425
  781MOL0     H 5410   6.502   1.229  -0.291  0.5788 -0.4390 -1.5341
  781MOL0     H 5411   6.596   1.174  -0.014 -0.5558  0.0101 -0.6317
  781MOL0     H 5412   6.586   1.320  -0.098  0.4956 -0.8281 -0.3846
  781MOL0     H 5413   6.757   1.246  -0.271 -3.2613  0.6016 -0.7112
  781MOL0     H 5414   6.818   1.263  -0.118 -3.2883  1.6388  3.6487
  781MOL0     H 5415   5.611   1.076  -0.076 -1.1111 -0.4554  2.4121
  781MOL0     H 5416   5.427   1.123   0.058  0.9901 -2.4431 -0.8937
  781MOL0     H 5417   5.338   1.543   0.549 -0.0193  1.1367 -1.2803
  781MOL0     H 5418   5.125   1.532   0.680 -0.1130 -0.1896 -0.0904
  781MOL0     H 5419   3.287   1.975   0.240  0.6651  1.6346  0.5193
  781MOL0     H 5420   3.203   2.132   0.392 -2.6956  0.1635 -0.4521
  781MOL0     H 5421   2.880   2.052   0.792 -0.9036  0.0824 -2.3650
  781MOL0     H 5422   2.743   2.147   0.977 -1.4523  3.8277 -0.1192
  781MOL0     H 5423   2.696   2.367   1.285  0.2772  0.1621 -0.0931
  781MOL0     H 5424   2.704   2.206   1.220  0.7657  0.2082  0.7400
  781MOL0     H 5425   2.503   2.344   1.166  0.7072  2.0500  1.4681
  781MOL0     H 5426   2.585   2.291   1.017  0.5477  1.3608 -0.3677
  781MOL0     H 5427   2.670   2.504   0.976 -0.0632  0.4128 -1.3151
  781MOL0     H 5428   2.645   2.562   1.141 -3.8539 -1.8548  1.9882
  781MOL0     H 5429   2.382   2.513   1.040  1.1782  0.2348  2.5937
  781MOL0     H 5430   2.464   2.670   1.012  1.6730 -0.3353  1.1254
  781MOL0     H 5431   2.484   2.526   0.620  0.8554  2.5595 -1.6655
  781MOL0     H 5432   3.041   2.448   1.037  0.3417  0.0952 -0.9469
  781MOL0     H 5433   3.303   2.320   0.883  2.0569  4.2859 -0.2731
  781MOL0     H 5434   3.220   2.412   0.762  2.0424 -1.9648 -0.2728
  781MOL0     H 5435   3.231   2.469   0.926 -1.0080  0.5880 -0.4980
  782MOL0     O 5436   7.818   4.074   4.491 -0.0573  0.2752  0.2144
  782MOL0     C 5437   7.826   4.140   4.596 -0.0196  0.0074 -0.4562
  782MOL0     O 5438   7.891   4.256   4.613 -0.4423 -0.3823  0.6276
  782MOL0     C 5439   7.920   4.332   4.502 -0.2103  0.1819 -0.3395
  782MOL0     C 5440   7.941   4.465   4.534 -1.0823 -0.2192  0.5809
  782MOL0     C 5441   7.960   4.571   4.443 -0.0042  0.1359  0.0076
  782MOL0     C 5442   7.947   4.551   4.311  0.3972 -0.1913  1.6194
  782MOL0     O 5443   7.954   4.670   4.234  0.6258 -0.2232 -0.1217
  782MOL0     C 5444   8.013   4.659   4.099 -0.6007  0.4305 -1.0643
  782MOL0     C 5445   8.167   4.652   4.109  0.8282 -0.6968  0.3867
  782MOL0     C 5446   8.234   4.649   3.969 -0.1498  0.4188 -0.6478
  782MOL0     C 5447   8.378   4.615   3.985  0.3773 -0.0618 -0.1268
  782MOL0     C 5448   8.447   4.573   3.845  0.8618  0.7487 -0.4337
  782MOL0     C 5449   8.594   4.619   3.850  0.0825 -0.3089 -0.7836
  782MOL0     C 5450   8.674   4.576   3.736  0.2291  0.2330  0.1290
  782MOL0     C 5451   8.820   4.599   3.770 -0.1487 -0.0754 -1.2150
  782MOL0     N 5452   8.845   4.745   3.771 -0.3083 -0.5702 -0.3340
  782MOL0     C 5453   8.836   4.821   3.659  0.1870 -0.0599 -0.6835
  782MOL0     C 5454   8.828   4.951   3.691  0.5447  0.3322 -0.0360
  782MOL0     C 5455   8.809   5.067   3.591 -0.2153  0.5562  0.3084
  782MOL0     C 5456   8.884   5.037   3.467  0.0866 -0.6947  0.8659
  782MOL0     C 5457   9.037   5.005   3.496 -0.3625  0.6140  0.1990
  782MOL0     C 5458   9.103   4.984   3.354  0.0573 -0.4935  0.7810
  782MOL0     O 5459   9.052   4.866   3.275 -0.4800  0.1362 -0.5858
  782MOL0     C 5460   9.092   4.740   3.320 -0.4991 -0.6212 -1.1766
  782MOL0     C 5461   9.208   4.715   3.399 -0.7784 -0.1680  0.0057
  782MOL0     C 5462   9.253   4.584   3.416 -0.5832  0.2944  0.1374
  782MOL0     C 5463   9.188   4.472   3.368 -0.1625 -0.5578  0.2836
  782MOL0     C 5464   9.245   4.340   3.399  0.6062  0.2868  0.2961
  782MOL0     O 5465   9.161   4.233   3.368 -0.1635 -0.6615 -0.4183
  782MOL0     C 5466   9.192   4.106   3.414 -0.6729  0.3797  0.8566
  782MOL0     C 5467   9.123   4.058   3.517  0.2273  0.1721 -0.4281
  782MOL0     C 5468   9.156   3.934   3.577  0.5664  0.5621  0.2304
  782MOL0     C 5469   9.251   3.849   3.516 -0.4093 -0.0860 -1.0013
  782MOL0     O 5470   9.296   3.734   3.589  0.0131 -0.3894  0.2257
  782MOL0     C 5471   9.435   3.695   3.588 -0.2854 -0.2428  0.0848
  782MOL0     C 5472   9.522   3.794   3.659  0.0826  0.1899 -0.3894
  782MOL0     C 5473   9.658   3.729   3.669  0.7976 -1.9749  0.7670
  782MOL0     C 5474   9.749   3.828   3.738 -0.6770 -0.1354 -0.8611
  782MOL0     C 5475   9.880   3.748   3.760 -0.3958  0.4632 -0.3677
  782MOL0     C 5476   9.991   3.823   3.840  0.4337  0.5124 -0.2159
  782MOL0     C 5477   9.975   3.809   3.990 -0.5402  0.9447  0.5285
  782MOL0     C 5478  10.048   3.913   4.078  0.0826  1.0952 -0.2384
  782MOL0    Cl 5479  10.223   3.896   4.058 -0.4667 -0.1001  0.0879
  782MOL0     C 5480   9.315   3.901   3.399  0.4635  0.3051 -0.5169
  782MOL0     C 5481   9.283   4.027   3.345 -0.3817  0.2172 -0.3218
  782MOL0     O 5482   9.361   4.334   3.444 -0.2674  0.0488 -0.2432
  782MOL0     C 5483   9.062   4.504   3.300 -0.3464 -0.3428 -0.6079
  782MOL0     C 5484   9.022   4.635   3.272 -0.2542 -0.0316  0.3853
  782MOL0     N 5485   8.839   4.958   3.829  0.3443  0.0197  0.2726
  782MOL0     N 5486   8.858   4.833   3.873  0.8264  0.1883 -0.2181
  782MOL0     C 5487   7.935   4.416   4.267 -0.0233  0.4552 -0.7776
  782MOL0     C 5488   7.919   4.309   4.362  0.0850  0.5807 -0.4930
  782MOL0     C 5489   7.767   4.076   4.718 -0.0959  0.7631 -0.1174
  782MOL0     C 5490   7.804   4.137   4.840 -1.0139 -0.2846  0.3948
  782MOL0     C 5491   7.753   4.092   4.959 -0.3359  0.0903 -0.4594
  782MOL0     C 5492   7.670   3.987   4.972  1.2767 -0.1073 -0.4697
  782MOL0     O 5493   7.617   3.980   5.096 -0.5506 -0.5710 -0.1054
  782MOL0     C 5494   7.496   3.895   5.112  0.0336  0.5576  0.0008
  782MOL0     C 5495   7.464   3.898   5.258  0.4235 -0.5507 -0.4424
  782MOL0     C 5496   7.323   3.841   5.286  0.1090  0.3674  0.4884
  782MOL0     C 5497   7.304   3.826   5.439  0.5159 -0.2724  0.6669
  782MOL0     C 5498   7.159   3.809   5.461 -0.0954 -0.2583 -0.5737
  782MOL0     C 5499   7.037   3.796   5.474 -0.4343 -0.5567 -0.2631
  782MOL0     C 5500   7.625   3.928   4.853  0.0760  0.3335 -0.5043
  782MOL0     C 5501   7.683   3.967   4.729 -0.0768 -0.4101 -0.5672
  782MOL0     C 5502   7.619   3.909   4.602  0.9267  0.4079 -0.2422
  782MOL0     H 5503   7.940   4.506   4.635 -1.0189  0.9023  0.1365
  782MOL0     H 5504   7.969   4.670   4.486 -0.5869  0.6802 -1.0838
  782MOL0     H 5505   7.963   4.584   4.038 -0.9846 -0.7934  0.6914
  782MOL0     H 5506   7.991   4.747   4.038  2.3535  1.5691 -0.6444
  782MOL0     H 5507   8.187   4.559   4.163 -0.8234 -0.3383  1.7127
  782MOL0     H 5508   8.195   4.738   4.170  1.4236 -0.7049  0.1345
  782MOL0     H 5509   8.219   4.748   3.926  4.0339  0.9030 -1.4223
  782MOL0     H 5510   8.196   4.574   3.899  2.2141  1.3902 -3.1623
  782MOL0     H 5511   8.438   4.690   4.037  2.3032 -0.7424 -1.2239
  782MOL0     H 5512   8.386   4.525   4.046 -1.0981 -0.5618 -0.6512
  782MOL0     H 5513   8.446   4.465   3.828  3.7040 -0.4853  4.9824
  782MOL0     H 5514   8.386   4.607   3.760 -2.8026 -2.5279  0.5607
  782MOL0     H 5515   8.590   4.728   3.838  1.7184  0.0859  1.5806
  782MOL0     H 5516   8.642   4.591   3.944 -1.1272  3.2509  1.0875
  782MOL0     H 5517   8.638   4.629   3.647  1.0823 -0.1336 -0.4479
  782MOL0     H 5518   8.662   4.468   3.726 -1.0031  0.1845  1.7356
  782MOL0     H 5519   8.851   4.564   3.869 -1.2517  0.3032 -0.7241
  782MOL0     H 5520   8.893   4.552   3.704  1.3429  1.4228 -0.7128
  782MOL0     H 5521   8.834   4.788   3.556  0.0726 -0.1352 -0.6573
  782MOL0     H 5522   8.703   5.071   3.564  0.4083 -2.8522 -3.6792
  782MOL0     H 5523   8.830   5.164   3.637 -0.8206  1.8706 -2.0434
  782MOL0     H 5524   8.829   4.972   3.398  0.7416  0.8045 -1.1653
  782MOL0     H 5525   8.892   5.134   3.419 -0.0387 -1.3324 -0.4772
  782MOL0     H 5526   9.053   4.916   3.558 -1.9911  0.0078 -0.1932
  782MOL0     H 5527   9.086   5.086   3.549  1.6254  0.5859 -1.4487
  782MOL0     H 5528   9.210   4.990   3.376 -0.0627  0.8205  1.0610
  782MOL0     H 5529   9.078   5.075   3.297  2.5315 -0.1714  0.0805
  782MOL0     H 5530   9.269   4.799   3.429 -0.9692 -0.1487  0.3445
  782MOL0     H 5531   9.352   4.572   3.458 -0.6521  1.1868  0.5573
  782MOL0     H 5532   9.050   4.128   3.556  1.6638  1.8057 -0.5317
  782MOL0     H 5533   9.105   3.906   3.669 -0.2895  4.7808  1.2566
  782MOL0     H 5534   9.447   3.601   3.642  1.0037  1.1344  2.3559
  782MOL0     H 5535   9.477   3.681   3.488 -0.6846 -0.5595 -0.0452
  782MOL0     H 5536   9.522   3.899   3.626 -0.7728  1.3865  3.0287
  782MOL0     H 5537   9.480   3.800   3.760  0.5997 -2.1624  0.0255
  782MOL0     H 5538   9.640   3.636   3.724  1.1385 -2.8529 -0.5456
  782MOL0     H 5539   9.697   3.701   3.570  1.8014 -1.2153  0.9240
  782MOL0     H 5540   9.709   3.858   3.835  0.0085  4.8107 -1.8419
  782MOL0     H 5541   9.765   3.921   3.682  0.8729 -1.0230 -1.9623
  782MOL0     H 5542   9.922   3.721   3.662  0.1189  0.7621 -0.2317
  782MOL0     H 5543   9.863   3.655   3.814 -0.0224  0.7842  0.3007
  782MOL0     H 5544  10.088   3.776   3.820 -0.1185 -1.0182  0.5500
  782MOL0     H 5545   9.986   3.924   3.798 -1.2271 -0.0341 -1.4518
  782MOL0     H 5546  10.013   3.710   4.017 -0.2646  1.3438  1.6331
  782MOL0     H 5547   9.869   3.819   4.012 -0.2359  3.1087  1.2063
  782MOL0     H 5548   9.998   4.004   4.042 -3.5709 -0.8274 -0.4810
  782MOL0     H 5549  10.026   3.889   4.182 -0.6615 -0.5149 -0.7344
  782MOL0     H 5550   9.385   3.840   3.344 -3.3413 -1.5019 -3.9012
  782MOL0     H 5551   9.328   4.060   3.253 -2.8125  1.3197 -1.1931
  782MOL0     H 5552   9.005   4.418   3.268  1.8699 -1.5618 -1.5494
  782MOL0     H 5553   8.935   4.649   3.208 -0.6668 -0.4215  0.8518
  782MOL0     H 5554   7.902   4.403   4.164 -1.8998 -3.4255  0.1012
  782MOL0     H 5555   7.895   4.213   4.318  2.3824 -0.7806  0.9764
  782MOL0     H 5556   7.866   4.225   4.851 -0.2098 -0.3591 -2.6899
  782MOL0     H 5557   7.781   4.156   5.042  0.2917 -0.2659 -0.3869
  782MOL0     H 5558   7.522   3.793   5.079 -1.3736  1.3256 -3.9939
  782MOL0     H 5559   7.407   3.924   5.056 -0.8439 -0.4421  0.8292
  782MOL0     H 5560   7.468   4.003   5.287  1.1198 -0.6566 -0.1436
  782MOL0     H 5561   7.536   3.840   5.317 -0.8093 -1.3132  0.3710
  782MOL0     H 5562   7.320   3.737   5.254 -2.0775 -0.6834  3.5938
  782MOL0     H 5563   7.249   3.903   5.234  1.9226  2.2455  0.0195
  782MOL0     H 5564   7.360   3.735   5.461  0.0453 -1.3541 -2.1640
  782MOL0     H 5565   7.344   3.912   5.493 -1.2267  0.8830  0.2030
  782MOL0     H 5566   6.930   3.794   5.480 -0.4585  1.6967  1.7204
  782MOL0     H 5567   7.545   3.855   4.858 -0.7083  1.1618 -0.7516
  782MOL0     H 5568   7.544   3.833   4.625  1.8386 -0.3995  0.1158
  782MOL0     H 5569   7.564   3.989   4.552 -3.8184 -2.7710 -0.7950
  782MOL0     H 5570   7.696   3.858   4.543 -1.5150 -1.6619 -1.8686
  783MOL0     O 5571   2.952   4.261   9.977  0.2696  0.2426  0.3080
  783MOL0     C 5572   2.916   4.147   9.947  0.2889 -0.8783  0.3371
  783MOL0     O 5573   2.787   4.100   9.975 -0.6935  0.2010  0.5739
  783MOL0     C 5574   2.688   4.184  10.009  0.2136  0.1529  0.5555
  783MOL0     C 5575   2.619   4.144  10.122  1.0576 -0.5058 -0.5092
  783MOL0     C 5576   2.533   4.229  10.195 -0.5176  0.2664 -0.6433
  783MOL0     C 5577   2.498   4.351  10.144  0.3677  0.3276  0.0250
  783MOL0     O 5578   2.416   4.442  10.209 -0.7422 -0.2555 -0.3718
  783MOL0     C 5579   2.470   4.504  10.325 -0.1936 -0.6110  1.1802
  783MOL0     C 5580   2.377   4.606  10.395 -0.1275  0.4776  0.6040
  783MOL0     C 5581   2.224   4.582  10.370 -0.1316  0.6697  0.6767
  783MOL0     C 5582   2.180   4.479  10.469 -0.0677  0.4391 -0.1322
  783MOL0     C 5583   2.029   4.442  10.456 -0.0993 -0.2041 -0.1759
  783MOL0     C 5584   2.009   4.325  10.554 -1.3627 -0.5135  0.3977
  783MOL0     C 5585   1.856   4.315  10.574 -0.0419 -0.4118  0.2764
  783MOL0     C 5586   1.829   4.245  10.705 -0.5433 -0.1415 -0.0379
  783MOL0     N 5587   1.865   4.100  10.711  0.3813  0.0408 -0.8977
  783MOL0     C 5588   1.894   4.021  10.828  0.7112 -0.8458 -0.4792
  783MOL0     C 5589   1.926   3.900  10.776  0.7855  0.0524 -0.8037
  783MOL0     C 5590   1.942   3.763  10.838 -0.1158 -0.6248 -0.4567
  783MOL0     C 5591   1.809   3.742  10.920 -0.2440  0.3076  1.2947
  783MOL0     C 5592   1.793   3.600  10.974  0.4228 -0.2716  0.5328
  783MOL0     C 5593   1.885   3.571  11.090 -0.2184 -0.2477  0.3484
  783MOL0     O 5594   1.823   3.504  11.193 -0.0758  0.0484 -0.7781
  783MOL0     C 5595   1.783   3.363  11.176  0.0214  0.2914  1.2933
  783MOL0     C 5596   1.810   3.294  11.056 -0.5608  0.1279  0.8602
  783MOL0     C 5597   1.762   3.168  11.025 -0.4527  0.1107 -0.4966
  783MOL0     C 5598   1.683   3.105  11.117  0.6101  0.4266 -0.0680
  783MOL0     C 5599   1.637   2.962  11.097  0.1470 -0.5801 -0.8656
  783MOL0     O 5600   1.567   2.912  11.202 -0.6120 -0.0932  0.7367
  783MOL0     C 5601   1.504   2.791  11.199  0.5849  0.4751 -0.3494
  783MOL0     C 5602   1.376   2.782  11.255 -0.1682  0.2382 -0.5737
  783MOL0     C 5603   1.313   2.656  11.254  0.2261  1.1223  0.6685
  783MOL0     C 5604   1.374   2.544  11.194 -0.5703  0.2034 -0.0694
  783MOL0     O 5605   1.307   2.426  11.205 -0.1332 -0.0558  0.9930
  783MOL0     C 5606   1.323   2.330  11.102  0.6980  0.1620 -0.8785
  783MOL0     C 5607   1.200   2.250  11.085  0.8977 -0.2442 -0.1792
  783MOL0     C 5608   1.226   2.140  10.988  1.6674 -0.3025 -0.1965
  783MOL0     C 5609   1.095   2.066  10.960  0.3310 -0.2857  0.1975
  783MOL0     C 5610   1.043   2.092  10.820 -0.1727  0.3655  0.3818
  783MOL0     C 5611   0.918   2.017  10.793  0.2483  0.1807 -0.0744
  783MOL0     C 5612   0.872   2.014  10.652  0.2033  0.1667 -0.7352
  783MOL0     C 5613   0.739   1.944  10.645  0.1807  0.1132  1.1386
  783MOL0    Cl 5614   0.740   1.773  10.673 -0.1704  0.0061 -0.2025
  783MOL0     C 5615   1.499   2.552  11.134  0.4324 -1.1298 -0.1656
  783MOL0     C 5616   1.570   2.674  11.161 -0.2366 -0.7156 -0.1217
  783MOL0     O 5617   1.661   2.897  11.000  0.2852  0.4838  0.0719
  783MOL0     C 5618   1.648   3.173  11.238  0.6604  0.2691 -0.5579
  783MOL0     C 5619   1.707   3.298  11.267  0.4357  0.2961 -0.2113
  783MOL0     N 5620   1.941   3.911  10.643 -0.2178 -0.2963 -0.8122
  783MOL0     N 5621   1.908   4.028  10.601 -0.8706  0.7049  0.6035
  783MOL0     C 5622   2.564   4.389  10.026 -0.9220 -0.2513  0.6754
  783MOL0     C 5623   2.663   4.309   9.955  0.6362  0.2896  0.2395
  783MOL0     C 5624   3.005   4.052   9.882 -0.1711 -0.7619  0.7511
  783MOL0     C 5625   2.953   3.966   9.782  1.3734 -0.4729  0.4157
  783MOL0     C 5626   3.028   3.875   9.709  0.3216 -0.3972 -0.1202
  783MOL0     C 5627   3.160   3.875   9.728 -0.0689  0.9393 -0.0996
  783MOL0     O 5628   3.244   3.795   9.657  0.8763  0.9171  0.3342
  783MOL0     C 5629   3.311   3.876   9.561 -1.1366  0.1257  0.2474
  783MOL0     C 5630   3.371   3.793   9.439 -0.3342  0.2911  0.7849
  783MOL0     C 5631   3.444   3.903   9.339  0.0799 -0.6696  0.4075
  783MOL0     C 5632   3.530   3.820   9.242  0.4016 -0.2887 -0.6282
  783MOL0     C 5633   3.642   3.738   9.309  0.4387 -0.1521  0.3823
  783MOL0     C 5634   3.738   3.694   9.361 -0.4743  1.2006  0.0183
  783MOL0     C 5635   3.223   3.952   9.823 -0.0422 -1.2024 -0.4954
  783MOL0     C 5636   3.147   4.038   9.904 -0.1979 -0.4816 -0.2076
  783MOL0     C 5637   3.222   4.120  10.012  0.3439  0.1677  0.0241
  783MOL0     H 5638   2.641   4.042  10.151 -2.0481 -1.3277 -0.6769
  783MOL0     H 5639   2.490   4.207  10.292  0.2559  2.9344  0.3898
  783MOL0     H 5640   2.486   4.434  10.408  0.5789 -1.5732  0.2425
  783MOL0     H 5641   2.553   4.567  10.292 -1.9539  0.2231 -2.0284
  783MOL0     H 5642   2.399   4.703  10.349  2.4656 -1.1064 -1.7512
  783MOL0     H 5643   2.389   4.608  10.504  0.2051 -0.2064  0.5847
  783MOL0     H 5644   2.204   4.554  10.266  0.9527  2.3658 -0.0286
  783MOL0     H 5645   2.170   4.676  10.376  1.5958  1.6947  0.8771
  783MOL0     H 5646   2.245   4.390  10.468 -1.3323 -0.6559  2.8794
  783MOL0     H 5647   2.194   4.517  10.571 -0.8144  0.9062 -0.1950
  783MOL0     H 5648   1.965   4.527  10.481 -0.5622 -0.1366 -1.5114
  783MOL0     H 5649   2.003   4.422  10.352 -0.6736 -0.8784  0.0890
  783MOL0     H 5650   2.063   4.237  10.517  2.8270  2.1419 -0.5883
  783MOL0     H 5651   2.062   4.353  10.646  1.3096  0.1648 -1.2188
  783MOL0     H 5652   1.811   4.258  10.492  0.4524  1.1430 -1.1450
  783MOL0     H 5653   1.807   4.411  10.563 -0.0103 -0.6570 -3.3260
  783MOL0     H 5654   1.901   4.297  10.769 -2.2809  0.0409  1.8671
  783MOL0     H 5655   1.729   4.264  10.746  0.2617  1.9751  1.1021
  783MOL0     H 5656   1.865   4.058  10.926  3.5225  2.7801 -0.8158
  783MOL0     H 5657   1.949   3.687  10.760 -1.8056  0.3865 -1.6659
  783MOL0     H 5658   2.027   3.752  10.905 -0.2165 -2.8938 -0.6246
  783MOL0     H 5659   1.812   3.798  11.014  2.9817  2.5590  0.0227
  783MOL0     H 5660   1.727   3.770  10.853  1.5613  1.8699 -0.3943
  783MOL0     H 5661   1.804   3.529  10.891  0.4348  2.8127 -2.3478
  783MOL0     H 5662   1.684   3.595  10.987 -0.2393  2.6568 -2.3748
  783MOL0     H 5663   1.929   3.660  11.135 -0.6895 -1.5320  3.6116
  783MOL0     H 5664   1.972   3.513  11.058 -0.0154 -1.3911  2.7616
  783MOL0     H 5665   1.878   3.333  10.981  0.5555  2.7770  3.1115
  783MOL0     H 5666   1.785   3.121  10.930  1.4915  1.0712 -0.5492
  783MOL0     H 5667   1.323   2.864  11.301  3.1973  0.4912  3.4178
  783MOL0     H 5668   1.215   2.641  11.298  0.4772 -4.7205 -0.0075
  783MOL0     H 5669   1.338   2.381  11.007 -2.4071  2.2159 -0.4088
  783MOL0     H 5670   1.403   2.263  11.135 -2.0209 -1.9296  2.1481
  783MOL0     H 5671   1.175   2.208  11.183  2.1027  0.0532  0.2683
  783MOL0     H 5672   1.123   2.320  11.050  1.3310  0.0157 -0.6176
  783MOL0     H 5673   1.266   2.179  10.894 -1.3030 -0.8327 -1.8146
  783MOL0     H 5674   1.290   2.063  11.032 -1.5284 -2.8218  0.4251
  783MOL0     H 5675   1.011   2.073  11.029 -0.8576  2.0498 -1.3510
  783MOL0     H 5676   1.116   1.959  10.948  2.8772  0.4452 -3.9097
  783MOL0     H 5677   1.117   2.051  10.750  1.6892  2.4141  1.0309
  783MOL0     H 5678   1.033   2.197  10.791  0.8848  0.2852 -0.3138
  783MOL0     H 5679   0.933   1.919  10.839  1.1690  0.0479 -0.6265
  783MOL0     H 5680   0.846   2.071  10.854  1.0946  0.2785  0.8692
  783MOL0     H 5681   0.947   1.964  10.589 -0.1363 -0.9253 -0.3028
  783MOL0     H 5682   0.858   2.116  10.617  0.1421  0.9906  1.5494
  783MOL0     H 5683   0.657   1.991  10.701  1.6698  0.1348  3.4119
  783MOL0     H 5684   0.708   1.963  10.542 -1.7787  0.5307  1.7668
  783MOL0     H 5685   1.555   2.467  11.096  2.7699 -0.8192  2.2724
  783MOL0     H 5686   1.674   2.680  11.130  0.1259  0.2056  1.1615
  783MOL0     H 5687   1.581   3.126  11.309  0.6634  1.4061  0.2297
  783MOL0     H 5688   1.684   3.346  11.362  1.4590  0.2000  0.1014
  783MOL0     H 5689   2.545   4.479   9.968  1.1617 -0.7844 -0.9839
  783MOL0     H 5690   2.697   4.355   9.862 -0.0711  2.4432  0.9927
  783MOL0     H 5691   2.850   3.991   9.759  1.0568 -1.2415  0.9619
  783MOL0     H 5692   2.985   3.816   9.629 -1.3817  1.2437 -0.4977
  783MOL0     H 5693   3.400   3.924   9.604 -0.4236 -0.7695 -0.2137
  783MOL0     H 5694   3.242   3.948   9.515 -0.6456  0.0881 -0.5732
  783MOL0     H 5695   3.288   3.740   9.392 -0.4387 -0.5355  1.8695
  783MOL0     H 5696   3.447   3.726   9.482 -0.4214  0.1874  0.7778
  783MOL0     H 5697   3.506   3.968   9.402 -0.6821  0.3501  0.1250
  783MOL0     H 5698   3.375   3.958   9.275 -1.1282 -0.3399  1.9298
  783MOL0     H 5699   3.462   3.752   9.191 -0.7467  1.8074 -2.0711
  783MOL0     H 5700   3.570   3.892   9.170  2.9109  0.0110  0.9517
  783MOL0     H 5701   3.826   3.661   9.412 -0.6860 -2.3477 -1.6624
  783MOL0     H 5702   3.331   3.944   9.833  0.2418  1.7634 -0.1853
  783MOL0     H 5703   3.164   4.123  10.105  0.9752 -0.0140  0.4346
  783MOL0     H 5704   3.313   4.064  10.036  1.2352  0.7798 -1.7937
  783MOL0     H 5705   3.236   4.216   9.962 -0.4819 -0.3708 -1.3078
  784MOL0     O 5706   8.832   1.505   3.353  0.1702  0.4136 -0.0477
  784MOL0     C 5707   8.815   1.386   3.383  0.8812  0.1934  0.1974
  784MOL0     O 5708   8.913   1.291   3.381  0.2967 -0.8131 -0.1417
  784MOL0     C 5709   9.031   1.342   3.328 -0.2868  1.0174  0.1701
  784MOL0     C 5710   9.116   1.424   3.402 -0.0764 -0.1352 -0.1417
  784MOL0     C 5711   9.237   1.472   3.340 -0.1106 -0.0228  0.6824
  784MOL0     C 5712   9.276   1.443   3.207  0.9363 -0.6554  0.4809
  784MOL0     O 5713   9.383   1.491   3.137 -0.0013 -0.3275 -0.2372
  784MOL0     C 5714   9.427   1.622   3.174 -0.5522  0.1396 -0.5121
  784MOL0     C 5715   9.512   1.705   3.072 -0.0887  0.0684 -1.0589
  784MOL0     C 5716   9.639   1.629   3.043  0.1882  0.2782  0.0536
  784MOL0     C 5717   9.716   1.708   2.939 -0.6345  0.2969 -0.8361
  784MOL0     C 5718   9.848   1.639   2.912 -0.4861 -0.4613  0.3220
  784MOL0     C 5719   9.924   1.713   2.796 -0.8370  0.3545 -0.6095
  784MOL0     C 5720  10.017   1.609   2.727  0.2460 -0.3113  0.3659
  784MOL0     C 5721  10.088   1.668   2.597 -1.1605  0.4077 -0.3657
  784MOL0     N 5722  10.223   1.713   2.631 -0.3073 -1.0658 -1.3001
  784MOL0     C 5723  10.246   1.810   2.724  0.6758  0.1749 -0.2641
  784MOL0     C 5724  10.384   1.829   2.717 -0.2105 -0.0051  0.7968
  784MOL0     C 5725  10.455   1.930   2.798  0.3537 -0.2496  0.3271
  784MOL0     C 5726  10.601   1.902   2.799 -0.9343 -0.2493  0.8979
  784MOL0     C 5727  10.649   1.775   2.880 -0.4477 -0.4097 -0.1320
  784MOL0     C 5728  10.801   1.742   2.848 -0.5832  0.2463 -0.9333
  784MOL0     O 5729  10.837   1.617   2.905  0.2426 -0.1603  0.2955
  784MOL0     C 5730  10.972   1.594   2.913  0.1849  0.6919 -0.0437
  784MOL0     C 5731  11.073   1.672   2.852 -0.2731  0.3128 -0.4191
  784MOL0     C 5732  11.209   1.630   2.886  0.4534  0.4765  0.4974
  784MOL0     C 5733  11.230   1.510   2.953  0.2338 -0.4853  0.3880
  784MOL0     C 5734  11.373   1.482   2.992 -0.4433  0.1471 -0.0255
  784MOL0     O 5735  11.470   1.565   2.950  0.1981 -0.5755  0.2396
  784MOL0     C 5736  11.597   1.541   2.983 -0.4752 -0.1262  0.0401
  784MOL0     C 5737  11.647   1.584   3.106  0.7273  0.3161  0.0665
  784MOL0     C 5738  11.783   1.576   3.136  0.1220 -0.0207 -0.1545
  784MOL0     C 5739  11.875   1.529   3.039  0.2329  0.2006 -0.9350
  784MOL0     O 5740  11.996   1.506   3.090 -0.1369 -0.2070 -0.1296
  784MOL0     C 5741  12.107   1.479   3.001 -0.5341  0.0237  0.1370
  784MOL0     C 5742  12.134   1.585   2.894 -0.3618  0.6379 -0.0967
  784MOL0     C 5743  12.116   1.731   2.961 -0.0800 -1.1390  1.0987
  784MOL0     C 5744  12.203   1.835   2.881 -0.1843  0.2266 -0.0090
  784MOL0     C 5745  12.181   1.975   2.946 -0.1534  0.2981  0.8637
  784MOL0     C 5746  12.249   2.084   2.864 -0.5153  0.1223 -0.3360
  784MOL0     C 5747  12.238   2.207   2.955 -0.0315  0.0424  0.7689
  784MOL0     C 5748  12.318   2.326   2.903 -0.4597 -0.6198  0.6359
  784MOL0    Cl 5749  12.374   2.424   3.036 -0.3834  0.0564 -0.1669
  784MOL0     C 5750  11.832   1.482   2.918  0.4536 -0.4359 -0.2084
  784MOL0     C 5751  11.691   1.487   2.891 -0.0002  0.3834  0.1019
  784MOL0     O 5752  11.386   1.378   3.064  0.5938 -0.5004  0.2563
  784MOL0     C 5753  11.125   1.430   2.989 -0.7757  0.5422  0.0197
  784MOL0     C 5754  10.994   1.473   2.974  0.4577 -0.1052  0.4086
  784MOL0     N 5755  10.434   1.740   2.621 -0.2158 -0.4766  0.3248
  784MOL0     N 5756  10.336   1.670   2.572  0.4994  0.4403 -0.5731
  784MOL0     C 5757   9.189   1.358   3.143 -0.0711  0.0996  0.3470
  784MOL0     C 5758   9.065   1.317   3.193  0.2460  0.2816  0.7933
  784MOL0     C 5759   8.679   1.343   3.429 -0.0163  0.2259 -1.1939
  784MOL0     C 5760   8.667   1.252   3.537 -0.0562  0.0625 -0.8901
  784MOL0     C 5761   8.545   1.234   3.595  0.4370  0.3683  0.0024
  784MOL0     C 5762   8.430   1.280   3.535  0.1834 -0.6461  0.3399
  784MOL0     O 5763   8.306   1.274   3.591  0.3248 -0.2215 -0.7483
  784MOL0     C 5764   8.286   1.176   3.689 -0.0185 -0.2183 -0.1147
  784MOL0     C 5765   8.257   1.248   3.825 -1.0938 -0.0520 -0.2788
  784MOL0     C 5766   8.252   1.154   3.931 -0.6248  0.2907 -1.2995
  784MOL0     C 5767   8.210   1.214   4.076  0.4331 -1.3654  0.9375
  784MOL0     C 5768   8.319   1.289   4.142 -0.2149 -0.8064  0.4841
  784MOL0     C 5769   8.411   1.346   4.197 -0.1562 -0.2726  0.0580
  784MOL0     C 5770   8.445   1.377   3.433 -0.3712  0.1293  0.4349
  784MOL0     C 5771   8.564   1.407   3.375 -0.6225 -0.1244  0.3743
  784MOL0     C 5772   8.558   1.483   3.246 -0.5492 -0.0208  0.6194
  784MOL0     H 5773   9.088   1.452   3.503  1.5392  1.6575 -0.1394
  784MOL0     H 5774   9.303   1.531   3.403 -0.2661  0.3111  0.5398
  784MOL0     H 5775   9.343   1.684   3.209 -1.5425 -2.2421  1.6810
  784MOL0     H 5776   9.493   1.601   3.259 -1.3701 -2.4504 -0.4008
  784MOL0     H 5777   9.536   1.805   3.108  0.5288  0.1554 -1.7201
  784MOL0     H 5778   9.445   1.718   2.987 -2.1479 -2.4622  0.0035
  784MOL0     H 5779   9.626   1.528   3.004  2.3504 -0.4610  1.0508
  784MOL0     H 5780   9.692   1.607   3.136  2.2243 -1.7243 -1.4616
  784MOL0     H 5781   9.662   1.728   2.846 -0.0496  0.1010 -1.2259
  784MOL0     H 5782   9.742   1.808   2.975  0.4160 -0.3761  0.3821
  784MOL0     H 5783   9.905   1.637   3.005 -2.9038 -1.2688  1.8994
  784MOL0     H 5784   9.837   1.534   2.883 -0.1236 -1.2862  2.9440
  784MOL0     H 5785   9.854   1.747   2.719 -1.4171  0.6471  0.0378
  784MOL0     H 5786   9.981   1.799   2.833  1.1950  0.3220 -3.3220
  784MOL0     H 5787   9.959   1.525   2.689  2.4604 -1.4871 -0.6544
  784MOL0     H 5788  10.089   1.565   2.797  1.4979  1.5911  0.3551
  784MOL0     H 5789  10.089   1.594   2.516 -2.1599 -2.4971  2.0784
  784MOL0     H 5790  10.032   1.746   2.544  1.2719  0.9409 -2.3667
  784MOL0     H 5791  10.182   1.858   2.797  4.1724 -0.8371  3.8990
  784MOL0     H 5792  10.432   2.026   2.750  1.3425  1.7578  3.5821
  784MOL0     H 5793  10.418   1.948   2.899 -3.8701  2.0016 -1.3589
  784MOL0     H 5794  10.636   1.900   2.696 -2.6605  1.0599  0.2384
  784MOL0     H 5795  10.645   1.995   2.836 -1.6860  1.4892 -2.2433
  784MOL0     H 5796  10.596   1.681   2.862 -0.9696 -0.4116  1.3152
  784MOL0     H 5797  10.659   1.805   2.984  0.3604  0.6665 -0.4959
  784MOL0     H 5798  10.860   1.823   2.892 -3.0604  1.6225  0.0601
  784MOL0     H 5799  10.812   1.729   2.740 -1.5862 -2.0061 -0.8220
  784MOL0     H 5800  11.058   1.764   2.796  0.5126 -0.8863 -2.7451
  784MOL0     H 5801  11.295   1.684   2.847  0.0772  1.0518  0.4579
  784MOL0     H 5802  11.576   1.634   3.170  0.5403 -1.2045  1.1091
  784MOL0     H 5803  11.824   1.615   3.229  0.7710 -1.7939  0.3479
  784MOL0     H 5804  12.194   1.465   3.067  2.3467 -2.8350 -3.7983
  784MOL0     H 5805  12.096   1.381   2.954 -0.8741  0.0696  0.1171
  784MOL0     H 5806  12.234   1.564   2.856  0.5176  1.0071  1.9232
  784MOL0     H 5807  12.076   1.562   2.804  0.9933 -1.6284 -0.4680
  784MOL0     H 5808  12.009   1.750   2.945  0.2950 -0.0515 -0.2967
  784MOL0     H 5809  12.134   1.738   3.069 -1.8446  1.2897  1.3153
  784MOL0     H 5810  12.176   1.842   2.775  0.4165  2.8713 -0.0395
  784MOL0     H 5811  12.307   1.809   2.900 -0.0590  2.0365  2.1292
  784MOL0     H 5812  12.235   1.953   3.038  0.3515 -4.2356 -0.2820
  784MOL0     H 5813  12.078   2.005   2.968  0.0723  3.0516 -1.1619
  784MOL0     H 5814  12.348   2.070   2.819 -0.8611 -0.4661 -0.9327
  784MOL0     H 5815  12.185   2.101   2.777  0.2499 -0.6235 -1.0741
  784MOL0     H 5816  12.271   2.185   3.057  0.9278 -2.3275  0.0177
  784MOL0     H 5817  12.137   2.242   2.974  0.5671  1.6131  1.2102
  784MOL0     H 5818  12.397   2.290   2.836 -0.9316 -2.3128  0.9340
  784MOL0     H 5819  12.251   2.385   2.840 -0.1523  1.1998  1.9223
  784MOL0     H 5820  11.902   1.433   2.852  1.4626 -0.9810  1.2331
  784MOL0     H 5821  11.647   1.467   2.793  1.0508 -1.0374 -0.1096
  784MOL0     H 5822  11.142   1.343   3.052 -0.5433  0.8065  0.3225
  784MOL0     H 5823  10.905   1.428   3.015 -2.7076  4.2520 -0.9644
  784MOL0     H 5824   9.237   1.330   3.050  2.4419  6.1941 -0.6291
  784MOL0     H 5825   9.000   1.261   3.125  1.7209 -0.7846  0.2155
  784MOL0     H 5826   8.751   1.195   3.575 -0.6868 -1.8126 -2.1961
  784MOL0     H 5827   8.544   1.196   3.696  0.3589  2.2624  0.7489
  784MOL0     H 5828   8.353   1.090   3.693  0.3295  0.0267 -0.6214
  784MOL0     H 5829   8.199   1.117   3.661 -1.3244  0.7041  1.7974
  784MOL0     H 5830   8.165   1.306   3.815 -1.3685 -0.3888  0.2010
  784MOL0     H 5831   8.336   1.320   3.847 -2.0766  1.1566 -0.6408
  784MOL0     H 5832   8.350   1.107   3.944 -1.0135  0.1579  1.7443
  784MOL0     H 5833   8.189   1.071   3.895 -0.0783 -1.3720  1.2997
  784MOL0     H 5834   8.116   1.271   4.075  0.8150 -0.6286 -1.9131
  784MOL0     H 5835   8.194   1.130   4.144 -0.9453 -1.3810  0.6152
  784MOL0     H 5836   8.476   1.421   4.237  0.6387 -1.0197  0.2116
  784MOL0     H 5837   8.352   1.413   3.388  0.3608  0.0098 -1.2351
  784MOL0     H 5838   8.586   1.586   3.269  0.3251 -0.0113 -0.4058
  784MOL0     H 5839   8.639   1.451   3.179  1.7015  0.5407  2.9031
  784MOL0     H 5840   8.463   1.476   3.192 -1.0402 -1.8505  1.6515
  785MOL0     O 5841  10.078   1.206   3.952  0.6676  0.5348 -0.0112
  785MOL0     C 5842   9.976   1.155   3.995  1.2799  0.6409 -0.5716
  785MOL0     O 5843   9.902   1.050   3.934  0.5009 -0.4488 -0.0456
  785MOL0     C 5844   9.959   1.014   3.816 -0.6298 -0.1147 -0.3081
  785MOL0     C 5845   9.944   1.077   3.694 -0.2362  0.5360  0.1839
  785MOL0     C 5846  10.005   1.035   3.573 -0.2300  0.1716 -0.6544
  785MOL0     C 5847  10.098   0.930   3.584 -0.1695 -1.0861  0.7277
  785MOL0     O 5848  10.168   0.890   3.477 -0.5591 -1.0037 -0.0429
  785MOL0     C 5849  10.198   0.753   3.465  0.5758  0.7172 -0.8130
  785MOL0     C 5850  10.174   0.711   3.322 -0.9202 -0.1037 -0.6318
  785MOL0     C 5851  10.225   0.568   3.296 -0.8294  0.0986  0.7358
  785MOL0     C 5852  10.214   0.531   3.147  0.4729 -0.3696 -0.0546
  785MOL0     C 5853  10.301   0.421   3.084 -0.6565  0.3046  0.4926
  785MOL0     C 5854  10.335   0.418   2.931  0.3898  0.1092 -0.1308
  785MOL0     C 5855  10.204   0.408   2.862 -0.1811  0.4920 -0.1281
  785MOL0     C 5856  10.223   0.395   2.715 -0.7394  0.2814  1.1426
  785MOL0     N 5857  10.095   0.386   2.651 -0.0521  0.0693 -0.1729
  785MOL0     C 5858   9.995   0.289   2.673 -0.5114  0.2417  0.3652
  785MOL0     C 5859   9.903   0.316   2.584 -0.0564  0.6529  0.0220
  785MOL0     C 5860   9.762   0.261   2.602  0.0984 -0.6955 -0.4190
  785MOL0     C 5861   9.676   0.376   2.667  0.2024  0.7713  0.0142
  785MOL0     C 5862   9.649   0.499   2.574  0.0145  0.6755 -0.2158
  785MOL0     C 5863   9.604   0.470   2.439 -0.2015  0.6397 -0.3894
  785MOL0     O 5864   9.496   0.378   2.432 -0.4472  0.0998  0.6121
  785MOL0     C 5865   9.437   0.358   2.314 -0.2167  1.1077  0.7908
  785MOL0     C 5866   9.315   0.418   2.275  0.2395 -0.2103 -0.0482
  785MOL0     C 5867   9.250   0.386   2.154 -0.2207 -0.0118  0.5494
  785MOL0     C 5868   9.306   0.298   2.059 -0.5603  0.7265 -0.0379
  785MOL0     C 5869   9.235   0.275   1.931 -0.1094  0.3980  0.1113
  785MOL0     O 5870   9.126   0.341   1.908  0.7792 -0.3622  0.4974
  785MOL0     C 5871   9.036   0.296   1.818 -0.5630  0.2637  0.0123
  785MOL0     C 5872   9.024   0.371   1.702 -0.8932 -0.8664  0.2536
  785MOL0     C 5873   8.940   0.346   1.593  0.1286  0.1516 -0.2373
  785MOL0     C 5874   8.868   0.229   1.599 -0.2464  0.5370  0.7001
  785MOL0     O 5875   8.774   0.203   1.501  0.0416  0.2103  0.0617
  785MOL0     C 5876   8.641   0.149   1.543 -0.6239  0.1574  1.0520
  785MOL0     C 5877   8.541   0.155   1.429  0.0831 -0.3805  0.4971
  785MOL0     C 5878   8.416   0.069   1.466  0.1116 -0.1941 -0.0396
  785MOL0     C 5879   8.295   0.054   1.367 -0.1123 -0.1910  0.4585
  785MOL0     C 5880   8.332  -0.030   1.240  0.8987  0.4054 -0.3094
  785MOL0     C 5881   8.213  -0.027   1.145  0.0726  0.6367 -0.8424
  785MOL0     C 5882   8.240  -0.141   1.052  0.8849  0.5806  0.1539
  785MOL0     C 5883   8.150  -0.145   0.926  0.0742 -0.1485  0.1403
  785MOL0    Cl 5884   8.240  -0.252   0.810  0.0065  0.0938  0.4830
  785MOL0     C 5885   8.878   0.150   1.711 -0.5225 -1.0104 -0.7802
  785MOL0     C 5886   8.967   0.176   1.819  0.4426 -0.8677  0.3816
  785MOL0     O 5887   9.300   0.200   1.853 -0.1334 -0.7405 -0.5403
  785MOL0     C 5888   9.430   0.239   2.096 -0.0515  0.8179  0.7242
  785MOL0     C 5889   9.495   0.268   2.224  0.0495  0.9059 -0.2129
  785MOL0     N 5890   9.944   0.414   2.500 -0.0937 -0.3100  1.1857
  785MOL0     N 5891  10.058   0.454   2.544  0.7303 -0.1406  0.2112
  785MOL0     C 5892  10.116   0.869   3.709  0.8125 -0.2789 -0.0024
  785MOL0     C 5893  10.039   0.909   3.825  0.3429  0.4881 -0.2439
  785MOL0     C 5894   9.923   1.231   4.122 -0.1511  0.1246  0.8434
  785MOL0     C 5895  10.014   1.311   4.192 -0.0447 -0.5391 -0.0305
  785MOL0     C 5896   9.963   1.381   4.301  0.7418  0.0105  0.0945
  785MOL0     C 5897   9.821   1.396   4.321  0.3754  0.2175  0.4203
  785MOL0     O 5898   9.775   1.478   4.419 -0.4225  0.6791  0.1904
  785MOL0     C 5899   9.647   1.553   4.394 -0.8737  0.1029  0.3922
  785MOL0     C 5900   9.520   1.496   4.460 -0.9250  0.7680 -0.6000
  785MOL0     C 5901   9.553   1.457   4.609  0.5568  0.1154  0.5617
  785MOL0     C 5902   9.426   1.502   4.693  0.6495  0.6301 -0.0028
  785MOL0     C 5903   9.302   1.427   4.654 -0.6956 -0.2758  0.3296
  785MOL0     C 5904   9.190   1.381   4.622 -0.6165  0.3658 -0.6220
  785MOL0     C 5905   9.731   1.323   4.246  0.1411 -0.6378 -0.3074
  785MOL0     C 5906   9.784   1.238   4.149  0.7089 -0.6981 -0.5178
  785MOL0     C 5907   9.682   1.166   4.072 -0.7340  0.0943  0.7416
  785MOL0     H 5908   9.874   1.158   3.676  2.0577  2.2439 -1.7688
  785MOL0     H 5909   9.969   1.075   3.479 -2.7715 -1.8989 -0.6769
  785MOL0     H 5910  10.303   0.735   3.489  1.3709 -0.1827 -4.4464
  785MOL0     H 5911  10.132   0.686   3.521 -0.1433  1.2004 -1.0685
  785MOL0     H 5912  10.245   0.771   3.265  0.2516 -0.1691  0.7326
  785MOL0     H 5913  10.070   0.730   3.292 -1.2969  3.2387  2.1936
  785MOL0     H 5914  10.156   0.501   3.348  0.7167 -1.4438  0.8999
  785MOL0     H 5915  10.329   0.549   3.324 -0.9683  0.4801  1.5214
  785MOL0     H 5916  10.109   0.517   3.122  0.5216  0.0244 -0.5131
  785MOL0     H 5917  10.248   0.622   3.096  0.3777  0.9640  2.1180
  785MOL0     H 5918  10.397   0.431   3.135 -1.6907  2.1062  2.2358
  785MOL0     H 5919  10.279   0.320   3.117  2.4868 -0.9689 -0.9013
  785MOL0     H 5920  10.390   0.506   2.897  1.0621 -1.4269 -3.4280
  785MOL0     H 5921  10.398   0.332   2.908 -1.2649 -0.7305 -1.8331
  785MOL0     H 5922  10.145   0.497   2.885  0.7026  0.8956  0.6277
  785MOL0     H 5923  10.163   0.314   2.898  1.6230  0.0145  0.7897
  785MOL0     H 5924  10.270   0.484   2.673 -0.2373 -0.2648  0.5152
  785MOL0     H 5925  10.286   0.309   2.690 -1.1919  0.2846 -0.1092
  785MOL0     H 5926   9.968   0.234   2.762  0.1039 -1.6444 -0.5605
  785MOL0     H 5927   9.720   0.222   2.509  1.6401  2.0680 -2.4373
  785MOL0     H 5928   9.778   0.183   2.677 -2.2887  0.8067  1.8273
  785MOL0     H 5929   9.582   0.325   2.687  1.3370 -0.4278  2.8685
  785MOL0     H 5930   9.723   0.411   2.759 -2.7301  2.9964  0.8165
  785MOL0     H 5931   9.742   0.557   2.581  0.6812 -0.5668  3.3120
  785MOL0     H 5932   9.573   0.562   2.621 -2.3000 -0.8970 -1.6557
  785MOL0     H 5933   9.688   0.410   2.402  1.9878  0.1110  4.6371
  785MOL0     H 5934   9.593   0.555   2.371  0.7263  0.3281 -0.9483
  785MOL0     H 5935   9.272   0.494   2.339  0.0562  1.1080 -1.6648
  785MOL0     H 5936   9.159   0.439   2.130  0.1714 -0.1789 -1.4229
  785MOL0     H 5937   9.073   0.468   1.694 -0.4757 -1.1354 -0.6139
  785MOL0     H 5938   8.916   0.421   1.518  3.1239  2.0863  0.5291
  785MOL0     H 5939   8.647   0.042   1.565 -2.4591 -0.5535 -1.4933
  785MOL0     H 5940   8.609   0.203   1.632  2.0436  1.6279  1.2454
  785MOL0     H 5941   8.518   0.261   1.418  0.7026 -0.2953 -0.0011
  785MOL0     H 5942   8.568   0.107   1.335 -2.2868 -0.6624 -0.1150
  785MOL0     H 5943   8.447  -0.033   1.493  1.6974  0.3805  0.4750
  785MOL0     H 5944   8.382   0.117   1.558 -0.3203 -0.7262  0.0817
  785MOL0     H 5945   8.259   0.150   1.331  0.4370 -0.8077 -1.9274
  785MOL0     H 5946   8.208   0.009   1.416  0.5838 -0.3463  1.6108
  785MOL0     H 5947   8.348  -0.134   1.271 -2.5835  0.2114  1.2508
  785MOL0     H 5948   8.417   0.008   1.182  2.7734 -0.1448  1.9001
  785MOL0     H 5949   8.119  -0.039   1.200  1.2167  3.9943  2.3248
  785MOL0     H 5950   8.217   0.070   1.095 -2.6118  0.3214 -1.8233
  785MOL0     H 5951   8.228  -0.230   1.114  0.6561  1.7005  1.7668
  785MOL0     H 5952   8.341  -0.122   1.013  0.8950 -1.4301 -0.9261
  785MOL0     H 5953   8.048  -0.165   0.958 -0.2121  1.9752  0.7514
  785MOL0     H 5954   8.149  -0.046   0.880 -3.5481 -1.0717 -2.0974
  785MOL0     H 5955   8.814   0.062   1.717 -1.2063 -0.4325  1.5841
  785MOL0     H 5956   8.968   0.110   1.905  2.3161 -0.5385  0.6396
  785MOL0     H 5957   9.487   0.173   2.031 -4.3199 -0.8674 -1.6899
  785MOL0     H 5958   9.595   0.227   2.235 -0.1859  0.0964 -0.9895
  785MOL0     H 5959  10.187   0.788   3.718  1.4470  0.1741 -0.7567
  785MOL0     H 5960  10.052   0.870   3.926  0.5937 -1.0629 -0.8478
  785MOL0     H 5961  10.120   1.318   4.170 -0.1294  1.8749  0.0713
  785MOL0     H 5962  10.029   1.431   4.371  2.3223 -2.0014  0.1418
  785MOL0     H 5963   9.625   1.586   4.292  2.7141 -0.0212 -0.5516
  785MOL0     H 5964   9.654   1.646   4.452  5.0628 -0.5952  1.3505
  785MOL0     H 5965   9.494   1.402   4.411  2.5617 -0.5439 -0.2024
  785MOL0     H 5966   9.436   1.566   4.452  0.5679  2.6897 -0.4029
  785MOL0     H 5967   9.640   1.515   4.643 -0.2585  1.9910 -0.4099
  785MOL0     H 5968   9.552   1.348   4.616  0.4116  0.0951  0.2134
  785MOL0     H 5969   9.453   1.481   4.797  1.7618 -2.2608 -0.8025
  785MOL0     H 5970   9.403   1.609   4.687 -0.4148  0.4448  0.4634
  785MOL0     H 5971   9.097   1.331   4.606 -0.7737 -0.9366  3.1382
  785MOL0     H 5972   9.626   1.347   4.260  0.7411  0.9067  2.2333
  785MOL0     H 5973   9.705   1.170   3.965 -0.1513 -0.4131  0.8402
  785MOL0     H 5974   9.674   1.061   4.103 -1.5250 -1.0456 -2.8469
  785MOL0     H 5975   9.585   1.216   4.076 -1.9431 -2.1815  2.0374
  786MOL0     O 5976   7.093   8.309   5.109 -0.1860 -0.0789  0.1526
  786MOL0     C 5977   7.068   8.236   5.014  0.2927  0.1288 -0.3306
  786MOL0     O 5978   7.131   8.123   4.976 -0.1343  0.6639 -0.5025
  786MOL0     C 5979   7.238   8.061   5.043 -0.2309 -0.1028  0.3589
  786MOL0     C 5980   7.257   8.089   5.178  0.4465  0.0190  0.8866
  786MOL0     C 5981   7.358   8.024   5.251 -0.0847  0.5348 -0.1780
  786MOL0     C 5982   7.450   7.943   5.189  0.5206  0.5393  0.8899
  786MOL0     O 5983   7.564   7.889   5.250 -0.0267 -0.7368 -0.7818
  786MOL0     C 5984   7.588   7.914   5.393  0.9814  0.3006  0.0189
  786MOL0     C 5985   7.663   8.052   5.420  0.5937  0.8218 -0.3329
  786MOL0     C 5986   7.670   8.107   5.562  1.0939  0.5900 -0.0960
  786MOL0     C 5987   7.813   8.161   5.594  0.0731  0.1976 -0.5789
  786MOL0     C 5988   7.833   8.303   5.531 -0.4877 -0.1532 -0.1942
  786MOL0     C 5989   7.980   8.329   5.518 -0.7007  0.0282  0.8149
  786MOL0     C 5990   8.051   8.342   5.651  0.3224 -0.0847  0.2521
  786MOL0     C 5991   8.190   8.391   5.648  0.0896 -0.7693  0.8729
  786MOL0     N 5992   8.253   8.402   5.776 -0.2553  0.6028  0.0360
  786MOL0     C 5993   8.288   8.288   5.853  0.4459  0.1766  1.2971
  786MOL0     C 5994   8.321   8.338   5.976 -0.2038 -0.4763  0.0030
  786MOL0     C 5995   8.394   8.282   6.082  0.5656 -0.0240 -0.2544
  786MOL0     C 5996   8.513   8.196   6.048  0.6032  0.5547  0.8905
  786MOL0     C 5997   8.564   8.126   6.173  0.5208  0.6573 -0.6304
  786MOL0     C 5998   8.483   7.998   6.218 -0.3442 -0.0844 -0.7171
  786MOL0     O 5999   8.370   8.039   6.301 -0.0103 -0.0389 -0.3648
  786MOL0     C 6000   8.403   8.081   6.426 -0.8717  0.0228 -0.5426
  786MOL0     C 6001   8.451   7.984   6.514  0.0368 -0.0172  0.0106
  786MOL0     C 6002   8.493   8.020   6.649 -0.2191  0.0331  0.0806
  786MOL0     C 6003   8.491   8.155   6.688  0.7097 -1.1143 -0.2250
  786MOL0     C 6004   8.502   8.203   6.826  0.0730 -0.3216  0.5939
  786MOL0     O 6005   8.530   8.116   6.920 -0.3889 -0.6176  0.0640
  786MOL0     C 6006   8.558   8.167   7.049 -0.2936 -0.2578  0.3422
  786MOL0     C 6007   8.669   8.245   7.066 -0.1821  0.0228  0.2416
  786MOL0     C 6008   8.713   8.287   7.195  0.3473 -0.1206  0.1726
  786MOL0     C 6009   8.637   8.244   7.309 -0.3355  0.2658  0.0157
  786MOL0     O 6010   8.645   8.297   7.430 -0.3458 -1.1174  0.6000
  786MOL0     C 6011   8.690   8.434   7.448  0.5169  1.3294  0.1672
  786MOL0     C 6012   8.556   8.497   7.522  0.4902  0.0977  0.2882
  786MOL0     C 6013   8.424   8.484   7.448 -0.3012  0.2807  0.2267
  786MOL0     C 6014   8.444   8.552   7.312  0.1809 -0.3552  0.3333
  786MOL0     C 6015   8.307   8.540   7.243  0.8241 -0.1449  0.1824
  786MOL0     C 6016   8.305   8.595   7.098 -0.0295  0.6608  0.2355
  786MOL0     C 6017   8.314   8.753   7.093 -0.6173  0.2404 -1.0033
  786MOL0     C 6018   8.399   8.800   6.966 -0.8640  0.3180  0.0449
  786MOL0    Cl 6019   8.288   8.818   6.821 -0.3732 -0.5014 -0.0594
  786MOL0     C 6020   8.531   8.149   7.289  0.6926 -0.8132  0.4462
  786MOL0     C 6021   8.490   8.117   7.158  0.1196  0.2406 -0.5348
  786MOL0     O 6022   8.463   8.318   6.849 -0.0711  0.1258  0.2828
  786MOL0     C 6023   8.451   8.250   6.594  0.2719 -0.0001  0.3259
  786MOL0     C 6024   8.423   8.218   6.462 -0.7214 -0.4622 -0.7097
  786MOL0     N 6025   8.287   8.471   5.967  0.5195 -0.2717  0.2914
  786MOL0     N 6026   8.251   8.514   5.849  0.2704 -0.6015 -0.1760
  786MOL0     C 6027   7.425   7.904   5.055 -0.9443  0.0378 -0.6121
  786MOL0     C 6028   7.318   7.965   4.983 -0.0943 -0.6996  0.7930
  786MOL0     C 6029   6.952   8.269   4.936 -0.2432 -0.0173 -0.0282
  786MOL0     C 6030   6.965   8.339   4.822 -0.1354 -0.3232  0.0942
  786MOL0     C 6031   6.854   8.373   4.742  0.0926  0.0040 -0.4034
  786MOL0     C 6032   6.722   8.346   4.789  0.1683 -0.0597 -0.0520
  786MOL0     O 6033   6.608   8.388   4.720 -0.4139 -0.4264 -0.3238
  786MOL0     C 6034   6.631   8.465   4.598 -0.5575  0.5709  0.8526
  786MOL0     C 6035   6.494   8.516   4.555  0.0940 -0.7921 -0.0942
  786MOL0     C 6036   6.423   8.615   4.658 -0.0772 -0.7406 -0.7888
  786MOL0     C 6037   6.497   8.744   4.677  0.9047  0.3850 -0.0279
  786MOL0     C 6038   6.539   8.802   4.550  0.2512 -0.8155  1.3698
  786MOL0     C 6039   6.577   8.854   4.449  0.0245  0.0476 -0.6535
  786MOL0     C 6040   6.704   8.267   4.898 -0.0270  0.0062  0.2355
  786MOL0     C 6041   6.822   8.226   4.973  0.2329 -0.0607  0.7429
  786MOL0     C 6042   6.808   8.150   5.100 -0.1420  0.2723 -0.6157
  786MOL0     H 6043   7.193   8.146   5.244  0.2649  1.7706 -0.7033
  786MOL0     H 6044   7.363   8.039   5.358  2.3063  2.6466 -0.4902
  786MOL0     H 6045   7.493   7.911   5.446 -1.5147 -1.6759 -4.0302
  786MOL0     H 6046   7.639   7.822   5.425 -2.2388 -1.4034  0.6643
  786MOL0     H 6047   7.625   8.129   5.353  0.8421  2.1389  0.9870
  786MOL0     H 6048   7.764   8.038   5.381  1.6728  3.4845  1.2310
  786MOL0     H 6049   7.657   8.025   5.633  0.3820 -0.1258 -1.0324
  786MOL0     H 6050   7.594   8.185   5.577  1.8531  0.9887  1.9961
  786MOL0     H 6051   7.831   8.170   5.701  0.8856 -3.5641 -0.2352
  786MOL0     H 6052   7.882   8.085   5.554  3.5251  1.8460  1.7919
  786MOL0     H 6053   7.801   8.298   5.427  1.0439  0.1851 -0.7140
  786MOL0     H 6054   7.773   8.384   5.574  3.1345  2.7535 -0.0267
  786MOL0     H 6055   8.029   8.245   5.468 -0.7870  0.3679  0.1532
  786MOL0     H 6056   7.990   8.422   5.462 -0.8570  0.8299  2.0949
  786MOL0     H 6057   8.034   8.248   5.704  0.3857 -0.3885 -0.2568
  786MOL0     H 6058   7.996   8.415   5.712  0.3004  0.2284 -0.1342
  786MOL0     H 6059   8.256   8.342   5.576  2.2155  3.2692 -0.1854
  786MOL0     H 6060   8.185   8.491   5.603  0.2448 -1.3359 -0.4525
  786MOL0     H 6061   8.301   8.188   5.812 -1.3006  0.6756 -0.7108
  786MOL0     H 6062   8.429   8.361   6.149  1.1198  0.2461 -0.8478
  786MOL0     H 6063   8.330   8.218   6.143  1.3691  2.0670  3.0154
  786MOL0     H 6064   8.494   8.117   5.974  3.8618 -0.9746  1.5038
  786MOL0     H 6065   8.589   8.268   6.016  1.8140 -0.7461  0.7696
  786MOL0     H 6066   8.574   8.196   6.257 -1.1652  0.5394 -0.2909
  786MOL0     H 6067   8.659   8.075   6.159 -0.8567 -2.3632  0.2963
  786MOL0     H 6068   8.549   7.933   6.277 -0.0523 -1.4030 -2.4202
  786MOL0     H 6069   8.444   7.939   6.135 -0.3097 -0.0896 -0.7293
  786MOL0     H 6070   8.461   7.879   6.490 -0.0894 -0.0375  0.0490
  786MOL0     H 6071   8.531   7.953   6.725  0.6078  1.7383  1.2354
  786MOL0     H 6072   8.736   8.277   6.987 -0.6237 -0.0738 -0.1822
  786MOL0     H 6073   8.802   8.349   7.202  2.2170 -2.5318 -0.8791
  786MOL0     H 6074   8.777   8.441   7.516  0.7647  2.0991 -0.2255
  786MOL0     H 6075   8.720   8.487   7.358  0.5281 -0.6186 -1.0270
  786MOL0     H 6076   8.545   8.459   7.624  0.0604  0.6179  0.4412
  786MOL0     H 6077   8.556   8.605   7.540 -1.7553 -0.0413  1.4759
  786MOL0     H 6078   8.397   8.379   7.431  1.5682 -0.6458  2.3859
  786MOL0     H 6079   8.342   8.531   7.503  2.4768  1.5457  3.7026
  786MOL0     H 6080   8.525   8.513   7.249 -1.2513 -0.7552 -1.3422
  786MOL0     H 6081   8.475   8.655   7.326 -1.0353  0.3054 -1.4039
  786MOL0     H 6082   8.236   8.598   7.301  0.9657  2.5415 -2.0964
  786MOL0     H 6083   8.285   8.433   7.236  0.7246 -0.1557  0.6741
  786MOL0     H 6084   8.400   8.561   7.055 -0.2698  2.1496 -1.6193
  786MOL0     H 6085   8.225   8.562   7.032  2.9287 -4.2112 -1.4907
  786MOL0     H 6086   8.361   8.788   7.185  2.0963  4.2430 -3.6221
  786MOL0     H 6087   8.211   8.788   7.101 -0.6102  0.6660 -2.4583
  786MOL0     H 6088   8.432   8.901   6.993 -1.8322  0.2315  1.6899
  786MOL0     H 6089   8.483   8.738   6.934  1.4306  2.0440  2.2266
  786MOL0     H 6090   8.466   8.129   7.374  0.1907  0.8518  0.5039
  786MOL0     H 6091   8.401   8.055   7.146 -0.6859  0.6542  2.5242
  786MOL0     H 6092   8.451   8.355   6.619  1.2777 -0.0605  0.5935
  786MOL0     H 6093   8.396   8.291   6.386 -1.3551 -2.1243 -2.1705
  786MOL0     H 6094   7.488   7.839   4.996 -0.3639  4.1926 -5.2643
  786MOL0     H 6095   7.314   7.946   4.877  2.3496 -1.3240  0.7419
  786MOL0     H 6096   7.063   8.358   4.781 -1.1276  0.1290 -2.2333
  786MOL0     H 6097   6.874   8.428   4.651  0.6237 -0.8420 -0.8067
  786MOL0     H 6098   6.675   8.390   4.533 -1.0644 -0.2479  1.4313
  786MOL0     H 6099   6.706   8.543   4.612  0.5307 -0.9563  5.3623
  786MOL0     H 6100   6.438   8.424   4.536 -3.5442  1.0048  1.0873
  786MOL0     H 6101   6.500   8.558   4.454 -0.6109  1.1192  0.6023
  786MOL0     H 6102   6.406   8.564   4.753 -0.8619 -2.6881 -1.9141
  786MOL0     H 6103   6.320   8.637   4.628 -0.8031  1.2722  2.5903
  786MOL0     H 6104   6.426   8.811   4.728 -3.5876 -2.5025 -1.8264
  786MOL0     H 6105   6.585   8.725   4.739  0.6269  2.4990  1.1370
  786MOL0     H 6106   6.585   8.905   4.355  0.2628  0.9355 -0.1656
  786MOL0     H 6107   6.601   8.240   4.916  0.8988 -3.5800  0.8186
  786MOL0     H 6108   6.709   8.109   5.122  0.4554 -0.1597  1.4892
  786MOL0     H 6109   6.875   8.064   5.098 -1.4152 -0.7506 -2.0979
  786MOL0     H 6110   6.826   8.223   5.179 -2.7253  1.0831 -0.6873
  787MOL0     O 6111   1.737   4.238   2.095  0.2607 -0.3718  0.7795
  787MOL0     C 6112   1.754   4.270   1.974  0.6127 -0.5139  0.2484
  787MOL0     O 6113   1.838   4.369   1.934 -0.2798  0.3470 -0.0370
  787MOL0     C 6114   1.944   4.392   2.015  0.9701  0.0843 -0.1334
  787MOL0     C 6115   1.969   4.527   2.044 -1.2467 -0.6434  0.2477
  787MOL0     C 6116   2.082   4.565   2.120 -0.7776 -0.4392  0.9310
  787MOL0     C 6117   2.176   4.468   2.161 -0.7706 -0.2103 -0.1525
  787MOL0     O 6118   2.292   4.501   2.228  1.1252 -0.5558  0.1792
  787MOL0     C 6119   2.380   4.590   2.148 -0.0623  0.7328  0.3416
  787MOL0     C 6120   2.524   4.551   2.179 -0.5339 -0.8664 -0.1318
  787MOL0     C 6121   2.630   4.658   2.123  0.3674  0.7393 -0.7182
  787MOL0     C 6122   2.637   4.681   1.976  1.0177  0.4579  0.1923
  787MOL0     C 6123   2.766   4.757   1.925  0.4032 -0.1918 -0.1082
  787MOL0     C 6124   2.787   4.727   1.768 -0.5988  0.1775  0.9669
  787MOL0     C 6125   2.691   4.825   1.683  0.1929  0.2947 -0.1114
  787MOL0     C 6126   2.704   4.807   1.532 -0.2184  0.0144  0.8167
  787MOL0     N 6127   2.666   4.668   1.484 -0.0974  0.4806  0.3642
  787MOL0     C 6128   2.542   4.609   1.482  0.6108 -1.0221 -0.3783
  787MOL0     C 6129   2.564   4.476   1.460  0.0737 -1.1268  0.0914
  787MOL0     C 6130   2.477   4.355   1.460 -0.0815  0.4112 -0.4069
  787MOL0     C 6131   2.401   4.341   1.330  0.1460 -0.4284  0.2277
  787MOL0     C 6132   2.470   4.246   1.235 -0.3811 -0.2598  0.2261
  787MOL0     C 6133   2.442   4.101   1.262 -0.1924  0.6250  0.0261
  787MOL0     O 6134   2.348   4.046   1.171  0.0109 -1.2551  0.6193
  787MOL0     C 6135   2.381   3.961   1.070 -0.2240  0.0216  0.4097
  787MOL0     C 6136   2.510   3.910   1.029  0.0356 -0.6787  0.4371
  787MOL0     C 6137   2.517   3.845   0.900 -0.3765  0.0405 -0.0919
  787MOL0     C 6138   2.406   3.800   0.837  0.1502  0.6709  0.2342
  787MOL0     C 6139   2.407   3.703   0.727 -0.3539  0.3353  0.2890
  787MOL0     O 6140   2.283   3.656   0.690  0.5715  0.3358 -0.2963
  787MOL0     C 6141   2.275   3.566   0.586 -1.1727  0.2509 -0.3681
  787MOL0     C 6142   2.193   3.601   0.476 -0.1521  0.6490 -1.1257
  787MOL0     C 6143   2.183   3.519   0.359  0.5571  0.2877 -0.6223
  787MOL0     C 6144   2.241   3.387   0.357 -1.1930 -0.2476  0.3611
  787MOL0     O 6145   2.204   3.303   0.253 -0.4362  0.9821  0.1760
  787MOL0     C 6146   2.296   3.189   0.238 -0.8360  0.5601  0.5256
  787MOL0     C 6147   2.254   3.066   0.318  0.0470  0.6276  0.0865
  787MOL0     C 6148   2.115   3.006   0.276 -0.2783 -0.5944  0.3152
  787MOL0     C 6149   2.096   2.866   0.327  0.3018  0.1399  0.3273
  787MOL0     C 6150   2.116   2.772   0.194  0.0682 -0.7284 -0.4535
  787MOL0     C 6151   2.145   2.630   0.241  0.2862 -0.2156 -0.2049
  787MOL0     C 6152   2.187   2.541   0.129  0.4603  0.7742  0.3975
  787MOL0     C 6153   2.190   2.400   0.178  0.6425  0.0691  0.7241
  787MOL0    Cl 6154   2.326   2.375   0.282 -0.0091 -0.3362  0.2373
  787MOL0     C 6155   2.315   3.353   0.473 -0.1489 -0.5809 -0.5182
  787MOL0     C 6156   2.348   3.445   0.573 -0.3014 -0.0228  0.0224
  787MOL0     O 6157   2.506   3.690   0.665 -0.0993  0.8455 -0.1634
  787MOL0     C 6158   2.280   3.836   0.890 -0.5857  0.3954 -0.6949
  787MOL0     C 6159   2.264   3.924   0.997 -0.1518 -0.3759 -0.3674
  787MOL0     N 6160   2.700   4.467   1.431  0.0440  0.3949 -0.0301
  787MOL0     N 6161   2.760   4.580   1.442  0.3693 -0.2615 -0.4211
  787MOL0     C 6162   2.141   4.336   2.137 -0.4321  0.3107  0.6580
  787MOL0     C 6163   2.023   4.295   2.079  0.8313  0.3452 -0.5334
  787MOL0     C 6164   1.664   4.196   1.878  0.0357 -0.3843 -0.2090
  787MOL0     C 6165   1.663   4.264   1.749  0.1401 -0.6452 -0.0484
  787MOL0     C 6166   1.596   4.212   1.642  0.0748 -0.2601  0.6593
  787MOL0     C 6167   1.520   4.103   1.661 -1.1243  1.0434  0.6090
  787MOL0     O 6168   1.462   4.057   1.541 -0.1323  0.2432  0.6659
  787MOL0     C 6169   1.313   4.043   1.563  0.2746 -0.5633 -0.1334
  787MOL0     C 6170   1.262   3.900   1.606 -0.2490  1.1888  0.2079
  787MOL0     C 6171   1.292   3.804   1.479  0.1212 -0.1716 -0.8547
  787MOL0     C 6172   1.419   3.722   1.513 -0.4231  0.1065 -0.2134
  787MOL0     C 6173   1.470   3.654   1.394  0.2839  0.1581  0.2524
  787MOL0     C 6174   1.508   3.586   1.306 -0.6406  0.2085  0.5094
  787MOL0     C 6175   1.538   4.023   1.773 -0.4277 -0.5163 -0.4785
  787MOL0     C 6176   1.609   4.067   1.883 -0.4061  0.2608 -0.4687
  787MOL0     C 6177   1.621   3.979   2.001 -0.2832  0.4512  0.5258
  787MOL0     H 6178   1.901   4.599   2.001 -1.4157 -1.4575 -0.8959
  787MOL0     H 6179   2.100   4.671   2.132 -1.3011 -0.1064 -0.8883
  787MOL0     H 6180   2.374   4.560   2.043  1.3675  1.3265  0.0662
  787MOL0     H 6181   2.360   4.697   2.162  0.9872  0.5905  3.7564
  787MOL0     H 6182   2.561   4.452   2.150  1.0125 -0.4689  0.3934
  787MOL0     H 6183   2.534   4.549   2.288  1.3845  1.3737 -0.1901
  787MOL0     H 6184   2.731   4.638   2.159  0.4703 -0.6873 -1.7032
  787MOL0     H 6185   2.597   4.745   2.180  1.4174 -0.5656  2.0810
  787MOL0     H 6186   2.639   4.584   1.925  0.3703 -0.9610  2.7019
  787MOL0     H 6187   2.548   4.730   1.936  0.1025 -0.9798  0.3761
  787MOL0     H 6188   2.757   4.864   1.949  2.8993 -0.3728  2.1943
  787MOL0     H 6189   2.855   4.722   1.979  1.2449  2.1160  0.1399
  787MOL0     H 6190   2.884   4.762   1.731  0.2213 -3.4116 -0.7323
  787MOL0     H 6191   2.780   4.618   1.757  1.5531 -0.0564  1.5449
  787MOL0     H 6192   2.707   4.931   1.705  0.0241  0.5524 -1.2027
  787MOL0     H 6193   2.596   4.788   1.721  1.0092 -1.6927  0.1154
  787MOL0     H 6194   2.634   4.878   1.486  0.6802 -0.9228 -2.2197
  787MOL0     H 6195   2.799   4.842   1.493 -0.5691 -1.3094 -1.4453
  787MOL0     H 6196   2.448   4.655   1.512 -0.3146 -3.1546  0.2250
  787MOL0     H 6197   2.528   4.264   1.493 -0.8526  0.1199  0.0030
  787MOL0     H 6198   2.405   4.372   1.541  1.6122 -0.0816  1.2719
  787MOL0     H 6199   2.302   4.305   1.359 -0.9635  2.4570  0.3875
  787MOL0     H 6200   2.397   4.440   1.283  5.4457 -0.2103 -0.4410
  787MOL0     H 6201   2.576   4.264   1.252 -0.8346  1.0417  2.0201
  787MOL0     H 6202   2.436   4.260   1.132 -1.0066  1.0848  0.6032
  787MOL0     H 6203   2.411   4.094   1.367 -2.0062 -1.6436 -0.5846
  787MOL0     H 6204   2.539   4.051   1.252 -2.1461 -3.2786 -1.0249
  787MOL0     H 6205   2.604   3.932   1.078  1.5609 -1.8841 -1.7563
  787MOL0     H 6206   2.618   3.816   0.873 -0.7238 -1.0267 -0.2669
  787MOL0     H 6207   2.139   3.694   0.490 -3.5189 -0.8397 -2.9175
  787MOL0     H 6208   2.126   3.567   0.280  0.2741  3.1183  1.1532
  787MOL0     H 6209   2.305   3.160   0.133 -0.6348 -3.2124  1.4262
  787MOL0     H 6210   2.397   3.219   0.268 -1.3539  0.5353  2.4058
  787MOL0     H 6211   2.330   2.987   0.318 -0.4082  0.1601 -1.5593
  787MOL0     H 6212   2.252   3.097   0.423  0.7642  0.2477  0.2242
  787MOL0     H 6213   2.034   3.063   0.322  0.8469  1.5054 -0.1881
  787MOL0     H 6214   2.093   3.011   0.169  3.0421 -0.1251 -0.4591
  787MOL0     H 6215   1.996   2.852   0.369  0.4023  0.2390  0.5975
  787MOL0     H 6216   2.170   2.831   0.399  0.1108 -2.2503 -0.5638
  787MOL0     H 6217   2.201   2.817   0.143  1.0411  1.4115  2.7077
  787MOL0     H 6218   2.029   2.769   0.127  0.6640  0.7661 -1.3621
  787MOL0     H 6219   2.232   2.622   0.307  1.0357 -1.5249 -1.3114
  787MOL0     H 6220   2.058   2.602   0.301  0.0011  1.1400  0.0600
  787MOL0     H 6221   2.277   2.560   0.071  0.5502  0.3218  0.3828
  787MOL0     H 6222   2.116   2.550   0.046  0.4249  1.4196  0.4925
  787MOL0     H 6223   2.095   2.388   0.231 -0.3437  1.6306 -0.6130
  787MOL0     H 6224   2.191   2.323   0.101  0.2808  3.3601 -2.8809
  787MOL0     H 6225   2.359   3.257   0.497  0.9027  0.1448  0.5176
  787MOL0     H 6226   2.419   3.412   0.648  3.8971  0.9752 -3.1638
  787MOL0     H 6227   2.191   3.787   0.850 -1.3518 -0.7275  2.1658
  787MOL0     H 6228   2.171   3.973   1.025  0.7725  1.3214 -0.0772
  787MOL0     H 6229   2.213   4.267   2.181  1.0394  1.9090  0.8623
  787MOL0     H 6230   2.003   4.189   2.068  0.4722  0.5800 -2.7666
  787MOL0     H 6231   1.717   4.358   1.738 -2.3283  1.1465  1.8531
  787MOL0     H 6232   1.589   4.264   1.548 -0.6853 -0.1876  0.7488
  787MOL0     H 6233   1.256   4.063   1.471 -2.4126 -1.5225  1.2062
  787MOL0     H 6234   1.268   4.118   1.628 -0.8885 -1.1837 -0.1918
  787MOL0     H 6235   1.153   3.907   1.613 -0.1905  1.3841  1.0578
  787MOL0     H 6236   1.303   3.874   1.704  2.5916  0.8158 -0.9865
  787MOL0     H 6237   1.309   3.865   1.391 -1.7694 -1.0507 -1.8760
  787MOL0     H 6238   1.206   3.746   1.445  0.5447 -0.1056 -2.0867
  787MOL0     H 6239   1.502   3.777   1.558 -1.1470 -0.7237  2.3332
  787MOL0     H 6240   1.398   3.642   1.585  1.2305  0.0386  0.2467
  787MOL0     H 6241   1.545   3.534   1.220  0.4500  1.5419  0.1336
  787MOL0     H 6242   1.495   3.924   1.777  1.4783 -1.3689 -0.1872
  787MOL0     H 6243   1.729   3.983   2.022 -0.1023 -0.8661 -0.0081
  787MOL0     H 6244   1.566   4.022   2.084  3.7058 -1.2462  4.4605
  787MOL0     H 6245   1.581   3.877   1.995 -1.6077  1.0240 -1.2118
  788MOL0     O 6246   4.443   5.346   8.074  0.3319 -0.3034 -0.5717
  788MOL0     C 6247   4.390   5.269   8.151 -0.3705  0.1191 -0.2081
  788MOL0     O 6248   4.443   5.227   8.265 -1.1833 -0.8051 -0.1299
  788MOL0     C 6249   4.574   5.267   8.293  0.7931 -0.6370  0.3641
  788MOL0     C 6250   4.587   5.377   8.381  0.6681  0.6484  0.3265
  788MOL0     C 6251   4.707   5.407   8.429 -0.0646 -0.4332  0.3747
  788MOL0     C 6252   4.818   5.345   8.373 -0.2179 -0.1782  0.3088
  788MOL0     O 6253   4.942   5.376   8.430 -0.4442 -0.4563 -0.8893
  788MOL0     C 6254   5.059   5.311   8.388 -0.5446 -0.7858  0.6597
  788MOL0     C 6255   5.132   5.412   8.294 -0.7126 -1.1335  0.5518
  788MOL0     C 6256   5.149   5.548   8.359  0.5296  0.4880 -0.1003
  788MOL0     C 6257   5.256   5.620   8.271 -0.6034 -0.6728  0.1591
  788MOL0     C 6258   5.398   5.616   8.343  0.1733  0.7071 -0.7204
  788MOL0     C 6259   5.455   5.469   8.362  0.1823 -0.5176 -1.3646
  788MOL0     C 6260   5.586   5.466   8.445  1.3498  1.0622  0.1503
  788MOL0     C 6261   5.697   5.561   8.395 -0.0170 -0.0811 -0.7511
  788MOL0     N 6262   5.751   5.510   8.264 -0.6143  0.8384 -0.7263
  788MOL0     C 6263   5.721   5.535   8.130 -0.2312 -0.3324  0.6100
  788MOL0     C 6264   5.794   5.448   8.054  0.9431 -0.0725  0.4179
  788MOL0     C 6265   5.819   5.440   7.902  1.0887  0.4826 -0.3219
  788MOL0     C 6266   5.965   5.469   7.894 -0.4891 -0.0266  0.8984
  788MOL0     C 6267   6.030   5.463   7.755  0.6664 -0.3417  0.0109
  788MOL0     C 6268   5.991   5.335   7.674  0.3999  0.1680 -0.3358
  788MOL0     O 6269   6.088   5.339   7.571  0.0635 -0.0368  0.0120
  788MOL0     C 6270   6.084   5.416   7.462 -0.2374 -0.3220  1.1644
  788MOL0     C 6271   5.968   5.482   7.411 -0.1083  0.3344 -0.3831
  788MOL0     C 6272   5.964   5.564   7.303  0.1430  0.0083 -0.2816
  788MOL0     C 6273   6.084   5.569   7.228  0.0885  0.0607  0.8848
  788MOL0     C 6274   6.088   5.645   7.101 -1.0204 -0.4488  0.4233
  788MOL0     O 6275   6.001   5.752   7.095 -0.2226  0.7150 -0.3356
  788MOL0     C 6276   5.988   5.843   6.994  0.2242  0.2625  0.1725
  788MOL0     C 6277   5.891   5.936   7.009 -0.6023  0.5646  0.2890
  788MOL0     C 6278   5.847   6.017   6.911 -0.4889  0.4537  0.1925
  788MOL0     C 6279   5.930   6.027   6.797  0.6383 -0.8581  0.1011
  788MOL0     O 6280   5.879   6.096   6.688 -0.8651  1.0882 -0.6891
  788MOL0     C 6281   5.963   6.201   6.643  0.4245  0.4906  0.2652
  788MOL0     C 6282   5.872   6.288   6.557  0.0210  0.1030 -0.4271
  788MOL0     C 6283   5.934   6.423   6.535  0.4570 -0.3477 -0.1481
  788MOL0     C 6284   5.866   6.506   6.421  0.0168  0.1768  0.8050
  788MOL0     C 6285   5.880   6.461   6.281 -0.0272  0.7037  0.4637
  788MOL0     C 6286   5.804   6.564   6.191 -0.0501  1.0574 -0.6657
  788MOL0     C 6287   5.829   6.556   6.041  0.6672  0.2772 -0.9169
  788MOL0     C 6288   5.768   6.430   5.978 -0.7742 -0.8320  1.1332
  788MOL0    Cl 6289   5.624   6.352   6.071 -0.2568  0.3963 -0.0721
  788MOL0     C 6290   6.042   5.945   6.782 -0.8148  0.0222 -0.6747
  788MOL0     C 6291   6.063   5.843   6.875  0.8075  0.0321 -0.0479
  788MOL0     O 6292   6.177   5.620   7.021 -0.5664 -0.9709  0.4755
  788MOL0     C 6293   6.209   5.505   7.265 -0.2007 -0.4486  0.1893
  788MOL0     C 6294   6.205   5.439   7.386 -0.6345  0.1384  0.3320
  788MOL0     N 6295   5.837   5.358   8.150 -0.0175 -0.1324 -0.7679
  788MOL0     N 6296   5.807   5.386   8.270 -0.0124 -1.6606 -0.8434
  788MOL0     C 6297   4.813   5.251   8.260 -0.1632  0.2906  0.0019
  788MOL0     C 6298   4.685   5.218   8.217  0.3081  0.0794 -0.5822
  788MOL0     C 6299   4.265   5.207   8.107 -0.2319  0.0211 -0.0834
  788MOL0     C 6300   4.204   5.117   8.194 -0.2029 -0.4352  1.0534
  788MOL0     C 6301   4.073   5.063   8.173 -0.3991  0.3514 -0.1003
  788MOL0     C 6302   3.997   5.098   8.057 -0.8409 -0.1866 -0.1889
  788MOL0     O 6303   3.872   5.044   8.049 -0.1276  0.8712 -0.2292
  788MOL0     C 6304   3.792   5.070   7.932 -1.0437 -0.3698 -0.4219
  788MOL0     C 6305   3.657   5.017   7.955  0.0802 -0.0813 -0.3564
  788MOL0     C 6306   3.572   5.041   7.833  0.4648 -0.2821  0.7173
  788MOL0     C 6307   3.420   5.037   7.840 -0.5167  0.9512 -0.5828
  788MOL0     C 6308   3.360   5.141   7.917 -0.2867  0.3317 -0.6598
  788MOL0     C 6309   3.301   5.234   7.955 -0.0179  0.1808  0.1679
  788MOL0     C 6310   4.076   5.169   7.951  0.4232 -0.3982 -0.1301
  788MOL0     C 6311   4.208   5.220   7.979  0.2327  0.3386  0.3956
  788MOL0     C 6312   4.276   5.283   7.867 -0.3423  0.6057  0.7079
  788MOL0     H 6313   4.502   5.423   8.430  1.0222  1.5481  0.1291
  788MOL0     H 6314   4.715   5.458   8.524 -0.8230 -2.8833  1.8608
  788MOL0     H 6315   5.118   5.296   8.479 -0.3338  3.0078  1.3144
  788MOL0     H 6316   5.040   5.214   8.342  0.1020 -0.5041 -0.2425
  788MOL0     H 6317   5.066   5.421   8.207 -3.8651  1.8740  2.9873
  788MOL0     H 6318   5.227   5.360   8.278 -1.4598 -2.5060  0.3775
  788MOL0     H 6319   5.165   5.545   8.467 -1.3165  1.4296  0.2407
  788MOL0     H 6320   5.060   5.611   8.347  2.5055  3.4384 -0.4873
  788MOL0     H 6321   5.262   5.576   8.171  0.7193  0.2901 -0.2102
  788MOL0     H 6322   5.232   5.726   8.260  1.7642 -0.2280 -1.5801
  788MOL0     H 6323   5.467   5.681   8.289 -0.0008 -1.5757 -4.0420
  788MOL0     H 6324   5.374   5.655   8.442 -1.0839 -1.7405  0.0403
  788MOL0     H 6325   5.388   5.399   8.413 -1.0008 -2.2334 -4.8967
  788MOL0     H 6326   5.475   5.428   8.263 -0.7016  1.1367 -2.2682
  788MOL0     H 6327   5.629   5.366   8.456 -1.9681 -0.6946 -1.2174
  788MOL0     H 6328   5.555   5.491   8.547  2.0345 -1.1603  0.9603
  788MOL0     H 6329   5.665   5.666   8.396 -2.2394 -0.6909 -0.5284
  788MOL0     H 6330   5.782   5.549   8.462  0.2972  0.0491 -1.1264
  788MOL0     H 6331   5.671   5.622   8.088  0.2638 -0.9997 -1.4576
  788MOL0     H 6332   5.791   5.340   7.868  2.7419 -0.7255  1.6332
  788MOL0     H 6333   5.752   5.510   7.852  0.0056 -0.4027 -0.1444
  788MOL0     H 6334   5.979   5.566   7.943  0.2194 -0.9537  2.6411
  788MOL0     H 6335   6.020   5.392   7.949  0.7283 -0.4159 -0.7972
  788MOL0     H 6336   6.138   5.474   7.762  0.5577  0.9962 -0.0780
  788MOL0     H 6337   6.006   5.555   7.700  1.6194 -0.2736 -0.3072
  788MOL0     H 6338   5.890   5.335   7.632  0.5513  3.2626 -0.9063
  788MOL0     H 6339   5.990   5.245   7.737 -0.6502  0.6671  0.3794
  788MOL0     H 6340   5.876   5.464   7.465 -0.9487  0.7032 -1.6410
  788MOL0     H 6341   5.871   5.617   7.284 -0.1491  0.0035  1.0494
  788MOL0     H 6342   5.839   5.922   7.104 -1.8421 -0.9061 -0.5582
  788MOL0     H 6343   5.758   6.071   6.939 -0.7337  0.2807 -0.2364
  788MOL0     H 6344   6.005   6.259   6.726  1.9761 -0.1466 -0.0365
  788MOL0     H 6345   6.048   6.169   6.582 -2.3488 -1.2685 -3.0480
  788MOL0     H 6346   5.840   6.237   6.465  0.5459  2.2721 -1.8654
  788MOL0     H 6347   5.782   6.294   6.619  0.9037  0.2260  0.8924
  788MOL0     H 6348   5.907   6.478   6.625  0.5727  4.2854 -2.6427
  788MOL0     H 6349   6.043   6.426   6.524  0.3255  0.2256 -1.5746
  788MOL0     H 6350   5.907   6.607   6.430  3.3908 -1.0253  0.4829
  788MOL0     H 6351   5.761   6.521   6.449 -0.3024 -0.1210 -0.1956
  788MOL0     H 6352   5.829   6.364   6.273 -0.5082  1.1084 -2.1539
  788MOL0     H 6353   5.984   6.451   6.249 -1.0859  0.2336 -3.2053
  788MOL0     H 6354   5.698   6.558   6.216 -0.3898 -1.2780 -2.3146
  788MOL0     H 6355   5.818   6.671   6.212 -2.3001  1.5545 -1.4514
  788MOL0     H 6356   5.935   6.571   6.015  0.7788 -0.9786 -1.2719
  788MOL0     H 6357   5.781   6.643   5.996 -0.4308  0.2308  0.1230
  788MOL0     H 6358   5.748   6.455   5.873  2.0334  1.2064  0.9604
  788MOL0     H 6359   5.849   6.356   5.970  0.6489  0.8717 -1.9878
  788MOL0     H 6360   6.096   5.955   6.688  0.6838  0.2327  0.1809
  788MOL0     H 6361   6.138   5.772   6.844 -0.3617 -2.2933  2.1108
  788MOL0     H 6362   6.303   5.522   7.215  1.4757 -2.7004  2.3415
  788MOL0     H 6363   6.305   5.397   7.397 -0.4556 -0.0919 -1.7857
  788MOL0     H 6364   4.892   5.201   8.204  2.1904  3.0257  0.6721
  788MOL0     H 6365   4.669   5.142   8.141  0.6959 -2.8204  2.0326
  788MOL0     H 6366   4.250   5.096   8.291  1.6114  2.2769  0.8802
  788MOL0     H 6367   4.023   5.008   8.252 -2.7417  1.9776 -0.3226
  788MOL0     H 6368   3.843   5.023   7.847 -1.7966  0.5258 -1.3967
  788MOL0     H 6369   3.777   5.178   7.922 -0.1100  0.0526  1.9938
  788MOL0     H 6370   3.615   5.065   8.044  1.8310 -0.6837  0.8598
  788MOL0     H 6371   3.655   4.911   7.981 -0.5185  0.2418  1.0263
  788MOL0     H 6372   3.602   4.967   7.758 -0.1911  1.1977 -1.0775
  788MOL0     H 6373   3.589   5.139   7.788 -1.0397  0.7975  2.3834
  788MOL0     H 6374   3.371   5.034   7.742 -0.4303  0.5620 -0.6154
  788MOL0     H 6375   3.392   4.954   7.905 -0.1682  3.8713  3.6996
  788MOL0     H 6376   3.267   5.324   8.004  1.8106  1.1328 -0.1937
  788MOL0     H 6377   4.025   5.209   7.865  0.0855 -3.4346 -1.4413
  788MOL0     H 6378   4.286   5.390   7.885  3.2802  0.5235 -0.0674
  788MOL0     H 6379   4.375   5.239   7.857  1.3854  4.4152 -0.7463
  788MOL0     H 6380   4.227   5.262   7.771 -2.2471 -0.3998  1.8312
  789MOL0     O 6381   2.875   6.151   8.558 -0.0924 -0.1650 -0.3616
  789MOL0     C 6382   2.767   6.105   8.541  0.2198  0.5242 -0.7744
  789MOL0     O 6383   2.694   6.014   8.628 -1.0003  0.4894 -0.3163
  789MOL0     C 6384   2.713   6.037   8.766  0.9026 -0.1591 -0.1981
  789MOL0     C 6385   2.622   6.130   8.829 -1.0048  0.5557  0.6303
  789MOL0     C 6386   2.652   6.165   8.957 -0.2444  0.7293  0.4701
  789MOL0     C 6387   2.760   6.119   9.033  1.1707 -0.3129  1.4759
  789MOL0     O 6388   2.778   6.181   9.157 -0.1233 -0.6948  0.0821
  789MOL0     C 6389   2.900   6.170   9.225  0.3993  0.0627 -0.0949
  789MOL0     C 6390   2.896   6.234   9.364  0.3197 -0.8446  0.3411
  789MOL0     C 6391   2.812   6.147   9.466  1.0739  0.3272  0.1161
  789MOL0     C 6392   2.828   6.199   9.616 -0.4063  0.3196 -0.3069
  789MOL0     C 6393   2.833   6.351   9.627 -0.0030  0.4429  0.1272
  789MOL0     C 6394   2.818   6.392   9.767  0.3167  0.1753 -0.8647
  789MOL0     C 6395   2.960   6.389   9.838  0.0198 -0.5214 -0.4933
  789MOL0     C 6396   2.935   6.428   9.984  0.4151 -0.5055 -0.1002
  789MOL0     N 6397   3.068   6.440  10.048  0.3993  0.1028 -0.6255
  789MOL0     C 6398   3.181   6.368  10.031 -0.7015  0.7499 -0.5964
  789MOL0     C 6399   3.270   6.426  10.122  0.1071  1.4035  0.5170
  789MOL0     C 6400   3.414   6.375  10.135  1.3452  0.0879 -0.2779
  789MOL0     C 6401   3.521   6.476  10.106  0.0128 -0.6189 -0.7975
  789MOL0     C 6402   3.656   6.408  10.145 -0.0916 -0.0976  0.2262
  789MOL0     C 6403   3.774   6.468  10.071 -0.3087 -0.6702 -0.2806
  789MOL0     O 6404   3.778   6.443   9.930 -0.1202 -0.3642  0.0528
  789MOL0     C 6405   3.892   6.419   9.861  0.0710  0.0958  0.1087
  789MOL0     C 6406   3.877   6.442   9.723 -0.3633  1.0063 -0.0955
  789MOL0     C 6407   3.977   6.418   9.630  0.3304 -0.0914 -0.1125
  789MOL0     C 6408   4.106   6.381   9.681  0.4185 -0.4615  0.6047
  789MOL0     C 6409   4.217   6.360   9.586 -0.7462 -0.2707  0.3625
  789MOL0     O 6410   4.179   6.338   9.455 -0.1428  0.2191  0.1714
  789MOL0     C 6411   4.277   6.292   9.370  0.2779 -0.9892 -0.2618
  789MOL0     C 6412   4.387   6.211   9.397 -1.1678  0.0977 -0.9484
  789MOL0     C 6413   4.489   6.190   9.310 -0.0799 -0.3449 -0.4826
  789MOL0     C 6414   4.491   6.237   9.183  0.2660  0.8865  0.1421
  789MOL0     O 6415   4.593   6.204   9.113 -1.0306  0.0512  0.5089
  789MOL0     C 6416   4.638   6.294   9.006 -0.1679 -0.6193 -0.0591
  789MOL0     C 6417   4.748   6.241   8.917  0.2631 -0.1487  0.2285
  789MOL0     C 6418   4.878   6.211   8.993  0.2592  0.6926 -0.9314
  789MOL0     C 6419   4.996   6.231   8.904 -0.5527 -1.2001 -0.0168
  789MOL0     C 6420   5.119   6.211   8.981 -0.1922  0.1368  0.7531
  789MOL0     C 6421   5.235   6.288   8.915  0.7132 -0.1898  0.0444
  789MOL0     C 6422   5.366   6.293   8.997  0.5275  0.8389  0.4915
  789MOL0     C 6423   5.483   6.368   8.947  0.0653  0.0302 -0.2671
  789MOL0    Cl 6424   5.506   6.362   8.776 -0.4011  0.3684 -0.3963
  789MOL0     C 6425   4.380   6.309   9.146  0.1961 -0.5058 -0.0922
  789MOL0     C 6426   4.279   6.345   9.241  0.2704  0.6882  0.2022
  789MOL0     O 6427   4.335   6.363   9.629 -0.4173 -0.3650 -0.2801
  789MOL0     C 6428   4.123   6.366   9.818  0.5924 -0.6799  0.1950
  789MOL0     C 6429   4.018   6.384   9.907  0.7148 -0.7083  0.0182
  789MOL0     N 6430   3.205   6.535  10.185 -0.2898 -0.2697  0.2491
  789MOL0     N 6431   3.087   6.547  10.127  0.0595  0.5320  1.0795
  789MOL0     C 6432   2.849   6.031   8.971 -0.8500  0.1304  0.4956
  789MOL0     C 6433   2.817   5.984   8.842 -0.0579 -0.5362  1.3744
  789MOL0     C 6434   2.700   6.141   8.408  0.0208  0.0504  0.5671
  789MOL0     C 6435   2.577   6.081   8.376  0.0397 -0.7035 -0.9914
  789MOL0     C 6436   2.512   6.100   8.251 -0.8664 -0.7193  0.7887
  789MOL0     C 6437   2.557   6.187   8.155 -1.1010 -0.2859 -0.2800
  789MOL0     O 6438   2.503   6.215   8.038  0.3371  0.1935  0.3055
  789MOL0     C 6439   2.384   6.133   7.992 -0.2422 -0.7697  0.3961
  789MOL0     C 6440   2.322   6.217   7.878 -0.1768  0.2836 -0.2543
  789MOL0     C 6441   2.213   6.153   7.795  0.1185  0.0803  0.0655
  789MOL0     C 6442   2.165   6.246   7.679 -0.2991  0.2652  0.2376
  789MOL0     C 6443   2.081   6.354   7.738 -0.1941 -0.1572  0.6816
  789MOL0     C 6444   2.005   6.432   7.786  0.4657 -0.9135  0.4233
  789MOL0     C 6445   2.678   6.246   8.184  0.0701  0.2929  0.8895
  789MOL0     C 6446   2.748   6.229   8.300  0.3089  0.3183  0.2254
  789MOL0     C 6447   2.880   6.295   8.309  0.0581  0.2425 -0.1055
  789MOL0     H 6448   2.546   6.191   8.780 -2.5144  2.4652  4.8464
  789MOL0     H 6449   2.586   6.237   9.005  0.6561  2.0359 -0.1793
  789MOL0     H 6450   2.934   6.068   9.245  2.3646  0.9523  1.4469
  789MOL0     H 6451   2.974   6.233   9.176 -0.3453  0.6895 -0.4432
  789MOL0     H 6452   2.846   6.331   9.359 -1.3589 -1.7014  0.0376
  789MOL0     H 6453   3.001   6.245   9.394  0.5152 -1.1579 -0.2164
  789MOL0     H 6454   2.833   6.040   9.466 -4.0196 -0.9692 -2.3358
  789MOL0     H 6455   2.706   6.153   9.441  1.1100  0.0365 -0.0956
  789MOL0     H 6456   2.747   6.159   9.677  0.0790  1.5341  1.1980
  789MOL0     H 6457   2.919   6.154   9.657 -1.1245 -1.4028 -0.5362
  789MOL0     H 6458   2.923   6.396   9.583 -0.3303 -1.3220 -2.6363
  789MOL0     H 6459   2.753   6.399   9.569  0.1082 -0.3847 -0.7511
  789MOL0     H 6460   2.785   6.496   9.775 -0.5044 -0.1104 -0.4790
  789MOL0     H 6461   2.740   6.332   9.815 -1.1143  1.6787 -1.2295
  789MOL0     H 6462   3.018   6.471   9.795 -3.6906  2.9249  0.5194
  789MOL0     H 6463   3.014   6.294   9.842 -1.4675 -1.3593  0.7795
  789MOL0     H 6464   2.889   6.525  10.002  0.1042 -0.9871  1.9488
  789MOL0     H 6465   2.875   6.349  10.030 -3.8656  2.0866 -0.7139
  789MOL0     H 6466   3.195   6.283   9.965 -3.7381  0.5212 -1.1041
  789MOL0     H 6467   3.430   6.339  10.237 -1.2616  1.4429  0.7058
  789MOL0     H 6468   3.422   6.292  10.064  1.0409 -0.6849  0.5699
  789MOL0     H 6469   3.527   6.499   9.999  1.2595  0.6975 -0.4704
  789MOL0     H 6470   3.510   6.572  10.155 -2.0053  0.0602 -2.4280
  789MOL0     H 6471   3.650   6.306  10.105  2.2397  0.0951 -0.7640
  789MOL0     H 6472   3.676   6.402  10.252  0.1777 -1.3272  0.1246
  789MOL0     H 6473   3.856   6.417  10.123 -0.7350 -0.8805  0.1965
  789MOL0     H 6474   3.786   6.574  10.092 -1.6886  0.0049 -2.5694
  789MOL0     H 6475   3.774   6.465   9.697  0.4496 -0.3990 -5.8172
  789MOL0     H 6476   3.949   6.421   9.525 -1.5586 -1.1307  0.3294
  789MOL0     H 6477   4.393   6.173   9.498  2.2948  0.1298 -1.0144
  789MOL0     H 6478   4.572   6.127   9.340 -2.4275 -2.4151  2.1887
  789MOL0     H 6479   4.559   6.320   8.936  1.6306  0.8557 -1.6570
  789MOL0     H 6480   4.663   6.383   9.065  0.3328 -1.1984  0.6207
  789MOL0     H 6481   4.719   6.160   8.850  1.1648  0.8309 -1.4195
  789MOL0     H 6482   4.770   6.327   8.852  2.0920 -0.1202  0.8333
  789MOL0     H 6483   4.883   6.272   9.084  0.3383  2.4021 -2.0317
  789MOL0     H 6484   4.873   6.109   9.030 -1.6459  0.8271 -0.7339
  789MOL0     H 6485   4.991   6.334   8.867  0.4578 -2.4885 -4.2721
  789MOL0     H 6486   4.990   6.171   8.813  0.0309  1.3129 -1.8084
  789MOL0     H 6487   5.133   6.108   9.014  1.2210  0.3033  0.7248
  789MOL0     H 6488   5.110   6.259   9.079 -0.8938  0.8231  0.3645
  789MOL0     H 6489   5.257   6.252   8.815  0.5887 -0.8162  0.2375
  789MOL0     H 6490   5.202   6.392   8.900 -2.3405 -0.8086  1.5900
  789MOL0     H 6491   5.396   6.189   9.008 -1.2996  0.2953  0.6763
  789MOL0     H 6492   5.354   6.327   9.100 -0.6508 -0.0131  0.6464
  789MOL0     H 6493   5.466   6.471   8.980  0.2091  0.5286 -1.6893
  789MOL0     H 6494   5.574   6.350   9.005  0.3493 -1.4962 -1.1284
  789MOL0     H 6495   4.379   6.361   9.051 -0.6608  0.2172  0.2979
  789MOL0     H 6496   4.202   6.405   9.193  0.5534  0.0729 -1.0683
  789MOL0     H 6497   4.222   6.344   9.855  0.1242 -1.7655  0.8536
  789MOL0     H 6498   4.025   6.383  10.016 -0.9475  0.6993  0.1871
  789MOL0     H 6499   2.940   6.013   9.026  0.3522 -0.7496 -1.6322
  789MOL0     H 6500   2.885   5.912   8.797 -2.8364 -1.3176 -2.0122
  789MOL0     H 6501   2.535   6.022   8.457  3.0306 -0.1486  1.1392
  789MOL0     H 6502   2.418   6.045   8.252  1.3724 -4.9193  1.7942
  789MOL0     H 6503   2.309   6.116   8.070 -2.0150 -1.7143 -1.4198
  789MOL0     H 6504   2.413   6.036   7.951  1.7225 -0.2005  0.3119
  789MOL0     H 6505   2.399   6.252   7.809  0.8854  1.5971  1.5284
  789MOL0     H 6506   2.280   6.303   7.931 -1.7457  0.5412 -1.7966
  789MOL0     H 6507   2.121   6.119   7.844 -1.0457 -0.0711 -2.1322
  789MOL0     H 6508   2.269   6.066   7.759  2.7111  1.5080  0.3889
  789MOL0     H 6509   2.257   6.282   7.634 -0.1044  1.0095  1.1989
  789MOL0     H 6510   2.100   6.193   7.609 -3.0685  0.6264  2.3483
  789MOL0     H 6511   1.926   6.500   7.811  2.0745  0.8699  0.9610
  789MOL0     H 6512   2.727   6.297   8.102  0.0181 -1.8021 -0.5144
  789MOL0     H 6513   2.887   6.377   8.237  3.4244 -2.0274 -2.6264
  789MOL0     H 6514   2.898   6.335   8.409  2.4268  0.8321 -0.7181
  789MOL0     H 6515   2.959   6.222   8.291 -0.7150 -1.0337  1.3576
  790MOL0     O 6516   3.898   9.248   3.299 -0.0528 -0.4558 -0.0131
  790MOL0     C 6517   3.777   9.244   3.309  0.1450  0.7341 -0.5310
  790MOL0     O 6518   3.700   9.356   3.334 -0.7146 -0.1523 -0.3171
  790MOL0     C 6519   3.756   9.482   3.357  0.4060  0.2048  0.6280
  790MOL0     C 6520   3.700   9.554   3.456 -0.2100  0.3464 -0.9282
  790MOL0     C 6521   3.745   9.683   3.478 -0.9581 -0.0569 -1.6255
  790MOL0     C 6522   3.854   9.733   3.399 -0.1575 -0.5593 -0.4143
  790MOL0     O 6523   3.902   9.859   3.433 -0.9240  0.6850 -0.5834
  790MOL0     C 6524   4.030   9.901   3.376  0.8246 -0.2736  0.1595
  790MOL0     C 6525   4.038  10.046   3.408 -0.0792  0.2098  0.1432
  790MOL0     C 6526   4.170  10.105   3.367 -0.4681 -0.2305  0.1557
  790MOL0     C 6527   4.191  10.251   3.401 -0.3908  0.4565 -0.0431
  790MOL0     C 6528   4.341  10.283   3.402 -0.7726 -0.1062  0.0482
  790MOL0     C 6529   4.417  10.261   3.279  0.0690  0.4791 -0.3277
  790MOL0     C 6530   4.362  10.327   3.158  0.3873  0.0721  0.9050
  790MOL0     C 6531   4.443  10.290   3.029 -0.5910 -0.4764  0.6423
  790MOL0     N 6532   4.396  10.374   2.914  0.2586 -0.1979 -1.0695
  790MOL0     C 6533   4.271  10.368   2.867  0.6751 -0.2476 -0.9300
  790MOL0     C 6534   4.252  10.464   2.779  0.1862 -1.0063  0.2345
  790MOL0     C 6535   4.118  10.505   2.716  0.3132 -0.1950  0.2195
  790MOL0     C 6536   4.081  10.437   2.580  1.0843  0.9768 -0.4220
  790MOL0     C 6537   4.049  10.286   2.608  0.3322 -0.1369  0.2468
  790MOL0     C 6538   4.010  10.198   2.490  0.1341  0.5894  0.0052
  790MOL0     O 6539   3.893  10.242   2.428  0.5809 -0.0090 -0.0984
  790MOL0     C 6540   3.774  10.176   2.447 -1.0815  0.0484  0.7922
  790MOL0     C 6541   3.687  10.182   2.340 -0.3986 -0.2415 -0.0568
  790MOL0     C 6542   3.563  10.112   2.353  0.6098 -1.2596 -0.1301
  790MOL0     C 6543   3.530  10.037   2.469 -0.3677 -0.2305 -1.5358
  790MOL0     C 6544   3.409   9.963   2.472  0.5389  0.3843  0.0109
  790MOL0     O 6545   3.410   9.844   2.554  0.7862 -0.5222 -0.6100
  790MOL0     C 6546   3.315   9.750   2.532  0.3890 -0.1688  0.5065
  790MOL0     C 6547   3.243   9.706   2.642  0.4925  1.0329 -0.0907
  790MOL0     C 6548   3.130   9.630   2.619 -1.1655  0.1218  0.0839
  790MOL0     C 6549   3.101   9.567   2.493 -0.5157  0.3676 -0.4493
  790MOL0     O 6550   2.999   9.475   2.478  0.5183 -0.1192 -0.4322
  790MOL0     C 6551   3.041   9.348   2.421  0.3605 -0.1565 -0.2784
  790MOL0     C 6552   2.936   9.258   2.480  0.3131  0.3572 -0.1453
  790MOL0     C 6553   2.938   9.106   2.434  0.5155 -0.1885 -0.8003
  790MOL0     C 6554   2.832   9.032   2.523 -0.0959 -0.6676  0.4927
  790MOL0     C 6555   2.845   8.882   2.488 -0.4978 -0.2483 -0.4414
  790MOL0     C 6556   2.726   8.799   2.534  0.1008 -0.5233 -0.7688
  790MOL0     C 6557   2.745   8.718   2.666  0.1586 -0.1695  0.2156
  790MOL0     C 6558   2.844   8.602   2.653 -0.3821  0.5301  0.1258
  790MOL0    Cl 6559   3.005   8.657   2.677 -0.4446  0.2064  0.3580
  790MOL0     C 6560   3.190   9.599   2.392 -0.5094 -0.2564 -0.2364
  790MOL0     C 6561   3.292   9.698   2.409 -0.9606  0.1930  0.3477
  790MOL0     O 6562   3.310  10.001   2.408 -0.2478 -0.1437  0.0973
  790MOL0     C 6563   3.633  10.035   2.575 -0.5932  0.1006  0.0430
  790MOL0     C 6564   3.749  10.101   2.560 -0.6968 -0.9360  0.0960
  790MOL0     N 6565   4.371  10.528   2.770 -0.5127 -0.6016  0.3730
  790MOL0     N 6566   4.464  10.465   2.836 -0.7217 -0.2328  0.6300
  790MOL0     C 6567   3.908   9.661   3.294  1.0686  0.1050  0.7777
  790MOL0     C 6568   3.852   9.536   3.275 -0.3677 -1.2057  0.3665
  790MOL0     C 6569   3.702   9.111   3.283 -0.6903 -0.9879 -0.1597
  790MOL0     C 6570   3.592   9.101   3.364  0.3956 -0.8574  0.3304
  790MOL0     C 6571   3.490   9.001   3.340 -0.2074 -0.2930 -0.5169
  790MOL0     C 6572   3.492   8.922   3.231 -0.0785  1.0208  0.5838
  790MOL0     O 6573   3.381   8.852   3.172 -0.3358  0.3817  0.2048
  790MOL0     C 6574   3.250   8.894   3.194 -0.4830 -0.3080 -0.9241
  790MOL0     C 6575   3.197   8.816   3.312  0.2755  0.6411 -0.0728
  790MOL0     C 6576   3.064   8.864   3.356  0.7822 -0.1404 -0.3719
  790MOL0     C 6577   3.016   8.805   3.493 -0.3015 -0.9600 -0.0016
  790MOL0     C 6578   3.017   8.660   3.492 -1.1833  0.6902  0.4751
  790MOL0     C 6579   3.018   8.545   3.477  0.2809  0.1496  1.2726
  790MOL0     C 6580   3.615   8.925   3.160  0.3843  0.2347 -0.2245
  790MOL0     C 6581   3.730   9.000   3.191  0.0359 -0.9467 -0.7538
  790MOL0     C 6582   3.851   9.001   3.103 -0.2279 -0.3271 -0.2867
  790MOL0     H 6583   3.622   9.501   3.510  0.2244  3.4796  3.2867
  790MOL0     H 6584   3.693   9.743   3.552 -1.4099 -1.5130 -0.7088
  790MOL0     H 6585   4.101   9.843   3.437 -2.1347 -1.6409  2.5808
  790MOL0     H 6586   4.046   9.880   3.270 -2.5236 -1.7163 -0.1750
  790MOL0     H 6587   4.026  10.074   3.513  0.6607 -2.3215  0.9675
  790MOL0     H 6588   3.964  10.108   3.357 -2.7679 -1.6382  1.5481
  790MOL0     H 6589   4.175  10.092   3.258  2.5995 -0.8925  0.2885
  790MOL0     H 6590   4.247  10.042   3.413  2.1824  0.9472 -2.4005
  790MOL0     H 6591   4.134  10.310   3.328 -0.1836 -0.6404 -1.1066
  790MOL0     H 6592   4.151  10.261   3.503 -2.1107 -3.1440 -0.2317
  790MOL0     H 6593   4.349  10.383   3.444  2.5344  0.2078 -1.0143
  790MOL0     H 6594   4.389  10.207   3.465  0.3000  0.1315 -0.4592
  790MOL0     H 6595   4.524  10.276   3.297  0.3955  1.1497 -2.5172
  790MOL0     H 6596   4.422  10.155   3.251  2.5685  0.0510  1.4021
  790MOL0     H 6597   4.371  10.436   3.167  0.9220  0.0632  0.5383
  790MOL0     H 6598   4.259  10.298   3.135  1.1121 -2.3103  0.3402
  790MOL0     H 6599   4.550  10.307   3.043  0.1468 -1.7109 -2.6098
  790MOL0     H 6600   4.417  10.187   3.002  0.9145 -0.6766 -0.1395
  790MOL0     H 6601   4.195  10.301   2.905  1.1511 -1.5036 -2.1367
  790MOL0     H 6602   4.037  10.497   2.789  2.9576 -0.0492  3.4312
  790MOL0     H 6603   4.130  10.612   2.693 -1.4665 -0.1168 -0.5389
  790MOL0     H 6604   3.988  10.477   2.538  0.0542 -0.2200  0.6215
  790MOL0     H 6605   4.172  10.449   2.521  3.3370 -0.0758  2.5699
  790MOL0     H 6606   3.984  10.274   2.695 -1.6540 -1.8783 -1.3636
  790MOL0     H 6607   4.141  10.252   2.655  0.3526  1.2444  1.2754
  790MOL0     H 6608   4.011  10.093   2.518  2.4721  0.6034  0.1537
  790MOL0     H 6609   4.096  10.203   2.422  0.9928  0.0027  1.0213
  790MOL0     H 6610   3.705  10.226   2.243  0.0366  4.8739  2.0100
  790MOL0     H 6611   3.496  10.109   2.269  0.9245 -0.7658 -0.4039
  790MOL0     H 6612   3.265   9.739   2.743  1.0505  0.1495  0.0840
  790MOL0     H 6613   3.062   9.602   2.699  0.7271 -1.0320  1.3800
  790MOL0     H 6614   3.039   9.349   2.311 -0.1804  0.6293 -0.2743
  790MOL0     H 6615   3.144   9.329   2.451  1.1090  1.4844 -1.6059
  790MOL0     H 6616   2.948   9.257   2.589  1.1128  0.3336 -0.2265
  790MOL0     H 6617   2.841   9.312   2.478  1.0049  1.6415  0.3891
  790MOL0     H 6618   2.901   9.080   2.334 -1.3640 -2.8953  0.4703
  790MOL0     H 6619   3.040   9.073   2.457  1.1238  3.0229  1.7104
  790MOL0     H 6620   2.734   9.074   2.499  1.0675  1.9050 -0.0883
  790MOL0     H 6621   2.842   9.060   2.628 -2.5252 -0.4416  0.7199
  790MOL0     H 6622   2.943   8.855   2.527 -0.5675  0.0571 -0.0508
  790MOL0     H 6623   2.857   8.865   2.381  1.0322  1.2326 -0.5334
  790MOL0     H 6624   2.642   8.867   2.552 -1.1314 -1.2856 -3.2441
  790MOL0     H 6625   2.686   8.739   2.452 -0.9467 -0.5254 -0.2684
  790MOL0     H 6626   2.651   8.667   2.692  0.3168  0.5206  2.3223
  790MOL0     H 6627   2.774   8.769   2.758  1.1850 -0.2646 -0.0482
  790MOL0     H 6628   2.822   8.513   2.713  1.8474 -0.4518 -0.3834
  790MOL0     H 6629   2.828   8.563   2.552 -1.9665  0.9561  0.1898
  790MOL0     H 6630   3.172   9.561   2.292  0.8739  0.5069 -0.7936
  790MOL0     H 6631   3.355   9.724   2.325 -0.8592 -2.6841 -0.5670
  790MOL0     H 6632   3.616   9.977   2.665  0.6309 -0.9535 -0.3709
  790MOL0     H 6633   3.819  10.093   2.643  0.8743 -3.7742 -1.3480
  790MOL0     H 6634   3.975   9.696   3.216 -0.9055 -2.2032 -2.1818
  790MOL0     H 6635   3.896   9.480   3.192  1.1581  1.2414 -0.6017
  790MOL0     H 6636   3.570   9.176   3.439  1.6191 -1.6059  1.4863
  790MOL0     H 6637   3.392   9.004   3.385 -0.8712 -2.0561 -1.7258
  790MOL0     H 6638   3.184   8.877   3.109 -0.1881  0.8718 -1.4134
  790MOL0     H 6639   3.236   9.002   3.209 -2.2415 -0.6704  0.4574
  790MOL0     H 6640   3.255   8.813   3.404 -0.3405 -3.0586  0.3476
  790MOL0     H 6641   3.194   8.712   3.277  1.5625  0.1325  1.2496
  790MOL0     H 6642   2.990   8.839   3.279  1.4426  3.4375 -2.4174
  790MOL0     H 6643   3.078   8.972   3.368  3.1836 -0.5392  1.2049
  790MOL0     H 6644   3.089   8.829   3.571 -0.6525  0.1385  0.0071
  790MOL0     H 6645   2.918   8.841   3.524  0.0018 -0.6138  0.5692
  790MOL0     H 6646   3.009   8.439   3.465  1.7877  0.0370  0.8170
  790MOL0     H 6647   3.630   8.868   3.069 -1.4546  2.2109 -1.8834
  790MOL0     H 6648   3.816   9.029   3.003 -1.6065 -1.0647 -0.0317
  790MOL0     H 6649   3.925   9.076   3.135 -2.4453  1.1605  1.6353
  790MOL0     H 6650   3.899   8.903   3.097 -2.0281 -1.4090  1.7990
  791MOL0     O 6651   9.628   6.619   6.876 -0.7701 -0.3823 -0.5442
  791MOL0     C 6652   9.655   6.541   6.968 -0.2026 -0.1906 -0.1040
  791MOL0     O 6653   9.570   6.447   7.024 -1.0818 -0.3940  0.0708
  791MOL0     C 6654   9.433   6.476   7.017  0.2045  0.0395  0.6698
  791MOL0     C 6655   9.354   6.375   6.960 -0.0977 -0.6742  0.7966
  791MOL0     C 6656   9.212   6.374   6.965 -0.9603  0.2060  0.0308
  791MOL0     C 6657   9.147   6.465   7.055 -0.7924 -0.5417  0.4864
  791MOL0     O 6658   9.011   6.484   7.072  0.2044 -0.3745 -0.2474
  791MOL0     C 6659   8.911   6.437   6.984  0.1516  0.9173  0.7659
  791MOL0     C 6660   8.884   6.291   7.002 -0.0887 -0.3525  0.6009
  791MOL0     C 6661   8.769   6.230   6.915  0.2395 -0.6984  0.4257
  791MOL0     C 6662   8.797   6.256   6.763  0.5348 -0.4715 -0.0768
  791MOL0     C 6663   8.720   6.162   6.672  0.0273 -0.4120  0.1722
  791MOL0     C 6664   8.571   6.169   6.693  0.5682  0.9834  0.2429
  791MOL0     C 6665   8.492   6.094   6.580 -0.4445 -0.0956  0.2810
  791MOL0     C 6666   8.475   5.948   6.616  0.5089 -0.4983  0.4980
  791MOL0     N 6667   8.387   5.931   6.730  0.4245 -0.9925 -0.7305
  791MOL0     C 6668   8.425   5.853   6.842 -1.0339 -0.4126 -0.3896
  791MOL0     C 6669   8.322   5.852   6.928 -0.2255 -0.3076  0.5269
  791MOL0     C 6670   8.316   5.794   7.063 -0.0042  0.4696  0.1408
  791MOL0     C 6671   8.315   5.893   7.173  0.6271  0.6317 -0.6234
  791MOL0     C 6672   8.375   5.851   7.311 -0.4314 -0.5668 -0.5414
  791MOL0     C 6673   8.326   5.712   7.360  0.0708  0.7063 -0.6433
  791MOL0     O 6674   8.386   5.675   7.487  0.1888  0.1965  0.0082
  791MOL0     C 6675   8.372   5.543   7.532  0.0872 -0.8444  0.5762
  791MOL0     C 6676   8.380   5.434   7.447  0.2068  0.5190  1.0369
  791MOL0     C 6677   8.328   5.314   7.488 -0.5145 -0.2090 -0.2022
  791MOL0     C 6678   8.283   5.291   7.617 -0.4133  0.6201  0.7012
  791MOL0     C 6679   8.245   5.156   7.658  0.3978 -0.1131  0.3409
  791MOL0     O 6680   8.280   5.054   7.574  0.1648 -0.1117 -0.2113
  791MOL0     C 6681   8.246   4.933   7.602  0.1216  0.1394 -0.0922
  791MOL0     C 6682   8.340   4.835   7.608  0.0577  0.0857 -0.5958
  791MOL0     C 6683   8.294   4.708   7.645  1.0631 -0.2421 -0.2227
  791MOL0     C 6684   8.158   4.666   7.646  0.3369  0.0281  0.0649
  791MOL0     O 6685   8.115   4.539   7.654 -0.6908  0.2766  0.8329
  791MOL0     C 6686   8.186   4.437   7.733 -0.3488 -0.4998 -0.1706
  791MOL0     C 6687   8.221   4.466   7.883 -0.3827 -0.2261 -0.0801
  791MOL0     C 6688   8.111   4.521   7.968 -0.5644  0.5326  0.2092
  791MOL0     C 6689   7.983   4.430   7.987 -0.2925  0.3897  0.0997
  791MOL0     C 6690   7.885   4.453   7.873  0.1128  1.3044  0.2925
  791MOL0     C 6691   7.750   4.394   7.910 -0.1656 -0.1228 -0.0416
  791MOL0     C 6692   7.648   4.396   7.800 -0.5167  0.4367  0.1236
  791MOL0     C 6693   7.533   4.304   7.826  0.0806 -0.5970 -0.2868
  791MOL0    Cl 6694   7.412   4.341   7.701 -0.0362 -0.3152 -0.1217
  791MOL0     C 6695   8.063   4.761   7.619 -0.2486 -0.4578 -0.2601
  791MOL0     C 6696   8.108   4.897   7.600  0.7421  0.3657 -0.6567
  791MOL0     O 6697   8.187   5.141   7.762  0.3798 -0.0175  0.3904
  791MOL0     C 6698   8.288   5.404   7.703  0.2230  0.6251 -0.3658
  791MOL0     C 6699   8.336   5.528   7.660 -0.2291 -0.6042  0.0174
  791MOL0     N 6700   8.227   5.925   6.868 -0.2654 -0.0024  0.6133
  791MOL0     N 6701   8.252   5.973   6.749 -0.1278 -0.2489  0.3696
  791MOL0     C 6702   9.233   6.568   7.116  0.3736  0.4396 -0.0174
  791MOL0     C 6703   9.371   6.576   7.092  0.4094 -0.2240 -1.1617
  791MOL0     C 6704   9.802   6.551   7.011  0.4672 -0.0428 -0.0753
  791MOL0     C 6705   9.869   6.425   7.007  0.3653  0.1053  0.0177
  791MOL0     C 6706   9.996   6.409   7.061 -0.7912  0.8116  0.2168
  791MOL0     C 6707  10.058   6.515   7.117 -1.0577 -0.7681 -0.2493
  791MOL0     O 6708  10.180   6.499   7.180  0.5225 -0.2780 -0.6382
  791MOL0     C 6709  10.293   6.490   7.092 -0.1970  0.0746 -0.9034
  791MOL0     C 6710  10.409   6.584   7.140  0.3306  0.8898 -1.3322
  791MOL0     C 6711  10.503   6.519   7.250 -0.4246 -0.2015 -0.7730
  791MOL0     C 6712  10.614   6.443   7.179  0.1098 -0.4640  0.1733
  791MOL0     C 6713  10.727   6.396   7.256 -0.1902  0.6711  0.0488
  791MOL0     C 6714  10.813   6.344   7.323  0.6659  0.4630  0.9175
  791MOL0     C 6715   9.999   6.644   7.098  0.0439  0.4940  0.1144
  791MOL0     C 6716   9.872   6.662   7.047 -0.2532 -0.7584 -0.4599
  791MOL0     C 6717   9.812   6.799   7.057 -0.5452 -0.0899 -0.9172
  791MOL0     H 6718   9.412   6.302   6.905 -0.5561  0.7314 -1.6701
  791MOL0     H 6719   9.154   6.311   6.897 -0.3128  0.4771 -0.7951
  791MOL0     H 6720   8.819   6.496   6.987 -1.6892 -1.6269 -1.3175
  791MOL0     H 6721   8.940   6.448   6.879  1.7493  1.5207  1.2407
  791MOL0     H 6722   8.859   6.273   7.107 -0.0332  3.9759  1.5675
  791MOL0     H 6723   8.974   6.230   6.988 -1.0426 -1.5888 -0.3480
  791MOL0     H 6724   8.673   6.279   6.934  0.0158 -0.4990 -1.0627
  791MOL0     H 6725   8.738   6.128   6.941 -0.4490 -0.8417 -0.8366
  791MOL0     H 6726   8.758   6.357   6.744 -0.3543  0.1165  3.9848
  791MOL0     H 6727   8.904   6.250   6.741  0.1580 -0.5129 -2.0570
  791MOL0     H 6728   8.748   6.195   6.572  0.4481  0.6890  0.6287
  791MOL0     H 6729   8.753   6.060   6.694 -0.4182 -0.0374  3.0000
  791MOL0     H 6730   8.555   6.130   6.794  3.1066  0.6536  0.5924
  791MOL0     H 6731   8.552   6.277   6.686 -1.5683  0.6051 -0.3463
  791MOL0     H 6732   8.555   6.090   6.490 -0.8012  2.3325 -0.1481
  791MOL0     H 6733   8.395   6.141   6.560 -0.2931  0.0065 -0.2428
  791MOL0     H 6734   8.435   5.888   6.534  0.0851  0.0198  0.3251
  791MOL0     H 6735   8.577   5.910   6.631  0.5313 -1.1940 -1.1573
  791MOL0     H 6736   8.521   5.803   6.848 -0.7023  0.3822  1.7697
  791MOL0     H 6737   8.221   5.740   7.064 -0.2467  0.8974  0.3596
  791MOL0     H 6738   8.402   5.725   7.067 -1.4564 -1.3452  2.1395
  791MOL0     H 6739   8.385   5.972   7.142  1.2012  0.0227 -0.9043
  791MOL0     H 6740   8.211   5.921   7.188  1.0142  0.8265  2.2750
  791MOL0     H 6741   8.345   5.927   7.384  0.7148 -0.9961  0.4240
  791MOL0     H 6742   8.483   5.840   7.300 -0.1014  3.0429 -2.1168
  791MOL0     H 6743   8.352   5.635   7.286  2.7651 -1.1533  2.0061
  791MOL0     H 6744   8.218   5.720   7.376 -0.0904  2.2626 -2.2137
  791MOL0     H 6745   8.421   5.446   7.347  3.8390 -1.4822  2.1074
  791MOL0     H 6746   8.330   5.231   7.417  2.1493  1.3248 -2.0801
  791MOL0     H 6747   8.446   4.856   7.596 -0.2079  2.1356  0.2258
  791MOL0     H 6748   8.369   4.634   7.671  2.2607  0.0501 -2.5164
  791MOL0     H 6749   8.133   4.341   7.727  1.1716 -1.3738 -0.2384
  791MOL0     H 6750   8.279   4.420   7.677  0.4234 -0.2867  1.0053
  791MOL0     H 6751   8.262   4.380   7.937  1.2991  0.5937 -0.0190
  791MOL0     H 6752   8.297   4.544   7.879 -0.6328  0.0472  0.4131
  791MOL0     H 6753   8.169   4.541   8.059  1.3672  0.0341 -0.8579
  791MOL0     H 6754   8.068   4.615   7.932  0.2234  0.3450 -1.2721
  791MOL0     H 6755   7.937   4.464   8.080 -1.6486 -0.3644 -0.2708
  791MOL0     H 6756   8.015   4.328   8.012 -0.9287  0.5433  1.6418
  791MOL0     H 6757   7.920   4.394   7.788  0.2134 -2.2592  2.6125
  791MOL0     H 6758   7.870   4.560   7.855  0.5044  0.8299 -3.6441
  791MOL0     H 6759   7.763   4.296   7.955  0.9341  0.0309  0.0044
  791MOL0     H 6760   7.700   4.460   7.982 -3.8287  0.4011 -2.7677
  791MOL0     H 6761   7.693   4.369   7.703 -2.0645  0.5483 -0.6522
  791MOL0     H 6762   7.604   4.495   7.789 -1.1879  0.1393  0.0920
  791MOL0     H 6763   7.589   4.210   7.821  4.0631  1.4494  1.2034
  791MOL0     H 6764   7.474   4.313   7.917 -1.4027 -1.9520 -1.0479
  791MOL0     H 6765   7.958   4.737   7.607 -0.3366  0.0897 -0.5970
  791MOL0     H 6766   8.033   4.974   7.586 -0.3847 -0.7566 -0.9787
  791MOL0     H 6767   8.236   5.390   7.798  1.9396 -0.3276  0.4771
  791MOL0     H 6768   8.330   5.618   7.720 -1.4064 -1.5670  1.4224
  791MOL0     H 6769   9.184   6.638   7.183 -0.5194  2.3942 -2.5567
  791MOL0     H 6770   9.409   6.662   7.148 -2.8137  2.9318 -3.3723
  791MOL0     H 6771   9.827   6.331   6.976 -1.5954  0.9691 -0.0808
  791MOL0     H 6772  10.037   6.309   7.060 -2.8210 -0.1372 -2.8237
  791MOL0     H 6773  10.270   6.522   6.990 -0.5440 -0.7154 -1.0783
  791MOL0     H 6774  10.309   6.382   7.100  1.5027  0.4382  2.7383
  791MOL0     H 6775  10.354   6.669   7.182 -0.3936  0.0134 -0.4397
  791MOL0     H 6776  10.465   6.620   7.053  0.3560  2.3121 -0.7643
  791MOL0     H 6777  10.445   6.451   7.314  2.7638 -1.4759  0.9808
  791MOL0     H 6778  10.549   6.588   7.321 -0.9794 -2.0911  1.5847
  791MOL0     H 6779  10.578   6.355   7.125  3.0627 -1.7084  0.0472
  791MOL0     H 6780  10.653   6.509   7.101 -0.4286  0.9179  1.0279
  791MOL0     H 6781  10.889   6.290   7.377  1.9522  1.7170  0.4267
  791MOL0     H 6782  10.058   6.729   7.129  1.7167  0.1814 -2.0237
  791MOL0     H 6783   9.839   6.859   6.971  2.3080 -1.7251 -1.2956
  791MOL0     H 6784   9.704   6.782   7.062 -0.2092 -2.8255 -1.3276
  791MOL0     H 6785   9.854   6.847   7.146  3.0163 -2.6631 -0.9529
  792MOL0     O 6786   3.259   0.817   3.764 -0.6170  0.0567  0.0991
  792MOL0     C 6787   3.329   0.757   3.849 -0.3274  0.6960 -0.8330
  792MOL0     O 6788   3.418   0.813   3.941 -0.3274 -0.5840 -0.0851
  792MOL0     C 6789   3.423   0.954   3.961 -0.7777 -0.3794  0.4350
  792MOL0     C 6790   3.369   1.062   3.879  0.4406  0.1122 -0.7118
  792MOL0     C 6791   3.375   1.190   3.930  0.3696  1.2737 -0.3125
  792MOL0     C 6792   3.432   1.228   4.049 -0.2838 -0.1179  1.1639
  792MOL0     O 6793   3.427   1.361   4.086 -0.0977 -0.4118  0.0870
  792MOL0     C 6794   3.449   1.400   4.227 -0.2209  0.3133 -0.0019
  792MOL0     C 6795   3.341   1.370   4.321  0.6119  0.2115 -0.4916
  792MOL0     C 6796   3.201   1.407   4.271  0.6709  0.9927  0.0899
  792MOL0     C 6797   3.106   1.294   4.234  0.3740  0.2842  0.2857
  792MOL0     C 6798   2.962   1.346   4.197  0.5135 -1.4934 -0.3766
  792MOL0     C 6799   2.892   1.260   4.095  0.5085  0.0203 -0.2619
  792MOL0     C 6800   2.740   1.286   4.072 -0.0934  0.5798 -0.5149
  792MOL0     C 6801   2.697   1.397   3.982  0.0871 -0.3352  0.0855
  792MOL0     N 6802   2.703   1.530   4.042  0.3347 -0.8252  1.0023
  792MOL0     C 6803   2.780   1.633   3.999  0.2641 -0.2044 -0.0969
  792MOL0     C 6804   2.721   1.741   4.055 -0.0382 -0.2015  0.2658
  792MOL0     C 6805   2.798   1.867   4.052  0.5461  0.0595 -0.2574
  792MOL0     C 6806   2.813   1.924   4.191 -0.0878 -1.4368 -0.0798
  792MOL0     C 6807   2.884   1.829   4.292 -0.7700  1.0284 -0.4009
  792MOL0     C 6808   3.027   1.788   4.246 -0.0952  0.1019 -0.3428
  792MOL0     O 6809   3.100   1.905   4.247 -0.3562 -0.1009  0.1730
  792MOL0     C 6810   3.236   1.903   4.242 -0.3761  0.1726  0.9113
  792MOL0     C 6811   3.328   1.792   4.254 -0.4732  0.2373  0.3993
  792MOL0     C 6812   3.462   1.811   4.249  0.2422 -0.3305  0.7634
  792MOL0     C 6813   3.528   1.934   4.235 -0.7638 -0.4435 -0.1738
  792MOL0     C 6814   3.671   1.953   4.236  0.3450 -0.3536 -0.2991
  792MOL0     O 6815   3.716   2.077   4.210 -0.5056  0.0520  0.1585
  792MOL0     C 6816   3.847   2.098   4.213  0.1744  0.1279  0.2428
  792MOL0     C 6817   3.917   2.087   4.099 -0.0304 -0.5196 -0.0520
  792MOL0     C 6818   4.057   2.112   4.087 -0.9143  0.0803 -0.7701
  792MOL0     C 6819   4.133   2.137   4.205  0.8545  0.8511 -0.3789
  792MOL0     O 6820   4.269   2.138   4.207 -0.1473  0.0832 -0.6819
  792MOL0     C 6821   4.322   2.264   4.261  0.3183 -0.4290  0.5641
  792MOL0     C 6822   4.471   2.243   4.276 -0.3652 -0.0855 -0.2835
  792MOL0     C 6823   4.531   2.190   4.147 -0.2412  0.7829  0.3572
  792MOL0     C 6824   4.690   2.190   4.150  1.3258  0.0391 -0.0671
  792MOL0     C 6825   4.743   2.071   4.070  0.3587  0.0745 -0.0954
  792MOL0     C 6826   4.691   2.080   3.924  0.5019  0.8368  1.3901
  792MOL0     C 6827   4.698   1.950   3.841 -0.3664 -0.5140 -0.7289
  792MOL0     C 6828   4.627   1.966   3.704 -0.3997 -0.4436 -0.0055
  792MOL0    Cl 6829   4.452   2.009   3.724  0.4405  0.3877 -0.4942
  792MOL0     C 6830   4.051   2.139   4.327 -1.2899  0.0632 -0.3574
  792MOL0     C 6831   3.913   2.126   4.329  0.2167 -0.7150 -0.8300
  792MOL0     O 6832   3.748   1.856   4.266  0.4309 -0.9653 -0.0844
  792MOL0     C 6833   3.445   2.041   4.237 -0.2448 -0.7466  0.0661
  792MOL0     C 6834   3.302   2.026   4.225  0.3253  0.2967  0.1606
  792MOL0     N 6835   2.596   1.710   4.106 -0.6164  0.0354  0.4698
  792MOL0     N 6836   2.586   1.587   4.091  0.5448 -0.2315 -0.1534
  792MOL0     C 6837   3.487   1.123   4.134  1.1264  0.2528  1.0126
  792MOL0     C 6838   3.490   0.996   4.081 -0.2777  0.5952 -0.1128
  792MOL0     C 6839   3.312   0.610   3.840  0.0559 -0.3208 -0.3641
  792MOL0     C 6840   3.368   0.536   3.739  0.3628 -0.2718 -0.1491
  792MOL0     C 6841   3.350   0.406   3.735  0.2183  0.1459  0.4709
  792MOL0     C 6842   3.267   0.333   3.820 -0.1444 -0.6508  0.9760
  792MOL0     O 6843   3.260   0.198   3.800 -0.3874  0.0452 -0.1063
  792MOL0     C 6844   3.164   0.108   3.862 -0.6031  0.0728  1.3700
  792MOL0     C 6845   3.206   0.083   4.008  0.6317 -0.8174 -1.0002
  792MOL0     C 6846   3.351   0.042   4.027 -0.0158 -0.1502 -0.0481
  792MOL0     C 6847   3.453   0.139   4.082 -0.3851 -0.1497  0.4505
  792MOL0     C 6848   3.584   0.087   4.109 -0.0660  0.5866  1.3563
  792MOL0     C 6849   3.690   0.035   4.140 -0.1707  0.2199 -0.2007
  792MOL0     C 6850   3.203   0.401   3.921 -0.7007 -0.2908 -0.0353
  792MOL0     C 6851   3.233   0.537   3.934  0.1152 -0.0727 -1.0001
  792MOL0     C 6852   3.194   0.597   4.059  0.3918  0.6646  0.4018
  792MOL0     H 6853   3.312   1.045   3.788 -1.5770 -0.4194  0.6042
  792MOL0     H 6854   3.326   1.265   3.868 -2.6449  0.3998  0.8371
  792MOL0     H 6855   3.542   1.361   4.271 -0.8270 -1.9857 -0.6256
  792MOL0     H 6856   3.467   1.507   4.217  2.9036 -0.1942 -0.9961
  792MOL0     H 6857   3.357   1.425   4.414 -0.5469 -1.4615  0.7755
  792MOL0     H 6858   3.341   1.263   4.343 -0.1302  0.2584 -0.2280
  792MOL0     H 6859   3.205   1.473   4.184  1.2707 -0.0318 -0.6818
  792MOL0     H 6860   3.154   1.453   4.359  1.7709 -1.1122  1.8684
  792MOL0     H 6861   3.149   1.225   4.160  1.7009  2.9227 -1.5445
  792MOL0     H 6862   3.104   1.225   4.319  0.7667  0.4339  0.4176
  792MOL0     H 6863   2.907   1.355   4.291 -1.0837 -3.0472 -1.1017
  792MOL0     H 6864   2.971   1.449   4.160  0.0561 -0.8239  1.3038
  792MOL0     H 6865   2.948   1.271   4.002  1.0274  1.9681  0.2333
  792MOL0     H 6866   2.913   1.156   4.121 -0.0839 -0.1323 -0.3750
  792MOL0     H 6867   2.691   1.303   4.169 -0.2287  2.0143 -0.8106
  792MOL0     H 6868   2.698   1.194   4.032 -1.6831 -1.1746  4.4141
  792MOL0     H 6869   2.772   1.397   3.903 -0.6329  0.4027 -0.6064
  792MOL0     H 6870   2.598   1.383   3.938 -0.3646  0.1056  0.9304
  792MOL0     H 6871   2.878   1.635   3.954 -0.1630  1.9108 -1.0523
  792MOL0     H 6872   2.897   1.851   4.008  2.1500  3.5763  1.6591
  792MOL0     H 6873   2.742   1.936   3.987  1.2505  1.7510  0.8683
  792MOL0     H 6874   2.863   2.022   4.190 -0.1191 -1.3899  1.1444
  792MOL0     H 6875   2.712   1.932   4.231  0.3939  1.3978  0.7947
  792MOL0     H 6876   2.811   1.751   4.313 -0.9976  0.2345 -3.6380
  792MOL0     H 6877   2.886   1.879   4.390 -1.3408 -0.4254  0.3748
  792MOL0     H 6878   3.010   1.754   4.144 -1.7206 -0.3471  0.0444
  792MOL0     H 6879   3.067   1.705   4.305 -1.2084  0.2843  0.7050
  792MOL0     H 6880   3.283   1.695   4.273 -1.6785  0.2004 -2.2942
  792MOL0     H 6881   3.531   1.729   4.266  0.0143 -0.8535 -0.6645
  792MOL0     H 6882   3.874   2.046   4.008 -2.5377  1.1928  0.2961
  792MOL0     H 6883   4.113   2.107   3.993  1.4673  1.2285  0.4904
  792MOL0     H 6884   4.302   2.344   4.189 -1.1163 -3.4717 -2.7694
  792MOL0     H 6885   4.273   2.288   4.355 -1.9300  1.6266 -1.0140
  792MOL0     H 6886   4.519   2.338   4.302 -0.2409  0.0484 -0.9793
  792MOL0     H 6887   4.509   2.174   4.352  1.4999  0.1018 -0.9930
  792MOL0     H 6888   4.508   2.083   4.137 -1.3303  1.0995 -0.8093
  792MOL0     H 6889   4.490   2.257   4.072 -1.0621 -0.1898 -0.0898
  792MOL0     H 6890   4.716   2.169   4.254  0.0694 -1.4394 -0.0197
  792MOL0     H 6891   4.734   2.283   4.111  2.4258 -1.0871 -1.6636
  792MOL0     H 6892   4.722   1.977   4.122  1.1453  1.2586  2.5244
  792MOL0     H 6893   4.852   2.078   4.072  0.2927  1.1946  2.1067
  792MOL0     H 6894   4.586   2.109   3.919  0.5218  0.7068 -0.2838
  792MOL0     H 6895   4.752   2.155   3.873  0.7994 -1.0754 -1.2540
  792MOL0     H 6896   4.657   1.863   3.894  0.6897  0.9103  2.7649
  792MOL0     H 6897   4.802   1.919   3.823 -0.5104 -2.1017  0.9077
  792MOL0     H 6898   4.662   2.061   3.662 -4.2832  1.6911  1.0891
  792MOL0     H 6899   4.643   1.878   3.640 -1.9099 -2.2574  1.9714
  792MOL0     H 6900   4.107   2.156   4.418  1.4131 -4.2097 -0.9573
  792MOL0     H 6901   3.862   2.106   4.422 -1.2297 -1.0762 -1.6760
  792MOL0     H 6902   3.479   2.145   4.242  1.2353 -1.2659  2.2164
  792MOL0     H 6903   3.238   2.112   4.212  0.5844  0.6431  1.1075
  792MOL0     H 6904   3.522   1.151   4.232 -1.7297  2.9694  1.4283
  792MOL0     H 6905   3.529   0.918   4.146 -0.5075  0.7194  0.1770
  792MOL0     H 6906   3.440   0.588   3.678  1.0291  0.0835  0.9123
  792MOL0     H 6907   3.391   0.358   3.646  0.1012  0.1839  0.3961
  792MOL0     H 6908   3.158   0.014   3.807 -0.4344 -0.6805  2.5936
  792MOL0     H 6909   3.069   0.163   3.866  0.1929  1.6748 -0.3868
  792MOL0     H 6910   3.132   0.012   4.046 -2.1587  1.9116 -0.9819
  792MOL0     H 6911   3.179   0.173   4.063 -1.3913 -0.3863 -2.5671
  792MOL0     H 6912   3.389   0.006   3.931 -3.0222 -0.5425 -1.2310
  792MOL0     H 6913   3.343  -0.041   4.098  1.9362  0.5061  0.9861
  792MOL0     H 6914   3.460   0.225   4.015  0.6880 -1.2522 -0.9042
  792MOL0     H 6915   3.426   0.176   4.182  1.5267 -3.3993  2.3620
  792MOL0     H 6916   3.779  -0.010   4.179 -0.8039  0.6430  1.9121
  792MOL0     H 6917   3.129   0.352   3.984  1.0084 -0.3589  2.0550
  792MOL0     H 6918   3.091   0.569   4.086 -1.1434  0.6281 -4.4487
  792MOL0     H 6919   3.267   0.562   4.133  0.3554  0.1395  0.1920
  792MOL0     H 6920   3.195   0.706   4.058  1.7029  0.7813 -3.6836
  793MOL0     O 6921   8.997   2.098   9.128 -0.0275  0.6391  0.7038
  793MOL0     C 6922   9.106   2.042   9.148 -0.5624  0.6651 -0.8109
  793MOL0     O 6923   9.132   1.910   9.184 -0.0973  0.1501 -0.1214
  793MOL0     C 6924   9.020   1.835   9.227 -0.1344  0.4994 -0.4310
  793MOL0     C 6925   8.955   1.747   9.141  0.5830 -0.3111 -0.5372
  793MOL0     C 6926   8.845   1.666   9.181 -0.2889  0.2140  0.0073
  793MOL0     C 6927   8.799   1.679   9.316 -0.5361  0.1863 -0.2594
  793MOL0     O 6928   8.689   1.610   9.363  0.3724  0.3605 -0.4523
  793MOL0     C 6929   8.588   1.573   9.270  0.2986 -0.2788  0.1325
  793MOL0     C 6930   8.459   1.516   9.334 -0.0019  0.2371  0.5161
  793MOL0     C 6931   8.322   1.571   9.305 -0.1321  0.5390  0.5853
  793MOL0     C 6932   8.221   1.527   9.415  0.0933 -0.0416 -0.4074
  793MOL0     C 6933   8.077   1.598   9.408 -0.5446  0.0833 -0.1034
  793MOL0     C 6934   7.980   1.535   9.506 -0.0271  0.2133 -0.5354
  793MOL0     C 6935   7.852   1.627   9.525 -0.3870  0.0308  0.8261
  793MOL0     C 6936   7.749   1.638   9.403 -0.6730 -0.2621 -0.9161
  793MOL0     N 6937   7.680   1.504   9.404  1.2733 -0.2209  0.4210
  793MOL0     C 6938   7.545   1.488   9.428  0.1134 -0.1031 -0.1986
  793MOL0     C 6939   7.521   1.360   9.408  0.6511 -0.0555 -0.0457
  793MOL0     C 6940   7.388   1.290   9.395  0.7521  0.4834  0.2686
  793MOL0     C 6941   7.341   1.199   9.504  0.2610 -0.7776 -0.4494
  793MOL0     C 6942   7.192   1.164   9.496 -0.4588  0.0306  0.4230
  793MOL0     C 6943   7.094   1.281   9.481 -0.0413  0.0837 -0.7062
  793MOL0     O 6944   6.956   1.227   9.467  0.1447  0.1617 -0.5567
  793MOL0     C 6945   6.900   1.171   9.576  0.1260  0.6690  0.6893
  793MOL0     C 6946   6.937   1.188   9.708 -0.6685 -0.1541 -0.6588
  793MOL0     C 6947   6.866   1.112   9.807  0.6287  0.4099  0.3326
  793MOL0     C 6948   6.759   1.025   9.771 -0.5449 -0.1544  0.3645
  793MOL0     C 6949   6.703   0.931   9.877 -0.3040 -0.7971  0.4285
  793MOL0     O 6950   6.746   0.959  10.010 -0.6583 -0.1669  0.1761
  793MOL0     C 6951   6.709   0.870  10.110 -0.1605 -0.0830 -0.4977
  793MOL0     C 6952   6.584   0.898  10.164  0.8702 -0.7064 -0.2579
  793MOL0     C 6953   6.540   0.828  10.278  0.3172 -0.2973  0.1278
  793MOL0     C 6954   6.612   0.726  10.327  1.0806  0.2136 -0.1280
  793MOL0     O 6955   6.548   0.660  10.433  0.6582 -0.1869  0.2850
  793MOL0     C 6956   6.566   0.523  10.425 -0.0322 -0.3457  1.1176
  793MOL0     C 6957   6.443   0.472  10.495 -0.0768  0.0659  0.9296
  793MOL0     C 6958   6.414   0.520  10.634  0.1429 -0.5189 -0.3366
  793MOL0     C 6959   6.289   0.451  10.691  0.3997  0.1149  0.2534
  793MOL0     C 6960   6.224   0.539  10.803  0.4427  0.3569 -0.5192
  793MOL0     C 6961   6.125   0.473  10.893 -0.3783 -0.0969 -0.0069
  793MOL0     C 6962   5.981   0.457  10.841  1.4029  0.0442  0.3650
  793MOL0     C 6963   5.900   0.582  10.804 -0.4460 -0.2060 -0.0129
  793MOL0    Cl 6964   5.902   0.712  10.928 -0.6199 -0.5603  0.1330
  793MOL0     C 6965   6.742   0.704  10.275 -0.3628 -0.7193  0.4098
  793MOL0     C 6966   6.791   0.780  10.169 -0.5475 -0.4478  0.7735
  793MOL0     O 6967   6.627   0.836   9.841  0.6228  0.3435 -0.1081
  793MOL0     C 6968   6.716   1.021   9.632 -0.0980  0.4063 -0.3839
  793MOL0     C 6969   6.787   1.096   9.537 -0.1936 -0.5122 -0.3002
  793MOL0     N 6970   7.646   1.304   9.357  0.1527 -0.5201 -0.4332
  793MOL0     N 6971   7.737   1.385   9.355 -0.1960 -0.0745 -1.5198
  793MOL0     C 6972   8.865   1.765   9.401 -0.4654 -0.2815  0.0302
  793MOL0     C 6973   8.976   1.841   9.361 -0.7827 -0.3858  0.3154
  793MOL0     C 6974   9.230   2.127   9.112  0.6868 -0.1152 -0.6783
  793MOL0     C 6975   9.340   2.080   9.041  0.1183  0.3300 -0.5630
  793MOL0     C 6976   9.436   2.174   8.999 -0.3621  0.4175 -0.6008
  793MOL0     C 6977   9.447   2.301   9.044  0.1135  0.7042  0.2722
  793MOL0     O 6978   9.541   2.382   8.986 -0.0871 -0.3289 -0.1705
  793MOL0     C 6979   9.563   2.521   9.037  0.1294  0.0206  0.2836
  793MOL0     C 6980   9.706   2.555   9.029 -0.8291 -0.5420 -0.3716
  793MOL0     C 6981   9.748   2.695   9.084  0.5179  0.4097 -0.6472
  793MOL0     C 6982   9.695   2.805   9.000 -0.1784 -0.6004 -0.7109
  793MOL0     C 6983   9.719   2.933   9.069 -0.1195 -0.1361  0.4371
  793MOL0     C 6984   9.743   3.044   9.117  0.2512 -0.5973  0.9868
  793MOL0     C 6985   9.345   2.336   9.141  0.4206 -0.0607  0.3227
  793MOL0     C 6986   9.234   2.258   9.166  0.1373  0.6038  0.3338
  793MOL0     C 6987   9.146   2.315   9.271 -0.6077 -0.2692 -0.6665
  793MOL0     H 6988   8.986   1.733   9.038  0.6136 -0.2155 -0.5403
  793MOL0     H 6989   8.786   1.603   9.115 -1.0571  2.3345 -1.4340
  793MOL0     H 6990   8.562   1.663   9.214  1.3941 -0.4813 -0.7409
  793MOL0     H 6991   8.629   1.503   9.197 -2.2752 -2.5330  0.6681
  793MOL0     H 6992   8.472   1.519   9.442 -0.7450  0.9567  0.5885
  793MOL0     H 6993   8.460   1.409   9.312  0.6421  0.4819 -0.7572
  793MOL0     H 6994   8.290   1.528   9.210 -0.0944 -1.4568  1.4351
  793MOL0     H 6995   8.319   1.680   9.307 -3.1344  0.5828  3.8301
  793MOL0     H 6996   8.208   1.419   9.415  0.0551 -0.0427 -1.2656
  793MOL0     H 6997   8.261   1.562   9.511 -0.1881  0.3461 -0.4264
  793MOL0     H 6998   8.098   1.703   9.431  1.0331 -1.0682  5.1129
  793MOL0     H 6999   8.038   1.585   9.306  2.4517  1.0916 -1.5106
  793MOL0     H 7000   7.949   1.432   9.486  0.4765  0.0267 -0.3672
  793MOL0     H 7001   8.026   1.533   9.605 -2.2253 -2.8507  0.5886
  793MOL0     H 7002   7.898   1.725   9.538 -1.0429  0.5022 -0.2211
  793MOL0     H 7003   7.793   1.597   9.611 -3.8881  4.4617  0.3606
  793MOL0     H 7004   7.673   1.710   9.435 -1.2885 -2.8102  4.6130
  793MOL0     H 7005   7.790   1.665   9.305 -0.9286  0.1495 -0.9108
  793MOL0     H 7006   7.474   1.566   9.452 -1.9819 -2.0120  0.1567
  793MOL0     H 7007   7.313   1.368   9.378 -1.3487 -1.8081 -1.6372
  793MOL0     H 7008   7.386   1.223   9.308  2.5123 -3.4930  2.9989
  793MOL0     H 7009   7.397   1.105   9.497  0.1796 -0.8724  0.1544
  793MOL0     H 7010   7.354   1.250   9.600 -0.9256  2.1414 -1.7102
  793MOL0     H 7011   7.171   1.105   9.586  0.6210  0.8811  1.2645
  793MOL0     H 7012   7.172   1.102   9.409  0.1899 -0.2291  0.4473
  793MOL0     H 7013   7.109   1.324   9.382  1.3409  0.6387 -0.2716
  793MOL0     H 7014   7.115   1.353   9.561 -1.3211  3.4478 -3.1794
  793MOL0     H 7015   7.022   1.247   9.740 -0.3531  0.4186 -2.4307
  793MOL0     H 7016   6.896   1.121   9.911  0.1257  1.6609  0.3938
  793MOL0     H 7017   6.514   0.967  10.119 -0.2380 -0.1361  2.2343
  793MOL0     H 7018   6.442   0.847  10.320  0.3544  0.8508 -0.2487
  793MOL0     H 7019   6.548   0.490  10.322  0.7687  2.4187 -0.0285
  793MOL0     H 7020   6.665   0.491  10.459  2.7712  2.1565 -3.5973
  793MOL0     H 7021   6.354   0.492  10.434 -0.6793 -0.0861  1.7321
  793MOL0     H 7022   6.457   0.364  10.511 -0.3927  0.1796  2.0696
  793MOL0     H 7023   6.496   0.503  10.704  0.6673  1.6743 -0.3484
  793MOL0     H 7024   6.393   0.626  10.646 -0.0937 -0.5444 -0.4974
  793MOL0     H 7025   6.316   0.352  10.729 -1.2786 -0.8613 -0.9778
  793MOL0     H 7026   6.210   0.441  10.616  1.4931  0.5736 -1.0176
  793MOL0     H 7027   6.186   0.633  10.763 -1.8578  0.0499  0.7968
  793MOL0     H 7028   6.306   0.560  10.873  1.1432  1.4383 -1.6180
  793MOL0     H 7029   6.158   0.373  10.923 -0.9041  0.5477  3.1401
  793MOL0     H 7030   6.122   0.526  10.989  1.6730  1.3725 -0.6719
  793MOL0     H 7031   5.927   0.405  10.920  0.8753 -2.0268 -1.2684
  793MOL0     H 7032   5.982   0.391  10.754 -0.3750  0.1615  0.2158
  793MOL0     H 7033   5.945   0.615  10.710  1.0784 -0.5040  0.5756
  793MOL0     H 7034   5.795   0.565  10.782 -0.6483 -0.4910  1.0800
  793MOL0     H 7035   6.806   0.625  10.313 -0.1719 -0.7669 -0.0059
  793MOL0     H 7036   6.883   0.756  10.117 -0.2177  0.2970  0.9927
  793MOL0     H 7037   6.632   0.963   9.596  0.4503  0.2269 -1.4259
  793MOL0     H 7038   6.761   1.113   9.433 -0.7572  2.2321  0.2185
  793MOL0     H 7039   8.849   1.764   9.509  2.4603 -0.8275  0.5456
  793MOL0     H 7040   9.020   1.907   9.436  1.5807  2.8467 -3.4832
  793MOL0     H 7041   9.346   1.976   9.012  1.4317 -0.7117  2.8893
  793MOL0     H 7042   9.514   2.144   8.930 -0.6480  1.6030 -1.4761
  793MOL0     H 7043   9.534   2.531   9.142  1.0714 -2.1653  0.8184
  793MOL0     H 7044   9.509   2.593   8.975 -0.2682 -1.4826 -1.1972
  793MOL0     H 7045   9.735   2.558   8.924  2.6274  0.7543  0.4708
  793MOL0     H 7046   9.766   2.480   9.082 -1.8481 -1.1884 -0.1074
  793MOL0     H 7047   9.856   2.710   9.092  0.8180 -1.3910 -0.7922
  793MOL0     H 7048   9.699   2.692   9.181  0.0676  0.8847 -0.8552
  793MOL0     H 7049   9.746   2.809   8.903  1.0736 -0.1782 -0.0579
  793MOL0     H 7050   9.587   2.794   8.987 -0.5374  1.2073  0.3864
  793MOL0     H 7051   9.765   3.144   9.149 -0.3054 -0.7192  1.8048
  793MOL0     H 7052   9.352   2.439   9.175  0.5380  0.8090 -2.1377
  793MOL0     H 7053   9.184   2.416   9.293  0.0097 -0.0044 -2.7085
  793MOL0     H 7054   9.046   2.316   9.227 -0.7336 -0.0323 -0.3807
  793MOL0     H 7055   9.143   2.242   9.351 -0.1655  0.6548  0.2224
  794MOL0     O 7056   4.625   5.655   0.007 -0.1214  0.4068  0.2523
  794MOL0     C 7057   4.647   5.769   0.059  0.1081  0.2709  0.3656
  794MOL0     O 7058   4.768   5.817   0.105 -0.4006 -0.4555  0.4133
  794MOL0     C 7059   4.880   5.745   0.066  0.6806 -0.4143 -0.4410
  794MOL0     C 7060   4.905   5.691  -0.062 -0.1802  0.8007 -0.9203
  794MOL0     C 7061   5.024   5.628  -0.095 -0.0898 -0.0170 -0.5229
  794MOL0     C 7062   5.130   5.624  -0.013 -0.5496  0.1523 -0.8824
  794MOL0     O 7063   5.249   5.552  -0.049 -0.2522  0.7253  0.2241
  794MOL0     C 7064   5.374   5.550   0.024 -0.0807 -0.7988 -0.2855
  794MOL0     C 7065   5.483   5.458  -0.027  0.5916 -0.5322 -0.5562
  794MOL0     C 7066   5.432   5.318  -0.041 -0.5687  0.4675  0.1901
  794MOL0     C 7067   5.358   5.252   0.075  0.4917  0.2967 -0.9550
  794MOL0     C 7068   5.437   5.265   0.208  0.7348  0.4611  0.3490
  794MOL0     C 7069   5.586   5.207   0.198  0.0141 -0.3753  0.8243
  794MOL0     C 7070   5.669   5.222   0.328 -0.0711  0.6228 -0.3867
  794MOL0     C 7071   5.817   5.198   0.281  0.0228 -0.0532  0.3266
  794MOL0     N 7072   5.910   5.233   0.392  0.1581 -0.1445  0.1430
  794MOL0     C 7073   6.010   5.151   0.454  0.9138  0.7051 -0.6212
  794MOL0     C 7074   6.093   5.224   0.522 -0.0208 -0.4272  0.0750
  794MOL0     C 7075   6.205   5.191   0.615  0.1647 -0.8461 -0.8284
  794MOL0     C 7076   6.206   5.289   0.730  0.1744 -0.4780  0.0888
  794MOL0     C 7077   6.315   5.250   0.837  0.8846 -1.0005 -0.1570
  794MOL0     C 7078   6.306   5.335   0.958  1.1328 -0.3111  0.8216
  794MOL0     O 7079   6.377   5.456   0.934 -0.3151 -0.8204 -0.1955
  794MOL0     C 7080   6.384   5.541   1.040  0.1426 -0.7615 -0.1535
  794MOL0     C 7081   6.294   5.538   1.151  0.1297 -0.2677  0.7251
  794MOL0     C 7082   6.292   5.645   1.254 -0.7119 -0.2625  0.3332
  794MOL0     C 7083   6.362   5.768   1.229 -0.9179  0.6115  0.4265
  794MOL0     C 7084   6.340   5.889   1.313 -0.2663  0.3863  0.4012
  794MOL0     O 7085   6.233   5.893   1.401  0.2937  0.1138  0.2249
  794MOL0     C 7086   6.219   5.984   1.494  0.5710 -0.2577  0.2625
  794MOL0     C 7087   6.166   5.944   1.622  0.6121 -0.4348  0.0898
  794MOL0     C 7088   6.140   6.044   1.716  0.1130 -0.6950  0.5414
  794MOL0     C 7089   6.135   6.184   1.687  0.3268  0.9500  0.2344
  794MOL0     O 7090   6.125   6.285   1.778 -0.0857  0.4186  0.0807
  794MOL0     C 7091   6.212   6.294   1.889  0.3677  0.0223  0.2435
  794MOL0     C 7092   6.221   6.433   1.952  0.7924 -0.6921  0.1838
  794MOL0     C 7093   6.270   6.532   1.845 -0.1327  0.0409  0.0056
  794MOL0     C 7094   6.287   6.675   1.906 -0.2468  0.1079 -0.1204
  794MOL0     C 7095   6.349   6.764   1.799  0.1792 -0.1839  0.4767
  794MOL0     C 7096   6.314   6.911   1.837 -0.7112 -0.2821  1.0055
  794MOL0     C 7097   6.168   6.947   1.796  1.1841  0.2895  0.3311
  794MOL0     C 7098   6.098   7.045   1.888 -1.0320  0.1504 -0.1194
  794MOL0    Cl 7099   5.917   7.018   1.864 -0.0174  0.3948  0.0409
  794MOL0     C 7100   6.168   6.223   1.552 -0.0843 -0.1489 -1.0928
  794MOL0     C 7101   6.219   6.119   1.465  1.1075 -0.9979 -0.4037
  794MOL0     O 7102   6.399   5.984   1.275  0.1273 -0.1727  0.3339
  794MOL0     C 7103   6.463   5.756   1.116 -0.5361  0.0421 -0.2161
  794MOL0     C 7104   6.479   5.646   1.036 -0.0429 -0.4658 -0.0825
  794MOL0     N 7105   6.052   5.357   0.491 -0.0907  0.2427 -0.2054
  794MOL0     N 7106   5.948   5.364   0.422 -0.4812 -0.0072  0.0791
  794MOL0     C 7107   5.115   5.685   0.112  0.2461 -0.2147 -0.4833
  794MOL0     C 7108   4.994   5.752   0.151  0.9728 -0.2342  0.5585
  794MOL0     C 7109   4.527   5.845   0.086  1.1290 -0.4091  0.2363
  794MOL0     C 7110   4.404   5.777   0.090 -0.2244  1.0212  0.2690
  794MOL0     C 7111   4.283   5.842   0.112 -0.3341 -1.3178  1.1519
  794MOL0     C 7112   4.289   5.978   0.143 -0.1629  0.4420  0.0431
  794MOL0     O 7113   4.169   6.037   0.174  0.5096  0.5026  0.0773
  794MOL0     C 7114   4.137   6.017   0.308 -0.3818  0.5402 -0.2918
  794MOL0     C 7115   3.991   6.046   0.352 -0.3116  1.3446 -0.6796
  794MOL0     C 7116   3.882   5.960   0.283  0.4439  0.6042  0.0902
  794MOL0     C 7117   3.836   5.990   0.137 -0.0809  0.2757 -0.3724
  794MOL0     C 7118   3.824   6.132   0.110 -0.2234 -0.1485  0.1569
  794MOL0     C 7119   3.793   6.239   0.073 -1.1168 -0.6962  0.0835
  794MOL0     C 7120   4.407   6.050   0.150 -0.5128  1.7360 -0.1513
  794MOL0     C 7121   4.533   5.988   0.113 -0.6404 -0.1702  0.0472
  794MOL0     C 7122   4.659   6.072   0.109  0.3574  0.2990  0.0062
  794MOL0     H 7123   4.832   5.692  -0.142 -2.0056  3.5603  0.6225
  794MOL0     H 7124   5.035   5.585  -0.194  1.7102  0.7888 -0.7166
  794MOL0     H 7125   5.411   5.653   0.031 -0.7496 -0.6580  1.9458
  794MOL0     H 7126   5.345   5.533   0.128  0.6115  0.7964  0.2044
  794MOL0     H 7127   5.564   5.471   0.045 -1.0650  1.4012  1.0716
  794MOL0     H 7128   5.516   5.491  -0.126  1.2136  0.0425 -0.1733
  794MOL0     H 7129   5.510   5.246  -0.067 -1.4462 -0.1388 -0.8903
  794MOL0     H 7130   5.373   5.324  -0.134 -0.8287  0.2672  0.3388
  794MOL0     H 7131   5.257   5.289   0.094 -0.5535 -2.0006 -1.6859
  794MOL0     H 7132   5.348   5.145   0.052  1.3939 -0.1335  0.5462
  794MOL0     H 7133   5.439   5.370   0.239  2.3910  0.2298  1.1269
  794MOL0     H 7134   5.383   5.205   0.281  1.4488 -0.5527  0.0687
  794MOL0     H 7135   5.582   5.099   0.185  0.2844 -0.5754  2.2948
  794MOL0     H 7136   5.641   5.246   0.111  0.1165 -0.9930  0.6087
  794MOL0     H 7137   5.629   5.151   0.401 -1.2795 -0.0890 -1.6711
  794MOL0     H 7138   5.668   5.323   0.369 -0.1114 -0.3415  2.1099
  794MOL0     H 7139   5.822   5.092   0.253  1.3510  0.4585 -1.5519
  794MOL0     H 7140   5.833   5.258   0.191 -2.8832  1.6872  0.8279
  794MOL0     H 7141   6.022   5.044   0.444  1.0611  0.9337 -4.7926
  794MOL0     H 7142   6.182   5.094   0.658 -0.2576 -0.6828 -0.6803
  794MOL0     H 7143   6.304   5.203   0.569 -0.3137  3.6515 -1.2069
  794MOL0     H 7144   6.234   5.389   0.696 -0.5632 -0.3759 -0.2163
  794MOL0     H 7145   6.107   5.303   0.774  0.5051 -0.9296  1.0102
  794MOL0     H 7146   6.417   5.249   0.795  1.0470 -0.8385  0.2315
  794MOL0     H 7147   6.285   5.148   0.864 -2.5789 -0.0754 -0.0583
  794MOL0     H 7148   6.331   5.278   1.048  2.7348  1.6822  1.7094
  794MOL0     H 7149   6.202   5.363   0.979  0.9376  0.6109 -1.1794
  794MOL0     H 7150   6.223   5.456   1.153 -2.0075  1.4966  1.1579
  794MOL0     H 7151   6.223   5.632   1.337 -0.9610  3.3871  0.8593
  794MOL0     H 7152   6.151   5.838   1.636  3.5820 -1.4504 -3.0856
  794MOL0     H 7153   6.126   6.011   1.819  1.6861 -0.1919  0.9573
  794MOL0     H 7154   6.176   6.223   1.965 -4.2674  3.1608  1.3502
  794MOL0     H 7155   6.308   6.251   1.856 -0.1801  0.1391 -1.6301
  794MOL0     H 7156   6.119   6.461   1.980  0.3484 -0.3705 -1.6614
  794MOL0     H 7157   6.290   6.434   2.037  1.6076 -0.3511 -0.4730
  794MOL0     H 7158   6.364   6.500   1.798  1.2950  4.9627 -1.0497
  794MOL0     H 7159   6.196   6.534   1.764  0.9499 -0.8733 -1.0535
  794MOL0     H 7160   6.360   6.672   1.987  0.4307 -2.3519 -0.7442
  794MOL0     H 7161   6.187   6.702   1.943 -0.3438  4.4346 -2.7938
  794MOL0     H 7162   6.302   6.738   1.704  0.0423  0.4515  0.3594
  794MOL0     H 7163   6.457   6.748   1.799  0.2542  0.2514 -0.6318
  794MOL0     H 7164   6.349   6.928   1.939 -0.0076 -0.6052  0.8235
  794MOL0     H 7165   6.376   6.975   1.774  0.9716 -3.0836 -0.4054
  794MOL0     H 7166   6.105   6.857   1.802  2.5579 -0.7755 -0.7465
  794MOL0     H 7167   6.165   6.987   1.695  0.6776  0.7081  0.5052
  794MOL0     H 7168   6.122   7.029   1.993  1.2016  1.5425 -0.3568
  794MOL0     H 7169   6.128   7.145   1.856 -0.5794 -0.9787 -3.7453
  794MOL0     H 7170   6.177   6.325   1.515 -1.7489  0.3995 -0.0472
  794MOL0     H 7171   6.242   6.158   1.366  2.3509  2.6362  1.1535
  794MOL0     H 7172   6.541   5.832   1.110  2.5051 -2.7249  1.3019
  794MOL0     H 7173   6.557   5.650   0.961  2.2094  2.3575  2.1734
  794MOL0     H 7174   5.195   5.694   0.185 -0.3406 -3.3502  0.6930
  794MOL0     H 7175   4.982   5.817   0.237 -4.5576  0.0420 -0.0104
  794MOL0     H 7176   4.391   5.671   0.076  1.6350  0.8829 -0.6322
  794MOL0     H 7177   4.187   5.792   0.106 -0.7221 -0.6888  1.9278
  794MOL0     H 7178   4.213   6.073   0.363  1.8126 -3.4948  1.2596
  794MOL0     H 7179   4.174   5.917   0.335  1.6908  0.7757 -2.0031
  794MOL0     H 7180   3.962   6.150   0.336  0.9172  2.3237  2.6726
  794MOL0     H 7181   3.975   6.030   0.459  0.4784  6.2176  0.3992
  794MOL0     H 7182   3.788   5.960   0.339  0.2311  1.9395 -0.2453
  794MOL0     H 7183   3.914   5.855   0.289  0.3709  0.6211  0.8640
  794MOL0     H 7184   3.906   5.952   0.061 -0.6670 -1.3916 -0.1341
  794MOL0     H 7185   3.742   5.936   0.128 -0.4657  0.6302  1.2310
  794MOL0     H 7186   3.774   6.333   0.026 -0.5911 -0.8982 -0.5479
  794MOL0     H 7187   4.406   6.151   0.189 -1.1439  0.5248  3.3150
  794MOL0     H 7188   4.730   6.039   0.185 -0.2550 -2.1509 -0.3818
  794MOL0     H 7189   4.693   6.068   0.005 -0.4628  0.1103 -0.2631
  794MOL0     H 7190   4.637   6.178   0.118  1.8366  0.9276 -2.7110
  795MOL0     O 7191   4.969   5.798   0.548  0.2173 -0.4069 -0.3151
  795MOL0     C 7192   4.927   5.811   0.668  0.5863 -0.6014  0.2620
  795MOL0     O 7193   4.998   5.862   0.772  0.3063 -0.2389 -0.4033
  795MOL0     C 7194   5.125   5.919   0.753 -0.7197  0.2704 -0.7196
  795MOL0     C 7195   5.170   6.017   0.657  0.3680  0.6230 -0.1828
  795MOL0     C 7196   5.291   6.085   0.663 -0.2521 -1.0744 -0.0819
  795MOL0     C 7197   5.386   6.039   0.763 -0.2706 -0.1654  0.2930
  795MOL0     O 7198   5.514   6.084   0.793 -0.1876 -0.9204  0.7304
  795MOL0     C 7199   5.555   6.202   0.720  0.3509 -0.6442  0.4595
  795MOL0     C 7200   5.579   6.162   0.573 -0.3759 -0.3860  0.5060
  795MOL0     C 7201   5.721   6.117   0.553  0.0608  0.1592  1.0525
  795MOL0     C 7202   5.770   5.998   0.641  0.3341 -0.7363 -0.2760
  795MOL0     C 7203   5.690   5.871   0.620 -0.0328  0.3247  0.8126
  795MOL0     C 7204   5.713   5.754   0.707  0.4643 -0.1123 -0.5950
  795MOL0     C 7205   5.676   5.624   0.646  0.0830  0.5244  0.2957
  795MOL0     C 7206   5.742   5.502   0.716  1.1200  0.2921  0.1603
  795MOL0     N 7207   5.683   5.459   0.849 -0.5898 -0.2032  0.0031
  795MOL0     C 7208   5.679   5.536   0.963  0.5170 -0.5888 -0.3032
  795MOL0     C 7209   5.584   5.475   1.043 -0.3958  0.4946 -0.1640
  795MOL0     C 7210   5.547   5.507   1.181  0.0795  0.7494  0.1116
  795MOL0     C 7211   5.475   5.647   1.181  0.0107 -0.0340 -0.9228
  795MOL0     C 7212   5.434   5.701   1.323  1.2018 -0.1651  0.1911
  795MOL0     C 7213   5.281   5.693   1.349 -1.1276  0.8315 -0.3610
  795MOL0     O 7214   5.209   5.753   1.241  0.0179  0.5038  0.0241
  795MOL0     C 7215   5.075   5.766   1.258  0.4284  0.8062 -0.1335
  795MOL0     C 7216   5.014   5.851   1.161  0.2422 -0.6990 -0.0865
  795MOL0     C 7217   4.881   5.868   1.173  0.0530 -0.6548  0.1601
  795MOL0     C 7218   4.794   5.807   1.262  0.4606 -0.6582  0.5472
  795MOL0     C 7219   4.646   5.820   1.265  0.8754  0.4953 -0.7982
  795MOL0     O 7220   4.581   5.746   1.360 -0.0096 -0.3856 -0.0630
  795MOL0     C 7221   4.447   5.788   1.377 -1.2016  0.1189  0.4700
  795MOL0     C 7222   4.425   5.906   1.446 -0.6486  0.0156 -0.8727
  795MOL0     C 7223   4.302   5.935   1.485  0.4309 -0.7968  0.1935
  795MOL0     C 7224   4.190   5.858   1.454  0.2979  0.8954 -0.3479
  795MOL0     O 7225   4.059   5.886   1.488  0.1077  0.0770 -0.5449
  795MOL0     C 7226   3.951   5.890   1.391 -0.3956  0.3376 -0.6126
  795MOL0     C 7227   3.858   5.994   1.439  1.2863  0.0882  0.1353
  795MOL0     C 7228   3.913   6.130   1.411  0.3677  0.3276 -0.1303
  795MOL0     C 7229   3.829   6.242   1.467 -0.3960 -0.3239  0.1528
  795MOL0     C 7230   3.903   6.378   1.443 -0.7835  0.2128  0.4012
  795MOL0     C 7231   3.802   6.481   1.491  0.0878 -1.2824 -0.9372
  795MOL0     C 7232   3.861   6.628   1.461  0.2606 -0.7439  0.2081
  795MOL0     C 7233   3.844   6.724   1.581  0.2829 -0.5652 -0.5847
  795MOL0    Cl 7234   3.918   6.875   1.529  0.6799 -0.0570 -0.2258
  795MOL0     C 7235   4.209   5.742   1.375  0.3636  0.0100 -1.0154
  795MOL0     C 7236   4.333   5.704   1.341 -1.4090 -0.0995 -0.3613
  795MOL0     O 7237   4.590   5.875   1.174 -0.6635 -0.6426  0.6349
  795MOL0     C 7238   4.850   5.721   1.356  0.5394 -0.4551  0.4021
  795MOL0     C 7239   4.994   5.700   1.349 -0.2316 -0.1694 -1.2284
  795MOL0     N 7240   5.561   5.357   0.987  0.2908  0.4699 -0.0885
  795MOL0     N 7241   5.606   5.347   0.866 -0.3073  0.6837  0.1253
  795MOL0     C 7242   5.344   5.940   0.849  0.0108 -0.3109  0.8317
  795MOL0     C 7243   5.223   5.885   0.840  0.7407  0.1179  0.2145
  795MOL0     C 7244   4.792   5.763   0.695 -0.4813  0.8170  0.2576
  795MOL0     C 7245   4.765   5.735   0.835  0.1896 -0.6505  0.2659
  795MOL0     C 7246   4.638   5.710   0.877  1.0177  0.2580  0.2826
  795MOL0     C 7247   4.533   5.695   0.788 -0.3342  0.3973  0.0045
  795MOL0     O 7248   4.408   5.663   0.835 -0.2629  0.7476 -0.6714
  795MOL0     C 7249   4.399   5.579   0.955  0.5407  0.4645 -0.8277
  795MOL0     C 7250   4.270   5.480   0.941 -0.3525  1.2130 -0.7509
  795MOL0     C 7251   4.257   5.369   1.053 -0.1260 -0.6612  0.5947
  795MOL0     C 7252   4.132   5.272   1.042  0.5874 -0.4587  0.2583
  795MOL0     C 7253   4.145   5.183   0.929  0.0865  0.0207 -0.3501
  795MOL0     C 7254   4.139   5.112   0.833  0.8622 -0.3062 -0.1807
  795MOL0     C 7255   4.557   5.699   0.653  0.1369  0.4929 -0.1720
  795MOL0     C 7256   4.688   5.725   0.606  0.1946  0.1829  0.0881
  795MOL0     C 7257   4.709   5.708   0.455  0.2915  0.4923 -0.1173
  795MOL0     H 7258   5.094   6.056   0.591  0.2812  2.1921  0.7918
  795MOL0     H 7259   5.319   6.177   0.613 -2.7500  0.4617  1.1576
  795MOL0     H 7260   5.473   6.273   0.730 -0.6044 -1.7369  0.5146
  795MOL0     H 7261   5.649   6.238   0.763  0.1138 -2.0343  2.2734
  795MOL0     H 7262   5.570   6.245   0.503  3.2270  1.7099  2.2035
  795MOL0     H 7263   5.512   6.081   0.544 -1.0842  0.2831  0.2468
  795MOL0     H 7264   5.783   6.203   0.580 -2.6430  2.0286  1.7623
  795MOL0     H 7265   5.740   6.081   0.451 -1.0895 -2.2911  1.6244
  795MOL0     H 7266   5.876   5.986   0.618  0.4978  1.4386 -0.8648
  795MOL0     H 7267   5.767   6.040   0.742  1.2193  1.7812 -1.2415
  795MOL0     H 7268   5.584   5.893   0.630 -0.0454 -0.3330  2.4497
  795MOL0     H 7269   5.708   5.833   0.519 -2.9809 -1.1040  0.7117
  795MOL0     H 7270   5.822   5.761   0.721  0.4337 -1.5387  0.5777
  795MOL0     H 7271   5.673   5.770   0.808 -1.1286  1.4716 -1.4317
  795MOL0     H 7272   5.700   5.626   0.539  0.7147 -1.2418  0.3753
  795MOL0     H 7273   5.568   5.614   0.660  0.3017  1.0362  2.7542
  795MOL0     H 7274   5.718   5.421   0.646 -0.9155  1.5956 -0.7143
  795MOL0     H 7275   5.851   5.511   0.728  0.9302  2.8383  0.4693
  795MOL0     H 7276   5.734   5.625   0.991  0.7308  0.0422 -2.5499
  795MOL0     H 7277   5.481   5.427   1.214  1.8197 -0.3954  0.9624
  795MOL0     H 7278   5.644   5.511   1.232  0.0592  1.3525  0.1158
  795MOL0     H 7279   5.550   5.717   1.141  1.8954 -0.3313  1.8155
  795MOL0     H 7280   5.388   5.651   1.115 -1.3402  1.4996  0.8538
  795MOL0     H 7281   5.482   5.796   1.345 -1.0857  0.3909  3.4897
  795MOL0     H 7282   5.463   5.630   1.401 -1.8302 -2.6064 -0.6763
  795MOL0     H 7283   5.262   5.749   1.441 -1.9687  2.1008 -1.2732
  795MOL0     H 7284   5.245   5.591   1.361  4.1415 -1.2723  0.4959
  795MOL0     H 7285   5.073   5.902   1.085  0.2790 -0.4912  0.0798
  795MOL0     H 7286   4.847   5.931   1.091 -1.8977 -1.8219  0.0141
  795MOL0     H 7287   4.499   5.984   1.464 -1.1227  0.2510  0.1583
  795MOL0     H 7288   4.296   6.032   1.534  1.5436 -1.5339  1.8822
  795MOL0     H 7289   3.984   5.918   1.291  1.1758  1.2485  0.1305
  795MOL0     H 7290   3.899   5.794   1.393  1.9253 -1.0246  2.1759
  795MOL0     H 7291   3.776   5.980   1.367  2.5250  0.5849 -1.4326
  795MOL0     H 7292   3.833   5.986   1.545  2.0849  0.1961  0.3383
  795MOL0     H 7293   4.015   6.127   1.448  0.1216  1.3409  0.6658
  795MOL0     H 7294   3.913   6.137   1.302 -1.5369 -0.3812 -0.2298
  795MOL0     H 7295   3.810   6.226   1.574  0.2238 -1.1736  0.1506
  795MOL0     H 7296   3.737   6.250   1.409 -0.1095  0.0002 -0.2572
  795MOL0     H 7297   3.924   6.393   1.337  0.1046 -4.2293 -0.2734
  795MOL0     H 7298   3.990   6.384   1.509 -0.2691 -1.4948 -0.0599
  795MOL0     H 7299   3.705   6.469   1.441 -1.1084 -3.2266  1.5923
  795MOL0     H 7300   3.784   6.479   1.599  1.3479 -0.3809 -0.6896
  795MOL0     H 7301   3.809   6.676   1.378  4.0054  1.4615 -1.0905
  795MOL0     H 7302   3.968   6.617   1.442  0.4442  1.1140  0.0717
  795MOL0     H 7303   3.737   6.738   1.595 -0.0323 -3.7626  1.1344
  795MOL0     H 7304   3.889   6.690   1.675  1.2075 -1.5296 -1.3473
  795MOL0     H 7305   4.127   5.677   1.345 -0.0085 -0.0330  0.0667
  795MOL0     H 7306   4.351   5.606   1.297  1.6471  0.7989 -1.3577
  795MOL0     H 7307   4.804   5.663   1.435  1.8614 -2.0145  0.1004
  795MOL0     H 7308   5.036   5.643   1.432 -0.2248  1.8198  0.2127
  795MOL0     H 7309   5.416   5.909   0.925 -0.7548  0.2117  1.7995
  795MOL0     H 7310   5.214   5.810   0.918  0.2793  1.1752  1.2061
  795MOL0     H 7311   4.834   5.755   0.916  0.7723  2.1947 -0.8328
  795MOL0     H 7312   4.614   5.692   0.981  0.1890 -1.4989 -0.1806
  795MOL0     H 7313   4.398   5.644   1.043  0.8014 -4.1463  3.0266
  795MOL0     H 7314   4.488   5.518   0.976  0.8024  1.5425  1.5161
  795MOL0     H 7315   4.276   5.428   0.845 -1.1158  2.9663 -1.8017
  795MOL0     H 7316   4.180   5.539   0.958  0.6754  1.8601  3.5249
  795MOL0     H 7317   4.250   5.410   1.154  4.5205  2.1416  0.0832
  795MOL0     H 7318   4.344   5.303   1.045  0.9851  0.9439 -1.5323
  795MOL0     H 7319   4.116   5.208   1.129 -1.9811 -5.1879 -3.2209
  795MOL0     H 7320   4.041   5.330   1.029  0.4112 -0.6576  0.5948
  795MOL0     H 7321   4.116   5.048   0.751  0.2307 -1.3741  0.7950
  795MOL0     H 7322   4.473   5.686   0.586  0.3235 -0.6698 -0.1953
  795MOL0     H 7323   4.626   5.649   0.416  1.4279 -0.4599 -1.1761
  795MOL0     H 7324   4.719   5.806   0.408 -2.0941 -0.4457 -2.9013
  795MOL0     H 7325   4.796   5.644   0.436  0.4586  0.8662 -0.6223
  796MOL0     O 7326   0.473  11.224   1.256 -0.1031 -0.0538  0.0078
  796MOL0     C 7327   0.365  11.207   1.313  0.0501 -0.1774  0.5165
  796MOL0     O 7328   0.275  11.299   1.350 -0.4914  0.1509  0.2825
  796MOL0     C 7329   0.309  11.436   1.337 -0.5054 -0.5876 -0.8273
  796MOL0     C 7330   0.188  11.516   1.336 -0.2192  0.0153 -0.6288
  796MOL0     C 7331   0.189  11.650   1.307  0.1118 -0.4779 -0.8272
  796MOL0     C 7332   0.308  11.713   1.288 -0.5400 -0.3840 -0.7304
  796MOL0     O 7333   0.321  11.841   1.240 -0.5147  0.1054  0.1918
  796MOL0     C 7334   0.272  11.855   1.109  0.1705 -0.3317  0.4300
  796MOL0     C 7335   0.278  12.008   1.071 -0.1538  0.6371  0.5581
  796MOL0     C 7336   0.263  12.013   0.915 -0.8531  0.3671  0.9038
  796MOL0     C 7337   0.388  11.987   0.827  0.3928 -0.0795 -0.5023
  796MOL0     C 7338   0.374  12.051   0.688 -0.0145  1.1291 -0.1936
  796MOL0     C 7339   0.473  12.004   0.584  0.5254 -0.2272  0.0907
  796MOL0     C 7340   0.455  12.075   0.447  1.2445 -0.4159 -0.7038
  796MOL0     C 7341   0.302  12.058   0.403 -0.0309 -0.7230  0.0036
  796MOL0     N 7342   0.268  12.135   0.281  0.9800  0.0182 -0.1510
  796MOL0     C 7343   0.307  12.091   0.152  0.1202  0.0441  0.1648
  796MOL0     C 7344   0.199  12.114   0.071 -0.3845 -0.2438  0.3123
  796MOL0     C 7345   0.196  12.069  -0.066  0.6775  0.0961  1.1262
  796MOL0     C 7346   0.201  11.919  -0.074 -0.1828 -0.3134  0.1027
  796MOL0     C 7347   0.073  11.855  -0.015  0.7833 -1.0897  0.4286
  796MOL0     C 7348  -0.065  11.910  -0.056  0.1026  0.1270  0.2110
  796MOL0     O 7349  -0.095  11.886  -0.191 -0.5413 -0.0446 -0.4421
  796MOL0     C 7350  -0.131  11.984  -0.274 -0.1134 -0.4750 -0.0446
  796MOL0     C 7351  -0.112  11.966  -0.403  0.3797 -0.6141  0.5051
  796MOL0     C 7352  -0.146  12.066  -0.497 -0.2062  0.6892 -0.6472
  796MOL0     C 7353  -0.197  12.185  -0.466 -0.7603 -0.0173 -0.1446
  796MOL0     C 7354  -0.228  12.293  -0.568 -0.2420  0.6069 -0.8877
  796MOL0     O 7355  -0.260  12.411  -0.510 -0.6158 -0.1092  0.4315
  796MOL0     C 7356  -0.270  12.528  -0.587 -0.2621  0.1184 -1.5126
  796MOL0     C 7357  -0.361  12.535  -0.700  1.4518  0.1346 -1.1412
  796MOL0     C 7358  -0.388  12.664  -0.746 -0.6234 -0.4849  0.5868
  796MOL0     C 7359  -0.321  12.782  -0.689  0.5793  0.9851 -0.4659
  796MOL0     O 7360  -0.345  12.910  -0.738  0.1324  0.3851  0.5362
  796MOL0     C 7361  -0.476  12.944  -0.805 -0.0395 -0.0372  0.1565
  796MOL0     C 7362  -0.471  13.091  -0.854 -0.2215  0.4145  0.8601
  796MOL0     C 7363  -0.502  13.175  -0.735 -0.0831 -0.0116 -0.7152
  796MOL0     C 7364  -0.545  13.318  -0.788  0.1676  0.4700  1.1783
  796MOL0     C 7365  -0.525  13.426  -0.676 -0.0131  0.0200  0.8104
  796MOL0     C 7366  -0.615  13.412  -0.551 -0.3817  0.0111 -0.7368
  796MOL0     C 7367  -0.757  13.372  -0.602  0.0711 -1.0156  0.5410
  796MOL0     C 7368  -0.863  13.377  -0.489 -0.7420  0.5270  0.4919
  796MOL0    Cl 7369  -0.835  13.258  -0.365  0.1039  0.2094  0.2475
  796MOL0     C 7370  -0.237  12.772  -0.584 -0.2421  0.4322 -0.9496
  796MOL0     C 7371  -0.214  12.642  -0.529 -0.0316 -0.1973 -0.1747
  796MOL0     O 7372  -0.214  12.269  -0.692  0.0145 -0.7891 -0.6348
  796MOL0     C 7373  -0.212  12.211  -0.328  0.2924  0.0804 -0.7867
  796MOL0     C 7374  -0.197  12.102  -0.231 -0.1643 -0.3683  0.1184
  796MOL0     N 7375   0.108  12.179   0.154 -0.1876  0.0369  0.6025
  796MOL0     N 7376   0.141  12.191   0.268  0.0552  0.9025  1.2443
  796MOL0     C 7377   0.429  11.647   1.307  0.5581  0.3184 -0.1593
  796MOL0     C 7378   0.429  11.508   1.341  0.6448  0.8428  0.0480
  796MOL0     C 7379   0.337  11.070   1.371  0.1632 -0.3168  0.6853
  796MOL0     C 7380   0.264  11.059   1.494 -0.0388 -0.0155 -0.9914
  796MOL0     C 7381   0.210  10.939   1.536  0.6546 -0.7782  0.4762
  796MOL0     C 7382   0.239  10.814   1.474 -0.3175  0.7491  0.6052
  796MOL0     O 7383   0.183  10.707   1.536  0.0583 -0.6319 -0.5904
  796MOL0     C 7384   0.189  10.586   1.461  0.0373 -0.2842  0.7307
  796MOL0     C 7385   0.115  10.471   1.524 -0.0480 -0.7373  0.4352
  796MOL0     C 7386   0.171  10.433   1.664 -0.1288  0.3605 -0.2005
  796MOL0     C 7387   0.069  10.346   1.738 -0.2235  0.4457  0.6891
  796MOL0     C 7388   0.107  10.284   1.859 -1.5477 -0.2003 -0.1013
  796MOL0     C 7389   0.123  10.222   1.965 -1.1881  0.9536  0.1639
  796MOL0     C 7390   0.317  10.820   1.351  0.0862  0.1659 -0.3668
  796MOL0     C 7391   0.360  10.950   1.299 -0.5136 -0.3307  0.6963
  796MOL0     C 7392   0.423  10.938   1.165  0.0844 -0.3993 -0.8449
  796MOL0     H 7393   0.094  11.463   1.350  0.3507 -0.8004  0.2921
  796MOL0     H 7394   0.104  11.717   1.313  0.5801  0.0802 -0.0712
  796MOL0     H 7395   0.337  11.797   1.043  0.5580  1.1537 -0.5503
  796MOL0     H 7396   0.174  11.810   1.096 -0.0131  0.1746  0.0369
  796MOL0     H 7397   0.372  12.052   1.105 -0.4612  1.3922  0.4509
  796MOL0     H 7398   0.188  12.059   1.107 -1.4610 -1.4191  0.3795
  796MOL0     H 7399   0.239  12.114   0.881  1.3074  0.4589 -0.5254
  796MOL0     H 7400   0.186  11.945   0.880  0.9366 -0.0445 -2.6526
  796MOL0     H 7401   0.469  12.040   0.880  0.1547  0.7229 -0.9240
  796MOL0     H 7402   0.413  11.881   0.830  0.3682 -0.0592  1.0869
  796MOL0     H 7403   0.276  12.008   0.666  0.9035 -1.4132  0.4141
  796MOL0     H 7404   0.365  12.160   0.690 -0.7370  1.0614  1.4426
  796MOL0     H 7405   0.573  12.018   0.624  0.3718 -0.3846  0.5414
  796MOL0     H 7406   0.451  11.898   0.569  3.8307 -0.6970 -2.5407
  796MOL0     H 7407   0.509  12.012   0.375  0.3666  0.1280 -1.8691
  796MOL0     H 7408   0.491  12.178   0.456  1.9965 -0.8445  2.5218
  796MOL0     H 7409   0.274  11.953   0.402 -0.8069 -0.5650 -2.8168
  796MOL0     H 7410   0.241  12.098   0.484  0.4295 -3.1197  1.6322
  796MOL0     H 7411   0.393  12.031   0.126  1.4377  0.5385  2.9672
  796MOL0     H 7412   0.114  12.117  -0.120  2.0024  2.1182  0.7980
  796MOL0     H 7413   0.285  12.100  -0.122  0.2819 -0.5644  0.1005
  796MOL0     H 7414   0.210  11.895  -0.180 -2.5313  3.8826 -1.2437
  796MOL0     H 7415   0.297  11.883  -0.035 -0.4150 -1.9806 -0.7586
  796MOL0     H 7416   0.082  11.877   0.092  1.6280 -0.3231  0.2175
  796MOL0     H 7417   0.071  11.746  -0.011  2.2102 -1.1586 -0.2187
  796MOL0     H 7418  -0.063  12.012  -0.018  1.8623  0.0684  0.3530
  796MOL0     H 7419  -0.139  11.853   0.002 -2.2553  2.3897 -0.3974
  796MOL0     H 7420  -0.076  11.870  -0.437 -2.7381 -0.3787 -4.3034
  796MOL0     H 7421  -0.126  12.041  -0.601 -1.1696 -2.2275 -0.2334
  796MOL0     H 7422  -0.399  12.440  -0.737 -0.3095 -0.5960  2.1111
  796MOL0     H 7423  -0.454  12.676  -0.831 -2.0593  0.4074  1.7809
  796MOL0     H 7424  -0.493  12.880  -0.891 -1.9348  1.3318 -0.5497
  796MOL0     H 7425  -0.568  12.934  -0.746  0.0149  2.3841  0.7571
  796MOL0     H 7426  -0.372  13.123  -0.889 -0.8315  0.1712 -1.1929
  796MOL0     H 7427  -0.543  13.111  -0.934  2.8706  3.5826 -1.4396
  796MOL0     H 7428  -0.571  13.125  -0.667  1.9586 -0.8186  0.8871
  796MOL0     H 7429  -0.403  13.176  -0.687 -0.6828 -0.4933  0.5836
  796MOL0     H 7430  -0.648  13.300  -0.822  0.3279 -0.3750  1.0979
  796MOL0     H 7431  -0.496  13.350  -0.880 -1.0907  3.6738  1.4936
  796MOL0     H 7432  -0.541  13.528  -0.710 -3.9503 -0.8332 -0.3842
  796MOL0     H 7433  -0.418  13.418  -0.653  0.0213  3.5715  2.6155
  796MOL0     H 7434  -0.566  13.341  -0.484 -0.4520  1.2740  0.7212
  796MOL0     H 7435  -0.611  13.512  -0.505 -1.4196  0.1124 -0.8550
  796MOL0     H 7436  -0.756  13.269  -0.637 -0.5720 -1.8712  2.9025
  796MOL0     H 7437  -0.780  13.451  -0.675  1.4442 -1.0710  0.0182
  796MOL0     H 7438  -0.867  13.471  -0.435  0.7383  1.6209 -1.1844
  796MOL0     H 7439  -0.965  13.352  -0.520 -1.2402 -1.5680  3.4111
  796MOL0     H 7440  -0.203  12.859  -0.528  0.3713 -0.2190 -0.2892
  796MOL0     H 7441  -0.145  12.635  -0.444 -1.7760 -0.1702  1.3025
  796MOL0     H 7442  -0.247  12.308  -0.294 -0.0397 -0.3802  0.2346
  796MOL0     H 7443  -0.222  12.123  -0.128  0.3914  1.6440 -0.1149
  796MOL0     H 7444   0.522  11.702   1.319  0.1268  0.4970  3.6277
  796MOL0     H 7445   0.522  11.456   1.359  0.6967  0.4964 -1.1196
  796MOL0     H 7446   0.241  11.139   1.563 -0.4023 -2.0504  1.3858
  796MOL0     H 7447   0.137  10.935   1.617  0.4792 -0.0399  0.3620
  796MOL0     H 7448   0.294  10.559   1.446 -0.0015 -1.0280  1.6759
  796MOL0     H 7449   0.136  10.598   1.366  0.4607  0.0151  0.5314
  796MOL0     H 7450   0.123  10.386   1.456  3.7934 -0.2686  0.0714
  796MOL0     H 7451   0.009  10.499   1.530  0.0052  0.0030 -1.5141
  796MOL0     H 7452   0.174  10.523   1.725 -3.0906  0.4024  0.0594
  796MOL0     H 7453   0.268  10.384   1.653 -0.2113  0.3612 -1.0106
  796MOL0     H 7454  -0.015  10.415   1.746  0.9181  2.2216 -1.4238
  796MOL0     H 7455   0.043  10.274   1.660 -0.0192 -0.9967  1.9089
  796MOL0     H 7456   0.129  10.175   2.061  0.4626 -1.0171 -0.8245
  796MOL0     H 7457   0.338  10.735   1.287  1.2605 -0.2622  0.5598
  796MOL0     H 7458   0.500  10.860   1.168  0.9481  0.4481 -0.6527
  796MOL0     H 7459   0.355  10.897   1.089  1.9834 -0.2918 -2.6993
  796MOL0     H 7460   0.465  11.030   1.123 -0.1717  1.6784  3.0421
  797MOL0     O 7461   8.796   0.429  10.969  0.4261 -0.1854  0.2333
  797MOL0     C 7462   8.670   0.418  10.956  0.3052 -0.1224 -0.4750
  797MOL0     O 7463   8.581   0.506  10.996  1.0036 -0.4142 -0.4182
  797MOL0     C 7464   8.621   0.636  11.028 -0.1323 -0.2112  0.2507
  797MOL0     C 7465   8.540   0.698  11.127 -0.8597  0.8029 -0.9953
  797MOL0     C 7466   8.565   0.827  11.167  0.4588  0.6866 -0.4330
  797MOL0     C 7467   8.672   0.897  11.123 -0.4126 -0.1498 -0.3322
  797MOL0     O 7468   8.696   1.031  11.153  0.2477 -0.2866  0.0137
  797MOL0     C 7469   8.672   1.081  11.291  0.9339  0.9822  0.1060
  797MOL0     C 7470   8.805   1.055  11.358 -0.4224  0.8211  0.1742
  797MOL0     C 7471   8.843   1.155  11.468  0.0072  0.1182  0.0033
  797MOL0     C 7472   8.972   1.117  11.544 -0.5850  0.6748 -0.2303
  797MOL0     C 7473   9.011   1.215  11.664  0.5682  0.3804  0.0317
  797MOL0     C 7474   9.142   1.176  11.738  0.6560 -1.2097  0.0947
  797MOL0     C 7475   9.190   1.304  11.804 -0.2300  0.2310  0.2975
  797MOL0     C 7476   9.090   1.349  11.913  1.1190 -0.1777  0.1106
  797MOL0     N 7477   9.102   1.259  12.028  0.7447 -0.4612 -0.1396
  797MOL0     C 7478   9.217   1.253  12.105 -0.3351  0.7122  0.1571
  797MOL0     C 7479   9.184   1.192  12.215  0.3196  0.1793 -0.2446
  797MOL0     C 7480   9.297   1.168  12.318  0.3415  0.4670  0.0069
  797MOL0     C 7481   9.333   1.293  12.411 -0.6971  0.2609  0.5514
  797MOL0     C 7482   9.347   1.248  12.564 -0.0072 -0.4198  0.0636
  797MOL0     C 7483   9.483   1.172  12.586 -0.0576 -0.2915  0.1031
  797MOL0     O 7484   9.585   1.270  12.561 -0.4191 -0.1778  0.2073
  797MOL0     C 7485   9.644   1.325  12.667 -0.0004 -0.3673  0.3018
  797MOL0     C 7486   9.610   1.461  12.703  0.4405  1.5570 -0.3423
  797MOL0     C 7487   9.652   1.518  12.825  0.4904 -0.5335  0.3982
  797MOL0     C 7488   9.736   1.448  12.907 -0.7055  0.7614 -0.2327
  797MOL0     C 7489   9.778   1.509  13.037  0.4593 -0.2386 -0.4565
  797MOL0     O 7490   9.687   1.575  13.115 -0.1082 -0.4771 -0.0419
  797MOL0     C 7491   9.729   1.652  13.219  0.2949 -0.4168  0.7002
  797MOL0     C 7492   9.636   1.693  13.318  0.4674 -0.8546  0.9992
  797MOL0     C 7493   9.663   1.794  13.413  0.7002  0.4842  0.2389
  797MOL0     C 7494   9.784   1.862  13.401 -0.9193 -0.4008 -0.8891
  797MOL0     O 7495   9.827   1.959  13.489 -0.4317 -0.8813  0.4738
  797MOL0     C 7496   9.765   1.969  13.621 -0.6777  0.8504  0.2499
  797MOL0     C 7497   9.826   2.080  13.703  0.1719 -0.5137  0.1826
  797MOL0     C 7498   9.725   2.129  13.805 -0.3144  0.2901 -0.2453
  797MOL0     C 7499   9.800   2.233  13.894 -0.3777  0.2240  0.1596
  797MOL0     C 7500   9.704   2.301  13.994  0.5020  0.4572 -0.1252
  797MOL0     C 7501   9.776   2.390  14.088 -0.2574  0.4444  0.2347
  797MOL0     C 7502   9.676   2.449  14.187  0.0067  0.8945  0.3814
  797MOL0     C 7503   9.643   2.597  14.155  0.6665 -0.6237  0.3167
  797MOL0    Cl 7504   9.783   2.696  14.176 -0.0443  0.2967 -0.1693
  797MOL0     C 7505   9.879   1.825  13.301 -0.2168 -0.1642 -0.1694
  797MOL0     C 7506   9.852   1.718  13.218  0.6449  0.8912  0.8720
  797MOL0     O 7507   9.887   1.477  13.076 -0.3033 -0.1573 -0.0529
  797MOL0     C 7508   9.776   1.317  12.874 -0.2445  0.4835  0.1800
  797MOL0     C 7509   9.726   1.259  12.758 -0.9224 -0.4337 -0.3724
  797MOL0     N 7510   9.051   1.157  12.208  0.1820 -0.5510 -0.5293
  797MOL0     N 7511   9.001   1.202  12.096  0.6197 -0.2150 -0.0866
  797MOL0     C 7512   8.734   0.846  11.012 -0.4457  0.8149  1.0820
  797MOL0     C 7513   8.720   0.706  10.969  0.5996 -0.6842 -0.5236
  797MOL0     C 7514   8.616   0.283  10.929 -0.0995  0.8295 -0.5367
  797MOL0     C 7515   8.478   0.253  10.979  0.1298  0.6736  0.4452
  797MOL0     C 7516   8.414   0.130  10.949  0.2172  0.5921  0.3017
  797MOL0     C 7517   8.484   0.022  10.878 -0.0123  0.4311  0.3744
  797MOL0     O 7518   8.438  -0.103  10.849  0.7424  0.4278  0.7748
  797MOL0     C 7519   8.301  -0.129  10.906 -0.6310  0.7545 -0.1128
  797MOL0     C 7520   8.257  -0.266  10.847  0.0178  0.0062  0.4779
  797MOL0     C 7521   8.116  -0.296  10.897  0.2640  1.0069 -0.1395
  797MOL0     C 7522   8.061  -0.440  10.888  0.3947 -0.3057  0.2286
  797MOL0     C 7523   8.159  -0.536  10.941  0.3277  1.3869  0.3173
  797MOL0     C 7524   8.220  -0.621  11.004 -0.2722 -0.0593  0.4005
  797MOL0     C 7525   8.609   0.061  10.825  0.4548 -0.1817  0.1524
  797MOL0     C 7526   8.676   0.182  10.850 -0.4522  0.2658 -0.4224
  797MOL0     C 7527   8.820   0.186  10.803 -0.3261  0.3015 -0.0968
  797MOL0     H 7528   8.455   0.661  11.184  0.0209  3.7656  2.6330
  797MOL0     H 7529   8.507   0.860  11.253  3.5996 -0.8622  2.5240
  797MOL0     H 7530   8.654   1.189  11.286 -1.2907  0.7172  1.1890
  797MOL0     H 7531   8.604   1.031  11.360  4.7473 -1.8729  2.1816
  797MOL0     H 7532   8.885   1.028  11.289 -1.7915 -0.0590 -1.1301
  797MOL0     H 7533   8.793   0.961  11.412  0.3991  0.9672  0.6281
  797MOL0     H 7534   8.760   1.162  11.540  0.6990  0.0476  0.8204
  797MOL0     H 7535   8.858   1.252  11.419  0.8001  0.1715  0.3338
  797MOL0     H 7536   8.949   1.020  11.590 -1.9736  1.5169  0.9190
  797MOL0     H 7537   9.052   1.107  11.470 -0.8151 -1.5265 -0.2524
  797MOL0     H 7538   9.039   1.314  11.627  2.4238  1.6544  4.2962
  797MOL0     H 7539   8.926   1.225  11.732 -1.5275  0.1669 -2.3741
  797MOL0     H 7540   9.117   1.103  11.815  0.0427 -0.9463  0.1465
  797MOL0     H 7541   9.220   1.132  11.674  1.4589  2.0526 -1.3659
  797MOL0     H 7542   9.206   1.384  11.731 -4.3006  2.4387  1.5337
  797MOL0     H 7543   9.284   1.283  11.856 -0.6251  0.8048  1.2633
  797MOL0     H 7544   9.105   1.453  11.942  1.8860 -0.4672  0.8013
  797MOL0     H 7545   8.988   1.331  11.877  1.5619 -0.2103 -1.1537
  797MOL0     H 7546   9.318   1.280  12.077 -1.1119  0.3520 -3.6011
  797MOL0     H 7547   9.273   1.078  12.375 -2.5217  1.2708  0.2444
  797MOL0     H 7548   9.387   1.142  12.261  0.5716 -4.6426  2.1244
  797MOL0     H 7549   9.431   1.314  12.368 -1.2521 -1.7337 -2.0183
  797MOL0     H 7550   9.269   1.381  12.401 -1.4046 -0.2500  0.5186
  797MOL0     H 7551   9.271   1.178  12.599  0.5898 -0.5469  1.1726
  797MOL0     H 7552   9.350   1.335  12.630  1.8344  0.3044 -0.8924
  797MOL0     H 7553   9.506   1.082  12.528 -1.4411 -0.0891 -0.8119
  797MOL0     H 7554   9.485   1.142  12.691 -0.0213 -2.8820 -0.5719
  797MOL0     H 7555   9.542   1.508  12.633  0.0239 -0.5307 -1.4106
  797MOL0     H 7556   9.619   1.618  12.849 -0.8093  0.2342 -3.7609
  797MOL0     H 7557   9.537   1.649  13.328  0.5943 -1.1019  1.1583
  797MOL0     H 7558   9.590   1.798  13.493  1.2071 -2.7682  0.9886
  797MOL0     H 7559   9.657   1.984  13.617 -1.1280 -1.8408 -3.3307
  797MOL0     H 7560   9.785   1.876  13.674  2.1761  0.8447 -0.6878
  797MOL0     H 7561   9.913   2.035  13.751 -0.6671 -2.9764 -0.4397
  797MOL0     H 7562   9.853   2.162  13.636 -0.4399  0.3890  1.0060
  797MOL0     H 7563   9.635   2.178  13.766 -0.8059 -0.1054  0.3656
  797MOL0     H 7564   9.678   2.050  13.864  0.8903 -0.7032 -0.5909
  797MOL0     H 7565   9.825   2.318  13.831 -2.1267 -1.5465 -3.1931
  797MOL0     H 7566   9.888   2.197  13.948  0.9285  0.2176 -1.8749
  797MOL0     H 7567   9.671   2.217  14.055  1.0886 -1.0223 -1.7482
  797MOL0     H 7568   9.616   2.351  13.952  1.9253 -0.9614 -5.6239
  797MOL0     H 7569   9.860   2.336  14.134  0.6737  0.3441 -1.5133
  797MOL0     H 7570   9.827   2.460  14.020  0.2234  0.5389  0.6793
  797MOL0     H 7571   9.726   2.449  14.285  3.9891  0.5803 -1.4472
  797MOL0     H 7572   9.594   2.379  14.196 -0.5256  1.6517  1.9135
  797MOL0     H 7573   9.613   2.610  14.050  1.2735 -1.3149  0.0502
  797MOL0     H 7574   9.571   2.640  14.225  2.1648 -0.8293  2.0483
  797MOL0     H 7575   9.977   1.872  13.299  0.0927 -0.7156  0.9280
  797MOL0     H 7576   9.932   1.697  13.148  1.0081 -0.3911  1.6158
  797MOL0     H 7577   9.840   1.264  12.944  2.4407 -0.1002 -2.5440
  797MOL0     H 7578   9.749   1.156  12.735  1.8556  0.3128 -1.2279
  797MOL0     H 7579   8.801   0.915  10.961  1.8991 -1.0217  1.4878
  797MOL0     H 7580   8.783   0.670  10.888  2.0198 -3.2977  1.5856
  797MOL0     H 7581   8.419   0.310  11.050 -3.5156 -1.8941 -0.2509
  797MOL0     H 7582   8.316   0.106  10.989 -0.5495  2.7120 -0.1354
  797MOL0     H 7583   8.228  -0.057  10.870 -3.1431 -1.7051 -0.2824
  797MOL0     H 7584   8.286  -0.143  11.014 -0.4802 -2.8666 -0.4372
  797MOL0     H 7585   8.332  -0.339  10.878  0.4448  0.8752  1.5863
  797MOL0     H 7586   8.253  -0.253  10.739 -2.6236  1.8289  0.7135
  797MOL0     H 7587   8.043  -0.231  10.847 -0.1083  2.1917  1.8227
  797MOL0     H 7588   8.118  -0.274  11.004  4.1926 -3.1260  0.9707
  797MOL0     H 7589   7.966  -0.451  10.941 -0.3853 -0.5570 -1.1529
  797MOL0     H 7590   8.045  -0.460  10.781 -0.5054 -0.2272  0.3457
  797MOL0     H 7591   8.288  -0.687  11.054  0.3865  0.1588 -0.1890
  797MOL0     H 7592   8.663  -0.018  10.773  1.5084  0.8359 -0.3640
  797MOL0     H 7593   8.837   0.120  10.717 -1.7247 -1.3978  0.8728
  797MOL0     H 7594   8.843   0.292  10.784 -0.0852  0.3375  0.3875
  797MOL0     H 7595   8.888   0.157  10.883  2.0404  1.9536 -1.3610
  798MOL0     O 7596   3.188   2.115   3.022 -0.6427 -0.4487 -0.4981
  798MOL0     C 7597   3.172   2.118   3.148 -0.3942 -0.4856 -0.0106
  798MOL0     O 7598   3.275   2.117   3.240  0.0300 -0.2333  0.3223
  798MOL0     C 7599   3.402   2.115   3.198 -0.5493  1.0769 -0.9877
  798MOL0     C 7600   3.441   1.986   3.157  0.4233 -0.1822 -0.0235
  798MOL0     C 7601   3.577   1.958   3.125 -0.5571  0.3507 -0.2216
  798MOL0     C 7602   3.663   2.067   3.152 -0.6396 -0.4869  0.9141
  798MOL0     O 7603   3.795   2.068   3.124 -0.6821  0.5396 -0.4594
  798MOL0     C 7604   3.877   2.030   3.234 -0.1105  0.3693 -0.3761
  798MOL0     C 7605   4.025   2.033   3.193  0.8108 -0.1131  0.6114
  798MOL0     C 7606   4.114   1.991   3.300 -0.6497  0.6563  0.0823
  798MOL0     C 7607   4.266   1.973   3.247 -0.6742  1.4891 -0.7078
  798MOL0     C 7608   4.337   1.855   3.315 -0.0350  0.7486 -0.4909
  798MOL0     C 7609   4.475   1.822   3.267  0.3260 -0.9187 -0.0342
  798MOL0     C 7610   4.486   1.797   3.115 -0.4367 -0.0589 -0.2626
  798MOL0     C 7611   4.616   1.722   3.081  0.5193  0.6196 -0.1468
  798MOL0     N 7612   4.609   1.585   3.132  0.1720 -0.4358 -0.7559
  798MOL0     C 7613   4.503   1.500   3.112 -0.9505 -0.0126 -0.2259
  798MOL0     C 7614   4.513   1.396   3.203  0.2962 -0.5593  0.2609
  798MOL0     C 7615   4.415   1.280   3.221  0.9328 -0.7683  0.1617
  798MOL0     C 7616   4.492   1.148   3.247 -0.0430  0.4026 -0.1429
  798MOL0     C 7617   4.398   1.030   3.257 -0.4867  0.3804 -0.1597
  798MOL0     C 7618   4.426   0.957   3.391 -0.3199  0.7815  0.4122
  798MOL0     O 7619   4.398   1.052   3.501  0.2002 -0.3507 -1.0354
  798MOL0     C 7620   4.472   1.062   3.620  0.6584  0.1416 -0.4279
  798MOL0     C 7621   4.531   0.956   3.685  1.4445 -0.0048 -0.0892
  798MOL0     C 7622   4.605   0.983   3.801  0.3730 -0.3778 -0.6766
  798MOL0     C 7623   4.621   1.108   3.854 -0.5491 -0.1578  1.2124
  798MOL0     C 7624   4.666   1.128   3.995 -0.7592 -0.9122  0.2114
  798MOL0     O 7625   4.605   1.230   4.070 -1.2929  0.2339 -0.0250
  798MOL0     C 7626   4.665   1.245   4.190  0.5252 -0.1538  0.0670
  798MOL0     C 7627   4.584   1.228   4.305 -0.1476 -0.7297  1.1059
  798MOL0     C 7628   4.634   1.285   4.424 -0.2896  0.0158 -0.3779
  798MOL0     C 7629   4.755   1.350   4.434 -1.3514  0.4919  0.0394
  798MOL0     O 7630   4.810   1.407   4.550 -0.0611  0.7891  0.4127
  798MOL0     C 7631   4.726   1.437   4.662  0.5397 -0.2695 -0.8893
  798MOL0     C 7632   4.600   1.512   4.625 -0.0464  0.6200 -0.8823
  798MOL0     C 7633   4.487   1.473   4.718  0.4134 -0.1211  0.1144
  798MOL0     C 7634   4.532   1.477   4.865 -0.1411 -0.2165  0.4713
  798MOL0     C 7635   4.427   1.435   4.966  0.4256  0.0267  0.2528
  798MOL0     C 7636   4.306   1.532   4.974 -0.2849 -0.4292  0.7037
  798MOL0     C 7637   4.238   1.517   5.104 -1.1759  0.6432 -0.0852
  798MOL0     C 7638   4.125   1.631   5.110 -0.3935  0.3963 -0.0790
  798MOL0    Cl 7639   4.047   1.604   5.274 -0.0717 -0.0807 -0.0213
  798MOL0     C 7640   4.833   1.364   4.322  0.7052  0.2707  0.4169
  798MOL0     C 7641   4.780   1.326   4.199  0.0257  0.1385 -0.2456
  798MOL0     O 7642   4.757   1.051   4.032 -0.2956 -0.3326 -0.0702
  798MOL0     C 7643   4.564   1.214   3.784  0.0922 -0.5135  0.1536
  798MOL0     C 7644   4.491   1.189   3.673  0.1765 -0.1067 -0.2128
  798MOL0     N 7645   4.633   1.419   3.267 -0.3419 -1.2973 -0.3611
  798MOL0     N 7646   4.688   1.532   3.226  0.2202 -0.1765 -0.0066
  798MOL0     C 7647   3.622   2.194   3.182  0.0955  0.1324 -0.1636
  798MOL0     C 7648   3.493   2.219   3.212  0.8546  0.8199 -0.4848
  798MOL0     C 7649   3.035   2.139   3.192 -0.4541  0.7059 -0.8423
  798MOL0     C 7650   3.006   2.218   3.305  0.8896 -0.3414 -0.3717
  798MOL0     C 7651   2.883   2.232   3.356  0.6519  0.9152 -0.0518
  798MOL0     C 7652   2.776   2.180   3.293  0.1244 -0.6046  0.1120
  798MOL0     O 7653   2.655   2.201   3.353  0.2243 -0.5769  0.2299
  798MOL0     C 7654   2.534   2.216   3.276  0.2694 -0.3447 -0.6183
  798MOL0     C 7655   2.538   2.349   3.195  0.0119 -0.9289 -0.4594
  798MOL0     C 7656   2.605   2.476   3.257  0.0653  0.1117  0.1026
  798MOL0     C 7657   2.707   2.543   3.164  0.4179  0.0497 -0.2365
  798MOL0     C 7658   2.788   2.636   3.242  0.7960  0.6605  0.5220
  798MOL0     C 7659   2.865   2.715   3.286  0.1845 -0.4147 -0.7734
  798MOL0     C 7660   2.798   2.114   3.175  1.0151 -0.5459  0.7807
  798MOL0     C 7661   2.924   2.099   3.121  0.2990 -0.2117  0.1225
  798MOL0     C 7662   2.935   2.001   3.002 -0.1544 -0.0468  0.2770
  798MOL0     H 7663   3.365   1.911   3.136  1.3571 -0.2083 -4.1839
  798MOL0     H 7664   3.608   1.865   3.079  1.3526  0.2105  1.2365
  798MOL0     H 7665   3.862   2.087   3.327 -2.6713 -2.7838  1.3470
  798MOL0     H 7666   3.844   1.931   3.266  0.2442  0.1013 -0.8422
  798MOL0     H 7667   4.056   2.134   3.165  0.5213  0.5409  2.4817
  798MOL0     H 7668   4.041   1.958   3.115  1.0765 -0.1405  0.6904
  798MOL0     H 7669   4.071   1.897   3.336 -0.4735  0.2270 -0.8108
  798MOL0     H 7670   4.104   2.073   3.372 -2.4926  0.3767  0.2138
  798MOL0     H 7671   4.258   1.956   3.139 -0.6134  1.9441 -0.7859
  798MOL0     H 7672   4.332   2.054   3.278  0.3527  0.8256 -1.1021
  798MOL0     H 7673   4.335   1.874   3.423 -1.0945  0.3693 -0.4294
  798MOL0     H 7674   4.268   1.773   3.293  1.9734 -1.0999 -0.2030
  798MOL0     H 7675   4.526   1.914   3.298 -2.3988  0.3239  1.1380
  798MOL0     H 7676   4.529   1.748   3.326  2.9579 -0.7629 -2.0584
  798MOL0     H 7677   4.473   1.894   3.065 -2.7417 -0.5518 -0.7491
  798MOL0     H 7678   4.396   1.744   3.083 -2.6571  1.2486  3.1761
  798MOL0     H 7679   4.611   1.717   2.972  1.2424 -0.6923 -0.1329
  798MOL0     H 7680   4.707   1.774   3.113  1.0766 -0.3575 -0.1255
  798MOL0     H 7681   4.418   1.523   3.049  0.1837  0.4788 -1.6144
  798MOL0     H 7682   4.353   1.300   3.309 -0.6854  0.6286 -1.2152
  798MOL0     H 7683   4.348   1.267   3.136 -0.7101 -0.8383  1.4093
  798MOL0     H 7684   4.568   1.125   3.172  0.9045  2.3749  0.1485
  798MOL0     H 7685   4.541   1.148   3.345 -3.9113 -0.0593  1.9783
  798MOL0     H 7686   4.417   0.964   3.172 -1.0833 -0.9088  0.6815
  798MOL0     H 7687   4.296   1.067   3.241 -0.6181  0.4646  0.8491
  798MOL0     H 7688   4.528   0.916   3.390 -1.1600 -1.4197  0.4428
  798MOL0     H 7689   4.371   0.864   3.406  3.6507 -2.4038 -2.4725
  798MOL0     H 7690   4.514   0.852   3.656 -1.0094 -0.0352  1.2206
  798MOL0     H 7691   4.659   0.900   3.846 -0.6707 -0.3389  0.6915
  798MOL0     H 7692   4.490   1.174   4.297 -0.1328 -0.7600  1.1385
  798MOL0     H 7693   4.567   1.264   4.506  0.0811 -2.0939 -0.5548
  798MOL0     H 7694   4.705   1.338   4.704  1.6832 -0.4824 -0.8093
  798MOL0     H 7695   4.782   1.490   4.739 -0.5029 -0.2745 -0.1047
  798MOL0     H 7696   4.626   1.617   4.643 -3.6960  1.4079  0.9587
  798MOL0     H 7697   4.568   1.505   4.521 -4.1697 -0.0832  0.2519
  798MOL0     H 7698   4.401   1.535   4.690 -1.7975 -0.4965  5.0606
  798MOL0     H 7699   4.457   1.369   4.708 -1.2580  0.4823 -2.1000
  798MOL0     H 7700   4.555   1.583   4.879 -1.2436  0.0722  0.2347
  798MOL0     H 7701   4.615   1.408   4.881 -2.1642 -3.9617 -3.2448
  798MOL0     H 7702   4.472   1.431   5.065 -2.1344  1.6231  1.5939
  798MOL0     H 7703   4.385   1.338   4.936  1.9447 -0.3617 -0.7213
  798MOL0     H 7704   4.343   1.635   4.971 -1.5576  0.0406  0.3601
  798MOL0     H 7705   4.236   1.525   4.890 -1.6282  2.2650  1.4900
  798MOL0     H 7706   4.298   1.543   5.192 -2.2320 -0.4791  1.0134
  798MOL0     H 7707   4.195   1.418   5.125  0.2448 -0.3669 -1.6594
  798MOL0     H 7708   4.170   1.731   5.104 -0.4453  0.3628 -1.4391
  798MOL0     H 7709   4.057   1.604   5.029  3.2912 -0.3724 -3.2602
  798MOL0     H 7710   4.927   1.418   4.318  1.4635 -1.0779 -1.9692
  798MOL0     H 7711   4.822   1.353   4.103  0.2742 -3.3551 -1.2325
  798MOL0     H 7712   4.578   1.311   3.830 -2.6946  0.7415 -1.4056
  798MOL0     H 7713   4.445   1.270   3.617  1.3440 -0.0974 -1.1792
  798MOL0     H 7714   3.688   2.280   3.185  1.4786 -0.8795  2.8582
  798MOL0     H 7715   3.468   2.315   3.257 -0.4616 -0.3072  1.3367
  798MOL0     H 7716   3.091   2.250   3.364  1.1623  1.8672 -1.8356
  798MOL0     H 7717   2.860   2.283   3.448 -0.8608 -3.1740  2.1014
  798MOL0     H 7718   2.444   2.223   3.338 -2.0879 -2.7539 -3.4211
  798MOL0     H 7719   2.525   2.124   3.217  0.0745 -1.0924  0.5607
  798MOL0     H 7720   2.435   2.374   3.166  0.4088  1.8915  0.3127
  798MOL0     H 7721   2.585   2.322   3.100  0.0792 -0.2951 -0.6099
  798MOL0     H 7722   2.647   2.444   3.352 -2.3565 -2.3165  0.4762
  798MOL0     H 7723   2.534   2.555   3.286  2.6480  2.0552  1.5245
  798MOL0     H 7724   2.776   2.465   3.129  0.4202  0.9231 -2.3760
  798MOL0     H 7725   2.660   2.583   3.073 -0.2506 -0.5248 -0.1546
  798MOL0     H 7726   2.932   2.788   3.327 -0.0986 -0.4180 -0.3009
  798MOL0     H 7727   2.709   2.063   3.139  1.7678 -2.0291  0.9645
  798MOL0     H 7728   2.840   1.952   2.980 -1.2752  2.4363 -0.7385
  798MOL0     H 7729   2.974   2.054   2.914  0.4950 -2.0428 -0.7223
  798MOL0     H 7730   3.002   1.917   3.024 -1.3759 -1.5297 -1.3424
  799MOL0     O 7731   5.884   2.358   0.803  0.7323 -0.4877  0.2398
  799MOL0     C 7732   5.960   2.266   0.789 -0.3484 -0.7276  0.0116
  799MOL0     O 7733   6.089   2.271   0.777  0.3940  0.2823  0.0837
  799MOL0     C 7734   6.162   2.383   0.792  0.9377  0.7886  0.6213
  799MOL0     C 7735   6.145   2.465   0.901 -0.2472 -0.6298  0.0363
  799MOL0     C 7736   6.221   2.576   0.904 -0.4484  0.3304 -0.1546
  799MOL0     C 7737   6.325   2.607   0.807 -0.1449  0.9257  0.0739
  799MOL0     O 7738   6.407   2.711   0.803 -0.4990  0.4626 -0.5212
  799MOL0     C 7739   6.540   2.704   0.850  1.4897  0.6248 -0.6293
  799MOL0     C 7740   6.596   2.838   0.878 -0.0715 -1.0015 -1.0598
  799MOL0     C 7741   6.743   2.837   0.925 -0.0767 -0.9626 -1.2149
  799MOL0     C 7742   6.780   2.978   0.996 -0.3263 -0.2565 -0.1425
  799MOL0     C 7743   6.929   2.954   1.011  0.4121  0.5440  0.5152
  799MOL0     C 7744   6.989   3.061   1.099 -0.5090  1.4002 -0.5022
  799MOL0     C 7745   6.970   3.191   1.029  1.5970 -0.1536 -0.2976
  799MOL0     C 7746   7.047   3.307   1.095 -0.0947 -0.4411  0.0726
  799MOL0     N 7747   7.034   3.326   1.235  0.0635 -0.7472  0.1194
  799MOL0     C 7748   6.915   3.339   1.310 -0.4177  0.3241  0.4601
  799MOL0     C 7749   6.955   3.346   1.438 -0.9461  0.5453 -0.0526
  799MOL0     C 7750   6.858   3.343   1.557  0.8461 -1.3247  0.5458
  799MOL0     C 7751   6.830   3.193   1.580 -0.2024 -0.0389 -0.8330
  799MOL0     C 7752   6.962   3.109   1.623  0.3733 -0.2375 -0.7974
  799MOL0     C 7753   6.935   2.960   1.617 -0.5145  0.5496 -0.1633
  799MOL0     O 7754   6.884   2.916   1.485  0.4077  0.1527 -0.5019
  799MOL0     C 7755   6.793   2.812   1.491 -0.5632  0.6699  0.2695
  799MOL0     C 7756   6.741   2.791   1.370  0.2458 -0.0425  0.1347
  799MOL0     C 7757   6.644   2.688   1.359  0.3118  1.3524 -0.2218
  799MOL0     C 7758   6.605   2.602   1.460  0.5213 -0.1871 -0.5391
  799MOL0     C 7759   6.522   2.477   1.435 -0.0127  0.8778 -0.3606
  799MOL0     O 7760   6.464   2.461   1.316 -0.4943  0.4782  0.7586
  799MOL0     C 7761   6.373   2.371   1.298  0.3250  0.4385  0.2663
  799MOL0     C 7762   6.404   2.235   1.298 -0.4493  0.4040 -0.5820
  799MOL0     C 7763   6.304   2.144   1.278  0.0221  0.5296 -0.7265
  799MOL0     C 7764   6.172   2.183   1.248  0.2988  0.1568  0.4070
  799MOL0     O 7765   6.078   2.095   1.207  0.1107 -0.0586 -0.1497
  799MOL0     C 7766   5.955   2.107   1.283 -0.2170  0.5687 -0.6909
  799MOL0     C 7767   5.887   1.977   1.312 -0.1442 -0.7675 -0.3476
  799MOL0     C 7768   5.787   1.991   1.424 -0.0349 -0.3990 -0.5520
  799MOL0     C 7769   5.670   2.082   1.380  0.5520 -0.7571  0.2994
  799MOL0     C 7770   5.567   2.087   1.497 -0.0284 -0.2716 -0.0112
  799MOL0     C 7771   5.427   2.150   1.462 -0.7119 -1.2919  0.1367
  799MOL0     C 7772   5.434   2.301   1.411  0.5862 -0.2840  0.8076
  799MOL0     C 7773   5.498   2.396   1.509 -0.0958  0.3399  0.0234
  799MOL0    Cl 7774   5.435   2.565   1.492 -0.3353 -0.4105 -0.4580
  799MOL0     C 7775   6.137   2.320   1.246 -0.2589 -0.0810  0.6862
  799MOL0     C 7776   6.242   2.415   1.267  0.4642 -0.3643 -0.1162
  799MOL0     O 7777   6.511   2.399   1.536 -0.3852 -0.0056 -0.3936
  799MOL0     C 7778   6.671   2.622   1.581 -0.0699  0.3706  0.8854
  799MOL0     C 7779   6.767   2.723   1.598  0.2119  0.0948  0.2843
  799MOL0     N 7780   7.090   3.361   1.443 -0.6256 -0.0372 -0.1193
  799MOL0     N 7781   7.137   3.342   1.326 -0.7509  0.2046  0.3580
  799MOL0     C 7782   6.346   2.505   0.706  0.8152 -0.6743  0.0692
  799MOL0     C 7783   6.262   2.398   0.695 -0.0005  0.0875 -0.2933
  799MOL0     C 7784   5.902   2.128   0.778 -0.8255  0.0428 -0.1713
  799MOL0     C 7785   5.978   2.022   0.841 -0.2035 -0.5477 -0.0171
  799MOL0     C 7786   5.945   1.885   0.831 -0.3663 -0.8684  0.0919
  799MOL0     C 7787   5.828   1.858   0.769  0.5558  0.2344 -1.1463
  799MOL0     O 7788   5.783   1.729   0.735 -0.8494  0.6138 -0.7352
  799MOL0     C 7789   5.882   1.620   0.728 -0.2627 -0.0667 -0.6704
  799MOL0     C 7790   5.798   1.504   0.690  0.2846  0.6150 -0.2133
  799MOL0     C 7791   5.703   1.466   0.813  0.7402 -0.2023 -0.3516
  799MOL0     C 7792   5.631   1.335   0.785 -0.9393 -0.1043 -0.2642
  799MOL0     C 7793   5.734   1.226   0.800 -0.1690 -0.9854 -0.5435
  799MOL0     C 7794   5.814   1.137   0.808  0.2427  0.2430 -0.0306
  799MOL0     C 7795   5.748   1.955   0.720  0.0442 -0.9928  0.2100
  799MOL0     C 7796   5.787   2.091   0.715  0.3203 -0.1234  1.1728
  799MOL0     C 7797   5.701   2.182   0.635 -0.7130  0.2759 -0.0133
  799MOL0     H 7798   6.078   2.442   0.984  0.4553 -0.8169  0.5570
  799MOL0     H 7799   6.221   2.649   0.985  0.0311  0.8825 -0.6382
  799MOL0     H 7800   6.555   2.636   0.934  2.3271  0.9170 -0.5382
  799MOL0     H 7801   6.608   2.666   0.773  2.2291  1.4484 -0.4036
  799MOL0     H 7802   6.536   2.896   0.950  0.9655 -0.3052 -0.7350
  799MOL0     H 7803   6.594   2.904   0.791  2.9511  1.7642  0.7378
  799MOL0     H 7804   6.798   2.819   0.832  3.5310  1.4405  0.2149
  799MOL0     H 7805   6.756   2.753   0.994 -2.9219 -0.4523  0.0864
  799MOL0     H 7806   6.746   3.062   0.936  0.8124  1.3750  1.4106
  799MOL0     H 7807   6.730   2.981   1.093 -1.6273 -0.3473 -0.7906
  799MOL0     H 7808   6.944   2.860   1.066  0.7384  1.2635  1.7006
  799MOL0     H 7809   6.984   2.949   0.916 -0.5348  1.0605 -0.0702
  799MOL0     H 7810   6.949   3.051   1.200 -0.9815 -1.7391 -0.9151
  799MOL0     H 7811   7.097   3.044   1.097 -0.7078  0.0158 -0.6285
  799MOL0     H 7812   6.865   3.212   1.048  1.1432 -0.7999 -1.9178
  799MOL0     H 7813   6.972   3.184   0.920 -4.1024 -1.4401 -0.6068
  799MOL0     H 7814   7.146   3.265   1.073 -0.8028 -2.0850 -0.1209
  799MOL0     H 7815   7.043   3.410   1.060  0.9111 -0.3702  0.1228
  799MOL0     H 7816   6.819   3.340   1.260  1.2410 -1.1278 -3.0968
  799MOL0     H 7817   6.902   3.399   1.640  0.4876 -2.4474  1.5038
  799MOL0     H 7818   6.761   3.384   1.530  1.0249 -1.5585 -0.4950
  799MOL0     H 7819   6.755   3.177   1.658  1.6671 -2.9295  0.5727
  799MOL0     H 7820   6.788   3.148   1.489  0.0811 -2.9565  0.3628
  799MOL0     H 7821   6.983   3.135   1.727 -3.4459  2.0982 -0.4069
  799MOL0     H 7822   7.051   3.125   1.561  1.0217  1.3290  0.4656
  799MOL0     H 7823   6.876   2.942   1.707  2.9643  2.2874  2.7283
  799MOL0     H 7824   7.021   2.898   1.647  0.4923  1.9661 -0.0359
  799MOL0     H 7825   6.750   2.859   1.285  3.7302  0.3234  0.6330
  799MOL0     H 7826   6.613   2.663   1.258 -3.3159  0.9425  0.8609
  799MOL0     H 7827   6.508   2.212   1.318 -0.4198 -1.6641 -2.6612
  799MOL0     H 7828   6.338   2.042   1.286 -1.3356 -0.0778 -2.2578
  799MOL0     H 7829   5.962   2.166   1.375 -1.5929 -1.7948  1.0243
  799MOL0     H 7830   5.883   2.162   1.222 -1.3355  0.6108  0.6326
  799MOL0     H 7831   5.842   1.952   1.215 -0.2209 -0.0763 -0.4944
  799MOL0     H 7832   5.967   1.904   1.331  0.8897 -0.1442 -2.0404
  799MOL0     H 7833   5.753   1.892   1.457  2.2436 -1.1167 -0.1883
  799MOL0     H 7834   5.835   2.030   1.514 -0.3953 -3.3696  1.0656
  799MOL0     H 7835   5.624   2.038   1.291  0.3183  1.2154 -0.6164
  799MOL0     H 7836   5.696   2.188   1.366 -1.8195 -0.1623 -0.0775
  799MOL0     H 7837   5.612   2.141   1.580 -1.0106  2.2910 -1.0547
  799MOL0     H 7838   5.547   1.983   1.526 -2.8221  0.9616  3.1005
  799MOL0     H 7839   5.377   2.091   1.385 -2.1530 -0.3171  0.2963
  799MOL0     H 7840   5.369   2.150   1.555  0.5382 -1.1698  0.9402
  799MOL0     H 7841   5.332   2.337   1.398  1.4197  1.5681 -1.2125
  799MOL0     H 7842   5.482   2.317   1.314 -1.4483 -0.3266 -0.2494
  799MOL0     H 7843   5.476   2.367   1.613 -2.4743 -0.8849 -0.7459
  799MOL0     H 7844   5.605   2.390   1.486 -0.7165 -1.9167 -2.8517
  799MOL0     H 7845   6.033   2.347   1.236 -0.3177 -0.1170  1.1441
  799MOL0     H 7846   6.219   2.521   1.264 -6.3424 -1.3551  1.3164
  799MOL0     H 7847   6.652   2.553   1.663 -1.5986 -0.1057  0.1677
  799MOL0     H 7848   6.812   2.737   1.696  0.8912 -0.6857  0.1005
  799MOL0     H 7849   6.427   2.525   0.636  1.3729 -1.0047  0.6127
  799MOL0     H 7850   6.273   2.323   0.618 -1.2130 -3.1456  2.4262
  799MOL0     H 7851   6.071   2.054   0.887 -0.9549 -2.2287  2.8607
  799MOL0     H 7852   6.011   1.805   0.862  2.2838  1.5915  1.3034
  799MOL0     H 7853   5.929   1.597   0.824  1.1546 -2.0658 -1.7449
  799MOL0     H 7854   5.964   1.647   0.661  0.4357  0.4801  0.3753
  799MOL0     H 7855   5.866   1.420   0.671  2.0265  1.1241  2.9676
  799MOL0     H 7856   5.742   1.529   0.599  0.5154  0.3679 -0.4250
  799MOL0     H 7857   5.626   1.542   0.833 -0.4413 -1.8849  1.8764
  799MOL0     H 7858   5.752   1.463   0.910 -0.8647  3.5549  0.7662
  799MOL0     H 7859   5.559   1.313   0.864 -1.6825 -2.2046 -1.4639
  799MOL0     H 7860   5.574   1.340   0.692 -1.3655 -1.6688 -0.1215
  799MOL0     H 7861   5.891   1.062   0.809 -0.3028 -0.3234 -0.0504
  799MOL0     H 7862   5.651   1.914   0.692 -0.4217  0.4562 -0.3884
  799MOL0     H 7863   5.765   2.236   0.564 -1.8352 -1.7305 -2.7342
  799MOL0     H 7864   5.651   2.119   0.562 -0.8746  1.4847 -0.9819
  799MOL0     H 7865   5.626   2.239   0.691  0.5718  1.2680  0.7728
  800MOL0     O 7866  10.603   8.405   8.660  0.5644 -0.1859  0.2638
  800MOL0     C 7867  10.628   8.312   8.730  0.4863  0.0078  0.1159
  800MOL0     O 7868  10.691   8.325   8.856  0.9000  0.0915 -0.2375
  800MOL0     C 7869  10.686   8.451   8.918  0.0115 -1.0075 -0.1643
  800MOL0     C 7870  10.602   8.458   9.026 -0.6424 -0.0980  0.6048
  800MOL0     C 7871  10.573   8.571   9.084 -0.4444 -1.0160 -0.2480
  800MOL0     C 7872  10.627   8.696   9.036  0.4565  0.2396 -0.4857
  800MOL0     O 7873  10.602   8.815   9.102 -0.4415  0.2765 -0.5430
  800MOL0     C 7874  10.537   8.818   9.227 -0.7082  0.4648  0.3412
  800MOL0     C 7875  10.558   8.964   9.257 -0.5715  0.1509 -0.4581
  800MOL0     C 7876  10.492   9.066   9.148  0.1163 -0.2499 -0.0947
  800MOL0     C 7877  10.581   9.098   9.036  0.9076 -0.0196  0.1853
  800MOL0     C 7878  10.495   9.172   8.930  0.4057  0.4393 -0.2077
  800MOL0     C 7879  10.444   9.310   8.977 -0.0776 -0.2215 -0.5804
  800MOL0     C 7880  10.382   9.396   8.853 -1.0796  0.2712 -0.2935
  800MOL0     C 7881  10.231   9.396   8.862 -0.2961 -0.4058 -0.0536
  800MOL0     N 7882  10.178   9.287   8.785 -0.2830  0.4899  0.4995
  800MOL0     C 7883  10.121   9.310   8.658  0.2642 -0.9203 -0.9351
  800MOL0     C 7884  10.030   9.209   8.636  0.2830 -0.3669  0.2280
  800MOL0     C 7885   9.947   9.210   8.512  1.0654  0.0061 -1.1367
  800MOL0     C 7886   9.795   9.195   8.544 -0.5524 -0.2356  0.3715
  800MOL0     C 7887   9.719   9.210   8.415 -0.0713  0.5090  0.5429
  800MOL0     C 7888   9.588   9.133   8.429  0.5954  0.3593 -0.4247
  800MOL0     O 7889   9.503   9.137   8.312  0.0830 -0.2717 -0.4293
  800MOL0     C 7890   9.382   9.070   8.322  0.3045  0.0927 -0.0760
  800MOL0     C 7891   9.318   9.038   8.206 -0.5770 -0.3607  0.1517
  800MOL0     C 7892   9.203   8.963   8.197  0.1661 -0.3772  0.0513
  800MOL0     C 7893   9.150   8.906   8.315 -0.4823  0.3601  0.2885
  800MOL0     C 7894   9.032   8.817   8.305  0.3086  0.0769  0.2077
  800MOL0     O 7895   8.986   8.762   8.418 -0.4010  0.4130  1.1406
  800MOL0     C 7896   8.867   8.697   8.404 -0.7492  1.6234  0.2118
  800MOL0     C 7897   8.751   8.763   8.438  0.4938  0.5194 -0.0747
  800MOL0     C 7898   8.629   8.704   8.442 -0.5801  0.2861  0.1228
  800MOL0     C 7899   8.615   8.562   8.412  0.1509 -0.7304  0.0336
  800MOL0     O 7900   8.494   8.494   8.427 -0.0542 -0.3237  0.4682
  800MOL0     C 7901   8.365   8.567   8.440 -0.5095  0.4001  0.4536
  800MOL0     C 7902   8.344   8.621   8.581 -0.1848  0.9150  0.6457
  800MOL0     C 7903   8.206   8.683   8.619  0.3846  0.1766  0.4075
  800MOL0     C 7904   8.210   8.836   8.577 -0.1892 -0.3518 -0.4797
  800MOL0     C 7905   8.095   8.919   8.628  0.2650  0.4895 -0.3182
  800MOL0     C 7906   8.071   9.050   8.545  0.2580  0.5169  0.3000
  800MOL0     C 7907   8.195   9.134   8.530  0.6439 -0.8844  0.1931
  800MOL0     C 7908   8.250   9.198   8.657 -0.5402  0.0050 -0.4125
  800MOL0    Cl 7909   8.401   9.300   8.633 -0.2359 -0.0660 -0.0191
  800MOL0     C 7910   8.734   8.489   8.377  0.5986 -0.6705  0.4827
  800MOL0     C 7911   8.854   8.555   8.366  0.0004 -0.1942  0.3844
  800MOL0     O 7912   8.988   8.794   8.192 -0.0297  0.0806  0.4741
  800MOL0     C 7913   9.220   8.926   8.436 -0.5087 -0.1120 -0.0840
  800MOL0     C 7914   9.333   9.012   8.437 -0.0527  0.3348 -1.0263
  800MOL0     N 7915  10.036   9.125   8.743 -0.5203  0.1498  0.7035
  800MOL0     N 7916  10.121   9.170   8.827 -0.6494 -0.2797  0.3450
  800MOL0     C 7917  10.717   8.696   8.928  0.1063 -0.2600 -0.5566
  800MOL0     C 7918  10.749   8.570   8.875 -0.1050 -0.4808  0.4324
  800MOL0     C 7919  10.579   8.179   8.687 -0.0815 -0.0905 -0.6260
  800MOL0     C 7920  10.610   8.062   8.766  1.1986  0.0967 -0.1961
  800MOL0     C 7921  10.558   7.938   8.735  0.3046 -0.8485 -0.3293
  800MOL0     C 7922  10.477   7.912   8.616 -0.1477  0.0155  0.5942
  800MOL0     O 7923  10.422   7.785   8.606  0.0546 -0.8032 -0.0702
  800MOL0     C 7924  10.317   7.763   8.503  0.0962  0.5691  0.2601
  800MOL0     C 7925  10.190   7.841   8.526  0.0176 -0.3803  0.0744
  800MOL0     C 7926  10.104   7.768   8.630  0.7131 -0.0279 -0.0368
  800MOL0     C 7927  10.177   7.748   8.759 -0.8528  0.0951 -0.1867
  800MOL0     C 7928  10.076   7.694   8.852 -0.5394 -1.0011  1.2634
  800MOL0     C 7929   9.985   7.663   8.913  0.7260 -0.1530  0.2841
  800MOL0     C 7930  10.466   8.020   8.528 -0.1637 -0.7592  0.0360
  800MOL0     C 7931  10.513   8.152   8.569 -0.4553  0.6364  0.7938
  800MOL0     C 7932  10.472   8.252   8.458 -0.1513 -0.0736 -1.1742
  800MOL0     H 7933  10.555   8.365   9.055 -0.5543 -0.0380  0.9435
  800MOL0     H 7934  10.496   8.572   9.161  0.9962  1.3667  1.2874
  800MOL0     H 7935  10.430   8.797   9.222 -0.5266 -1.8183  3.4056
  800MOL0     H 7936  10.581   8.753   9.303 -3.5804 -0.0964  1.6299
  800MOL0     H 7937  10.662   8.988   9.282 -0.2431  1.3637 -2.6958
  800MOL0     H 7938  10.495   8.983   9.345  0.6080  0.1308  0.4161
  800MOL0     H 7939  10.448   9.155   9.194  3.0475  0.2920  1.8784
  800MOL0     H 7940  10.412   9.009   9.098 -1.2225  0.8971  0.6660
  800MOL0     H 7941  10.665   9.161   9.066  0.6628  0.9866 -1.1319
  800MOL0     H 7942  10.629   9.011   8.992 -0.5769 -0.1660 -1.2756
  800MOL0     H 7943  10.563   9.192   8.846  1.9866 -0.7124  0.7332
  800MOL0     H 7944  10.422   9.104   8.886  1.1923 -0.7427  0.2499
  800MOL0     H 7945  10.369   9.307   9.057  2.4859 -4.0631  2.0184
  800MOL0     H 7946  10.526   9.366   9.022 -1.7829  0.0266  2.5348
  800MOL0     H 7947  10.405   9.370   8.750  2.3257  2.0104 -0.1051
  800MOL0     H 7948  10.432   9.493   8.866  1.5737 -0.7336 -2.2909
  800MOL0     H 7949  10.194   9.402   8.965  0.9929  3.8439  0.3416
  800MOL0     H 7950  10.193   9.490   8.821  0.0142  0.0427  0.6736
  800MOL0     H 7951  10.142   9.399   8.599 -0.8826 -1.2765 -1.9106
  800MOL0     H 7952   9.950   9.310   8.467 -0.8253 -0.2054 -1.7993
  800MOL0     H 7953   9.992   9.133   8.448  0.3105 -1.8054  0.4274
  800MOL0     H 7954   9.790   9.093   8.582  0.4907 -1.5756 -2.7953
  800MOL0     H 7955   9.759   9.266   8.619 -1.8281 -0.0374 -0.3896
  800MOL0     H 7956   9.764   9.158   8.330 -0.3810  2.5802 -0.9696
  800MOL0     H 7957   9.701   9.315   8.388 -0.5262  0.1323 -0.6867
  800MOL0     H 7958   9.534   9.178   8.512  0.9213  0.4959 -0.2865
  800MOL0     H 7959   9.613   9.027   8.446  0.6165  0.2808 -0.9295
  800MOL0     H 7960   9.357   9.065   8.109 -3.3272  0.3439 -0.8541
  800MOL0     H 7961   9.162   8.933   8.101  0.7922 -0.6124 -0.1537
  800MOL0     H 7962   8.757   8.870   8.450  2.5902  0.3979  0.2829
  800MOL0     H 7963   8.544   8.771   8.454  1.0863  2.4661  0.5416
  800MOL0     H 7964   8.364   8.643   8.362  1.4433  1.8205  1.7186
  800MOL0     H 7965   8.284   8.494   8.425 -1.9220  1.9386  0.3727
  800MOL0     H 7966   8.365   8.548   8.660  0.1306  2.7895  2.3780
  800MOL0     H 7967   8.408   8.708   8.596  0.0047  0.7804  0.6158
  800MOL0     H 7968   8.127   8.643   8.555  2.8848 -3.2537 -0.8191
  800MOL0     H 7969   8.200   8.670   8.728  0.7672 -1.3491  0.2739
  800MOL0     H 7970   8.198   8.837   8.468 -0.0515  0.3994 -0.4928
  800MOL0     H 7971   8.306   8.880   8.607  0.6596 -1.8445 -0.8876
  800MOL0     H 7972   8.113   8.942   8.733  2.0447  1.9471 -0.8973
  800MOL0     H 7973   8.005   8.855   8.624 -0.8669  2.0454 -0.6673
  800MOL0     H 7974   8.037   9.025   8.444  0.1964  0.9218  0.2173
  800MOL0     H 7975   7.988   9.106   8.589 -0.1247 -0.2996  0.6172
  800MOL0     H 7976   8.159   9.219   8.471 -0.0813 -0.5089  1.1553
  800MOL0     H 7977   8.268   9.083   8.466  0.7601  1.2665 -1.4780
  800MOL0     H 7978   8.182   9.266   8.711 -0.4256  0.3940 -0.7487
  800MOL0     H 7979   8.272   9.119   8.729  4.9773  2.1855  0.8329
  800MOL0     H 7980   8.732   8.388   8.337  4.0012  0.2992 -2.7366
  800MOL0     H 7981   8.941   8.509   8.320  1.1363  1.6200  0.6264
  800MOL0     H 7982   9.192   8.886   8.533 -0.5334  0.7275  0.2648
  800MOL0     H 7983   9.382   9.035   8.531 -3.0514 -0.7733  0.9808
  800MOL0     H 7984  10.763   8.790   8.899  1.8129 -0.7074  0.5229
  800MOL0     H 7985  10.815   8.556   8.791 -1.2015 -4.0575  0.0018
  800MOL0     H 7986  10.653   8.064   8.865 -1.5338  1.2392  1.0628
  800MOL0     H 7987  10.584   7.851   8.793  1.4259 -0.5646 -0.3871
  800MOL0     H 7988  10.273   7.663   8.497 -2.1216  1.5592 -4.1501
  800MOL0     H 7989  10.367   7.786   8.408  2.1919 -2.0364  0.5853
  800MOL0     H 7990  10.138   7.836   8.430 -0.7927 -2.5126  0.5877
  800MOL0     H 7991  10.211   7.947   8.545  2.2442 -0.0078 -3.5017
  800MOL0     H 7992  10.055   7.677   8.593  0.4642 -0.3433  1.0497
  800MOL0     H 7993  10.016   7.830   8.649 -0.4752 -1.8400  0.6745
  800MOL0     H 7994  10.259   7.678   8.744 -0.1912  0.5817  1.0710
  800MOL0     H 7995  10.213   7.845   8.795  0.2348  0.6286 -2.4743
  800MOL0     H 7996   9.892   7.641   8.962  0.2293  0.7616 -0.1965
  800MOL0     H 7997  10.401   8.010   8.442  0.2400  0.4575 -0.4395
  800MOL0     H 7998  10.566   8.294   8.422  0.5338 -1.3584 -0.9449
  800MOL0     H 7999  10.401   8.218   8.382  0.9132 -1.3873 -1.6315
  800MOL0     H 8000  10.414   8.328   8.511  0.1388 -2.3972  2.8448
  801MOL0     O 8001   3.051   6.512   6.206  0.2171 -0.0511 -0.2022
  801MOL0     C 8002   3.167   6.541   6.178  0.0051 -0.1124 -0.0167
  801MOL0     O 8003   3.217   6.527   6.050 -0.0966  0.5375 -0.1048
  801MOL0     C 8004   3.131   6.475   5.954  0.4120 -0.7140 -0.5450
  801MOL0     C 8005   3.047   6.550   5.868 -0.6537  0.1128  0.8628
  801MOL0     C 8006   2.961   6.509   5.775 -0.7933  0.7865 -0.3123
  801MOL0     C 8007   2.936   6.366   5.780 -0.8013 -0.7481  0.3237
  801MOL0     O 8008   2.832   6.303   5.721  1.0405 -0.1835 -0.8404
  801MOL0     C 8009   2.757   6.363   5.617 -0.0306 -0.5300  0.7279
  801MOL0     C 8010   2.633   6.284   5.582  0.2823  1.0608  0.1237
  801MOL0     C 8011   2.554   6.341   5.464  0.5401 -0.1856 -0.0731
  801MOL0     C 8012   2.483   6.226   5.398  0.4840  0.4690 -0.2204
  801MOL0     C 8013   2.414   6.257   5.264 -0.3821  0.7268 -0.3227
  801MOL0     C 8014   2.310   6.363   5.274  0.2959  0.6512  0.0861
  801MOL0     C 8015   2.210   6.323   5.396 -0.2025 -1.1719  0.1368
  801MOL0     C 8016   2.070   6.385   5.375  0.1000 -0.9823  0.1856
  801MOL0     N 8017   2.062   6.534   5.400 -1.3985  0.1873 -0.0326
  801MOL0     C 8018   2.117   6.620   5.318  0.5456  0.5704  0.0398
  801MOL0     C 8019   2.138   6.729   5.395 -0.1226 -0.8966 -0.8775
  801MOL0     C 8020   2.229   6.844   5.384 -0.1527  0.4891 -0.2613
  801MOL0     C 8021   2.332   6.858   5.499 -0.0371 -0.7526  0.0181
  801MOL0     C 8022   2.408   6.726   5.532  0.2806 -0.6322  0.1773
  801MOL0     C 8023   2.542   6.765   5.592 -0.4377  0.4651  0.0083
  801MOL0     O 8024   2.630   6.815   5.499 -0.5033  0.2309  0.4130
  801MOL0     C 8025   2.760   6.831   5.544 -0.5791 -0.0418 -0.2801
  801MOL0     C 8026   2.792   6.908   5.667 -0.0356  0.1288  0.8453
  801MOL0     C 8027   2.933   6.912   5.710 -0.3161 -0.5115 -0.7807
  801MOL0     C 8028   3.037   6.862   5.641 -1.0994  0.2584  0.6611
  801MOL0     C 8029   3.167   6.875   5.691  0.1868  0.4364 -0.4676
  801MOL0     O 8030   3.269   6.838   5.608 -0.2011 -0.0346 -0.1770
  801MOL0     C 8031   3.392   6.809   5.660 -0.6566 -0.4127  0.1497
  801MOL0     C 8032   3.494   6.907   5.645 -0.2935  0.6087  0.0650
  801MOL0     C 8033   3.624   6.889   5.705  0.7026  0.2834 -0.1331
  801MOL0     C 8034   3.648   6.766   5.771  0.4684  0.0743 -0.3621
  801MOL0     O 8035   3.772   6.757   5.830 -0.3990  0.3966  0.3607
  801MOL0     C 8036   3.890   6.782   5.755 -0.3028 -0.2303 -0.0817
  801MOL0     C 8037   3.988   6.861   5.833 -0.4599  0.6870 -0.0860
  801MOL0     C 8038   4.006   6.793   5.972 -0.0426  0.2420 -0.6739
  801MOL0     C 8039   4.050   6.654   5.953 -0.1089  0.4300 -0.3972
  801MOL0     C 8040   4.131   6.600   6.074 -1.0460  0.3894 -0.0876
  801MOL0     C 8041   4.021   6.591   6.182  0.2239 -0.1376  0.0618
  801MOL0     C 8042   4.074   6.520   6.307  1.1022  0.3327 -0.1889
  801MOL0     C 8043   3.971   6.514   6.420  0.0960 -0.7078  0.0767
  801MOL0    Cl 8044   3.867   6.664   6.436  0.2978  0.2135  0.1454
  801MOL0     C 8045   3.554   6.665   5.784  0.6026 -0.1199 -1.0425
  801MOL0     C 8046   3.424   6.688   5.719 -1.1811  0.1469 -0.7424
  801MOL0     O 8047   3.181   6.907   5.807 -0.6507  0.5058 -0.1499
  801MOL0     C 8048   3.008   6.775   5.530  0.1374  0.3384  0.5152
  801MOL0     C 8049   2.870   6.759   5.492 -0.2300 -0.4196  0.1965
  801MOL0     N 8050   2.073   6.716   5.515  0.2252  1.4598 -0.5289
  801MOL0     N 8051   2.047   6.586   5.521  0.1524  0.2648 -0.5587
  801MOL0     C 8052   3.010   6.290   5.868  0.1059  0.2830 -0.0224
  801MOL0     C 8053   3.119   6.342   5.947  0.3990 -0.7455 -0.4730
  801MOL0     C 8054   3.258   6.577   6.295 -1.0852  0.7252 -0.0049
  801MOL0     C 8055   3.200   6.583   6.425  0.6106 -0.7706  0.6110
  801MOL0     C 8056   3.279   6.587   6.528 -0.4667  0.5102 -0.6562
  801MOL0     C 8057   3.417   6.583   6.526 -0.0354  0.2163 -0.5254
  801MOL0     O 8058   3.483   6.586   6.648  0.1807 -0.2895 -0.7477
  801MOL0     C 8059   3.619   6.563   6.647  0.2062  0.3079  0.1326
  801MOL0     C 8060   3.643   6.523   6.792 -0.9676 -0.3470  0.5754
  801MOL0     C 8061   3.793   6.480   6.801  0.6637  0.3988  0.2578
  801MOL0     C 8062   3.864   6.496   6.932 -0.5688 -0.0563  0.3918
  801MOL0     C 8063   3.993   6.427   6.918  0.0613 -0.6566  0.4209
  801MOL0     C 8064   4.080   6.352   6.911 -0.2537  0.8226  0.5676
  801MOL0     C 8065   3.477   6.597   6.402  0.1509 -0.4314 -0.1891
  801MOL0     C 8066   3.398   6.591   6.288 -0.6620  0.6253  0.5129
  801MOL0     C 8067   3.470   6.620   6.154  0.4143  0.0344 -0.6134
  801MOL0     H 8068   3.045   6.659   5.876  2.0189  0.5410 -2.3647
  801MOL0     H 8069   2.904   6.577   5.712  0.8246  2.0481 -0.4776
  801MOL0     H 8070   2.716   6.459   5.649 -1.7335 -1.5462  1.7646
  801MOL0     H 8071   2.823   6.379   5.532 -1.0659  1.7393  0.2631
  801MOL0     H 8072   2.560   6.283   5.663 -0.7903  1.0475 -0.8093
  801MOL0     H 8073   2.669   6.182   5.567 -1.2837  0.3092  1.2254
  801MOL0     H 8074   2.632   6.375   5.395  0.9204 -1.2266 -0.1800
  801MOL0     H 8075   2.487   6.419   5.500 -1.3669 -1.3288 -1.0169
  801MOL0     H 8076   2.559   6.148   5.386 -0.0133  0.0407 -0.6336
  801MOL0     H 8077   2.408   6.191   5.468  2.6310 -0.8710  1.5338
  801MOL0     H 8078   2.487   6.274   5.184 -1.5733 -3.9675 -2.7873
  801MOL0     H 8079   2.356   6.169   5.234 -0.4161  0.7696 -0.3788
  801MOL0     H 8080   2.364   6.456   5.293  2.8870 -1.0147  1.5957
  801MOL0     H 8081   2.264   6.371   5.175  2.8306 -0.8460 -1.3194
  801MOL0     H 8082   2.251   6.372   5.485  1.3879  0.6110 -1.4809
  801MOL0     H 8083   2.190   6.216   5.406  1.9710 -1.5271  1.2538
  801MOL0     H 8084   2.041   6.351   5.276  3.2467 -0.2442 -1.1071
  801MOL0     H 8085   2.002   6.339   5.447  0.6012 -3.0548 -0.6086
  801MOL0     H 8086   2.166   6.600   5.224  0.6187  1.4527 -0.1261
  801MOL0     H 8087   2.288   6.840   5.292  3.5755 -0.1890  1.9459
  801MOL0     H 8088   2.175   6.938   5.390  1.4039  1.3656  1.0109
  801MOL0     H 8089   2.401   6.941   5.481  0.3618 -0.7402  1.5272
  801MOL0     H 8090   2.275   6.885   5.588 -0.9160  2.5137 -1.3849
  801MOL0     H 8091   2.416   6.657   5.448 -2.4952  1.4301 -1.9666
  801MOL0     H 8092   2.353   6.671   5.609 -0.0955 -1.3352 -0.5774
  801MOL0     H 8093   2.585   6.671   5.630  0.1748 -0.0241 -1.7537
  801MOL0     H 8094   2.533   6.846   5.665 -1.9863  1.9227 -1.7120
  801MOL0     H 8095   2.710   6.953   5.721 -0.9640 -0.3305 -0.1376
  801MOL0     H 8096   2.957   6.965   5.802  2.7988  1.2131 -2.4224
  801MOL0     H 8097   3.473   7.007   5.609 -0.0373  0.7167  0.2117
  801MOL0     H 8098   3.689   6.976   5.706  2.3192 -0.8342 -1.2653
  801MOL0     H 8099   3.923   6.683   5.725 -0.2755 -0.4493  0.6568
  801MOL0     H 8100   3.881   6.836   5.659  0.0795  4.0651  2.0533
  801MOL0     H 8101   4.087   6.860   5.785  0.0475 -0.5786  0.9316
  801MOL0     H 8102   3.949   6.962   5.850  1.2374  1.4624 -0.5456
  801MOL0     H 8103   4.080   6.852   6.028  0.4360 -2.6526  2.0356
  801MOL0     H 8104   3.910   6.802   6.025  0.4355 -0.8450  0.4353
  801MOL0     H 8105   4.115   6.647   5.865  0.7187  0.5445  0.1964
  801MOL0     H 8106   3.961   6.593   5.936 -0.4816  0.8156  0.1399
  801MOL0     H 8107   4.216   6.667   6.086 -0.6911  0.4844 -2.5662
  801MOL0     H 8108   4.158   6.495   6.059 -0.6317  0.7346 -2.0032
  801MOL0     H 8109   4.005   6.695   6.211  0.2992  0.4571 -1.9037
  801MOL0     H 8110   3.927   6.549   6.147 -1.3860  2.7030  0.6357
  801MOL0     H 8111   4.162   6.574   6.345  1.0841 -0.0213  0.3531
  801MOL0     H 8112   4.100   6.416   6.285  4.5657  0.5639  2.0466
  801MOL0     H 8113   3.907   6.428   6.400  0.0135 -0.6118 -0.0803
  801MOL0     H 8114   4.017   6.491   6.516  1.0198  0.9020  0.0649
  801MOL0     H 8115   3.579   6.568   5.825 -0.9855  0.4405  1.4844
  801MOL0     H 8116   3.359   6.601   5.712  1.6860 -1.9953 -3.7652
  801MOL0     H 8117   3.065   6.696   5.482 -4.3467 -0.8442 -3.6501
  801MOL0     H 8118   2.856   6.684   5.415  0.0810  1.2186 -1.5198
  801MOL0     H 8119   2.985   6.184   5.862 -0.7774  0.5122 -0.6059
  801MOL0     H 8120   3.183   6.279   6.009 -0.6790 -1.2223  0.1878
  801MOL0     H 8121   3.092   6.582   6.430  0.4726  2.3242  0.3289
  801MOL0     H 8122   3.232   6.595   6.625  1.6360  1.3086  0.3652
  801MOL0     H 8123   3.667   6.655   6.612  1.4842 -1.1949 -2.3283
  801MOL0     H 8124   3.654   6.484   6.580 -0.3165  0.8844 -0.8590
  801MOL0     H 8125   3.573   6.445   6.826 -1.3378  0.9599  2.9926
  801MOL0     H 8126   3.620   6.615   6.846 -2.2557 -0.6301  0.5583
  801MOL0     H 8127   3.853   6.535   6.728 -1.4522 -0.6978 -2.5004
  801MOL0     H 8128   3.800   6.374   6.776 -0.4614  0.3078  0.3042
  801MOL0     H 8129   3.888   6.599   6.963  0.6011 -1.7239  6.4097
  801MOL0     H 8130   3.810   6.446   7.013  0.4079 -0.8613  0.5559
  801MOL0     H 8131   4.161   6.285   6.889 -1.9076 -0.4097 -2.3557
  801MOL0     H 8132   3.581   6.621   6.380 -0.1465  1.2359  0.0623
  801MOL0     H 8133   3.502   6.525   6.110 -1.9015 -1.2390  0.2691
  801MOL0     H 8134   3.402   6.658   6.078 -0.2506 -3.9866 -2.3168
  801MOL0     H 8135   3.556   6.684   6.173 -0.8692  1.6425  0.0196
  802MOL0     O 8136   9.976   9.220   0.105  1.0743 -0.0327 -0.2834
  802MOL0     C 8137   9.984   9.316   0.025  0.1099  0.6731 -0.6181
  802MOL0     O 8138   9.999   9.315  -0.107  0.1421  0.9586  0.3288
  802MOL0     C 8139  10.016   9.186  -0.154  0.4662  0.4996 -0.7599
  802MOL0     C 8140  10.147   9.139  -0.169  0.0592 -0.7379  0.2037
  802MOL0     C 8141  10.184   9.013  -0.215 -0.8825  0.5824  0.1362
  802MOL0     C 8142  10.070   8.937  -0.258 -1.0903  0.5967 -0.6785
  802MOL0     O 8143  10.092   8.815  -0.309  0.0246  0.2741 -0.7248
  802MOL0     C 8144  10.211   8.749  -0.291  0.6634 -0.4945 -0.6236
  802MOL0     C 8145  10.184   8.607  -0.317  0.4267  0.6044 -0.1276
  802MOL0     C 8146  10.080   8.562  -0.217  0.8969  0.4243  0.7067
  802MOL0     C 8147  10.064   8.408  -0.225  0.0242 -0.4292 -0.7905
  802MOL0     C 8148  10.032   8.350  -0.095  0.0014 -0.0886  0.4139
  802MOL0     C 8149  10.030   8.191  -0.111  0.7572 -0.3940  0.0173
  802MOL0     C 8150   9.984   8.137   0.018  0.5083 -0.1121 -0.2515
  802MOL0     C 8151   9.989   7.989   0.037  0.1716  0.0979  0.1217
  802MOL0     N 8152   9.924   7.956   0.164  0.5925  0.6665 -0.6514
  802MOL0     C 8153   9.784   7.949   0.181  0.5126  0.5251  0.4875
  802MOL0     C 8154   9.759   7.888   0.305  0.1661  0.0689  0.0683
  802MOL0     C 8155   9.624   7.876   0.373 -1.6305  0.2169 -0.7497
  802MOL0     C 8156   9.598   7.741   0.441 -0.4932 -0.8620  0.6185
  802MOL0     C 8157   9.658   7.744   0.583 -0.7382  0.0788 -0.3957
  802MOL0     C 8158   9.585   7.638   0.676 -0.1584 -0.2466  0.4472
  802MOL0     O 8159   9.465   7.690   0.732 -0.0869 -0.5922 -0.3597
  802MOL0     C 8160   9.383   7.614   0.820  0.0989  1.1473  0.5159
  802MOL0     C 8161   9.300   7.685   0.905 -0.9748  0.2840  0.1791
  802MOL0     C 8162   9.239   7.622   1.013 -0.3022 -0.0307  0.2286
  802MOL0     C 8163   9.254   7.489   1.048 -0.6993  1.3871 -0.5368
  802MOL0     C 8164   9.186   7.435   1.167 -0.1364  0.8767 -0.3025
  802MOL0     O 8165   9.172   7.299   1.185 -0.0947 -0.0526  0.5815
  802MOL0     C 8166   9.089   7.255   1.285 -0.6300  1.6881  0.1255
  802MOL0     C 8167   9.142   7.191   1.403  0.1799  0.3693 -1.3684
  802MOL0     C 8168   9.053   7.129   1.495 -0.0542 -0.3528  0.4158
  802MOL0     C 8169   8.914   7.146   1.484 -0.1974  1.1757 -0.4557
  802MOL0     O 8170   8.834   7.090   1.574  0.4770  0.0552  0.2050
  802MOL0     C 8171   8.713   7.019   1.542 -0.4999  0.2208 -0.0044
  802MOL0     C 8172   8.727   6.875   1.598 -1.1612  0.3244  0.6009
  802MOL0     C 8173   8.614   6.786   1.541  0.9082  1.5872 -0.0243
  802MOL0     C 8174   8.472   6.824   1.577  0.9136  0.5618 -0.3066
  802MOL0     C 8175   8.358   6.719   1.546 -0.2014  0.6307 -0.4656
  802MOL0     C 8176   8.348   6.597   1.646  0.3098 -0.0737 -0.2715
  802MOL0     C 8177   8.249   6.488   1.595  0.1282  0.5586 -0.2666
  802MOL0     C 8178   8.236   6.393   1.714  0.1939  0.4966  0.8927
  802MOL0    Cl 8179   8.143   6.244   1.665 -0.2702  0.1673 -0.3607
  802MOL0     C 8180   8.865   7.220   1.383 -0.4159  0.2789  0.2093
  802MOL0     C 8181   8.951   7.273   1.282  0.6646  0.0999 -0.0356
  802MOL0     O 8182   9.122   7.519   1.228  0.9959 -1.0847  0.0867
  802MOL0     C 8183   9.342   7.411   0.965 -0.9093  0.7044  0.7364
  802MOL0     C 8184   9.409   7.473   0.850 -0.4382  0.4292  0.1243
  802MOL0     N 8185   9.885   7.868   0.358  0.0861 -0.4240  0.2904
  802MOL0     N 8186   9.981   7.905   0.276 -0.4538  0.2415 -0.7279
  802MOL0     C 8187   9.936   8.982  -0.263 -1.0980 -0.1154  0.9111
  802MOL0     C 8188   9.907   9.113  -0.212 -0.9009 -0.0468 -0.4856
  802MOL0     C 8189   9.943   9.444   0.092  0.0573 -1.0964 -0.5091
  802MOL0     C 8190   9.832   9.443   0.176  0.7611  0.0002 -0.8168
  802MOL0     C 8191   9.776   9.558   0.233 -0.9043  0.0236 -0.0940
  802MOL0     C 8192   9.846   9.681   0.229  0.6010 -0.3089  0.1001
  802MOL0     O 8193   9.820   9.800   0.296  0.6841  0.0399 -0.9231
  802MOL0     C 8194   9.695   9.822   0.351  0.5017  0.8596 -0.6922
  802MOL0     C 8195   9.696   9.842   0.505  0.1788 -0.0320 -0.2586
  802MOL0     C 8196   9.759   9.727   0.587  0.4974  0.4834 -0.2487
  802MOL0     C 8197   9.775   9.747   0.735  0.1607  0.5322 -0.9137
  802MOL0     C 8198   9.642   9.750   0.808 -1.6309  0.4335  0.6623
  802MOL0     C 8199   9.532   9.755   0.855  0.7099  0.4779  0.3696
  802MOL0     C 8200   9.959   9.681   0.156 -0.3051  0.0250 -0.1039
  802MOL0     C 8201  10.005   9.568   0.075 -0.1879  0.7481 -0.3082
  802MOL0     C 8202  10.130   9.574  -0.007  0.3611  0.0320  0.2242
  802MOL0     H 8203  10.231   9.204  -0.148 -2.1140  2.4885 -0.3169
  802MOL0     H 8204  10.287   8.982  -0.203 -1.8389 -3.9478 -1.4782
  802MOL0     H 8205  10.291   8.792  -0.352  2.8269  4.3360  4.6889
  802MOL0     H 8206  10.260   8.759  -0.194  6.0858  1.1220 -3.1223
  802MOL0     H 8207  10.276   8.559  -0.284  1.6822  3.5578  1.0791
  802MOL0     H 8208  10.157   8.585  -0.421  0.6025 -2.0810  0.3216
  802MOL0     H 8209   9.989   8.623  -0.211  0.5644  0.2404 -1.6229
  802MOL0     H 8210  10.131   8.571  -0.120  5.1068 -1.7530 -1.0290
  802MOL0     H 8211   9.991   8.371  -0.297  0.9098 -1.4597 -1.1729
  802MOL0     H 8212  10.158   8.360  -0.252  2.1943  1.9982  1.7468
  802MOL0     H 8213  10.108   8.388  -0.026  0.8583 -0.2308 -0.4201
  802MOL0     H 8214   9.934   8.387  -0.065 -0.1294  0.3352 -0.4986
  802MOL0     H 8215   9.947   8.169  -0.179 -0.6412  0.6016  1.3397
  802MOL0     H 8216  10.124   8.147  -0.145 -0.6030 -1.5163 -2.6158
  802MOL0     H 8217   9.878   8.159   0.034  0.1899  3.3698 -5.0533
  802MOL0     H 8218  10.037   8.172   0.107 -0.8656  3.2739 -0.6099
  802MOL0     H 8219   9.959   7.929  -0.049  0.5282  0.2668 -0.1266
  802MOL0     H 8220  10.093   7.953   0.039 -0.4801 -2.1032 -1.3765
  802MOL0     H 8221   9.710   7.960   0.102  1.6011 -2.4835 -1.1460
  802MOL0     H 8222   9.629   7.966   0.436  2.9109  1.3534 -2.3127
  802MOL0     H 8223   9.549   7.891   0.295 -0.1033  1.9926 -1.9901
  802MOL0     H 8224   9.493   7.713   0.442 -0.2556 -1.8054  0.6850
  802MOL0     H 8225   9.643   7.661   0.382 -1.8616 -0.6542 -0.7476
  802MOL0     H 8226   9.658   7.842   0.632  6.1898 -0.3053  1.4520
  802MOL0     H 8227   9.765   7.722   0.585 -0.7469 -0.1429  2.4894
  802MOL0     H 8228   9.654   7.623   0.760  0.5597  1.5269  0.2207
  802MOL0     H 8229   9.574   7.538   0.632 -2.5788  0.1027  0.1392
  802MOL0     H 8230   9.292   7.790   0.879 -0.1544  0.2371 -0.2824
  802MOL0     H 8231   9.203   7.698   1.082  2.2466  2.8750 -1.4094
  802MOL0     H 8232   9.247   7.188   1.428 -0.0444 -2.8529 -0.3969
  802MOL0     H 8233   9.094   7.067   1.573  0.2255 -0.6052  0.0714
  802MOL0     H 8234   8.628   7.057   1.599 -1.5657 -2.8469  0.6487
  802MOL0     H 8235   8.702   7.013   1.433  6.4490  0.0134 -1.1016
  802MOL0     H 8236   8.819   6.830   1.561 -2.0614 -0.8108 -0.3478
  802MOL0     H 8237   8.726   6.863   1.707  0.9236 -1.5283  0.4717
  802MOL0     H 8238   8.623   6.779   1.433  0.0468  2.1545 -0.1461
  802MOL0     H 8239   8.641   6.687   1.579 -1.4073  1.3072  1.1120
  802MOL0     H 8240   8.456   6.925   1.538  0.3935  0.2072 -1.0312
  802MOL0     H 8241   8.457   6.838   1.685 -0.1511  2.8606 -0.7005
  802MOL0     H 8242   8.385   6.682   1.447 -2.2541  0.4692 -1.0091
  802MOL0     H 8243   8.265   6.776   1.539 -0.9493 -0.6873 -2.2064
  802MOL0     H 8244   8.451   6.563   1.659  1.0516  2.0840 -0.1294
  802MOL0     H 8245   8.322   6.637   1.744 -0.3439  2.8464 -1.5163
  802MOL0     H 8246   8.292   6.441   1.506  3.2616  2.4998  0.0626
  802MOL0     H 8247   8.156   6.533   1.559 -0.6603 -2.6408 -2.6841
  802MOL0     H 8248   8.332   6.357   1.750 -0.5670 -0.1182  2.4051
  802MOL0     H 8249   8.175   6.438   1.793  1.5202  1.9745  1.1136
  802MOL0     H 8250   8.762   7.247   1.363  0.6827  3.2965 -2.1793
  802MOL0     H 8251   8.897   7.330   1.207  1.3018  2.2562  1.0661
  802MOL0     H 8252   9.354   7.305   0.983 -0.9266  0.0370 -2.5777
  802MOL0     H 8253   9.470   7.419   0.778 -1.4825 -1.1341  0.3492
  802MOL0     H 8254   9.852   8.919  -0.291 -0.6325  0.4405 -2.1623
  802MOL0     H 8255   9.808   9.157  -0.216 -1.6198 -1.6740 -2.9077
  802MOL0     H 8256   9.781   9.348   0.187  0.6140 -0.2912 -3.5575
  802MOL0     H 8257   9.685   9.559   0.292 -0.6373  1.3055  0.3258
  802MOL0     H 8258   9.627   9.739   0.325  2.1253 -1.3823  1.7145
  802MOL0     H 8259   9.640   9.906   0.307  0.9509 -0.0162 -3.0701
  802MOL0     H 8260   9.593   9.864   0.534 -0.1282  0.2306 -1.5078
  802MOL0     H 8261   9.761   9.927   0.529  2.7582 -1.7518 -0.7190
  802MOL0     H 8262   9.856   9.704   0.540  1.8668 -2.5944  3.5080
  802MOL0     H 8263   9.695   9.638   0.579  0.8427  0.3078 -1.2775
  802MOL0     H 8264   9.827   9.659   0.774 -0.5415  0.0368 -1.0620
  802MOL0     H 8265   9.844   9.830   0.754  1.2901 -0.5029 -0.3279
  802MOL0     H 8266   9.430   9.773   0.882  1.0392  2.8618  0.2207
  802MOL0     H 8267   9.999   9.782   0.155 -0.1727  0.0622  2.1427
  802MOL0     H 8268  10.101   9.532  -0.103  0.4502  0.6538 -0.0810
  802MOL0     H 8269  10.152   9.679  -0.029  0.0355  0.7309  2.8325
  802MOL0     H 8270  10.219   9.522   0.031  1.4494  1.3509 -0.4124
  803MOL0     O 8271  10.275   0.992   2.820  0.2746 -0.8444 -0.0506
  803MOL0     C 8272  10.234   0.880   2.841 -0.6602 -0.4153  0.3964
  803MOL0     O 8273  10.287   0.757   2.788  0.3199 -0.1403  0.3798
  803MOL0     C 8274  10.390   0.777   2.693  0.2705  1.1990 -0.2064
  803MOL0     C 8275  10.521   0.727   2.716 -0.4260  0.2839 -0.2200
  803MOL0     C 8276  10.628   0.762   2.642 -0.2285  0.3737 -0.0068
  803MOL0     C 8277  10.608   0.831   2.531  0.1239 -0.2393 -0.5640
  803MOL0     O 8278  10.714   0.837   2.444  0.2430  0.2333  0.1272
  803MOL0     C 8279  10.733   0.954   2.367 -1.0952 -0.4509  0.4316
  803MOL0     C 8280  10.877   0.952   2.311 -0.2832  0.3306 -0.3900
  803MOL0     C 8281  10.905   1.067   2.226  0.0128 -0.6217  0.4662
  803MOL0     C 8282  11.049   1.061   2.168  0.4996 -0.4891 -0.3179
  803MOL0     C 8283  11.094   1.198   2.100 -0.0026 -0.2055  0.6671
  803MOL0     C 8284  11.052   1.205   1.948 -0.5124 -1.2062 -0.8476
  803MOL0     C 8285  10.908   1.248   1.919  0.2391  0.3522 -0.1629
  803MOL0     C 8286  10.866   1.234   1.772  0.8429  0.3916  0.0276
  803MOL0     N 8287  10.892   1.363   1.714 -0.2091  0.5020 -0.1334
  803MOL0     C 8288  10.839   1.488   1.758 -0.2585  0.2014  0.0164
  803MOL0     C 8289  10.899   1.581   1.675  0.1009 -0.4130  0.1211
  803MOL0     C 8290  10.879   1.733   1.679  0.0131  0.4192  0.7555
  803MOL0     C 8291  10.777   1.775   1.573 -0.0474  0.5840 -0.2734
  803MOL0     C 8292  10.815   1.758   1.426  0.2841 -0.0590  0.0452
  803MOL0     C 8293  10.958   1.783   1.390  0.0872  0.3453 -0.1187
  803MOL0     O 8294  10.999   1.922   1.365  0.1985  0.0535  0.3192
  803MOL0     C 8295  11.135   1.947   1.332 -0.3448  1.8582  0.0674
  803MOL0     C 8296  11.171   2.079   1.328 -0.2767 -0.4111  0.5088
  803MOL0     C 8297  11.292   2.112   1.267 -0.1695  0.2148 -1.0359
  803MOL0     C 8298  11.374   2.011   1.214  0.0131 -0.2788 -0.9351
  803MOL0     C 8299  11.506   2.043   1.152 -0.1029  0.5803 -0.5951
  803MOL0     O 8300  11.581   1.928   1.118  0.2393 -0.1085  0.8355
  803MOL0     C 8301  11.698   1.926   1.049 -0.0165 -0.1055 -0.6243
  803MOL0     C 8302  11.772   1.810   1.065 -0.4013  0.0630 -1.0498
  803MOL0     C 8303  11.899   1.803   1.013 -1.3561  0.0375 -0.2407
  803MOL0     C 8304  11.954   1.903   0.928 -0.4953  0.3933 -0.6436
  803MOL0     O 8305  12.084   1.898   0.879  0.1084  0.6234  0.4125
  803MOL0     C 8306  12.071   1.882   0.731 -0.6026  0.3651 -0.0380
  803MOL0     C 8307  12.212   1.853   0.672 -0.3849 -0.5056 -0.1042
  803MOL0     C 8308  12.206   1.855   0.517  0.1801 -0.2746 -0.2689
  803MOL0     C 8309  12.354   1.821   0.464 -0.0112  0.6105  0.1960
  803MOL0     C 8310  12.344   1.801   0.316  1.2126  0.3597  0.3920
  803MOL0     C 8311  12.482   1.789   0.247  0.0579  0.0793  0.0140
  803MOL0     C 8312  12.477   1.767   0.092 -1.1742  0.2878 -0.5441
  803MOL0     C 8313  12.413   1.876   0.005 -0.3566 -0.1537 -0.0596
  803MOL0    Cl 8314  12.427   2.044   0.067 -0.2185 -0.2535 -0.4395
  803MOL0     C 8315  11.871   2.011   0.899  0.4089 -0.2829 -0.6762
  803MOL0     C 8316  11.742   2.023   0.956 -0.6321  0.9947  0.1248
  803MOL0     O 8317  11.530   2.156   1.116 -0.1165  0.4819  0.3333
  803MOL0     C 8318  11.347   1.875   1.229  0.6899  0.4142  0.3800
  803MOL0     C 8319  11.224   1.846   1.284  0.2016  0.3068  0.5572
  803MOL0     N 8320  10.989   1.512   1.583 -0.3525 -0.5328 -0.1865
  803MOL0     N 8321  10.973   1.387   1.609 -0.5342 -0.0015 -0.1782
  803MOL0     C 8322  10.471   0.865   2.496  0.2338  0.4427  0.1085
  803MOL0     C 8323  10.362   0.847   2.581  0.4810 -0.2501  0.3082
  803MOL0     C 8324  10.122   0.866   2.927 -0.0038 -0.0017 -0.2587
  803MOL0     C 8325  10.114   0.951   3.039 -0.1283 -0.1467 -0.2472
  803MOL0     C 8326  10.015   0.942   3.134  0.3750  0.2724 -1.1655
  803MOL0     C 8327   9.911   0.850   3.113 -0.8104 -0.5163 -0.4893
  803MOL0     O 8328   9.800   0.830   3.193 -0.6131 -1.2478  0.2227
  803MOL0     C 8329   9.789   0.898   3.315 -0.2501  0.0484 -0.3598
  803MOL0     C 8330   9.659   0.877   3.391  0.1513  0.4969  0.3408
  803MOL0     C 8331   9.636   0.963   3.511 -0.0857  0.1196 -0.4502
  803MOL0     C 8332   9.488   0.949   3.563 -0.6201  0.9819  0.6020
  803MOL0     C 8333   9.392   1.010   3.459 -0.6287  0.5894 -1.0438
  803MOL0     C 8334   9.298   1.065   3.409 -0.5198  0.0084  0.5801
  803MOL0     C 8335   9.910   0.771   3.000 -0.0917 -0.1422  0.1813
  803MOL0     C 8336  10.014   0.780   2.904  0.6336  0.5665  0.1268
  803MOL0     C 8337   9.984   0.706   2.775  0.2082  0.7065 -0.2993
  803MOL0     H 8338  10.525   0.680   2.814 -1.7018  0.8118  0.1097
  803MOL0     H 8339  10.729   0.738   2.675  0.0133  2.6316  1.0754
  803MOL0     H 8340  10.659   0.958   2.287 -0.6131 -1.9825 -0.1156
  803MOL0     H 8341  10.721   1.040   2.434 -0.1538 -1.2656  1.7049
  803MOL0     H 8342  10.893   0.872   2.239  4.8066  1.2213 -0.6180
  803MOL0     H 8343  10.938   0.937   2.400 -0.7071 -2.1287 -0.4621
  803MOL0     H 8344  10.895   1.164   2.276 -1.1328  1.1706 -2.9136
  803MOL0     H 8345  10.831   1.060   2.146 -0.0414  0.4135  0.4128
  803MOL0     H 8346  11.118   1.030   2.248  0.4185  0.7225  0.2413
  803MOL0     H 8347  11.052   0.983   2.092 -1.5976  0.6192 -1.6363
  803MOL0     H 8348  11.060   1.286   2.155  0.7915  0.4091  0.1881
  803MOL0     H 8349  11.202   1.198   2.116 -0.2771 -0.2904  2.7473
  803MOL0     H 8350  11.126   1.269   1.899  1.5561  1.6887  5.0795
  803MOL0     H 8351  11.071   1.105   1.908  1.2519 -1.5832  0.7802
  803MOL0     H 8352  10.888   1.349   1.956  0.3280 -0.2619  1.6737
  803MOL0     H 8353  10.838   1.182   1.973 -0.9053  0.7192 -1.1670
  803MOL0     H 8354  10.925   1.151   1.730 -2.7932 -1.3696 -2.0694
  803MOL0     H 8355  10.760   1.210   1.761  1.6327 -3.4771 -0.5134
  803MOL0     H 8356  10.781   1.512   1.846  0.2197 -1.4721  0.8296
  803MOL0     H 8357  10.833   1.746   1.777  0.1047 -2.8793  1.3536
  803MOL0     H 8358  10.974   1.787   1.675 -0.3906  1.1430  0.9442
  803MOL0     H 8359  10.682   1.721   1.573  1.3120 -2.0349 -2.6829
  803MOL0     H 8360  10.766   1.883   1.590 -1.1345  0.7670 -1.8982
  803MOL0     H 8361  10.758   1.821   1.358  1.8287 -0.0090 -1.2804
  803MOL0     H 8362  10.792   1.653   1.404 -4.1241  1.1269 -1.9760
  803MOL0     H 8363  10.982   1.719   1.304  0.1997 -1.4869  1.2231
  803MOL0     H 8364  11.025   1.748   1.468 -1.9221  0.1693  1.6032
  803MOL0     H 8365  11.093   2.150   1.353 -1.7521 -1.6437 -0.3634
  803MOL0     H 8366  11.323   2.216   1.275  1.5605 -0.3509  0.2578
  803MOL0     H 8367  11.733   1.737   1.135 -3.7863  1.6109 -1.1275
  803MOL0     H 8368  11.969   1.724   1.039 -0.6049  0.5255 -0.7754
  803MOL0     H 8369  12.022   1.791   0.696  1.7578 -0.9718 -0.1187
  803MOL0     H 8370  12.031   1.972   0.683 -1.6589 -0.3395 -0.4903
  803MOL0     H 8371  12.291   1.921   0.706 -0.2797 -0.3618 -0.6370
  803MOL0     H 8372  12.241   1.750   0.693  1.3801 -0.3524 -1.4884
  803MOL0     H 8373  12.149   1.766   0.490 -2.0498 -0.5993  4.4929
  803MOL0     H 8374  12.162   1.945   0.475 -0.4099  0.3948  1.6750
  803MOL0     H 8375  12.389   1.726   0.505 -2.6583 -1.3944 -1.8200
  803MOL0     H 8376  12.431   1.893   0.492 -0.0716  1.0693 -0.7813
  803MOL0     H 8377  12.301   1.893   0.274 -0.4183  0.2183  1.6405
  803MOL0     H 8378  12.291   1.708   0.294  0.2932  0.5260  1.7957
  803MOL0     H 8379  12.550   1.871   0.271  1.9702 -1.4498  0.0398
  803MOL0     H 8380  12.517   1.695   0.290  1.2542  1.0255  1.2081
  803MOL0     H 8381  12.444   1.669   0.057 -1.8229  0.7876 -1.3650
  803MOL0     H 8382  12.585   1.762   0.077 -0.8615  3.1248  0.3063
  803MOL0     H 8383  12.452   1.876  -0.097 -0.2983 -2.1297 -0.0775
  803MOL0     H 8384  12.306   1.852  -0.002  0.1521 -2.4117 -0.8069
  803MOL0     H 8385  11.917   2.094   0.845 -2.0585  0.4501 -1.8308
  803MOL0     H 8386  11.683   2.110   0.930 -2.0708 -0.3885 -1.5265
  803MOL0     H 8387  11.406   1.792   1.190 -0.5215 -2.2728  3.7189
  803MOL0     H 8388  11.198   1.742   1.270  0.6241 -0.0237  2.0087
  803MOL0     H 8389  10.445   0.911   2.402  1.3805 -1.5109 -1.2527
  803MOL0     H 8390  10.260   0.872   2.552 -0.1715 -0.8017  2.0169
  803MOL0     H 8391  10.192   1.023   3.061 -0.5740  0.5409 -0.8608
  803MOL0     H 8392  10.019   1.007   3.221 -2.6303 -2.2395  1.0558
  803MOL0     H 8393   9.805   1.004   3.291 -0.9728 -0.1915 -1.9999
  803MOL0     H 8394   9.868   0.852   3.375 -0.3645  1.1016  0.6311
  803MOL0     H 8395   9.654   0.773   3.425 -0.7308  1.3374  3.1052
  803MOL0     H 8396   9.579   0.903   3.322  1.9353  0.5356 -1.8198
  803MOL0     H 8397   9.644   1.069   3.486 -0.9649  0.5689  1.0782
  803MOL0     H 8398   9.707   0.944   3.592 -0.2570  0.7244 -0.1510
  803MOL0     H 8399   9.469   0.843   3.576  3.6582  0.0893  1.0539
  803MOL0     H 8400   9.471   0.993   3.662 -3.8566  1.1334  0.0855
  803MOL0     H 8401   9.224   1.122   3.356  0.5504  1.8684  1.0167
  803MOL0     H 8402   9.827   0.703   2.984  2.0001 -2.4299 -1.7540
  803MOL0     H 8403   9.937   0.610   2.803  0.2671  0.8342  0.2488
  803MOL0     H 8404   9.925   0.766   2.706 -0.0147  1.2156  0.3288
  803MOL0     H 8405  10.072   0.682   2.716  0.7089 -0.9009  1.0017
  804MOL0     O 8406   5.404   4.271   8.889  0.2599  0.1684 -1.6007
  804MOL0     C 8407   5.386   4.327   8.994  0.5040  0.1035 -0.3743
  804MOL0     O 8408   5.482   4.361   9.088 -0.6527  0.2729  0.0914
  804MOL0     C 8409   5.616   4.321   9.064 -0.2410 -0.2585  0.0837
  804MOL0     C 8410   5.716   4.424   9.078  0.4688 -0.3750 -0.4673
  804MOL0     C 8411   5.848   4.398   9.100  0.6748  0.2777 -0.4272
  804MOL0     C 8412   5.898   4.270   9.080 -0.7356  0.6477  0.3844
  804MOL0     O 8413   6.034   4.245   9.088 -0.0327  0.2219 -0.8740
  804MOL0     C 8414   6.133   4.344   9.086  0.1504 -0.5128 -0.0804
  804MOL0     C 8415   6.275   4.295   9.072 -0.7398  0.8673  0.4425
  804MOL0     C 8416   6.371   4.406   9.092  0.5180 -0.0396 -0.6570
  804MOL0     C 8417   6.513   4.359   9.083  0.1626  0.5832 -0.4659
  804MOL0     C 8418   6.624   4.463   9.126  0.2941  0.9118 -0.7976
  804MOL0     C 8419   6.749   4.393   9.153 -0.6333  0.8525 -0.5936
  804MOL0     C 8420   6.853   4.502   9.173  0.2393  0.2591 -1.3897
  804MOL0     C 8421   6.990   4.437   9.177  0.0646 -0.3677  0.9880
  804MOL0     N 8422   7.096   4.531   9.169 -0.2013  0.4613 -0.2754
  804MOL0     C 8423   7.114   4.634   9.258 -0.8189  0.1623  0.5152
  804MOL0     C 8424   7.235   4.693   9.228 -0.2524  0.7280 -0.6605
  804MOL0     C 8425   7.295   4.812   9.290  0.1856 -0.6553  0.0382
  804MOL0     C 8426   7.436   4.768   9.354  0.4570  0.3419 -0.2206
  804MOL0     C 8427   7.515   4.891   9.400  0.1493 -0.5969  0.2295
  804MOL0     C 8428   7.647   4.868   9.470  0.0996  0.7733  0.0213
  804MOL0     O 8429   7.735   4.968   9.453 -0.1759 -0.1398 -0.0438
  804MOL0     C 8430   7.855   4.961   9.526 -0.3258  0.3484 -0.0848
  804MOL0     C 8431   7.951   5.056   9.507 -0.7075 -0.1881  0.7825
  804MOL0     C 8432   8.087   5.062   9.566  0.6292 -0.3597 -0.3156
  804MOL0     C 8433   8.113   4.961   9.661  0.3552 -0.1195 -0.1803
  804MOL0     C 8434   8.244   4.955   9.738 -0.6020 -1.0196 -0.2434
  804MOL0     O 8435   8.250   4.884   9.852  0.2370 -0.0444 -0.3160
  804MOL0     C 8436   8.361   4.817   9.901  0.2083  0.7265 -0.3130
  804MOL0     C 8437   8.366   4.681   9.913  0.5411  0.8418  1.0555
  804MOL0     C 8438   8.464   4.613   9.985  0.2034  0.5851 -0.0947
  804MOL0     C 8439   8.566   4.685  10.048  0.4636 -0.4732  0.0449
  804MOL0     O 8440   8.666   4.631  10.131 -1.0722 -0.1400  0.3742
  804MOL0     C 8441   8.657   4.498  10.168 -0.0139 -0.2726  0.4208
  804MOL0     C 8442   8.765   4.464  10.274 -0.7002 -0.5080 -0.3619
  804MOL0     C 8443   8.730   4.526  10.415 -0.0702  1.0419  0.6023
  804MOL0     C 8444   8.823   4.475  10.541 -0.3166  0.2649  0.2164
  804MOL0     C 8445   8.761   4.357  10.611 -0.9466 -0.2967 -0.1074
  804MOL0     C 8446   8.839   4.322  10.737 -0.6890 -0.8201  0.4041
  804MOL0     C 8447   8.757   4.237  10.828  0.2358  0.1772 -0.0964
  804MOL0     C 8448   8.839   4.193  10.949 -0.1842  0.2958 -0.6081
  804MOL0    Cl 8449   8.739   4.089  11.049  0.4169  0.3702  0.5483
  804MOL0     C 8450   8.569   4.822  10.024  0.8942 -0.3446  0.2457
  804MOL0     C 8451   8.465   4.893   9.954  0.4559  0.1606 -0.6444
  804MOL0     O 8452   8.335   5.013   9.680 -0.1005 -0.1238 -0.7791
  804MOL0     C 8453   8.015   4.861   9.675  0.2232  0.3862 -0.7276
  804MOL0     C 8454   7.895   4.859   9.608 -0.3852  0.1707 -0.5688
  804MOL0     N 8455   7.288   4.618   9.116  0.0162 -0.6747 -0.3579
  804MOL0     N 8456   7.201   4.524   9.087 -0.9242 -0.7044 -0.7716
  804MOL0     C 8457   5.804   4.167   9.064  0.0022  0.0196  0.3357
  804MOL0     C 8458   5.661   4.187   9.059  0.0576 -0.4610  0.1461
  804MOL0     C 8459   5.241   4.363   9.029 -0.8045  0.1789  0.8129
  804MOL0     C 8460   5.206   4.365   9.168  0.1400 -0.0415  0.2092
  804MOL0     C 8461   5.074   4.392   9.203 -0.0660 -0.5205  0.9166
  804MOL0     C 8462   4.983   4.432   9.112  0.1839 -0.4055 -0.0964
  804MOL0     O 8463   4.857   4.473   9.161  0.3322  0.0970  0.3748
  804MOL0     C 8464   4.774   4.557   9.081 -1.0109  0.5047  0.0286
  804MOL0     C 8465   4.741   4.675   9.171 -0.2032  0.4252 -0.1148
  804MOL0     C 8466   4.676   4.656   9.307  0.4809 -1.5048 -0.5235
  804MOL0     C 8467   4.660   4.796   9.384 -0.6273 -0.3042  0.2204
  804MOL0     C 8468   4.562   4.786   9.489 -0.5606  0.8326 -0.2060
  804MOL0     C 8469   4.501   4.792   9.595 -0.2404  1.0001  1.0293
  804MOL0     C 8470   5.023   4.434   8.980 -0.1892 -0.9257 -0.2294
  804MOL0     C 8471   5.144   4.402   8.936  0.1782 -0.6255 -0.6543
  804MOL0     C 8472   5.167   4.411   8.789 -1.1690  0.7907 -1.2822
  804MOL0     H 8473   5.686   4.529   9.078 -1.4661 -0.8813  0.1684
  804MOL0     H 8474   5.909   4.485   9.120 -0.5533  0.9974  0.3832
  804MOL0     H 8475   6.107   4.422   9.013 -1.0932 -2.0742 -1.3779
  804MOL0     H 8476   6.123   4.389   9.185 -0.0987 -0.0060 -0.3273
  804MOL0     H 8477   6.283   4.250   8.973  2.0760 -2.8163  2.1039
  804MOL0     H 8478   6.294   4.211   9.139 -1.2009 -1.7120 -2.4464
  804MOL0     H 8479   6.340   4.448   9.188 -3.9067 -2.1065 -0.9652
  804MOL0     H 8480   6.351   4.474   9.008 -0.4617 -3.0306 -2.9915
  804MOL0     H 8481   6.522   4.278   9.156  1.6958  1.8810  0.8520
  804MOL0     H 8482   6.539   4.322   8.983  0.2297 -0.1623 -0.1809
  804MOL0     H 8483   6.629   4.545   9.054 -3.1719 -0.0682 -2.3774
  804MOL0     H 8484   6.602   4.504   9.226  3.1192 -1.3683  0.9220
  804MOL0     H 8485   6.721   4.331   9.238  2.0557 -1.2933 -1.1182
  804MOL0     H 8486   6.770   4.320   9.073  1.9559 -2.0886  2.4887
  804MOL0     H 8487   6.830   4.573   9.253  1.2077  3.1694 -3.5120
  804MOL0     H 8488   6.859   4.568   9.086  2.0973  1.8443 -0.1240
  804MOL0     H 8489   6.984   4.378   9.269 -2.3861  0.3758  1.3936
  804MOL0     H 8490   6.992   4.379   9.084  5.2518  1.4811 -0.4015
  804MOL0     H 8491   7.055   4.661   9.345  0.3859  3.2071  0.4905
  804MOL0     H 8492   7.314   4.887   9.213  0.4016 -0.5918  0.1545
  804MOL0     H 8493   7.228   4.853   9.366 -0.2062  1.8538 -1.5562
  804MOL0     H 8494   7.428   4.712   9.447  4.7225 -0.7833 -0.3087
  804MOL0     H 8495   7.494   4.710   9.281  1.5616 -0.4181  1.2155
  804MOL0     H 8496   7.448   4.948   9.465 -2.5900 -1.9086 -1.2716
  804MOL0     H 8497   7.531   4.953   9.311 -2.0352 -1.4545 -0.8374
  804MOL0     H 8498   7.686   4.775   9.425 -0.2448 -0.0765  1.4139
  804MOL0     H 8499   7.631   4.838   9.574  3.2333 -2.9129 -0.2984
  804MOL0     H 8500   7.928   5.136   9.438 -0.4601 -0.9231 -0.1736
  804MOL0     H 8501   8.166   5.127   9.528 -0.7311  0.4628 -1.8838
  804MOL0     H 8502   8.276   4.637   9.870  0.8437 -1.5443  2.6184
  804MOL0     H 8503   8.451   4.505   9.990 -3.4152  0.9209  0.6975
  804MOL0     H 8504   8.560   4.487  10.217  0.5728  2.4579  2.5094
  804MOL0     H 8505   8.668   4.441  10.076  0.0761  0.6429 -0.1490
  804MOL0     H 8506   8.764   4.355  10.281  1.4716 -0.5427  0.1948
  804MOL0     H 8507   8.856   4.500  10.226 -0.7687 -1.4584 -1.2406
  804MOL0     H 8508   8.745   4.633  10.399 -1.9954  1.0948 -1.3628
  804MOL0     H 8509   8.624   4.508  10.436  0.2957 -2.1872  0.0893
  804MOL0     H 8510   8.846   4.562  10.603  4.0299  1.8537 -3.0521
  804MOL0     H 8511   8.923   4.442  10.512 -0.4530 -0.4253  0.5174
  804MOL0     H 8512   8.768   4.267  10.548  1.8533  0.5547 -1.1923
  804MOL0     H 8513   8.660   4.382  10.642 -1.0769 -0.3522 -0.4760
  804MOL0     H 8514   8.937   4.280  10.711  1.2735  2.4003  1.9871
  804MOL0     H 8515   8.857   4.420  10.782  0.3701 -1.9838  2.6821
  804MOL0     H 8516   8.729   4.142  10.782 -1.2148 -0.4260  1.8774
  804MOL0     H 8517   8.673   4.299  10.859  2.3999  2.0041  2.5485
  804MOL0     H 8518   8.935   4.143  10.935 -0.1983 -0.0625  0.4349
  804MOL0     H 8519   8.872   4.277  11.010 -2.0911  0.8954 -0.3140
  804MOL0     H 8520   8.662   4.873  10.047 -0.0216  0.8415  1.4330
  804MOL0     H 8521   8.481   5.000   9.961  0.9880 -0.0213  3.1993
  804MOL0     H 8522   8.021   4.775   9.741 -4.1397 -0.0614 -0.5871
  804MOL0     H 8523   7.824   4.783   9.638 -2.7561  1.9344 -1.3365
  804MOL0     H 8524   5.836   4.063   9.062 -1.4333 -0.4758  1.6021
  804MOL0     H 8525   5.587   4.110   9.078  0.1858 -0.2474  1.6315
  804MOL0     H 8526   5.285   4.336   9.238  2.2909  3.6623 -0.3821
  804MOL0     H 8527   5.031   4.383   9.302  0.2376 -1.8579  0.9413
  804MOL0     H 8528   4.682   4.502   9.061 -0.6838 -1.6516  3.4924
  804MOL0     H 8529   4.832   4.595   8.996  0.3937  0.6595  1.0180
  804MOL0     H 8530   4.698   4.746   9.100  0.5488  0.2899 -0.7152
  804MOL0     H 8531   4.832   4.725   9.203 -0.7928  0.2081  2.0474
  804MOL0     H 8532   4.740   4.591   9.368  2.7877  0.7248 -0.4226
  804MOL0     H 8533   4.576   4.619   9.282 -0.4207  0.9346 -0.8059
  804MOL0     H 8534   4.757   4.818   9.430 -0.0363 -1.0379 -0.6272
  804MOL0     H 8535   4.631   4.874   9.313  2.1223  0.1549 -0.5211
  804MOL0     H 8536   4.437   4.805   9.680 -3.0127 -1.3466 -0.5611
  804MOL0     H 8537   4.937   4.454   8.917 -1.2703 -3.3217  0.3924
  804MOL0     H 8538   5.174   4.307   8.756 -1.8367 -0.7259  2.7134
  804MOL0     H 8539   5.089   4.460   8.731 -0.1312  1.8297 -1.8443
  804MOL0     H 8540   5.261   4.468   8.784 -0.1108 -0.5208  1.2885
  805MOL0     O 8541   8.411   2.803   3.099  0.5550 -0.0083  0.4706
  805MOL0     C 8542   8.344   2.904   3.092  0.7467 -0.9073 -1.3394
  805MOL0     O 8543   8.387   3.017   3.025  0.5650 -1.0022  0.0646
  805MOL0     C 8544   8.478   3.006   2.924 -0.3079  0.8302  0.2299
  805MOL0     C 8545   8.576   3.107   2.915  0.8905  0.2475  0.5996
  805MOL0     C 8546   8.686   3.099   2.822  0.4394 -0.3256 -0.3683
  805MOL0     C 8547   8.684   2.998   2.726  0.4631  0.3347 -0.3418
  805MOL0     O 8548   8.797   2.991   2.656 -1.5332 -0.0737  0.3093
  805MOL0     C 8549   8.822   2.877   2.579  0.1246  0.1454  0.8311
  805MOL0     C 8550   8.953   2.879   2.493  0.2865  0.3073  0.5642
  805MOL0     C 8551   9.072   2.892   2.575  0.3442  0.3425 -0.0468
  805MOL0     C 8552   9.193   2.874   2.486  0.0266  0.3979 -0.4006
  805MOL0     C 8553   9.329   2.855   2.570 -0.2024  0.4709 -0.1242
  805MOL0     C 8554   9.402   2.983   2.605  0.6443 -0.7273  0.2559
  805MOL0     C 8555   9.539   2.964   2.670 -0.2482 -0.5466 -0.4902
  805MOL0     C 8556   9.584   3.105   2.713  0.7383  0.4933  0.7449
  805MOL0     N 8557   9.676   3.089   2.826  0.7758  0.3258 -0.0526
  805MOL0     C 8558   9.791   3.017   2.817 -0.1572 -0.2708  0.3503
  805MOL0     C 8559   9.845   3.039   2.941 -0.4843 -0.6367 -0.5203
  805MOL0     C 8560   9.977   2.978   2.998  0.4198  0.4846  0.0425
  805MOL0     C 8561  10.088   3.076   2.987 -0.3566 -0.4840  0.2339
  805MOL0     C 8562  10.211   3.010   3.032 -0.3295 -0.9549 -0.8741
  805MOL0     C 8563  10.316   3.107   3.091  0.6891  0.0872 -1.1116
  805MOL0     O 8564  10.265   3.193   3.197 -0.1553 -0.1342 -0.3872
  805MOL0     C 8565  10.351   3.213   3.302  0.8715 -0.0740 -0.6942
  805MOL0     C 8566  10.332   3.157   3.428 -0.1104  0.3276  0.3585
  805MOL0     C 8567  10.416   3.186   3.531 -1.0387  0.1966 -0.4709
  805MOL0     C 8568  10.536   3.263   3.513 -0.4042 -0.9558  0.3276
  805MOL0     C 8569  10.629   3.280   3.624  0.0318  0.3484  0.3365
  805MOL0     O 8570  10.746   3.353   3.600  0.4729 -0.0264 -1.0407
  805MOL0     C 8571  10.846   3.344   3.696 -0.4350  1.0845  0.5689
  805MOL0     C 8572  10.916   3.227   3.720 -0.2039 -0.4291 -0.0998
  805MOL0     C 8573  11.015   3.213   3.823  0.5141  0.4884 -0.3493
  805MOL0     C 8574  11.052   3.333   3.889 -0.5713 -0.2309 -0.2984
  805MOL0     O 8575  11.149   3.331   3.986 -0.0878 -0.6055 -0.0758
  805MOL0     C 8576  11.256   3.245   3.963  0.8013 -0.5617 -0.3757
  805MOL0     C 8577  11.378   3.294   4.044 -0.3089  0.0161 -1.0498
  805MOL0     C 8578  11.371   3.262   4.196 -0.5756 -0.2036 -0.1890
  805MOL0     C 8579  11.458   3.348   4.278 -0.3352  0.1394  0.1801
  805MOL0     C 8580  11.405   3.498   4.289  0.3514  0.5414  0.5071
  805MOL0     C 8581  11.517   3.581   4.357 -0.6037 -0.3334  0.3087
  805MOL0     C 8582  11.494   3.732   4.369 -0.3728  0.2416 -0.3920
  805MOL0     C 8583  11.624   3.808   4.389  0.7098  0.4690 -0.3186
  805MOL0    Cl 8584  11.703   3.767   4.552 -0.1454  0.4550 -0.4622
  805MOL0     C 8585  10.995   3.453   3.846 -0.4953 -0.0541  0.6887
  805MOL0     C 8586  10.891   3.463   3.753 -0.3054  0.2360  0.0850
  805MOL0     O 8587  10.609   3.207   3.717  0.4403 -0.0761 -1.3057
  805MOL0     C 8588  10.557   3.318   3.378  0.4551  0.2018  0.1649
  805MOL0     C 8589  10.464   3.296   3.282  0.6115  0.6838  1.1194
  805MOL0     N 8590   9.769   3.133   3.013  0.1801 -0.0241 -0.5393
  805MOL0     N 8591   9.668   3.162   2.939 -0.4583 -0.7186  0.7237
  805MOL0     C 8592   8.584   2.894   2.729 -0.2165  0.8553 -0.7372
  805MOL0     C 8593   8.481   2.901   2.830 -0.1309 -0.4572 -0.1338
  805MOL0     C 8594   8.203   2.902   3.137 -0.7163  0.4210  0.2450
  805MOL0     C 8595   8.108   2.987   3.064 -0.5264  0.0452 -0.2021
  805MOL0     C 8596   7.980   3.003   3.108 -0.5290  0.1498  0.5404
  805MOL0     C 8597   7.930   2.929   3.218 -0.8097  0.0469  0.1664
  805MOL0     O 8598   7.795   2.933   3.239  0.3062 -0.0874 -0.1052
  805MOL0     C 8599   7.738   2.868   3.356  0.2937 -0.5945 -0.4102
  805MOL0     C 8600   7.745   2.715   3.333 -0.1799 -0.6194 -0.3219
  805MOL0     C 8601   7.600   2.654   3.344 -0.8670 -0.3276 -0.6092
  805MOL0     C 8602   7.609   2.515   3.410 -0.6669  0.7953  1.1304
  805MOL0     C 8603   7.474   2.454   3.437 -0.2289 -0.3745 -0.9739
  805MOL0     C 8604   7.380   2.404   3.488  0.7217 -0.1287 -0.1505
  805MOL0     C 8605   8.019   2.849   3.292 -0.6901 -0.8021 -0.0116
  805MOL0     C 8606   8.153   2.833   3.252 -0.3215  0.2700  0.1668
  805MOL0     C 8607   8.238   2.755   3.348 -1.0570 -1.2279  0.2102
  805MOL0     H 8608   8.573   3.179   2.996 -0.3618  1.2876 -0.3191
  805MOL0     H 8609   8.773   3.164   2.824 -0.0063  0.2764  1.4000
  805MOL0     H 8610   8.825   2.790   2.645 -1.8602  0.7308  1.7825
  805MOL0     H 8611   8.731   2.878   2.519 -0.7219 -3.0033  1.8844
  805MOL0     H 8612   8.954   2.968   2.429  1.6789  0.5333  0.8702
  805MOL0     H 8613   8.950   2.788   2.434 -0.4179  0.0376  0.9978
  805MOL0     H 8614   9.074   2.813   2.650 -3.4293 -0.4703 -0.6042
  805MOL0     H 8615   9.072   2.983   2.635 -1.5820  0.6110 -0.3818
  805MOL0     H 8616   9.167   2.793   2.418 -0.1062 -0.6464  0.8589
  805MOL0     H 8617   9.199   2.957   2.415 -0.8755 -1.8205 -3.2633
  805MOL0     H 8618   9.316   2.791   2.658  1.5738  0.0829 -0.1184
  805MOL0     H 8619   9.387   2.784   2.512 -1.8666 -1.8565  0.8809
  805MOL0     H 8620   9.402   3.036   2.510  0.8111 -0.5017  0.3824
  805MOL0     H 8621   9.330   3.046   2.659 -1.0141 -3.2549  1.1962
  805MOL0     H 8622   9.601   2.920   2.591  1.1831  0.2484  0.1574
  805MOL0     H 8623   9.536   2.892   2.752 -1.6862  2.3031  2.1412
  805MOL0     H 8624   9.634   3.147   2.625  3.0249 -2.9858  0.2157
  805MOL0     H 8625   9.501   3.169   2.745  0.0688 -0.3730  0.7576
  805MOL0     H 8626   9.826   2.955   2.735  2.5833 -2.4010  2.8985
  805MOL0     H 8627   9.958   2.952   3.103  0.0736 -0.3549 -0.2221
  805MOL0     H 8628  10.006   2.882   2.955 -0.5018  0.3247 -0.2461
  805MOL0     H 8629  10.092   3.125   2.889 -0.4495  1.1285  1.0053
  805MOL0     H 8630  10.064   3.158   3.056 -4.8160 -0.6521 -0.8162
  805MOL0     H 8631  10.263   2.962   2.949  0.8183 -0.4798 -0.4571
  805MOL0     H 8632  10.185   2.934   3.106  2.9182 -0.3424  1.1198
  805MOL0     H 8633  10.351   3.171   3.009  1.7307  0.7390 -0.1789
  805MOL0     H 8634  10.397   3.044   3.129  1.1006 -0.3576 -2.6492
  805MOL0     H 8635  10.252   3.088   3.451 -0.1380  0.4280  0.5685
  805MOL0     H 8636  10.388   3.145   3.627 -1.6917 -1.0839 -1.1850
  805MOL0     H 8637  10.876   3.139   3.670  1.0946 -1.9250  1.3836
  805MOL0     H 8638  11.078   3.127   3.841  2.8805  2.6700  3.0549
  805MOL0     H 8639  11.239   3.140   3.989 -0.6500 -0.0319  1.0128
  805MOL0     H 8640  11.283   3.249   3.857 -0.9414  2.3009 -0.8206
  805MOL0     H 8641  11.467   3.240   4.010 -1.0632 -2.0807  0.1243
  805MOL0     H 8642  11.403   3.398   4.021 -2.5411  1.0621  0.8076
  805MOL0     H 8643  11.271   3.288   4.233  0.5745  2.0413  1.5915
  805MOL0     H 8644  11.396   3.159   4.223 -1.4913 -0.0787  1.2503
  805MOL0     H 8645  11.561   3.357   4.241  0.3918  0.4356  2.1671
  805MOL0     H 8646  11.464   3.317   4.382 -2.4287 -2.0293 -0.2502
  805MOL0     H 8647  11.321   3.491   4.358  2.0103 -1.4356  2.5169
  805MOL0     H 8648  11.378   3.533   4.189 -3.2356 -2.0100  0.4109
  805MOL0     H 8649  11.545   3.538   4.454  1.0118 -0.1925 -0.0613
  805MOL0     H 8650  11.602   3.566   4.290 -1.0427 -0.6760 -0.1797
  805MOL0     H 8651  11.428   3.747   4.455 -2.2640 -3.3782 -1.0523
  805MOL0     H 8652  11.453   3.767   4.274  1.0881  3.0722 -0.1125
  805MOL0     H 8653  11.695   3.798   4.307  0.3422 -2.4717 -0.4018
  805MOL0     H 8654  11.612   3.916   4.377 -1.6477  0.0548 -2.3721
  805MOL0     H 8655  11.036   3.543   3.889  0.6148  0.0100 -0.4537
  805MOL0     H 8656  10.831   3.551   3.730  1.4861  1.3545 -0.5441
  805MOL0     H 8657  10.648   3.371   3.352  1.8002 -1.3260  1.5188
  805MOL0     H 8658  10.484   3.340   3.185  0.5391 -0.4813  0.5518
  805MOL0     H 8659   8.593   2.810   2.661  1.2248  0.3527  0.0377
  805MOL0     H 8660   8.424   2.816   2.864 -2.3350  2.1357  3.4235
  805MOL0     H 8661   8.141   3.044   2.977 -1.7525  3.5590  1.4421
  805MOL0     H 8662   7.922   3.078   3.056  2.1063  3.3493  1.9059
  805MOL0     H 8663   7.633   2.900   3.365  0.1708 -0.6995 -1.3887
  805MOL0     H 8664   7.791   2.884   3.450 -3.1812 -2.5872  2.1593
  805MOL0     H 8665   7.809   2.677   3.413 -0.7630 -2.7379 -0.8131
  805MOL0     H 8666   7.785   2.689   3.234  0.8906 -0.7517  0.1369
  805MOL0     H 8667   7.562   2.659   3.242 -1.3759 -0.7378 -0.4495
  805MOL0     H 8668   7.529   2.713   3.403 -0.6940  0.8088 -1.4940
  805MOL0     H 8669   7.665   2.451   3.341  0.1959  1.7279  0.9441
  805MOL0     H 8670   7.665   2.518   3.503  2.5444  0.2721 -0.6464
  805MOL0     H 8671   7.296   2.374   3.548  0.3693 -0.5432 -0.8445
  805MOL0     H 8672   7.981   2.797   3.380  0.9120  0.9723  1.8135
  805MOL0     H 8673   8.326   2.816   3.367 -2.1113 -0.4025  2.8251
  805MOL0     H 8674   8.198   2.730   3.447  1.9130 -1.4431  1.4646
  805MOL0     H 8675   8.271   2.658   3.310 -1.5470 -1.0199 -0.7784
  806MOL0     O 8676   1.477   4.339  10.572 -0.3781 -0.4777  1.1113
  806MOL0     C 8677   1.409   4.242  10.604 -0.0237 -0.9326  0.2966
  806MOL0     O 8678   1.367   4.150  10.505  0.1574  0.3215  0.3588
  806MOL0     C 8679   1.416   4.151  10.377 -0.5808  0.4764 -1.2382
  806MOL0     C 8680   1.533   4.092  10.340  0.3453 -0.2913 -0.1887
  806MOL0     C 8681   1.574   4.091  10.213 -0.3873  0.9754 -0.2191
  806MOL0     C 8682   1.499   4.151  10.110 -0.3319 -0.9117  1.2592
  806MOL0     O 8683   1.556   4.156   9.988 -0.8205 -0.1387  0.6201
  806MOL0     C 8684   1.499   4.202   9.872 -1.0938  0.3104  0.6044
  806MOL0     C 8685   1.616   4.207   9.764 -0.2948  1.0666  0.0501
  806MOL0     C 8686   1.677   4.067   9.746  0.7461 -0.9602 -0.7986
  806MOL0     C 8687   1.832   4.083   9.730  0.6298  0.2264 -0.0055
  806MOL0     C 8688   1.883   3.947   9.694 -0.2921 -0.3191 -0.1912
  806MOL0     C 8689   2.038   3.947   9.677 -0.5479 -0.5506  0.1003
  806MOL0     C 8690   2.086   4.010   9.548 -0.9668 -0.0292 -1.1509
  806MOL0     C 8691   2.070   3.924   9.420  0.8960  0.5439 -0.0530
  806MOL0     N 8692   2.112   3.789   9.434 -0.3571 -0.1932 -0.0021
  806MOL0     C 8693   2.206   3.741   9.347  0.1558  0.7223 -0.6466
  806MOL0     C 8694   2.190   3.604   9.348 -0.8036 -0.4784  0.5343
  806MOL0     C 8695   2.288   3.511   9.279  0.6123 -0.4717  0.1230
  806MOL0     C 8696   2.273   3.514   9.125  0.3255 -0.1602  0.8190
  806MOL0     C 8697   2.135   3.484   9.066 -0.3468 -0.2147 -0.0192
  806MOL0     C 8698   2.121   3.533   8.916 -0.4710  0.0281 -0.1215
  806MOL0     O 8699   2.170   3.666   8.908 -0.0102  0.4786 -0.0727
  806MOL0     C 8700   2.111   3.778   8.968 -0.1703 -0.5068 -0.5043
  806MOL0     C 8701   1.994   3.771   9.033  0.6863  0.1420  0.3171
  806MOL0     C 8702   1.929   3.886   9.085 -1.0110 -1.5746 -0.1692
  806MOL0     C 8703   2.003   4.016   9.076  0.1859 -0.3529  0.5967
  806MOL0     C 8704   1.950   4.134   9.126  0.6309  0.2853  0.1552
  806MOL0     O 8705   2.030   4.243   9.104  0.1817 -0.9698  0.0313
  806MOL0     C 8706   1.991   4.348   9.178 -1.0685 -1.2144  0.2378
  806MOL0     C 8707   2.029   4.362   9.315  0.4672 -0.0082  0.2327
  806MOL0     C 8708   1.975   4.457   9.396  0.9700  0.2753  0.6999
  806MOL0     C 8709   1.884   4.543   9.345 -0.2904 -1.0395  0.3612
  806MOL0     O 8710   1.822   4.647   9.410  0.3543 -0.3429 -0.2751
  806MOL0     C 8711   1.856   4.675   9.546 -0.0460  0.2680 -0.4458
  806MOL0     C 8712   1.766   4.583   9.639  0.2425 -0.2288 -0.6994
  806MOL0     C 8713   1.757   4.652   9.776 -0.0804  0.6287 -0.6100
  806MOL0     C 8714   1.684   4.551   9.864  0.1465  0.1169 -0.3330
  806MOL0     C 8715   1.649   4.611  10.000 -0.5370  0.3854 -0.4451
  806MOL0     C 8716   1.560   4.515  10.069  0.2938  0.0295 -0.1380
  806MOL0     C 8717   1.531   4.553  10.217 -0.1663 -0.4170  0.2952
  806MOL0     C 8718   1.650   4.538  10.317  0.1813  0.0175  0.1266
  806MOL0    Cl 8719   1.743   4.693  10.317 -0.5208  0.4100  0.2199
  806MOL0     C 8720   1.848   4.543   9.208 -0.0331 -0.4486  0.3201
  806MOL0     C 8721   1.892   4.435   9.126  0.6739 -0.0981 -0.3538
  806MOL0     O 8722   1.843   4.131   9.181 -0.1295  1.2709 -0.2250
  806MOL0     C 8723   2.128   4.018   9.019  0.3762 -0.2690  0.2688
  806MOL0     C 8724   2.181   3.903   8.960  0.6577 -0.7914 -0.0374
  806MOL0     N 8725   2.089   3.564   9.429 -0.0904 -1.6455  0.1022
  806MOL0     N 8726   2.043   3.680   9.477  0.2568 -0.3190  0.1459
  806MOL0     C 8727   1.383   4.219  10.136 -0.0411 -0.3639  0.6348
  806MOL0     C 8728   1.337   4.207  10.271 -0.6580 -0.1321  0.0502
  806MOL0     C 8729   1.358   4.224  10.742 -0.1252 -0.9043  0.6726
  806MOL0     C 8730   1.286   4.104  10.766  0.2752 -0.0577  0.1764
  806MOL0     C 8731   1.234   4.074  10.889 -0.7637  0.4780 -0.2966
  806MOL0     C 8732   1.235   4.168  10.989 -0.9537  0.6030  0.0861
  806MOL0     O 8733   1.185   4.151  11.109 -0.3476 -0.0168 -0.2954
  806MOL0     C 8734   1.151   4.022  11.157 -0.2884  0.2496 -0.7805
  806MOL0     C 8735   1.278   3.959  11.210  0.5831 -0.0942 -0.6003
  806MOL0     C 8736   1.255   3.821  11.268 -0.6593 -0.2683 -0.4375
  806MOL0     C 8737   1.189   3.718  11.180 -0.6824 -0.4296  0.8729
  806MOL0     C 8738   1.160   3.594  11.251 -0.8955  0.5474 -0.5426
  806MOL0     C 8739   1.120   3.499  11.324 -0.2122  0.1886 -0.5590
  806MOL0     C 8740   1.302   4.289  10.969 -0.4999 -0.2549  0.1600
  806MOL0     C 8741   1.357   4.319  10.847 -0.4600 -0.0413  0.6019
  806MOL0     C 8742   1.430   4.458  10.832  0.7966  0.5453 -0.4386
  806MOL0     H 8743   1.591   4.058  10.425  1.9437 -0.3656 -1.2742
  806MOL0     H 8744   1.663   4.031  10.194 -1.9618 -2.0662  1.3583
  806MOL0     H 8745   1.422   4.129   9.846 -1.1311 -1.1979  4.2971
  806MOL0     H 8746   1.451   4.299   9.892  3.5681  2.7658  1.2799
  806MOL0     H 8747   1.691   4.275   9.805  0.2049  0.1872  0.6235
  806MOL0     H 8748   1.582   4.236   9.664  3.0640 -0.2596 -1.6052
  806MOL0     H 8749   1.635   4.024   9.654 -1.1967  0.5408 -0.6715
  806MOL0     H 8750   1.651   4.001   9.829  2.9706  0.5903  1.2552
  806MOL0     H 8751   1.852   4.154   9.649  0.3422 -0.2073 -0.4570
  806MOL0     H 8752   1.867   4.114   9.829 -1.1971 -3.2584  1.9130
  806MOL0     H 8753   1.849   3.866   9.759  0.2954 -0.4112  0.0006
  806MOL0     H 8754   1.840   3.911   9.600 -2.5523  2.3261 -0.3118
  806MOL0     H 8755   2.082   3.989   9.768 -1.1997  0.1523  0.0961
  806MOL0     H 8756   2.069   3.842   9.683  3.0839  0.4231  0.9260
  806MOL0     H 8757   2.193   4.033   9.555 -0.7282 -1.5077  1.1403
  806MOL0     H 8758   2.030   4.100   9.519 -0.9568 -0.1807 -1.6439
  806MOL0     H 8759   1.962   3.916   9.399  0.8468  4.7477 -2.4249
  806MOL0     H 8760   2.113   3.971   9.331 -3.9654  1.9885 -2.0331
  806MOL0     H 8761   2.287   3.795   9.300  1.7333 -1.8281 -1.0434
  806MOL0     H 8762   2.390   3.547   9.298 -0.2924  1.4873  1.6676
  806MOL0     H 8763   2.281   3.412   9.325  0.2182 -2.8933 -4.5909
  806MOL0     H 8764   2.318   3.605   9.084  3.2173 -2.2642 -0.9419
  806MOL0     H 8765   2.342   3.439   9.088 -2.9345 -3.6688  1.2115
  806MOL0     H 8766   2.058   3.524   9.132 -1.1929  0.2817 -1.2702
  806MOL0     H 8767   2.119   3.376   9.064 -0.0707 -0.2535 -0.3428
  806MOL0     H 8768   2.019   3.527   8.876  0.5276  0.8936 -2.9812
  806MOL0     H 8769   2.195   3.477   8.858 -1.2779 -0.0772 -1.0771
  806MOL0     H 8770   1.938   3.678   9.034  1.9580 -0.6393  0.3575
  806MOL0     H 8771   1.830   3.878   9.129 -1.3079  2.5647  0.3190
  806MOL0     H 8772   2.116   4.308   9.352 -0.2323 -0.7195  0.8671
  806MOL0     H 8773   2.014   4.451   9.498  2.4282  1.8112  0.2684
  806MOL0     H 8774   1.963   4.660   9.564  0.0221  1.8739  0.7069
  806MOL0     H 8775   1.833   4.779   9.569  1.3834  0.5916 -0.3465
  806MOL0     H 8776   1.663   4.578   9.603 -0.7642  2.3767  1.5485
  806MOL0     H 8777   1.803   4.480   9.650 -0.7946 -1.0510 -3.7987
  806MOL0     H 8778   1.853   4.668   9.824 -0.8986 -0.2679  1.4294
  806MOL0     H 8779   1.698   4.742   9.760 -1.6712 -0.1619  0.5149
  806MOL0     H 8780   1.757   4.471   9.877 -0.0176  0.0541  0.2464
  806MOL0     H 8781   1.600   4.504   9.811 -0.3137 -0.8297  1.1759
  806MOL0     H 8782   1.599   4.708   9.991 -1.2081 -0.0689 -2.2653
  806MOL0     H 8783   1.745   4.634  10.045 -1.5513  2.6030  0.7376
  806MOL0     H 8784   1.466   4.515  10.012 -1.1652  0.6787  2.1314
  806MOL0     H 8785   1.595   4.411  10.066  3.0732  0.8169  1.4011
  806MOL0     H 8786   1.450   4.490  10.253 -1.2472  0.1330 -1.1036
  806MOL0     H 8787   1.502   4.657  10.233  1.3747 -0.0979  1.2858
  806MOL0     H 8788   1.604   4.529  10.416 -1.1699  1.6361 -0.3141
  806MOL0     H 8789   1.710   4.447  10.304 -1.4919 -0.8373 -2.3887
  806MOL0     H 8790   1.800   4.637   9.183 -0.2570 -0.9407 -1.2297
  806MOL0     H 8791   1.841   4.420   9.031 -2.0226 -0.4548  1.0388
  806MOL0     H 8792   2.193   4.105   9.026  1.5805 -1.0333 -0.9152
  806MOL0     H 8793   2.282   3.906   8.920  1.6729  0.5317  2.3382
  806MOL0     H 8794   1.334   4.287  10.068 -0.1113  0.5934  1.6056
  806MOL0     H 8795   1.264   4.270  10.321 -0.3274  0.5377 -0.3014
  806MOL0     H 8796   1.276   4.024  10.693 -1.0084  1.5217 -1.4623
  806MOL0     H 8797   1.186   3.976  10.890 -0.9786  0.5822  0.6579
  806MOL0     H 8798   1.103   3.957  11.083 -1.0966 -1.0491  0.8171
  806MOL0     H 8799   1.079   4.029  11.239  0.2055 -0.2484 -0.2963
  806MOL0     H 8800   1.321   4.023  11.287  2.1120  0.6089 -1.9848
  806MOL0     H 8801   1.350   3.955  11.127  0.0070  2.5681 -1.3187
  806MOL0     H 8802   1.197   3.837  11.359 -1.6918  3.7653 -1.5639
  806MOL0     H 8803   1.345   3.770  11.303 -0.2165  2.8000  3.6105
  806MOL0     H 8804   1.094   3.767  11.155  1.3558  2.3034 -2.4582
  806MOL0     H 8805   1.243   3.692  11.088 -0.3916  2.3569  0.1838
  806MOL0     H 8806   1.074   3.437  11.399 -3.9294  2.5879 -0.5709
  806MOL0     H 8807   1.325   4.362  11.046 -1.6099  1.3052 -0.9332
  806MOL0     H 8808   1.522   4.445  10.774 -0.7777  0.2303 -3.0318
  806MOL0     H 8809   1.373   4.526  10.768  1.6917  2.3674  0.6255
  806MOL0     H 8810   1.447   4.498  10.932  0.5295 -1.1778  0.3293
  807MOL0     O 8811   9.353   8.195   8.478 -0.8473 -0.0780 -0.3439
  807MOL0     C 8812   9.312   8.301   8.437  0.2248  0.6631 -0.2742
  807MOL0     O 8813   9.358   8.422   8.488  0.7414 -0.2712  0.2393
  807MOL0     C 8814   9.450   8.431   8.590 -0.3033  0.2572  1.1087
  807MOL0     C 8815   9.548   8.335   8.618 -0.0020 -0.4625  0.1951
  807MOL0     C 8816   9.652   8.370   8.711 -0.3378 -0.2386  0.5161
  807MOL0     C 8817   9.633   8.483   8.786 -0.9747 -0.3334 -0.1742
  807MOL0     O 8818   9.735   8.513   8.872  0.2423  0.8768 -0.4027
  807MOL0     C 8819   9.701   8.536   9.007  0.9924  1.1634 -0.4652
  807MOL0     C 8820   9.757   8.424   9.104  0.0227  0.2765 -0.2058
  807MOL0     C 8821   9.687   8.284   9.080  0.8239 -0.7504  1.0168
  807MOL0     C 8822   9.714   8.194   9.201  0.1092  1.0839 -0.5073
  807MOL0     C 8823   9.862   8.172   9.230  0.2540 -0.6619 -0.3886
  807MOL0     C 8824   9.898   8.032   9.302 -0.6304 -0.3836  0.1856
  807MOL0     C 8825  10.047   8.006   9.311 -0.0052  0.0336 -0.6899
  807MOL0     C 8826  10.132   8.086   9.406  0.4369 -0.2184 -0.6613
  807MOL0     N 8827  10.191   8.217   9.356  0.6224 -0.0107 -0.4590
  807MOL0     C 8828  10.138   8.341   9.392  0.4587 -0.8973  0.8486
  807MOL0     C 8829  10.208   8.423   9.305  0.1349 -0.1204 -0.7521
  807MOL0     C 8830  10.200   8.565   9.283 -0.2474 -0.5471  0.6665
  807MOL0     C 8831  10.099   8.620   9.187  0.8939  0.1816  0.7415
  807MOL0     C 8832  10.137   8.768   9.170  0.7789  0.3200 -0.2968
  807MOL0     C 8833  10.042   8.830   9.069  0.4732 -0.0655  0.9092
  807MOL0     O 8834   9.921   8.852   9.129  0.5615  0.0755  0.3211
  807MOL0     C 8835   9.808   8.901   9.060 -0.3771 -0.2372  0.2874
  807MOL0     C 8836   9.695   8.897   9.131  0.4886 -0.6016  0.5548
  807MOL0     C 8837   9.574   8.951   9.077  0.5912  0.0285  0.0766
  807MOL0     C 8838   9.568   9.018   8.951 -0.3095 -1.0435 -0.3226
  807MOL0     C 8839   9.441   9.080   8.897  0.1757 -0.0956 -0.2924
  807MOL0     O 8840   9.334   9.072   8.970 -0.0448 -0.8547 -0.6899
  807MOL0     C 8841   9.216   9.071   8.905  0.3243  0.2624 -0.5380
  807MOL0     C 8842   9.189   8.972   8.804  0.0497 -0.4734  0.3672
  807MOL0     C 8843   9.064   8.966   8.742  0.3574 -0.3677 -0.0344
  807MOL0     C 8844   8.975   9.075   8.756 -0.0154 -0.4960 -0.3583
  807MOL0     O 8845   8.855   9.065   8.678 -0.1758 -0.6163 -0.4561
  807MOL0     C 8846   8.763   9.175   8.682  0.4388 -0.3866  0.5174
  807MOL0     C 8847   8.780   9.280   8.568  0.0517 -0.3444 -0.3767
  807MOL0     C 8848   8.881   9.225   8.453  0.5964  0.1930  0.7969
  807MOL0     C 8849   8.906   9.338   8.349 -0.4752 -0.6112 -0.0713
  807MOL0     C 8850   9.009   9.292   8.246  0.1377  0.0603  0.0711
  807MOL0     C 8851   9.059   9.414   8.170  0.2812  1.1341  0.2453
  807MOL0     C 8852   9.176   9.381   8.077  0.4693  0.3110 -0.4301
  807MOL0     C 8853   9.248   9.513   8.046  0.2826 -0.0291  0.6608
  807MOL0    Cl 8854   9.130   9.646   7.987  0.3734 -0.5349  0.3817
  807MOL0     C 8855   9.010   9.174   8.843 -0.0152 -0.3964 -0.2293
  807MOL0     C 8856   9.127   9.178   8.910  1.0291  1.6445  0.7817
  807MOL0     O 8857   9.445   9.123   8.784 -0.1031 -0.3793  0.0183
  807MOL0     C 8858   9.692   9.013   8.879  0.3540 -0.5473  0.6464
  807MOL0     C 8859   9.808   8.956   8.934  0.0025  0.2131  0.0462
  807MOL0     N 8860  10.282   8.348   9.219 -0.7024 -0.5362  0.0307
  807MOL0     N 8861  10.268   8.221   9.244 -0.1415 -0.2007  0.2140
  807MOL0     C 8862   9.521   8.567   8.768 -1.2392  0.4446  0.9626
  807MOL0     C 8863   9.447   8.550   8.655 -0.0691  0.5539 -0.1269
  807MOL0     C 8864   9.217   8.313   8.315  0.1439 -1.1839 -0.2881
  807MOL0     C 8865   9.152   8.197   8.275  0.5435  0.5344  0.4929
  807MOL0     C 8866   9.061   8.201   8.174  0.8664 -0.0340 -0.0856
  807MOL0     C 8867   9.050   8.308   8.091  0.2462  0.0837 -0.4223
  807MOL0     O 8868   8.964   8.284   7.990  0.3085 -0.2960 -0.4001
  807MOL0     C 8869   8.950   8.372   7.882 -0.5613  0.3085 -0.5866
  807MOL0     C 8870   8.844   8.486   7.908  0.8897  0.2229  0.0535
  807MOL0     C 8871   8.709   8.436   7.852  0.4207 -0.3781  0.3030
  807MOL0     C 8872   8.602   8.542   7.869  1.1968 -0.3264 -0.4328
  807MOL0     C 8873   8.631   8.675   7.805 -0.7530 -0.2362  0.8134
  807MOL0     C 8874   8.653   8.777   7.732  0.8781  0.6071 -0.1956
  807MOL0     C 8875   9.119   8.431   8.123  0.0670  0.4865 -0.1424
  807MOL0     C 8876   9.200   8.433   8.242 -0.0190 -0.0993 -0.2338
  807MOL0     C 8877   9.277   8.564   8.273  1.0623 -0.3653  0.2546
  807MOL0     H 8878   9.569   8.247   8.558 -1.0626 -0.5813 -0.0321
  807MOL0     H 8879   9.744   8.313   8.717 -1.0200 -1.3811  0.5012
  807MOL0     H 8880   9.745   8.629   9.043  2.5018 -0.1123  1.1881
  807MOL0     H 8881   9.591   8.542   9.004  0.9617  0.4750 -1.0672
  807MOL0     H 8882   9.734   8.451   9.208  2.6275  1.8874  0.0562
  807MOL0     H 8883   9.865   8.430   9.084 -0.3387  3.9440 -1.8752
  807MOL0     H 8884   9.712   8.239   8.984 -0.1372  1.9779 -0.6483
  807MOL0     H 8885   9.579   8.302   9.072  1.0577  0.6629  0.7854
  807MOL0     H 8886   9.661   8.241   9.285 -0.1365  1.2992 -0.7796
  807MOL0     H 8887   9.667   8.099   9.176 -0.0173  1.7427 -3.1139
  807MOL0     H 8888   9.918   8.169   9.135  0.6655 -0.3565 -0.1604
  807MOL0     H 8889   9.904   8.258   9.282 -0.0104 -0.5074 -0.4292
  807MOL0     H 8890   9.850   8.034   9.400 -1.2404  0.5534 -0.1179
  807MOL0     H 8891   9.854   7.954   9.240  0.0666 -0.3548 -0.3517
  807MOL0     H 8892  10.088   8.007   9.209  3.9516  2.0036  0.7108
  807MOL0     H 8893  10.065   7.907   9.354  0.9670  0.1598 -0.7932
  807MOL0     H 8894  10.080   8.099   9.502  1.4839 -0.6783 -0.0067
  807MOL0     H 8895  10.218   8.022   9.428  0.6539  0.5718  0.9565
  807MOL0     H 8896  10.062   8.362   9.466  0.7601 -0.2530  0.9776
  807MOL0     H 8897  10.185   8.618   9.378  1.6400  0.7959  0.2861
  807MOL0     H 8898  10.301   8.592   9.250 -0.8775 -1.2448 -2.0070
  807MOL0     H 8899  10.103   8.574   9.088 -0.5744  1.7467 -0.0847
  807MOL0     H 8900   9.997   8.618   9.225 -0.4811  3.2102 -2.3386
  807MOL0     H 8901  10.230   8.767   9.111 -1.3268 -0.2207 -3.9010
  807MOL0     H 8902  10.127   8.823   9.264 -4.7011  0.0829 -0.4270
  807MOL0     H 8903  10.025   8.761   8.986 -1.0499  2.4961 -1.0510
  807MOL0     H 8904  10.085   8.922   9.029 -0.8448 -0.3496 -1.3369
  807MOL0     H 8905   9.696   8.873   9.237 -2.0512  2.1172  1.3125
  807MOL0     H 8906   9.495   8.940   9.150 -0.5928 -3.7832 -1.5017
  807MOL0     H 8907   9.271   8.902   8.791  0.5256  0.0992  0.2735
  807MOL0     H 8908   9.045   8.880   8.678  2.7785 -0.3275 -0.9278
  807MOL0     H 8909   8.668   9.126   8.657 -0.5135  2.3401 -1.8574
  807MOL0     H 8910   8.748   9.222   8.780 -0.5664 -2.2503  1.2997
  807MOL0     H 8911   8.685   9.321   8.533  0.7558  0.1517 -1.8124
  807MOL0     H 8912   8.837   9.362   8.613 -2.1424  1.4530 -0.6954
  807MOL0     H 8913   8.977   9.199   8.498  0.7232  0.9182  0.9552
  807MOL0     H 8914   8.823   9.139   8.417 -5.9347  3.3125  2.2825
  807MOL0     H 8915   8.942   9.431   8.394  2.4291 -2.1070  0.9663
  807MOL0     H 8916   8.815   9.359   8.293 -0.1410  2.2323  0.2758
  807MOL0     H 8917   8.975   9.227   8.165 -0.0261  0.7539 -0.4241
  807MOL0     H 8918   9.088   9.249   8.308 -2.1376 -1.6029  2.0066
  807MOL0     H 8919   8.973   9.450   8.113 -0.2525 -0.0623  0.2712
  807MOL0     H 8920   9.096   9.493   8.236  4.4518  0.3592 -0.8377
  807MOL0     H 8921   9.136   9.332   7.988  0.2182 -2.0203  0.8769
  807MOL0     H 8922   9.239   9.313   8.135  2.1169  2.7152  0.7618
  807MOL0     H 8923   9.302   9.546   8.135  0.5024 -1.8913  1.2509
  807MOL0     H 8924   9.318   9.491   7.965 -0.6749 -0.3306 -0.1058
  807MOL0     H 8925   8.938   9.251   8.868  2.7122  1.9069  1.1078
  807MOL0     H 8926   9.150   9.267   8.968  2.8802  2.6113 -1.2798
  807MOL0     H 8927   9.699   9.057   8.780  2.3909 -0.1425  0.9384
  807MOL0     H 8928   9.906   8.959   8.887 -0.6400  2.8776 -1.3242
  807MOL0     H 8929   9.524   8.664   8.816  2.0718  1.2788 -0.6348
  807MOL0     H 8930   9.368   8.617   8.624 -2.0844 -2.2434 -1.4761
  807MOL0     H 8931   9.168   8.114   8.344 -0.0718 -0.1268 -0.1416
  807MOL0     H 8932   9.005   8.112   8.147  0.1294  0.2802  0.3688
  807MOL0     H 8933   8.936   8.312   7.791  2.0273 -1.1378 -0.1362
  807MOL0     H 8934   9.045   8.424   7.865 -0.2638 -1.1064 -4.4359
  807MOL0     H 8935   8.869   8.579   7.855  1.8876  0.4890  0.9601
  807MOL0     H 8936   8.845   8.518   8.013  0.6659  1.0550 -0.1894
  807MOL0     H 8937   8.678   8.344   7.902 -0.5594  1.2511  2.9240
  807MOL0     H 8938   8.718   8.409   7.747  0.2378  0.4312  0.0695
  807MOL0     H 8939   8.504   8.504   7.838 -0.5004 -0.2365  4.0335
  807MOL0     H 8940   8.588   8.552   7.977 -2.2630  0.3126 -0.8203
  807MOL0     H 8941   8.674   8.860   7.669  2.6835  1.3812  1.3349
  807MOL0     H 8942   9.118   8.528   8.076  1.7669  0.2809 -0.6673
  807MOL0     H 8943   9.249   8.647   8.208  1.8543  1.1570  1.7906
  807MOL0     H 8944   9.248   8.608   8.368  0.6843  1.9885 -0.8936
  807MOL0     H 8945   9.384   8.539   8.265  1.5093  1.9179 -2.7101
  808MOL0     O 8946   2.589   8.482   5.947 -0.1200  0.2363  0.3661
  808MOL0     C 8947   2.624   8.558   5.849  0.4110  0.5911 -0.2464
  808MOL0     O 8948   2.697   8.673   5.873 -0.3944  0.1520  0.2743
  808MOL0     C 8949   2.734   8.702   6.001  0.5060 -0.0769  0.1449
  808MOL0     C 8950   2.866   8.679   6.043  0.3986 -0.6253  0.0560
  808MOL0     C 8951   2.904   8.719   6.180  0.4029  0.7953 -0.3611
  808MOL0     C 8952   2.819   8.796   6.263  0.3654  0.5206  0.3135
  808MOL0     O 8953   2.855   8.845   6.385 -1.0826 -0.3323  0.0597
  808MOL0     C 8954   2.951   8.792   6.474  0.0749 -0.2600 -0.2367
  808MOL0     C 8955   2.980   8.891   6.588 -1.0481  0.0603 -0.1983
  808MOL0     C 8956   3.077   9.007   6.541 -0.2051  0.0451 -0.7885
  808MOL0     C 8957   3.111   9.095   6.660  0.3517  0.2655 -0.2831
  808MOL0     C 8958   3.192   9.216   6.628  0.5796 -0.4804  0.7121
  808MOL0     C 8959   3.320   9.192   6.554 -0.4715 -0.4443 -0.2805
  808MOL0     C 8960   3.414   9.314   6.559  0.1606 -0.2087 -0.1064
  808MOL0     C 8961   3.459   9.381   6.424  0.5979 -0.2247  0.2900
  808MOL0     N 8962   3.578   9.310   6.365  0.7910  0.0394  0.2066
  808MOL0     C 8963   3.711   9.323   6.396  0.1253 -1.0183  0.0343
  808MOL0     C 8964   3.779   9.251   6.301  0.2965  0.4660 -0.1405
  808MOL0     C 8965   3.931   9.233   6.288  0.0766  0.6320 -0.0660
  808MOL0     C 8966   3.955   9.102   6.219 -0.9815  0.7393  0.5949
  808MOL0     C 8967   4.108   9.081   6.198 -0.4088 -0.2551  0.8922
  808MOL0     C 8968   4.139   8.957   6.112  0.4389 -0.3016 -0.1912
  808MOL0     O 8969   4.244   8.993   6.017 -0.8341  0.0630  0.8309
  808MOL0     C 8970   4.218   8.975   5.884  0.0200  0.0570 -0.0307
  808MOL0     C 8971   4.303   8.885   5.816 -0.5707  0.2197 -0.1654
  808MOL0     C 8972   4.284   8.852   5.681  1.3357  0.6689  1.2563
  808MOL0     C 8973   4.180   8.918   5.608  0.9847  0.3873  0.2959
  808MOL0     C 8974   4.155   8.890   5.469  0.3383  0.7520  0.4982
  808MOL0     O 8975   4.066   8.960   5.396 -0.2811 -0.2735  0.1211
  808MOL0     C 8976   4.036   8.905   5.272  0.0951 -0.0779  0.7693
  808MOL0     C 8977   4.034   9.000   5.174 -0.7120  0.3752  0.7824
  808MOL0     C 8978   3.999   8.955   5.042  0.7443  0.8810 -0.6968
  808MOL0     C 8979   3.964   8.824   5.005  0.2621 -0.3653  0.6961
  808MOL0     O 8980   3.925   8.784   4.883  0.0281  0.3628  0.3198
  808MOL0     C 8981   3.984   8.853   4.766  0.3192  0.2777  0.2025
  808MOL0     C 8982   3.936   8.790   4.632 -0.2021 -0.3724 -0.4367
  808MOL0     C 8983   3.982   8.844   4.498  0.9756  0.4724 -0.1528
  808MOL0     C 8984   3.887   8.957   4.462 -0.0395 -0.8897  0.3688
  808MOL0     C 8985   3.740   8.929   4.412  0.3834  0.6232 -0.9730
  808MOL0     C 8986   3.743   8.870   4.280  0.5665 -0.1362 -0.9414
  808MOL0     C 8987   3.598   8.857   4.230 -0.4229 -0.0873 -0.0417
  808MOL0     C 8988   3.596   8.788   4.094  0.0781 -0.5216 -0.0142
  808MOL0    Cl 8989   3.674   8.625   4.094  0.1596  0.0919 -0.3306
  808MOL0     C 8990   3.954   8.736   5.115 -0.6200 -0.4702 -0.2807
  808MOL0     C 8991   3.992   8.777   5.250 -0.0795 -0.2399  0.0378
  808MOL0     O 8992   4.216   8.791   5.430 -0.5029 -0.9457 -1.1568
  808MOL0     C 8993   4.095   8.999   5.682  0.2518 -0.2426  0.4982
  808MOL0     C 8994   4.096   9.019   5.821  0.9315  0.3334  0.2746
  808MOL0     N 8995   3.686   9.204   6.212 -0.1915  0.1972  0.0802
  808MOL0     N 8996   3.569   9.245   6.243  0.1004 -0.3654 -0.8817
  808MOL0     C 8997   2.684   8.827   6.218  0.2166 -0.0175 -0.1494
  808MOL0     C 8998   2.645   8.783   6.085  0.0945  0.3829 -0.0270
  808MOL0     C 8999   2.556   8.524   5.718 -0.5195  0.2292  0.3648
  808MOL0     C 9000   2.530   8.637   5.627  1.0382 -0.6197 -0.2841
  808MOL0     C 9001   2.458   8.612   5.507  0.7725 -0.1232 -0.0535
  808MOL0     C 9002   2.428   8.485   5.482 -0.1172 -0.0875  1.1131
  808MOL0     O 9003   2.368   8.480   5.352  0.0097 -0.4854  0.5216
  808MOL0     C 9004   2.381   8.370   5.264  0.2869  0.2401 -0.0844
  808MOL0     C 9005   2.502   8.379   5.171 -1.1263  0.4452 -0.5272
  808MOL0     C 9006   2.474   8.355   5.020  0.8545  0.0771  0.3852
  808MOL0     C 9007   2.594   8.331   4.936 -0.4442 -0.8834  0.0023
  808MOL0     C 9008   2.657   8.195   4.956 -0.5025 -0.6782 -0.7055
  808MOL0     C 9009   2.721   8.093   4.962 -0.5239 -0.5369 -0.1453
  808MOL0     C 9010   2.476   8.376   5.556  0.0029  0.2035 -0.4602
  808MOL0     C 9011   2.539   8.393   5.677 -1.1844  0.9295  0.2486
  808MOL0     C 9012   2.576   8.272   5.758  0.3697 -0.3484  0.2887
  808MOL0     H 9013   2.926   8.625   5.970  3.0521 -0.1737  1.7744
  808MOL0     H 9014   3.000   8.685   6.219 -0.5492  0.9165  2.2941
  808MOL0     H 9015   2.913   8.703   6.526 -1.9590  1.5776  1.6045
  808MOL0     H 9016   3.043   8.751   6.432  0.5338  1.7770 -1.3192
  808MOL0     H 9017   3.027   8.840   6.672 -1.1772 -2.4118 -1.5606
  808MOL0     H 9018   2.885   8.931   6.626 -0.8417  1.4006 -1.0015
  808MOL0     H 9019   3.024   9.072   6.470 -0.5239 -0.6322 -1.1748
  808MOL0     H 9020   3.172   8.962   6.510  0.6112 -0.2465  1.8972
  808MOL0     H 9021   3.019   9.123   6.710 -1.3464 -1.7389 -2.0911
  808MOL0     H 9022   3.178   9.044   6.729  1.0568 -1.0690 -1.8795
  808MOL0     H 9023   3.134   9.292   6.575  0.8974  0.1409  1.2390
  808MOL0     H 9024   3.220   9.246   6.729 -0.3709 -3.6361  2.0151
  808MOL0     H 9025   3.378   9.112   6.601  2.0982  1.0740 -0.6390
  808MOL0     H 9026   3.300   9.155   6.453 -1.8780  0.8144 -0.4896
  808MOL0     H 9027   3.506   9.284   6.609 -0.0223  0.2212  0.4885
  808MOL0     H 9028   3.350   9.387   6.609 -2.1258 -1.2186 -1.4045
  808MOL0     H 9029   3.375   9.364   6.355  0.9825 -0.6544 -0.0783
  808MOL0     H 9030   3.485   9.487   6.427 -0.2320  0.0059 -0.3360
  808MOL0     H 9031   3.747   9.377   6.483 -1.6084 -0.5152  0.4645
  808MOL0     H 9032   3.985   9.321   6.252  3.8562 -1.8677 -1.1304
  808MOL0     H 9033   3.969   9.208   6.388 -3.5957  2.5770  2.0093
  808MOL0     H 9034   3.920   9.004   6.253  0.4244 -0.8488 -2.2615
  808MOL0     H 9035   3.920   9.109   6.116  2.5084 -0.3505 -0.8074
  808MOL0     H 9036   4.150   9.072   6.299  0.9490  1.1674  0.4940
  808MOL0     H 9037   4.163   9.170   6.166  2.9050 -1.6001  2.3874
  808MOL0     H 9038   4.048   8.922   6.063 -0.3544 -0.5283  1.3868
  808MOL0     H 9039   4.175   8.876   6.175  0.1057 -0.8638 -0.7152
  808MOL0     H 9040   4.384   8.844   5.875 -1.0210  0.1484  0.4042
  808MOL0     H 9041   4.353   8.789   5.625 -1.3789 -1.0126 -0.4003
  808MOL0     H 9042   4.077   9.096   5.203  2.5994 -0.3278 -1.1767
  808MOL0     H 9043   3.991   9.035   4.969  0.3154  0.6166 -0.9381
  808MOL0     H 9044   3.958   8.959   4.774  3.1219  0.9811  1.1091
  808MOL0     H 9045   4.093   8.840   4.771  0.5879  1.1391 -2.3573
  808MOL0     H 9046   3.978   8.689   4.628 -0.4840 -0.5094  0.0172
  808MOL0     H 9047   3.828   8.773   4.637 -0.4667  1.5329  1.7221
  808MOL0     H 9048   4.076   8.897   4.486 -0.9574  3.8995 -1.5495
  808MOL0     H 9049   3.962   8.764   4.425 -1.2099 -1.1347  2.0301
  808MOL0     H 9050   3.936   9.018   4.385  0.6869  2.0527  2.9768
  808MOL0     H 9051   3.877   9.021   4.550 -4.6968  1.0125 -1.2246
  808MOL0     H 9052   3.691   9.026   4.413 -0.1348  0.3625  0.3433
  808MOL0     H 9053   3.682   8.863   4.477 -0.8583  1.5565 -1.1090
  808MOL0     H 9054   3.793   8.944   4.217  0.1599 -0.2045 -1.3495
  808MOL0     H 9055   3.800   8.777   4.287 -3.0463 -2.4786  0.1690
  808MOL0     H 9056   3.555   8.956   4.215 -0.6956 -0.0022  1.1493
  808MOL0     H 9057   3.539   8.805   4.307 -1.6769  1.8306  0.3670
  808MOL0     H 9058   3.495   8.779   4.054 -0.0296  0.0022  0.1254
  808MOL0     H 9059   3.651   8.856   4.029  1.0334 -0.9111  0.3656
  808MOL0     H 9060   3.921   8.633   5.111  3.0562 -1.7968 -0.1950
  808MOL0     H 9061   3.997   8.705   5.330 -0.5961 -1.5012 -1.0359
  808MOL0     H 9062   4.008   9.047   5.639  1.1224  0.0634 -0.9979
  808MOL0     H 9063   4.027   9.082   5.876  2.5312  0.5346  2.1685
  808MOL0     H 9064   2.617   8.886   6.279  0.3393 -2.0617  2.1625
  808MOL0     H 9065   2.544   8.799   6.046  0.4847 -1.5010 -2.0430
  808MOL0     H 9066   2.553   8.742   5.639  1.0508 -0.2307 -3.1251
  808MOL0     H 9067   2.426   8.699   5.452 -2.0373 -0.3576  1.0316
  808MOL0     H 9068   2.290   8.366   5.203  1.3173 -0.9875 -1.6224
  808MOL0     H 9069   2.392   8.274   5.316 -1.2605 -0.4027 -0.8841
  808MOL0     H 9070   2.583   8.316   5.208  0.0824  0.3387 -3.0987
  808MOL0     H 9071   2.559   8.471   5.189 -1.9956  0.6506  1.3170
  808MOL0     H 9072   2.418   8.444   4.988  0.4264 -0.9686 -2.0598
  808MOL0     H 9073   2.401   8.275   5.003  1.0055  0.4323 -2.5762
  808MOL0     H 9074   2.560   8.354   4.834  1.0703  2.6807  0.1427
  808MOL0     H 9075   2.675   8.404   4.946  0.8155 -2.1272 -0.7033
  808MOL0     H 9076   2.788   8.012   4.982 -1.8188 -1.3080  1.3446
  808MOL0     H 9077   2.452   8.273   5.531  2.8452 -1.1514  1.8942
  808MOL0     H 9078   2.506   8.273   5.843 -0.4400  0.8866 -0.3643
  808MOL0     H 9079   2.561   8.188   5.690 -2.9325 -0.4866  1.0031
  808MOL0     H 9080   2.673   8.288   5.806 -0.9730 -0.9885  3.4385
  809MOL0     O 9081  10.902   0.155   7.008  0.2928  0.4296 -0.1918
  809MOL0     C 9082  10.918   0.040   7.051 -0.2548 -0.3151  0.1089
  809MOL0     O 9083  11.025  -0.007   7.136 -0.7284  0.2150  0.8744
  809MOL0     C 9084  11.144   0.056   7.143  1.2199  0.4142  0.0520
  809MOL0     C 9085  11.229   0.020   7.248  0.2199 -0.3800  0.8350
  809MOL0     C 9086  11.360   0.075   7.256  0.0456  0.0228 -0.1936
  809MOL0     C 9087  11.405   0.162   7.159  0.5219 -0.0204 -0.7850
  809MOL0     O 9088  11.527   0.225   7.159 -0.4958  0.7247 -0.2118
  809MOL0     C 9089  11.611   0.200   7.273  0.5277 -0.3373 -0.0369
  809MOL0     C 9090  11.748   0.276   7.259 -0.4651 -0.3750 -0.8865
  809MOL0     C 9091  11.857   0.232   7.365 -0.2044 -0.3257 -0.9135
  809MOL0     C 9092  11.990   0.307   7.360 -0.6019  0.1049  0.1760
  809MOL0     C 9093  11.974   0.459   7.376  0.1698 -0.1153 -0.2299
  809MOL0     C 9094  12.109   0.507   7.428 -0.3698  0.2480  0.2517
  809MOL0     C 9095  12.104   0.665   7.452  0.7608  0.6016 -0.6497
  809MOL0     C 9096  12.226   0.712   7.523 -0.2291 -0.4206  0.5122
  809MOL0     N 9097  12.220   0.854   7.521 -0.2205 -0.0216  0.1409
  809MOL0     C 9098  12.295   0.934   7.430 -0.0872 -0.4468 -0.3732
  809MOL0     C 9099  12.235   1.056   7.456  0.5041 -0.5504  0.3506
  809MOL0     C 9100  12.278   1.182   7.387 -0.5764  0.5351  0.7496
  809MOL0     C 9101  12.392   1.240   7.459 -0.0904 -0.0173 -0.0145
  809MOL0     C 9102  12.520   1.157   7.466 -0.5877 -0.6126 -0.1944
  809MOL0     C 9103  12.646   1.243   7.483 -0.3863 -0.2900 -0.0125
  809MOL0     O 9104  12.645   1.335   7.375  0.2370  0.4494  0.5522
  809MOL0     C 9105  12.745   1.430   7.386  0.0908 -0.4730 -0.6445
  809MOL0     C 9106  12.749   1.538   7.294  0.2168 -0.0449 -1.0227
  809MOL0     C 9107  12.860   1.623   7.284  0.5854  0.6967  0.1552
  809MOL0     C 9108  12.972   1.612   7.367  0.4542  0.1721 -0.9278
  809MOL0     C 9109  13.090   1.690   7.344  0.3160  0.4063 -0.5805
  809MOL0     O 9110  13.102   1.752   7.221 -0.6740 -0.1498  0.2095
  809MOL0     C 9111  13.213   1.835   7.194  0.9598  0.1713 -0.2213
  809MOL0     C 9112  13.342   1.811   7.232 -0.8282  0.2166  0.2424
  809MOL0     C 9113  13.446   1.898   7.192 -0.3652 -0.0986  0.2204
  809MOL0     C 9114  13.431   2.004   7.104  0.3858  0.2119  0.4701
  809MOL0     O 9115  13.537   2.087   7.064  1.0163  0.1117  0.1482
  809MOL0     C 9116  13.645   2.021   6.996  0.8034 -0.8125 -0.6584
  809MOL0     C 9117  13.760   2.122   7.016  0.0640  0.3824 -0.5527
  809MOL0     C 9118  13.778   2.181   7.163 -0.1721  0.6266 -0.8327
  809MOL0     C 9119  13.891   2.278   7.173  0.3850 -0.2233 -0.8113
  809MOL0     C 9120  13.889   2.352   7.306  0.0242  0.3569 -0.2022
  809MOL0     C 9121  14.006   2.466   7.299  0.8365  0.2105  0.7822
  809MOL0     C 9122  14.020   2.537   7.436 -0.9211  1.4376 -0.6938
  809MOL0     C 9123  13.922   2.662   7.435 -0.2781  1.0780 -0.7026
  809MOL0    Cl 9124  13.946   2.767   7.568 -0.3507 -0.6902 -0.2891
  809MOL0     C 9125  13.301   2.029   7.067  0.2506 -0.5452  0.1760
  809MOL0     C 9126  13.194   1.949   7.113  0.2137  0.0133 -0.8973
  809MOL0     O 9127  13.170   1.705   7.440  0.3551 -0.9502  0.3201
  809MOL0     C 9128  12.967   1.520   7.468 -0.5265 -0.1043 -0.3486
  809MOL0     C 9129  12.850   1.433   7.479 -1.4253 -0.0138 -0.4470
  809MOL0     N 9130  12.129   1.055   7.547  0.3553 -0.0827 -0.4801
  809MOL0     N 9131  12.136   0.927   7.595  0.0446 -0.4466 -0.4849
  809MOL0     C 9132  11.315   0.201   7.055 -0.3599  0.7338 -0.2177
  809MOL0     C 9133  11.183   0.151   7.052  0.2194 -0.1997  0.7611
  809MOL0     C 9134  10.804  -0.053   7.032 -0.3291 -0.3360 -1.0370
  809MOL0     C 9135  10.678  -0.003   7.023 -0.2552  0.6752  1.0253
  809MOL0     C 9136  10.561  -0.079   7.005 -0.0400 -0.2089 -0.0614
  809MOL0     C 9137  10.571  -0.219   6.982 -0.3796 -0.8292 -0.4692
  809MOL0     O 9138  10.464  -0.298   6.956 -0.3685  0.0363  0.5569
  809MOL0     C 9139  10.359  -0.233   6.881 -0.2411 -0.3121  0.0123
  809MOL0     C 9140  10.242  -0.238   6.984 -0.3228  0.0411 -0.4040
  809MOL0     C 9141  10.118  -0.209   6.912  0.9075 -0.7560  0.3801
  809MOL0     C 9142  10.076  -0.327   6.824 -0.1404 -0.3891 -0.1616
  809MOL0     C 9143   9.954  -0.303   6.741  0.3146  0.1714  0.2133
  809MOL0     C 9144   9.860  -0.278   6.661 -0.6184 -0.7794 -0.1489
  809MOL0     C 9145  10.702  -0.272   6.993 -0.7007  0.1402 -0.6878
  809MOL0     C 9146  10.820  -0.194   7.026  0.1483  0.4902 -0.2287
  809MOL0     C 9147  10.947  -0.275   7.035 -0.2642 -0.2509  0.4813
  809MOL0     H 9148  11.196  -0.054   7.321 -2.4267 -1.4470 -1.3002
  809MOL0     H 9149  11.413   0.050   7.347 -1.8981 -1.3418  0.6344
  809MOL0     H 9150  11.556   0.246   7.356  0.7954 -0.5034  0.2305
  809MOL0     H 9151  11.630   0.093   7.288 -0.9037 -0.4664  1.1008
  809MOL0     H 9152  11.714   0.379   7.275 -0.7761 -0.8499  2.1050
  809MOL0     H 9153  11.791   0.265   7.159 -1.0078 -1.7246 -0.9935
  809MOL0     H 9154  11.871   0.124   7.368  0.4954 -0.2286 -0.4558
  809MOL0     H 9155  11.824   0.262   7.465 -1.5385 -0.7822 -1.1960
  809MOL0     H 9156  12.063   0.260   7.427 -0.1542  0.6940  0.1121
  809MOL0     H 9157  12.032   0.290   7.260  1.4785  0.8947  0.8450
  809MOL0     H 9158  11.951   0.495   7.276 -1.2076  0.9211  0.4217
  809MOL0     H 9159  11.901   0.490   7.452  0.0292 -1.0358  0.0337
  809MOL0     H 9160  12.152   0.463   7.519 -0.3231  2.9016  1.6238
  809MOL0     H 9161  12.175   0.492   7.342  0.0788  0.8893  0.4727
  809MOL0     H 9162  12.017   0.687   7.515 -0.4309  0.8599 -2.3083
  809MOL0     H 9163  12.086   0.715   7.356  1.3073 -1.0676 -1.6616
  809MOL0     H 9164  12.231   0.673   7.625 -4.2226  1.5844  1.7281
  809MOL0     H 9165  12.314   0.676   7.470 -1.2105 -2.7641  0.3800
  809MOL0     H 9166  12.376   0.914   7.360  0.6693  2.6551 -0.5412
  809MOL0     H 9167  12.285   1.169   7.278 -1.3284  0.1041  0.7425
  809MOL0     H 9168  12.202   1.260   7.398  1.3748  2.6031  0.2169
  809MOL0     H 9169  12.411   1.342   7.426 -1.9282  0.5816  0.6714
  809MOL0     H 9170  12.358   1.261   7.561  0.4519  2.2047 -0.2395
  809MOL0     H 9171  12.528   1.109   7.368 -0.2073  0.1858 -0.5650
  809MOL0     H 9172  12.507   1.079   7.541  0.4067 -0.1172  0.5142
  809MOL0     H 9173  12.736   1.182   7.494 -1.1112 -1.0111  2.2892
  809MOL0     H 9174  12.641   1.298   7.577  2.5737  0.3699 -0.1382
  809MOL0     H 9175  12.667   1.561   7.227 -1.5152 -0.0139  1.0037
  809MOL0     H 9176  12.845   1.706   7.217 -0.4954 -0.0908 -0.6058
  809MOL0     H 9177  13.367   1.719   7.283  0.6685 -1.5051 -3.2214
  809MOL0     H 9178  13.546   1.875   7.226  0.5153  0.8129 -1.6332
  809MOL0     H 9179  13.676   1.932   7.051  0.0846 -2.0488 -2.2115
  809MOL0     H 9180  13.628   1.996   6.891  1.7524  0.4696 -1.1457
  809MOL0     H 9181  13.854   2.071   6.995 -0.2365  0.3719 -1.9023
  809MOL0     H 9182  13.750   2.210   6.952  0.3059  0.9097  0.1170
  809MOL0     H 9183  13.688   2.239   7.185  0.2588  1.9389 -2.3065
  809MOL0     H 9184  13.781   2.099   7.236 -4.0880 -0.2072 -1.3625
  809MOL0     H 9185  13.888   2.348   7.089 -1.0184  0.5471 -0.1415
  809MOL0     H 9186  13.980   2.214   7.169 -0.7207 -2.1884  2.2385
  809MOL0     H 9187  13.902   2.269   7.376 -2.1783 -2.8930 -3.3384
  809MOL0     H 9188  13.797   2.401   7.339 -0.1118 -1.2377  2.0544
  809MOL0     H 9189  14.103   2.420   7.276  0.2544 -2.1797  2.6267
  809MOL0     H 9190  13.974   2.533   7.219 -0.8687  1.9784  2.7992
  809MOL0     H 9191  14.123   2.570   7.450  0.4073 -3.2954  3.7717
  809MOL0     H 9192  13.994   2.466   7.515 -0.8754  1.7462 -0.3986
  809MOL0     H 9193  13.939   2.716   7.342 -1.1771  2.1473 -0.2705
  809MOL0     H 9194  13.821   2.621   7.430  0.3986 -1.0844  1.4320
  809MOL0     H 9195  13.280   2.116   7.005 -2.9380 -3.4046 -3.2946
  809MOL0     H 9196  13.087   1.962   7.100 -0.1539  0.4158  1.8455
  809MOL0     H 9197  13.051   1.517   7.536 -0.1592  3.9092 -0.3951
  809MOL0     H 9198  12.847   1.358   7.557  1.4390 -0.0525 -0.2530
  809MOL0     H 9199  11.362   0.265   6.981 -2.5570  1.0328 -1.4454
  809MOL0     H 9200  11.122   0.177   6.967 -0.8025  2.1783  2.1185
  809MOL0     H 9201  10.667   0.104   7.036 -0.5252  0.8160 -0.2280
  809MOL0     H 9202  10.464  -0.031   7.006 -0.0541 -0.2040 -1.1820
  809MOL0     H 9203  10.342  -0.289   6.788 -2.0036 -0.8622  0.6346
  809MOL0     H 9204  10.377  -0.126   6.864  1.9174 -0.4167  1.2861
  809MOL0     H 9205  10.265  -0.159   7.056  0.9700  0.8469 -1.6394
  809MOL0     H 9206  10.247  -0.339   7.026  0.6521  0.3694  0.3355
  809MOL0     H 9207  10.110  -0.127   6.839 -1.9659 -1.0025  0.3230
  809MOL0     H 9208  10.033  -0.198   6.980  0.1481 -0.3438 -0.6033
  809MOL0     H 9209  10.158  -0.350   6.755  1.3498  1.0058  1.0631
  809MOL0     H 9210  10.051  -0.408   6.894 -4.1805  0.5745 -0.2046
  809MOL0     H 9211   9.793  -0.264   6.579 -1.1240  0.2036  0.4134
  809MOL0     H 9212  10.719  -0.377   6.970  0.4625 -0.1060  1.0846
  809MOL0     H 9213  10.943  -0.377   6.997  1.3894  0.1665 -0.9745
  809MOL0     H 9214  11.024  -0.235   6.967 -1.7914  0.1799 -1.0624
  809MOL0     H 9215  10.982  -0.274   7.138 -0.9233 -0.2727  0.7059
  810MOL0     O 9216  10.074   7.792   5.876 -1.1179  0.7272  0.4978
  810MOL0     C 9217  10.015   7.882   5.829 -0.8824  0.1951  0.0910
  810MOL0     O 9218   9.978   7.999   5.883  0.6419 -0.2922  0.8359
  810MOL0     C 9219   9.942   8.012   6.016 -0.0654 -0.2436  0.5270
  810MOL0     C 9220  10.011   7.957   6.124 -0.1435 -0.3071  0.3496
  810MOL0     C 9221   9.975   8.010   6.253  0.1839 -0.2900  0.2956
  810MOL0     C 9222   9.884   8.114   6.270  0.2950 -0.6049 -0.5069
  810MOL0     O 9223   9.829   8.173   6.384  0.1975  0.8889  0.5534
  810MOL0     C 9224   9.934   8.200   6.476  0.7866 -0.1030  0.1029
  810MOL0     C 9225   9.888   8.248   6.617 -0.0671  0.1505 -0.2656
  810MOL0     C 9226   9.981   8.202   6.731 -0.0283  0.3454  0.8795
  810MOL0     C 9227  10.118   8.281   6.717 -0.7152  0.6305 -0.2898
  810MOL0     C 9228  10.217   8.214   6.816  0.8844  0.3760  0.1074
  810MOL0     C 9229  10.351   8.282   6.783  0.4212  0.7006  1.1505
  810MOL0     C 9230  10.472   8.221   6.861 -0.0402  0.4694  0.0461
  810MOL0     C 9231  10.605   8.282   6.829  0.1291  0.0250 -0.0179
  810MOL0     N 9232  10.624   8.416   6.876  0.1550 -0.5524 -0.6836
  810MOL0     C 9233  10.634   8.437   7.011 -0.5961 -0.3666  0.2844
  810MOL0     C 9234  10.660   8.573   7.016 -0.1419  0.6317 -0.3214
  810MOL0     C 9235  10.676   8.654   7.142  0.2827 -0.5211 -0.0213
  810MOL0     C 9236  10.684   8.807   7.128 -0.2125 -0.1155  0.1999
  810MOL0     C 9237  10.588   8.877   7.025 -0.9078  0.5631 -0.3837
  810MOL0     C 9238  10.447   8.836   7.043  0.2557 -0.3871  1.1115
  810MOL0     O 9239  10.367   8.933   6.976 -0.2597  0.2362  0.1524
  810MOL0     C 9240  10.243   8.901   6.932  0.7376  0.1640 -0.0397
  810MOL0     C 9241  10.185   8.767   6.937 -0.3774  0.4703  0.2736
  810MOL0     C 9242  10.056   8.749   6.884 -0.8133 -0.3055  0.6103
  810MOL0     C 9243   9.973   8.861   6.839  0.8135 -0.0320 -0.0463
  810MOL0     C 9244   9.836   8.848   6.813 -0.5878 -0.1209 -0.0803
  810MOL0     O 9245   9.774   8.960   6.760 -0.7624  0.2098 -0.8695
  810MOL0     C 9246   9.636   8.964   6.775  0.2797 -0.8256  0.4141
  810MOL0     C 9247   9.569   9.007   6.661  1.0000 -0.2352  0.7896
  810MOL0     C 9248   9.422   9.020   6.666  0.0499 -0.2975 -0.1403
  810MOL0     C 9249   9.360   8.986   6.793 -0.2734  0.1414 -0.6752
  810MOL0     O 9250   9.227   9.010   6.821  0.3992 -0.0033 -0.4776
  810MOL0     C 9251   9.150   9.099   6.741  0.0133 -0.1606  0.1371
  810MOL0     C 9252   9.021   9.153   6.806 -0.5956 -0.1949 -0.4076
  810MOL0     C 9253   8.954   9.027   6.846  0.8339  0.1257  0.3235
  810MOL0     C 9254   8.816   9.060   6.914 -0.6747 -0.9055 -0.3558
  810MOL0     C 9255   8.693   9.026   6.829  0.4203  0.0241  0.4714
  810MOL0     C 9256   8.681   9.090   6.688 -0.0634  0.4716  0.1727
  810MOL0     C 9257   8.552   9.038   6.628  0.9628  0.3670 -0.5586
  810MOL0     C 9258   8.561   9.059   6.476 -0.6511  1.0804  0.8636
  810MOL0    Cl 9259   8.617   9.221   6.426 -0.0725 -0.0309 -0.3759
  810MOL0     C 9260   9.429   8.928   6.903 -1.5655  0.4779 -0.6639
  810MOL0     C 9261   9.570   8.920   6.882  0.5448 -0.3177 -0.3404
  810MOL0     O 9262   9.786   8.739   6.850 -0.0580  0.4571  0.4612
  810MOL0     C 9263  10.033   8.985   6.841  0.6574  0.6972 -0.0381
  810MOL0     C 9264  10.156   9.003   6.891  0.6216 -0.2844 -0.5520
  810MOL0     N 9265  10.685   8.621   6.891 -0.3463  0.9823 -0.0268
  810MOL0     N 9266  10.661   8.528   6.807 -1.0473 -1.0163  0.0383
  810MOL0     C 9267   9.825   8.165   6.157  0.1958 -0.0386 -0.4982
  810MOL0     C 9268   9.846   8.107   6.037 -0.2270 -0.1253 -0.1062
  810MOL0     C 9269   9.971   7.870   5.684  0.0348  0.1429  1.0763
  810MOL0     C 9270  10.036   7.772   5.611 -0.5904 -0.5917 -0.3809
  810MOL0     C 9271   9.999   7.748   5.478 -0.1853  0.3286  0.5832
  810MOL0     C 9272   9.900   7.826   5.411 -0.2083  0.2560  0.1141
  810MOL0     O 9273   9.859   7.791   5.292  0.1538  0.7364 -0.2130
  810MOL0     C 9274   9.747   7.868   5.228 -0.0249 -0.0069 -0.1555
  810MOL0     C 9275   9.777   8.003   5.168  0.3619  0.7144  0.3635
  810MOL0     C 9276   9.880   7.981   5.052 -0.8808  0.4219 -0.8457
  810MOL0     C 9277   9.891   8.095   4.959  0.2955  0.4040  0.2677
  810MOL0     C 9278   9.771   8.107   4.871 -0.8328  0.9587 -0.7532
  810MOL0     C 9279   9.681   8.118   4.803  0.3238  0.0648 -0.5739
  810MOL0     C 9280   9.842   7.927   5.481 -0.3892 -0.5688 -0.1536
  810MOL0     C 9281   9.874   7.953   5.613  0.1395  1.0596  0.1190
  810MOL0     C 9282   9.776   8.048   5.677  0.2673  0.1679  0.7857
  810MOL0     H 9283  10.100   7.898   6.101 -0.8267 -1.3255  0.2461
  810MOL0     H 9284  10.040   7.975   6.333  1.1164  0.0123 -0.3099
  810MOL0     H 9285   9.971   8.099   6.493 -2.3673 -1.3041  0.6545
  810MOL0     H 9286  10.025   8.245   6.436  0.7541  0.0548  0.2022
  810MOL0     H 9287   9.792   8.200   6.636  0.1377  0.0785  0.5879
  810MOL0     H 9288   9.868   8.356   6.610 -0.4298 -0.0013 -3.6383
  810MOL0     H 9289  10.009   8.097   6.714 -2.3507 -0.1225 -0.5330
  810MOL0     H 9290   9.942   8.222   6.831  2.4057  0.9396  1.7761
  810MOL0     H 9291  10.153   8.272   6.614 -2.2986  1.7487 -0.9665
  810MOL0     H 9292  10.103   8.386   6.741 -0.4289  0.1746  2.0597
  810MOL0     H 9293  10.183   8.233   6.918 -1.1312 -2.6816  0.1237
  810MOL0     H 9294  10.224   8.106   6.805 -2.5007 -0.1798  2.0488
  810MOL0     H 9295  10.373   8.263   6.678 -0.3778  1.4608  0.8405
  810MOL0     H 9296  10.343   8.384   6.820 -0.6479  0.2876  2.1170
  810MOL0     H 9297  10.487   8.115   6.839  2.8224  0.5365  1.2363
  810MOL0     H 9298  10.446   8.207   6.967 -0.4185 -0.4878 -0.1637
  810MOL0     H 9299  10.680   8.209   6.862  0.2844  0.8114  1.4459
  810MOL0     H 9300  10.613   8.290   6.720 -0.4604 -2.0670 -0.2686
  810MOL0     H 9301  10.630   8.386   7.107  2.7777  1.7914  1.7899
  810MOL0     H 9302  10.598   8.636   7.217  0.0369 -1.2160 -0.4320
  810MOL0     H 9303  10.776   8.623   7.175  1.8734  1.1927 -2.8477
  810MOL0     H 9304  10.666   8.853   7.225 -2.1192 -0.7636  0.1947
  810MOL0     H 9305  10.785   8.832   7.093  0.1819  1.2376  2.1717
  810MOL0     H 9306  10.637   8.869   6.928  1.1536 -2.2707  0.7491
  810MOL0     H 9307  10.594   8.984   7.049 -1.4275  0.3825  0.5989
  810MOL0     H 9308  10.411   8.807   7.143 -0.1707 -1.5608  0.6414
  810MOL0     H 9309  10.444   8.748   6.978  1.6895  0.3732 -0.0281
  810MOL0     H 9310  10.234   8.680   6.979 -0.3466  0.7155  0.7559
  810MOL0     H 9311  10.015   8.648   6.883 -2.2475  0.2391 -0.9426
  810MOL0     H 9312   9.630   9.046   6.580 -1.6272 -0.3039 -1.3567
  810MOL0     H 9313   9.366   9.060   6.582 -0.8310 -0.9847  0.1060
  810MOL0     H 9314   9.212   9.187   6.721  3.1149 -1.8469  1.6174
  810MOL0     H 9315   9.128   9.056   6.643 -3.0338  0.7214  0.3203
  810MOL0     H 9316   9.034   9.226   6.887 -0.2998  2.6805 -2.8687
  810MOL0     H 9317   8.962   9.211   6.735  1.9435  0.7494 -1.8706
  810MOL0     H 9318   8.939   8.969   6.755  0.9285  2.2045 -1.0874
  810MOL0     H 9319   9.011   8.978   6.925 -1.8429 -0.7212  1.8751
  810MOL0     H 9320   8.808   9.168   6.928 -1.9641 -1.3094  3.0815
  810MOL0     H 9321   8.805   9.037   7.021 -3.6943  0.8146 -0.1817
  810MOL0     H 9322   8.605   9.049   6.890  1.9836 -2.2693  3.9118
  810MOL0     H 9323   8.699   8.918   6.813  0.6014  0.0899  0.0934
  810MOL0     H 9324   8.689   9.199   6.691  1.6963  0.3612  1.5464
  810MOL0     H 9325   8.760   9.053   6.622 -1.2688 -1.0141 -0.4845
  810MOL0     H 9326   8.461   9.083   6.669  1.0381 -2.3770  3.0670
  810MOL0     H 9327   8.546   8.932   6.651 -0.6997  0.7508  1.0082
  810MOL0     H 9328   8.631   8.982   6.441 -3.0987 -0.6400 -0.5629
  810MOL0     H 9329   8.471   9.034   6.421  1.3422 -2.3633 -1.2202
  810MOL0     H 9330   9.380   8.902   6.996  1.9202 -1.5312  0.8460
  810MOL0     H 9331   9.629   8.883   6.966 -2.1097  1.4557  2.5386
  810MOL0     H 9332   9.986   9.074   6.800 -1.1155 -0.4485 -0.5964
  810MOL0     H 9333  10.186   9.107   6.891 -0.5520  0.0826  0.4726
  810MOL0     H 9334   9.753   8.247   6.167 -2.0780 -2.1788  2.4009
  810MOL0     H 9335   9.788   8.144   5.952 -1.2063 -1.2938  0.0205
  810MOL0     H 9336  10.098   7.695   5.656 -0.4000 -1.2870 -1.7534
  810MOL0     H 9337  10.060   7.672   5.431 -2.9346 -0.8226 -1.4361
  810MOL0     H 9338   9.664   7.876   5.299 -1.9392 -2.8449 -1.8812
  810MOL0     H 9339   9.701   7.811   5.146  1.3006 -0.5792 -0.5233
  810MOL0     H 9340   9.833   8.061   5.243  0.3343  2.4350 -0.8732
  810MOL0     H 9341   9.685   8.059   5.147 -0.9544 -0.9738  1.4255
  810MOL0     H 9342   9.862   7.888   4.997 -0.5740  1.2178 -2.3447
  810MOL0     H 9343   9.978   7.967   5.098 -1.0841  2.4917  0.3254
  810MOL0     H 9344   9.904   8.190   5.013  1.8730 -0.2310  1.0577
  810MOL0     H 9345   9.972   8.077   4.888 -0.0084 -1.6592  0.3882
  810MOL0     H 9346   9.595   8.136   4.741 -1.4062  2.0986  2.1411
  810MOL0     H 9347   9.765   7.991   5.440  0.8788  2.3226  1.6310
  810MOL0     H 9348   9.719   8.107   5.604 -0.1354 -0.3116  0.7065
  810MOL0     H 9349   9.697   8.005   5.739 -3.4819  1.2618 -2.8092
  810MOL0     H 9350   9.828   8.110   5.750 -0.2761  0.1502  1.2011
  811MOL0     O 9351   2.932   8.674   8.417 -0.4302 -0.2503  0.7459
  811MOL0     C 9352   2.971   8.584   8.342 -0.5160 -0.7573  0.7708
  811MOL0     O 9353   2.969   8.599   8.201 -0.1340  0.2628 -0.4152
  811MOL0     C 9354   2.907   8.698   8.128  0.0681 -0.1591 -0.1950
  811MOL0     C 9355   2.790   8.770   8.164  1.1533  1.4995 -0.1272
  811MOL0     C 9356   2.723   8.857   8.075  0.2316 -0.1364  0.1517
  811MOL0     C 9357   2.785   8.890   7.954 -0.4242 -0.2921 -0.0657
  811MOL0     O 9358   2.728   8.978   7.862 -0.6227  0.0243  0.4120
  811MOL0     C 9359   2.588   9.015   7.881 -0.7351 -0.2264 -0.8286
  811MOL0     C 9360   2.556   9.141   7.798 -1.1823  0.0914  0.4877
  811MOL0     C 9361   2.428   9.221   7.824 -0.0422  0.0557  0.3696
  811MOL0     C 9362   2.306   9.149   7.764  0.4459 -1.0008  0.0818
  811MOL0     C 9363   2.172   9.234   7.763 -0.0678 -0.0452 -0.3880
  811MOL0     C 9364   2.166   9.347   7.665 -0.5356 -0.2791  1.0891
  811MOL0     C 9365   2.181   9.302   7.512 -1.0267 -0.8646 -0.3807
  811MOL0     C 9366   2.148   9.412   7.416 -0.0535 -0.6038  0.1193
  811MOL0     N 9367   2.180   9.369   7.276  0.4871 -0.2042  1.4332
  811MOL0     C 9368   2.265   9.444   7.203 -0.1764 -0.0390 -0.7797
  811MOL0     C 9369   2.250   9.394   7.080  0.9626  0.2274  0.9729
  811MOL0     C 9370   2.334   9.419   6.962 -0.5640  0.2821  0.1439
  811MOL0     C 9371   2.466   9.332   6.945 -0.3860  0.2256  0.1082
  811MOL0     C 9372   2.437   9.177   6.944  0.1413  0.4428  0.3055
  811MOL0     C 9373   2.442   9.103   7.084 -0.3723 -0.1350  0.6889
  811MOL0     O 9374   2.575   9.118   7.123 -0.1258 -0.4400  0.7438
  811MOL0     C 9375   2.605   9.207   7.221 -0.0047 -0.7692 -0.4948
  811MOL0     C 9376   2.517   9.260   7.321 -0.0271 -0.0444 -0.4902
  811MOL0     C 9377   2.565   9.356   7.414 -0.6028  0.0953  0.5228
  811MOL0     C 9378   2.707   9.381   7.421  1.1515 -0.5189  0.5683
  811MOL0     C 9379   2.765   9.451   7.535 -0.0050  0.5749  0.3367
  811MOL0     O 9380   2.688   9.459   7.653  0.1919  0.3482 -0.2235
  811MOL0     C 9381   2.755   9.519   7.754  0.0146  0.7739  0.6394
  811MOL0     C 9382   2.818   9.435   7.853  0.0215  0.7114 -0.1048
  811MOL0     C 9383   2.869   9.495   7.971 -0.6101  0.2297  0.4976
  811MOL0     C 9384   2.869   9.635   7.987 -0.4328 -0.4775  0.1121
  811MOL0     O 9385   2.925   9.685   8.097 -0.4979 -0.2000  0.0823
  811MOL0     C 9386   2.943   9.825   8.128 -1.4677 -0.2562 -0.4063
  811MOL0     C 9387   2.984   9.839   8.279  0.1587  0.5289 -0.4710
  811MOL0     C 9388   3.018   9.985   8.326  0.2360  0.1961 -0.1702
  811MOL0     C 9389   2.978  10.004   8.467  0.1292 -0.0498  1.1470
  811MOL0     C 9390   3.016  10.149   8.492  0.3726  0.8070  1.2380
  811MOL0     C 9391   3.154  10.199   8.456 -0.4548  0.4751  0.1358
  811MOL0     C 9392   3.180  10.354   8.494 -1.0347  0.7753  0.3509
  811MOL0     C 9393   3.117  10.463   8.419  0.4538  0.1188 -0.9997
  811MOL0    Cl 9394   2.949  10.490   8.484  0.4410 -0.2559 -0.8238
  811MOL0     C 9395   2.809   9.709   7.884 -0.1163  0.5394  0.3380
  811MOL0     C 9396   2.745   9.655   7.774  0.7712 -0.2792 -0.1940
  811MOL0     O 9397   2.878   9.496   7.521 -0.4345  0.0971  0.2308
  811MOL0     C 9398   2.789   9.326   7.323  0.0269 -1.2817 -0.6434
  811MOL0     C 9399   2.733   9.246   7.227 -0.9982  0.2128  0.6278
  811MOL0     N 9400   2.148   9.304   7.078 -0.8519  0.7695 -0.4761
  811MOL0     N 9401   2.104   9.290   7.200 -0.0923  0.0621  0.3380
  811MOL0     C 9402   2.910   8.833   7.930 -0.5332  0.0755 -0.3293
  811MOL0     C 9403   2.974   8.740   8.015 -0.2950  0.0094  0.0903
  811MOL0     C 9404   3.026   8.457   8.397 -1.4510 -1.4311 -0.6366
  811MOL0     C 9405   3.075   8.368   8.304  0.0058  0.3555  0.3386
  811MOL0     C 9406   3.133   8.245   8.339 -0.3285 -0.7887 -0.1718
  811MOL0     C 9407   3.138   8.204   8.474 -0.6988 -0.4825 -0.0996
  811MOL0     O 9408   3.173   8.074   8.499 -0.1894  0.6957 -0.6114
  811MOL0     C 9409   3.135   8.028   8.631 -0.7057  0.2204 -0.6505
  811MOL0     C 9410   3.234   8.029   8.737 -0.1200 -0.6327 -0.4952
  811MOL0     C 9411   3.190   7.963   8.860 -0.2536 -0.0242 -0.7176
  811MOL0     C 9412   3.314   7.930   8.954 -0.4884  0.1508 -0.3726
  811MOL0     C 9413   3.426   7.862   8.898  0.1229 -0.1597 -0.0118
  811MOL0     C 9414   3.525   7.791   8.876 -0.1257 -1.3917 -0.1719
  811MOL0     C 9415   3.085   8.301   8.572 -0.3513  0.6178 -0.2192
  811MOL0     C 9416   3.023   8.421   8.537 -0.4592 -0.8338 -0.1814
  811MOL0     C 9417   2.985   8.519   8.653 -0.5909 -0.7375 -0.2166
  811MOL0     H 9418   2.734   8.742   8.252  1.0403  0.5984 -0.4742
  811MOL0     H 9419   2.625   8.892   8.104 -0.4514 -1.8440  0.0053
  811MOL0     H 9420   2.527   8.928   7.853 -1.0914  0.1442 -1.2276
  811MOL0     H 9421   2.567   9.051   7.982  0.2492  0.3202 -0.8086
  811MOL0     H 9422   2.553   9.116   7.692 -2.2512 -0.2380  0.5880
  811MOL0     H 9423   2.644   9.203   7.821 -0.3949 -1.6202  2.4129
  811MOL0     H 9424   2.439   9.322   7.784  0.0060 -0.3786 -0.7261
  811MOL0     H 9425   2.416   9.234   7.932  0.3814  1.2050  0.2946
  811MOL0     H 9426   2.325   9.123   7.660  2.9261  1.2873 -0.1299
  811MOL0     H 9427   2.286   9.064   7.830  2.1704  0.3981  2.5882
  811MOL0     H 9428   2.093   9.162   7.736  2.9980 -3.5629 -0.7885
  811MOL0     H 9429   2.149   9.272   7.863  1.4020 -1.0385  0.3655
  811MOL0     H 9430   2.075   9.407   7.673  1.2462  2.7989 -0.0848
  811MOL0     H 9431   2.238   9.427   7.683 -1.6180  1.9057 -3.0911
  811MOL0     H 9432   2.115   9.221   7.481 -0.3544 -0.5766 -2.7667
  811MOL0     H 9433   2.281   9.259   7.495 -0.3481  1.0589 -1.6955
  811MOL0     H 9434   2.042   9.431   7.431 -0.5544  0.6759 -3.9300
  811MOL0     H 9435   2.205   9.501   7.444 -0.5827 -0.5716  1.1112
  811MOL0     H 9436   2.343   9.514   7.233  1.5738 -1.2518 -2.3051
  811MOL0     H 9437   2.275   9.400   6.872 -0.5502  0.3054  0.1292
  811MOL0     H 9438   2.350   9.527   6.946 -1.3338  0.8375  2.7035
  811MOL0     H 9439   2.525   9.360   6.857 -0.4076  0.1212  0.0606
  811MOL0     H 9440   2.529   9.363   7.029 -0.4919  0.9329 -0.0731
  811MOL0     H 9441   2.508   9.129   6.876 -2.0573 -2.1029 -0.3622
  811MOL0     H 9442   2.332   9.166   6.916  0.1472 -0.5353  0.6369
  811MOL0     H 9443   2.434   8.996   7.065 -2.0290  0.4725 -3.0202
  811MOL0     H 9444   2.361   9.127   7.154  0.6278 -3.3318  3.1825
  811MOL0     H 9445   2.413   9.228   7.316 -0.6822  2.0837 -1.7278
  811MOL0     H 9446   2.502   9.385   7.497  1.8624 -0.4437  2.7276
  811MOL0     H 9447   2.831   9.328   7.850 -0.3527  0.5930  1.4917
  811MOL0     H 9448   2.918   9.422   8.035 -0.6796 -2.7388 -2.5266
  811MOL0     H 9449   3.023   9.855   8.061 -1.4979 -3.3047 -1.9406
  811MOL0     H 9450   2.853   9.885   8.107 -0.6202  1.1813 -0.1003
  811MOL0     H 9451   2.898   9.802   8.336  1.9943  0.1008  2.2268
  811MOL0     H 9452   3.061   9.769   8.312 -0.6061  0.3358  1.0444
  811MOL0     H 9453   3.126   9.990   8.312  0.0566 -0.3757 -1.9770
  811MOL0     H 9454   2.976  10.058   8.256  1.4120 -0.2788 -1.4287
  811MOL0     H 9455   3.043   9.946   8.534  0.0408  0.4748  1.7035
  811MOL0     H 9456   2.870   9.998   8.482 -0.2217 -0.6690 -1.2718
  811MOL0     H 9457   3.000  10.175   8.597 -2.7949 -1.0021  1.3331
  811MOL0     H 9458   2.943  10.215   8.444  1.3691 -0.1279 -1.8224
  811MOL0     H 9459   3.234  10.149   8.510 -0.1843  0.4927 -0.2437
  811MOL0     H 9460   3.186  10.189   8.352 -2.4111 -0.1619 -0.4644
  811MOL0     H 9461   3.287  10.369   8.477 -1.3438  3.0754  0.0740
  811MOL0     H 9462   3.157  10.367   8.600  0.7529  0.6956  0.7759
  811MOL0     H 9463   3.177  10.554   8.430  0.6140 -0.1464  0.7113
  811MOL0     H 9464   3.121  10.447   8.311  1.1057 -0.4392 -0.8991
  811MOL0     H 9465   2.791   9.816   7.883 -1.8361  0.2846 -1.0093
  811MOL0     H 9466   2.707   9.727   7.703  1.1975 -0.1045 -0.2441
  811MOL0     H 9467   2.895   9.349   7.318 -0.6275  2.3790 -0.0011
  811MOL0     H 9468   2.797   9.219   7.144  0.8385  1.8273  1.4330
  811MOL0     H 9469   2.979   8.854   7.849 -1.5868  2.5093 -0.6641
  811MOL0     H 9470   3.074   8.699   8.006 -0.5895 -0.2896 -2.3912
  811MOL0     H 9471   3.086   8.395   8.200 -0.2080  0.5446  0.3648
  811MOL0     H 9472   3.175   8.177   8.266  3.0768 -0.6717  1.4821
  811MOL0     H 9473   3.104   7.924   8.635  1.4804 -0.4494  1.3420
  811MOL0     H 9474   3.048   8.075   8.679 -1.4269  0.8054 -2.4422
  811MOL0     H 9475   3.257   8.132   8.766 -4.1063  0.0177  1.0442
  811MOL0     H 9476   3.318   7.974   8.693  1.5608  1.1483  0.3848
  811MOL0     H 9477   3.124   7.878   8.835 -1.7141  1.0254 -0.5584
  811MOL0     H 9478   3.124   8.022   8.924  0.3592 -0.1714  0.0625
  811MOL0     H 9479   3.344   8.018   9.010 -0.4054 -1.6938  2.7240
  811MOL0     H 9480   3.283   7.866   9.037  1.8592  2.3149  2.3789
  811MOL0     H 9481   3.608   7.730   8.847  1.3370  0.9270 -1.1604
  811MOL0     H 9482   3.097   8.281   8.678 -2.4016  0.9921  0.1252
  811MOL0     H 9483   3.053   8.605   8.643  2.1944 -2.7994 -0.2084
  811MOL0     H 9484   2.882   8.555   8.652 -0.5588 -0.3444  2.6631
  811MOL0     H 9485   3.012   8.475   8.750  2.6252 -2.9842 -1.9440
  812MOL0     O 9486  10.921   3.804   7.594 -0.1517  0.5250  0.8804
  812MOL0     C 9487  10.865   3.884   7.522  0.0238 -0.9143  0.4794
  812MOL0     O 9488  10.787   3.986   7.572  0.1398 -0.2062 -0.4707
  812MOL0     C 9489  10.712   3.939   7.682  0.0346 -0.0138 -0.2337
  812MOL0     C 9490  10.622   3.836   7.672 -0.4748  0.7405 -0.4421
  812MOL0     C 9491  10.534   3.814   7.780 -0.2820  0.5801 -0.1710
  812MOL0     C 9492  10.543   3.888   7.897  0.5362  0.5570 -0.5209
  812MOL0     O 9493  10.460   3.870   8.003 -0.5434  0.9034  0.1042
  812MOL0     C 9494  10.503   3.782   8.105 -0.0961  1.0291  0.5647
  812MOL0     C 9495  10.385   3.753   8.200  0.1343 -0.3131 -0.6640
  812MOL0     C 9496  10.354   3.858   8.309 -0.1360  0.5545 -0.5518
  812MOL0     C 9497  10.456   3.859   8.425  0.7051 -0.1024  0.1052
  812MOL0     C 9498  10.411   3.953   8.535 -1.1815 -0.5106  0.0263
  812MOL0     C 9499  10.512   3.970   8.643 -0.4620  0.0251  0.3905
  812MOL0     C 9500  10.533   3.843   8.729 -0.1583 -0.8696  0.0250
  812MOL0     C 9501  10.668   3.851   8.805  0.0051 -0.1764  0.7476
  812MOL0     N 9502  10.788   3.826   8.728 -0.0171  0.2371 -1.0181
  812MOL0     C 9503  10.798   3.733   8.629  0.0746  0.5192  0.6309
  812MOL0     C 9504  10.910   3.768   8.564 -0.3887  0.4794  0.2917
  812MOL0     C 9505  10.970   3.685   8.451  1.1508 -0.5264 -0.2844
  812MOL0     C 9506  11.016   3.549   8.489 -0.4227 -0.0333  0.5079
  812MOL0     C 9507  11.063   3.485   8.362  1.3390  1.1276  0.4885
  812MOL0     C 9508  11.107   3.344   8.395  0.1517  1.1909 -0.0829
  812MOL0     O 9509  11.006   3.247   8.446 -1.1568 -0.6331  0.3990
  812MOL0     C 9510  10.915   3.200   8.353 -0.0714  0.2690  0.5709
  812MOL0     C 9511  10.815   3.113   8.401  0.3752 -0.1784  0.4390
  812MOL0     C 9512  10.721   3.054   8.323  0.3986 -0.3624 -0.8704
  812MOL0     C 9513  10.727   3.077   8.184 -0.0749 -0.7083 -0.5899
  812MOL0     C 9514  10.628   3.009   8.101 -0.1356  0.8946  0.5721
  812MOL0     O 9515  10.612   3.037   7.978  0.2653 -0.5198 -0.3198
  812MOL0     C 9516  10.498   2.992   7.911  0.0011  0.1768  0.3167
  812MOL0     C 9517  10.470   2.860   7.861 -0.5824 -0.7019  0.4703
  812MOL0     C 9518  10.375   2.855   7.763  0.0218 -1.0487  0.1203
  812MOL0     C 9519  10.301   2.957   7.713  0.8419  1.3334 -0.3819
  812MOL0     O 9520  10.212   2.923   7.618  0.1480  0.0740  0.6220
  812MOL0     C 9521  10.211   3.014   7.507 -0.5335  0.6840  1.3926
  812MOL0     C 9522  10.144   2.941   7.395 -0.5412 -0.4086 -0.4268
  812MOL0     C 9523   9.999   2.907   7.433 -0.3496 -0.6408  1.1165
  812MOL0     C 9524   9.933   2.835   7.314 -0.0465  0.6065  0.3914
  812MOL0     C 9525   9.963   2.683   7.318  0.6419 -0.3499  0.5068
  812MOL0     C 9526   9.892   2.613   7.192  0.3100  0.2163  0.6753
  812MOL0     C 9527   9.935   2.459   7.196  0.2913  0.9091 -0.2451
  812MOL0     C 9528   9.883   2.370   7.078 -0.0553 -0.0089  0.5115
  812MOL0    Cl 9529   9.956   2.429   6.925 -0.3968 -0.4668 -0.2077
  812MOL0     C 9530  10.311   3.085   7.782  0.2078 -0.9893  0.7206
  812MOL0     C 9531  10.408   3.094   7.878  0.1013  0.0171 -0.0660
  812MOL0     O 9532  10.545   2.939   8.161 -0.0691 -0.0730 -1.1466
  812MOL0     C 9533  10.834   3.151   8.134 -0.3968 -0.3560 -1.0311
  812MOL0     C 9534  10.927   3.210   8.219  0.6269  0.1125 -0.1206
  812MOL0     N 9535  10.970   3.880   8.619  0.2568 -0.0077 -0.1942
  812MOL0     N 9536  10.893   3.909   8.723  0.0786  0.0716  0.4377
  812MOL0     C 9537  10.628   3.994   7.901 -0.2042 -0.0694  0.8282
  812MOL0     C 9538  10.714   4.024   7.794 -0.5494  0.1255  0.2578
  812MOL0     C 9539  10.883   3.899   7.374 -0.3992  0.1575  0.0121
  812MOL0     C 9540  10.913   4.021   7.311  0.3400 -0.1690 -0.4601
  812MOL0     C 9541  10.919   4.028   7.165 -0.7161 -0.2973 -0.5309
  812MOL0     C 9542  10.923   3.924   7.084  0.4832  0.5486 -0.3728
  812MOL0     O 9543  10.952   3.940   6.952 -0.4626 -0.0172 -0.1153
  812MOL0     C 9544  11.028   3.836   6.887 -0.1872  0.2612 -0.0036
  812MOL0     C 9545  11.086   3.887   6.754  1.3255 -0.7182  0.4486
  812MOL0     C 9546  10.979   3.974   6.682  0.0615 -0.4145 -0.7705
  812MOL0     C 9547  11.009   4.003   6.532  0.6642 -0.3315 -0.6568
  812MOL0     C 9548  10.988   3.883   6.453  0.6106 -0.0523  0.4016
  812MOL0     C 9549  10.982   3.782   6.388 -0.5388  0.2342  0.2363
  812MOL0     C 9550  10.879   3.806   7.146  0.1088 -0.1099 -0.7698
  812MOL0     C 9551  10.867   3.790   7.290  0.8228  1.0137  0.0497
  812MOL0     C 9552  10.833   3.654   7.336  0.6507 -0.5962 -0.4278
  812MOL0     H 9553  10.621   3.767   7.588 -0.4491  1.4988 -1.0681
  812MOL0     H 9554  10.455   3.740   7.773 -0.6792  0.7165  2.2360
  812MOL0     H 9555  10.543   3.688   8.066  2.4772  2.2862 -0.0397
  812MOL0     H 9556  10.588   3.828   8.156 -0.0158  2.6716 -0.9418
  812MOL0     H 9557  10.410   3.662   8.256 -1.6679  1.6260  3.8200
  812MOL0     H 9558  10.297   3.725   8.141  0.6242  0.8441 -1.9707
  812MOL0     H 9559  10.259   3.832   8.358  0.3060 -1.4361 -0.6761
  812MOL0     H 9560  10.345   3.961   8.273  1.3440  1.1500  0.6637
  812MOL0     H 9561  10.458   3.759   8.469  1.8078 -0.2951 -0.3629
  812MOL0     H 9562  10.550   3.881   8.375  0.4900  0.4056 -0.0866
  812MOL0     H 9563  10.388   4.053   8.496 -0.6825 -0.2465  0.4002
  812MOL0     H 9564  10.320   3.922   8.587 -1.0679 -1.0387 -0.0888
  812MOL0     H 9565  10.607   3.995   8.593 -0.9673 -1.0547 -1.1719
  812MOL0     H 9566  10.489   4.059   8.702 -0.7445  0.2854 -0.1042
  812MOL0     H 9567  10.529   3.754   8.665  1.7550 -0.9210 -0.1087
  812MOL0     H 9568  10.455   3.840   8.806  1.2729 -0.4532  1.5560
  812MOL0     H 9569  10.668   3.953   8.843  3.1345 -0.4014  1.6342
  812MOL0     H 9570  10.666   3.778   8.887  1.5746 -0.6072  0.4334
  812MOL0     H 9571  10.738   3.647   8.598 -1.0479  2.2143 -2.3326
  812MOL0     H 9572  10.895   3.670   8.374  0.7766  1.9119 -0.4693
  812MOL0     H 9573  11.058   3.736   8.411  1.3076  0.4429  1.1962
  812MOL0     H 9574  11.104   3.562   8.552  0.7833  2.3826 -1.4877
  812MOL0     H 9575  10.940   3.484   8.534  0.6318 -2.2043 -0.6554
  812MOL0     H 9576  11.146   3.541   8.317  1.1225  0.4103 -0.8734
  812MOL0     H 9577  10.979   3.467   8.294  1.0742 -0.8561  1.2720
  812MOL0     H 9578  11.181   3.355   8.475 -1.7779 -0.3588  2.0295
  812MOL0     H 9579  11.158   3.307   8.306 -0.0455  0.0081  0.2808
  812MOL0     H 9580  10.820   3.096   8.508  0.2786 -2.2151  0.1518
  812MOL0     H 9581  10.645   2.996   8.374 -0.0433  1.3534  0.5437
  812MOL0     H 9582  10.523   2.768   7.884  3.3149  1.1242 -0.3502
  812MOL0     H 9583  10.374   2.750   7.735  2.5604 -1.9344  2.8574
  812MOL0     H 9584  10.152   3.104   7.528 -1.2372  1.4619 -2.8785
  812MOL0     H 9585  10.311   3.042   7.474 -1.2632  0.7734 -0.8882
  812MOL0     H 9586  10.140   3.007   7.308 -2.6961  2.6855  1.8020
  812MOL0     H 9587  10.200   2.850   7.368 -3.1659 -1.7808 -1.5702
  812MOL0     H 9588   9.992   2.848   7.524  0.1036  1.0795  2.3119
  812MOL0     H 9589   9.940   2.998   7.449 -0.3107  0.7418 -4.4880
  812MOL0     H 9590   9.956   2.896   7.226 -2.1733  1.3996  0.3413
  812MOL0     H 9591   9.827   2.849   7.335 -0.3253 -2.0807  1.1496
  812MOL0     H 9592   9.920   2.643   7.411  0.9225 -3.0129 -0.3984
  812MOL0     H 9593  10.070   2.663   7.306  0.3794 -0.2136 -3.1645
  812MOL0     H 9594   9.783   2.615   7.193  0.2466  1.8497 -1.6787
  812MOL0     H 9595   9.920   2.657   7.096  1.0099 -0.2135  0.6762
  812MOL0     H 9596   9.886   2.430   7.290 -0.3478  1.2537 -0.4687
  812MOL0     H 9597  10.043   2.444   7.208  0.2869  2.4220  2.7139
  812MOL0     H 9598   9.908   2.267   7.104  2.8242  0.5843  0.4803
  812MOL0     H 9599   9.774   2.372   7.067  0.0885  0.4046 -1.1429
  812MOL0     H 9600  10.254   3.172   7.752 -0.4916 -2.6326 -3.3621
  812MOL0     H 9601  10.429   3.193   7.917  1.6885  0.4052 -1.8070
  812MOL0     H 9602  10.853   3.166   8.029 -1.8968  1.6600 -1.0687
  812MOL0     H 9603  11.002   3.274   8.173 -0.5694  0.6245 -1.4164
  812MOL0     H 9604  10.627   4.052   7.993  2.3137 -0.9947  1.5173
  812MOL0     H 9605  10.773   4.115   7.794 -3.0255  1.8322  0.5358
  812MOL0     H 9606  10.930   4.109   7.373 -0.5042  0.5437 -1.2273
  812MOL0     H 9607  10.950   4.126   7.130  2.1277 -0.5543  1.0123
  812MOL0     H 9608  10.962   3.750   6.873  0.8022 -0.5746  0.3130
  812MOL0     H 9609  11.100   3.801   6.961 -3.0169  1.4703  3.6288
  812MOL0     H 9610  11.121   3.811   6.684  1.8514  0.3446 -0.4847
  812MOL0     H 9611  11.170   3.954   6.776 -0.4409  1.9907 -0.4862
  812MOL0     H 9612  10.966   4.072   6.729  0.8766 -1.2741  1.4097
  812MOL0     H 9613  10.883   3.923   6.679 -1.1084  1.5960  0.3161
  812MOL0     H 9614  10.947   4.087   6.499 -0.8256 -1.1228 -0.0133
  812MOL0     H 9615  11.103   4.057   6.521 -0.1638  1.6298  1.1038
  812MOL0     H 9616  10.994   3.691   6.333  4.3474  2.4311 -3.0128
  812MOL0     H 9617  10.867   3.715   7.088 -2.1158 -0.8392  0.7065
  812MOL0     H 9618  10.926   3.607   7.370  1.8749  1.5281 -0.6422
  812MOL0     H 9619  10.756   3.652   7.414 -0.9353 -2.1304 -1.9251
  812MOL0     H 9620  10.794   3.598   7.250  1.3827 -2.0591  0.1685
  813MOL0     O 9621   6.897   7.866  11.406  0.2573 -0.2702 -0.2714
  813MOL0     C 9622   6.865   7.825  11.520  0.0603 -0.5793  0.5633
  813MOL0     O 9623   6.952   7.777  11.611 -0.9272 -0.0351  0.4808
  813MOL0     C 9624   7.091   7.783  11.588  0.2320  0.5265  0.3908
  813MOL0     C 9625   7.158   7.745  11.472 -0.8140 -0.1091  0.2344
  813MOL0     C 9626   7.298   7.757  11.473  0.2161  0.7903 -0.0730
  813MOL0     C 9627   7.362   7.799  11.595 -0.8863 -0.3944 -0.2743
  813MOL0     O 9628   7.497   7.775  11.593  0.1549 -0.4819  0.2233
  813MOL0     C 9629   7.576   7.854  11.683 -0.5825 -0.5769 -1.3036
  813MOL0     C 9630   7.569   8.002  11.626  0.2017  0.3678 -0.6043
  813MOL0     C 9631   7.667   8.102  11.684  0.4454 -1.4642  0.1789
  813MOL0     C 9632   7.667   8.106  11.832  0.5919 -0.6618  0.0028
  813MOL0     C 9633   7.769   8.214  11.863 -0.1764 -0.6210 -0.3733
  813MOL0     C 9634   7.784   8.222  12.019 -0.6467 -0.2664 -0.2500
  813MOL0     C 9635   7.872   8.347  12.052  0.1063  0.2600  0.0044
  813MOL0     C 9636   7.867   8.373  12.208  0.0085  0.6873 -0.0870
  813MOL0     N 9637   7.967   8.284  12.267 -0.6658  0.2557  1.1303
  813MOL0     C 9638   8.093   8.324  12.310 -0.3645 -0.6413 -0.4013
  813MOL0     C 9639   8.147   8.207  12.349  0.3870  1.0822 -0.3601
  813MOL0     C 9640   8.289   8.193  12.386 -0.8164  0.8587 -0.2431
  813MOL0     C 9641   8.366   8.117  12.280  0.0766  0.2696  0.7486
  813MOL0     C 9642   8.519   8.142  12.303  0.4092  0.8252 -0.4846
  813MOL0     C 9643   8.590   8.042  12.202 -0.3266 -0.5997 -1.3930
  813MOL0     O 9644   8.527   8.062  12.075 -0.0097 -0.0241 -0.4367
  813MOL0     C 9645   8.593   8.006  11.974 -0.5893  0.2960  0.2959
  813MOL0     C 9646   8.699   7.915  11.978 -0.2222 -0.9563 -0.0004
  813MOL0     C 9647   8.745   7.860  11.855  0.6986 -0.9247  0.3865
  813MOL0     C 9648   8.691   7.915  11.733 -0.2882  0.0248  0.2017
  813MOL0     C 9649   8.753   7.879  11.607 -0.3353  0.0660  0.0853
  813MOL0     O 9650   8.719   7.960  11.494  0.0403 -0.0795  0.3231
  813MOL0     C 9651   8.796   7.948  11.376 -0.3116  0.1210 -0.2758
  813MOL0     C 9652   8.755   7.873  11.266  0.3327  0.0024  0.2892
  813MOL0     C 9653   8.844   7.876  11.152  1.2254 -0.0528  0.3257
  813MOL0     C 9654   8.973   7.927  11.159  0.0052  0.2420  0.5846
  813MOL0     O 9655   9.053   7.914  11.042 -0.1065  0.1928 -0.1714
  813MOL0     C 9656   9.181   7.964  11.023 -0.4707 -0.7475  0.6720
  813MOL0     C 9657   9.183   8.110  10.970  0.3286 -0.0475 -0.1496
  813MOL0     C 9658   9.138   8.123  10.827 -0.3390 -0.3703 -0.0011
  813MOL0     C 9659   9.167   8.256  10.768  0.3491 -0.5256  0.0471
  813MOL0     C 9660   9.096   8.271  10.629 -0.0001  0.0623  0.2390
  813MOL0     C 9661   9.153   8.392  10.540  0.9525 -0.7018 -0.1129
  813MOL0     C 9662   9.291   8.362  10.483  0.0449 -0.1254  0.3883
  813MOL0     C 9663   9.392   8.474  10.480  0.1831 -0.7078 -0.4816
  813MOL0    Cl 9664   9.402   8.556  10.640 -0.0751 -0.6686  0.5419
  813MOL0     C 9665   9.010   7.996  11.274  0.1561 -0.5311 -0.7553
  813MOL0     C 9666   8.925   8.012  11.377 -0.0370  0.9523 -1.1910
  813MOL0     O 9667   8.833   7.787  11.607  0.2944  0.7134 -0.8698
  813MOL0     C 9668   8.582   8.005  11.731 -0.4608  0.3831 -0.2712
  813MOL0     C 9669   8.530   8.039  11.853  0.4208  0.0977  0.7331
  813MOL0     N 9670   8.064   8.102  12.325 -0.1387  0.1834 -0.2011
  813MOL0     N 9671   7.954   8.150  12.278 -0.1029  0.5729 -0.5194
  813MOL0     C 9672   7.287   7.825  11.706  0.6497 -0.1598  0.3957
  813MOL0     C 9673   7.156   7.814  11.704  0.1177  0.4798  0.4385
  813MOL0     C 9674   6.713   7.819  11.545 -0.0929  0.0953 -0.4956
  813MOL0     C 9675   6.678   7.761  11.669  0.3480 -0.3675 -0.1588
  813MOL0     C 9676   6.551   7.778  11.712 -0.0161  0.0799  0.1631
  813MOL0     C 9677   6.450   7.822  11.626 -0.5285  0.2614 -0.3651
  813MOL0     O 9678   6.324   7.851  11.675  0.2481  0.5551 -0.0428
  813MOL0     C 9679   6.231   7.763  11.612  0.0107 -0.0478  0.1957
  813MOL0     C 9680   6.099   7.779  11.690  0.5317 -0.1935  0.0422
  813MOL0     C 9681   5.996   7.673  11.644  0.9854  0.1389 -0.5259
  813MOL0     C 9682   5.855   7.696  11.721  0.3118 -0.6151 -0.3260
  813MOL0     C 9683   5.802   7.831  11.714 -0.2448 -0.5491  0.6587
  813MOL0     C 9684   5.764   7.943  11.731  0.4905 -0.2680  1.0703
  813MOL0     C 9685   6.482   7.864  11.500 -0.1807 -1.5167  0.5428
  813MOL0     C 9686   6.614   7.875  11.459 -0.3184  0.7736  0.3427
  813MOL0     C 9687   6.638   7.958  11.333 -0.3414  0.5798  0.6491
  813MOL0     H 9688   7.105   7.702  11.387 -0.4987  1.9868 -1.1122
  813MOL0     H 9689   7.368   7.736  11.392  2.3772  0.3965  1.7803
  813MOL0     H 9690   7.549   7.864  11.789  0.7897  1.1204 -1.0605
  813MOL0     H 9691   7.683   7.836  11.667 -0.4258  0.9443 -2.1177
  813MOL0     H 9692   7.472   8.048  11.649  1.1020  1.4476  1.2743
  813MOL0     H 9693   7.580   7.990  11.518  1.3388 -1.4639 -0.3232
  813MOL0     H 9694   7.633   8.195  11.636  0.9495 -1.4117 -0.0753
  813MOL0     H 9695   7.767   8.077  11.648  1.6588  1.2920  1.3475
  813MOL0     H 9696   7.567   8.137  11.864  0.6486 -0.1091 -0.3373
  813MOL0     H 9697   7.703   8.011  11.873 -2.9284 -1.7568  0.9151
  813MOL0     H 9698   7.866   8.212  11.812  2.1747  2.6665  3.4306
  813MOL0     H 9699   7.737   8.314  11.833 -0.1337 -0.7735 -0.9524
  813MOL0     H 9700   7.681   8.239  12.052 -1.8642  1.8843 -4.4331
  813MOL0     H 9701   7.831   8.130  12.055 -0.0929 -0.5566 -1.6587
  813MOL0     H 9702   7.835   8.433  11.997 -0.8634  3.0798  4.4888
  813MOL0     H 9703   7.975   8.330  12.017 -0.8382  0.0535 -2.9129
  813MOL0     H 9704   7.890   8.477  12.232  1.9491  0.3889 -0.4968
  813MOL0     H 9705   7.767   8.346  12.243  0.9771 -2.0722  0.8813
  813MOL0     H 9706   8.126   8.426  12.291 -2.3306 -0.5127 -3.8426
  813MOL0     H 9707   8.329   8.293  12.405  0.5999  0.1939  0.4309
  813MOL0     H 9708   8.299   8.137  12.480 -0.2891  3.6491  1.5076
  813MOL0     H 9709   8.355   8.010  12.300  2.3580  0.3778  3.3083
  813MOL0     H 9710   8.335   8.159  12.184  0.0202 -0.5980  0.3832
  813MOL0     H 9711   8.542   8.109  12.405 -0.2724  1.9187  0.0368
  813MOL0     H 9712   8.540   8.249  12.294 -0.7275  0.9823 -1.3647
  813MOL0     H 9713   8.580   7.938  12.235  1.2041 -0.2419  0.4086
  813MOL0     H 9714   8.698   8.061  12.203 -0.7703  3.4959  2.5889
  813MOL0     H 9715   8.743   7.876  12.069  0.0618 -0.6942 -0.0274
  813MOL0     H 9716   8.812   7.776  11.872 -2.1471 -3.3578  0.4255
  813MOL0     H 9717   8.656   7.829  11.254  1.0614 -1.7092  0.3812
  813MOL0     H 9718   8.810   7.827  11.061  0.5673  4.6300 -2.2834
  813MOL0     H 9719   9.233   7.959  11.119  2.4552 -2.9016 -0.8718
  813MOL0     H 9720   9.235   7.902  10.951  0.0133 -1.1586  1.3725
  813MOL0     H 9721   9.121   8.168  11.038 -1.7991 -1.5793 -0.6942
  813MOL0     H 9722   9.286   8.149  10.973 -0.1235  1.1198  1.7504
  813MOL0     H 9723   9.202   8.058  10.767  1.6384  1.4106  0.0855
  813MOL0     H 9724   9.031   8.099  10.818 -0.0045 -1.8519 -0.2073
  813MOL0     H 9725   9.276   8.267  10.765  0.3784 -0.7881  0.1408
  813MOL0     H 9726   9.136   8.336  10.836  0.2332 -2.9020  3.0293
  813MOL0     H 9727   8.989   8.283  10.647 -0.1152 -0.3962 -0.1419
  813MOL0     H 9728   9.101   8.182  10.566  0.6669  1.1260 -1.2807
  813MOL0     H 9729   9.086   8.411  10.456  1.6610  2.8312 -0.0547
  813MOL0     H 9730   9.163   8.480  10.605  0.7273 -0.3410 -0.5635
  813MOL0     H 9731   9.269   8.325  10.382 -2.0196 -0.5052  0.9301
  813MOL0     H 9732   9.334   8.284  10.546  1.2104 -0.7177 -1.0770
  813MOL0     H 9733   9.496   8.446  10.458  0.5010  0.2929 -0.3126
  813MOL0     H 9734   9.358   8.556  10.417  3.0253  1.7572  0.9074
  813MOL0     H 9735   9.106   8.045  11.286  0.5191 -0.8350 -2.3106
  813MOL0     H 9736   8.945   8.081  11.459 -2.5270  1.0337 -0.5638
  813MOL0     H 9737   8.535   8.035  11.638 -4.4061 -0.3755  1.2623
  813MOL0     H 9738   8.462   8.123  11.855 -1.1885 -1.1754  2.2492
  813MOL0     H 9739   7.329   7.840  11.805 -3.4101  0.5182  2.2205
  813MOL0     H 9740   7.107   7.840  11.797 -2.2573  1.3385 -0.9455
  813MOL0     H 9741   6.761   7.730  11.731  3.6251  1.7498 -3.0533
  813MOL0     H 9742   6.542   7.763  11.819  3.5181  3.1093  1.0968
  813MOL0     H 9743   6.264   7.659  11.606 -1.3389 -0.6640  2.1873
  813MOL0     H 9744   6.218   7.804  11.512  1.8693  1.4610  0.5132
  813MOL0     H 9745   6.052   7.876  11.673 -0.9425 -1.0040 -0.7807
  813MOL0     H 9746   6.122   7.768  11.796 -0.1715 -1.8530  0.0556
  813MOL0     H 9747   6.024   7.569  11.663 -0.1525  0.2011  1.8270
  813MOL0     H 9748   5.984   7.695  11.537 -1.5092  0.5870 -0.2149
  813MOL0     H 9749   5.787   7.623  11.677  0.4243 -1.8360  1.4248
  813MOL0     H 9750   5.864   7.673  11.827  2.1881 -1.9293 -0.7092
  813MOL0     H 9751   5.731   8.045  11.729 -0.0098 -0.4360  0.4682
  813MOL0     H 9752   6.408   7.907  11.433  1.8555 -0.2971 -1.0627
  813MOL0     H 9753   6.570   8.043  11.347  0.9924  2.0440 -1.2899
  813MOL0     H 9754   6.734   8.008  11.317 -0.7056  0.3241 -3.0702
  813MOL0     H 9755   6.605   7.921  11.236 -0.2387  1.0307  0.4392
  814MOL0     O 9756  10.761   4.291   5.439  0.0250  0.2063  0.0502
  814MOL0     C 9757  10.782   4.174   5.479 -0.1218  0.3144 -1.0582
  814MOL0     O 9758  10.867   4.086   5.426 -0.3180  0.0550 -0.2719
  814MOL0     C 9759  10.954   4.121   5.321 -0.0506  0.2461 -0.0267
  814MOL0     C 9760  10.902   4.124   5.185  0.1141 -0.5597 -0.5119
  814MOL0     C 9761  10.996   4.165   5.090 -0.0189  0.0443  0.5289
  814MOL0     C 9762  11.127   4.198   5.113  0.8843  0.4207  0.5608
  814MOL0     O 9763  11.197   4.209   5.000  0.1114 -0.9929  0.1574
  814MOL0     C 9764  11.341   4.229   5.009  0.3445 -0.7399 -0.4996
  814MOL0     C 9765  11.400   4.235   4.872  0.0397  0.4410  0.4639
  814MOL0     C 9766  11.555   4.263   4.881 -0.5442  0.0534 -0.7313
  814MOL0     C 9767  11.625   4.126   4.861  0.0821  0.5981 -0.0805
  814MOL0     C 9768  11.777   4.152   4.818  0.9915 -0.2993 -0.4781
  814MOL0     C 9769  11.788   4.223   4.693  0.3606 -0.5420 -0.3475
  814MOL0     C 9770  11.918   4.188   4.612  0.5399  0.0582  0.4777
  814MOL0     C 9771  12.038   4.275   4.626 -0.3263  0.2468  0.0990
  814MOL0     N 9772  12.092   4.281   4.762  0.7716 -0.6261 -0.0587
  814MOL0     C 9773  12.043   4.368   4.860  0.0334  0.1480 -0.4085
  814MOL0     C 9774  12.102   4.314   4.975 -0.8623  0.0904  0.1318
  814MOL0     C 9775  12.082   4.361   5.118 -0.9782  0.4187  0.0925
  814MOL0     C 9776  12.154   4.506   5.129 -0.7669 -0.6442 -0.7531
  814MOL0     C 9777  12.096   4.563   5.272 -0.3015  0.0802 -0.1819
  814MOL0     C 9778  12.162   4.699   5.301 -0.9729  0.1151 -0.5982
  814MOL0     O 9779  12.153   4.735   5.443  0.2036 -0.7702  0.3820
  814MOL0     C 9780  12.204   4.864   5.484 -0.7722  1.1727 -0.5349
  814MOL0     C 9781  12.194   4.890   5.617 -0.6184 -0.2801  1.4862
  814MOL0     C 9782  12.236   5.010   5.675  0.1495  0.4776 -0.0249
  814MOL0     C 9783  12.278   5.117   5.591 -0.1570 -0.3849 -0.1165
  814MOL0     C 9784  12.328   5.245   5.648  0.8209 -0.4342  0.0879
  814MOL0     O 9785  12.363   5.342   5.562 -0.0062 -0.1459  0.2609
  814MOL0     C 9786  12.444   5.452   5.593 -0.2669  0.2312 -0.3969
  814MOL0     C 9787  12.395   5.576   5.555  0.1348  0.1633 -0.1653
  814MOL0     C 9788  12.468   5.697   5.578  0.5489 -0.2827 -0.4933
  814MOL0     C 9789  12.594   5.689   5.632  0.5162  0.3972  0.2387
  814MOL0     O 9790  12.671   5.801   5.641 -0.3485  0.0472  0.1318
  814MOL0     C 9791  12.618   5.936   5.625  0.7240  0.4406  0.1466
  814MOL0     C 9792  12.733   6.027   5.672 -0.2384  0.6019 -0.6193
  814MOL0     C 9793  12.777   6.002   5.821 -0.3531 -0.8803 -0.1368
  814MOL0     C 9794  12.878   6.113   5.859 -0.2166 -0.4240  0.3707
  814MOL0     C 9795  12.808   6.237   5.913 -0.9621  0.0490  0.2346
  814MOL0     C 9796  12.913   6.349   5.943 -1.0370  0.6318  0.7129
  814MOL0     C 9797  12.870   6.447   6.049 -0.3537  0.4012  0.3221
  814MOL0     C 9798  12.816   6.567   5.990 -0.4313  0.1904 -0.1948
  814MOL0    Cl 9799  12.653   6.597   6.069 -0.3541 -0.1759 -0.2152
  814MOL0     C 9800  12.637   5.561   5.677 -0.7270  0.1663 -1.1560
  814MOL0     C 9801  12.564   5.444   5.658 -0.4558  0.6904 -0.9231
  814MOL0     O 9802  12.340   5.250   5.770 -0.3938  0.4877  0.0597
  814MOL0     C 9803  12.275   5.092   5.452  0.3896  0.0153 -0.1554
  814MOL0     C 9804  12.243   4.968   5.396  1.1213 -1.1006 -0.0017
  814MOL0     N 9805  12.196   4.219   4.939  0.4624  0.2166  0.0170
  814MOL0     N 9806  12.184   4.195   4.815  0.4156  0.2391  0.5783
  814MOL0     C 9807  11.164   4.207   5.251 -0.6511 -0.3571 -1.0886
  814MOL0     C 9808  11.082   4.148   5.350  0.7886  0.3478 -0.7813
  814MOL0     C 9809  10.715   4.144   5.606  0.5294 -0.7198  0.3855
  814MOL0     C 9810  10.624   4.240   5.664  0.0199  0.2173 -0.0277
  814MOL0     C 9811  10.558   4.218   5.786 -0.2704  0.6279 -0.2173
  814MOL0     C 9812  10.570   4.089   5.858 -0.9900 -0.4639  0.7984
  814MOL0     O 9813  10.508   4.068   5.984 -0.0878 -0.4232  0.1214
  814MOL0     C 9814  10.472   4.175   6.078 -0.9116 -0.0146 -0.8863
  814MOL0     C 9815  10.430   4.107   6.211  0.0033 -0.3809  0.1977
  814MOL0     C 9816  10.529   4.011   6.282  0.2638  0.1188  0.0708
  814MOL0     C 9817  10.464   3.929   6.394 -0.2727  0.2256 -0.6943
  814MOL0     C 9818  10.559   3.837   6.463 -0.7291  0.0595  1.1006
  814MOL0     C 9819  10.616   3.744   6.513 -0.0193  0.9867 -0.4467
  814MOL0     C 9820  10.652   3.995   5.797 -0.3870 -0.3897  0.2437
  814MOL0     C 9821  10.722   4.018   5.675 -0.1457  0.1729  0.9211
  814MOL0     C 9822  10.828   3.905   5.636  0.0884  0.3163  0.7038
  814MOL0     H 9823  10.807   4.075   5.167  0.1523 -1.8194  2.2876
  814MOL0     H 9824  10.961   4.148   4.989 -2.4769  0.3263  1.2715
  814MOL0     H 9825  11.366   4.312   5.075  0.3011 -0.5224 -0.7547
  814MOL0     H 9826  11.403   4.152   5.055  1.2049 -0.8764 -1.8329
  814MOL0     H 9827  11.363   4.318   4.811 -1.0437 -0.9293 -0.8064
  814MOL0     H 9828  11.379   4.147   4.811  3.0016  0.3703 -0.6424
  814MOL0     H 9829  11.602   4.301   4.972 -0.8398  0.4623 -0.7451
  814MOL0     H 9830  11.579   4.343   4.811 -0.5738  0.5730 -0.1558
  814MOL0     H 9831  11.614   4.056   4.944 -0.4537 -2.4181 -2.4796
  814MOL0     H 9832  11.583   4.064   4.781  0.1144 -0.5788  0.7845
  814MOL0     H 9833  11.838   4.200   4.894 -0.9583  0.0633  0.9367
  814MOL0     H 9834  11.825   4.054   4.805  0.6944 -0.5168  0.0349
  814MOL0     H 9835  11.696   4.198   4.637 -1.1684 -0.1978  1.9001
  814MOL0     H 9836  11.788   4.329   4.718  1.2958 -0.5862 -0.1528
  814MOL0     H 9837  11.876   4.185   4.511 -1.8613 -3.4179  1.4049
  814MOL0     H 9838  11.943   4.085   4.636 -0.8646  0.0458  2.0916
  814MOL0     H 9839  12.128   4.245   4.572  0.4153 -2.7037  2.6549
  814MOL0     H 9840  12.013   4.379   4.604 -0.5804  0.4461  1.2511
  814MOL0     H 9841  11.960   4.437   4.850  0.1494  0.6733  1.8591
  814MOL0     H 9842  11.975   4.379   5.130 -1.1008 -0.2997  0.0818
  814MOL0     H 9843  12.132   4.286   5.180 -0.5499  1.8209  1.5081
  814MOL0     H 9844  12.260   4.488   5.144 -0.2489 -1.6394 -4.6869
  814MOL0     H 9845  12.124   4.563   5.041 -1.8155 -1.5532 -1.0054
  814MOL0     H 9846  12.134   4.497   5.350 -0.8790 -1.3757 -1.0993
  814MOL0     H 9847  11.987   4.566   5.282 -0.3970 -3.0371  0.9253
  814MOL0     H 9848  12.118   4.777   5.239  1.3970  1.5736 -0.5819
  814MOL0     H 9849  12.268   4.697   5.274 -0.4574  1.0192  1.2262
  814MOL0     H 9850  12.151   4.804   5.668  0.3589 -1.4203  0.4719
  814MOL0     H 9851  12.230   5.017   5.783  1.8532 -2.1129  0.3348
  814MOL0     H 9852  12.296   5.566   5.511  0.2966 -2.8321 -0.0862
  814MOL0     H 9853  12.414   5.786   5.545  1.4654 -0.3808 -2.3584
  814MOL0     H 9854  12.611   5.951   5.516  2.9067  2.0090  0.1521
  814MOL0     H 9855  12.522   5.960   5.672 -1.2784 -0.9182 -2.8852
  814MOL0     H 9856  12.826   6.000   5.620  1.0949 -1.0184  2.3241
  814MOL0     H 9857  12.710   6.130   5.643 -2.5114  0.0210 -1.0458
  814MOL0     H 9858  12.699   5.991   5.897 -0.1523  0.0876  0.2176
  814MOL0     H 9859  12.833   5.908   5.812  1.9994  0.3799  0.4429
  814MOL0     H 9860  12.935   6.150   5.773 -0.8274  0.3303  0.2902
  814MOL0     H 9861  12.951   6.077   5.933  1.0803 -2.0383 -1.5877
  814MOL0     H 9862  12.743   6.216   5.998 -0.8023  0.1657  0.3871
  814MOL0     H 9863  12.741   6.281   5.839 -0.8906  4.7751  2.5873
  814MOL0     H 9864  13.007   6.300   5.971 -0.5205  0.1394 -1.6585
  814MOL0     H 9865  12.932   6.396   5.846  3.9203 -2.4211 -0.1486
  814MOL0     H 9866  12.957   6.468   6.112 -0.6821  0.9963  0.5866
  814MOL0     H 9867  12.814   6.402   6.132  0.8508 -1.8423  0.0113
  814MOL0     H 9868  12.887   6.649   6.005 -1.1209  0.8947 -0.6433
  814MOL0     H 9869  12.804   6.557   5.881  1.1418 -0.6841 -0.3173
  814MOL0     H 9870  12.736   5.547   5.720 -0.4075 -4.6774 -2.8967
  814MOL0     H 9871  12.598   5.345   5.688 -2.0034  0.4877  0.2881
  814MOL0     H 9872  12.333   5.163   5.394  3.0522 -0.0875  2.1357
  814MOL0     H 9873  12.249   4.965   5.288 -3.7557 -0.3353 -0.5259
  814MOL0     H 9874  11.258   4.257   5.276  0.5205 -1.0255 -3.8605
  814MOL0     H 9875  11.114   4.134   5.452  1.1720 -1.8545 -1.1575
  814MOL0     H 9876  10.621   4.339   5.619  3.8631  0.7811  0.6912
  814MOL0     H 9877  10.496   4.297   5.828  1.8888  2.0079  0.5679
  814MOL0     H 9878  10.389   4.237   6.042 -0.8407  0.9668  0.5505
  814MOL0     H 9879  10.553   4.242   6.109 -0.5486 -0.5768 -0.6002
  814MOL0     H 9880  10.345   4.046   6.178 -0.0383  0.6828 -1.7891
  814MOL0     H 9881  10.387   4.179   6.282 -2.7599 -0.7394 -0.9721
  814MOL0     H 9882  10.619   4.070   6.304  1.4080 -0.0374 -3.5307
  814MOL0     H 9883  10.566   3.933   6.214 -3.2123 -0.9397 -0.7757
  814MOL0     H 9884  10.432   4.000   6.471  0.3255  2.0030 -2.0123
  814MOL0     H 9885  10.376   3.881   6.351 -1.4811  0.0666  1.7596
  814MOL0     H 9886  10.642   3.650   6.558  0.1500  1.3898  0.3137
  814MOL0     H 9887  10.648   3.900   5.851  0.1275 -0.8493 -0.5116
  814MOL0     H 9888  10.825   3.824   5.710  3.2851 -0.4325  0.1500
  814MOL0     H 9889  10.792   3.862   5.542 -3.2083 -1.4885  2.5878
  814MOL0     H 9890  10.930   3.942   5.627  0.9731 -2.1548 -0.2686
  815MOL0     O 9891   6.245  11.417   6.872  0.4011  0.2755 -0.5034
  815MOL0     C 9892   6.221  11.398   6.987 -0.5177  0.0351  0.0786
  815MOL0     O 9893   6.272  11.291   7.067  0.7757  0.4013 -0.4975
  815MOL0     C 9894   6.363  11.209   7.003 -0.8055 -0.5031 -0.6155
  815MOL0     C 9895   6.492  11.245   6.953  0.3789  0.7914 -0.4710
  815MOL0     C 9896   6.592  11.150   6.913 -0.5358 -0.0399  0.2110
  815MOL0     C 9897   6.552  11.016   6.897 -1.7241  0.6225  0.3043
  815MOL0     O 9898   6.660  10.937   6.858 -0.1144 -0.2445  0.4815
  815MOL0     C 9899   6.670  10.810   6.929  0.7584 -0.3646 -0.1349
  815MOL0     C 9900   6.766  10.839   7.047 -0.9797  0.5582 -0.0431
  815MOL0     C 9901   6.754  10.747   7.165  0.0113  0.3611 -0.8264
  815MOL0     C 9902   6.858  10.792   7.268 -0.1474  0.0052  0.3690
  815MOL0     C 9903   6.973  10.695   7.278  0.3680 -0.1363 -0.1546
  815MOL0     C 9904   7.074  10.741   7.384 -0.0119  0.4672  0.4735
  815MOL0     C 9905   7.213  10.700   7.349  0.6929 -0.4851 -0.5347
  815MOL0     C 9906   7.325  10.736   7.445  1.0142 -0.3062 -0.5422
  815MOL0     N 9907   7.451  10.693   7.378  0.0743 -0.4396  0.1312
  815MOL0     C 9908   7.541  10.771   7.317  0.1232 -0.3154  0.1861
  815MOL0     C 9909   7.648  10.695   7.280 -0.1237 -0.9966 -0.2647
  815MOL0     C 9910   7.775  10.746   7.215  0.3793 -0.2100 -0.4449
  815MOL0     C 9911   7.789  10.705   7.072 -0.6303 -1.3834 -0.5099
  815MOL0     C 9912   7.926  10.755   7.012 -0.4727  0.0880  0.2130
  815MOL0     C 9913   7.936  10.747   6.861 -0.2483  0.6995 -0.3544
  815MOL0     O 9914   7.942  10.608   6.834 -0.2015 -0.3103  0.5146
  815MOL0     C 9915   8.051  10.571   6.760  1.0358 -0.1926 -0.9050
  815MOL0     C 9916   8.147  10.487   6.816 -0.8867  1.0193  0.4907
  815MOL0     C 9917   8.274  10.472   6.746  0.9529 -0.2625 -0.2731
  815MOL0     C 9918   8.290  10.527   6.619  0.8153 -0.2461 -0.3422
  815MOL0     C 9919   8.412  10.522   6.536  0.6621 -0.8269 -0.3095
  815MOL0     O 9920   8.393  10.513   6.397  0.1497  0.3754  0.1445
  815MOL0     C 9921   8.497  10.491   6.317  0.1631  0.2203  0.2686
  815MOL0     C 9922   8.580  10.592   6.265  0.6237 -0.4828 -0.2690
  815MOL0     C 9923   8.696  10.550   6.187  0.8718 -0.8221  0.0335
  815MOL0     C 9924   8.721  10.421   6.152 -0.5399 -0.2141  0.5986
  815MOL0     O 9925   8.824  10.386   6.071  0.4311  0.1763 -0.5237
  815MOL0     C 9926   8.951  10.353   6.141  0.1264  0.4656  0.4953
  815MOL0     C 9927   9.050  10.303   6.037 -0.5145 -0.2550  0.1952
  815MOL0     C 9928   9.042  10.150   6.010 -0.5995 -0.7149  0.0739
  815MOL0     C 9929   8.920  10.107   5.929  0.0791 -0.4117  0.0104
  815MOL0     C 9930   8.869   9.956   5.918 -0.3100  0.3257  1.1578
  815MOL0     C 9931   8.983   9.852   5.881 -0.3435 -0.1185  0.4210
  815MOL0     C 9932   9.040   9.877   5.739  1.1206  0.1424  0.3275
  815MOL0     C 9933   9.147   9.767   5.696  0.1969 -0.5092 -0.7994
  815MOL0    Cl 9934   9.217   9.806   5.542  0.1288 -0.1591 -0.1363
  815MOL0     C 9935   8.626  10.320   6.191  0.3410  0.3322 -0.6152
  815MOL0     C 9936   8.517  10.362   6.271 -0.8071  0.5554 -0.3841
  815MOL0     O 9937   8.520  10.531   6.590 -0.7594  0.4727 -0.5136
  815MOL0     C 9938   8.188  10.609   6.563  0.5992  0.1313 -0.2236
  815MOL0     C 9939   8.071  10.626   6.637 -0.4098  0.4617  0.3573
  815MOL0     N 9940   7.619  10.564   7.321 -0.2085  0.5551  0.6057
  815MOL0     N 9941   7.504  10.565   7.375  0.1932  0.2858  0.1066
  815MOL0     C 9942   6.430  10.978   6.945 -0.4307  0.5587  0.0171
  815MOL0     C 9943   6.337  11.076   6.989  0.5194 -0.3461 -0.0589
  815MOL0     C 9944   6.136  11.490   7.052  0.8424 -0.6840  0.7114
  815MOL0     C 9945   6.177  11.537   7.180  0.1717 -0.2677  0.5462
  815MOL0     C 9946   6.107  11.631   7.251  0.0190 -1.0770 -0.6991
  815MOL0     C 9947   5.981  11.671   7.219 -0.1260  0.0743 -0.4663
  815MOL0     O 9948   5.911  11.751   7.301 -0.4153  0.3526  0.2442
  815MOL0     C 9949   5.885  11.885   7.257  0.0540  0.0916 -0.3110
  815MOL0     C 9950   5.890  11.914   7.107  0.2609  0.1300  0.6487
  815MOL0     C 9951   5.840  12.064   7.076  0.2087  0.4218  0.0798
  815MOL0     C 9952   5.803  12.069   6.922  0.1266  0.6806 -0.5107
  815MOL0     C 9953   5.727  12.188   6.877 -0.9397 -1.0797 -0.4456
  815MOL0     C 9954   5.658  12.289   6.868  0.8704  0.8428  0.0651
  815MOL0     C 9955   5.932  11.607   7.100  0.6907 -0.1045  0.7768
  815MOL0     C 9956   6.004  11.523   7.010  0.2750 -0.6291  0.1085
  815MOL0     C 9957   5.929  11.454   6.899 -0.3554  0.0901 -0.4053
  815MOL0     H 9958   6.507  11.348   6.983 -0.0311  0.5949  0.4641
  815MOL0     H 9959   6.691  11.184   6.885 -0.9430 -0.2093 -1.5773
  815MOL0     H 9960   6.582  10.755   6.966  1.7303 -1.0486  1.2448
  815MOL0     H 9961   6.720  10.742   6.860  0.9454  0.3359 -0.6951
  815MOL0     H 9962   6.737  10.938   7.084 -2.9849 -0.7445  2.2174
  815MOL0     H 9963   6.867  10.848   7.008 -0.9032  0.4930  0.1380
  815MOL0     H 9964   6.755  10.642   7.135  0.3388  0.4638 -1.1935
  815MOL0     H 9965   6.653  10.762   7.204  1.2399  1.8866  2.0869
  815MOL0     H 9966   6.895  10.893   7.251  0.7580 -0.7783 -3.2930
  815MOL0     H 9967   6.802  10.796   7.361  0.1098 -1.3910  0.6083
  815MOL0     H 9968   6.935  10.598   7.310 -0.7443 -0.0374 -1.1103
  815MOL0     H 9969   7.006  10.697   7.174  1.1313  2.3020  0.0752
  815MOL0     H 9970   7.078  10.848   7.402 -0.8615  0.0449  3.8093
  815MOL0     H 9971   7.038  10.698   7.478 -0.6983 -1.0034 -0.4121
  815MOL0     H 9972   7.242  10.743   7.253 -0.2694 -1.6015 -1.3545
  815MOL0     H 9973   7.193  10.593   7.349 -1.0523 -0.1979  0.3146
  815MOL0     H 9974   7.333  10.843   7.467  2.0541 -0.3081 -0.8531
  815MOL0     H 9975   7.311  10.690   7.543 -2.9751  1.6735  0.0452
  815MOL0     H 9976   7.524  10.878   7.312  0.5028 -0.1953  1.2933
  815MOL0     H 9977   7.767  10.855   7.221  1.2522 -0.0564 -1.7743
  815MOL0     H 9978   7.853  10.700   7.275 -0.9613  0.0856  1.6245
  815MOL0     H 9979   7.778  10.597   7.088 -2.4803 -1.4404 -1.8650
  815MOL0     H 9980   7.707  10.742   7.010 -0.7727 -0.8836 -0.0280
  815MOL0     H 9981   8.016  10.707   7.052  2.7531  1.2843 -4.6916
  815MOL0     H 9982   7.939  10.857   7.047  2.7194 -0.0977 -0.1618
  815MOL0     H 9983   8.025  10.801   6.829 -1.3408  2.3676 -0.7168
  815MOL0     H 9984   7.846  10.791   6.816  0.1453 -0.4557 -2.4150
  815MOL0     H 9985   8.133  10.434   6.909  1.7832 -2.7818 -1.0039
  815MOL0     H 9986   8.350  10.407   6.790  0.3712 -0.9986 -0.3335
  815MOL0     H 9987   8.575  10.698   6.288  3.3168 -0.5886  1.2684
  815MOL0     H 9988   8.767  10.621   6.145 -0.7491  1.8409  1.5178
  815MOL0     H 9989   8.981  10.449   6.182  0.2844  1.4693 -1.8465
  815MOL0     H 9990   8.927  10.279   6.219  0.5795 -0.6637 -0.4074
  815MOL0     H 9991   9.038  10.360   5.945 -1.8335  0.7683  0.9635
  815MOL0     H 9992   9.147  10.331   6.079 -1.0568  0.6155  0.9154
  815MOL0     H 9993   9.130  10.115   5.955  0.9042  1.8032  0.6828
  815MOL0     H 9994   9.055  10.100   6.106  1.6000 -1.1257 -0.3904
  815MOL0     H 9995   8.950  10.141   5.829  0.9765  1.4254  0.8589
  815MOL0     H 9996   8.837  10.176   5.948  0.6917  0.7023 -1.2051
  815MOL0     H 9997   8.802   9.951   5.832  1.1341 -1.7201  0.0365
  815MOL0     H 9998   8.815   9.927   6.009 -2.4477  1.0570  0.1853
  815MOL0     H 9999   9.060   9.854   5.959  0.7419  1.3737 -0.6480
  815MOL0     H10000   8.931   9.756   5.885  1.8250 -1.6044 -2.7756
  815MOL0     H10001   9.098   9.968   5.720  3.1661 -1.0106  0.6762
  815MOL0     H10002   8.964   9.875   5.661  1.6824  0.5209 -0.2394
  815MOL0     H10003   9.223   9.760   5.775 -2.7753  0.2459  2.3612
  815MOL0     H10004   9.102   9.668   5.696  1.7158 -1.3185  2.1061
  815MOL0     H10005   8.646  10.216   6.166 -0.2601  0.2669 -0.8203
  815MOL0     H10006   8.434  10.297   6.299  0.2999 -1.2312 -1.0771
  815MOL0     H10007   8.193  10.660   6.468  0.2858  0.8332  0.1272
  815MOL0     H10008   8.006  10.702   6.594 -1.5495 -0.7910 -0.2614
  815MOL0     H10009   6.401  10.874   6.943 -1.4090  0.8332 -0.9251
  815MOL0     H10010   6.243  11.044   7.033  1.6940 -2.5733  1.0262
  815MOL0     H10011   6.271  11.507   7.224 -0.0031 -3.3603 -0.9654
  815MOL0     H10012   6.157  11.688   7.328 -0.1016 -1.9346  0.0265
  815MOL0     H10013   5.951  11.952   7.313 -1.8808  3.4167 -1.7147
  815MOL0     H10014   5.784  11.906   7.292 -0.5911 -3.0100 -0.0157
  815MOL0     H10015   5.827  11.846   7.048 -0.7430  0.1295  1.6803
  815MOL0     H10016   5.990  11.903   7.065 -0.8001 -4.1205 -1.2758
  815MOL0     H10017   5.926  12.125   7.103 -0.0001  0.8750 -0.2768
  815MOL0     H10018   5.750  12.085   7.135  1.3529 -0.1049  2.1093
  815MOL0     H10019   5.889  12.047   6.859 -0.6560 -5.1083 -0.0833
  815MOL0     H10020   5.738  11.983   6.905  2.8427 -1.6414  0.0649
  815MOL0     H10021   5.592  12.372   6.854  1.9080  1.4884 -1.2672
  815MOL0     H10022   5.825  11.621   7.084  0.8177 -1.2470 -1.5277
  815MOL0     H10023   5.834  11.498   6.868  0.6290  1.7108 -1.2428
  815MOL0     H10024   5.992  11.469   6.811 -0.7320 -0.9401 -0.8676
  815MOL0     H10025   5.915  11.346   6.909 -1.1489  0.0195 -1.9487
  816MOL0     O10026   9.088   9.731   8.436  0.0902  0.4522 -0.3159
  816MOL0     C10027   9.129   9.658   8.530 -0.6298  0.4542  0.4010
  816MOL0     O10028   9.047   9.623   8.633  0.7772  0.0929 -0.0027
  816MOL0     C10029   8.924   9.683   8.643  0.7268 -1.2838 -0.9740
  816MOL0     C10030   8.906   9.783   8.746 -0.5656  0.3457  0.0466
  816MOL0     C10031   8.788   9.855   8.761 -0.1323  0.8691 -0.7672
  816MOL0     C10032   8.673   9.819   8.685  0.0318  0.0068  0.2569
  816MOL0     O10033   8.570   9.895   8.719 -0.5039  0.4733 -0.9508
  816MOL0     C10034   8.489   9.937   8.599 -0.9832 -0.6603  0.6733
  816MOL0     C10035   8.346   9.882   8.609 -0.5109  0.8346  0.2060
  816MOL0     C10036   8.326   9.733   8.588  1.1998  0.1801 -0.5066
  816MOL0     C10037   8.176   9.701   8.597  0.0003 -0.0245 -0.1713
  816MOL0     C10038   8.138   9.557   8.568 -0.0789  0.1867 -0.4086
  816MOL0     C10039   7.985   9.541   8.564 -0.4425  0.4002 -0.2327
  816MOL0     C10040   7.949   9.395   8.539 -0.0833 -0.2883 -0.2126
  816MOL0     C10041   7.801   9.367   8.571  0.3499 -0.0929  0.1585
  816MOL0     N10042   7.718   9.431   8.466 -0.6977  0.3937 -0.4497
  816MOL0     C10043   7.708   9.403   8.337  0.4607  1.0244  0.3704
  816MOL0     C10044   7.647   9.515   8.287  0.2929  0.3094  0.9497
  816MOL0     C10045   7.632   9.525   8.131 -0.2545 -0.1739 -0.2583
  816MOL0     C10046   7.552   9.652   8.074  0.0209  0.8306  0.3837
  816MOL0     C10047   7.557   9.663   7.918  0.6196 -0.2984 -0.1451
  816MOL0     C10048   7.686   9.698   7.852 -0.3805 -0.1362 -1.0973
  816MOL0     O10049   7.660   9.718   7.717 -0.0225  0.0036  0.1697
  816MOL0     C10050   7.768   9.692   7.640  0.1013  0.4532  0.1170
  816MOL0     C10051   7.898   9.719   7.684 -0.1760 -0.6316 -0.2511
  816MOL0     C10052   8.011   9.691   7.600 -0.5793  0.6568  0.2799
  816MOL0     C10053   7.995   9.640   7.463  0.1247  0.3914  0.0830
  816MOL0     C10054   8.108   9.626   7.368  0.5455  0.6253  0.6841
  816MOL0     O10055   8.233   9.622   7.413  0.1429 -0.5359 -0.1855
  816MOL0     C10056   8.339   9.596   7.324 -0.7662  0.3592 -1.1087
  816MOL0     C10057   8.428   9.499   7.363 -0.2111 -0.2535 -1.4261
  816MOL0     C10058   8.554   9.478   7.310 -0.1046 -0.6941  0.4714
  816MOL0     C10059   8.589   9.553   7.201  1.1779 -0.8625  0.6897
  816MOL0     O10060   8.725   9.565   7.160 -0.1837 -0.1572 -0.2558
  816MOL0     C10061   8.792   9.454   7.102  0.2418  0.2690 -0.4232
  816MOL0     C10062   8.940   9.439   7.157 -0.0935  0.4928 -0.1935
  816MOL0     C10063   9.017   9.568   7.149 -0.3348 -0.5136  0.3452
  816MOL0     C10064   9.171   9.549   7.152 -0.6066 -0.6026  0.0191
  816MOL0     C10065   9.251   9.688   7.150 -0.0275  0.6686  0.5485
  816MOL0     C10066   9.393   9.671   7.208  1.0852  0.4655  0.2420
  816MOL0     C10067   9.462   9.803   7.175  0.5128  0.0679  0.3545
  816MOL0     C10068   9.573   9.838   7.276 -0.3425  0.5708  0.6319
  816MOL0    Cl10069   9.701   9.713   7.226 -0.5583 -0.0817  0.1376
  816MOL0     C10070   8.503   9.659   7.155  0.8210  0.0915  0.0644
  816MOL0     C10071   8.374   9.682   7.216  0.2512 -0.0595  0.2310
  816MOL0     O10072   8.081   9.603   7.248  0.2226  0.1087  0.3372
  816MOL0     C10073   7.860   9.633   7.416  0.5120  0.4635 -0.0623
  816MOL0     C10074   7.750   9.658   7.505 -0.5249 -0.3111 -0.6996
  816MOL0     N10075   7.610   9.589   8.389 -0.0117  0.3352 -0.6719
  816MOL0     N10076   7.648   9.541   8.502 -0.4815  0.5016 -0.4596
  816MOL0     C10077   8.681   9.707   8.604 -1.2259  0.2399  0.5435
  816MOL0     C10078   8.806   9.652   8.566  0.3290 -0.0067  0.4063
  816MOL0     C10079   9.273   9.619   8.535  0.0307 -0.7440 -0.6661
  816MOL0     C10080   9.370   9.709   8.495  1.4363  0.4632  1.0669
  816MOL0     C10081   9.504   9.693   8.511 -0.1863 -0.7470 -0.0166
  816MOL0     C10082   9.548   9.578   8.571  0.3301 -0.3732  0.0919
  816MOL0     O10083   9.685   9.548   8.590 -0.4077 -0.0842  0.1391
  816MOL0     C10084   9.784   9.612   8.501 -0.1269  0.7888  0.2069
  816MOL0     C10085   9.833   9.750   8.562 -0.7732  0.2655  0.5451
  816MOL0     C10086   9.969   9.745   8.629  0.5472 -0.1058  0.8699
  816MOL0     C10087  10.089   9.725   8.529  0.1156 -0.3427 -0.2476
  816MOL0     C10088  10.208   9.711   8.619  0.4968 -0.2314  0.4333
  816MOL0     C10089  10.302   9.687   8.697 -0.1241 -0.6040 -0.1073
  816MOL0     C10090   9.454   9.478   8.613 -0.1304 -0.4880 -0.3700
  816MOL0     C10091   9.315   9.497   8.591 -0.3720 -0.1236  0.3109
  816MOL0     C10092   9.221   9.379   8.605 -0.3774  0.7202  0.6555
  816MOL0     H10093   8.986   9.797   8.818 -2.0104 -1.6202  2.1820
  816MOL0     H10094   8.784   9.944   8.824 -0.8925  0.6956 -0.5577
  816MOL0     H10095   8.488  10.047   8.601  0.2578 -0.6383  0.7163
  816MOL0     H10096   8.534   9.915   8.502 -0.9378 -1.6736  0.9137
  816MOL0     H10097   8.286   9.940   8.539  0.1230 -0.4705 -1.4666
  816MOL0     H10098   8.306   9.912   8.707  3.2287 -1.0307  2.5705
  816MOL0     H10099   8.385   9.677   8.661 -3.1095  1.2177  4.3900
  816MOL0     H10100   8.358   9.714   8.485  0.1665  1.6361 -1.1430
  816MOL0     H10101   8.139   9.723   8.697 -1.1993 -1.1406 -0.3405
  816MOL0     H10102   8.131   9.768   8.523  0.6064 -1.8054 -2.2752
  816MOL0     H10103   8.182   9.530   8.472 -0.4653  0.2656 -0.6064
  816MOL0     H10104   8.171   9.503   8.658 -1.9247  1.6184  1.1886
  816MOL0     H10105   7.948   9.568   8.664 -1.9884 -1.2065 -0.3213
  816MOL0     H10106   7.950   9.614   8.491  2.5093  3.0117  0.7621
  816MOL0     H10107   8.012   9.336   8.606 -1.8805  0.6246  2.4855
  816MOL0     H10108   7.958   9.373   8.432 -0.8481  2.2048 -0.8643
  816MOL0     H10109   7.791   9.259   8.584  1.3908 -0.5817 -2.5070
  816MOL0     H10110   7.782   9.398   8.674 -2.5617 -1.4006  0.1109
  816MOL0     H10111   7.745   9.315   8.286  0.4577  1.2993 -0.1194
  816MOL0     H10112   7.732   9.535   8.087  0.0727  1.7785  0.8139
  816MOL0     H10113   7.588   9.437   8.082 -0.3679  0.7519 -1.8971
  816MOL0     H10114   7.446   9.661   8.098  0.4115  5.5891  1.1411
  816MOL0     H10115   7.601   9.742   8.112  1.3234  0.3518 -0.0808
  816MOL0     H10116   7.485   9.743   7.896 -0.2735 -1.0193  0.0752
  816MOL0     H10117   7.518   9.568   7.878 -0.5252 -0.6759  1.7314
  816MOL0     H10118   7.762   9.623   7.875 -1.0825 -0.5099  0.1131
  816MOL0     H10119   7.722   9.794   7.891  0.4428 -0.3503 -1.3200
  816MOL0     H10120   7.920   9.753   7.785 -1.5912 -2.4795  0.7229
  816MOL0     H10121   8.107   9.721   7.640 -0.0060 -1.0245  0.2483
  816MOL0     H10122   8.397   9.434   7.444 -0.3812  0.7139 -0.6996
  816MOL0     H10123   8.619   9.397   7.344 -1.3413 -0.2925  4.2963
  816MOL0     H10124   8.734   9.365   7.130 -1.0014  1.5424  1.2596
  816MOL0     H10125   8.793   9.477   6.995 -1.6772  1.9857 -0.1338
  816MOL0     H10126   8.946   9.407   7.262 -0.2232  2.0425  0.3144
  816MOL0     H10127   8.993   9.354   7.113  1.0020  0.1772  1.6362
  816MOL0     H10128   8.998   9.606   7.048  0.6622 -0.8334  0.0197
  816MOL0     H10129   8.983   9.642   7.223  3.4411  0.9148  0.9039
  816MOL0     H10130   9.198   9.496   7.061  0.6901 -0.8677  0.5443
  816MOL0     H10131   9.207   9.488   7.234  0.3886  0.6624  0.5512
  816MOL0     H10132   9.199   9.769   7.202 -2.8758  0.2805 -1.4639
  816MOL0     H10133   9.244   9.717   7.045  0.6578  0.4776  0.4494
  816MOL0     H10134   9.387   9.659   7.317 -0.2036 -1.2400  0.0270
  816MOL0     H10135   9.451   9.585   7.172  0.8151  0.2631  0.2913
  816MOL0     H10136   9.390   9.885   7.182 -0.2601 -0.5866  0.1504
  816MOL0     H10137   9.487   9.802   7.068 -0.3239 -0.1275  0.1562
  816MOL0     H10138   9.613   9.939   7.260 -2.2752  0.9893 -2.1179
  816MOL0     H10139   9.552   9.827   7.383  1.4379  4.3010  1.5267
  816MOL0     H10140   8.541   9.724   7.078  0.0180  0.1437 -0.2980
  816MOL0     H10141   8.306   9.756   7.175  2.2545  0.8991 -1.5539
  816MOL0     H10142   7.831   9.602   7.316  0.4072 -2.6687  0.8340
  816MOL0     H10143   7.649   9.641   7.468  0.2032 -0.0231 -2.9822
  816MOL0     H10144   8.591   9.679   8.550 -2.7668  1.9868  2.0575
  816MOL0     H10145   8.807   9.581   8.484  0.0933 -0.8093  1.0838
  816MOL0     H10146   9.344   9.810   8.467  0.1777  0.0103  0.5311
  816MOL0     H10147   9.562   9.780   8.481 -0.4164 -0.1825  1.1181
  816MOL0     H10148   9.740   9.634   8.403  0.4991  4.2466  0.5889
  816MOL0     H10149   9.867   9.544   8.479 -2.2656 -1.4840 -1.4101
  816MOL0     H10150   9.768   9.784   8.643 -0.6419 -1.1786  1.2744
  816MOL0     H10151   9.827   9.815   8.474 -0.0020  0.4587  0.6254
  816MOL0     H10152   9.978   9.662   8.699  0.3397 -0.8680  0.0166
  816MOL0     H10153   9.979   9.845   8.673  0.7339  0.7862 -1.0550
  816MOL0     H10154  10.069   9.633   8.474 -5.5910  0.5021 -0.2421
  816MOL0     H10155  10.090   9.807   8.457 -0.4462 -0.3586 -0.2731
  816MOL0     H10156  10.386   9.678   8.763 -0.2920  3.8605  1.0706
  816MOL0     H10157   9.494   9.386   8.653  0.8489  0.4930  1.0586
  816MOL0     H10158   9.268   9.295   8.658 -1.3116  0.3298  0.8925
  816MOL0     H10159   9.122   9.399   8.647  0.4448 -0.2354  3.2566
  816MOL0     H10160   9.210   9.333   8.506 -1.0657 -4.1608  2.6810
  817MOL0     O10161   5.220   1.381   3.430  0.5270 -0.9544 -1.0136
  817MOL0     C10162   5.337   1.384   3.461  0.2043 -1.0613  0.3838
  817MOL0     O10163   5.414   1.275   3.496  0.5077 -0.7431  0.3067
  817MOL0     C10164   5.363   1.149   3.503  1.1658 -0.1043 -0.0187
  817MOL0     C10165   5.231   1.120   3.545 -0.1258  0.2166  0.3537
  817MOL0     C10166   5.191   0.989   3.555  0.1844  0.1561  0.7773
  817MOL0     C10167   5.277   0.875   3.509  0.5470 -0.2497 -0.2785
  817MOL0     O10168   5.223   0.750   3.495 -0.0204  0.2854 -0.5601
  817MOL0     C10169   5.314   0.639   3.476  1.3531 -1.4149  0.0313
  817MOL0     C10170   5.239   0.509   3.467  0.4948  0.2848  0.1066
  817MOL0     C10171   5.158   0.488   3.338  0.2556 -0.1045  0.3240
  817MOL0     C10172   5.233   0.483   3.203 -0.2293  0.9484 -0.2375
  817MOL0     C10173   5.312   0.347   3.193 -0.0220 -0.1626  0.0304
  817MOL0     C10174   5.398   0.340   3.062 -0.0506 -0.2028  0.9849
  817MOL0     C10175   5.423   0.198   3.015 -0.2609  0.7616  0.3873
  817MOL0     C10176   5.539   0.188   2.902  0.9394  0.6800 -0.6350
  817MOL0     N10177   5.675   0.208   2.954 -0.1371 -0.8133 -0.0840
  817MOL0     C10178   5.745   0.151   3.067 -0.1851 -0.6269 -0.4147
  817MOL0     C10179   5.869   0.197   3.072  0.3817  0.7609 -0.1739
  817MOL0     C10180   5.981   0.172   3.170  0.6871 -0.1847  0.2667
  817MOL0     C10181   5.957   0.219   3.312 -1.3713 -0.7280  0.0965
  817MOL0     C10182   6.064   0.159   3.409 -0.0682 -0.9224  0.4335
  817MOL0     C10183   6.174   0.262   3.424  1.2089 -1.3816 -0.4356
  817MOL0     O10184   6.244   0.267   3.294 -0.0984 -0.4516 -0.1591
  817MOL0     C10185   6.358   0.191   3.278  0.2457 -0.7766 -0.1530
  817MOL0     C10186   6.408   0.112   3.386 -0.3021 -0.0022  0.6729
  817MOL0     C10187   6.528   0.042   3.361  0.7657 -0.0564  0.7040
  817MOL0     C10188   6.612   0.073   3.252 -0.1002 -0.5176 -0.3991
  817MOL0     C10189   6.736   0.002   3.237  0.5275 -0.9358 -0.1025
  817MOL0     O10190   6.767  -0.109   3.310  0.6628 -0.4623  0.1516
  817MOL0     C10191   6.888  -0.159   3.317  0.2171  0.9765  0.2040
  817MOL0     C10192   6.998  -0.076   3.323  0.5024  0.0120  0.5586
  817MOL0     C10193   7.124  -0.122   3.362 -0.0548 -0.5287  0.1926
  817MOL0     C10194   7.143  -0.257   3.360 -0.0110  0.1246  0.2513
  817MOL0     O10195   7.273  -0.287   3.390 -0.1194 -1.4885 -0.7961
  817MOL0     C10196   7.283  -0.400   3.482  0.8566 -0.0109  0.1424
  817MOL0     C10197   7.406  -0.395   3.569 -0.1849  0.4641  0.3479
  817MOL0     C10198   7.453  -0.251   3.614 -0.1793 -0.5717  0.2656
  817MOL0     C10199   7.551  -0.262   3.737  0.4699 -0.4121  0.2651
  817MOL0     C10200   7.554  -0.122   3.812  0.1706  0.8659  0.2856
  817MOL0     C10201   7.614  -0.134   3.954 -0.3840 -0.5564  1.0343
  817MOL0     C10202   7.763  -0.182   3.946  0.9156 -0.8434  0.8059
  817MOL0     C10203   7.842  -0.184   4.081  0.3055 -0.7451 -0.4275
  817MOL0    Cl10204   7.776  -0.281   4.224 -0.0695  0.3107 -0.2046
  817MOL0     C10205   7.033  -0.353   3.343 -0.4838  0.3036  1.0300
  817MOL0     C10206   6.907  -0.294   3.320  0.0506  0.1963  0.9884
  817MOL0     O10207   6.813   0.047   3.156 -0.0224  0.3000 -0.0431
  817MOL0     C10208   6.565   0.167   3.150  0.0164 -1.3644 -0.5143
  817MOL0     C10209   6.434   0.215   3.163 -0.5364  0.0661 -0.1227
  817MOL0     N10210   5.878   0.292   2.984 -0.0393 -0.3143  0.4753
  817MOL0     N10211   5.764   0.305   2.919  0.1943 -0.5007 -0.4111
  817MOL0     C10212   5.410   0.905   3.483  0.1759  0.8281  0.8002
  817MOL0     C10213   5.456   1.043   3.478  0.0150  0.7256  1.2316
  817MOL0     C10214   5.403   1.518   3.435  0.1317  0.0952  0.5683
  817MOL0     C10215   5.321   1.627   3.459  0.2314 -0.5737 -0.3298
  817MOL0     C10216   5.357   1.761   3.434 -1.3460 -0.7474  0.8219
  817MOL0     C10217   5.492   1.790   3.389  0.6705  0.8691 -0.5873
  817MOL0     O10218   5.525   1.920   3.374 -0.6319 -0.0257 -0.6270
  817MOL0     C10219   5.504   2.013   3.477 -0.0496  0.1008  0.8902
  817MOL0     C10220   5.619   2.001   3.575 -0.3539 -0.2190 -0.1277
  817MOL0     C10221   5.756   2.034   3.502  0.0171 -0.1416  1.2278
  817MOL0     C10222   5.880   1.958   3.551  0.5271 -0.0534  0.1100
  817MOL0     C10223   5.917   2.009   3.677  1.2207 -0.6697  0.3727
  817MOL0     C10224   5.949   2.041   3.795 -0.7198  0.0019  0.3415
  817MOL0     C10225   5.582   1.678   3.383 -0.4981 -0.5662 -0.0208
  817MOL0     C10226   5.539   1.545   3.404 -0.6866 -0.3669  0.7490
  817MOL0     C10227   5.630   1.428   3.374 -0.4504 -0.4770  0.0726
  817MOL0     H10228   5.171   1.185   3.607  2.2582  1.6942  1.2617
  817MOL0     H10229   5.096   0.970   3.603 -0.7838  2.6022 -0.0057
  817MOL0     H10230   5.363   0.653   3.379  0.2092  4.5061 -0.0560
  817MOL0     H10231   5.392   0.630   3.553  0.6318 -1.0552  0.8105
  817MOL0     H10232   5.164   0.522   3.546  0.2533  3.7787 -0.5333
  817MOL0     H10233   5.312   0.428   3.479 -1.4384 -2.3003 -3.4553
  817MOL0     H10234   5.086   0.570   3.330  0.0431 -0.3756 -0.5869
  817MOL0     H10235   5.105   0.392   3.349  0.6264 -0.2026  1.3827
  817MOL0     H10236   5.152   0.483   3.129 -3.3325  0.0321  2.8634
  817MOL0     H10237   5.299   0.568   3.183 -2.5699  2.7557 -0.8061
  817MOL0     H10238   5.368   0.332   3.285 -3.7835 -2.7016  2.1739
  817MOL0     H10239   5.245   0.261   3.197 -0.6080  0.3181  0.8169
  817MOL0     H10240   5.334   0.378   2.982  0.9864 -1.2624 -0.4001
  817MOL0     H10241   5.494   0.392   3.069  0.3116 -0.4005 -1.4528
  817MOL0     H10242   5.333   0.157   2.968 -0.6811  1.2825  0.7221
  817MOL0     H10243   5.459   0.134   3.095  0.3612  0.9648  0.2808
  817MOL0     H10244   5.525   0.089   2.857 -2.9653  0.5584  0.5363
  817MOL0     H10245   5.513   0.255   2.820 -4.2170  1.7911  1.5551
  817MOL0     H10246   5.714   0.080   3.143  0.2954 -1.6954 -1.1975
  817MOL0     H10247   5.996   0.063   3.175 -2.5248 -0.7335  0.5603
  817MOL0     H10248   6.075   0.213   3.134  1.2815 -0.1309  1.7854
  817MOL0     H10249   5.947   0.327   3.325  3.9824  0.4636 -2.6152
  817MOL0     H10250   5.859   0.184   3.344 -0.8340  0.5410  3.5748
  817MOL0     H10251   6.093   0.060   3.375 -3.7631 -1.8665 -0.4605
  817MOL0     H10252   6.019   0.151   3.508  1.2146 -2.7536  0.8992
  817MOL0     H10253   6.236   0.247   3.513  0.1462  2.4580  1.1545
  817MOL0     H10254   6.129   0.359   3.446  0.0790 -1.7817 -0.9407
  817MOL0     H10255   6.363   0.097   3.483  1.6179 -2.5901  1.2704
  817MOL0     H10256   6.552  -0.030   3.438  1.5854  0.2856  0.7838
  817MOL0     H10257   6.993   0.032   3.328  1.8606  0.1366 -0.1761
  817MOL0     H10258   7.200  -0.051   3.391  1.0763 -0.1239 -3.2738
  817MOL0     H10259   7.194  -0.405   3.546  1.0066  1.3991  0.4758
  817MOL0     H10260   7.294  -0.488   3.417 -0.7920 -0.5102  0.4817
  817MOL0     H10261   7.397  -0.454   3.660  5.3545 -0.9612  0.3046
  817MOL0     H10262   7.486  -0.453   3.521 -3.1250 -3.0320 -0.7771
  817MOL0     H10263   7.496  -0.215   3.520  1.0015 -1.2956  0.5048
  817MOL0     H10264   7.368  -0.189   3.643  0.7788  0.7257  0.3816
  817MOL0     H10265   7.647  -0.290   3.695 -1.7509 -1.6494 -4.6080
  817MOL0     H10266   7.504  -0.339   3.799 -2.3121  0.9994  0.0900
  817MOL0     H10267   7.448  -0.094   3.819 -1.3328 -3.3115 -1.9378
  817MOL0     H10268   7.616  -0.044   3.769 -0.4946  0.3680 -1.7243
  817MOL0     H10269   7.599  -0.044   4.013 -3.0101 -0.2404  0.0179
  817MOL0     H10270   7.558  -0.214   4.004 -2.0570 -1.3908 -1.8772
  817MOL0     H10271   7.808  -0.119   3.868  1.2748 -1.9645  0.0736
  817MOL0     H10272   7.772  -0.285   3.909  0.8015 -1.3172  2.0687
  817MOL0     H10273   7.945  -0.209   4.054 -0.2832 -0.6169 -3.0509
  817MOL0     H10274   7.847  -0.080   4.117 -1.4355 -0.0718 -1.9591
  817MOL0     H10275   7.043  -0.462   3.345 -1.6843  0.1924  2.1470
  817MOL0     H10276   6.820  -0.358   3.310  0.0676  0.3967 -0.7066
  817MOL0     H10277   6.617   0.178   3.056  0.4753 -1.5494 -0.2904
  817MOL0     H10278   6.394   0.271   3.080 -1.2930  2.3592  1.6699
  817MOL0     H10279   5.482   0.826   3.460 -0.0416  0.8525  0.0302
  817MOL0     H10280   5.562   1.048   3.454 -0.4471 -0.1117 -1.3628
  817MOL0     H10281   5.217   1.626   3.490  1.2150 -0.8415  3.5495
  817MOL0     H10282   5.278   1.835   3.434  0.0009  0.7384  1.3269
  817MOL0     H10283   5.418   1.990   3.540  0.7896  0.6538  2.2962
  817MOL0     H10284   5.496   2.112   3.432  1.2427  0.1232  0.6544
  817MOL0     H10285   5.609   1.897   3.608  0.3747 -0.5650 -0.9502
  817MOL0     H10286   5.600   2.057   3.667 -2.2767 -3.1562  1.4558
  817MOL0     H10287   5.775   2.141   3.507 -0.4862  0.1008 -0.8169
  817MOL0     H10288   5.751   2.011   3.395 -1.4810  1.1281  0.9821
  817MOL0     H10289   5.853   1.854   3.570  1.1294 -0.7425 -2.3862
  817MOL0     H10290   5.966   1.975   3.484  0.7229  2.4500  0.8764
  817MOL0     H10291   5.994   2.077   3.885  1.4914 -0.8336 -0.3465
  817MOL0     H10292   5.683   1.686   3.344 -0.0036 -1.0243  1.1206
  817MOL0     H10293   5.582   1.350   3.313  1.6105 -0.6602 -1.4275
  817MOL0     H10294   5.719   1.461   3.320  0.4852  2.8309  3.2773
  817MOL0     H10295   5.661   1.395   3.473 -1.2581  1.8977  1.1984
  818MOL0     O10296   9.628   6.038   6.200  0.0587 -0.6790  0.8601
  818MOL0     C10297   9.728   6.041   6.262 -0.3502  0.5593 -0.2253
  818MOL0     O10298   9.818   5.943   6.257  0.0636 -0.4598  0.1387
  818MOL0     C10299   9.812   5.830   6.180 -0.0215  0.0655 -0.2537
  818MOL0     C10300   9.746   5.824   6.052  0.0586  0.7994 -0.2181
  818MOL0     C10301   9.722   5.693   6.004  0.3509  0.1946 -0.2884
  818MOL0     C10302   9.745   5.574   6.067 -0.0401  0.5941  0.0574
  818MOL0     O10303   9.716   5.457   6.000 -0.7051  0.0551 -0.3379
  818MOL0     C10304   9.732   5.325   6.064 -0.0058 -0.6446  0.2619
  818MOL0     C10305   9.689   5.198   5.988  0.3665  0.1070 -0.0755
  818MOL0     C10306   9.549   5.190   5.949  0.0598 -0.2570  0.0924
  818MOL0     C10307   9.516   5.061   5.879  0.1129  0.8765 -0.1125
  818MOL0     C10308   9.367   5.021   5.865 -0.2864  0.0413  1.2190
  818MOL0     C10309   9.355   4.893   5.779 -0.2686  0.3918  0.8006
  818MOL0     C10310   9.212   4.866   5.737 -0.3746  0.0477 -0.0567
  818MOL0     C10311   9.157   4.976   5.645 -0.3519 -0.2296  0.8759
  818MOL0     N10312   9.109   5.101   5.715  0.9059 -0.4970  0.2123
  818MOL0     C10313   9.141   5.234   5.684 -0.0450 -0.2911 -0.0125
  818MOL0     C10314   9.058   5.303   5.769  0.3074  0.2315  0.3696
  818MOL0     C10315   9.059   5.449   5.799  0.1210 -0.1462 -0.1583
  818MOL0     C10316   9.197   5.511   5.812  0.4590 -0.2873 -0.5282
  818MOL0     C10317   9.286   5.431   5.899 -0.4865 -0.6557  0.5292
  818MOL0     C10318   9.251   5.456   6.045  0.1808 -0.3077  0.2072
  818MOL0     O10319   9.286   5.596   6.078  0.2890 -0.7284  0.6382
  818MOL0     C10320   9.245   5.657   6.194  0.9950 -0.2684 -0.2714
  818MOL0     C10321   9.181   5.589   6.300  0.1239  0.2690 -0.1559
  818MOL0     C10322   9.145   5.659   6.418  0.5575  0.1494 -0.6171
  818MOL0     C10323   9.174   5.796   6.434  1.3508  1.5443  0.2729
  818MOL0     C10324   9.128   5.854   6.563 -0.0375 -0.2610 -0.0396
  818MOL0     O10325   9.058   5.770   6.658 -0.0289 -0.2420 -0.1074
  818MOL0     C10326   9.086   5.808   6.787 -0.2370  0.7360  1.2971
  818MOL0     C10327   9.222   5.806   6.834  0.9458 -0.6875  0.3428
  818MOL0     C10328   9.237   5.849   6.967 -0.3984 -0.4289  0.5612
  818MOL0     C10329   9.135   5.908   7.051  0.1442  0.3637  0.3447
  818MOL0     O10330   9.150   5.936   7.181 -0.1086  0.2294 -0.2487
  818MOL0     C10331   9.215   6.062   7.198  0.4383 -0.1428  0.3771
  818MOL0     C10332   9.353   6.035   7.244  0.3868 -0.0115 -0.0619
  818MOL0     C10333   9.425   6.160   7.276 -0.1673 -1.0693  0.8736
  818MOL0     C10334   9.575   6.140   7.256  0.0553 -0.0006  0.0449
  818MOL0     C10335   9.652   6.236   7.345 -0.3575 -0.3191 -1.2447
  818MOL0     C10336   9.799   6.217   7.330  0.1995  0.1752 -0.0655
  818MOL0     C10337   9.879   6.346   7.383 -0.2394  0.1423 -0.0702
  818MOL0     C10338   9.865   6.370   7.532 -0.2453  0.3607 -0.4532
  818MOL0    Cl10339   9.937   6.227   7.619 -0.0753 -0.1538 -0.3528
  818MOL0     C10340   9.005   5.897   6.998 -0.7511 -0.2611 -0.1402
  818MOL0     C10341   8.979   5.854   6.864 -0.3987 -0.3592  0.5306
  818MOL0     O10342   9.168   5.972   6.582  0.0867 -0.3677  0.2186
  818MOL0     C10343   9.236   5.860   6.328  0.5620 -0.0926  0.6451
  818MOL0     C10344   9.276   5.798   6.205 -0.2652  0.0007  1.2112
  818MOL0     N10345   8.971   5.215   5.830  0.3733  0.5553  0.0406
  818MOL0     N10346   9.014   5.095   5.802 -0.1357 -0.3860 -0.5877
  818MOL0     C10347   9.804   5.584   6.197  1.0260 -0.1659  0.1838
  818MOL0     C10348   9.840   5.703   6.247 -0.1011  0.4942  0.0930
  818MOL0     C10349   9.773   6.169   6.341 -0.7684 -0.5121 -0.0861
  818MOL0     C10350   9.907   6.193   6.364 -0.7895  0.0102 -0.3480
  818MOL0     C10351   9.961   6.294   6.444 -0.2750  0.1400  1.0887
  818MOL0     C10352   9.881   6.392   6.500 -0.3053 -0.1979  0.7851
  818MOL0     O10353   9.941   6.497   6.565  0.9768 -0.3593 -0.4759
  818MOL0     C10354   9.856   6.573   6.657 -0.0588 -0.1550 -0.3619
  818MOL0     C10355   9.775   6.683   6.578 -0.4286  0.0839  0.6835
  818MOL0     C10356   9.858   6.787   6.496 -0.0928  0.6498  0.6236
  818MOL0     C10357   9.908   6.900   6.578 -0.5765 -0.3216 -0.0252
  818MOL0     C10358  10.023   6.871   6.670  0.3901  0.1983 -0.4187
  818MOL0     C10359  10.113   6.847   6.753  0.3669  0.6453  0.3692
  818MOL0     C10360   9.741   6.363   6.491  0.6082  0.3111 -0.2364
  818MOL0     C10361   9.690   6.260   6.407  0.6161 -0.2209 -0.9937
  818MOL0     C10362   9.542   6.257   6.404  0.5086 -0.1992  0.0300
  818MOL0     H10363   9.717   5.914   5.999  3.5238  1.5690 -1.0534
  818MOL0     H10364   9.683   5.694   5.902  0.5232 -0.7473 -0.3688
  818MOL0     H10365   9.837   5.309   6.086 -0.4055 -0.1209  2.7910
  818MOL0     H10366   9.676   5.333   6.158  3.3074 -0.1363  2.3264
  818MOL0     H10367   9.711   5.122   6.062  0.6623  0.5106  0.2543
  818MOL0     H10368   9.762   5.168   5.912  1.7696 -0.0602  1.2973
  818MOL0     H10369   9.530   5.264   5.871 -0.4369  0.2496  0.6855
  818MOL0     H10370   9.486   5.212   6.036  2.5548  0.9378  1.7189
  818MOL0     H10371   9.562   5.068   5.780  0.4975  2.9797  0.1691
  818MOL0     H10372   9.566   4.975   5.925 -0.7559  1.6950  2.5239
  818MOL0     H10373   9.310   5.018   5.958 -1.9681  1.3193  0.2879
  818MOL0     H10374   9.325   5.109   5.815 -2.1940 -0.6017  1.5898
  818MOL0     H10375   9.412   4.905   5.687  0.8228  0.0209  1.4046
  818MOL0     H10376   9.411   4.812   5.826  1.1113 -0.5977 -2.3406
  818MOL0     H10377   9.147   4.858   5.824 -0.8135  0.6951 -0.3146
  818MOL0     H10378   9.202   4.776   5.676  0.5018  0.1155 -0.3178
  818MOL0     H10379   9.233   5.003   5.570 -2.7843  1.3014 -1.2262
  818MOL0     H10380   9.074   4.941   5.582 -1.2301  1.1483  1.2295
  818MOL0     H10381   9.203   5.269   5.603  1.1777  0.4482  1.2034
  818MOL0     H10382   9.001   5.496   5.719 -2.6796 -0.0794  1.7648
  818MOL0     H10383   9.001   5.471   5.889 -1.5020  0.2160 -1.2535
  818MOL0     H10384   9.241   5.516   5.713 -2.1824  2.2311 -1.7450
  818MOL0     H10385   9.193   5.616   5.845 -0.6485 -0.2611 -0.6796
  818MOL0     H10386   9.391   5.460   5.887 -0.6323  0.1485  1.1213
  818MOL0     H10387   9.282   5.325   5.872  1.4337 -0.1407 -2.2361
  818MOL0     H10388   9.311   5.387   6.105 -1.2163 -4.4863 -2.7582
  818MOL0     H10389   9.144   5.440   6.060 -0.3709  3.5120  1.5971
  818MOL0     H10390   9.156   5.483   6.298 -0.5911  0.2854  2.8614
  818MOL0     H10391   9.073   5.614   6.486  0.2970  0.2405 -0.8298
  818MOL0     H10392   9.298   5.755   6.775  1.4618  0.7178 -0.2543
  818MOL0     H10393   9.328   5.827   7.022  2.0385  0.7622 -2.6596
  818MOL0     H10394   9.211   6.135   7.116 -3.2865 -0.9363 -0.3412
  818MOL0     H10395   9.152   6.103   7.277 -1.6561  0.8708 -1.6853
  818MOL0     H10396   9.340   5.979   7.337 -0.1084 -0.0021 -0.1231
  818MOL0     H10397   9.409   5.971   7.176  1.8563 -0.3848  1.4404
  818MOL0     H10398   9.384   6.243   7.217 -1.1140 -1.8454  0.4123
  818MOL0     H10399   9.398   6.179   7.380  0.1255  0.9060  0.6337
  818MOL0     H10400   9.590   6.174   7.153  0.3175  1.0466  0.4128
  818MOL0     H10401   9.599   6.035   7.271 -1.4161 -0.3065  0.3883
  818MOL0     H10402   9.631   6.213   7.450 -0.5267 -3.7788 -1.9266
  818MOL0     H10403   9.617   6.336   7.320 -2.1610 -1.1748 -2.3159
  818MOL0     H10404   9.813   6.126   7.388 -0.7239  0.1570  0.1404
  818MOL0     H10405   9.812   6.194   7.224 -0.2991 -1.9974  0.3044
  818MOL0     H10406   9.851   6.431   7.321  2.2556 -0.1246 -1.7091
  818MOL0     H10407   9.987   6.330   7.375 -0.4470 -0.6875 -1.5236
  818MOL0     H10408   9.917   6.461   7.562 -0.2792  0.9420 -2.0116
  818MOL0     H10409   9.758   6.375   7.556  0.3991 -0.0719  3.0314
  818MOL0     H10410   8.928   5.954   7.049  0.1457  2.0322 -1.2132
  818MOL0     H10411   8.874   5.847   6.838 -0.4221  0.6157  0.3501
  818MOL0     H10412   9.244   5.968   6.325  0.3338 -0.0653  0.9711
  818MOL0     H10413   9.333   5.851   6.129 -0.7884 -0.2431  0.6396
  818MOL0     H10414   9.787   5.500   6.263 -0.6755 -0.5920 -0.7273
  818MOL0     H10415   9.860   5.715   6.353 -0.4999  3.0512 -0.0653
  818MOL0     H10416   9.978   6.130   6.311 -1.1166 -1.7816  1.1976
  818MOL0     H10417  10.069   6.304   6.447 -0.2453  1.9784 -1.9157
  818MOL0     H10418   9.919   6.614   6.737 -0.1038 -1.1392  0.1855
  818MOL0     H10419   9.777   6.521   6.711  0.2825  0.8819  1.1951
  818MOL0     H10420   9.712   6.735   6.650  1.1017  0.0581  2.0878
  818MOL0     H10421   9.724   6.620   6.504  1.9723 -3.1639  1.5307
  818MOL0     H10422   9.783   6.812   6.419 -0.9187 -2.3500  0.3224
  818MOL0     H10423   9.946   6.743   6.447  0.9549  0.2878  2.7288
  818MOL0     H10424   9.929   6.989   6.519 -0.2682  0.8323  1.7336
  818MOL0     H10425   9.821   6.931   6.637 -0.6208 -1.3754  0.4952
  818MOL0     H10426  10.186   6.834   6.831 -0.7848  0.4943  1.4561
  818MOL0     H10427   9.665   6.417   6.548  0.8348  0.2022  0.1714
  818MOL0     H10428   9.484   6.346   6.431  1.1297 -0.6287  3.2251
  818MOL0     H10429   9.514   6.223   6.304  2.0716 -2.3767  0.2604
  818MOL0     H10430   9.506   6.181   6.473  1.4243 -0.2367  0.4753
  819MOL0     O10431   9.181   7.497   5.864 -1.0385 -0.0076 -0.2452
  819MOL0     C10432   9.286   7.516   5.926  1.0566 -1.0847  0.5035
  819MOL0     O10433   9.333   7.637   5.959  0.1417 -0.6989 -1.1687
  819MOL0     C10434   9.270   7.756   5.933 -0.6843 -0.8087  0.5086
  819MOL0     C10435   9.357   7.865   5.907  0.8964 -0.3011 -0.0392
  819MOL0     C10436   9.310   7.986   5.851  0.4744  0.3767  1.4856
  819MOL0     C10437   9.169   7.994   5.831  0.2955 -0.1031  0.3689
  819MOL0     O10438   9.128   8.098   5.754 -0.0158  0.0312  0.4785
  819MOL0     C10439   9.020   8.174   5.810 -0.0322 -0.2291 -0.0663
  819MOL0     C10440   8.986   8.298   5.731 -0.0198  0.1236  0.4847
  819MOL0     C10441   9.099   8.411   5.744  0.7895  0.2459 -0.5889
  819MOL0     C10442   9.069   8.533   5.657 -0.4561 -0.5192  0.1260
  819MOL0     C10443   9.200   8.609   5.628  0.4874  0.4120 -0.7315
  819MOL0     C10444   9.279   8.533   5.522  0.3731 -0.8709  0.6020
  819MOL0     C10445   9.418   8.496   5.586  0.1589 -0.1114  0.6779
  819MOL0     C10446   9.505   8.442   5.462  0.9462 -0.6154 -0.4409
  819MOL0     N10447   9.504   8.299   5.452  0.1932  0.3821  0.4401
  819MOL0     C10448   9.406   8.219   5.505 -0.6301  0.2622  0.3508
  819MOL0     C10449   9.432   8.111   5.430 -0.1236 -0.5612 -0.8217
  819MOL0     C10450   9.347   7.995   5.452 -0.6807  0.0094 -0.6632
  819MOL0     C10451   9.418   7.881   5.534 -0.1513  0.1878 -0.3287
  819MOL0     C10452   9.334   7.755   5.561 -0.1345 -0.3049  0.6611
  819MOL0     C10453   9.424   7.645   5.590 -0.4776 -0.5720  0.2030
  819MOL0     O10454   9.533   7.688   5.678  0.0855  0.5361  0.1222
  819MOL0     C10455   9.617   7.601   5.753  0.6155 -0.2034  0.3117
  819MOL0     C10456   9.685   7.652   5.857 -0.4551 -0.3412 -0.1171
  819MOL0     C10457   9.781   7.573   5.924 -0.0504 -0.0945 -0.3655
  819MOL0     C10458   9.806   7.446   5.893  0.4864  0.3325  0.2309
  819MOL0     C10459   9.894   7.365   5.982  0.0477 -0.0297  0.5667
  819MOL0     O10460   9.924   7.251   5.923  0.2278  1.2264 -0.1157
  819MOL0     C10461  10.020   7.168   5.970  0.2345  0.1194  0.0296
  819MOL0     C10462  10.119   7.112   5.883 -0.0596  0.7799 -0.5652
  819MOL0     C10463  10.214   7.038   5.942  0.3577 -1.1843  0.4621
  819MOL0     C10464  10.218   7.006   6.079 -1.3396  0.8341 -0.3198
  819MOL0     O10465  10.324   6.921   6.120  0.0228 -0.2230  0.0116
  819MOL0     C10466  10.313   6.868   6.252 -0.7291  0.5004 -0.8894
  819MOL0     C10467  10.430   6.777   6.301  0.4356 -0.4123  0.5774
  819MOL0     C10468  10.560   6.848   6.285  0.6301 -0.2409 -0.2864
  819MOL0     C10469  10.665   6.753   6.343 -0.1952  0.6353 -0.0496
  819MOL0     C10470  10.798   6.832   6.323  0.8772  0.4192  0.4845
  819MOL0     C10471  10.912   6.770   6.388 -0.0537 -0.4006 -0.2680
  819MOL0     C10472  11.035   6.857   6.379 -0.7836 -0.1601  0.4659
  819MOL0     C10473  11.151   6.801   6.455  0.5016  0.7249 -0.5107
  819MOL0    Cl10474  11.290   6.899   6.451 -0.3203  0.4539 -0.1209
  819MOL0     C10475  10.120   7.063   6.157 -0.6779  0.5588 -0.2679
  819MOL0     C10476  10.017   7.139   6.105 -0.0389  0.5384 -0.3176
  819MOL0     O10477   9.949   7.414   6.081  0.7449 -0.0598 -0.9152
  819MOL0     C10478   9.733   7.396   5.785  0.2049  0.4719  0.4141
  819MOL0     C10479   9.635   7.468   5.715 -0.5205  0.0932  0.4528
  819MOL0     N10480   9.556   8.113   5.371  0.2527  0.3547  0.2436
  819MOL0     N10481   9.596   8.228   5.372 -0.3828 -0.2023 -1.0905
  819MOL0     C10482   9.077   7.892   5.869  0.0294  0.1529  0.1733
  819MOL0     C10483   9.134   7.777   5.918  0.2401 -0.1866 -0.5407
  819MOL0     C10484   9.362   7.401   5.955 -0.7090 -0.2484 -0.6637
  819MOL0     C10485   9.356   7.288   5.869  0.2527 -0.2135  0.1319
  819MOL0     C10486   9.444   7.173   5.895 -0.4672 -0.5032 -0.6032
  819MOL0     C10487   9.551   7.190   5.984  0.4602  0.8757 -0.4053
  819MOL0     O10488   9.654   7.099   6.007  0.6029 -0.0077  0.3770
  819MOL0     C10489   9.702   7.008   5.913  0.6523 -0.3867  0.3157
  819MOL0     C10490   9.631   6.878   5.907  0.2715  0.7612 -0.8793
  819MOL0     C10491   9.628   6.798   6.043 -0.1040  0.6077  0.2004
  819MOL0     C10492   9.540   6.669   6.050 -0.1111 -0.0746  0.3119
  819MOL0     C10493   9.398   6.693   6.015 -0.2274  0.0426 -1.1200
  819MOL0     C10494   9.277   6.689   6.003 -0.0558  0.9544 -0.1650
  819MOL0     C10495   9.543   7.296   6.071 -0.7932  0.1399 -0.7948
  819MOL0     C10496   9.454   7.398   6.062 -0.2349  0.0176  0.2931
  819MOL0     C10497   9.476   7.514   6.159  0.2320  0.4311  0.2447
  819MOL0     H10498   9.465   7.848   5.907  0.7951 -0.9458  0.4901
  819MOL0     H10499   9.355   8.074   5.807 -0.3333  0.7570  1.4149
  819MOL0     H10500   8.926   8.117   5.817 -0.3040  0.2993  0.7123
  819MOL0     H10501   9.048   8.218   5.906  0.6114  0.9827 -0.7926
  819MOL0     H10502   8.887   8.333   5.761 -0.6001  0.9322 -2.1718
  819MOL0     H10503   8.970   8.271   5.626  3.2036  1.3839 -0.4398
  819MOL0     H10504   9.193   8.362   5.718  1.3572 -0.0887  1.8852
  819MOL0     H10505   9.093   8.437   5.850  0.5143 -0.3414 -0.4574
  819MOL0     H10506   9.017   8.507   5.564  0.9179  0.0596 -0.8415
  819MOL0     H10507   9.013   8.607   5.716  2.3498  0.9294  1.1668
  819MOL0     H10508   9.174   8.709   5.592 -1.5086  0.0511 -0.4101
  819MOL0     H10509   9.256   8.620   5.721 -1.8285  1.3669  0.6447
  819MOL0     H10510   9.219   8.449   5.486 -1.5430  1.5606 -2.4768
  819MOL0     H10511   9.282   8.592   5.429 -2.2164 -0.5997  0.6022
  819MOL0     H10512   9.406   8.432   5.674 -1.0377 -0.8649 -0.0131
  819MOL0     H10513   9.468   8.585   5.625  0.1046 -0.3050  1.2024
  819MOL0     H10514   9.471   8.489   5.370 -2.0732 -1.3477  0.2026
  819MOL0     H10515   9.607   8.471   5.490  0.0488 -0.0605  2.6367
  819MOL0     H10516   9.325   8.241   5.573 -0.0443 -1.6213  1.7229
  819MOL0     H10517   9.265   8.029   5.515 -2.2249 -2.2674 -1.2925
  819MOL0     H10518   9.321   7.966   5.350 -1.1384  0.7364 -0.7562
  819MOL0     H10519   9.511   7.860   5.480  1.2623  2.9711  0.8040
  819MOL0     H10520   9.457   7.929   5.625  1.9487  0.4767 -1.3168
  819MOL0     H10521   9.256   7.720   5.492  1.7895 -1.9752 -0.8074
  819MOL0     H10522   9.277   7.775   5.652 -0.0391  1.1337  0.4208
  819MOL0     H10523   9.464   7.603   5.497  1.7692  0.3252  0.7080
  819MOL0     H10524   9.365   7.571   5.646  1.3240 -1.0347  1.5583
  819MOL0     H10525   9.676   7.754   5.894  0.5799  1.1214 -3.4751
  819MOL0     H10526   9.825   7.617   6.013 -0.2205 -0.1534 -0.2516
  819MOL0     H10527  10.138   7.133   5.779  1.9505  0.1652 -0.3612
  819MOL0     H10528  10.292   6.990   5.884  1.7862  1.9038 -0.3887
  819MOL0     H10529  10.298   6.943   6.329  1.4884  0.4634 -0.3332
  819MOL0     H10530  10.219   6.812   6.255  0.0825 -0.9131  2.1906
  819MOL0     H10531  10.407   6.758   6.406 -1.4769 -0.5191  0.1782
  819MOL0     H10532  10.443   6.686   6.242  2.4577  0.8124 -0.9861
  819MOL0     H10533  10.575   6.875   6.180  2.4096  1.6273  0.3782
  819MOL0     H10534  10.566   6.943   6.338 -1.7897 -1.9498  3.4482
  819MOL0     H10535  10.657   6.655   6.295 -0.3575  0.8225 -0.4101
  819MOL0     H10536  10.646   6.737   6.449  0.0248  2.2664  0.2723
  819MOL0     H10537  10.789   6.933   6.363  0.8353  0.4178  0.4788
  819MOL0     H10538  10.828   6.840   6.219 -3.8841 -2.4487 -1.4626
  819MOL0     H10539  10.889   6.762   6.495  1.0666 -0.2869 -0.0045
  819MOL0     H10540  10.935   6.668   6.354  0.0437 -0.2467 -0.6696
  819MOL0     H10541  11.021   6.962   6.410 -2.8352 -0.2895  0.1278
  819MOL0     H10542  11.064   6.864   6.274 -0.4791 -0.2367  0.5453
  819MOL0     H10543  11.122   6.788   6.559 -1.1357  0.7037 -0.9416
  819MOL0     H10544  11.180   6.699   6.427  1.5193  1.0696 -0.7458
  819MOL0     H10545  10.117   7.052   6.265  0.1390 -2.6143 -0.4837
  819MOL0     H10546   9.932   7.178   6.159 -0.9540 -0.4266 -1.0373
  819MOL0     H10547   9.756   7.293   5.759  3.3746  0.9199  1.0122
  819MOL0     H10548   9.586   7.429   5.626  2.1094 -0.8793 -0.6557
  819MOL0     H10549   8.969   7.892   5.858 -0.2097 -1.1779  2.0234
  819MOL0     H10550   9.063   7.704   5.954  1.8956 -0.3682  2.7090
  819MOL0     H10551   9.289   7.295   5.785  0.0562  0.7728  0.3645
  819MOL0     H10552   9.437   7.095   5.820 -1.4280 -1.9455  0.9240
  819MOL0     H10553   9.807   6.984   5.932  0.2377 -0.0944  3.6401
  819MOL0     H10554   9.698   7.053   5.813 -0.2518  0.3010  0.6518
  819MOL0     H10555   9.684   6.821   5.830  0.0734  3.5378 -3.2415
  819MOL0     H10556   9.529   6.887   5.868  0.1111 -1.1095 -1.0010
  819MOL0     H10557   9.606   6.876   6.117  2.2137  0.9874  0.5662
  819MOL0     H10558   9.730   6.771   6.072 -1.0243 -1.3980  1.7966
  819MOL0     H10559   9.587   6.593   5.987  1.5463  1.3553 -0.2658
  819MOL0     H10560   9.541   6.636   6.154 -0.3195  0.3672  0.4551
  819MOL0     H10561   9.171   6.690   5.991 -0.2931  3.8639  1.4271
  819MOL0     H10562   9.619   7.299   6.148 -2.0693  0.8101  0.4827
  819MOL0     H10563   9.556   7.494   6.230 -0.0745  0.8920  0.7344
  819MOL0     H10564   9.515   7.599   6.101  3.1258 -1.3326 -0.5877
  819MOL0     H10565   9.385   7.534   6.216  0.4573 -0.3249  0.8719
  820MOL0     O10566   2.508   1.520   1.319  0.4853 -0.2148  0.5796
  820MOL0     C10567   2.441   1.420   1.329  1.0740  0.1665 -0.3597
  820MOL0     O10568   2.496   1.284   1.332  0.3768 -0.3166  0.3639
  820MOL0     C10569   2.631   1.272   1.329 -0.1018 -0.7548  0.2399
  820MOL0     C10570   2.693   1.166   1.403  0.7429 -0.2801 -1.1663
  820MOL0     C10571   2.832   1.156   1.393 -0.1323 -0.0154 -0.3955
  820MOL0     C10572   2.914   1.232   1.314 -0.9559  0.2734  0.2758
  820MOL0     O10573   3.051   1.197   1.317 -0.3779  0.1187 -0.6352
  820MOL0     C10574   3.137   1.250   1.212 -0.1967  0.7032 -0.3359
  820MOL0     C10575   3.274   1.185   1.218  0.0871 -0.7244  0.4850
  820MOL0     C10576   3.366   1.249   1.328 -0.7133 -0.6887 -0.1802
  820MOL0     C10577   3.506   1.230   1.278 -1.1414 -0.4544  1.0005
  820MOL0     C10578   3.609   1.290   1.372 -0.1133 -0.9843  0.4528
  820MOL0     C10579   3.616   1.431   1.355  0.7056 -0.8209  1.0872
  820MOL0     C10580   3.705   1.484   1.234  0.2010 -0.1630  1.0459
  820MOL0     C10581   3.672   1.630   1.200 -0.0963 -0.2631 -0.3001
  820MOL0     N10582   3.539   1.655   1.148 -0.2113  0.2520  0.2791
  820MOL0     C10583   3.445   1.753   1.178 -0.5239  0.8541 -0.3811
  820MOL0     C10584   3.330   1.703   1.123 -0.3108 -0.2544 -0.9890
  820MOL0     C10585   3.195   1.764   1.157  0.1916  0.6484 -0.7198
  820MOL0     C10586   3.196   1.905   1.122  0.8782 -0.1477 -0.8356
  820MOL0     C10587   3.087   1.973   1.200  0.0500  0.2057  0.3475
  820MOL0     C10588   3.112   1.978   1.355 -0.3847 -0.5164  0.3157
  820MOL0     O10589   3.243   2.031   1.365  0.0627  0.0884 -0.0351
  820MOL0     C10590   3.260   2.169   1.344  0.7580 -0.2473 -0.4859
  820MOL0     C10591   3.387   2.215   1.348 -0.7263  0.8239  0.9034
  820MOL0     C10592   3.416   2.348   1.315 -0.7531  1.2252  0.6059
  820MOL0     C10593   3.317   2.441   1.296  0.3133 -0.4825 -0.5880
  820MOL0     C10594   3.341   2.588   1.271 -0.7944 -0.1848 -0.2966
  820MOL0     O10595   3.470   2.627   1.240  0.2822 -0.6212 -0.3326
  820MOL0     C10596   3.478   2.765   1.208 -0.7302 -0.0976  0.8208
  820MOL0     C10597   3.390   2.822   1.118 -0.3764  0.5534 -0.8104
  820MOL0     C10598   3.407   2.962   1.087  0.7919 -0.7622  1.3047
  820MOL0     C10599   3.507   3.032   1.136 -1.5112 -0.4604  0.0846
  820MOL0     O10600   3.519   3.159   1.087 -0.0761  0.6153  0.5871
  820MOL0     C10601   3.624   3.241   1.138  0.6175 -0.5936 -0.0744
  820MOL0     C10602   3.638   3.375   1.066  0.3056 -0.0645  0.4410
  820MOL0     C10603   3.737   3.476   1.135  0.8249  0.9767 -0.6910
  820MOL0     C10604   3.774   3.593   1.032  0.2329  0.1667 -0.1335
  820MOL0     C10605   3.869   3.689   1.112 -0.0346  0.6194 -0.1395
  820MOL0     C10606   3.904   3.819   1.050  0.3340 -0.2763 -0.0175
  820MOL0     C10607   3.941   3.820   0.906  0.1919 -0.5169  0.4716
  820MOL0     C10608   4.035   3.941   0.883  0.4097 -0.7594  0.8579
  820MOL0    Cl10609   4.184   3.922   0.975  0.1428 -0.1296 -0.2174
  820MOL0     C10610   3.602   2.968   1.222 -0.1763 -0.9711 -1.1086
  820MOL0     C10611   3.583   2.836   1.254  0.6420  0.6138 -0.5220
  820MOL0     O10612   3.248   2.659   1.312  0.3944 -0.1558 -0.1898
  820MOL0     C10613   3.186   2.400   1.297  0.8478 -0.2443  1.0253
  820MOL0     C10614   3.161   2.265   1.312 -1.1698 -0.7234  0.2898
  820MOL0     N10615   3.348   1.590   1.052  0.3783  0.3683  0.4458
  820MOL0     N10616   3.473   1.564   1.065 -0.3863 -0.1982  0.4121
  820MOL0     C10617   2.858   1.332   1.230  1.0823 -0.1543  0.1472
  820MOL0     C10618   2.711   1.341   1.236 -0.8128 -0.1061 -0.8507
  820MOL0     C10619   2.292   1.427   1.361  0.2420 -0.1294  0.0832
  820MOL0     C10620   2.226   1.304   1.389 -0.2523  0.1778  0.5159
  820MOL0     C10621   2.087   1.285   1.403 -1.1023 -0.5622  0.0913
  820MOL0     C10622   2.012   1.404   1.423  0.9472  0.0914 -0.8897
  820MOL0     O10623   1.881   1.397   1.456 -0.1262  0.9914 -0.6104
  820MOL0     C10624   1.795   1.283   1.446  1.2570  0.2891 -0.8258
  820MOL0     C10625   1.652   1.320   1.460  0.4616 -0.4329  0.5514
  820MOL0     C10626   1.585   1.382   1.343  0.9823 -0.3491  0.1090
  820MOL0     C10627   1.449   1.451   1.384  0.3458 -0.1312 -0.4160
  820MOL0     C10628   1.347   1.335   1.395  0.5674 -0.0371 -0.7071
  820MOL0     C10629   1.285   1.235   1.425  0.4027 -0.2561 -0.0293
  820MOL0     C10630   2.069   1.525   1.392 -0.1843 -0.2702 -0.3995
  820MOL0     C10631   2.211   1.538   1.362  0.2893 -0.0244 -1.2058
  820MOL0     C10632   2.259   1.674   1.337 -0.1103 -0.2176 -0.5755
  820MOL0     H10633   2.637   1.089   1.456 -4.8337  2.9258 -1.6110
  820MOL0     H10634   2.875   1.064   1.432 -0.7184 -0.5586 -1.0082
  820MOL0     H10635   3.080   1.222   1.123 -0.5196  1.1383 -0.2751
  820MOL0     H10636   3.151   1.359   1.208  1.2441  0.4991 -1.5071
  820MOL0     H10637   3.315   1.199   1.118 -5.0498 -1.0779 -1.9997
  820MOL0     H10638   3.268   1.076   1.232 -1.6793 -0.8954 -1.1547
  820MOL0     H10639   3.356   1.199   1.425 -0.1497 -3.3231 -1.3991
  820MOL0     H10640   3.337   1.354   1.336  0.9162 -0.0946 -1.4706
  820MOL0     H10641   3.531   1.124   1.273  1.5984  0.1499 -2.1994
  820MOL0     H10642   3.510   1.263   1.173  0.6464  2.9113  1.9920
  820MOL0     H10643   3.575   1.276   1.475 -2.2897 -1.6040 -0.3066
  820MOL0     H10644   3.704   1.239   1.354 -0.3983 -1.8117  1.2330
  820MOL0     H10645   3.518   1.479   1.362  1.3279  0.5376  0.7536
  820MOL0     H10646   3.669   1.464   1.445  1.1847 -1.5848  1.0989
  820MOL0     H10647   3.685   1.433   1.140 -1.8276  3.2564 -0.5856
  820MOL0     H10648   3.809   1.464   1.264  0.1230 -0.1105  1.3597
  820MOL0     H10649   3.666   1.692   1.289 -1.0272  0.7571 -1.0534
  820MOL0     H10650   3.745   1.668   1.128  2.2075 -1.9063  1.0354
  820MOL0     H10651   3.457   1.839   1.243 -1.6845  1.8310 -1.4195
  820MOL0     H10652   3.114   1.710   1.106  0.2300  1.2773 -1.4582
  820MOL0     H10653   3.185   1.743   1.264  0.6749 -1.5087 -1.0474
  820MOL0     H10654   3.295   1.943   1.148  0.6770 -0.3310  0.2770
  820MOL0     H10655   3.166   1.905   1.017  0.4508 -3.0358 -0.8033
  820MOL0     H10656   2.996   1.915   1.183  0.9592 -1.0811 -0.3725
  820MOL0     H10657   3.075   2.075   1.163 -2.2955  0.2759  1.1542
  820MOL0     H10658   3.090   1.885   1.409 -0.4765 -0.9216 -0.4072
  820MOL0     H10659   3.043   2.048   1.404 -0.4203 -0.4712  0.2020
  820MOL0     H10660   3.466   2.141   1.341 -1.9187 -0.3963 -0.4553
  820MOL0     H10661   3.520   2.378   1.304 -0.4883  0.7327  1.6300
  820MOL0     H10662   3.307   2.764   1.079  0.7172 -3.5559  2.2662
  820MOL0     H10663   3.323   3.011   1.040  1.1564 -1.0529  0.3106
  820MOL0     H10664   3.617   3.250   1.246  1.3355  1.9399 -0.1664
  820MOL0     H10665   3.713   3.180   1.121  0.1248 -1.2933 -0.2011
  820MOL0     H10666   3.667   3.362   0.961  1.2395  1.2128  0.5152
  820MOL0     H10667   3.540   3.423   1.057  0.1504 -0.6805 -1.6685
  820MOL0     H10668   3.679   3.515   1.219 -1.5966 -2.5255 -0.5002
  820MOL0     H10669   3.821   3.417   1.173  1.3223  3.4845  2.5156
  820MOL0     H10670   3.684   3.649   1.006 -0.1602  0.1157  1.0333
  820MOL0     H10671   3.815   3.548   0.941 -1.1150 -0.8798 -0.2545
  820MOL0     H10672   3.961   3.630   1.127  0.8786  2.1828  0.6025
  820MOL0     H10673   3.832   3.709   1.213  1.2931 -0.6956  0.6587
  820MOL0     H10674   3.818   3.884   1.067  2.0812  2.5577 -1.3055
  820MOL0     H10675   3.997   3.845   1.100  2.2825 -1.4258 -2.7784
  820MOL0     H10676   3.849   3.818   0.845  0.7698 -4.5735 -0.5541
  820MOL0     H10677   3.988   3.724   0.887 -0.0223 -0.7237  0.9762
  820MOL0     H10678   4.057   3.937   0.776  2.5958 -0.6324  1.2704
  820MOL0     H10679   3.993   4.039   0.906  0.4918 -0.4798 -0.1249
  820MOL0     H10680   3.688   3.022   1.261 -1.4639  0.5993 -0.3443
  820MOL0     H10681   3.654   2.779   1.314  2.2440  1.0957 -1.8810
  820MOL0     H10682   3.108   2.474   1.284  0.8904 -0.4453 -0.5617
  820MOL0     H10683   3.058   2.231   1.308 -1.6675  0.8162 -1.1643
  820MOL0     H10684   2.917   1.371   1.147  2.2031 -2.0635 -0.0088
  820MOL0     H10685   2.660   1.408   1.168  0.1468  1.5327 -0.0113
  820MOL0     H10686   2.280   1.210   1.377 -0.3197  0.3970 -2.0367
  820MOL0     H10687   2.048   1.184   1.415 -0.8562 -0.8456 -1.2801
  820MOL0     H10688   1.821   1.197   1.509 -1.3071 -0.6118 -0.8984
  820MOL0     H10689   1.810   1.246   1.344 -0.0901 -0.3749 -0.8020
  820MOL0     H10690   1.635   1.377   1.552 -4.5828 -1.5860  0.6596
  820MOL0     H10691   1.612   1.219   1.475  0.7754 -0.8534 -1.2977
  820MOL0     H10692   1.569   1.312   1.260  1.6983 -0.4632  0.0606
  820MOL0     H10693   1.653   1.460   1.307 -2.5272  3.5101  1.0878
  820MOL0     H10694   1.463   1.502   1.480  1.9977 -0.9004 -0.2128
  820MOL0     H10695   1.424   1.533   1.317  0.8323  1.0622  0.8167
  820MOL0     H10696   1.242   1.139   1.444  1.4948 -0.5244  1.2049
  820MOL0     H10697   2.007   1.613   1.407  0.4447 -0.2313  2.5132
  820MOL0     H10698   2.339   1.673   1.262 -2.4839 -0.6277 -3.2753
  820MOL0     H10699   2.180   1.737   1.297 -0.2206 -0.6092 -0.9907
  820MOL0     H10700   2.299   1.715   1.430 -0.7731  0.1174 -0.4309
  821MOL0     O10701  10.198   6.040  10.461 -0.3709 -0.5718  0.2955
  821MOL0     C10702  10.126   5.975  10.533 -0.7875 -1.1155  0.2967
  821MOL0     O10703  10.015   5.906  10.498  0.1581 -0.6074 -0.3770
  821MOL0     C10704   9.990   5.871  10.367  0.2765  0.4646  0.2030
  821MOL0     C10705   9.939   5.970  10.285  0.2231  0.0408  0.7337
  821MOL0     C10706   9.909   5.941  10.149  0.6707 -0.9227  0.5118
  821MOL0     C10707   9.942   5.823  10.090 -0.5688  0.3766 -0.6827
  821MOL0     O10708   9.935   5.798   9.957  0.1288 -0.7064  0.3915
  821MOL0     C10709   9.930   5.661   9.906  0.4923 -0.4432 -0.4563
  821MOL0     C10710   9.940   5.678   9.757  1.0431  0.3918 -0.4466
  821MOL0     C10711   9.958   5.546   9.678 -1.3361 -0.5753  0.1729
  821MOL0     C10712   9.976   5.571   9.524 -0.0462  0.6521  0.6008
  821MOL0     C10713  10.007   5.439   9.454  1.0743 -0.0952  0.1102
  821MOL0     C10714  10.153   5.393   9.480  1.1426  0.4603 -0.4985
  821MOL0     C10715  10.170   5.260   9.393 -0.7673 -0.6312 -0.4128
  821MOL0     C10716  10.165   5.280   9.242  0.3934 -0.2216 -0.6596
  821MOL0     N10717  10.249   5.381   9.182 -0.2922 -0.6230  0.4090
  821MOL0     C10718  10.373   5.366   9.120  0.4767 -0.3750 -0.8322
  821MOL0     C10719  10.416   5.494   9.079  0.0050 -0.8167  0.0026
  821MOL0     C10720  10.533   5.524   8.996 -0.8652  0.6169 -0.4401
  821MOL0     C10721  10.631   5.638   9.052  1.5010  0.0741 -0.3845
  821MOL0     C10722  10.556   5.776   9.043  0.3074  0.0779  0.4258
  821MOL0     C10723  10.649   5.905   9.050  0.3950 -0.0844  0.7220
  821MOL0     O10724  10.698   5.936   9.182 -0.3055  1.0299 -0.6223
  821MOL0     C10725  10.775   6.046   9.203 -1.3479 -0.0996  0.2285
  821MOL0     C10726  10.788   6.096   9.333  0.2678  0.4441 -0.3129
  821MOL0     C10727  10.868   6.210   9.363  0.3580 -0.3810  0.4606
  821MOL0     C10728  10.931   6.280   9.259  0.2157  0.7623 -0.0826
  821MOL0     C10729  11.011   6.395   9.289 -0.5584  0.2568 -1.0584
  821MOL0     O10730  11.111   6.431   9.203  0.3310 -0.0162  0.2352
  821MOL0     C10731  11.187   6.539   9.214 -0.3053  0.5066 -0.1382
  821MOL0     C10732  11.160   6.654   9.274  0.8404 -0.4770 -0.1041
  821MOL0     C10733  11.257   6.762   9.275  1.1306  0.1835 -0.5178
  821MOL0     C10734  11.373   6.757   9.197  1.2118  0.1486 -1.3582
  821MOL0     O10735  11.444   6.870   9.203  0.0097  0.3335 -0.2287
  821MOL0     C10736  11.582   6.850   9.225 -0.3411  0.6832  0.0925
  821MOL0     C10737  11.640   6.991   9.225 -0.0060 -0.7731  0.0246
  821MOL0     C10738  11.791   6.988   9.232  0.6573  0.3999 -0.4719
  821MOL0     C10739  11.841   7.140   9.242 -0.1737 -0.4995 -0.7934
  821MOL0     C10740  11.987   7.162   9.287 -0.0281 -0.0468 -0.1106
  821MOL0     C10741  12.081   7.158   9.164  0.4023  0.9166 -0.8587
  821MOL0     C10742  12.083   7.025   9.086 -0.4207 -0.8814 -0.1268
  821MOL0     C10743  12.213   6.987   9.020 -0.2838  0.8699  0.5288
  821MOL0    Cl10744  12.342   6.964   9.152  0.4301 -0.4239 -0.1950
  821MOL0     C10745  11.405   6.635   9.135 -0.0875 -0.0243 -0.1152
  821MOL0     C10746  11.312   6.533   9.148  1.8550 -0.0242  0.3315
  821MOL0     O10747  11.006   6.444   9.406  0.4756 -0.6034  0.7314
  821MOL0     C10748  10.933   6.220   9.135  0.4303 -0.5990  1.1106
  821MOL0     C10749  10.854   6.109   9.112  0.3995  0.2863 -0.5741
  821MOL0     N10750  10.327   5.588   9.136 -0.0440 -1.2862  0.8035
  821MOL0     N10751  10.231   5.519   9.194  0.2594  0.1920 -0.3135
  821MOL0     C10752  10.000   5.721  10.180 -0.0001 -0.1533 -1.1849
  821MOL0     C10753  10.017   5.748  10.314 -0.0759 -0.2800  1.0461
  821MOL0     C10754  10.154   6.002  10.677 -0.0206  0.7459 -0.0777
  821MOL0     C10755  10.284   6.043  10.711  0.5091  0.0623  0.2899
  821MOL0     C10756  10.319   6.094  10.835  0.0408 -0.4524 -0.0535
  821MOL0     C10757  10.227   6.092  10.936 -0.8823  0.2320  0.1176
  821MOL0     O10758  10.275   6.141  11.054 -0.2687 -0.2244  0.4562
  821MOL0     C10759  10.217   6.116  11.183 -0.0831  0.8514  0.5221
  821MOL0     C10760  10.206   5.968  11.223 -1.0403 -0.4159 -0.4729
  821MOL0     C10761  10.181   5.940  11.372 -0.1357  1.1056 -0.3210
  821MOL0     C10762  10.305   5.954  11.459  0.1162 -0.8459  0.2776
  821MOL0     C10763  10.320   5.871  11.568  0.5058  1.3983  1.0410
  821MOL0     C10764  10.340   5.797  11.660 -0.1946  0.0129  0.0772
  821MOL0     C10765  10.101   6.057  10.904  0.6772  0.0497  0.7892
  821MOL0     C10766  10.057   6.008  10.779 -0.5608  0.4108 -0.1252
  821MOL0     C10767   9.911   5.966  10.749 -0.1755  0.1584  0.0689
  821MOL0     H10768   9.927   6.068  10.331  0.1365  0.6309 -0.5160
  821MOL0     H10769   9.874   6.019  10.082 -3.8848 -2.0280  1.2324
  821MOL0     H10770  10.017   5.609   9.948  2.5840  2.9111 -0.2464
  821MOL0     H10771   9.832   5.616   9.924  0.5555 -0.9684 -1.3496
  821MOL0     H10772  10.019   5.749   9.731  1.7285 -0.6510 -1.3090
  821MOL0     H10773   9.839   5.714   9.733  2.3459  2.7515 -2.9229
  821MOL0     H10774   9.879   5.472   9.689  0.7867 -2.6394  2.9045
  821MOL0     H10775  10.039   5.493   9.728 -0.5736  1.7071  1.4962
  821MOL0     H10776   9.880   5.612   9.492  1.1625  1.2925 -2.4693
  821MOL0     H10777  10.059   5.641   9.515  1.8972 -1.4165  1.2598
  821MOL0     H10778   9.939   5.359   9.486 -2.0791  1.3316 -2.4268
  821MOL0     H10779   9.994   5.458   9.347 -2.1975  0.3759  0.4856
  821MOL0     H10780  10.220   5.475   9.450  0.4341  0.7588 -1.3232
  821MOL0     H10781  10.160   5.361   9.584 -1.7112 -2.7837 -1.1255
  821MOL0     H10782  10.084   5.196   9.415 -1.9892  1.6766  2.0993
  821MOL0     H10783  10.264   5.211   9.419 -0.5670 -0.2193 -0.3605
  821MOL0     H10784  10.187   5.189   9.185 -1.5937  0.7318 -3.1646
  821MOL0     H10785  10.060   5.301   9.219  0.6345  1.2429 -0.5291
  821MOL0     H10786  10.427   5.273   9.105  0.2206 -0.2704 -2.5587
  821MOL0     H10787  10.593   5.433   8.987 -3.7207 -1.5853  1.3626
  821MOL0     H10788  10.486   5.550   8.901 -3.0666  0.3065  0.5190
  821MOL0     H10789  10.666   5.612   9.153  1.3324  2.1832  0.2730
  821MOL0     H10790  10.722   5.650   8.993  2.0895  2.9904  0.9422
  821MOL0     H10791  10.489   5.786   9.129 -2.0992  1.2010 -1.4399
  821MOL0     H10792  10.497   5.786   8.951  1.3275  0.4129 -0.2152
  821MOL0     H10793  10.589   5.992   9.019  0.6572 -0.5801 -1.3134
  821MOL0     H10794  10.726   5.884   8.976  0.6906 -0.6809  1.1892
  821MOL0     H10795  10.730   6.051   9.413 -0.6087 -0.4365 -1.4018
  821MOL0     H10796  10.891   6.248   9.462  2.7483  0.2769 -0.2775
  821MOL0     H10797  11.065   6.670   9.325 -1.4702 -0.0674 -4.0923
  821MOL0     H10798  11.248   6.846   9.342  0.3811  1.6224 -2.3396
  821MOL0     H10799  11.613   6.798   9.316  0.6123 -0.4360 -0.8399
  821MOL0     H10800  11.624   6.790   9.143 -3.3646 -0.0960 -1.0047
  821MOL0     H10801  11.614   7.050   9.137  2.8865 -3.1542 -2.6838
  821MOL0     H10802  11.606   7.050   9.310  0.7936  1.0253 -0.8490
  821MOL0     H10803  11.833   6.929   9.314  3.3543 -0.4758 -2.3625
  821MOL0     H10804  11.820   6.944   9.137 -2.4998 -0.3183 -1.2241
  821MOL0     H10805  11.775   7.192   9.312 -1.5942 -1.0671 -1.6644
  821MOL0     H10806  11.827   7.207   9.157  0.2652  2.9391  1.6319
  821MOL0     H10807  12.024   7.094   9.365  0.3602 -0.0232 -0.2724
  821MOL0     H10808  12.004   7.265   9.321 -0.2212 -0.0954  0.1346
  821MOL0     H10809  12.045   7.233   9.093 -1.2571  2.2004  1.2223
  821MOL0     H10810  12.183   7.183   9.196 -0.7988  3.4772  1.4396
  821MOL0     H10811  12.014   7.046   9.004  0.7433 -1.7538 -1.3770
  821MOL0     H10812  12.050   6.944   9.151 -0.5502 -1.1042 -0.4688
  821MOL0     H10813  12.204   6.890   8.970  2.1488 -0.7969  3.0410
  821MOL0     H10814  12.246   7.058   8.943 -1.1692 -0.5746 -1.2577
  821MOL0     H10815  11.494   6.617   9.074  1.4451  0.8704  1.7321
  821MOL0     H10816  11.339   6.436   9.106 -3.0172 -1.6649  0.4097
  821MOL0     H10817  10.994   6.264   9.056  0.8744 -0.3066  1.6069
  821MOL0     H10818  10.866   6.060   9.016  4.5561  1.0665 -0.6488
  821MOL0     H10819  10.027   5.626  10.136  0.6707  0.2410 -1.6461
  821MOL0     H10820  10.064   5.663  10.362 -1.4450 -1.5815  0.2133
  821MOL0     H10821  10.362   6.038  10.635  2.2878 -1.7899  2.1253
  821MOL0     H10822  10.421   6.121  10.861 -1.0633  2.2863  1.9728
  821MOL0     H10823  10.117   6.161  11.187  0.8742  3.2128 -0.4048
  821MOL0     H10824  10.280   6.170  11.255 -0.7801  0.4151  1.4946
  821MOL0     H10825  10.300   5.917  11.202  0.7490  1.2895  2.6073
  821MOL0     H10826  10.137   5.918  11.155 -2.3640  1.0295 -0.2483
  821MOL0     H10827  10.141   5.838  11.372  2.2417  0.0776 -1.2920
  821MOL0     H10828  10.099   5.998  11.414 -0.5092 -1.7524  3.3887
  821MOL0     H10829  10.398   5.938  11.403  0.0756 -2.4424  0.6268
  821MOL0     H10830  10.290   6.058  11.491 -4.4840 -1.1512 -0.2209
  821MOL0     H10831  10.371   5.734  11.740  4.9831  1.1282 -0.6742
  821MOL0     H10832  10.024   6.040  10.978  0.8822  0.5256  1.1133
  821MOL0     H10833   9.885   6.030  10.664 -0.2948  0.9193  0.6576
  821MOL0     H10834   9.912   5.861  10.720  0.8897 -0.0200  0.6884
  821MOL0     H10835   9.835   5.977  10.827  0.6496 -1.5201  1.1563
  822MOL0     O10836   2.976   7.132  11.260  0.7279 -0.1937 -0.2528
  822MOL0     C10837   2.976   7.170  11.376  0.0676 -0.6055  0.7940
  822MOL0     O10838   2.978   7.091  11.483  0.5912  0.4495  0.3688
  822MOL0     C10839   2.901   6.977  11.479 -0.3008 -0.4761 -0.2375
  822MOL0     C10840   2.940   6.880  11.577  0.3697 -0.3782  0.7818
  822MOL0     C10841   2.888   6.755  11.586  0.2858  0.4439  0.2836
  822MOL0     C10842   2.790   6.713  11.489 -0.4038 -0.3107 -0.0326
  822MOL0     O10843   2.738   6.587  11.501  0.2759 -0.5291  0.0237
  822MOL0     C10844   2.773   6.489  11.403  0.6292 -0.6213 -0.5514
  822MOL0     C10845   2.691   6.360  11.442 -0.8155 -0.7856 -0.5503
  822MOL0     C10846   2.725   6.241  11.349 -0.5619 -0.0715  0.3416
  822MOL0     C10847   2.652   6.119  11.378  0.2493  0.4280  0.1096
  822MOL0     C10848   2.701   6.005  11.295 -0.1639 -0.6499 -0.5160
  822MOL0     C10849   2.669   5.872  11.352  0.1810 -0.2888  0.8571
  822MOL0     C10850   2.520   5.838  11.347 -0.7957 -0.3181  0.9362
  822MOL0     C10851   2.485   5.724  11.437  0.3694  0.3085 -0.1801
  822MOL0     N10852   2.368   5.662  11.386  0.0597 -0.0153 -0.2388
  822MOL0     C10853   2.236   5.701  11.415  0.5054 -0.4775 -0.0935
  822MOL0     C10854   2.156   5.612  11.333  0.5936 -0.1985  1.0391
  822MOL0     C10855   2.004   5.596  11.312  0.4263 -0.0989 -1.0005
  822MOL0     C10856   1.938   5.511  11.421  0.0274 -0.5879  0.9412
  822MOL0     C10857   1.792   5.480  11.390  0.4990  0.1765  0.2342
  822MOL0     C10858   1.705   5.529  11.493 -0.3938  0.2564 -0.1219
  822MOL0     O10859   1.688   5.427  11.594 -0.2360 -0.3293 -0.1095
  822MOL0     C10860   1.612   5.455  11.708  0.8251  0.7621 -0.2081
  822MOL0     C10861   1.539   5.577  11.719 -0.7660  0.1625  0.0606
  822MOL0     C10862   1.462   5.595  11.836  0.1491  0.6726 -0.0222
  822MOL0     C10863   1.448   5.495  11.935 -0.7271 -0.3997  0.5462
  822MOL0     C10864   1.373   5.524  12.060  0.4635  0.5108  0.6385
  822MOL0     O10865   1.369   5.427  12.159  0.0794  0.3600  0.7427
  822MOL0     C10866   1.292   5.441  12.269 -0.9638 -0.2520 -0.8435
  822MOL0     C10867   1.338   5.380  12.385 -0.1677 -0.0112  0.0430
  822MOL0     C10868   1.266   5.377  12.507  0.6779 -0.3261 -0.2695
  822MOL0     C10869   1.136   5.426  12.502 -0.8736 -0.8034  0.0257
  822MOL0     O10870   1.061   5.420  12.620  0.3029  0.5080 -0.6833
  822MOL0     C10871   0.970   5.528  12.660 -0.4575  0.3901  0.7411
  822MOL0     C10872   0.949   5.513  12.809 -0.9696 -0.1009 -0.8205
  822MOL0     C10873   0.923   5.373  12.865 -0.1768 -0.7903  0.1553
  822MOL0     C10874   0.941   5.377  13.016 -0.7893  0.5546  0.2453
  822MOL0     C10875   0.845   5.278  13.096  0.0737 -0.4087 -0.1697
  822MOL0     C10876   0.850   5.134  13.048  0.6318  0.0652 -0.0286
  822MOL0     C10877   0.727   5.043  13.094 -0.8121 -0.5975  0.7259
  822MOL0     C10878   0.718   5.018  13.240  0.4394  0.6130  0.4296
  822MOL0    Cl10879   0.882   4.959  13.309 -0.0331 -0.1252 -0.1286
  822MOL0     C10880   1.087   5.484  12.383  0.4110 -0.0695  0.3128
  822MOL0     C10881   1.168   5.491  12.266  0.0978  0.0416 -0.0822
  822MOL0     O10882   1.337   5.641  12.072  0.7685  0.1930 -0.7221
  822MOL0     C10883   1.535   5.386  11.921  0.8640  0.7562  0.2029
  822MOL0     C10884   1.618   5.363  11.813  0.4201  0.3902  0.1435
  822MOL0     N10885   2.247   5.532  11.269  1.0575  0.6479 -0.5817
  822MOL0     N10886   2.367   5.566  11.302 -0.8491 -0.0415  0.2279
  822MOL0     C10887   2.746   6.805  11.388  0.2857  0.4106  0.2750
  822MOL0     C10888   2.799   6.936  11.388 -0.3325 -0.9992  1.3661
  822MOL0     C10889   3.011   7.314  11.386  0.3364  0.0754 -0.3889
  822MOL0     C10890   3.145   7.336  11.428 -0.9251  0.2306  1.0985
  822MOL0     C10891   3.180   7.467  11.443  0.2428 -0.3777  0.2970
  822MOL0     C10892   3.095   7.578  11.405 -0.0601  0.7056 -0.8210
  822MOL0     O10893   3.146   7.701  11.419  0.1898 -0.1099 -0.6687
  822MOL0     C10894   3.051   7.801  11.452  0.2016 -0.7125  0.1798
  822MOL0     C10895   3.117   7.937  11.463  0.3520  0.3143 -0.1559
  822MOL0     C10896   3.186   7.982  11.336 -0.1455  0.8647  0.4962
  822MOL0     C10897   3.110   7.990  11.204 -0.0498  0.6801  0.1564
  822MOL0     C10898   2.984   8.055  11.215 -0.0254  0.2785 -0.7485
  822MOL0     C10899   2.884   8.128  11.219 -0.3658 -0.3381  0.1043
  822MOL0     C10900   2.965   7.545  11.363  0.2188  0.0472  0.0082
  822MOL0     C10901   2.922   7.420  11.367  0.2526  0.3317  0.2189
  822MOL0     C10902   2.789   7.398  11.316 -0.2139 -0.6334  0.0658
  822MOL0     H10903   3.015   6.910  11.650  0.1907  2.6625 -0.1314
  822MOL0     H10904   2.917   6.691  11.669 -0.5036 -0.0757  0.1726
  822MOL0     H10905   2.745   6.531  11.306  1.0430 -0.4828 -0.6128
  822MOL0     H10906   2.879   6.464  11.408  0.4682 -1.4109 -0.9626
  822MOL0     H10907   2.586   6.389  11.441 -0.6705 -0.1898 -2.4072
  822MOL0     H10908   2.721   6.336  11.545  1.4853  0.4462 -0.8512
  822MOL0     H10909   2.832   6.220  11.361 -0.4547  0.2636 -0.0140
  822MOL0     H10910   2.713   6.270  11.245  1.8366 -1.2158 -0.3250
  822MOL0     H10911   2.664   6.094  11.484  0.4920 -1.8114 -0.3852
  822MOL0     H10912   2.549   6.148  11.360  1.4192  3.9463 -1.8851
  822MOL0     H10913   2.661   6.027  11.195  1.3016  3.0301 -0.4562
  822MOL0     H10914   2.810   6.008  11.293  0.0676  3.2560  3.0866
  822MOL0     H10915   2.712   5.796  11.285 -2.5326 -3.2486  2.2320
  822MOL0     H10916   2.708   5.870  11.454  3.2598 -0.5350 -0.2041
  822MOL0     H10917   2.493   5.806  11.246 -0.6193 -0.5913  0.9751
  822MOL0     H10918   2.459   5.924  11.375 -0.1865  1.0185 -1.5737
  822MOL0     H10919   2.558   5.643  11.440 -1.9920 -1.9243  0.4832
  822MOL0     H10920   2.458   5.772  11.531  3.6613  0.4751  0.8079
  822MOL0     H10921   2.210   5.771  11.494  0.1962  3.6757 -3.4891
  822MOL0     H10922   1.962   5.697  11.305 -0.5704 -0.4012  0.1954
  822MOL0     H10923   2.000   5.542  11.217  3.2909 -3.0604  0.3738
  822MOL0     H10924   1.979   5.410  11.413  2.6356  0.3882  0.8317
  822MOL0     H10925   1.966   5.544  11.521  4.1820 -1.3716  0.2048
  822MOL0     H10926   1.776   5.372  11.385 -2.0533  0.4321  1.5832
  822MOL0     H10927   1.766   5.524  11.293  2.3993  2.1625  0.5330
  822MOL0     H10928   1.617   5.560  11.437  0.3880 -0.2915 -1.7241
  822MOL0     H10929   1.754   5.618  11.534  0.7393 -0.8311  0.9665
  822MOL0     H10930   1.546   5.664  11.654  0.1523  0.3250  0.3565
  822MOL0     H10931   1.403   5.685  11.846 -1.6311 -0.4151 -0.2670
  822MOL0     H10932   1.440   5.344  12.373  0.4722  2.0104 -0.9285
  822MOL0     H10933   1.296   5.325  12.598  0.1104  0.2411  0.2475
  822MOL0     H10934   1.019   5.622  12.633 -0.3051  0.0964 -0.0187
  822MOL0     H10935   0.881   5.519  12.597  0.2759  1.7325 -0.5543
  822MOL0     H10936   1.031   5.563  12.862 -0.0143 -2.4400  0.0431
  822MOL0     H10937   0.859   5.572  12.829 -0.9943 -0.3061 -0.3025
  822MOL0     H10938   0.816   5.365  12.848 -0.0320 -0.9806 -0.6719
  822MOL0     H10939   0.981   5.294  12.816 -0.6302  0.3455 -2.3698
  822MOL0     H10940   0.935   5.478  13.057 -0.7251 -0.3429  2.6297
  822MOL0     H10941   1.044   5.341  13.029 -0.2820  0.5438 -3.0434
  822MOL0     H10942   0.746   5.321  13.083  0.1930 -0.4956 -1.5970
  822MOL0     H10943   0.865   5.293  13.202  2.6507  1.7080 -0.8490
  822MOL0     H10944   0.848   5.144  12.939 -2.1162  0.6441  0.0089
  822MOL0     H10945   0.940   5.077  13.073  0.8193  0.6459  0.6545
  822MOL0     H10946   0.737   4.942  13.052  0.8543 -0.0745 -0.2280
  822MOL0     H10947   0.635   5.076  13.046 -1.5195  1.0685  3.0669
  822MOL0     H10948   0.686   5.101  13.304  1.5099 -1.2251  3.5809
  822MOL0     H10949   0.642   4.941  13.252  0.4765  0.0676 -2.2190
  822MOL0     H10950   0.990   5.531  12.381 -1.2691 -3.2102 -2.3191
  822MOL0     H10951   1.112   5.529  12.181 -0.8328  4.1109  2.0658
  822MOL0     H10952   1.551   5.316  12.003  0.7220  0.5122  0.0220
  822MOL0     H10953   1.686   5.279  11.806  0.8703  0.6650  1.0592
  822MOL0     H10954   2.658   6.781  11.330  0.0600 -3.0079  1.7710
  822MOL0     H10955   2.762   6.998  11.307  0.2294 -0.9762  1.1245
  822MOL0     H10956   3.214   7.254  11.448 -1.7906 -0.4856  1.2461
  822MOL0     H10957   3.275   7.501  11.481  0.0079  2.4077 -1.3156
  822MOL0     H10958   2.998   7.775  11.544  0.4362 -0.2116  0.4568
  822MOL0     H10959   2.978   7.806  11.370  0.2577  0.8908  0.1981
  822MOL0     H10960   3.181   7.938  11.552 -2.8052  1.7505  2.2926
  822MOL0     H10961   3.040   8.011  11.487 -0.5647 -0.9822  1.1148
  822MOL0     H10962   3.279   7.927  11.324  0.3113  1.1079  2.5705
  822MOL0     H10963   3.216   8.083  11.367  2.7593 -0.0627  0.9713
  822MOL0     H10964   3.174   8.050  11.138 -0.8547  1.9951  0.5429
  822MOL0     H10965   3.098   7.889  11.165 -0.9949  1.2198 -0.9987
  822MOL0     H10966   2.812   8.204  11.242  1.8677  1.6358  1.1106
  822MOL0     H10967   2.887   7.615  11.333 -1.6096 -2.7785 -2.3633
  822MOL0     H10968   2.742   7.307  11.357 -0.2285 -0.8012 -0.3201
  822MOL0     H10969   2.730   7.489  11.324  1.0849  0.2692 -0.3618
  822MOL0     H10970   2.793   7.377  11.209 -1.5646 -1.2024  0.1050
  823MOL0     O10971   6.902   3.781  11.426 -0.2473  0.5473  0.0255
  823MOL0     C10972   6.964   3.682  11.394 -0.3035 -0.2535  0.2226
  823MOL0     O10973   6.949   3.557  11.451  0.0086 -0.0422 -1.2172
  823MOL0     C10974   6.868   3.530  11.564 -0.5578 -0.0955  0.2120
  823MOL0     C10975   6.843   3.625  11.661 -0.7304 -0.6495  0.6218
  823MOL0     C10976   6.771   3.580  11.772  0.6088  0.1352  0.4352
  823MOL0     C10977   6.715   3.458  11.787 -0.1220  0.5977 -0.3653
  823MOL0     O10978   6.649   3.444  11.899  0.2764  0.2383 -0.2722
  823MOL0     C10979   6.653   3.317  11.962  0.6920  0.0797 -1.5592
  823MOL0     C10980   6.573   3.342  12.098 -0.6090 -0.6511  0.3885
  823MOL0     C10981   6.665   3.402  12.202 -0.2354  0.0843  0.3472
  823MOL0     C10982   6.660   3.561  12.216  0.0299 -0.0199  1.0356
  823MOL0     C10983   6.751   3.608  12.324  0.0904  0.2844  0.5144
  823MOL0     C10984   6.704   3.581  12.467 -0.2092  0.5258 -0.9428
  823MOL0     C10985   6.770   3.664  12.585  0.3380  0.2696 -0.6370
  823MOL0     C10986   6.702   3.629  12.712  0.2752  0.0978  0.0065
  823MOL0     N10987   6.763   3.703  12.824 -0.3361  0.3743 -0.2564
  823MOL0     C10988   6.896   3.706  12.858  0.1920 -0.3829 -0.9399
  823MOL0     C10989   6.895   3.738  12.984 -0.9938  0.9880 -0.8140
  823MOL0     C10990   7.033   3.748  13.055  0.0696 -0.3932  1.2770
  823MOL0     C10991   7.104   3.880  13.038  0.5228 -0.1011  0.1559
  823MOL0     C10992   7.245   3.886  13.095 -0.2975  0.1130 -0.3097
  823MOL0     C10993   7.321   3.997  13.040  0.1300 -0.6759 -0.5964
  823MOL0     O10994   7.440   4.013  13.117 -0.4086 -0.6872  0.7891
  823MOL0     C10995   7.540   4.083  13.050 -0.1223 -0.2639  0.7864
  823MOL0     C10996   7.663   4.104  13.110 -0.4144  0.0136  0.6149
  823MOL0     C10997   7.755   4.189  13.053 -0.2947  0.1544 -0.2437
  823MOL0     C10998   7.733   4.253  12.928 -0.1690  0.0788  0.0982
  823MOL0     C10999   7.839   4.332  12.861 -0.1007  0.0404 -0.0940
  823MOL0     O11000   7.959   4.339  12.935 -0.1505 -0.2147 -0.4042
  823MOL0     C11001   8.074   4.409  12.905  0.1840 -0.4863 -0.4661
  823MOL0     C11002   8.191   4.380  12.969 -0.4458  1.1059  0.1871
  823MOL0     C11003   8.303   4.459  12.960  0.0312 -0.1596 -0.4039
  823MOL0     C11004   8.303   4.568  12.870 -0.1947 -0.0053 -0.0013
  823MOL0     O11005   8.409   4.658  12.869 -0.8675  0.6026  0.5445
  823MOL0     C11006   8.503   4.655  12.979  0.3461 -0.6402  0.5457
  823MOL0     C11007   8.628   4.745  12.935 -0.2942 -0.6588 -0.9467
  823MOL0     C11008   8.602   4.895  12.958 -0.7477  0.1586 -0.7896
  823MOL0     C11009   8.720   4.987  12.920 -0.8761 -1.0518 -0.0454
  823MOL0     C11010   8.702   5.127  12.961  0.0273  0.0129  0.2343
  823MOL0     C11011   8.640   5.211  12.845  0.1954  0.2328  0.1949
  823MOL0     C11012   8.580   5.342  12.898  0.2686 -0.1769 -0.0467
  823MOL0     C11013   8.531   5.433  12.786  0.0508  0.3103 -0.3921
  823MOL0    Cl11014   8.513   5.595  12.850 -0.1334  0.3543  0.3757
  823MOL0     C11015   8.184   4.587  12.792 -0.2111  0.3487 -0.0758
  823MOL0     C11016   8.069   4.521  12.826  0.2975 -0.7893  0.1087
  823MOL0     O11017   7.818   4.386  12.748 -0.1008  0.8297 -0.4062
  823MOL0     C11018   7.611   4.220  12.867 -1.4868 -0.1506 -0.2065
  823MOL0     C11019   7.516   4.140  12.924 -0.5833  0.5571  0.5616
  823MOL0     N11020   6.772   3.744  13.036 -0.3818  0.0650 -0.7132
  823MOL0     N11021   6.689   3.725  12.936 -0.0372  0.0332  0.4176
  823MOL0     C11022   6.744   3.355  11.692  0.6301 -0.5576 -0.9051
  823MOL0     C11023   6.826   3.393  11.585  0.3919 -0.2385  0.3205
  823MOL0     C11024   7.043   3.693  11.270  1.0266  0.5267  0.1333
  823MOL0     C11025   7.075   3.571  11.212 -0.3158 -0.3858 -0.2627
  823MOL0     C11026   7.144   3.562  11.094  0.7916 -0.2167  0.6526
  823MOL0     C11027   7.202   3.674  11.038 -0.5846 -0.1355  0.7453
  823MOL0     O11028   7.287   3.637  10.931  0.1672  0.6327 -0.7593
  823MOL0     C11029   7.353   3.748  10.869 -0.1980 -0.5053 -0.5639
  823MOL0     C11030   7.483   3.793  10.943  1.0469  0.4109  0.1190
  823MOL0     C11031   7.584   3.669  10.937 -0.0888  0.2174 -0.4452
  823MOL0     C11032   7.732   3.697  10.993 -0.1933  0.9313 -1.4212
  823MOL0     C11033   7.809   3.567  11.002 -0.0677 -0.6363  0.0140
  823MOL0     C11034   7.854   3.458  11.009 -0.7975  0.8041  0.0361
  823MOL0     C11035   7.183   3.803  11.100 -0.1905 -0.6348  0.4409
  823MOL0     C11036   7.088   3.810  11.201 -0.0248 -0.8254 -0.2053
  823MOL0     C11037   7.049   3.946  11.258 -0.0083 -1.1627 -0.1374
  823MOL0     H11038   6.884   3.725  11.659  2.8184 -1.9318 -0.3127
  823MOL0     H11039   6.757   3.646  11.857  1.3696  0.5938  0.2145
  823MOL0     H11040   6.603   3.236  11.908  1.7041 -2.3896  0.9716
  823MOL0     H11041   6.758   3.291  11.978  0.8634  0.1615 -2.5259
  823MOL0     H11042   6.554   3.238  12.127 -2.6678 -0.8671 -1.4490
  823MOL0     H11043   6.485   3.405  12.081 -2.0392 -2.7136 -0.2325
  823MOL0     H11044   6.771   3.383  12.182  0.4011  2.3259  1.2939
  823MOL0     H11045   6.639   3.358  12.299 -3.1576 -1.4008 -0.9621
  823MOL0     H11046   6.693   3.614  12.126  2.3184 -1.6735  0.8382
  823MOL0     H11047   6.555   3.585  12.238 -1.3783 -2.6816 -1.9144
  823MOL0     H11048   6.852   3.566  12.317 -0.6845 -2.0248  1.9054
  823MOL0     H11049   6.757   3.715  12.304 -2.1514  0.5107  0.7875
  823MOL0     H11050   6.596   3.597  12.479 -0.1663 -0.8252  2.1335
  823MOL0     H11051   6.708   3.474  12.489 -5.6620  0.7064  2.8553
  823MOL0     H11052   6.749   3.770  12.571 -2.7007 -0.0979  0.3813
  823MOL0     H11053   6.875   3.636  12.591  0.4309 -0.7678 -4.2626
  823MOL0     H11054   6.596   3.655  12.703 -0.3594 -2.9314 -3.1342
  823MOL0     H11055   6.691   3.523  12.734 -0.2497  0.0310 -0.5555
  823MOL0     H11056   6.983   3.687  12.795  1.1239 -0.1802  0.2481
  823MOL0     H11057   7.037   3.722  13.161  0.4117 -4.8412  0.3892
  823MOL0     H11058   7.100   3.672  13.012 -0.3298 -1.6692  2.8508
  823MOL0     H11059   7.106   3.890  12.929 -0.9687 -1.8071 -0.0703
  823MOL0     H11060   7.037   3.956  13.080 -1.2738 -1.2481 -0.5232
  823MOL0     H11061   7.309   3.802  13.067  0.1556  0.0962  0.7252
  823MOL0     H11062   7.248   3.886  13.205 -0.6218 -0.2835 -0.2963
  823MOL0     H11063   7.266   4.092  13.033 -0.9304 -1.3745 -2.5565
  823MOL0     H11064   7.333   3.959  12.938  2.0133  0.9260 -1.0309
  823MOL0     H11065   7.664   4.067  13.212 -2.3910 -2.4811 -0.1917
  823MOL0     H11066   7.848   4.191  13.109 -1.9569 -3.7921  3.2723
  823MOL0     H11067   8.207   4.285  13.019  0.4070 -0.6919 -3.2330
  823MOL0     H11068   8.388   4.449  13.027  1.5851  3.0498 -1.7070
  823MOL0     H11069   8.453   4.701  13.065  0.7862  1.7014 -0.3708
  823MOL0     H11070   8.548   4.560  13.008 -1.5960 -1.1802  2.0072
  823MOL0     H11071   8.718   4.718  12.991  0.7408 -0.3391 -2.4063
  823MOL0     H11072   8.648   4.727  12.829  1.1177  2.4827 -1.3203
  823MOL0     H11073   8.517   4.915  12.892 -0.9889  0.0661 -0.5126
  823MOL0     H11074   8.570   4.920  13.060  2.3836  1.4400  0.0096
  823MOL0     H11075   8.740   4.968  12.814  1.0042 -2.2323  0.4700
  823MOL0     H11076   8.805   4.962  12.984  1.1481  0.5323 -1.9487
  823MOL0     H11077   8.799   5.173  12.980  0.3419 -1.0605  1.2782
  823MOL0     H11078   8.643   5.129  13.053  0.2286  1.5058  0.3609
  823MOL0     H11079   8.711   5.234  12.765 -1.5512  1.0863 -1.1803
  823MOL0     H11080   8.555   5.161  12.798 -1.1482  3.4091 -1.0889
  823MOL0     H11081   8.659   5.396  12.951  1.0260 -0.7764 -0.5436
  823MOL0     H11082   8.507   5.327  12.977 -1.8298 -0.2639 -1.8980
  823MOL0     H11083   8.610   5.435  12.710 -0.1377 -1.7385 -0.6760
  823MOL0     H11084   8.440   5.399  12.736  0.6095 -2.3008  0.2556
  823MOL0     H11085   8.174   4.666  12.719 -1.0266 -0.4209 -0.8129
  823MOL0     H11086   7.973   4.541  12.781 -0.2399  0.5283  1.7744
  823MOL0     H11087   7.582   4.269  12.775  0.1030  2.4407  0.5808
  823MOL0     H11088   7.422   4.138  12.871  1.7438  0.0777 -3.9910
  823MOL0     H11089   6.704   3.255  11.701 -1.9815  0.2397 -2.5525
  823MOL0     H11090   6.855   3.318  11.512 -1.5605  0.2050 -0.9812
  823MOL0     H11091   7.033   3.478  11.250  0.6793 -1.0577 -0.7491
  823MOL0     H11092   7.166   3.465  11.052  0.3586  0.2421 -0.6979
  823MOL0     H11093   7.291   3.838  10.855  1.0659  0.2030 -1.9488
  823MOL0     H11094   7.371   3.717  10.766 -1.4913 -1.4125 -0.5427
  823MOL0     H11095   7.467   3.813  11.049  1.5680 -0.0699  0.2916
  823MOL0     H11096   7.525   3.883  10.896  4.0841 -0.8803  0.0950
  823MOL0     H11097   7.591   3.643  10.831  0.3135  2.1995 -0.9461
  823MOL0     H11098   7.542   3.578  10.980 -2.2672 -1.0815 -4.7618
  823MOL0     H11099   7.780   3.776  10.934 -0.3803  0.4346 -2.2624
  823MOL0     H11100   7.728   3.750  11.088  1.7668  4.0833 -2.9153
  823MOL0     H11101   7.891   3.358  11.023  0.3902  0.9942 -1.4478
  823MOL0     H11102   7.223   3.899  11.069 -1.9544 -0.7047 -2.3237
  823MOL0     H11103   6.943   3.947  11.287  0.1771 -1.7266  0.5730
  823MOL0     H11104   7.119   3.983  11.333 -1.9514 -0.6062  1.5128
  823MOL0     H11105   7.067   4.024  11.184  1.3940 -0.6356  0.7349
  824MOL0     O11106   3.310   9.750   8.508 -0.8464  0.2624  0.7001
  824MOL0     C11107   3.424   9.697   8.496  0.1032 -0.2220 -0.1234
  824MOL0     O11108   3.437   9.565   8.488 -0.1411  0.6424 -0.0421
  824MOL0     C11109   3.332   9.490   8.442 -1.0916 -0.4838  0.6687
  824MOL0     C11110   3.301   9.374   8.525  0.4576 -0.6699  1.3229
  824MOL0     C11111   3.189   9.293   8.494  0.1639  0.3716  0.3784
  824MOL0     C11112   3.112   9.321   8.379  0.0390 -0.5417 -0.4077
  824MOL0     O11113   3.013   9.232   8.361  0.7823  0.7732 -0.1995
  824MOL0     C11114   2.888   9.282   8.298  0.5804  0.3833 -0.1805
  824MOL0     C11115   2.765   9.189   8.285 -0.5983 -0.5838  0.5633
  824MOL0     C11116   2.698   9.145   8.422 -0.0298 -0.2560  1.0329
  824MOL0     C11117   2.576   9.053   8.382  0.2128  0.2491  0.1166
  824MOL0     C11118   2.509   9.008   8.503 -0.0770  0.1559 -0.5113
  824MOL0     C11119   2.582   8.914   8.599 -0.0005 -0.0700 -0.2463
  824MOL0     C11120   2.627   8.769   8.545  0.1616 -0.4572 -0.5445
  824MOL0     C11121   2.515   8.677   8.509 -1.2270  0.0138 -0.0289
  824MOL0     N11122   2.486   8.670   8.359  0.0956 -0.3011 -0.4237
  824MOL0     C11123   2.513   8.560   8.287  0.3155 -0.1056 -0.7820
  824MOL0     C11124   2.465   8.580   8.167  0.8011 -0.3104  1.0340
  824MOL0     C11125   2.447   8.476   8.055 -0.2710 -1.2881  0.3798
  824MOL0     C11126   2.552   8.497   7.950  0.3049  0.5899  0.3260
  824MOL0     C11127   2.681   8.435   7.980  0.2279 -0.3593 -0.2131
  824MOL0     C11128   2.697   8.291   7.943  0.6449 -0.3795 -0.1994
  824MOL0     O11129   2.605   8.200   8.014  0.4497 -0.1358  0.6151
  824MOL0     C11130   2.630   8.154   8.140  0.2022  0.4069 -0.4367
  824MOL0     C11131   2.532   8.068   8.202 -0.3819  0.5602  0.3031
  824MOL0     C11132   2.555   8.024   8.335  0.3638  0.4906  0.7493
  824MOL0     C11133   2.662   8.060   8.410 -0.1824  0.5210 -0.3266
  824MOL0     C11134   2.676   8.022   8.557 -0.4306  0.4416  0.0878
  824MOL0     O11135   2.778   8.088   8.626 -0.0748  0.0297  0.1680
  824MOL0     C11136   2.797   8.061   8.763  0.5289 -0.0302  0.9020
  824MOL0     C11137   2.804   7.942   8.826  0.4151  0.7595  0.4580
  824MOL0     C11138   2.851   7.929   8.950  0.2996  0.5445 -0.1172
  824MOL0     C11139   2.882   8.032   9.031 -0.2577 -0.2828 -0.9743
  824MOL0     O11140   2.913   8.023   9.166 -1.1279 -0.7849  0.2375
  824MOL0     C11141   2.919   7.893   9.228  0.1136 -0.6746  0.3186
  824MOL0     C11142   2.945   7.918   9.382  1.6548  0.9834  0.1732
  824MOL0     C11143   2.808   7.939   9.462 -0.3884 -0.5432  0.9439
  824MOL0     C11144   2.833   7.926   9.612 -0.9086 -0.0900 -0.0850
  824MOL0     C11145   2.704   7.941   9.699  0.2502  0.9299  0.0091
  824MOL0     C11146   2.746   7.979   9.839 -0.3040  0.4582 -0.5860
  824MOL0     C11147   2.642   8.068   9.905 -0.2427  0.3629  0.2871
  824MOL0     C11148   2.668   8.076  10.063 -0.2304  0.4822 -0.2171
  824MOL0    Cl11149   2.706   7.917  10.132  0.1071 -0.5716 -0.2129
  824MOL0     C11150   2.879   8.162   8.965 -0.8705  0.4585  0.2983
  824MOL0     C11151   2.838   8.172   8.826  0.7610  0.4682 -0.8209
  824MOL0     O11152   2.592   7.948   8.609  0.9154 -0.2934 -0.3764
  824MOL0     C11153   2.759   8.135   8.346  0.2648 -0.0891  0.6670
  824MOL0     C11154   2.743   8.192   8.220 -0.4932  1.0549  0.7956
  824MOL0     N11155   2.415   8.714   8.162 -0.6822  0.8361  0.0389
  824MOL0     N11156   2.431   8.767   8.282  0.1925  0.0108  0.1000
  824MOL0     C11157   3.142   9.436   8.302  0.2628 -0.0488  0.3000
  824MOL0     C11158   3.253   9.511   8.334 -0.0111 -1.2153 -0.2843
  824MOL0     C11159   3.550   9.764   8.508 -0.4464 -0.1824 -0.9233
  824MOL0     C11160   3.662   9.693   8.552  0.4015 -0.5818 -0.8406
  824MOL0     C11161   3.787   9.748   8.548  0.8491 -1.0473 -0.6348
  824MOL0     C11162   3.813   9.880   8.499  0.8382  0.1378  0.5507
  824MOL0     O11163   3.939   9.928   8.514 -0.2803  0.2546 -0.0266
  824MOL0     C11164   4.042   9.837   8.470  0.0737 -0.3203 -0.2373
  824MOL0     C11165   4.130   9.778   8.584  0.6862 -0.2084  0.1553
  824MOL0     C11166   4.190   9.883   8.671  0.0256  0.7049  0.8106
  824MOL0     C11167   4.275   9.823   8.797 -0.0544 -0.3102 -0.0283
  824MOL0     C11168   4.303   9.925   8.897  0.1647  0.6984 -0.2127
  824MOL0     C11169   4.319  10.017   8.978  0.1459  0.6052  0.0213
  824MOL0     C11170   3.702   9.960   8.475 -0.6738 -0.7025  0.1660
  824MOL0     C11171   3.573   9.904   8.487 -0.1848 -0.1981  0.2495
  824MOL0     C11172   3.460  10.000   8.447 -0.1866  0.5363  0.1907
  824MOL0     H11173   3.366   9.359   8.610 -0.0140 -0.0278  1.8112
  824MOL0     H11174   3.152   9.211   8.553  2.2985  1.5360  3.6122
  824MOL0     H11175   2.858   9.370   8.356 -0.5275  0.7367 -1.2410
  824MOL0     H11176   2.913   9.319   8.198  1.3985 -1.5851 -0.7529
  824MOL0     H11177   2.794   9.100   8.229 -2.0155 -0.2078 -0.8447
  824MOL0     H11178   2.688   9.228   8.219 -1.9493 -1.1370  1.7679
  824MOL0     H11179   2.656   9.234   8.470 -0.1609 -0.5396  1.4601
  824MOL0     H11180   2.778   9.113   8.490  1.7870 -0.4720 -1.0978
  824MOL0     H11181   2.517   9.105   8.307  0.7330 -0.7981 -1.0397
  824MOL0     H11182   2.609   8.964   8.329  0.4642  1.2517 -1.4698
  824MOL0     H11183   2.475   9.097   8.558 -2.6510  0.2047 -2.0178
  824MOL0     H11184   2.423   8.949   8.471  0.8272 -1.0550 -0.7538
  824MOL0     H11185   2.671   8.969   8.632  0.3212 -0.4534 -0.4645
  824MOL0     H11186   2.520   8.904   8.689 -1.2706  2.7573 -0.7057
  824MOL0     H11187   2.676   8.720   8.630 -0.4527  1.3431  0.9051
  824MOL0     H11188   2.696   8.795   8.464 -2.1261 -1.0001 -2.7920
  824MOL0     H11189   2.540   8.575   8.539 -0.5492 -0.2409 -1.3806
  824MOL0     H11190   2.427   8.722   8.556 -1.9021 -0.9984 -0.2911
  824MOL0     H11191   2.556   8.465   8.316 -2.5983 -1.5564 -0.8575
  824MOL0     H11192   2.446   8.378   8.104 -0.9917 -0.5567  1.8964
  824MOL0     H11193   2.343   8.486   8.024 -0.2577 -1.7469  0.1806
  824MOL0     H11194   2.516   8.455   7.855  3.6226  1.6851 -1.5718
  824MOL0     H11195   2.574   8.602   7.931  0.7160  0.5312  0.4711
  824MOL0     H11196   2.704   8.446   8.086 -2.2924 -0.4266  0.3881
  824MOL0     H11197   2.759   8.498   7.936 -0.7652 -0.0913 -1.6619
  824MOL0     H11198   2.795   8.247   7.966  1.9071  2.4689  0.2911
  824MOL0     H11199   2.688   8.288   7.834  0.9884  0.9676 -0.2766
  824MOL0     H11200   2.445   8.031   8.148  0.7366 -1.2205 -0.3768
  824MOL0     H11201   2.474   7.981   8.393  0.7617  0.0117  0.9542
  824MOL0     H11202   2.762   7.858   8.773  0.7910  0.7843  0.1145
  824MOL0     H11203   2.860   7.832   8.999  0.5800  1.3093  1.3917
  824MOL0     H11204   2.825   7.841   9.206  0.3195 -0.4898 -1.0731
  824MOL0     H11205   3.006   7.840   9.188  0.8817 -0.2404  1.3676
  824MOL0     H11206   2.996   7.832   9.428  1.1911 -0.1789 -1.4164
  824MOL0     H11207   3.009   8.006   9.396  0.9969  1.4257  0.4725
  824MOL0     H11208   2.765   8.038   9.448  1.3582  0.3745  1.7354
  824MOL0     H11209   2.731   7.863   9.443 -1.1426  0.2983  0.5642
  824MOL0     H11210   2.901   8.009   9.633  1.9495 -1.9682 -1.2464
  824MOL0     H11211   2.877   7.829   9.640 -1.5293 -0.2354  0.4239
  824MOL0     H11212   2.645   7.850   9.705 -1.8662  2.3340  2.3793
  824MOL0     H11213   2.641   8.013   9.647 -0.9294 -0.5636 -0.6933
  824MOL0     H11214   2.758   7.885   9.894  1.2131  2.0421  1.9705
  824MOL0     H11215   2.837   8.038   9.836 -2.3005  3.7571 -0.6611
  824MOL0     H11216   2.541   8.027   9.897  0.3290 -1.8763  2.9639
  824MOL0     H11217   2.641   8.159   9.844  0.9431  0.9073  1.0229
  824MOL0     H11218   2.753   8.143  10.077 -1.1727  1.6532  0.1236
  824MOL0     H11219   2.579   8.117  10.113 -1.1447 -1.0926 -0.4813
  824MOL0     H11220   2.900   8.256   9.014 -1.3965  0.0838  1.2660
  824MOL0     H11221   2.827   8.270   8.781  0.7041 -0.3799 -2.7365
  824MOL0     H11222   2.849   8.152   8.404  0.7062  0.9692 -0.2932
  824MOL0     H11223   2.827   8.234   8.166 -0.1107  1.2566  1.5337
  824MOL0     H11224   3.090   9.448   8.208  1.5435  0.7081 -0.3374
  824MOL0     H11225   3.278   9.592   8.266 -0.2437 -0.2529  0.7495
  824MOL0     H11226   3.649   9.585   8.560  0.2197 -0.5846 -1.1426
  824MOL0     H11227   3.874   9.694   8.584  2.4598  2.2166  0.8701
  824MOL0     H11228   4.109   9.900   8.410  2.6813  0.3408  3.0166
  824MOL0     H11229   3.998   9.755   8.413  1.9913 -0.4480 -1.6472
  824MOL0     H11230   4.221   9.738   8.538  1.2227  1.8837 -0.7119
  824MOL0     H11231   4.079   9.695   8.634  0.2292  0.2520  0.4642
  824MOL0     H11232   4.112   9.943   8.718 -0.4847  0.5203  0.2196
  824MOL0     H11233   4.258   9.950   8.617  0.7587  1.1806  2.2939
  824MOL0     H11234   4.226   9.737   8.845 -0.5977  0.5159  0.9382
  824MOL0     H11235   4.369   9.786   8.757  0.3571 -0.2893  0.8910
  824MOL0     H11236   4.348  10.100   9.038 -0.2598  0.2864  0.6710
  824MOL0     H11237   3.710  10.063   8.441  0.0801 -0.0331  2.1997
  824MOL0     H11238   3.378   9.999   8.519 -0.6385  1.8014 -0.2921
  824MOL0     H11239   3.494  10.104   8.439  2.6102 -0.3949 -1.9064
  824MOL0     H11240   3.431   9.962   8.349  0.9965 -0.4131  0.1694
  825MOL0     O11241   7.389   7.042   1.285 -0.0278  0.0158 -0.3294
  825MOL0     C11242   7.426   7.123   1.374  0.1538  0.9893 -0.6680
  825MOL0     O11243   7.555   7.167   1.392 -0.2077  0.0493  0.2527
  825MOL0     C11244   7.648   7.135   1.300  0.0665 -0.4269  0.0207
  825MOL0     C11245   7.636   7.167   1.169 -0.5011  0.2741  0.0184
  825MOL0     C11246   7.733   7.132   1.071 -0.2165 -1.0047 -0.5177
  825MOL0     C11247   7.855   7.068   1.110  0.5978  0.0600  0.1969
  825MOL0     O11248   7.942   7.022   1.015 -0.3157  0.1403  0.1136
  825MOL0     C11249   8.071   6.973   1.065 -0.1580 -0.1283 -0.1801
  825MOL0     C11250   8.076   6.827   1.094 -0.5953 -0.3171  0.4444
  825MOL0     C11251   8.220   6.770   1.099 -0.2781  1.0978 -0.2531
  825MOL0     C11252   8.215   6.621   1.128 -0.1481  0.0103  0.5720
  825MOL0     C11253   8.355   6.582   1.143 -0.6490  0.0216  0.7570
  825MOL0     C11254   8.363   6.429   1.190 -0.1809  0.0848 -0.4585
  825MOL0     C11255   8.307   6.327   1.097  0.6868  0.2165 -1.0325
  825MOL0     C11256   8.373   6.300   0.964 -0.6187 -0.4089  0.3457
  825MOL0     N11257   8.524   6.300   0.970 -0.0664 -0.6336  0.0907
  825MOL0     C11258   8.612   6.389   0.907 -0.3320 -0.7565 -0.5141
  825MOL0     C11259   8.738   6.350   0.938 -0.1940 -0.5629 -0.7410
  825MOL0     C11260   8.855   6.422   0.883 -0.5307 -0.3967  0.6543
  825MOL0     C11261   8.928   6.520   0.986  0.5442 -0.1234 -0.4456
  825MOL0     C11262   8.827   6.634   1.035 -0.2947 -0.3604 -0.9177
  825MOL0     C11263   8.905   6.724   1.136 -0.3432  0.4211  0.1945
  825MOL0     O11264   8.937   6.656   1.256 -0.0712 -0.1157 -0.6188
  825MOL0     C11265   9.073   6.682   1.296 -0.1942 -0.2127 -1.0531
  825MOL0     C11266   9.136   6.582   1.365 -0.0847 -0.2708 -0.2804
  825MOL0     C11267   9.273   6.587   1.410  0.2882 -0.0997  0.1233
  825MOL0     C11268   9.338   6.716   1.409  0.1242 -0.5352 -0.3787
  825MOL0     C11269   9.478   6.744   1.448  0.0863  0.6542 -0.5667
  825MOL0     O11270   9.534   6.868   1.431  0.0086 -0.7687  0.0562
  825MOL0     C11271   9.659   6.887   1.495 -0.7242 -0.1916  0.3422
  825MOL0     C11272   9.765   6.924   1.409  0.2131 -0.3444  0.2265
  825MOL0     C11273   9.884   6.936   1.470  0.0168 -0.3022  0.3517
  825MOL0     C11274   9.902   6.925   1.611  0.1465  0.0099  0.2375
  825MOL0     O11275  10.023   6.947   1.678  1.3047 -0.1859  0.6556
  825MOL0     C11276  10.144   6.957   1.602  0.2401  0.0254 -0.7758
  825MOL0     C11277  10.254   6.983   1.703 -0.3973  0.9968  0.5212
  825MOL0     C11278  10.286   6.856   1.789  0.6127 -0.7449 -0.3944
  825MOL0     C11279  10.404   6.782   1.736  0.8635  0.6549 -0.3330
  825MOL0     C11280  10.451   6.664   1.834  0.3654 -0.0223 -0.5404
  825MOL0     C11281  10.534   6.548   1.765 -0.1735  1.7071  0.8514
  825MOL0     C11282  10.597   6.441   1.869  0.1576 -1.2693 -0.7229
  825MOL0     C11283  10.719   6.370   1.822 -0.6823  0.8949  0.3770
  825MOL0    Cl11284  10.851   6.481   1.752 -0.0046  0.1362 -0.1297
  825MOL0     C11285   9.796   6.881   1.684  0.7419  0.2044  0.0393
  825MOL0     C11286   9.670   6.872   1.631  0.0658 -0.3390 -0.0604
  825MOL0     O11287   9.546   6.646   1.494 -1.2394 -0.3404 -0.0642
  825MOL0     C11288   9.268   6.819   1.343  0.0096  0.0842  0.6845
  825MOL0     C11289   9.144   6.808   1.276  0.3791 -0.1217 -0.2563
  825MOL0     N11290   8.725   6.240   1.015 -0.3159  0.4131 -0.0250
  825MOL0     N11291   8.604   6.205   1.027  0.1352 -0.3110 -0.0545
  825MOL0     C11292   7.868   7.039   1.245  0.2795 -0.6067  0.2951
  825MOL0     C11293   7.767   7.068   1.342  0.1087  0.0040  0.0908
  825MOL0     C11294   7.323   7.159   1.469  0.1271 -0.3202 -0.1153
  825MOL0     C11295   7.186   7.159   1.427  0.3055  0.1463  0.2845
  825MOL0     C11296   7.089   7.205   1.511  0.7575  0.2834 -0.8009
  825MOL0     C11297   7.116   7.213   1.643 -0.1216 -0.3061 -0.6426
  825MOL0     O11298   7.029   7.254   1.742 -0.0628  0.4919 -0.0430
  825MOL0     C11299   6.891   7.282   1.710  0.3255 -0.7654 -0.4684
  825MOL0     C11300   6.821   7.150   1.687 -0.2404 -0.0789 -1.3191
  825MOL0     C11301   6.795   7.063   1.812  0.3049 -0.4704  0.3582
  825MOL0     C11302   6.768   6.910   1.791  0.0547 -0.0342 -0.3807
  825MOL0     C11303   6.681   6.880   1.686 -0.2139 -0.4015  0.6364
  825MOL0     C11304   6.608   6.855   1.592  0.7073 -0.7674 -0.3645
  825MOL0     C11305   7.247   7.194   1.695  0.2925  0.1565 -0.3081
  825MOL0     C11306   7.350   7.171   1.611 -0.0004  0.3314  1.0636
  825MOL0     C11307   7.490   7.156   1.671 -0.1158 -0.3592 -0.6878
  825MOL0     H11308   7.544   7.214   1.138 -1.0748 -1.0646 -0.3760
  825MOL0     H11309   7.712   7.165   0.970  1.2068 -0.1351 -0.5596
  825MOL0     H11310   8.128   6.980   0.973 -1.3550 -2.2634 -1.1587
  825MOL0     H11311   8.103   7.042   1.144 -3.1028  1.7176 -0.4411
  825MOL0     H11312   8.038   6.782   1.002  0.8946 -0.8662  0.0604
  825MOL0     H11313   8.011   6.800   1.178  1.4493  0.5867  2.4185
  825MOL0     H11314   8.266   6.830   1.178  1.3893 -0.1056 -0.2549
  825MOL0     H11315   8.277   6.789   1.007 -3.2078  0.0171 -2.4884
  825MOL0     H11316   8.157   6.611   1.221  0.8980  1.8918  1.4860
  825MOL0     H11317   8.160   6.571   1.048 -0.3985  2.1769 -0.6736
  825MOL0     H11318   8.412   6.588   1.049 -2.1648  0.1647 -0.1796
  825MOL0     H11319   8.404   6.655   1.208  1.4266  2.7398 -3.3759
  825MOL0     H11320   8.467   6.403   1.211 -0.1956  0.6010  0.2960
  825MOL0     H11321   8.313   6.413   1.286  1.2213 -4.9427 -0.2759
  825MOL0     H11322   8.199   6.343   1.090  0.1387 -0.9601  2.7192
  825MOL0     H11323   8.317   6.229   1.144  0.5768  0.3371 -0.7569
  825MOL0     H11324   8.333   6.202   0.934  1.2598 -1.0274 -0.2805
  825MOL0     H11325   8.340   6.386   0.906  1.2076  0.8688  1.0893
  825MOL0     H11326   8.594   6.471   0.839  0.9966 -0.7828 -0.9298
  825MOL0     H11327   8.925   6.345   0.851 -1.2942 -0.0986 -1.9740
  825MOL0     H11328   8.836   6.482   0.793  2.9030 -0.5147 -0.2727
  825MOL0     H11329   8.963   6.467   1.075 -0.5742  0.4988  0.3935
  825MOL0     H11330   9.014   6.559   0.931  1.7973 -1.4807  0.4769
  825MOL0     H11331   8.734   6.596   1.079  0.6277 -2.9103 -1.0488
  825MOL0     H11332   8.787   6.687   0.948 -0.3510 -0.6601 -1.0740
  825MOL0     H11333   8.850   6.814   1.167  0.0505  0.0230  2.1268
  825MOL0     H11334   8.998   6.749   1.083  1.2741 -1.7865  1.7987
  825MOL0     H11335   9.080   6.490   1.374  1.4866 -1.4080 -1.5597
  825MOL0     H11336   9.313   6.505   1.468 -0.1751  0.5135  1.3603
  825MOL0     H11337   9.749   6.938   1.302 -1.6279  0.2643  0.5329
  825MOL0     H11338   9.969   6.974   1.414  2.9908  0.3039  4.7614
  825MOL0     H11339  10.165   6.858   1.559  0.1111 -0.5680  0.4676
  825MOL0     H11340  10.153   7.035   1.527  0.8425 -1.8713 -2.7844
  825MOL0     H11341  10.342   7.002   1.640 -0.0668  0.3262  0.7664
  825MOL0     H11342  10.228   7.070   1.764 -0.6688  2.0619 -1.0484
  825MOL0     H11343  10.310   6.890   1.890 -1.0724 -0.6883  0.0263
  825MOL0     H11344  10.197   6.793   1.802 -0.1208  0.3347  0.0059
  825MOL0     H11345  10.489   6.852   1.737  1.6906 -0.2155  2.9344
  825MOL0     H11346  10.384   6.739   1.638  1.0714  0.0619 -0.1188
  825MOL0     H11347  10.363   6.614   1.877  1.0155 -1.7717 -1.1599
  825MOL0     H11348  10.506   6.702   1.921  0.2740 -4.0535  1.5216
  825MOL0     H11349  10.474   6.490   1.694 -0.1197  0.3334  1.8925
  825MOL0     H11350  10.620   6.593   1.715 -2.7042  2.9807 -2.8283
  825MOL0     H11351  10.520   6.374   1.908 -4.0695  4.3315  2.1974
  825MOL0     H11352  10.629   6.496   1.958  0.8737 -1.9418 -0.5612
  825MOL0     H11353  10.774   6.304   1.889 -1.4786  0.4283  0.5851
  825MOL0     H11354  10.685   6.313   1.735  4.6151  0.3872 -1.7400
  825MOL0     H11355   9.801   6.851   1.789  1.1440  1.0970  0.2835
  825MOL0     H11356   9.591   6.844   1.700  0.1152  1.4821  0.7875
  825MOL0     H11357   9.306   6.921   1.335 -0.7631  0.2740 -1.2724
  825MOL0     H11358   9.087   6.887   1.228 -0.8772 -2.1528 -2.2628
  825MOL0     H11359   7.958   6.988   1.277  2.4931  2.4161 -0.7054
  825MOL0     H11360   7.792   7.041   1.443  2.9708  0.9793 -0.2630
  825MOL0     H11361   7.160   7.154   1.322 -3.3107  1.3446  1.0179
  825MOL0     H11362   6.989   7.219   1.472  0.3458  0.9393  0.4379
  825MOL0     H11363   6.884   7.336   1.615  0.5568 -4.0004 -2.4741
  825MOL0     H11364   6.848   7.342   1.792 -2.8391 -1.4525 -1.5014
  825MOL0     H11365   6.893   7.088   1.632 -0.1373  0.2949 -1.6152
  825MOL0     H11366   6.727   7.158   1.632  0.0495 -2.3009 -2.2534
  825MOL0     H11367   6.713   7.097   1.875 -0.9577 -1.9059 -0.4702
  825MOL0     H11368   6.888   7.063   1.870  0.1998  1.9305  0.6325
  825MOL0     H11369   6.866   6.873   1.761  1.3867  1.9455  1.2851
  825MOL0     H11370   6.743   6.847   1.877  3.2062 -2.2418 -0.9255
  825MOL0     H11371   6.544   6.832   1.509 -1.6033 -1.9031  1.6032
  825MOL0     H11372   7.255   7.203   1.803 -1.2297  0.4113 -0.1972
  825MOL0     H11373   7.472   7.128   1.775 -3.5190 -0.5679 -1.2110
  825MOL0     H11374   7.562   7.094   1.617  0.8308  0.9269 -0.9533
  825MOL0     H11375   7.541   7.253   1.668  1.1034 -0.9825 -3.0586
  826MOL0     O11376  11.190   6.202   2.621  0.3130 -0.5420 -0.5997
  826MOL0     C11377  11.222   6.283   2.711  0.2286 -0.1982  0.0196
  826MOL0     O11378  11.275   6.258   2.828 -0.1333  0.5320  0.2627
  826MOL0     C11379  11.317   6.131   2.843  0.5308  0.4344 -0.3608
  826MOL0     C11380  11.454   6.111   2.844  0.3664  0.3463  0.0136
  826MOL0     C11381  11.507   5.988   2.880  0.3501  0.4410 -0.9896
  826MOL0     C11382  11.417   5.880   2.918  1.0054 -0.3755  0.2988
  826MOL0     O11383  11.460   5.762   2.966 -0.0197  0.3335 -0.3701
  826MOL0     C11384  11.414   5.737   3.100  0.8098 -0.2598 -0.4478
  826MOL0     C11385  11.540   5.710   3.187  0.7426 -0.8027 -0.6181
  826MOL0     C11386  11.659   5.807   3.152  0.2647  0.7073 -0.1319
  826MOL0     C11387  11.767   5.774   3.271  0.5102 -0.4218  1.0385
  826MOL0     C11388  11.903   5.844   3.253  0.0159  0.2129 -0.6724
  826MOL0     C11389  11.992   5.838   3.380  0.2589  0.7185  0.3939
  826MOL0     C11390  12.117   5.915   3.359 -0.2367  0.2832 -0.3345
  826MOL0     C11391  12.231   5.847   3.280 -0.1832  0.1018 -0.0496
  826MOL0     N11392  12.359   5.874   3.337 -0.5419 -0.0415 -0.3985
  826MOL0     C11393  12.402   5.842   3.464 -0.6301 -0.2520  0.1088
  826MOL0     C11394  12.523   5.902   3.479 -0.0877 -0.3609 -0.5377
  826MOL0     C11395  12.605   5.883   3.609 -0.1584 -0.7272  0.6075
  826MOL0     C11396  12.757   5.837   3.599  0.7408  0.0064  0.3282
  826MOL0     C11397  12.825   5.819   3.736  0.7473  0.2364  0.8722
  826MOL0     C11398  12.945   5.721   3.702  0.7137 -0.6185  0.3151
  826MOL0     O11399  13.020   5.686   3.823 -0.2651  0.0744  0.0455
  826MOL0     C11400  13.121   5.591   3.827 -0.3192  0.7086  0.3699
  826MOL0     C11401  13.131   5.481   3.735 -0.3980  0.0649  0.1095
  826MOL0     C11402  13.224   5.379   3.758  0.3636  0.7863  0.0685
  826MOL0     C11403  13.299   5.375   3.879  0.7117  0.1244 -0.8197
  826MOL0     C11404  13.404   5.277   3.903  0.0319  0.3732  0.2232
  826MOL0     O11405  13.389   5.170   3.817  0.2904  0.0100  0.6284
  826MOL0     C11406  13.482   5.070   3.833 -0.6550  0.3756 -0.9618
  826MOL0     C11407  13.595   5.064   3.751  0.0405 -0.0078 -0.4194
  826MOL0     C11408  13.672   4.944   3.751  0.2657  0.6620  0.9539
  826MOL0     C11409  13.654   4.842   3.852 -0.4080 -0.0534  1.4436
  826MOL0     O11410  13.726   4.730   3.863 -0.6900  0.5206 -0.1741
  826MOL0     C11411  13.854   4.719   3.800 -0.7022 -0.2436 -0.7330
  826MOL0     C11412  13.919   4.591   3.835  0.1615  0.9348  0.5623
  826MOL0     C11413  14.060   4.583   3.807  0.5721 -0.9638 -0.2209
  826MOL0     C11414  14.097   4.626   3.663 -0.1145  0.1747 -0.1668
  826MOL0     C11415  14.237   4.578   3.613 -0.0237  0.6680 -0.2679
  826MOL0     C11416  14.256   4.602   3.459 -0.4610  0.1617 -0.3913
  826MOL0     C11417  14.298   4.747   3.436 -0.8121  0.8056  0.0724
  826MOL0     C11418  14.313   4.778   3.287  0.2794 -0.7290  0.2542
  826MOL0    Cl11419  14.381   4.932   3.254  0.4657 -0.1083  0.3169
  826MOL0     C11420  13.545   4.861   3.943 -0.0575  0.3291 -0.1769
  826MOL0     C11421  13.464   4.969   3.931 -0.0285  0.4566  0.5386
  826MOL0     O11422  13.493   5.291   3.976  0.1875 -0.5893 -0.2462
  826MOL0     C11423  13.280   5.476   3.971  0.8149 -0.1659 -0.3644
  826MOL0     C11424  13.204   5.590   3.944  1.0666  0.4054 -0.4205
  826MOL0     N11425  12.555   5.976   3.371 -0.1927 -0.5155 -0.5451
  826MOL0     N11426  12.453   5.958   3.290  0.4061 -0.1294 -0.0745
  826MOL0     C11427  11.281   5.905   2.907  0.4120 -0.3348  1.2494
  826MOL0     C11428  11.227   6.027   2.870 -0.6652  0.2648  0.2863
  826MOL0     C11429  11.187   6.424   2.686 -0.3142  0.2059 -0.0484
  826MOL0     C11430  11.273   6.526   2.728  0.6568 -0.0666  0.4345
  826MOL0     C11431  11.233   6.657   2.732 -1.4919  0.0542  0.3592
  826MOL0     C11432  11.115   6.688   2.673  0.0778 -0.5442 -0.9849
  826MOL0     O11433  11.057   6.812   2.674  0.1381  0.2064  0.1411
  826MOL0     C11434  11.116   6.928   2.742 -0.7174  0.4007 -0.6226
  826MOL0     C11435  11.039   7.065   2.712 -0.2234 -0.0917 -0.0292
  826MOL0     C11436  11.062   7.091   2.560  0.3247  0.6218 -0.3142
  826MOL0     C11437  11.006   7.238   2.521 -0.5224  0.8744 -0.3623
  826MOL0     C11438  10.865   7.250   2.540  0.4204  0.3632  0.3091
  826MOL0     C11439  10.747   7.265   2.564 -0.6079  0.7911  0.4564
  826MOL0     C11440  11.028   6.595   2.624  0.1657  0.1179 -0.0414
  826MOL0     C11441  11.069   6.462   2.622  0.0817  0.2024  0.8990
  826MOL0     C11442  10.962   6.371   2.552  0.4643  0.0094  0.5968
  826MOL0     H11443  11.517   6.192   2.809  3.0943 -1.2764  0.8380
  826MOL0     H11444  11.613   5.968   2.886  0.5193  1.7088  2.7929
  826MOL0     H11445  11.361   5.822   3.143 -0.0477 -0.3273 -1.3599
  826MOL0     H11446  11.342   5.655   3.096  1.9328 -1.3670  0.5636
  826MOL0     H11447  11.562   5.605   3.162  1.2245 -1.3380  1.7701
  826MOL0     H11448  11.511   5.720   3.292  0.8220 -1.2174 -0.5539
  826MOL0     H11449  11.619   5.909   3.150 -0.2964  0.4794 -1.5992
  826MOL0     H11450  11.700   5.793   3.052 -2.3416 -0.4870 -1.1094
  826MOL0     H11451  11.720   5.801   3.366 -0.6816  2.3797 -0.2509
  826MOL0     H11452  11.776   5.666   3.258  0.0352 -0.1542 -2.3335
  826MOL0     H11453  11.959   5.803   3.168  4.5773  5.0126 -0.5218
  826MOL0     H11454  11.890   5.949   3.223 -1.6557  0.0149 -0.7632
  826MOL0     H11455  11.925   5.888   3.451 -0.2442 -0.2151  0.5978
  826MOL0     H11456  12.001   5.742   3.433 -1.8661 -0.1340 -0.6820
  826MOL0     H11457  12.156   5.928   3.461 -1.0560 -2.2152  0.3708
  826MOL0     H11458  12.091   6.012   3.314  0.0430  3.3868  5.2365
  826MOL0     H11459  12.215   5.739   3.290  0.2387  0.0513  0.1286
  826MOL0     H11460  12.225   5.876   3.175 -0.2366 -0.6364 -0.2524
  826MOL0     H11461  12.353   5.768   3.526  0.9655 -1.9605 -0.5709
  826MOL0     H11462  12.610   5.987   3.641 -1.3623  0.9179 -3.7423
  826MOL0     H11463  12.563   5.822   3.689  0.2234 -1.0834  0.5464
  826MOL0     H11464  12.759   5.754   3.528 -0.7265  1.1701 -1.1664
  826MOL0     H11465  12.811   5.917   3.546  0.3220  0.4651  0.5938
  826MOL0     H11466  12.748   5.778   3.803 -2.2687 -3.0113 -3.9104
  826MOL0     H11467  12.871   5.911   3.773  0.6534  0.1550  1.1886
  826MOL0     H11468  13.007   5.770   3.627  1.0444  2.6647  2.5462
  826MOL0     H11469  12.886   5.638   3.663 -1.6267 -0.2519  2.7467
  826MOL0     H11470  13.068   5.475   3.647 -1.9638 -2.0752  1.2890
  826MOL0     H11471  13.236   5.298   3.687  1.3091  0.1223  0.9444
  826MOL0     H11472  13.607   5.148   3.683 -0.3988  0.7386  0.3947
  826MOL0     H11473  13.741   4.924   3.669 -0.8718 -1.2973  0.4182
  826MOL0     H11474  13.850   4.746   3.694  1.9998 -0.8681 -1.0784
  826MOL0     H11475  13.914   4.803   3.836 -2.5021  1.3201 -1.1818
  826MOL0     H11476  13.898   4.579   3.941  1.2928  1.2200  0.8269
  826MOL0     H11477  13.869   4.506   3.786  0.3284  0.2006  1.6457
  826MOL0     H11478  14.114   4.654   3.870  0.4620 -1.2623  0.2097
  826MOL0     H11479  14.104   4.487   3.835 -0.7702 -1.2095  1.1795
  826MOL0     H11480  14.086   4.735   3.656 -0.2563  0.0809 -1.8052
  826MOL0     H11481  14.016   4.587   3.601 -0.5261  0.5263  0.1447
  826MOL0     H11482  14.238   4.472   3.637  0.5720  0.4528 -1.1588
  826MOL0     H11483  14.320   4.618   3.672 -0.0118 -1.0090  0.9045
  826MOL0     H11484  14.331   4.535   3.416 -2.6534 -1.7794 -1.4591
  826MOL0     H11485  14.166   4.581   3.401  1.0153 -2.1421 -2.0576
  826MOL0     H11486  14.400   4.758   3.474 -1.3034  2.6944  0.9525
  826MOL0     H11487  14.240   4.822   3.490 -2.0534 -1.2586  1.7690
  826MOL0     H11488  14.373   4.698   3.243 -0.1497 -0.4310 -0.9252
  826MOL0     H11489  14.215   4.769   3.239 -0.5092 -2.3849  2.0419
  826MOL0     H11490  13.525   4.788   4.021  0.4485 -0.9437 -1.2191
  826MOL0     H11491  13.374   4.969   3.992  0.5759 -1.9136  1.5630
  826MOL0     H11492  13.333   5.471   4.065 -0.6316 -2.3500  0.4302
  826MOL0     H11493  13.182   5.677   4.004 -0.7818 -0.3456  0.0558
  826MOL0     H11494  11.213   5.823   2.929  2.1998 -1.3344  3.4117
  826MOL0     H11495  11.121   6.043   2.884 -0.6037  1.3963 -0.4022
  826MOL0     H11496  11.367   6.487   2.767 -0.5580 -1.5280  2.1146
  826MOL0     H11497  11.306   6.731   2.765  2.2187 -0.6696 -4.9352
  826MOL0     H11498  11.225   6.929   2.739 -0.6966 -0.3121 -0.3661
  826MOL0     H11499  11.095   6.918   2.849 -1.5141 -0.2754 -0.8327
  826MOL0     H11500  11.094   7.146   2.760  0.1477 -1.4836  2.0016
  826MOL0     H11501  10.934   7.074   2.739 -0.0279  0.4377  0.5797
  826MOL0     H11502  11.008   7.015   2.503  2.9255 -0.9119 -0.8568
  826MOL0     H11503  11.166   7.074   2.534  0.6194 -0.9945  1.6588
  826MOL0     H11504  11.056   7.322   2.570 -0.2383  0.2509  0.4517
  826MOL0     H11505  11.034   7.245   2.415  1.0436 -0.1164 -0.0627
  826MOL0     H11506  10.644   7.290   2.579 -0.7457  0.2646  0.3976
  826MOL0     H11507  10.934   6.631   2.583 -0.2813  0.0809  0.9360
  826MOL0     H11508  10.870   6.421   2.521 -0.3514 -0.3260  2.3253
  826MOL0     H11509  10.998   6.318   2.463 -0.3417 -2.1211  1.4651
  826MOL0     H11510  10.936   6.301   2.632  0.3243  1.7248  2.1169
  827MOL0     O11511   9.816   8.518  10.178  0.5411 -0.6720 -0.7300
  827MOL0     C11512   9.769   8.629  10.200 -0.4440 -0.1319 -0.4561
  827MOL0     O11513   9.839   8.724  10.283 -0.1056 -0.6604  0.0675
  827MOL0     C11514   9.973   8.716  10.291 -0.8040  1.0774  0.6474
  827MOL0     C11515  10.030   8.673  10.410  0.3068  0.5933 -0.4252
  827MOL0     C11516  10.168   8.686  10.432  0.4306 -0.3303  0.4931
  827MOL0     C11517  10.256   8.756  10.353 -0.1857 -0.0855  0.5880
  827MOL0     O11518  10.398   8.767  10.371 -0.8580 -0.0492  0.1738
  827MOL0     C11519  10.460   8.675  10.456  0.0870  0.3121 -0.4296
  827MOL0     C11520  10.615   8.662  10.462  0.9761  0.6279 -0.3894
  827MOL0     C11521  10.686   8.799  10.474  0.7161  0.5519  0.1026
  827MOL0     C11522  10.819   8.784  10.407  0.6060 -0.5166 -0.1010
  827MOL0     C11523  10.899   8.907  10.448 -0.8947  0.5012  0.1524
  827MOL0     C11524  11.031   8.935  10.386 -0.1923 -0.4374 -1.0450
  827MOL0     C11525  11.103   8.812  10.346  0.4160 -0.4351  0.6465
  827MOL0     C11526  11.241   8.824  10.391 -0.0736  0.0172 -0.5071
  827MOL0     N11527  11.307   8.948  10.345  0.4221  0.4736 -0.3864
  827MOL0     C11528  11.353   8.986  10.224 -0.6097  0.5538 -0.0121
  827MOL0     C11529  11.454   9.083  10.255  0.8868 -0.5162  0.1241
  827MOL0     C11530  11.520   9.151  10.144 -0.0151 -0.4177  0.3545
  827MOL0     C11531  11.569   9.063  10.034 -0.1353  0.2844  0.6281
  827MOL0     C11532  11.685   8.966  10.072  0.1648  0.4890 -0.5684
  827MOL0     C11533  11.688   8.834   9.993  0.6687  1.0535  0.9516
  827MOL0     O11534  11.791   8.759  10.053  0.2483  0.3763 -0.1475
  827MOL0     C11535  11.782   8.628  10.012 -0.1244  0.1373  0.1348
  827MOL0     C11536  11.868   8.539  10.075 -0.7180  0.4344 -0.8326
  827MOL0     C11537  11.875   8.401  10.045 -0.1629  0.5810  0.4661
  827MOL0     C11538  11.783   8.340   9.960 -0.0460  0.3886  0.0032
  827MOL0     C11539  11.787   8.188   9.920 -0.3742 -0.4458  0.3029
  827MOL0     O11540  11.888   8.109   9.972  0.3113 -0.3208 -0.4208
  827MOL0     C11541  11.898   7.977   9.930  0.0277 -0.8062 -0.1900
  827MOL0     C11542  11.786   7.884   9.940 -0.1474  0.2552  0.9894
  827MOL0     C11543  11.811   7.748   9.900  0.3448 -0.1809  0.0753
  827MOL0     C11544  11.936   7.707   9.852 -0.8083  0.8887 -0.7436
  827MOL0     O11545  11.942   7.576   9.812 -0.0070  0.7169  0.1601
  827MOL0     C11546  12.014   7.557   9.685  0.6470 -0.2252 -1.0424
  827MOL0     C11547  12.004   7.408   9.651  0.7426  0.6957  0.2640
  827MOL0     C11548  12.098   7.318   9.747  0.4742 -0.9061  0.0880
  827MOL0     C11549  12.041   7.303   9.889  0.5297  0.0115  1.0912
  827MOL0     C11550  12.099   7.170   9.947 -0.0923 -0.9156 -0.3997
  827MOL0     C11551  12.147   7.190  10.094 -0.0320 -0.8802 -0.1490
  827MOL0     C11552  12.183   7.061  10.169  1.0208 -0.3747 -0.5781
  827MOL0     C11553  12.073   6.947  10.161 -0.7135 -0.4700  0.3011
  827MOL0    Cl11554  11.920   7.015  10.244 -0.3788 -0.6718 -0.1174
  827MOL0     C11555  12.034   7.806   9.838 -0.0473 -0.6188 -0.2254
  827MOL0     C11556  12.015   7.938   9.879 -0.1240 -0.9545 -0.2881
  827MOL0     O11557  11.707   8.144   9.843  0.3236 -0.3119  0.1042
  827MOL0     C11558  11.697   8.429   9.900  0.0612  0.7180 -0.1324
  827MOL0     C11559  11.691   8.566   9.921  0.7779  0.4303  0.6292
  827MOL0     N11560  11.463   9.099  10.389  1.1714 -0.1490  0.1682
  827MOL0     N11561  11.369   9.027  10.434 -0.1070 -0.7386 -0.3819
  827MOL0     C11562  10.201   8.792  10.232  0.3108  0.7557 -0.2077
  827MOL0     C11563  10.066   8.771  10.201  0.3658 -0.0999 -0.1023
  827MOL0     C11564   9.640   8.673  10.141 -0.5237  1.1656  0.3077
  827MOL0     C11565   9.603   8.606  10.021  0.7924 -0.2074  0.3967
  827MOL0     C11566   9.473   8.625   9.975 -0.7094  1.0691 -0.1318
  827MOL0     C11567   9.389   8.717  10.042 -0.7198 -0.5124 -0.5986
  827MOL0     O11568   9.270   8.756   9.989  0.0876 -0.0967  0.4104
  827MOL0     C11569   9.201   8.673   9.896  0.1952 -0.6900  0.0649
  827MOL0     C11570   9.063   8.724   9.872  0.6709  0.5584 -0.0099
  827MOL0     C11571   8.966   8.647   9.794 -0.3297  0.2596  0.5261
  827MOL0     C11572   8.987   8.489   9.779 -0.1607 -0.1069  0.0917
  827MOL0     C11573   9.079   8.452   9.673 -0.0088 -0.3431 -0.2668
  827MOL0     C11574   9.145   8.410   9.579 -0.0836  0.0651 -0.8070
  827MOL0     C11575   9.424   8.764  10.155  1.1821 -0.0014  0.0512
  827MOL0     C11576   9.546   8.746  10.207 -0.3589 -0.0109 -0.7000
  827MOL0     C11577   9.582   8.820  10.334 -0.3813 -0.5432 -0.0408
  827MOL0     H11578   9.959   8.634  10.481  0.4717 -1.5483 -1.3708
  827MOL0     H11579  10.207   8.647  10.525  1.2191  0.6532  0.5995
  827MOL0     H11580  10.425   8.707  10.555  0.2386  0.9366 -0.5727
  827MOL0     H11581  10.417   8.577  10.434  1.7045 -0.4455 -0.3169
  827MOL0     H11582  10.643   8.597  10.378  2.2130 -0.0820  0.5419
  827MOL0     H11583  10.634   8.613  10.558  2.2597  3.3443  0.8568
  827MOL0     H11584  10.692   8.831  10.578 -0.8632  5.7931 -1.1283
  827MOL0     H11585  10.619   8.871  10.424 -0.9079 -0.8806  0.1090
  827MOL0     H11586  10.859   8.685  10.429 -1.0286 -1.5644 -1.5706
  827MOL0     H11587  10.803   8.790  10.299 -0.2644 -0.5385  0.0208
  827MOL0     H11588  10.832   8.993  10.451 -3.0970 -1.1254  0.4136
  827MOL0     H11589  10.932   8.883  10.550  0.3305 -1.5629 -0.6574
  827MOL0     H11590  11.029   9.006  10.302 -0.0742  0.4848 -0.2887
  827MOL0     H11591  11.086   8.981  10.468 -0.8102 -4.2518  1.7561
  827MOL0     H11592  11.084   8.805  10.238  0.1701  0.6085  0.6116
  827MOL0     H11593  11.069   8.728  10.406  0.6105 -0.1338  1.1794
  827MOL0     H11594  11.246   8.829  10.500  3.8727  3.4937 -0.5838
  827MOL0     H11595  11.309   8.745  10.360  1.3985  0.5235  1.2489
  827MOL0     H11596  11.325   8.940  10.130  1.8198  1.3730 -1.2297
  827MOL0     H11597  11.451   9.225  10.103 -0.4538 -1.3372 -0.6104
  827MOL0     H11598  11.616   9.192  10.177  1.2230 -1.5739 -1.5692
  827MOL0     H11599  11.494   9.003   9.981  1.3056  0.6789 -2.0004
  827MOL0     H11600  11.621   9.133   9.968  1.7641 -1.0435  0.6312
  827MOL0     H11601  11.691   8.933  10.176  0.4097 -1.6180 -1.2053
  827MOL0     H11602  11.778   9.009  10.035 -1.7350  1.6127 -4.6352
  827MOL0     H11603  11.709   8.849   9.886 -1.5068 -1.3762  0.0874
  827MOL0     H11604  11.594   8.779  10.002  1.9891 -1.8792 -1.4010
  827MOL0     H11605  11.940   8.581  10.145 -1.4428 -2.4998  1.9091
  827MOL0     H11606  11.950   8.335  10.088  0.8957 -0.2191 -2.3616
  827MOL0     H11607  11.685   7.917   9.960 -0.4582 -0.8984  1.4284
  827MOL0     H11608  11.729   7.678   9.913  0.5757 -0.1991  1.6735
  827MOL0     H11609  11.967   7.629   9.617  1.1898  0.4353 -0.7272
  827MOL0     H11610  12.117   7.594   9.694 -0.8129  3.9426  1.6089
  827MOL0     H11611  11.900   7.375   9.648  0.6613  0.9100  0.6390
  827MOL0     H11612  12.033   7.395   9.547 -2.2711  1.8263 -0.8033
  827MOL0     H11613  12.105   7.218   9.704 -0.6837 -1.0004  0.0912
  827MOL0     H11614  12.204   7.346   9.743  1.0080 -2.8886 -2.1542
  827MOL0     H11615  11.933   7.313   9.874  0.5089 -1.7036 -0.1405
  827MOL0     H11616  12.079   7.391   9.942 -0.3980  1.2253 -0.1492
  827MOL0     H11617  12.176   7.123   9.884  0.9508  0.5410 -0.2457
  827MOL0     H11618  12.015   7.099   9.949  1.0355 -2.4126 -2.5751
  827MOL0     H11619  12.237   7.251  10.101  0.8148 -2.1528  0.3699
  827MOL0     H11620  12.073   7.227  10.166 -1.1746 -2.1361 -0.6256
  827MOL0     H11621  12.171   7.090  10.274 -0.3284  0.7346 -1.0008
  827MOL0     H11622  12.284   7.030  10.144  1.2415  0.9420 -1.4304
  827MOL0     H11623  12.060   6.913  10.058  2.6718  1.5011 -0.9482
  827MOL0     H11624  12.118   6.867  10.222  0.7587 -2.8416 -3.5322
  827MOL0     H11625  12.129   7.783   9.791 -0.0636  1.4394 -1.3818
  827MOL0     H11626  12.095   8.009   9.861  1.1046 -1.9057  1.2483
  827MOL0     H11627  11.633   8.376   9.830 -0.3494  0.7430  0.2253
  827MOL0     H11628  11.607   8.619   9.876  0.1855 -0.1946  0.9733
  827MOL0     H11629  10.259   8.847  10.159  0.7966 -0.6031 -0.8832
  827MOL0     H11630  10.027   8.789  10.102 -1.9447  1.0933  0.9572
  827MOL0     H11631   9.675   8.535   9.981  0.8768 -1.7524  3.0448
  827MOL0     H11632   9.446   8.584   9.878 -0.8375 -0.2277  0.4311
  827MOL0     H11633   9.197   8.568   9.924 -0.9411 -1.0616 -1.3662
  827MOL0     H11634   9.260   8.694   9.806  0.3740  3.4625  0.9534
  827MOL0     H11635   9.077   8.816   9.815  2.8193 -0.0568 -0.5647
  827MOL0     H11636   9.012   8.744   9.967 -0.5187 -0.0139 -0.5196
  827MOL0     H11637   8.946   8.694   9.697  0.8159 -2.2110 -1.0359
  827MOL0     H11638   8.877   8.655   9.857  0.2845 -0.4602  1.5201
  827MOL0     H11639   9.011   8.436   9.872 -0.6555 -0.0785  0.2394
  827MOL0     H11640   8.891   8.447   9.749 -1.3355  1.5764  1.2877
  827MOL0     H11641   9.214   8.375   9.504  1.0377  3.5232 -1.5625
  827MOL0     H11642   9.361   8.829  10.213  0.4300 -0.5650 -0.1184
  827MOL0     H11643   9.604   8.766  10.426 -2.6524 -0.4033  0.6466
  827MOL0     H11644   9.671   8.879  10.312 -0.5800 -0.5013 -0.7463
  827MOL0     H11645   9.504   8.892  10.359  0.5112  0.6466 -0.6098
  828MOL0     O11646   9.810  11.245   0.875  0.2924  0.0039 -0.7420
  828MOL0     C11647   9.770  11.313   0.971  0.3303  0.3515  0.4780
  828MOL0     O11648   9.842  11.368   1.066 -0.1037 -0.0008 -0.6941
  828MOL0     C11649   9.974  11.383   1.034 -0.2950  0.0988 -0.1721
  828MOL0     C11650  10.022  11.492   0.958  0.6067 -0.0918 -0.8087
  828MOL0     C11651  10.153  11.489   0.916 -0.6561 -0.1222  1.1138
  828MOL0     C11652  10.240  11.383   0.962 -0.6834  0.0183  0.0743
  828MOL0     O11653  10.371  11.376   0.935  0.2585  0.5415  0.1108
  828MOL0     C11654  10.437  11.492   0.878 -0.3833 -0.0545 -0.4608
  828MOL0     C11655  10.589  11.476   0.871 -0.4379  0.3308 -0.8364
  828MOL0     C11656  10.651  11.443   1.002 -0.6225  0.4782  0.0240
  828MOL0     C11657  10.810  11.435   0.996  0.5650 -0.0083 -0.5121
  828MOL0     C11658  10.865  11.450   1.145  0.2865  0.1025  0.8736
  828MOL0     C11659  11.017  11.448   1.136 -0.0660  1.5817 -0.9330
  828MOL0     C11660  11.084  11.427   1.272 -0.5559  0.4520  0.0039
  828MOL0     C11661  11.170  11.297   1.266  0.2824  0.1202 -0.6184
  828MOL0     N11662  11.217  11.261   1.404  0.0466 -0.5211 -0.0061
  828MOL0     C11663  11.140  11.220   1.520  0.5162  0.0163 -0.4162
  828MOL0     C11664  11.225  11.181   1.612 -0.2468  0.1479 -0.2322
  828MOL0     C11665  11.193  11.130   1.750 -0.9627 -0.4532  0.9415
  828MOL0     C11666  11.175  11.254   1.843 -0.0908 -0.7933 -1.5441
  828MOL0     C11667  11.148  11.204   1.986  0.4175 -0.4597  0.6672
  828MOL0     C11668  11.117  11.323   2.083  0.5684 -0.8182  0.3136
  828MOL0     O11669  11.121  11.265   2.221 -0.0676 -0.3629  0.3969
  828MOL0     C11670  11.062  11.342   2.320  0.1906  0.5250  1.0521
  828MOL0     C11671  11.045  11.477   2.315 -1.3972 -0.5878  0.1477
  828MOL0     C11672  11.013  11.550   2.439  0.0469  0.6966  0.1673
  828MOL0     C11673  10.992  11.480   2.559 -0.3624  0.0770  0.6180
  828MOL0     C11674  10.935  11.552   2.679  0.0902 -0.2955 -0.0525
  828MOL0     O11675  10.932  11.485   2.787  0.7278  0.2624 -0.0484
  828MOL0     C11676  10.870  11.527   2.900  0.1743 -0.6601 -0.5535
  828MOL0     C11677  10.759  11.463   2.949 -0.1474  0.4399  0.4051
  828MOL0     C11678  10.688  11.510   3.062 -0.3558  0.3857 -0.0314
  828MOL0     C11679  10.739  11.605   3.145 -0.9109 -0.6890  0.6247
  828MOL0     O11680  10.663  11.636   3.250  0.1043  0.6797 -0.2911
  828MOL0     C11681  10.724  11.705   3.354  0.2174 -0.2055 -0.4964
  828MOL0     C11682  10.647  11.689   3.491  0.0649  1.2126 -0.6952
  828MOL0     C11683  10.529  11.797   3.505 -0.9699 -1.1115 -0.0013
  828MOL0     C11684  10.460  11.769   3.643  0.1688 -0.1528  0.6816
  828MOL0     C11685  10.345  11.863   3.666  0.2668 -0.5319  0.1970
  828MOL0     C11686  10.238  11.816   3.772  0.2831 -0.0878  0.7308
  828MOL0     C11687  10.313  11.807   3.911 -0.3214  0.1434  0.7098
  828MOL0     C11688  10.220  11.840   4.026 -0.3554  0.4733  0.0751
  828MOL0    Cl11689  10.115  11.699   4.069  0.2243  0.1950  0.4960
  828MOL0     C11690  10.845  11.680   3.089 -0.4169 -0.2182  0.6457
  828MOL0     C11691  10.914  11.643   2.971  0.5905  0.3554  0.9241
  828MOL0     O11692  10.889  11.668   2.667 -0.0498  0.4260  0.1196
  828MOL0     C11693  10.995  11.336   2.554  0.4250  0.6870  0.5269
  828MOL0     C11694  11.040  11.275   2.439  0.1119  0.2480 -0.3917
  828MOL0     N11695  11.352  11.194   1.555  0.1099 -0.2898 -0.3086
  828MOL0     N11696  11.344  11.238   1.429  0.3147 -0.5209 -0.4990
  828MOL0     C11697  10.186  11.277   1.040 -0.6883 -0.6840  0.3298
  828MOL0     C11698  10.055  11.283   1.075 -0.4221 -0.8949 -0.4102
  828MOL0     C11699   9.616  11.336   0.965  0.2850 -0.5693  0.0538
  828MOL0     C11700   9.580  11.464   1.018 -0.6709  0.5236  0.2352
  828MOL0     C11701   9.445  11.505   1.012 -0.7865  0.1188 -0.4865
  828MOL0     C11702   9.346  11.432   0.949  0.1239 -0.2168 -0.3772
  828MOL0     O11703   9.219  11.483   0.946  0.2898  2.1521  0.6198
  828MOL0     C11704   9.115  11.383   0.906  0.6155 -0.1528  0.0487
  828MOL0     C11705   8.991  11.458   0.876  0.2035  1.1047  0.4486
  828MOL0     C11706   8.905  11.375   0.770  0.0973 -0.2963 -0.6905
  828MOL0     C11707   8.760  11.431   0.787  0.3197  0.7195 -0.0259
  828MOL0     C11708   8.675  11.368   0.683 -0.1164 -1.1457  1.2105
  828MOL0     C11709   8.591  11.330   0.606  0.4469  0.2363  0.3601
  828MOL0     C11710   9.387  11.313   0.889  0.3624 -0.1390 -0.7938
  828MOL0     C11711   9.521  11.263   0.903  0.6844  0.6811  0.7930
  828MOL0     C11712   9.528  11.126   0.840  0.9581  0.2337 -0.0319
  828MOL0     H11713   9.953  11.570   0.926  0.3038 -0.5833 -1.3595
  828MOL0     H11714  10.176  11.573   0.852  1.3633 -0.8995  0.7302
  828MOL0     H11715  10.405  11.523   0.777  2.1322  0.1486 -1.2802
  828MOL0     H11716  10.427  11.581   0.940 -1.7690 -2.7864  3.5938
  828MOL0     H11717  10.631  11.567   0.828  3.3994 -1.8710 -2.1686
  828MOL0     H11718  10.599  11.390   0.804  0.0137  1.3180 -2.0760
  828MOL0     H11719  10.604  11.349   1.033 -0.7766 -0.0261 -1.5938
  828MOL0     H11720  10.633  11.525   1.071 -2.4644 -0.9867  1.3944
  828MOL0     H11721  10.846  11.343   0.950  1.1090  0.1960 -0.5056
  828MOL0     H11722  10.847  11.524   0.944  1.1745  1.2146  1.8723
  828MOL0     H11723  10.833  11.546   1.186 -0.2720  0.8808 -1.2505
  828MOL0     H11724  10.828  11.368   1.207  0.1855  0.5489  1.4068
  828MOL0     H11725  11.038  11.361   1.072  2.0602  1.0405  0.3928
  828MOL0     H11726  11.050  11.540   1.088  0.6776  0.7319 -2.1238
  828MOL0     H11727  11.018  11.425   1.359  0.1799 -0.3705  0.5597
  828MOL0     H11728  11.152  11.511   1.287  0.3311 -0.0317 -1.1306
  828MOL0     H11729  11.120  11.212   1.218 -0.2965 -0.4927  1.0249
  828MOL0     H11730  11.260  11.309   1.205  1.9835 -0.2845  1.6872
  828MOL0     H11731  11.031  11.215   1.518  0.5152 -1.3590  0.9500
  828MOL0     H11732  11.100  11.075   1.739 -0.7442 -0.7000  0.2309
  828MOL0     H11733  11.273  11.062   1.781  0.5654  2.0010  2.7778
  828MOL0     H11734  11.263  11.319   1.838 -0.7346  0.3077  0.2978
  828MOL0     H11735  11.095  11.323   1.812  1.4721  2.3806  0.9634
  828MOL0     H11736  11.231  11.154   2.038 -0.5744 -0.8639  1.9212
  828MOL0     H11737  11.066  11.132   1.980 -1.9132  2.1557 -2.5727
  828MOL0     H11738  11.019  11.370   2.068 -0.5143 -3.2912 -1.0598
  828MOL0     H11739  11.191  11.401   2.063  0.0071 -0.4992 -0.6249
  828MOL0     H11740  11.062  11.525   2.219  0.9616 -0.9881  0.3042
  828MOL0     H11741  10.996  11.656   2.429 -0.7086  0.6894  1.2606
  828MOL0     H11742  10.717  11.373   2.905  0.6524  1.0837 -1.7613
  828MOL0     H11743  10.598  11.465   3.103 -2.6305  2.5229 -2.2684
  828MOL0     H11744  10.825  11.673   3.382  0.2383  1.6905  1.9521
  828MOL0     H11745  10.721  11.812   3.333  2.6472  0.1668  0.6642
  828MOL0     H11746  10.612  11.586   3.491  0.2035  1.1357  0.8639
  828MOL0     H11747  10.729  11.705   3.562  2.6959  0.7926 -3.4210
  828MOL0     H11748  10.575  11.896   3.514 -4.4966  0.6741  0.2258
  828MOL0     H11749  10.463  11.798   3.417  1.2746  1.8807 -1.8685
  828MOL0     H11750  10.538  11.769   3.719  0.6150 -1.7260  0.2631
  828MOL0     H11751  10.424  11.667   3.635 -2.2813  0.7485 -1.2042
  828MOL0     H11752  10.291  11.872   3.571 -2.9375  3.3626  2.1297
  828MOL0     H11753  10.382  11.965   3.680  3.1897 -1.4670  0.1451
  828MOL0     H11754  10.171  11.901   3.777  1.9329  1.1882  2.8404
  828MOL0     H11755  10.189  11.727   3.732 -2.4250  1.4353  0.4496
  828MOL0     H11756  10.401  11.872   3.912  0.0754 -0.3842  1.9647
  828MOL0     H11757  10.351  11.705   3.919  1.3050  0.5532 -1.0272
  828MOL0     H11758  10.293  11.860   4.105  1.8923  0.7936 -1.9229
  828MOL0     H11759  10.159  11.927   4.002 -0.0441  0.8821  0.7481
  828MOL0     H11760  10.875  11.779   3.120  0.0550  1.0289 -3.3021
  828MOL0     H11761  10.978  11.723   2.933  2.4059 -1.0953  0.8025
  828MOL0     H11762  10.992  11.282   2.648  0.7839 -1.6903 -0.7486
  828MOL0     H11763  11.050  11.168   2.431  0.5734  0.3275 -0.8567
  828MOL0     H11764  10.256  11.216   1.096  0.0742 -0.3014 -0.1930
  828MOL0     H11765  10.022  11.197   1.133 -1.1129 -2.0048 -2.3593
  828MOL0     H11766   9.651  11.535   1.060  0.2305  0.9294 -1.8110
  828MOL0     H11767   9.425  11.592   1.073  2.8945  0.3415  0.6709
  828MOL0     H11768   9.093  11.316   0.990  0.7093  1.2540  1.2370
  828MOL0     H11769   9.131  11.325   0.815  1.6247 -1.4513  1.0024
  828MOL0     H11770   9.017  11.559   0.843 -0.2205  0.5747 -1.5837
  828MOL0     H11771   8.939  11.462   0.973  2.3460 -0.7624  1.7695
  828MOL0     H11772   8.900  11.266   0.778 -2.2118 -0.2556 -0.8282
  828MOL0     H11773   8.929  11.415   0.671 -3.2799  3.2657 -0.3182
  828MOL0     H11774   8.718  11.422   0.888  0.4431 -0.8908 -0.1017
  828MOL0     H11775   8.759  11.539   0.768 -0.1799  0.8224  0.5218
  828MOL0     H11776   8.503  11.315   0.547 -0.5446  2.6330  1.1050
  828MOL0     H11777   9.321  11.252   0.828 -3.0470  0.9622  1.4920
  828MOL0     H11778   9.450  11.061   0.880 -1.4711  2.3000 -1.1118
  828MOL0     H11779   9.497  11.135   0.735  2.8265 -1.8311 -0.8380
  828MOL0     H11780   9.630  11.089   0.852  0.2543 -1.2875  1.6582
  829MOL0     O11781   7.389   8.280   9.750  0.0016 -0.8196 -0.5938
  829MOL0     C11782   7.301   8.201   9.786  0.3753  0.5985  0.2039
  829MOL0     O11783   7.333   8.078   9.845 -0.1050 -0.2452  0.0302
  829MOL0     C11784   7.451   8.045   9.893  0.1837 -0.4039 -0.5798
  829MOL0     C11785   7.510   7.926   9.861  0.6340 -0.2737 -0.8037
  829MOL0     C11786   7.646   7.913   9.894 -1.2413  0.3376 -0.0533
  829MOL0     C11787   7.715   8.001   9.972 -0.2848 -0.7113  0.2659
  829MOL0     O11788   7.858   7.993   9.978 -0.3026 -0.0735 -0.3103
  829MOL0     C11789   7.915   8.047  10.102  0.1209 -0.7510 -0.0245
  829MOL0     C11790   8.056   8.017  10.127  0.1109  0.0978 -0.4077
  829MOL0     C11791   8.150   8.079  10.023  0.0130 -0.1880  0.1119
  829MOL0     C11792   8.298   8.047  10.052  0.4230  0.3397 -0.3737
  829MOL0     C11793   8.388   8.140   9.972  0.1754 -0.6724 -0.0836
  829MOL0     C11794   8.543   8.107   9.989  0.2471  0.1841 -0.2293
  829MOL0     C11795   8.629   8.221   9.934  0.0658  0.2387  0.1262
  829MOL0     C11796   8.775   8.197   9.938 -0.7648  0.6111 -0.4910
  829MOL0     N11797   8.811   8.111   9.829 -1.1474 -0.1338 -0.4121
  829MOL0     C11798   8.827   8.132   9.696  0.2213 -0.5262  0.1120
  829MOL0     C11799   8.869   8.013   9.649  0.5327  0.6237  0.2906
  829MOL0     C11800   8.901   7.962   9.515 -0.3214  0.2296  0.9176
  829MOL0     C11801   9.036   8.013   9.468 -0.4958 -0.5503  0.3067
  829MOL0     C11802   9.149   7.974   9.568  0.7679  0.6067  0.4768
  829MOL0     C11803   9.284   8.018   9.510  0.3629 -0.0886 -0.1602
  829MOL0     O11804   9.393   7.991   9.596  0.1834 -0.1070  0.2529
  829MOL0     C11805   9.405   8.036   9.736 -0.2055  0.6131 -0.3040
  829MOL0     C11806   9.361   8.163   9.782 -0.7475  0.0369 -0.5188
  829MOL0     C11807   9.396   8.210   9.913 -0.0425 -0.4556 -0.1204
  829MOL0     C11808   9.472   8.130  10.001  0.3184 -0.4214  0.4062
  829MOL0     C11809   9.508   8.170  10.137 -0.3962  0.2621 -0.1720
  829MOL0     O11810   9.571   8.079  10.221 -0.0602 -0.5083  0.3388
  829MOL0     C11811   9.607   8.115  10.346 -0.7996 -0.4844 -0.9321
  829MOL0     C11812   9.696   8.219  10.378  0.1364  0.1639 -0.4466
  829MOL0     C11813   9.732   8.250  10.507  0.9447 -0.3029  0.5247
  829MOL0     C11814   9.674   8.179  10.618  0.0623 -0.1306 -0.0476
  829MOL0     O11815   9.707   8.206  10.753 -0.7025  0.4866  0.4736
  829MOL0     C11816   9.807   8.295  10.774 -0.0751 -0.2815  0.1850
  829MOL0     C11817   9.736   8.434  10.758 -1.0208  0.3369  0.4096
  829MOL0     C11818   9.839   8.545  10.804 -0.3464  0.8409 -0.0258
  829MOL0     C11819   9.773   8.677  10.775  0.2114 -0.7398 -0.0552
  829MOL0     C11820   9.855   8.799  10.840  0.2172 -0.1575  0.1707
  829MOL0     C11821   9.998   8.812  10.817 -0.4082  0.1118 -0.7251
  829MOL0     C11822  10.048   8.955  10.814 -0.7118 -0.2648  0.1554
  829MOL0     C11823  10.171   8.966  10.713  0.6165 -0.2999  0.0476
  829MOL0    Cl11824  10.320   8.894  10.759 -0.1096 -0.3450  0.0606
  829MOL0     C11825   9.582   8.079  10.588  0.1597  0.2351 -0.6049
  829MOL0     C11826   9.551   8.042  10.455 -0.3759 -0.8721 -0.0173
  829MOL0     O11827   9.468   8.280  10.169 -0.2748  0.6663 -0.5318
  829MOL0     C11828   9.509   7.999   9.955  0.2242 -0.2432 -0.0131
  829MOL0     C11829   9.480   7.955   9.826  0.1568  0.1314 -0.5310
  829MOL0     N11830   8.894   7.925   9.761  0.7795 -0.3920  0.0569
  829MOL0     N11831   8.833   7.982   9.865 -0.6030  0.1909 -0.3334
  829MOL0     C11832   7.643   8.107  10.031  0.1148 -0.4502 -0.3405
  829MOL0     C11833   7.510   8.131   9.995  0.2494  0.1728  0.3614
  829MOL0     C11834   7.160   8.224   9.750  0.2417 -0.5736 -0.6836
  829MOL0     C11835   7.068   8.108   9.731 -0.0153 -0.6415  0.2621
  829MOL0     C11836   6.940   8.127   9.692  0.5803  1.4138  0.8052
  829MOL0     C11837   6.887   8.248   9.671 -0.1492 -0.5743 -0.1209
  829MOL0     O11838   6.749   8.253   9.653 -0.5058 -0.6314  0.4327
  829MOL0     C11839   6.707   8.358   9.559 -0.4389 -0.0037 -0.3079
  829MOL0     C11840   6.552   8.336   9.522 -0.5204 -0.5941 -0.3695
  829MOL0     C11841   6.512   8.202   9.443 -0.2238 -0.1312  0.4885
  829MOL0     C11842   6.552   8.071   9.528 -0.3750  0.5338  0.2450
  829MOL0     C11843   6.514   8.095   9.667  0.6127  0.5491  0.0088
  829MOL0     C11844   6.471   8.086   9.781  0.3688  0.6987  0.1552
  829MOL0     C11845   6.970   8.367   9.677  0.2451 -0.7960 -0.2340
  829MOL0     C11846   7.098   8.356   9.725 -0.5072 -0.1208  0.7811
  829MOL0     C11847   7.161   8.481   9.772  0.2120 -0.1653 -0.0243
  829MOL0     H11848   7.460   7.870   9.782  1.7621 -0.1551 -1.6304
  829MOL0     H11849   7.702   7.828   9.855 -0.1981  0.5196  0.9918
  829MOL0     H11850   7.906   8.154  10.082  0.6686 -0.3749  1.5864
  829MOL0     H11851   7.850   8.029  10.188 -0.8212 -1.2698 -0.8163
  829MOL0     H11852   8.064   7.909  10.115 -0.5304 -0.1297  1.0255
  829MOL0     H11853   8.091   8.042  10.228  1.0363  1.6792 -1.0733
  829MOL0     H11854   8.142   8.188  10.019  4.3015  0.3716  1.4304
  829MOL0     H11855   8.117   8.038   9.927 -0.6539  2.3655 -0.8472
  829MOL0     H11856   8.321   8.059  10.158 -1.4888 -0.5518  0.1853
  829MOL0     H11857   8.311   7.941  10.027 -0.5323 -0.2212  1.3440
  829MOL0     H11858   8.373   8.147   9.864  3.0969  0.3630 -0.5297
  829MOL0     H11859   8.370   8.241  10.009 -1.7012 -0.6520 -0.9838
  829MOL0     H11860   8.573   8.087  10.092 -0.4610 -0.1911 -0.0878
  829MOL0     H11861   8.575   8.018   9.933 -0.8926  0.0541 -0.7082
  829MOL0     H11862   8.592   8.314   9.979 -1.3604  1.5216 -3.3340
  829MOL0     H11863   8.598   8.237   9.830  0.7814  0.0293 -0.1301
  829MOL0     H11864   8.843   8.282   9.932  3.6899 -2.7006 -2.5750
  829MOL0     H11865   8.793   8.142  10.031 -0.5557  0.7962 -0.4217
  829MOL0     H11866   8.802   8.219   9.637 -4.6710 -2.0817 -0.5662
  829MOL0     H11867   8.897   7.853   9.521  1.2835 -0.1918 -2.7436
  829MOL0     H11868   8.820   7.986   9.445  0.2089  0.9315  0.5266
  829MOL0     H11869   9.062   7.978   9.368  2.6699 -1.0093  1.1959
  829MOL0     H11870   9.027   8.122   9.459  0.4163 -0.1847  2.9263
  829MOL0     H11871   9.150   7.870   9.601 -0.5595  1.3221  3.0260
  829MOL0     H11872   9.127   8.034   9.657 -1.2561 -0.5607  0.8268
  829MOL0     H11873   9.282   8.122   9.476  2.1639  0.7654  2.1544
  829MOL0     H11874   9.309   7.960   9.421 -0.9791  0.2545 -0.7984
  829MOL0     H11875   9.302   8.230   9.720 -0.2991 -1.0640 -2.1742
  829MOL0     H11876   9.368   8.305   9.956 -3.4233 -1.5300  0.3823
  829MOL0     H11877   9.731   8.287  10.302  0.8898  3.3802  2.5160
  829MOL0     H11878   9.799   8.335  10.518 -2.1026  2.5823 -1.1127
  829MOL0     H11879   9.838   8.278  10.878 -0.6827  0.6152  0.5166
  829MOL0     H11880   9.901   8.290  10.719 -0.1425  1.5799 -0.1329
  829MOL0     H11881   9.705   8.456  10.655  2.1228  0.4373 -0.6281
  829MOL0     H11882   9.653   8.438  10.829 -1.1713 -0.0133  0.2554
  829MOL0     H11883   9.857   8.533  10.911 -0.6114  1.9751  0.1639
  829MOL0     H11884   9.935   8.554  10.752 -0.2612  5.3398  0.5071
  829MOL0     H11885   9.677   8.693  10.825  1.1101  1.9725  0.9770
  829MOL0     H11886   9.747   8.697  10.671 -1.8164  0.4874  0.6194
  829MOL0     H11887   9.826   8.800  10.946 -0.6867  1.3200 -0.0621
  829MOL0     H11888   9.804   8.887  10.801 -2.3469 -1.9108 -0.6807
  829MOL0     H11889  10.055   8.761  10.895 -0.5002 -1.6641 -1.7594
  829MOL0     H11890  10.023   8.752  10.728  1.5534 -0.9704  0.4955
  829MOL0     H11891  10.088   8.988  10.911 -0.5030 -2.0176  0.7014
  829MOL0     H11892   9.981   9.037  10.788  2.2833  2.3528  0.0315
  829MOL0     H11893  10.137   8.930  10.615 -1.8947  1.7301  0.0713
  829MOL0     H11894  10.197   9.072  10.715  1.6180 -0.5339 -0.0862
  829MOL0     H11895   9.546   8.047  10.686 -0.0794  0.7208 -0.5349
  829MOL0     H11896   9.485   7.962  10.425 -0.0092 -0.0794 -3.2751
  829MOL0     H11897   9.552   7.934  10.031 -0.2090 -1.9921 -1.1938
  829MOL0     H11898   9.513   7.853   9.809  0.8915 -0.3157  2.8698
  829MOL0     H11899   7.686   8.183  10.096 -2.0862  1.4450 -0.9429
  829MOL0     H11900   7.461   8.226  10.016  0.9135  0.6380 -0.1259
  829MOL0     H11901   7.109   8.010   9.751  3.0311  0.5925  0.7089
  829MOL0     H11902   6.871   8.046   9.674 -0.8903  2.7356  0.2040
  829MOL0     H11903   6.775   8.367   9.474  1.2149  1.8812  1.1149
  829MOL0     H11904   6.713   8.451   9.616  0.8969 -1.8056  2.7209
  829MOL0     H11905   6.513   8.419   9.463 -0.9384 -0.5097  0.0140
  829MOL0     H11906   6.490   8.349   9.611 -2.3192  1.0992 -1.7701
  829MOL0     H11907   6.564   8.201   9.347  0.0036 -2.6810  0.5712
  829MOL0     H11908   6.404   8.193   9.429  0.0719 -2.2951 -0.8198
  829MOL0     H11909   6.508   7.991   9.469  0.6621  1.8198 -2.4709
  829MOL0     H11910   6.657   8.041   9.535 -0.0542  1.3327 -0.7423
  829MOL0     H11911   6.429   8.072   9.878 -0.8110  0.8084 -0.3209
  829MOL0     H11912   6.945   8.472   9.667  1.3299 -0.5215 -0.2826
  829MOL0     H11913   7.238   8.519   9.704 -0.1275  2.6569  1.0305
  829MOL0     H11914   7.083   8.554   9.793 -1.5432 -2.1633  0.8462
  829MOL0     H11915   7.204   8.463   9.871 -3.9548  0.7327  2.1318
  830MOL0     O11916  10.252   2.809   1.012 -0.4999  0.1772  0.0664
  830MOL0     C11917  10.250   2.743   1.114  0.6336  0.0973 -0.5281
  830MOL0     O11918  10.348   2.679   1.171 -0.3560 -0.1555  0.4079
  830MOL0     C11919  10.479   2.690   1.132  0.4608 -0.7647  0.0097
  830MOL0     C11920  10.586   2.701   1.224 -0.0530  0.6400  1.0177
  830MOL0     C11921  10.728   2.706   1.183 -0.1275  0.9426  0.4872
  830MOL0     C11922  10.745   2.690   1.043 -0.1753  0.2647  0.5681
  830MOL0     O11923  10.872   2.677   0.985  0.3288 -0.1972  0.0125
  830MOL0     C11924  10.958   2.786   1.015  1.2478 -0.3148 -0.2985
  830MOL0     C11925  11.072   2.789   0.925 -0.1135  0.2846  1.1459
  830MOL0     C11926  11.172   2.893   0.965 -0.7733  0.2745  0.2213
  830MOL0     C11927  11.127   3.035   0.935 -0.2586  0.2491  0.8169
  830MOL0     C11928  11.239   3.141   0.970  0.4784 -0.4058  0.7457
  830MOL0     C11929  11.192   3.287   0.961 -0.2220  0.7701  0.1762
  830MOL0     C11930  11.306   3.390   0.958 -0.0046  1.3481  0.1145
  830MOL0     C11931  11.380   3.392   1.095 -0.0149  0.2008  0.0313
  830MOL0     N11932  11.322   3.500   1.187  0.0416 -0.4902  0.3579
  830MOL0     C11933  11.356   3.637   1.178  0.8737 -1.3104 -0.0992
  830MOL0     C11934  11.273   3.697   1.268 -0.1131  1.0487  0.5636
  830MOL0     C11935  11.276   3.842   1.307 -0.4903  0.2711  0.8778
  830MOL0     C11936  11.263   3.951   1.196 -0.2743  0.0822  0.3933
  830MOL0     C11937  11.300   4.082   1.251  0.1050  0.5921  0.6325
  830MOL0     C11938  11.311   4.184   1.136 -0.2195  1.0503 -0.5419
  830MOL0     O11939  11.396   4.138   1.020  0.0374 -0.2588 -0.2210
  830MOL0     C11940  11.528   4.122   1.044  0.3380 -0.5780 -0.1517
  830MOL0     C11941  11.588   4.014   0.985  0.4299  0.8673  1.0042
  830MOL0     C11942  11.730   3.990   1.002  0.1020 -0.0311 -0.9077
  830MOL0     C11943  11.809   4.078   1.092 -0.2702 -0.4196 -0.0120
  830MOL0     C11944  11.948   4.065   1.130 -0.4916  0.0104  0.3693
  830MOL0     O11945  12.005   4.167   1.194  0.5890  0.5040  0.1476
  830MOL0     C11946  12.135   4.177   1.228  0.5711  0.8812 -0.1427
  830MOL0     C11947  12.197   4.305   1.220 -0.2892 -0.4937 -0.1435
  830MOL0     C11948  12.330   4.313   1.256  0.3133  0.9242  0.0982
  830MOL0     C11949  12.406   4.199   1.298  0.3279  0.2763  0.1151
  830MOL0     O11950  12.536   4.205   1.328  0.5088  0.3820  0.8200
  830MOL0     C11951  12.616   4.323   1.300 -0.3660  0.5592  0.3982
  830MOL0     C11952  12.674   4.326   1.147  0.0544  0.4351  0.0539
  830MOL0     C11953  12.758   4.207   1.118 -0.4049  0.9222 -0.5052
  830MOL0     C11954  12.786   4.187   0.964 -0.1292 -0.9177 -0.2541
  830MOL0     C11955  12.883   4.295   0.895 -0.3080  0.5076 -0.2203
  830MOL0     C11956  13.030   4.293   0.955  0.0230 -0.5119  0.3162
  830MOL0     C11957  13.120   4.397   0.894 -0.9981  0.5542 -0.7183
  830MOL0     C11958  13.271   4.366   0.930 -0.3475 -0.0573 -0.7583
  830MOL0    Cl11959  13.349   4.492   0.841  0.4624  0.2774  0.1574
  830MOL0     C11960  12.332   4.081   1.320  0.7213  0.0184  0.3347
  830MOL0     C11961  12.196   4.074   1.277 -1.2228 -0.6940 -0.5858
  830MOL0     O11962  12.002   3.969   1.085  0.2068 -0.6581 -0.1490
  830MOL0     C11963  11.741   4.194   1.137 -0.2128 -0.1545 -0.8035
  830MOL0     C11964  11.609   4.216   1.113  0.0189 -0.4531 -0.2685
  830MOL0     N11965  11.208   3.600   1.338  0.0515 -0.4822  0.1361
  830MOL0     N11966  11.254   3.485   1.302 -0.1166 -0.9353  0.7575
  830MOL0     C11967  10.641   2.664   0.952 -0.3517 -0.0497 -0.2548
  830MOL0     C11968  10.511   2.674   0.998 -0.3827 -0.2669 -0.0435
  830MOL0     C11969  10.124   2.733   1.194  0.9914  0.4487  0.2914
  830MOL0     C11970  10.133   2.735   1.341  0.4843  0.7622  0.2661
  830MOL0     C11971  10.020   2.708   1.416 -0.3516 -0.2107 -0.4828
  830MOL0     C11972   9.894   2.688   1.364  0.8478 -0.1745  1.0154
  830MOL0     O11973   9.780   2.661   1.440 -0.4337  0.0919 -0.5078
  830MOL0     C11974   9.773   2.701   1.581 -1.0634 -0.8144  0.1198
  830MOL0     C11975   9.660   2.624   1.656 -0.0501  0.5383  0.5137
  830MOL0     C11976   9.661   2.620   1.808 -0.4525  0.5356  0.3075
  830MOL0     C11977   9.668   2.758   1.864 -0.2497 -0.7857  0.5682
  830MOL0     C11978   9.808   2.796   1.873  0.1853 -0.6104  0.3591
  830MOL0     C11979   9.923   2.832   1.880 -0.2795  0.5145 -0.8900
  830MOL0     C11980   9.883   2.701   1.229 -0.0346  0.1778  1.4670
  830MOL0     C11981   9.993   2.721   1.135  0.1964 -0.1403 -0.2184
  830MOL0     C11982   9.950   2.735   0.993 -0.0637 -0.1676  0.0598
  830MOL0     H11983  10.557   2.692   1.328 -2.1798  2.3982  0.6543
  830MOL0     H11984  10.810   2.708   1.254 -0.1646  1.4705  0.5215
  830MOL0     H11985  10.896   2.875   1.004 -0.8673 -1.8685 -1.8841
  830MOL0     H11986  10.992   2.771   1.118 -1.0665 -0.2614  0.5321
  830MOL0     H11987  11.040   2.808   0.822  1.1945  2.5891  1.0937
  830MOL0     H11988  11.118   2.690   0.921 -0.1900  0.2781 -1.9420
  830MOL0     H11989  11.266   2.880   0.910 -1.4508 -0.0848 -0.8731
  830MOL0     H11990  11.197   2.876   1.071 -2.5467  0.6604  0.7310
  830MOL0     H11991  11.101   3.046   0.829  2.6004  1.1325  0.1163
  830MOL0     H11992  11.041   3.063   0.996  0.5465  2.4290  1.0356
  830MOL0     H11993  11.275   3.124   1.072  0.6896 -2.4259  0.3791
  830MOL0     H11994  11.318   3.112   0.900 -0.2187 -0.1509 -0.1549
  830MOL0     H11995  11.134   3.304   0.869  4.2817  0.7963 -2.9808
  830MOL0     H11996  11.139   3.317   1.052  1.7393  0.8989  1.3290
  830MOL0     H11997  11.257   3.481   0.921 -0.8685 -0.7664 -4.5936
  830MOL0     H11998  11.372   3.361   0.876 -1.7187  1.3675 -1.3424
  830MOL0     H11999  11.379   3.293   1.142 -3.5984  0.3772  0.6705
  830MOL0     H12000  11.483   3.415   1.068 -0.2485  1.5034  0.2063
  830MOL0     H12001  11.439   3.688   1.130 -1.0391  2.6546  0.3196
  830MOL0     H12002  11.201   3.858   1.385 -2.6220 -0.8020 -0.8296
  830MOL0     H12003  11.370   3.874   1.354 -0.1717  0.6093  0.0284
  830MOL0     H12004  11.336   3.927   1.119  1.1235  1.8593  1.1146
  830MOL0     H12005  11.162   3.939   1.155 -0.8999 -2.1321  2.3393
  830MOL0     H12006  11.393   4.086   1.309  2.0772  0.9663 -2.3120
  830MOL0     H12007  11.215   4.117   1.310  0.3671  3.8332 -0.7341
  830MOL0     H12008  11.349   4.274   1.186  2.4615 -0.9397  1.3241
  830MOL0     H12009  11.213   4.201   1.090 -1.2365  1.1674  1.5410
  830MOL0     H12010  11.526   3.943   0.931  0.6913 -2.3026  4.3977
  830MOL0     H12011  11.775   3.900   0.962  0.5912  0.2633 -1.0391
  830MOL0     H12012  12.150   4.398   1.189  0.2432  0.6584  2.2326
  830MOL0     H12013  12.377   4.411   1.255  3.1645 -0.3407 -0.5742
  830MOL0     H12014  12.556   4.414   1.304 -0.7300  0.5012 -2.1992
  830MOL0     H12015  12.704   4.333   1.364  0.1862  0.3287 -0.3105
  830MOL0     H12016  12.593   4.338   1.075  0.6614  3.1335 -0.2783
  830MOL0     H12017  12.730   4.419   1.135 -1.6344  1.2253 -2.5515
  830MOL0     H12018  12.850   4.197   1.176 -1.7963 -0.8469  1.5468
  830MOL0     H12019  12.700   4.119   1.146 -1.4733  1.8002  0.1031
  830MOL0     H12020  12.695   4.187   0.904  0.2597 -1.0705 -0.8596
  830MOL0     H12021  12.832   4.088   0.958 -0.9151 -1.3362  0.3588
  830MOL0     H12022  12.842   4.396   0.902 -0.4876  0.3414  1.8606
  830MOL0     H12023  12.895   4.267   0.790  3.3584  0.5528  0.0325
  830MOL0     H12024  13.016   4.308   1.063  2.2483  0.7858  0.4930
  830MOL0     H12025  13.077   4.196   0.937 -0.8165 -1.1195  1.3279
  830MOL0     H12026  13.097   4.501   0.922 -1.2633  0.1467  0.6458
  830MOL0     H12027  13.103   4.389   0.786 -2.5346 -1.3165 -0.3849
  830MOL0     H12028  13.293   4.369   1.037 -2.2764 -1.9103 -0.2358
  830MOL0     H12029  13.286   4.269   0.882 -0.9354 -1.2996  1.4254
  830MOL0     H12030  12.384   3.997   1.365  1.5803  2.0112  3.3360
  830MOL0     H12031  12.144   3.980   1.294 -2.4491  0.0475 -0.1116
  830MOL0     H12032  11.791   4.261   1.207  1.2100 -2.1464  0.1848
  830MOL0     H12033  11.569   4.309   1.153  0.7125 -0.2508 -0.0340
  830MOL0     H12034  10.679   2.647   0.851  0.0161 -3.2795  0.2939
  830MOL0     H12035  10.442   2.683   0.914 -1.5789  1.7066  1.0864
  830MOL0     H12036  10.230   2.734   1.388  1.2334  1.2803 -1.2135
  830MOL0     H12037  10.034   2.716   1.524 -1.8452 -1.0558 -0.1907
  830MOL0     H12038   9.748   2.807   1.595 -1.5915 -0.8152 -0.7598
  830MOL0     H12039   9.870   2.685   1.629 -1.8436 -6.1844  0.5609
  830MOL0     H12040   9.672   2.520   1.622  1.0636  0.0749  2.1904
  830MOL0     H12041   9.564   2.661   1.619 -0.0106  3.5659  3.0536
  830MOL0     H12042   9.750   2.562   1.833  0.6745  1.4081 -1.4215
  830MOL0     H12043   9.558   2.585   1.823 -1.1560  1.4959 -1.8372
  830MOL0     H12044   9.611   2.836   1.813  0.6352 -0.9817 -0.7826
  830MOL0     H12045   9.636   2.761   1.968  1.3828  1.4952  1.1011
  830MOL0     H12046  10.028   2.853   1.874  0.0935 -1.0478 -0.1412
  830MOL0     H12047   9.782   2.709   1.191  0.3723 -0.5202  0.1728
  830MOL0     H12048  10.022   2.735   0.910 -0.3835 -1.5938 -0.2414
  830MOL0     H12049   9.889   2.647   0.969  0.6916 -0.9703  0.9953
  830MOL0     H12050   9.893   2.827   0.979  2.7064  1.5679 -0.6651
  831MOL0     O12051   7.674   8.389   8.368  1.1991 -0.5919  1.0444
  831MOL0     C12052   7.788   8.393   8.418 -0.5627 -0.0326 -0.2486
  831MOL0     O12053   7.847   8.508   8.470 -0.5565 -0.5859 -0.0802
  831MOL0     C12054   7.769   8.626   8.460 -0.1098  0.8278 -0.0837
  831MOL0     C12055   7.825   8.732   8.404 -0.3413  0.3653 -0.9827
  831MOL0     C12056   7.759   8.853   8.401 -1.1550 -0.0474  0.7481
  831MOL0     C12057   7.643   8.875   8.474 -0.7111 -0.0020  0.4703
  831MOL0     O12058   7.583   8.998   8.469  0.5558 -0.0293 -0.4474
  831MOL0     C12059   7.468   9.020   8.555  0.9407 -0.2824  0.4263
  831MOL0     C12060   7.414   9.166   8.539 -0.0686 -0.3022  0.0386
  831MOL0     C12061   7.317   9.198   8.652  0.1059 -0.2003 -0.5770
  831MOL0     C12062   7.305   9.346   8.674  0.7000 -0.5078 -0.2544
  831MOL0     C12063   7.267   9.426   8.554  0.1465  0.0998 -0.3744
  831MOL0     C12064   7.248   9.567   8.600 -0.4166 -0.3290 -1.7521
  831MOL0     C12065   7.173   9.665   8.505 -0.2424  0.1866 -0.3767
  831MOL0     C12066   7.250   9.694   8.390  0.0711 -0.8393  0.7369
  831MOL0     N12067   7.208   9.805   8.300  0.0311 -0.0363 -0.3536
  831MOL0     C12068   7.273   9.921   8.287 -0.0006  0.5218  0.2971
  831MOL0     C12069   7.204   9.982   8.185  0.1393 -0.3439 -0.6981
  831MOL0     C12070   7.249  10.112   8.130  0.9362 -0.7010 -0.2811
  831MOL0     C12071   7.369  10.085   8.032 -0.3711 -0.4808  0.9647
  831MOL0     C12072   7.452  10.204   8.007 -0.9604  0.0252 -0.3959
  831MOL0     C12073   7.573  10.189   7.901  0.1129  0.3543 -0.7098
  831MOL0     O12074   7.665  10.087   7.963  0.0531 -0.3044  0.1258
  831MOL0     C12075   7.798  10.085   7.916 -0.1322 -0.1525 -0.5338
  831MOL0     C12076   7.886   9.991   7.973 -0.3917 -0.2207  0.0745
  831MOL0     C12077   8.017   9.975   7.939 -0.2448  0.3070 -0.3013
  831MOL0     C12078   8.068  10.059   7.834 -1.2139 -0.6290 -0.6195
  831MOL0     C12079   8.201  10.031   7.794 -0.0476  0.7732  1.2139
  831MOL0     O12080   8.234   9.904   7.784  0.0692  0.1035 -0.2471
  831MOL0     C12081   8.348   9.872   7.720 -0.2118  0.8686  0.4189
  831MOL0     C12082   8.357   9.866   7.585 -0.3231 -0.4721  0.7602
  831MOL0     C12083   8.476   9.843   7.525  0.0482  0.2730 -1.3036
  831MOL0     C12084   8.596   9.828   7.607 -0.7275  0.1063  0.2067
  831MOL0     O12085   8.709   9.798   7.538 -0.3651 -0.0737  0.1997
  831MOL0     C12086   8.832   9.763   7.613  0.8012 -0.4783  0.4535
  831MOL0     C12087   8.949   9.707   7.525  0.4843  0.3247 -0.6568
  831MOL0     C12088   9.066   9.680   7.619 -0.1218  0.0195  0.0447
  831MOL0     C12089   9.177   9.607   7.536  0.8685 -1.3175 -0.2570
  831MOL0     C12090   9.309   9.584   7.621  0.4353 -0.6793 -0.0338
  831MOL0     C12091   9.379   9.713   7.665  0.4380 -0.1199  0.8603
  831MOL0     C12092   9.492   9.685   7.760 -0.2856  0.4593 -1.0498
  831MOL0     C12093   9.536   9.817   7.822  0.3831  0.3736 -0.0950
  831MOL0    Cl12094   9.410   9.878   7.936 -0.2537  0.1410  0.3874
  831MOL0     C12095   8.583   9.839   7.745 -0.0457  1.2931 -0.4051
  831MOL0     C12096   8.457   9.856   7.800  0.2315  1.3155  0.0514
  831MOL0     O12097   8.267  10.130   7.761 -0.3805  0.3692  0.2787
  831MOL0     C12098   7.982  10.166   7.788  0.3866  0.6317 -0.0249
  831MOL0     C12099   7.846  10.169   7.825 -0.4185  0.5926 -0.3521
  831MOL0     N12100   7.107   9.905   8.137  0.0632  0.6535 -0.6107
  831MOL0     N12101   7.107   9.796   8.211 -0.5954 -0.2130 -0.5467
  831MOL0     C12102   7.582   8.756   8.522  0.4584 -0.4216 -0.0627
  831MOL0     C12103   7.645   8.631   8.514 -0.4423  0.3942 -0.6404
  831MOL0     C12104   7.879   8.278   8.424 -0.1251  0.3945  0.6161
  831MOL0     C12105   8.019   8.310   8.397 -0.2436 -0.3083  0.2503
  831MOL0     C12106   8.113   8.208   8.408  0.4512  0.0508  1.1179
  831MOL0     C12107   8.079   8.073   8.411  0.0395 -0.9217 -0.2129
  831MOL0     O12108   8.165   7.970   8.402  0.3268  0.4893 -0.3486
  831MOL0     C12109   8.308   7.997   8.389 -0.5548 -0.2392  0.2305
  831MOL0     C12110   8.349   8.036   8.251  0.4972  1.2100  0.5835
  831MOL0     C12111   8.485   8.084   8.214 -0.5309  0.3236  0.5423
  831MOL0     C12112   8.480   8.181   8.094 -0.0833  0.2978 -0.4587
  831MOL0     C12113   8.404   8.303   8.131  0.7871  0.5817  0.5994
  831MOL0     C12114   8.340   8.407   8.136 -0.7614 -0.1831 -0.2778
  831MOL0     C12115   7.943   8.044   8.425  0.7131 -0.2571 -0.0779
  831MOL0     C12116   7.839   8.144   8.438  0.5018  0.3695 -1.1387
  831MOL0     C12117   7.705   8.093   8.473 -0.7592 -0.6613  0.0725
  831MOL0     H12118   7.928   8.724   8.370 -0.3256 -3.5892 -0.3899
  831MOL0     H12119   7.796   8.947   8.362  0.5933 -0.6847  0.8005
  831MOL0     H12120   7.384   8.962   8.513 -1.0778  2.1453  0.8594
  831MOL0     H12121   7.486   8.998   8.660 -0.2295  3.8832  1.6841
  831MOL0     H12122   7.363   9.160   8.443 -0.0865 -1.8608  0.1163
  831MOL0     H12123   7.499   9.234   8.550 -0.0265  0.1287 -2.4898
  831MOL0     H12124   7.343   9.151   8.747  0.2692 -0.5666 -0.8020
  831MOL0     H12125   7.222   9.161   8.614  0.4026 -1.6529  0.0395
  831MOL0     H12126   7.222   9.363   8.743  2.7638  1.2228  1.9628
  831MOL0     H12127   7.393   9.390   8.721  0.6981  0.1813 -0.8872
  831MOL0     H12128   7.356   9.421   8.490  1.0415 -0.6687  0.8810
  831MOL0     H12129   7.186   9.390   8.489  1.8694  0.2415 -2.7562
  831MOL0     H12130   7.196   9.574   8.696  0.4831  0.1162 -1.2796
  831MOL0     H12131   7.343   9.615   8.624 -0.9181  1.6735 -3.5064
  831MOL0     H12132   7.139   9.760   8.549  2.2348  0.5650  0.8852
  831MOL0     H12133   7.082   9.609   8.485  0.3026 -0.3335 -1.4510
  831MOL0     H12134   7.350   9.724   8.424 -0.2333  0.4188  0.5626
  831MOL0     H12135   7.256   9.596   8.342 -2.7530 -1.4468  1.4223
  831MOL0     H12136   7.360   9.959   8.339  0.2273 -0.1548  0.4070
  831MOL0     H12137   7.167  10.161   8.077 -1.2279 -1.8677  1.8164
  831MOL0     H12138   7.268  10.181   8.212 -1.8043  0.1326 -0.2314
  831MOL0     H12139   7.438  10.012   8.074  1.1676  1.5175  2.1069
  831MOL0     H12140   7.329  10.048   7.937 -1.2173  1.8311  0.3564
  831MOL0     H12141   7.492  10.226   8.106 -3.9832  0.2546  0.8886
  831MOL0     H12142   7.384  10.285   7.977 -0.5939  1.1059  1.5569
  831MOL0     H12143   7.623  10.286   7.888 -2.0293  1.2593 -2.9670
  831MOL0     H12144   7.543  10.165   7.799 -0.0522  1.3811 -0.9198
  831MOL0     H12145   7.850   9.922   8.048 -1.4955  1.4182  1.1268
  831MOL0     H12146   8.076   9.897   7.984 -1.2070 -0.7751 -0.8717
  831MOL0     H12147   8.265   9.873   7.528  0.6571  0.1117 -0.7852
  831MOL0     H12148   8.487   9.816   7.420 -1.4139  0.8742 -1.6337
  831MOL0     H12149   8.864   9.860   7.653  0.7422  0.7511 -2.2586
  831MOL0     H12150   8.804   9.686   7.685 -0.8194 -0.4098 -0.0696
  831MOL0     H12151   8.921   9.612   7.477  1.4457  0.1253 -0.8485
  831MOL0     H12152   8.975   9.794   7.463  0.8646  0.9388  0.3414
  831MOL0     H12153   9.107   9.772   7.662  0.2103 -0.4583  0.7759
  831MOL0     H12154   9.028   9.615   7.698 -2.5425  0.4726 -0.6638
  831MOL0     H12155   9.201   9.661   7.444  1.1528 -0.4650  0.3039
  831MOL0     H12156   9.132   9.509   7.514 -1.9139  0.2565 -2.0844
  831MOL0     H12157   9.371   9.531   7.548  2.7672  1.9081 -0.0898
  831MOL0     H12158   9.290   9.521   7.708 -0.4181 -0.8222 -0.3118
  831MOL0     H12159   9.423   9.747   7.571  0.8484 -0.5248  0.9036
  831MOL0     H12160   9.310   9.793   7.693  1.1093  1.4254 -1.6086
  831MOL0     H12161   9.575   9.638   7.705 -2.2226 -3.6778 -0.8306
  831MOL0     H12162   9.478   9.609   7.837  2.7149 -0.1871 -1.0122
  831MOL0     H12163   9.629   9.798   7.876  0.6603  1.4715 -0.1518
  831MOL0     H12164   9.558   9.878   7.734 -0.0790 -0.7320 -1.0023
  831MOL0     H12165   8.672   9.828   7.806 -0.5854 -1.9101 -0.0195
  831MOL0     H12166   8.443   9.849   7.907  2.7499 -4.8697  0.3818
  831MOL0     H12167   8.019  10.240   7.719 -0.4268 -1.8040 -3.3360
  831MOL0     H12168   7.784  10.241   7.774 -2.0141 -0.4242  0.0892
  831MOL0     H12169   7.490   8.753   8.580  1.5880  2.9841  2.2302
  831MOL0     H12170   7.588   8.556   8.567  0.4523  0.7372  0.8478
  831MOL0     H12171   8.066   8.405   8.377  2.2457 -1.2812  1.2064
  831MOL0     H12172   8.218   8.237   8.416  1.5421 -2.8166 -1.1997
  831MOL0     H12173   8.348   7.898   8.412 -1.9637 -1.1946 -1.1972
  831MOL0     H12174   8.335   8.066   8.470  0.2545 -1.0651  0.6782
  831MOL0     H12175   8.272   8.108   8.221  0.8870  0.8201 -1.5139
  831MOL0     H12176   8.328   7.952   8.185 -5.3111  2.6868 -0.0047
  831MOL0     H12177   8.558   8.005   8.193  2.0741  1.7617  3.4555
  831MOL0     H12178   8.535   8.119   8.304  2.9544 -2.4536 -0.0830
  831MOL0     H12179   8.581   8.210   8.067 -0.3583 -0.6510 -2.6894
  831MOL0     H12180   8.424   8.140   8.010 -0.5708 -1.1529  0.5340
  831MOL0     H12181   8.286   8.497   8.115 -0.1844 -0.0770 -1.3712
  831MOL0     H12182   7.924   7.938   8.427  0.2879 -0.1735  0.3603
  831MOL0     H12183   7.643   8.094   8.383  1.9923 -0.4426 -1.9279
  831MOL0     H12184   7.709   7.990   8.511  1.9547 -1.3097 -1.6874
  831MOL0     H12185   7.675   8.155   8.558  3.7424  1.8105  0.1879
  832MOL0     O12186  10.181   7.286   2.725  0.4930  0.3764 -0.2985
  832MOL0     C12187  10.136   7.343   2.628 -0.2120  0.1911  0.6292
  832MOL0     O12188  10.057   7.290   2.533 -0.1805 -0.1666  1.2046
  832MOL0     C12189   9.995   7.162   2.546  0.6177  0.0927  0.2363
  832MOL0     C12190   9.888   7.149   2.457  0.5635 -0.1771 -0.7030
  832MOL0     C12191   9.813   7.028   2.457 -1.5308 -0.2384 -0.7367
  832MOL0     C12192   9.843   6.914   2.542  0.5194 -0.3975 -0.1288
  832MOL0     O12193   9.783   6.784   2.528  0.8776 -0.0572  0.0479
  832MOL0     C12194   9.742   6.745   2.400  0.0261 -0.4320  0.2571
  832MOL0     C12195   9.695   6.604   2.403  0.1761  0.9887 -0.0702
  832MOL0     C12196   9.611   6.559   2.524  0.0328  0.2368  0.2963
  832MOL0     C12197   9.550   6.432   2.479  0.2243 -0.1803  0.1648
  832MOL0     C12198   9.464   6.390   2.601 -0.0032 -0.1459  0.5545
  832MOL0     C12199   9.393   6.265   2.576 -1.0668  0.0313  0.5817
  832MOL0     C12200   9.325   6.221   2.707 -0.1062 -0.0964 -0.4767
  832MOL0     C12201   9.231   6.109   2.684  1.0799 -0.0740 -0.8906
  832MOL0     N12202   9.307   5.990   2.660 -0.5631 -0.1738 -0.4484
  832MOL0     C12203   9.350   5.939   2.535  0.8327 -0.2624  0.1498
  832MOL0     C12204   9.368   5.807   2.560 -0.4238  0.2888 -0.5390
  832MOL0     C12205   9.396   5.717   2.452 -0.1959 -0.1671 -0.5374
  832MOL0     C12206   9.263   5.666   2.418  0.1891  0.0511 -0.5848
  832MOL0     C12207   9.256   5.558   2.315  0.4594  0.3633 -0.7252
  832MOL0     C12208   9.123   5.479   2.327 -0.0830 -0.2887 -0.4326
  832MOL0     O12209   9.111   5.363   2.251  0.5774  0.3887  0.7001
  832MOL0     C12210   9.107   5.366   2.110 -0.6610  0.6044  0.2921
  832MOL0     C12211   9.099   5.236   2.055  1.0958  0.1448 -0.2339
  832MOL0     C12212   9.081   5.224   1.914  0.8034  0.5919 -0.1248
  832MOL0     C12213   9.083   5.337   1.831 -0.1800 -0.7335 -0.3728
  832MOL0     C12214   9.069   5.321   1.684  0.1794 -0.4291  0.3502
  832MOL0     O12215   9.058   5.430   1.601  0.1768  0.6881 -0.5249
  832MOL0     C12216   9.046   5.417   1.467  1.2379 -0.5671  0.2203
  832MOL0     C12217   8.939   5.481   1.407  0.2010 -0.6089 -0.2185
  832MOL0     C12218   8.931   5.491   1.265  0.1787 -0.2099  0.2228
  832MOL0     C12219   9.026   5.421   1.182  0.4162 -0.6573  0.3229
  832MOL0     O12220   9.013   5.429   1.048 -0.2401 -0.2363 -0.2404
  832MOL0     C12221   9.128   5.485   0.986 -0.1945  0.3358 -0.4576
  832MOL0     C12222   9.114   5.528   0.840 -0.6620  0.0160 -0.4065
  832MOL0     C12223   9.091   5.396   0.765 -0.4644  1.0623 -0.1980
  832MOL0     C12224   9.055   5.435   0.624 -0.1911  0.1612 -0.1440
  832MOL0     C12225   9.019   5.310   0.543 -0.3938 -0.8039  0.1588
  832MOL0     C12226   9.143   5.220   0.508  0.8357 -0.2990  0.5351
  832MOL0     C12227   9.115   5.135   0.381 -0.5845 -1.2893  0.0110
  832MOL0     C12228   9.204   5.008   0.348 -0.0661  0.1531  0.2698
  832MOL0    Cl12229   9.375   5.052   0.326  0.1369  0.1252 -0.7577
  832MOL0     C12230   9.111   5.334   1.244 -0.2700 -0.3814 -1.0390
  832MOL0     C12231   9.121   5.333   1.386 -0.4341 -1.0679  0.4323
  832MOL0     O12232   9.072   5.205   1.646  0.4047 -0.2373  0.2445
  832MOL0     C12233   9.079   5.472   1.894  0.1168 -0.1364 -0.0412
  832MOL0     C12234   9.091   5.479   2.033 -0.1533  0.3717  0.2137
  832MOL0     N12235   9.358   5.777   2.691 -0.5900 -0.5090 -0.3458
  832MOL0     N12236   9.328   5.891   2.755  0.5988 -0.1169  0.4908
  832MOL0     C12237   9.959   6.931   2.620 -0.6272 -0.5422 -0.4868
  832MOL0     C12238  10.028   7.055   2.630  0.3978 -0.1080  0.2636
  832MOL0     C12239  10.163   7.492   2.599 -0.3101 -0.6407  0.0117
  832MOL0     C12240  10.082   7.563   2.508  0.2446 -0.0890 -0.4139
  832MOL0     C12241  10.091   7.700   2.503  0.5230  0.0437 -0.1875
  832MOL0     C12242  10.191   7.774   2.572 -0.3613 -0.4478  0.3212
  832MOL0     O12243  10.193   7.912   2.551  0.6389 -0.0746 -0.0412
  832MOL0     C12244  10.301   7.989   2.609  0.0372  0.7261  0.0545
  832MOL0     C12245  10.292   8.141   2.616  0.2125 -0.1497  0.1222
  832MOL0     C12246  10.154   8.205   2.630  0.3461 -0.1619  0.9181
  832MOL0     C12247  10.141   8.281   2.763 -0.6043  0.6437  0.3974
  832MOL0     C12248  10.133   8.201   2.890 -0.9905  0.6342 -0.0755
  832MOL0     C12249  10.142   8.144   2.997 -0.3885  0.2659  0.2495
  832MOL0     C12250  10.269   7.699   2.658  0.7451  0.1545 -0.3622
  832MOL0     C12251  10.266   7.563   2.671  0.5987 -0.0294 -0.1612
  832MOL0     C12252  10.360   7.495   2.770  0.5565 -0.1626  0.6469
  832MOL0     H12253   9.855   7.224   2.386 -0.9959  0.6132  0.7730
  832MOL0     H12254   9.733   7.016   2.385 -1.9210 -1.7257 -0.0872
  832MOL0     H12255   9.660   6.809   2.368 -0.0075  0.1255  1.4171
  832MOL0     H12256   9.815   6.754   2.319 -1.6656 -0.8613 -1.3578
  832MOL0     H12257   9.777   6.535   2.382  0.4591  1.6106 -1.0539
  832MOL0     H12258   9.624   6.594   2.320  1.5613  1.2561 -1.3240
  832MOL0     H12259   9.537   6.632   2.557  0.7042 -0.0579  2.6079
  832MOL0     H12260   9.686   6.534   2.599  3.7955  1.0122 -2.8814
  832MOL0     H12261   9.483   6.464   2.398  0.0427  1.8363  1.0523
  832MOL0     H12262   9.620   6.353   2.450 -1.8028 -1.4582 -1.5099
  832MOL0     H12263   9.531   6.375   2.685 -3.6069  0.3750  3.8090
  832MOL0     H12264   9.399   6.472   2.635  1.3443  1.8391 -1.3855
  832MOL0     H12265   9.310   6.287   2.508 -1.9373  1.4098  2.0496
  832MOL0     H12266   9.465   6.194   2.533 -3.0259 -0.8634 -1.4277
  832MOL0     H12267   9.288   6.307   2.763 -0.1902 -1.2129  1.2569
  832MOL0     H12268   9.409   6.176   2.759  1.4543 -1.1964 -3.6686
  832MOL0     H12269   9.167   6.109   2.773  0.8419  3.1971 -0.9450
  832MOL0     H12270   9.173   6.139   2.596  0.0313 -1.1112 -0.5751
  832MOL0     H12271   9.355   5.982   2.436 -0.8415  2.0818  1.0110
  832MOL0     H12272   9.434   5.774   2.367 -2.0111 -0.2107 -1.4175
  832MOL0     H12273   9.476   5.644   2.469  0.6763  1.3672  2.6575
  832MOL0     H12274   9.229   5.623   2.512 -1.2530 -2.0633 -1.9645
  832MOL0     H12275   9.203   5.751   2.386  1.8040  1.0641 -1.0556
  832MOL0     H12276   9.327   5.485   2.356  0.4998  0.9246  0.2163
  832MOL0     H12277   9.286   5.587   2.214 -1.0818  0.4537 -1.1754
  832MOL0     H12278   9.038   5.546   2.310 -1.8940 -1.2499  3.6593
  832MOL0     H12279   9.115   5.438   2.428 -1.3998 -2.9212 -1.5256
  832MOL0     H12280   9.095   5.146   2.116 -1.9004  1.1862  1.2641
  832MOL0     H12281   9.067   5.128   1.864  2.0537  1.1175 -1.5596
  832MOL0     H12282   8.876   5.549   1.463 -1.4926 -1.0242 -1.5430
  832MOL0     H12283   8.855   5.554   1.220  0.5011 -0.5628 -0.8243
  832MOL0     H12284   9.150   5.581   1.032  1.0124 -0.5471  0.8879
  832MOL0     H12285   9.213   5.419   1.003 -0.1245  0.1320 -1.5043
  832MOL0     H12286   9.029   5.596   0.833 -1.3178 -0.1889  3.4690
  832MOL0     H12287   9.200   5.586   0.804 -2.8992  2.2752 -2.4585
  832MOL0     H12288   9.179   5.331   0.766 -0.4386  1.0909  1.0120
  832MOL0     H12289   9.001   5.344   0.800 -0.5936  1.7890  0.5849
  832MOL0     H12290   9.139   5.495   0.587  0.2735 -0.6656 -0.4784
  832MOL0     H12291   8.962   5.493   0.626 -0.9214 -0.9597 -0.6647
  832MOL0     H12292   8.982   5.345   0.447  0.1193 -2.6839 -0.7678
  832MOL0     H12293   8.934   5.261   0.592  0.1291  0.2117  2.1856
  832MOL0     H12294   9.236   5.270   0.479 -0.0884  0.2338 -1.8021
  832MOL0     H12295   9.179   5.164   0.594  1.3247 -0.7014  0.0765
  832MOL0     H12296   9.123   5.196   0.291 -0.8631  1.4218  1.7302
  832MOL0     H12297   9.009   5.108   0.376 -0.9148 -0.3995  1.5593
  832MOL0     H12298   9.200   4.936   0.430  0.3262  0.5509  0.6420
  832MOL0     H12299   9.171   4.945   0.265  3.3322 -2.0406  0.3955
  832MOL0     H12300   9.181   5.275   1.185 -2.0065 -3.0362 -0.6205
  832MOL0     H12301   9.204   5.269   1.415  3.2949  2.0451 -2.1941
  832MOL0     H12302   9.084   5.557   1.828 -0.8378 -1.3402 -1.7415
  832MOL0     H12303   9.098   5.579   2.074  2.8160  1.0564 -1.6245
  832MOL0     H12304  10.003   6.853   2.681  1.5472 -0.5475 -1.9562
  832MOL0     H12305  10.116   7.055   2.694  0.1915 -2.9270  0.6808
  832MOL0     H12306   9.996   7.516   2.463 -1.5867  1.6557  1.0773
  832MOL0     H12307  10.015   7.744   2.439  0.1287  0.4479  0.5506
  832MOL0     H12308  10.385   7.945   2.555 -1.4708 -0.5875 -1.3507
  832MOL0     H12309  10.299   7.974   2.718 -2.4992  1.5974  0.1922
  832MOL0     H12310  10.345   8.179   2.527 -2.0800 -0.5568 -1.4962
  832MOL0     H12311  10.346   8.169   2.707  0.9505  1.3556 -0.7207
  832MOL0     H12312  10.079   8.125   2.631  1.3451 -1.1414 -0.0234
  832MOL0     H12313  10.123   8.276   2.553 -2.6926  1.0796  3.1030
  832MOL0     H12314  10.238   8.331   2.774 -0.4216  0.1989  0.7964
  832MOL0     H12315  10.058   8.352   2.751 -2.0893 -1.1542 -0.4407
  832MOL0     H12316  10.160   8.090   3.089 -3.0548  2.0524  1.9611
  832MOL0     H12317  10.344   7.738   2.726  1.0566  1.4694 -1.3989
  832MOL0     H12318  10.438   7.565   2.801  0.9316 -1.0519  1.7867
  832MOL0     H12319  10.297   7.466   2.854  1.3366  1.1000  1.7177
  832MOL0     H12320  10.405   7.404   2.730  0.5744 -0.3082  0.9942
  833MOL0     O12321  10.774   4.087   9.338 -0.8503  0.2389  0.7561
  833MOL0     C12322  10.788   3.973   9.299 -0.0289  0.2738 -0.4340
  833MOL0     O12323  10.704   3.904   9.211 -0.1508 -1.0764  0.1423
  833MOL0     C12324  10.591   3.957   9.161  0.2776  0.1708  0.7022
  833MOL0     C12325  10.491   3.864   9.124  1.0404 -0.3556 -0.5500
  833MOL0     C12326  10.378   3.908   9.051  0.0662 -0.2299 -0.4682
  833MOL0     C12327  10.359   4.038   9.019 -0.7746 -0.2609 -0.1008
  833MOL0     O12328  10.241   4.068   8.955 -0.6079  0.2509 -0.4771
  833MOL0     C12329  10.242   4.197   8.892  0.2823 -0.2749  0.4618
  833MOL0     C12330  10.141   4.200   8.775 -0.2951  0.8251 -0.4500
  833MOL0     C12331   9.990   4.201   8.833  0.0216 -0.6119 -0.3668
  833MOL0     C12332   9.896   4.272   8.737  0.2102  0.5671 -0.5962
  833MOL0     C12333   9.755   4.293   8.787 -0.3755  0.1741  0.6633
  833MOL0     C12334   9.686   4.183   8.869  0.0511  0.7077  0.2060
  833MOL0     C12335   9.666   4.062   8.776 -0.5601  0.4456 -0.0839
  833MOL0     C12336   9.539   4.077   8.687  0.2097 -0.9812 -0.1101
  833MOL0     N12337   9.520   3.951   8.609  0.8466 -0.5910  0.7180
  833MOL0     C12338   9.536   3.950   8.473  0.6278  0.9143 -0.1253
  833MOL0     C12339   9.510   3.819   8.434 -0.2862  0.0745 -0.7528
  833MOL0     C12340   9.506   3.761   8.295  0.1402 -0.3903 -0.4231
  833MOL0     C12341   9.631   3.667   8.252 -0.0566 -0.7959 -0.5270
  833MOL0     C12342   9.649   3.549   8.353 -0.2290 -0.7359 -0.2581
  833MOL0     C12343   9.745   3.447   8.302 -0.7364 -0.4669  0.2709
  833MOL0     O12344   9.879   3.496   8.291  0.6918 -0.1241 -0.4485
  833MOL0     C12345   9.949   3.510   8.408 -0.2436  0.8044  0.1588
  833MOL0     C12346   9.920   3.455   8.525  0.1837 -0.3911 -0.4250
  833MOL0     C12347  10.002   3.474   8.639 -0.0701  0.3180 -0.8651
  833MOL0     C12348  10.113   3.564   8.636 -0.1640  0.2983  0.5177
  833MOL0     C12349  10.203   3.586   8.751 -0.3784 -0.5917 -0.5689
  833MOL0     O12350  10.190   3.502   8.858  0.9000  0.6035 -0.2225
  833MOL0     C12351  10.289   3.502   8.954 -0.0190  0.5070  0.6763
  833MOL0     C12352  10.247   3.490   9.084  0.2667 -0.5209  0.0047
  833MOL0     C12353  10.340   3.465   9.191  0.5583  0.8583 -0.9191
  833MOL0     C12354  10.478   3.462   9.168 -0.5681  0.4712 -0.4393
  833MOL0     O12355  10.575   3.447   9.267 -0.4367  0.3520  0.5542
  833MOL0     C12356  10.578   3.524   9.393 -0.1003  0.4574  0.4609
  833MOL0     C12357  10.679   3.451   9.480  0.2403 -0.4560  0.0743
  833MOL0     C12358  10.816   3.475   9.424 -0.0530 -0.6271  1.0734
  833MOL0     C12359  10.877   3.365   9.339  0.4951 -0.3673  0.2613
  833MOL0     C12360  11.002   3.421   9.267  0.0920  0.5171 -0.7821
  833MOL0     C12361  11.050   3.323   9.160  0.0512 -0.3559 -0.6628
  833MOL0     C12362  11.192   3.374   9.133  0.0145  0.4353 -0.7402
  833MOL0     C12363  11.244   3.279   9.027  0.5251 -0.2232  0.4748
  833MOL0    Cl12364  11.287   3.107   9.088 -0.2008 -0.4701  0.6447
  833MOL0     C12365  10.517   3.479   9.034 -0.4867 -0.7461 -0.7494
  833MOL0     C12366  10.428   3.510   8.928 -0.3716  0.9145  0.5236
  833MOL0     O12367  10.284   3.678   8.747  0.0378 -0.3766  0.6718
  833MOL0     C12368  10.146   3.610   8.513 -0.6498 -0.1601 -0.5257
  833MOL0     C12369  10.071   3.581   8.401  0.0570  0.3891 -0.3600
  833MOL0     N12370   9.465   3.756   8.551 -0.0952 -0.0929 -0.5211
  833MOL0     N12371   9.472   3.831   8.652  0.7266  0.6213 -0.0068
  833MOL0     C12372  10.462   4.128   9.057 -0.1535  0.6947  0.0627
  833MOL0     C12373  10.574   4.089   9.129 -1.0462 -0.6436  0.4701
  833MOL0     C12374  10.900   3.889   9.350 -0.1458 -0.0993  0.7173
  833MOL0     C12375  10.997   3.843   9.262 -0.9514  0.1727  0.1649
  833MOL0     C12376  11.113   3.778   9.296  0.8114 -0.6253  0.3160
  833MOL0     C12377  11.135   3.746   9.429 -0.1825  0.4107  0.1787
  833MOL0     O12378  11.251   3.675   9.473  0.2254  0.7458  0.5466
  833MOL0     C12379  11.307   3.717   9.596  0.1159 -0.3980 -0.0099
  833MOL0     C12380  11.324   3.604   9.700 -1.3175 -0.1965 -0.3070
  833MOL0     C12381  11.445   3.518   9.658 -0.1620 -0.0101 -0.2239
  833MOL0     C12382  11.417   3.363   9.678  0.5106 -0.4204 -0.7422
  833MOL0     C12383  11.372   3.319   9.812 -0.3977 -0.5413 -0.0365
  833MOL0     C12384  11.339   3.282   9.927 -0.3980  1.0721  1.1878
  833MOL0     C12385  11.029   3.780   9.516  0.4425 -0.2585  0.0189
  833MOL0     C12386  10.913   3.859   9.483 -0.3169  0.4454  0.4853
  833MOL0     C12387  10.815   3.886   9.595  0.5023 -0.6451  0.0590
  833MOL0     H12388  10.494   3.759   9.152 -2.3265  0.4349  3.8434
  833MOL0     H12389  10.295   3.843   9.024 -0.1393 -0.0506 -0.2765
  833MOL0     H12390  10.243   4.281   8.961  1.9733 -0.9006  1.2734
  833MOL0     H12391  10.341   4.201   8.845  1.3840 -1.3469  2.5459
  833MOL0     H12392  10.152   4.103   8.725  0.4961 -2.3117  5.0051
  833MOL0     H12393  10.172   4.282   8.709 -0.6006  0.1026 -1.5271
  833MOL0     H12394   9.996   4.240   8.935 -0.6732  0.6803 -0.7942
  833MOL0     H12395   9.955   4.098   8.836 -1.0728 -0.2284  1.7692
  833MOL0     H12396   9.935   4.368   8.703 -2.7892  1.1891 -2.6802
  833MOL0     H12397   9.884   4.211   8.647 -0.5422 -2.5359  1.4550
  833MOL0     H12398   9.755   4.382   8.851 -0.0837  0.1564  0.6912
  833MOL0     H12399   9.681   4.319   8.711 -0.7634  3.2350  1.9492
  833MOL0     H12400   9.739   4.168   8.963  2.8541  1.1555 -1.1889
  833MOL0     H12401   9.592   4.222   8.908 -0.3834  1.7053 -1.6973
  833MOL0     H12402   9.651   3.969   8.832  0.9375 -0.9500 -1.8614
  833MOL0     H12403   9.754   4.038   8.716  2.5067 -0.0247  4.1728
  833MOL0     H12404   9.450   4.091   8.749  0.3062 -1.6490  0.1858
  833MOL0     H12405   9.546   4.164   8.621  0.0966 -1.1428 -0.3345
  833MOL0     H12406   9.583   4.030   8.416 -0.1569  1.0196 -0.6327
  833MOL0     H12407   9.422   3.693   8.281  0.3641 -0.3820 -2.0633
  833MOL0     H12408   9.511   3.834   8.214 -0.4637 -1.9863 -1.9615
  833MOL0     H12409   9.611   3.629   8.152 -2.8635 -0.8501 -0.0402
  833MOL0     H12410   9.716   3.736   8.243 -0.5477 -0.4709 -4.7025
  833MOL0     H12411   9.551   3.500   8.358  0.2183 -1.6988 -0.7160
  833MOL0     H12412   9.685   3.588   8.448 -0.3226 -0.0757 -0.4836
  833MOL0     H12413   9.712   3.420   8.202  0.1459 -0.7384  0.0446
  833MOL0     H12414   9.743   3.349   8.351  0.1062 -1.7167 -2.0302
  833MOL0     H12415   9.834   3.390   8.538 -0.6256  0.9414  1.2589
  833MOL0     H12416   9.968   3.429   8.732 -1.1713  2.1677 -0.3114
  833MOL0     H12417  10.143   3.488   9.114  0.5504 -0.0840  1.0860
  833MOL0     H12418  10.310   3.438   9.291  0.2109  2.1572 -0.6587
  833MOL0     H12419  10.610   3.625   9.365  1.4387  0.0074  0.5198
  833MOL0     H12420  10.480   3.523   9.441  0.7641  2.5553  2.4343
  833MOL0     H12421  10.681   3.483   9.585 -1.0113 -5.5702  1.9622
  833MOL0     H12422  10.660   3.344   9.492  1.6838 -0.8043 -0.4940
  833MOL0     H12423  10.809   3.565   9.361  0.9277 -1.0543  0.3168
  833MOL0     H12424  10.877   3.506   9.509 -1.6689  2.2735  1.3059
  833MOL0     H12425  10.801   3.321   9.274  1.2024 -2.9659  1.0491
  833MOL0     H12426  10.900   3.282   9.407 -1.0070 -1.9419 -1.0521
  833MOL0     H12427  11.080   3.443   9.341  0.7583  2.4497 -1.9811
  833MOL0     H12428  10.974   3.509   9.208  1.2813  1.1136 -0.4959
  833MOL0     H12429  11.040   3.219   9.193 -2.8972  0.4993  1.6819
  833MOL0     H12430  10.966   3.334   9.091 -1.7694 -0.9159  1.3401
  833MOL0     H12431  11.259   3.381   9.220  2.6513  0.0117 -2.6178
  833MOL0     H12432  11.195   3.475   9.090  0.6019  0.3617 -0.8792
  833MOL0     H12433  11.171   3.268   8.947  0.7068 -0.2653  0.3145
  833MOL0     H12434  11.334   3.320   8.981  0.0317 -1.3925 -1.6403
  833MOL0     H12435  10.625   3.485   9.022 -0.6005  0.2169 -1.4219
  833MOL0     H12436  10.468   3.538   8.831  1.2705 -3.3452 -0.2210
  833MOL0     H12437  10.240   3.664   8.513  1.1638 -3.0984  0.3091
  833MOL0     H12438  10.099   3.611   8.300  0.3698 -0.7170 -0.6180
  833MOL0     H12439  10.446   4.235   9.047 -3.9145  0.6163  2.9207
  833MOL0     H12440  10.657   4.156   9.151 -0.7157 -1.7777  2.9114
  833MOL0     H12441  10.983   3.856   9.155  1.3969 -2.9464 -0.6856
  833MOL0     H12442  11.189   3.746   9.225  0.6747  2.1888 -1.2273
  833MOL0     H12443  11.242   3.793   9.641 -2.5411 -0.8648 -2.7385
  833MOL0     H12444  11.405   3.762   9.580 -0.0174 -0.3022 -0.5751
  833MOL0     H12445  11.229   3.552   9.712 -1.3351 -0.7851 -2.6350
  833MOL0     H12446  11.346   3.657   9.794  2.0685  0.2728 -1.2144
  833MOL0     H12447  11.532   3.549   9.715  0.4359 -1.7178 -0.1491
  833MOL0     H12448  11.470   3.544   9.555 -0.7232  1.3526 -0.0403
  833MOL0     H12449  11.338   3.340   9.606 -2.9438  2.5878  1.7483
  833MOL0     H12450  11.516   3.317   9.669  2.7987  3.1965  2.7515
  833MOL0     H12451  11.318   3.248  10.026  1.1560  1.7417  1.7781
  833MOL0     H12452  11.038   3.746   9.618  2.0838  2.1011  0.7374
  833MOL0     H12453  10.711   3.879   9.562  1.0825 -1.4753 -1.7379
  833MOL0     H12454  10.819   3.824   9.685 -0.2383 -0.4000  0.2712
  833MOL0     H12455  10.832   3.984   9.640  0.3182 -1.1320  1.2392
  834MOL0     O12456   7.009   2.198   2.056  0.0258  0.0853 -0.5234
  834MOL0     C12457   7.059   2.111   2.131 -0.1615 -0.4025  0.0787
  834MOL0     O12458   7.001   2.041   2.233  0.3938 -0.3522 -0.0845
  834MOL0     C12459   6.872   2.050   2.247  0.2438 -0.3654  0.4385
  834MOL0     C12460   6.780   2.012   2.146  1.1286 -0.7574 -0.4322
  834MOL0     C12461   6.645   2.021   2.177 -0.5167 -0.2963  0.4656
  834MOL0     C12462   6.593   2.068   2.299 -0.2328  0.4021  0.1760
  834MOL0     O12463   6.460   2.061   2.321  0.8972 -0.7314 -0.7616
  834MOL0     C12464   6.397   2.151   2.416  0.1994  0.1379 -0.2681
  834MOL0     C12465   6.259   2.080   2.455 -0.3494 -0.4207  0.0257
  834MOL0     C12466   6.259   1.932   2.492 -0.2893 -0.0794  0.8221
  834MOL0     C12467   6.118   1.881   2.539  0.0708  0.3330  1.0610
  834MOL0     C12468   6.135   1.738   2.585  0.1904 -0.6029  0.1785
  834MOL0     C12469   5.997   1.664   2.595 -0.8334 -0.2910 -0.2850
  834MOL0     C12470   6.023   1.527   2.675  0.6475 -0.3540 -0.1382
  834MOL0     C12471   6.061   1.401   2.593 -0.1249  0.6489  0.0863
  834MOL0     N12472   5.984   1.385   2.470 -0.0854  0.8937 -0.6091
  834MOL0     C12473   5.857   1.423   2.457 -0.1090 -0.2149 -0.9630
  834MOL0     C12474   5.799   1.349   2.361 -0.2198 -0.3031  1.1448
  834MOL0     C12475   5.653   1.360   2.313 -0.1218 -0.2419 -0.6623
  834MOL0     C12476   5.649   1.372   2.155  1.3876 -1.1391  0.2478
  834MOL0     C12477   5.729   1.500   2.107 -0.4470 -0.0470 -0.0374
  834MOL0     C12478   5.705   1.515   1.953  0.3078 -0.6412 -0.4081
  834MOL0     O12479   5.766   1.639   1.903 -0.3178  0.9102 -0.0344
  834MOL0     C12480   5.872   1.630   1.819 -0.1928  0.5972  0.2864
  834MOL0     C12481   5.864   1.691   1.692  1.0534  0.2664 -0.3029
  834MOL0     C12482   5.967   1.701   1.602  0.1317  0.1381 -0.4906
  834MOL0     C12483   6.084   1.635   1.634 -0.3222  0.1727 -0.1499
  834MOL0     C12484   6.205   1.653   1.541 -0.3571 -0.2754 -0.6155
  834MOL0     O12485   6.322   1.608   1.595  0.1522 -0.4599  0.9335
  834MOL0     C12486   6.443   1.626   1.529  0.9599  0.3515 -0.1714
  834MOL0     C12487   6.525   1.514   1.510  0.0622  0.2878  0.0560
  834MOL0     C12488   6.643   1.525   1.444 -0.6236  0.1327 -0.3840
  834MOL0     C12489   6.684   1.654   1.393  0.1615  0.4252 -0.3012
  834MOL0     O12490   6.809   1.652   1.332 -0.2848  0.5005  0.5649
  834MOL0     C12491   6.891   1.766   1.328 -0.1701  0.1740  0.3779
  834MOL0     C12492   7.035   1.754   1.288 -0.4565  0.0399 -0.6046
  834MOL0     C12493   7.107   1.621   1.277  0.3248  0.2426  0.3764
  834MOL0     C12494   7.101   1.537   1.413 -0.4412  0.6371 -0.7068
  834MOL0     C12495   7.148   1.393   1.392  0.3660  0.8980 -0.6936
  834MOL0     C12496   7.141   1.306   1.524  0.0550 -0.0373  1.0204
  834MOL0     C12497   6.993   1.269   1.576  0.2090 -0.8489  0.1074
  834MOL0     C12498   6.970   1.132   1.640 -0.2568 -0.3361 -0.4108
  834MOL0    Cl12499   6.810   1.123   1.716 -0.1796 -0.0366  0.2201
  834MOL0     C12500   6.592   1.758   1.394  0.0856 -0.1635 -0.7761
  834MOL0     C12501   6.476   1.742   1.469 -0.1289 -0.4024  0.5390
  834MOL0     O12502   6.187   1.697   1.424  0.3424  0.9346  1.0943
  834MOL0     C12503   6.096   1.563   1.756  0.6288 -0.0600 -0.4593
  834MOL0     C12504   5.993   1.560   1.843 -0.8575 -0.4363 -0.1214
  834MOL0     N12505   5.894   1.263   2.313 -0.2817  0.7591  0.1501
  834MOL0     N12506   6.003   1.287   2.376 -0.1804  0.1313  0.1649
  834MOL0     C12507   6.692   2.121   2.394 -0.1595 -0.3889  0.5321
  834MOL0     C12508   6.828   2.107   2.363 -0.2512 -0.3214 -0.2923
  834MOL0     C12509   7.209   2.069   2.102 -0.0934  0.3711 -0.2148
  834MOL0     C12510   7.254   1.956   2.182 -0.2348  0.2415 -0.1602
  834MOL0     C12511   7.381   1.904   2.166  0.7271 -0.1669 -0.4932
  834MOL0     C12512   7.472   1.961   2.065  0.8541 -0.0863 -0.8367
  834MOL0     O12513   7.601   1.918   2.055 -1.1710  0.3946 -0.1180
  834MOL0     C12514   7.676   1.948   1.942 -0.2574  0.2218 -0.0698
  834MOL0     C12515   7.622   1.862   1.827  0.3329 -0.3717  1.2033
  834MOL0     C12516   7.639   1.706   1.855  0.7942 -0.3585  0.3096
  834MOL0     C12517   7.777   1.636   1.870  0.0677 -0.9875 -0.9782
  834MOL0     C12518   7.857   1.686   1.763  0.0342 -0.5279  0.5175
  834MOL0     C12519   7.928   1.732   1.675 -0.7089 -0.5835 -0.2888
  834MOL0     C12520   7.431   2.080   2.005 -0.0875 -0.2921  0.2321
  834MOL0     C12521   7.299   2.122   2.006 -0.9255 -0.8855 -0.5566
  834MOL0     C12522   7.256   2.240   1.918 -0.0508 -0.2895  0.2298
  834MOL0     H12523   6.811   1.990   2.045  0.8843 -2.0143 -0.2528
  834MOL0     H12524   6.560   1.990   2.117  0.0481 -1.1838  0.0941
  834MOL0     H12525   6.464   2.165   2.501  0.3029  1.7372 -0.5678
  834MOL0     H12526   6.379   2.253   2.381  3.1556  0.4966 -1.0461
  834MOL0     H12527   6.191   2.098   2.371 -0.1946 -2.1269 -0.4959
  834MOL0     H12528   6.207   2.141   2.530 -0.8559 -0.7253 -0.0788
  834MOL0     H12529   6.335   1.919   2.569  4.3815  2.8990 -2.7684
  834MOL0     H12530   6.299   1.864   2.417  1.1559  0.2454  1.2623
  834MOL0     H12531   6.085   1.944   2.622 -2.4559 -0.2318  0.5789
  834MOL0     H12532   6.041   1.887   2.461  2.1081 -1.3207 -1.2284
  834MOL0     H12533   6.190   1.676   2.514 -0.4381 -1.2456  0.2339
  834MOL0     H12534   6.185   1.740   2.683 -2.3984  0.5049  1.5796
  834MOL0     H12535   5.914   1.719   2.642 -0.2259  1.4225 -1.1078
  834MOL0     H12536   5.961   1.650   2.493 -0.9395  0.6027 -0.3791
  834MOL0     H12537   5.934   1.496   2.730 -1.0566 -2.7097 -3.8634
  834MOL0     H12538   6.100   1.548   2.750  0.7313 -0.3704 -0.2199
  834MOL0     H12539   6.168   1.416   2.578  0.1474  0.2873  1.5961
  834MOL0     H12540   6.056   1.309   2.653 -0.3320 -1.8679 -3.4451
  834MOL0     H12541   5.809   1.495   2.522  1.6418  0.6295 -0.5299
  834MOL0     H12542   5.612   1.260   2.331  1.9428 -0.6963  2.3178
  834MOL0     H12543   5.597   1.424   2.381  2.3409  0.6144  0.6898
  834MOL0     H12544   5.680   1.278   2.108 -1.1770 -2.4977  1.0730
  834MOL0     H12545   5.541   1.378   2.142  1.2930 -0.5047  1.1950
  834MOL0     H12546   5.836   1.505   2.132 -1.0127  0.9472  2.4519
  834MOL0     H12547   5.687   1.584   2.163 -1.3258  0.0726 -0.8475
  834MOL0     H12548   5.599   1.522   1.929  0.7708  1.1379 -2.2832
  834MOL0     H12549   5.728   1.422   1.901 -0.3434 -0.4376 -1.0734
  834MOL0     H12550   5.771   1.744   1.675  0.1968 -0.7000  1.1626
  834MOL0     H12551   5.946   1.769   1.521  1.3483  2.4342  1.0288
  834MOL0     H12552   6.500   1.415   1.548 -2.1362  0.4394 -0.8476
  834MOL0     H12553   6.705   1.436   1.437 -1.8164 -0.9672  2.0422
  834MOL0     H12554   6.843   1.849   1.276 -1.1576 -0.5370  0.1173
  834MOL0     H12555   6.883   1.800   1.432  3.6282  2.1592  0.1599
  834MOL0     H12556   7.047   1.810   1.195 -0.4098 -1.6504 -1.6428
  834MOL0     H12557   7.088   1.830   1.347 -2.8587  2.4943 -1.3877
  834MOL0     H12558   7.037   1.573   1.208 -1.1906  2.3819  0.3241
  834MOL0     H12559   7.209   1.616   1.239 -0.3250 -5.0647 -1.4595
  834MOL0     H12560   7.005   1.546   1.465  0.2824 -3.0189  1.5866
  834MOL0     H12561   7.172   1.581   1.484  0.5385 -1.3150 -0.4191
  834MOL0     H12562   7.252   1.395   1.360  0.6767 -1.0963  0.0857
  834MOL0     H12563   7.083   1.350   1.315 -0.1462 -3.6404  1.9340
  834MOL0     H12564   7.193   1.212   1.503 -0.1096  0.4749 -2.2526
  834MOL0     H12565   7.193   1.360   1.603  0.3853  0.0478  0.7494
  834MOL0     H12566   6.925   1.272   1.491  2.0882  0.8044 -1.4357
  834MOL0     H12567   6.966   1.341   1.654 -2.1453 -1.2622 -0.2665
  834MOL0     H12568   6.978   1.044   1.575 -1.2888 -0.7196 -0.0465
  834MOL0     H12569   7.049   1.117   1.715  0.7803 -0.6792 -1.5474
  834MOL0     H12570   6.609   1.861   1.364  1.5456 -0.0871  0.2357
  834MOL0     H12571   6.402   1.821   1.462 -0.1619 -0.5855 -2.3751
  834MOL0     H12572   6.197   1.528   1.772  1.5904  1.4850 -2.6278
  834MOL0     H12573   6.011   1.521   1.943  2.8621  2.9398  0.7942
  834MOL0     H12574   6.663   2.164   2.489 -1.6050  4.3307 -1.7568
  834MOL0     H12575   6.905   2.115   2.439 -1.5108 -0.9738  1.1079
  834MOL0     H12576   7.196   1.911   2.262  1.1092  1.0735  1.3312
  834MOL0     H12577   7.411   1.822   2.231 -0.5568  0.1644  0.5455
  834MOL0     H12578   7.779   1.913   1.958 -0.8296 -0.8508  1.4948
  834MOL0     H12579   7.684   2.051   1.907  3.5402 -0.4915 -1.8095
  834MOL0     H12580   7.673   1.881   1.732 -1.1143 -0.2303  0.4375
  834MOL0     H12581   7.517   1.882   1.803  1.0096  1.1652 -0.8160
  834MOL0     H12582   7.581   1.652   1.779 -1.3294  1.8570  0.2403
  834MOL0     H12583   7.592   1.687   1.952  0.6438 -0.9183  0.1304
  834MOL0     H12584   7.825   1.664   1.964 -1.1801 -1.5477 -0.1551
  834MOL0     H12585   7.761   1.528   1.875 -1.5538 -0.7502 -0.1909
  834MOL0     H12586   7.990   1.757   1.592  1.9689  1.6546  2.1852
  834MOL0     H12587   7.500   2.139   1.945 -0.6228  0.3608  0.2474
  834MOL0     H12588   7.239   2.325   1.985  1.7940 -0.6492  1.2181
  834MOL0     H12589   7.330   2.267   1.842  1.5918  2.9489  2.7261
  834MOL0     H12590   7.157   2.217   1.878 -0.9430  0.0933  2.1282
  835MOL0     O12591   5.365   8.476   8.238  0.3535  1.1907 -0.6223
  835MOL0     C12592   5.248   8.508   8.249  0.4589  0.3977 -0.1881
  835MOL0     O12593   5.186   8.601   8.174  0.4342 -0.0022 -0.1729
  835MOL0     C12594   5.249   8.699   8.111  0.0785 -0.4894  1.4305
  835MOL0     C12595   5.339   8.672   8.001 -0.1614 -0.0601 -1.1833
  835MOL0     C12596   5.399   8.775   7.931  1.8573 -0.3053  0.3738
  835MOL0     C12597   5.374   8.909   7.969  1.1685 -0.6249  0.4006
  835MOL0     O12598   5.427   9.017   7.918 -0.6179  0.1794  0.4088
  835MOL0     C12599   5.464   9.019   7.779  0.5341  0.1637  0.1691
  835MOL0     C12600   5.471   9.173   7.746 -0.0185  0.7129  0.2510
  835MOL0     C12601   5.613   9.213   7.779 -0.3905 -0.8482  1.1400
  835MOL0     C12602   5.640   9.354   7.732 -0.1910 -0.5923 -0.1957
  835MOL0     C12603   5.794   9.396   7.771 -0.0109 -0.1826  0.1967
  835MOL0     C12604   5.807   9.430   7.920  0.0837  0.6299 -0.1334
  835MOL0     C12605   5.731   9.549   7.980 -0.3158 -0.3367 -0.4180
  835MOL0     C12606   5.637   9.503   8.103 -1.0720  0.9097 -0.3133
  835MOL0     N12607   5.537   9.601   8.153  0.1642 -0.0735  0.6982
  835MOL0     C12608   5.566   9.736   8.164 -0.9411  0.2513  0.4182
  835MOL0     C12609   5.450   9.801   8.164 -0.7150 -0.6563  0.6898
  835MOL0     C12610   5.440   9.946   8.154  1.3245 -1.1353 -0.5000
  835MOL0     C12611   5.322   9.981   8.251 -0.4890  0.9901 -0.7054
  835MOL0     C12612   5.336   9.952   8.396  0.2677  0.0556  0.1454
  835MOL0     C12613   5.215  10.001   8.469 -0.3848  0.1830 -0.5706
  835MOL0     O12614   5.127   9.904   8.533 -0.6501 -0.7737  0.8177
  835MOL0     C12615   5.034   9.851   8.444  0.6013  0.6045 -0.2580
  835MOL0     C12616   5.070   9.725   8.387 -0.2536  0.3350  0.2268
  835MOL0     C12617   4.987   9.670   8.287 -0.4486 -0.0033  0.6509
  835MOL0     C12618   4.860   9.726   8.255  0.7930 -0.2998  0.9583
  835MOL0     C12619   4.773   9.679   8.140  0.9729  0.0910  0.0987
  835MOL0     O12620   4.649   9.745   8.126 -0.6527 -0.3267 -0.6455
  835MOL0     C12621   4.547   9.694   8.050  0.1674 -0.8119  0.3870
  835MOL0     C12622   4.489   9.779   7.963 -0.3547  0.2724 -0.3192
  835MOL0     C12623   4.392   9.741   7.873 -0.0971 -0.0470  0.5192
  835MOL0     C12624   4.329   9.614   7.891 -0.5818  0.2303  0.1983
  835MOL0     O12625   4.220   9.564   7.826  0.4090  0.3730 -0.0820
  835MOL0     C12626   4.157   9.641   7.725  0.3322  0.4453 -0.0083
  835MOL0     C12627   4.053   9.551   7.655  0.7328  0.2242  0.1607
  835MOL0     C12628   4.121   9.422   7.589 -0.2911 -0.2212 -0.8194
  835MOL0     C12629   4.023   9.325   7.522 -0.7373  0.0219  0.0468
  835MOL0     C12630   4.097   9.218   7.439 -1.2221  0.3139 -0.6500
  835MOL0     C12631   4.006   9.121   7.370  0.9667  0.1239  0.4437
  835MOL0     C12632   4.072   9.012   7.274  0.0142 -0.2087 -0.0729
  835MOL0     C12633   3.996   8.878   7.294 -0.6928 -0.1616  1.2830
  835MOL0    Cl12634   4.097   8.755   7.211 -0.4193 -0.1062  0.3769
  835MOL0     C12635   4.382   9.521   7.989  0.4713 -0.4749  0.5946
  835MOL0     C12636   4.487   9.568   8.070 -0.0356  0.6851  0.3570
  835MOL0     O12637   4.812   9.584   8.079 -0.1911  0.0205 -0.2132
  835MOL0     C12638   4.823   9.838   8.329  0.1910  0.3732 -0.7431
  835MOL0     C12639   4.912   9.904   8.417  0.3626 -0.0834 -0.4499
  835MOL0     N12640   5.346   9.706   8.166 -0.0170  0.4881  0.4192
  835MOL0     N12641   5.404   9.587   8.162  0.2367  0.4855  0.4096
  835MOL0     C12642   5.280   8.940   8.069 -0.9377 -0.1738 -0.7496
  835MOL0     C12643   5.214   8.833   8.136 -0.8751 -0.1407 -0.0701
  835MOL0     C12644   5.164   8.436   8.356 -0.0459 -0.1578 -0.5525
  835MOL0     C12645   5.175   8.296   8.360 -0.1668  0.2165  0.3135
  835MOL0     C12646   5.106   8.223   8.457  0.4339  1.5012 -1.3173
  835MOL0     C12647   5.006   8.283   8.537  0.0430 -0.1617  0.8607
  835MOL0     O12648   4.943   8.191   8.628  0.1943  0.7049  0.3921
  835MOL0     C12649   4.837   8.236   8.707  0.4658  0.4870  0.9612
  835MOL0     C12650   4.706   8.206   8.628 -0.5875  0.4449 -0.5177
  835MOL0     C12651   4.688   8.061   8.571 -0.0211 -0.3438 -0.2490
  835MOL0     C12652   4.661   8.053   8.416 -0.6088  0.7776 -0.6826
  835MOL0     C12653   4.771   8.108   8.343 -0.4104 -0.4144  0.6921
  835MOL0     C12654   4.845   8.187   8.280  0.2827  0.5956 -0.6051
  835MOL0     C12655   4.995   8.426   8.527 -0.4649  0.3804  0.0109
  835MOL0     C12656   5.066   8.497   8.438 -0.6124  0.1424 -0.1128
  835MOL0     C12657   5.037   8.643   8.442 -1.5380 -0.0730  1.0744
  835MOL0     H12658   5.362   8.572   7.965 -0.4735  0.3876 -2.7228
  835MOL0     H12659   5.460   8.747   7.846  2.3468 -0.6717  0.8391
  835MOL0     H12660   5.556   8.961   7.765 -1.7129 -3.9571  0.8236
  835MOL0     H12661   5.392   8.959   7.722  1.7546 -0.2819 -0.9536
  835MOL0     H12662   5.402   9.234   7.805  1.3253 -0.0394  2.7537
  835MOL0     H12663   5.456   9.181   7.638  5.1249  1.9422 -0.6424
  835MOL0     H12664   5.691   9.140   7.754  0.7835  0.0339  2.1362
  835MOL0     H12665   5.619   9.223   7.888  1.6569  1.0478  0.9238
  835MOL0     H12666   5.614   9.359   7.626 -1.5350  0.0264  0.1474
  835MOL0     H12667   5.574   9.427   7.779 -2.4588 -2.7873  0.2501
  835MOL0     H12668   5.857   9.312   7.741  0.8608  0.5700 -0.1228
  835MOL0     H12669   5.830   9.477   7.708  2.3148 -0.9637  0.4189
  835MOL0     H12670   5.776   9.341   7.975  0.2906 -0.5048 -1.7856
  835MOL0     H12671   5.916   9.434   7.933  0.4079 -3.0015 -0.6942
  835MOL0     H12672   5.666   9.595   7.905 -1.9171  0.4885  1.3948
  835MOL0     H12673   5.800   9.625   8.017 -0.5553 -0.3218  0.0027
  835MOL0     H12674   5.587   9.411   8.073 -0.0518  0.5736 -1.0458
  835MOL0     H12675   5.691   9.477   8.194 -2.6180  1.0889  0.6791
  835MOL0     H12676   5.661   9.779   8.133  0.1190 -3.8400 -2.8868
  835MOL0     H12677   5.538   9.989   8.176  1.4044 -0.3732 -2.2225
  835MOL0     H12678   5.416   9.976   8.052  1.5837 -1.4685 -0.6613
  835MOL0     H12679   5.309  10.089   8.250 -3.4404  0.8006  1.9479
  835MOL0     H12680   5.224   9.942   8.224  1.2197 -1.9517 -3.4502
  835MOL0     H12681   5.426  10.002   8.432  2.2596 -2.4676 -1.0675
  835MOL0     H12682   5.365   9.850   8.420  0.2719 -0.6380 -2.4541
  835MOL0     H12683   5.159  10.070   8.404 -0.2980 -0.4204 -1.3077
  835MOL0     H12684   5.233  10.074   8.548 -0.8275 -1.0425  0.6989
  835MOL0     H12685   5.158   9.668   8.415  1.4240  1.8524 -1.5854
  835MOL0     H12686   5.023   9.580   8.239 -1.0474  0.2202 -0.2298
  835MOL0     H12687   4.537   9.877   7.964 -0.0189  0.1102  0.1945
  835MOL0     H12688   4.365   9.806   7.790 -2.0599 -2.6194 -1.0093
  835MOL0     H12689   4.110   9.731   7.765 -1.7652  0.2891 -1.9146
  835MOL0     H12690   4.229   9.666   7.647  1.8850 -2.0564  0.4951
  835MOL0     H12691   3.985   9.520   7.735  2.3227  1.3863  2.0710
  835MOL0     H12692   3.993   9.603   7.580 -1.1957 -2.4133 -0.2650
  835MOL0     H12693   4.195   9.456   7.515  3.6705  0.2257  2.9299
  835MOL0     H12694   4.184   9.369   7.661 -0.6229  1.0890  0.4736
  835MOL0     H12695   3.969   9.394   7.457  0.4853 -0.1904 -1.2338
  835MOL0     H12696   3.960   9.278   7.598  0.8504 -1.2363  0.6494
  835MOL0     H12697   4.157   9.166   7.514  1.2101  1.7918 -1.4526
  835MOL0     H12698   4.154   9.261   7.356  1.4628 -0.3721  0.7509
  835MOL0     H12699   3.943   9.075   7.447  2.6870  0.6879  2.2765
  835MOL0     H12700   3.934   9.175   7.307  0.5306  0.7034  1.4174
  835MOL0     H12701   4.172   8.996   7.316 -0.7533  1.6670  2.8061
  835MOL0     H12702   4.073   9.031   7.167  1.6578  0.1704 -0.0062
  835MOL0     H12703   3.998   8.837   7.395  1.4075 -3.4210  0.0978
  835MOL0     H12704   3.894   8.885   7.254  1.2404  3.2412 -4.1234
  835MOL0     H12705   4.334   9.425   8.003  0.3736 -0.3379  1.2268
  835MOL0     H12706   4.518   9.508   8.155 -3.0211 -1.3816  0.1344
  835MOL0     H12707   4.725   9.878   8.307 -0.6854 -0.1659  1.8042
  835MOL0     H12708   4.877   9.997   8.461  1.8682  0.0149  0.5939
  835MOL0     H12709   5.262   9.041   8.102  1.6194 -0.3330  1.4473
  835MOL0     H12710   5.143   8.862   8.214 -2.7609 -1.3293 -1.2833
  835MOL0     H12711   5.239   8.233   8.299 -1.8638 -0.5369 -0.7685
  835MOL0     H12712   5.132   8.118   8.465 -0.5799  1.3508  1.2453
  835MOL0     H12713   4.857   8.343   8.718  0.3946  0.6329 -0.2801
  835MOL0     H12714   4.818   8.191   8.806 -1.3315 -0.4812  0.2341
  835MOL0     H12715   4.701   8.280   8.548 -2.9369  1.7184  0.6922
  835MOL0     H12716   4.626   8.236   8.696 -0.1564  2.9335 -1.0055
  835MOL0     H12717   4.603   8.012   8.617 -0.5853  1.2209  0.4473
  835MOL0     H12718   4.770   7.993   8.598  1.7516  1.2575 -1.3118
  835MOL0     H12719   4.666   7.947   8.390  1.8004  1.1875 -2.2725
  835MOL0     H12720   4.558   8.085   8.396 -1.3802 -0.4309  1.0814
  835MOL0     H12721   4.908   8.254   8.226  3.8135 -1.2101  0.9811
  835MOL0     H12722   4.926   8.474   8.595 -0.7053  0.5445 -0.3464
  835MOL0     H12723   4.982   8.682   8.357 -0.0678 -1.8806 -0.8011
  835MOL0     H12724   4.987   8.660   8.538 -1.4483  1.0944  0.9198
  835MOL0     H12725   5.134   8.693   8.454 -0.8045 -0.3262 -2.6103
  836MOL0     O12726   5.435  10.632   9.134 -0.0415 -0.7623  0.1967
  836MOL0     C12727   5.324  10.669   9.183  0.1700  0.6367 -1.0466
  836MOL0     O12728   5.215  10.585   9.209  0.4871 -0.2827 -0.0102
  836MOL0     C12729   5.207  10.447   9.182  0.4632  0.0343 -0.1348
  836MOL0     C12730   5.311  10.378   9.116  0.1545  1.1981 -0.7571
  836MOL0     C12731   5.304  10.238   9.112 -0.0892 -0.5216  0.0059
  836MOL0     C12732   5.192  10.175   9.168 -0.9532  0.3803 -0.2195
  836MOL0     O12733   5.190  10.037   9.151  0.0222 -0.2447  0.3722
  836MOL0     C12734   5.121   9.944   9.232 -0.1189 -0.1563 -0.0024
  836MOL0     C12735   5.190   9.940   9.370 -0.1535  0.5544 -0.0801
  836MOL0     C12736   5.099   9.901   9.481 -0.1598 -0.4477  0.3054
  836MOL0     C12737   5.187   9.867   9.605  0.1931  1.0205 -0.0359
  836MOL0     C12738   5.083   9.847   9.714 -0.0540 -0.1282  0.0087
  836MOL0     C12739   5.142   9.828   9.859  0.7048 -0.0092  0.8008
  836MOL0     C12740   5.050   9.888   9.968 -0.6928  0.1285  0.3743
  836MOL0     C12741   4.914   9.824   9.967  0.1644 -0.5488  0.1686
  836MOL0     N12742   4.847   9.850  10.091 -0.2235 -0.0533  0.2044
  836MOL0     C12743   4.763   9.765  10.164 -0.5095  0.8102  0.7756
  836MOL0     C12744   4.717   9.842  10.266 -1.0815  0.3004  0.4103
  836MOL0     C12745   4.622   9.783  10.375  0.2687  0.8295  0.3353
  836MOL0     C12746   4.481   9.824  10.333 -1.0085  0.6707  0.5396
  836MOL0     C12747   4.444   9.981  10.344  0.0590  0.2869  0.1169
  836MOL0     C12748   4.297   9.999  10.337  0.6822 -0.0173 -0.1781
  836MOL0     O12749   4.223   9.919  10.427 -0.3310  0.4551 -0.5874
  836MOL0     C12750   4.200   9.969  10.561  0.1866  0.4943  0.5730
  836MOL0     C12751   4.216  10.109  10.608 -0.1182  0.8366  0.3598
  836MOL0     C12752   4.204  10.138  10.742 -0.2703 -0.8521 -0.4885
  836MOL0     C12753   4.143  10.052  10.828 -0.7035  0.0264  0.3840
  836MOL0     C12754   4.113  10.095  10.967  0.5173 -0.7219  1.2618
  836MOL0     O12755   4.163  10.212  11.021  0.0249  0.2038 -0.6308
  836MOL0     C12756   4.117  10.247  11.145  0.4150 -0.4110  0.2722
  836MOL0     C12757   4.205  10.237  11.250 -0.2478 -0.7230 -0.9114
  836MOL0     C12758   4.160  10.267  11.381 -0.1773  0.0201  0.2283
  836MOL0     C12759   4.031  10.317  11.415  0.2122 -0.4327  1.0998
  836MOL0     O12760   3.996  10.370  11.533 -0.2888 -0.3467  0.4173
  836MOL0     C12761   4.035  10.286  11.641 -0.0268  1.3748 -0.0478
  836MOL0     C12762   3.909  10.250  11.715  0.0698 -0.2556 -0.2321
  836MOL0     C12763   3.929  10.127  11.806  0.2804  0.4218 -0.1778
  836MOL0     C12764   4.028  10.152  11.925  1.5375 -0.0827  0.1610
  836MOL0     C12765   3.972  10.269  12.008 -0.7782 -0.3185  0.1227
  836MOL0     C12766   4.048  10.303  12.128 -0.6347 -0.4465 -0.8319
  836MOL0     C12767   3.968  10.413  12.207 -0.4611 -0.1763  0.2412
  836MOL0     C12768   4.047  10.489  12.305 -0.0410 -0.4947 -0.3233
  836MOL0    Cl12769   4.103  10.371  12.416 -0.1961 -0.3577 -0.0254
  836MOL0     C12770   3.944  10.326  11.303 -0.7575  0.0502 -0.5611
  836MOL0     C12771   3.980  10.290  11.172 -0.3594  0.3773 -1.1857
  836MOL0     O12772   4.041  10.019  11.029  0.6614  0.1203 -0.0210
  836MOL0     C12773   4.114   9.919  10.779  1.5318 -0.2839  0.3871
  836MOL0     C12774   4.157   9.880  10.657  0.5264 -0.2143  0.5284
  836MOL0     N12775   4.771   9.969  10.254 -0.1515  0.6407 -0.1327
  836MOL0     N12776   4.848   9.974  10.150  0.0196 -0.7689 -0.3735
  836MOL0     C12777   5.086  10.248   9.233 -0.1908  0.9511 -0.4002
  836MOL0     C12778   5.093  10.386   9.240 -1.1490 -0.8499  0.1304
  836MOL0     C12779   5.305  10.810   9.221 -0.0648  0.2339 -0.4028
  836MOL0     C12780   5.177  10.855   9.218  0.1932  0.0099  0.3276
  836MOL0     C12781   5.147  10.990   9.209  0.1167 -0.0189 -1.2444
  836MOL0     C12782   5.248  11.088   9.213  0.2109 -0.7752  0.7529
  836MOL0     O12783   5.228  11.226   9.214 -0.4556 -0.0242 -0.4793
  836MOL0     C12784   5.099  11.278   9.195 -0.0098 -0.1462 -0.1323
  836MOL0     C12785   5.114  11.436   9.194 -0.1062  0.5507  0.3588
  836MOL0     C12786   4.984  11.505   9.158  0.2598  0.0755  0.4465
  836MOL0     C12787   4.896  11.529   9.276 -0.2620 -0.4052 -0.3970
  836MOL0     C12788   4.770  11.600   9.247 -1.3304  0.6989  0.2659
  836MOL0     C12789   4.657  11.643   9.229  0.2910  0.6979 -0.4207
  836MOL0     C12790   5.373  11.043   9.243 -0.1007  1.0452  0.5382
  836MOL0     C12791   5.409  10.902   9.243 -0.3635 -1.2567 -0.0836
  836MOL0     C12792   5.556  10.884   9.268 -0.0052  0.1008  1.0739
  836MOL0     H12793   5.408  10.414   9.086  1.4781 -1.5538 -0.0772
  836MOL0     H12794   5.378  10.181   9.056 -0.6973 -1.0009 -0.3168
  836MOL0     H12795   5.014   9.962   9.233 -0.2996 -0.9741 -1.4889
  836MOL0     H12796   5.137   9.847   9.184  2.1294 -0.2001  0.7164
  836MOL0     H12797   5.249  10.029   9.393  1.3486 -0.4508  0.0612
  836MOL0     H12798   5.264   9.861   9.361  0.5834  1.2268 -0.0016
  836MOL0     H12799   5.044   9.811   9.453 -0.8437 -1.0024  3.1340
  836MOL0     H12800   5.030   9.984   9.500  2.9245  1.5450  4.2017
  836MOL0     H12801   5.251   9.779   9.592  0.5015  1.0550  1.1936
  836MOL0     H12802   5.249   9.957   9.615 -1.3701  2.3436 -1.6446
  836MOL0     H12803   5.029   9.943   9.715  0.8089  0.3687  0.4181
  836MOL0     H12804   5.030   9.759   9.676  0.8142  0.0911 -1.7862
  836MOL0     H12805   5.168   9.724   9.881  1.5698  0.5156  2.4859
  836MOL0     H12806   5.237   9.883   9.854  1.3291 -1.1664 -0.8006
  836MOL0     H12807   5.050   9.995   9.947 -1.0598 -0.2579 -1.7867
  836MOL0     H12808   5.110   9.877  10.059  0.3236  1.3943 -0.1144
  836MOL0     H12809   4.856   9.845   9.877 -1.1115 -2.7530  0.3854
  836MOL0     H12810   4.922   9.717   9.946 -3.7584 -1.1065  0.5801
  836MOL0     H12811   4.751   9.658  10.150  3.4763 -0.2617  3.8200
  836MOL0     H12812   4.644   9.677  10.386  2.8111  1.3855  1.3502
  836MOL0     H12813   4.635   9.830  10.473  5.5891 -3.0028  1.9384
  836MOL0     H12814   4.470   9.802  10.226  3.2415  1.6020 -0.2791
  836MOL0     H12815   4.410   9.770  10.396 -1.3622  1.6346  0.9865
  836MOL0     H12816   4.487  10.040  10.262 -0.0510  1.4513  0.8883
  836MOL0     H12817   4.478  10.021  10.439  0.0044 -1.1454  0.7677
  836MOL0     H12818   4.278   9.981  10.231  2.4646 -0.6881 -0.4109
  836MOL0     H12819   4.273  10.105  10.348  0.9765  0.8888 -5.7066
  836MOL0     H12820   4.272  10.183  10.551  1.2760  1.8184  2.8253
  836MOL0     H12821   4.219  10.240  10.776  0.2549 -0.6233 -1.3856
  836MOL0     H12822   4.306  10.197  11.245 -0.1496 -0.5629 -0.2844
  836MOL0     H12823   4.234  10.254  11.459  1.2601  2.9259 -0.5012
  836MOL0     H12824   4.082  10.190  11.620 -1.8269  0.3344  0.5025
  836MOL0     H12825   4.113  10.330  11.704  1.2309  0.2772 -0.7812
  836MOL0     H12826   3.865  10.340  11.758 -0.6584 -0.6630 -0.1195
  836MOL0     H12827   3.833  10.215  11.645  0.1352 -3.0295  0.9513
  836MOL0     H12828   3.832  10.103  11.852  0.6222 -0.8674 -0.0775
  836MOL0     H12829   3.972  10.045  11.748  0.5105  1.7761 -1.9895
  836MOL0     H12830   4.130  10.169  11.890  1.2154  3.7756  0.6523
  836MOL0     H12831   4.044  10.071  11.997  0.4187 -0.4559  0.0083
  836MOL0     H12832   3.870  10.245  12.039 -0.8373  0.7092  0.7685
  836MOL0     H12833   3.972  10.355  11.941 -2.0381 -0.0069  0.4981
  836MOL0     H12834   4.056  10.217  12.196 -1.0730  1.6073  2.0174
  836MOL0     H12835   4.149  10.333  12.098  0.1723 -0.8118  1.2696
  836MOL0     H12836   3.877  10.380  12.257 -1.4959  3.1461  0.7964
  836MOL0     H12837   3.946  10.490  12.132 -2.2434 -0.2732  0.6281
  836MOL0     H12838   4.135  10.540  12.264  0.7514 -0.1477  1.7099
  836MOL0     H12839   3.988  10.566  12.355  0.9427 -0.1687  0.3546
  836MOL0     H12840   3.844  10.364  11.323  0.4842  2.8647  0.8678
  836MOL0     H12841   3.917  10.295  11.084 -1.3390  4.1210 -0.4398
  836MOL0     H12842   4.054   9.854  10.842 -0.5919  1.0582 -0.1532
  836MOL0     H12843   4.143   9.777  10.624 -0.8350  0.5225 -1.3926
  836MOL0     H12844   4.999  10.193   9.268  0.4684  1.9425  3.1571
  836MOL0     H12845   5.016  10.441   9.291 -2.9712 -2.9948 -0.1490
  836MOL0     H12846   5.088  10.794   9.218  0.2848 -0.1609 -1.0328
  836MOL0     H12847   5.042  11.015   9.207  0.2420  0.5585 -0.9804
  836MOL0     H12848   5.028  11.235   9.265 -2.1846  0.5030 -1.8357
  836MOL0     H12849   5.060  11.241   9.100  0.8055  1.0910 -0.9739
  836MOL0     H12850   5.187  11.460   9.116  0.8348  4.7719  2.2175
  836MOL0     H12851   5.151  11.482   9.286 -1.8164  1.5156  0.6066
  836MOL0     H12852   4.932  11.445   9.082 -1.9031  2.1459  0.1863
  836MOL0     H12853   5.003  11.603   9.113  0.7319  0.0832  0.6610
  836MOL0     H12854   4.876  11.434   9.327 -2.0138  0.0103 -0.2638
  836MOL0     H12855   4.945  11.595   9.348 -1.4198 -1.0964  1.0527
  836MOL0     H12856   4.553  11.669   9.229  0.8791  3.4051  0.7053
  836MOL0     H12857   5.459  11.108   9.259  1.2676 -0.6851  0.5313
  836MOL0     H12858   5.596  10.944   9.350 -0.0419 -0.7058  1.6965
  836MOL0     H12859   5.570  10.779   9.294 -3.5541 -1.2945 -1.7443
  836MOL0     H12860   5.605  10.900   9.171 -0.7592 -4.6795 -0.3619
  837MOL0     O12861   1.059   3.804   0.290  0.6715 -0.1326 -0.2111
  837MOL0     C12862   0.990   3.756   0.198 -0.4805 -0.8233  0.2621
  837MOL0     O12863   0.949   3.839   0.089  0.4471  1.1354 -0.3460
  837MOL0     C12864   0.997   3.960   0.078 -0.8792 -0.0834  0.1060
  837MOL0     C12865   1.127   4.010   0.111  0.7817 -0.4866  0.0285
  837MOL0     C12866   1.173   4.136   0.088 -0.2051 -0.0296 -1.0422
  837MOL0     C12867   1.081   4.230   0.037  0.5654  0.7473  0.6915
  837MOL0     O12868   1.106   4.363   0.022  0.4285  0.2526 -0.4026
  837MOL0     C12869   1.226   4.400  -0.049  0.0599 -0.0446 -0.4576
  837MOL0     C12870   1.264   4.547  -0.027 -0.3987  0.8740  0.6059
  837MOL0     C12871   1.341   4.617  -0.148  0.0568  0.0284  0.7236
  837MOL0     C12872   1.341   4.770  -0.128  0.1330 -0.2878  0.3683
  837MOL0     C12873   1.351   4.848  -0.263  0.9260  0.1606 -0.1255
  837MOL0     C12874   1.256   4.954  -0.280  0.2497 -0.3682 -0.0519
  837MOL0     C12875   1.292   5.071  -0.200 -0.6287 -0.0886  0.5237
  837MOL0     C12876   1.183   5.183  -0.216 -0.2952  0.2311 -0.0858
  837MOL0     N12877   1.079   5.170  -0.109  0.1526  0.5496  0.7799
  837MOL0     C12878   1.108   5.212   0.017 -0.8560 -0.6803  0.5074
  837MOL0     C12879   1.006   5.176   0.092  0.6132 -0.0235  0.4303
  837MOL0     C12880   0.989   5.220   0.236  1.7661 -0.0118 -0.3661
  837MOL0     C12881   0.996   5.375   0.248 -0.5657  0.7238  0.1219
  837MOL0     C12882   1.020   5.424   0.393 -0.2699 -0.1855  0.7028
  837MOL0     C12883   1.006   5.580   0.389  0.3509 -0.0772  0.2719
  837MOL0     O12884   0.892   5.630   0.318 -1.5634  0.7787 -0.5772
  837MOL0     C12885   0.880   5.762   0.297  0.4044 -0.6825  0.5117
  837MOL0     C12886   0.924   5.857   0.385  0.6391  0.3774 -0.8112
  837MOL0     C12887   0.880   5.990   0.365  0.5980 -0.4333  0.3168
  837MOL0     C12888   0.791   6.026   0.259  1.0458 -0.8137  0.4079
  837MOL0     C12889   0.726   6.156   0.258  0.2207 -0.7101  0.2503
  837MOL0     O12890   0.624   6.177   0.165  0.9130 -0.2968  0.4676
  837MOL0     C12891   0.573   6.301   0.147  0.2055  0.3420 -0.6219
  837MOL0     C12892   0.627   6.382   0.058 -0.8005  0.0759  0.2796
  837MOL0     C12893   0.594   6.519   0.047  0.1661  0.0317 -0.1705
  837MOL0     C12894   0.494   6.564   0.139  0.8744 -0.0444 -0.0463
  837MOL0     O12895   0.455   6.695   0.149 -0.1264  0.4343 -0.2811
  837MOL0     C12896   0.457   6.780   0.030  1.1661 -0.2736  0.2738
  837MOL0     C12897   0.388   6.912   0.038 -0.1258  0.0045  0.5753
  837MOL0     C12898   0.457   6.998   0.149  0.3708 -0.8544 -0.2478
  837MOL0     C12899   0.370   7.120   0.198  0.8874 -0.7261 -0.3900
  837MOL0     C12900   0.332   7.220   0.088  0.4652  0.8065  0.7002
  837MOL0     C12901   0.232   7.324   0.134  0.4613 -0.6036  0.3899
  837MOL0     C12902   0.276   7.419   0.248  0.5184  0.7798 -1.1799
  837MOL0     C12903   0.216   7.558   0.235  0.1206 -0.5775 -0.3587
  837MOL0    Cl12904   0.221   7.661   0.383  0.0876 -0.5864  0.0863
  837MOL0     C12905   0.440   6.483   0.231 -0.7103  0.2681 -0.0377
  837MOL0     C12906   0.490   6.354   0.238  0.4970  0.1682 -0.1982
  837MOL0     O12907   0.760   6.244   0.341 -0.4547  0.4658 -0.5224
  837MOL0     C12908   0.759   5.934   0.157 -0.5756  0.1659  0.0655
  837MOL0     C12909   0.802   5.800   0.185 -1.2044  0.1649  0.4732
  837MOL0     N12910   0.907   5.127   0.006  0.4275  0.2819 -0.0681
  837MOL0     N12911   0.955   5.117  -0.117 -0.3071 -0.8637  1.3155
  837MOL0     C12912   0.957   4.178  -0.002  0.3538  0.0550  0.4491
  837MOL0     C12913   0.917   4.053   0.014 -0.2324 -0.0880  0.7638
  837MOL0     C12914   0.957   3.614   0.208 -0.7719  0.4029 -0.0806
  837MOL0     C12915   0.892   3.553   0.095 -0.0023 -0.1981  0.1158
  837MOL0     C12916   0.860   3.416   0.092 -0.5558 -0.3146  0.4594
  837MOL0     C12917   0.884   3.333   0.201 -0.2613 -0.0213  0.2100
  837MOL0     O12918   0.863   3.203   0.175  0.1745  0.3437  0.0761
  837MOL0     C12919   0.895   3.104   0.271 -0.5488 -0.4894  1.1750
  837MOL0     C12920   0.932   2.970   0.198 -0.3778  0.2536 -0.2070
  837MOL0     C12921   0.803   2.893   0.146 -0.1794  0.2179 -0.0552
  837MOL0     C12922   0.772   2.921  -0.003  0.4613 -0.1195 -0.3946
  837MOL0     C12923   0.873   2.851  -0.093  0.6357 -0.8735 -0.0564
  837MOL0     C12924   0.960   2.811  -0.164 -0.7602 -0.4413  0.2769
  837MOL0     C12925   0.952   3.387   0.310  0.4080  0.4382 -0.0838
  837MOL0     C12926   0.987   3.524   0.319 -0.3853  0.0529 -0.1400
  837MOL0     C12927   1.064   3.567   0.444 -0.9124  0.0573  0.0226
  837MOL0     H12928   1.203   3.946   0.154  0.6566 -0.2136  0.6644
  837MOL0     H12929   1.264   4.181   0.127 -0.2636 -0.8881  0.0979
  837MOL0     H12930   1.315   4.337  -0.041 -0.2978 -0.8774 -2.5485
  837MOL0     H12931   1.207   4.389  -0.156 -1.7175  1.5364 -0.3574
  837MOL0     H12932   1.318   4.565   0.066 -2.4659  1.7555  1.7175
  837MOL0     H12933   1.169   4.600  -0.014 -0.7668  0.0074  1.5353
  837MOL0     H12934   1.286   4.594  -0.240 -3.3129  1.4476  2.1923
  837MOL0     H12935   1.441   4.573  -0.156 -0.8201 -2.0013 -0.0111
  837MOL0     H12936   1.248   4.802  -0.080  0.0839  0.7953 -0.4017
  837MOL0     H12937   1.430   4.799  -0.071  2.0501  0.0762 -2.6273
  837MOL0     H12938   1.451   4.889  -0.272  0.7690  0.4797 -0.4776
  837MOL0     H12939   1.342   4.772  -0.342 -3.2142 -2.0782  2.1554
  837MOL0     H12940   1.239   4.985  -0.384 -0.2642 -0.1046  0.1070
  837MOL0     H12941   1.160   4.931  -0.232  0.6567  2.2135  2.2408
  837MOL0     H12942   1.388   5.101  -0.243 -2.0348 -0.1150 -3.0271
  837MOL0     H12943   1.306   5.031  -0.099  0.4945 -1.0267  0.0245
  837MOL0     H12944   1.223   5.285  -0.212 -2.9229  1.3670 -0.8158
  837MOL0     H12945   1.127   5.171  -0.309 -0.3016 -1.7525  0.1254
  837MOL0     H12946   1.184   5.281   0.051 -1.5705  1.4070 -1.7924
  837MOL0     H12947   0.896   5.180   0.278  2.7557 -0.5354  1.4343
  837MOL0     H12948   1.067   5.173   0.296 -1.7183 -0.5686  4.3318
  837MOL0     H12949   1.089   5.401   0.197  1.4587  1.1207  3.6883
  837MOL0     H12950   0.909   5.422   0.202 -2.2489  0.5690  2.9151
  837MOL0     H12951   1.119   5.391   0.423  0.6659  0.5337 -1.4181
  837MOL0     H12952   0.936   5.388   0.453 -0.5699  1.0064  1.0331
  837MOL0     H12953   1.092   5.610   0.329 -0.2534 -1.6669 -1.4924
  837MOL0     H12954   1.001   5.616   0.492  2.0265  2.1829 -0.3593
  837MOL0     H12955   0.972   5.832   0.479 -1.0334 -1.2063 -0.3111
  837MOL0     H12956   0.915   6.059   0.442 -0.4960 -0.4293  0.8399
  837MOL0     H12957   0.707   6.339  -0.001 -1.1116  1.0244 -0.8921
  837MOL0     H12958   0.658   6.590  -0.005  0.4792 -0.4462 -0.4359
  837MOL0     H12959   0.564   6.790   0.011  0.8017 -0.4389 -2.2971
  837MOL0     H12960   0.400   6.717  -0.039 -1.4346 -3.4026  4.7539
  837MOL0     H12961   0.415   6.955  -0.058  4.5454  0.2007  1.7545
  837MOL0     H12962   0.279   6.909   0.047 -0.2427 -1.8501 -0.8762
  837MOL0     H12963   0.496   6.932   0.227 -0.5785 -1.2679 -0.1094
  837MOL0     H12964   0.544   7.042   0.100  0.2601  2.2541  2.0609
  837MOL0     H12965   0.427   7.166   0.280 -0.6936  0.3032  0.1858
  837MOL0     H12966   0.274   7.083   0.232 -1.1874  3.7968 -0.5489
  837MOL0     H12967   0.284   7.169   0.005  2.5587 -1.6001  0.8494
  837MOL0     H12968   0.424   7.263   0.046  1.5296  0.0062  2.1204
  837MOL0     H12969   0.196   7.383   0.049 -0.1333 -1.9862 -0.3529
  837MOL0     H12970   0.149   7.267   0.177 -1.0589 -0.2356 -1.8506
  837MOL0     H12971   0.385   7.428   0.258  0.4685 -0.3646  1.2250
  837MOL0     H12972   0.239   7.386   0.346  1.9509  0.6267 -0.6675
  837MOL0     H12973   0.276   7.615   0.164  1.5910  0.6997  1.7924
  837MOL0     H12974   0.108   7.563   0.214  0.0949 -0.6049 -0.2367
  837MOL0     H12975   0.378   6.529   0.307  0.0756 -0.3365  1.0110
  837MOL0     H12976   0.461   6.283   0.315  0.2168 -1.0888 -1.4182
  837MOL0     H12977   0.702   5.955   0.067 -0.8426  3.4384  0.8824
  837MOL0     H12978   0.770   5.710   0.134 -1.6698  0.6858 -0.1670
  837MOL0     H12979   0.878   4.240  -0.045 -0.6404 -0.5194  1.4008
  837MOL0     H12980   0.815   4.025  -0.011  0.1260  0.5759 -1.7085
  837MOL0     H12981   0.881   3.616   0.007  1.5366  0.0584  0.0808
  837MOL0     H12982   0.821   3.370   0.002 -0.4845 -3.0014  1.7112
  837MOL0     H12983   0.803   3.086   0.327 -0.1041  0.9148  2.4189
  837MOL0     H12984   0.982   3.134   0.330 -0.6028  2.6171 -0.0984
  837MOL0     H12985   0.991   2.904   0.262  1.1608  1.6305 -0.1049
  837MOL0     H12986   0.994   3.009   0.117 -0.2468  1.0340  0.2493
  837MOL0     H12987   0.718   2.939   0.198  0.1854  0.5781  0.2282
  837MOL0     H12988   0.812   2.784   0.153  0.6743  0.3796  2.4017
  837MOL0     H12989   0.673   2.879  -0.020  1.3733 -1.9063 -1.5395
  837MOL0     H12990   0.772   3.029  -0.021 -0.9862  0.2676  1.6399
  837MOL0     H12991   1.040   2.772  -0.224 -2.8370 -5.8945  0.5227
  837MOL0     H12992   0.990   3.327   0.392 -0.7470 -1.1771 -0.6787
  837MOL0     H12993   1.003   3.630   0.508  0.2393  1.9540 -0.6756
  837MOL0     H12994   1.082   3.485   0.515  0.9195  1.5696  1.3985
  837MOL0     H12995   1.158   3.618   0.423 -0.3539 -0.9606 -0.0417
  838MOL0     O12996  11.204   8.141   0.953 -0.7001  0.6234 -1.2486
  838MOL0     C12997  11.236   8.081   0.854  0.2397 -1.4428 -0.3160
  838MOL0     O12998  11.350   8.105   0.781  0.8232 -0.1744  0.3636
  838MOL0     C12999  11.429   8.197   0.825 -0.6705 -0.2727 -0.2524
  838MOL0     C13000  11.517   8.178   0.932  0.4201  0.2289 -0.0828
  838MOL0     C13001  11.603   8.281   0.974 -0.6669  0.2058  0.4638
  838MOL0     C13002  11.603   8.400   0.906  0.5415 -0.3508  0.2149
  838MOL0     O13003  11.694   8.493   0.949  0.6458  0.2472 -0.5065
  838MOL0     C13004  11.707   8.612   0.870  0.4819 -0.0213 -0.9564
  838MOL0     C13005  11.804   8.698   0.955 -0.1425 -0.5741  0.2793
  838MOL0     C13006  11.846   8.832   0.891 -0.3350 -0.7157  0.1960
  838MOL0     C13007  11.949   8.884   0.979 -0.2590 -0.4420  0.1758
  838MOL0     C13008  12.041   8.989   0.906 -0.2809  1.6093 -0.8358
  838MOL0     C13009  12.097   9.094   1.009  0.1334 -0.8066 -0.6374
  838MOL0     C13010  12.161   9.216   0.946  0.2168  0.1924  0.5689
  838MOL0     C13011  12.193   9.313   1.066  0.0536 -0.0507  0.5775
  838MOL0     N13012  12.314   9.276   1.139 -0.8763  0.6863  0.7182
  838MOL0     C13013  12.318   9.209   1.261 -0.6585 -0.7738  0.5685
  838MOL0     C13014  12.447   9.218   1.300  0.7259 -0.1812  1.0333
  838MOL0     C13015  12.498   9.169   1.424  0.1096  0.3398  0.2884
  838MOL0     C13016  12.650   9.132   1.422 -0.0286 -0.8422  0.2286
  838MOL0     C13017  12.685   9.000   1.355  0.4052 -0.5539  0.0917
  838MOL0     C13018  12.817   8.949   1.423 -0.5804  0.1065 -0.2444
  838MOL0     O13019  12.922   9.050   1.389 -0.3265  0.4302  0.4407
  838MOL0     C13020  13.035   9.080   1.464  0.1872 -0.4854 -0.0056
  838MOL0     C13021  13.078   9.005   1.572 -0.6524  0.1595  0.2600
  838MOL0     C13022  13.192   9.028   1.641 -0.9102  0.0785  0.7753
  838MOL0     C13023  13.271   9.144   1.604 -0.7029  0.2943 -0.8875
  838MOL0     C13024  13.393   9.169   1.693 -0.3235  0.7349  0.0057
  838MOL0     O13025  13.404   9.109   1.814  0.6709 -0.2757 -0.2472
  838MOL0     C13026  13.512   9.146   1.886 -0.4849 -0.5859  0.5570
  838MOL0     C13027  13.650   9.113   1.853 -0.1722 -0.7678 -1.3112
  838MOL0     C13028  13.752   9.167   1.933 -0.9716 -0.8474  0.1340
  838MOL0     C13029  13.731   9.253   2.036  0.1924 -0.5311  0.3197
  838MOL0     O13030  13.837   9.305   2.105 -0.5693 -0.3949  0.1261
  838MOL0     C13031  13.930   9.394   2.032  0.1247 -0.3345 -0.0864
  838MOL0     C13032  13.953   9.518   2.114 -0.1351 -0.2248  0.0090
  838MOL0     C13033  14.028   9.486   2.241 -0.9648  0.4757  0.2353
  838MOL0     C13034  14.005   9.575   2.362 -1.0581  0.0148 -1.4821
  838MOL0     C13035  14.078   9.536   2.491  0.4757  0.3383  0.3053
  838MOL0     C13036  14.087   9.657   2.590  0.7603 -0.0933 -0.3303
  838MOL0     C13037  14.137   9.599   2.729  0.4158  0.3892 -0.6634
  838MOL0     C13038  14.164   9.718   2.826 -0.2828 -0.9458  0.1276
  838MOL0    Cl13039  14.196   9.649   2.999 -0.0046  0.0887  0.4466
  838MOL0     C13040  13.597   9.292   2.061 -0.2281 -0.3715  1.1701
  838MOL0     C13041  13.494   9.236   1.988  0.0888 -0.4959 -0.3130
  838MOL0     O13042  13.484   9.232   1.637  0.9170  0.6410  0.3023
  838MOL0     C13043  13.229   9.230   1.506  0.1737 -0.1368 -0.3478
  838MOL0     C13044  13.106   9.198   1.439  0.0923  0.9949  0.6026
  838MOL0     N13045  12.512   9.311   1.220 -0.5724  1.1740  0.0081
  838MOL0     N13046  12.432   9.339   1.124 -0.3076 -0.4654  0.1544
  838MOL0     C13047  11.516   8.417   0.792 -0.2475 -0.1642  0.1922
  838MOL0     C13048  11.428   8.321   0.752  0.3825  0.9446 -0.2062
  838MOL0     C13049  11.147   7.965   0.822 -0.4308  0.1856 -1.3043
  838MOL0     C13050  11.024   7.942   0.892  0.3363  0.0023 -0.1897
  838MOL0     C13051  10.936   7.846   0.858  0.7036 -0.8931 -0.4638
  838MOL0     C13052  10.963   7.749   0.759 -0.9383 -0.1261 -0.3842
  838MOL0     O13053  10.867   7.654   0.733  0.6772  1.0755 -0.3199
  838MOL0     C13054  10.905   7.525   0.766 -1.2068  0.4414 -0.2551
  838MOL0     C13055  10.807   7.418   0.703 -0.5248 -0.9809  0.2229
  838MOL0     C13056  10.794   7.429   0.550 -1.4506  0.9226  0.0755
  838MOL0     C13057  10.676   7.344   0.503 -0.5503  0.1683 -0.5700
  838MOL0     C13058  10.661   7.382   0.360 -0.9124  0.9128  0.2630
  838MOL0     C13059  10.665   7.407   0.238 -0.0416  0.0349  0.8008
  838MOL0     C13060  11.081   7.767   0.686 -0.1731  0.0886  0.5478
  838MOL0     C13061  11.168   7.875   0.711 -0.5991  0.0934 -0.4742
  838MOL0     C13062  11.292   7.878   0.619  0.0224 -0.1094  0.7065
  838MOL0     H13063  11.529   8.080   0.976 -0.3126  0.4782  0.6942
  838MOL0     H13064  11.661   8.277   1.065 -0.1295  0.1418  0.1264
  838MOL0     H13065  11.748   8.593   0.770  1.0317 -1.0869 -0.5439
  838MOL0     H13066  11.615   8.669   0.861 -1.0700 -2.0885  0.8036
  838MOL0     H13067  11.894   8.636   0.969 -0.1058 -0.3281  1.2371
  838MOL0     H13068  11.759   8.695   1.054 -0.5267 -1.3845  0.0878
  838MOL0     H13069  11.765   8.902   0.872  0.7918  0.5820  0.0350
  838MOL0     H13070  11.886   8.805   0.793 -0.7848 -1.9186  0.3277
  838MOL0     H13071  11.886   8.936   1.052 -1.9588  3.8922 -3.8563
  838MOL0     H13072  12.006   8.810   1.036 -0.5304 -0.5450  0.3178
  838MOL0     H13073  12.124   8.927   0.870 -1.5477 -0.3369 -0.5734
  838MOL0     H13074  11.988   9.037   0.824 -1.6122  0.1662 -0.8829
  838MOL0     H13075  12.013   9.139   1.063 -1.9265 -1.7090 -2.9139
  838MOL0     H13076  12.170   9.045   1.073  0.1656  0.3614  0.2598
  838MOL0     H13077  12.087   9.266   0.883 -0.3132  0.3330  1.2908
  838MOL0     H13078  12.256   9.200   0.895 -0.1149  2.4204 -0.8622
  838MOL0     H13079  12.203   9.410   1.015  0.1656 -0.5476 -0.3585
  838MOL0     H13080  12.106   9.319   1.133  1.1250 -0.4132  2.0428
  838MOL0     H13081  12.232   9.164   1.311 -1.5774 -0.5415 -0.7489
  838MOL0     H13082  12.491   9.259   1.486 -1.8339  1.1924 -1.0334
  838MOL0     H13083  12.438   9.088   1.467 -0.5944  0.7731  0.1504
  838MOL0     H13084  12.705   9.211   1.370  1.0981 -0.9677  1.1813
  838MOL0     H13085  12.697   9.139   1.521  0.2829  1.4157 -0.0280
  838MOL0     H13086  12.693   9.023   1.248 -0.2612  0.3360  0.2300
  838MOL0     H13087  12.604   8.928   1.366  1.8518 -2.4074 -0.6353
  838MOL0     H13088  12.843   8.847   1.391  0.6698  0.1563  0.5314
  838MOL0     H13089  12.799   8.936   1.530 -0.7210  1.1461 -0.1340
  838MOL0     H13090  13.013   8.932   1.618 -2.9685  0.2384 -2.5945
  838MOL0     H13091  13.220   8.964   1.725 -1.9248 -0.6030  0.6085
  838MOL0     H13092  13.677   9.051   1.768  1.8800  0.5754 -1.7020
  838MOL0     H13093  13.853   9.135   1.908  0.9229  1.3295  4.0046
  838MOL0     H13094  14.030   9.351   2.016  1.9560  4.3271 -3.6278
  838MOL0     H13095  13.875   9.416   1.940  1.5260  2.3644 -0.3750
  838MOL0     H13096  14.019   9.587   2.061  0.1764  0.4450  1.2257
  838MOL0     H13097  13.856   9.569   2.119 -1.2326 -2.0962 -1.0506
  838MOL0     H13098  14.013   9.381   2.268  1.3892  0.3448  1.3023
  838MOL0     H13099  14.133   9.496   2.210 -1.8053 -0.0442 -3.1483
  838MOL0     H13100  13.898   9.593   2.378 -0.4098  1.7867  1.6976
  838MOL0     H13101  14.042   9.675   2.336  0.1797  0.0869  0.4309
  838MOL0     H13102  14.183   9.514   2.470  0.2095  0.8419 -1.7825
  838MOL0     H13103  14.033   9.449   2.540  0.5338 -0.5614 -1.1727
  838MOL0     H13104  14.169   9.722   2.559  2.2357 -1.0233  1.4723
  838MOL0     H13105  13.996   9.717   2.595  1.6393  1.2248  0.3400
  838MOL0     H13106  14.227   9.537   2.735 -0.9453 -1.5932  0.5437
  838MOL0     H13107  14.052   9.542   2.766 -0.0689  1.7518  0.4403
  838MOL0     H13108  14.250   9.772   2.784 -0.8098 -1.2760 -1.4363
  838MOL0     H13109  14.074   9.779   2.827  0.9567  1.2125 -2.9335
  838MOL0     H13110  13.567   9.383   2.112  0.9682  0.9921 -0.4421
  838MOL0     H13111  13.392   9.269   2.004  1.1122  2.7678  0.2737
  838MOL0     H13112  13.278   9.325   1.489 -0.0454  0.1123  0.4012
  838MOL0     H13113  13.054   9.262   1.369  0.7489  0.0631 -0.7858
  838MOL0     H13114  11.505   8.498   0.720  0.1153 -0.8622 -0.6736
  838MOL0     H13115  11.361   8.327   0.667  0.3198 -2.1767 -0.4893
  838MOL0     H13116  11.011   7.999   0.984  4.7957  0.8456  0.1307
  838MOL0     H13117  10.838   7.821   0.897  1.1296 -2.3159 -0.2154
  838MOL0     H13118  10.911   7.525   0.876 -1.9507 -1.2229 -0.1935
  838MOL0     H13119  11.008   7.498   0.742 -0.5771  0.2697  2.3282
  838MOL0     H13120  10.714   7.414   0.760 -0.4287 -0.7808  0.3986
  838MOL0     H13121  10.846   7.320   0.732 -1.0531 -1.1208  0.4754
  838MOL0     H13122  10.893   7.398   0.515  0.7725  3.5765  3.3505
  838MOL0     H13123  10.772   7.529   0.512 -4.5456 -0.4966 -2.2899
  838MOL0     H13124  10.689   7.240   0.534 -1.2491  1.1428  3.5219
  838MOL0     H13125  10.586   7.373   0.559  0.0506  0.9292  0.0139
  838MOL0     H13126  10.680   7.443   0.137  1.1365 -2.0474  0.1833
  838MOL0     H13127  11.100   7.695   0.607  0.2981  0.4866  0.2875
  838MOL0     H13128  11.307   7.982   0.588 -0.8551  0.0993  0.9443
  838MOL0     H13129  11.383   7.851   0.673  1.5063  3.2744  0.1616
  838MOL0     H13130  11.284   7.807   0.536  0.8309  0.3895  0.1845
  839MOL0     O13131   0.846   9.155   3.474 -0.3933 -0.6120  0.1308
  839MOL0     C13132   0.920   9.171   3.376 -0.1969 -0.2422  0.3623
  839MOL0     O13133   0.950   9.291   3.322 -0.1981  0.0474 -0.4175
  839MOL0     C13134   0.874   9.400   3.351 -0.0270 -0.3408  0.2080
  839MOL0     C13135   0.735   9.391   3.339 -0.7914  0.5485 -0.4870
  839MOL0     C13136   0.654   9.502   3.350  0.4047  0.2554 -0.8544
  839MOL0     C13137   0.697   9.632   3.360 -0.2549  0.2182 -0.2183
  839MOL0     O13138   0.618   9.737   3.329  0.0203 -0.0678 -0.1675
  839MOL0     C13139   0.628   9.833   3.440 -0.5312  0.3203 -0.2317
  839MOL0     C13140   0.501   9.918   3.453 -0.3269 -1.2044  0.8130
  839MOL0     C13141   0.536  10.053   3.488 -1.0229 -0.5653  0.5829
  839MOL0     C13142   0.560  10.144   3.367  0.8094  0.2454 -1.0880
  839MOL0     C13143   0.565  10.294   3.407 -0.0677  0.1639  0.2574
  839MOL0     C13144   0.601  10.393   3.307 -0.5066  0.0357  0.4013
  839MOL0     C13145   0.537  10.537   3.308 -0.7706  0.0561 -0.1366
  839MOL0     C13146   0.612  10.638   3.400 -0.7672  0.9877  0.2155
  839MOL0     N13147   0.738  10.683   3.331  0.6390  0.4638 -0.2446
  839MOL0     C13148   0.736  10.733   3.205 -0.5522  0.6232 -0.6274
  839MOL0     C13149   0.865  10.748   3.173 -0.0939  0.4858  0.3102
  839MOL0     C13150   0.909  10.791   3.039 -0.0858 -0.6572  0.6648
  839MOL0     C13151   0.955  10.946   3.036  0.6980  0.1680  0.5047
  839MOL0     C13152   1.040  11.003   2.919 -0.0145  0.0756 -0.0277
  839MOL0     C13153   1.063  11.164   2.933  0.6954 -0.4691  0.0240
  839MOL0     O13154   0.945  11.245   2.940  0.0785 -0.1023 -0.0083
  839MOL0     C13155   0.865  11.263   2.835  1.2813 -0.6962  0.7778
  839MOL0     C13156   0.727  11.285   2.871 -1.0407 -0.8523  1.4257
  839MOL0     C13157   0.636  11.299   2.766 -0.0380  0.4374  0.2177
  839MOL0     C13158   0.669  11.274   2.632  0.9336 -0.3277  0.6469
  839MOL0     C13159   0.571  11.293   2.522  0.0482 -0.7440  0.3624
  839MOL0     O13160   0.633  11.307   2.396  0.1669 -0.4948 -0.3030
  839MOL0     C13161   0.556  11.310   2.281 -0.6774  1.7146 -0.0290
  839MOL0     C13162   0.619  11.382   2.179  0.0466  0.0741 -0.0069
  839MOL0     C13163   0.583  11.379   2.048  0.4402 -0.2522 -0.8324
  839MOL0     C13164   0.476  11.293   2.021 -0.0041 -0.7894  0.4005
  839MOL0     O13165   0.420  11.295   1.892  0.4312 -0.1254 -0.1979
  839MOL0     C13166   0.471  11.408   1.807 -0.2323  0.3912  0.1485
  839MOL0     C13167   0.390  11.406   1.674 -0.5210 -0.2124  0.5922
  839MOL0     C13168   0.250  11.442   1.705 -0.3849  0.7408 -0.3225
  839MOL0     C13169   0.208  11.585   1.709  0.2727  0.3588 -0.3398
  839MOL0     C13170   0.057  11.617   1.736 -0.5716  0.7352 -0.5465
  839MOL0     C13171  -0.046  11.539   1.652  0.3704 -0.9589  0.1832
  839MOL0     C13172  -0.189  11.594   1.668 -0.3728  0.3414 -0.9531
  839MOL0     C13173  -0.223  11.684   1.553 -1.1258 -0.4494  0.2027
  839MOL0    Cl13174  -0.189  11.854   1.595 -0.0604  0.3673  0.3557
  839MOL0     C13175   0.391  11.231   2.112 -1.0568  0.1472 -0.3768
  839MOL0     C13176   0.443  11.233   2.250 -0.6699  0.1474  0.1228
  839MOL0     O13177   0.445  11.290   2.539 -0.2597  0.2368  0.3822
  839MOL0     C13178   0.800  11.252   2.599 -0.3644  0.3471 -0.6676
  839MOL0     C13179   0.895  11.234   2.700 -0.8488 -0.0517  0.0581
  839MOL0     N13180   0.944  10.732   3.288 -0.3083  0.1193 -0.0575
  839MOL0     N13181   0.865  10.693   3.377 -0.1870 -0.1503  0.5079
  839MOL0     C13182   0.833   9.641   3.378 -0.2128  0.1239  0.3720
  839MOL0     C13183   0.920   9.533   3.373 -0.6983  0.6831 -0.3137
  839MOL0     C13184   1.000   9.054   3.333  0.0498 -0.3256 -0.2008
  839MOL0     C13185   1.133   9.082   3.299 -0.2692  0.1983 -1.3115
  839MOL0     C13186   1.222   8.990   3.250 -0.0673  0.3122 -0.1035
  839MOL0     C13187   1.185   8.853   3.245 -0.8533 -0.4241 -0.0261
  839MOL0     O13188   1.275   8.776   3.182 -0.2930 -0.9041  0.6054
  839MOL0     C13189   1.269   8.629   3.193  0.0178 -0.8835 -0.2685
  839MOL0     C13190   1.415   8.580   3.189  0.2781 -0.8280 -0.5538
  839MOL0     C13191   1.429   8.443   3.262  0.8725 -0.4100  0.1874
  839MOL0     C13192   1.569   8.414   3.313  0.4070  0.0568  0.2101
  839MOL0     C13193   1.667   8.409   3.208 -0.3862  0.0039  0.3557
  839MOL0     C13194   1.750   8.410   3.120 -0.2692  0.1342 -0.3510
  839MOL0     C13195   1.055   8.818   3.297 -0.6340 -0.6888 -0.4401
  839MOL0     C13196   0.960   8.916   3.335  0.1366 -0.6639  0.4470
  839MOL0     C13197   0.823   8.864   3.356  0.4366 -0.4077 -0.0689
  839MOL0     H13198   0.692   9.292   3.324  1.7392 -0.9982  1.6634
  839MOL0     H13199   0.548   9.486   3.331 -0.1140  2.1475  0.2267
  839MOL0     H13200   0.663   9.789   3.534  1.0476  0.6453 -0.6249
  839MOL0     H13201   0.714   9.895   3.412  0.1723 -0.4166  0.2207
  839MOL0     H13202   0.433   9.873   3.526 -2.1125  1.2573  0.7564
  839MOL0     H13203   0.444   9.927   3.360 -1.8059 -0.7689  1.7385
  839MOL0     H13204   0.622  10.063   3.554 -0.1923 -2.7106 -0.1084
  839MOL0     H13205   0.443  10.090   3.534 -1.7113 -1.1767 -0.2883
  839MOL0     H13206   0.657  10.118   3.323  1.1277  0.3882 -0.4775
  839MOL0     H13207   0.478  10.130   3.296 -2.5005  0.7537  2.3275
  839MOL0     H13208   0.480  10.319   3.471 -0.1000  0.8059 -0.0307
  839MOL0     H13209   0.644  10.308   3.480  0.9879  1.0995 -1.0177
  839MOL0     H13210   0.708  10.419   3.305 -0.7514  1.2952  1.7558
  839MOL0     H13211   0.583  10.344   3.212  1.6946 -0.5387  0.2201
  839MOL0     H13212   0.435  10.526   3.345 -1.8262 -0.5783 -2.9311
  839MOL0     H13213   0.526  10.572   3.205 -3.8412 -0.1011  0.0480
  839MOL0     H13214   0.548  10.724   3.421 -0.4226  1.5154 -0.8235
  839MOL0     H13215   0.637  10.590   3.495 -2.9537 -0.1542  0.2750
  839MOL0     H13216   0.657  10.746   3.131  0.7006  0.0510 -2.1227
  839MOL0     H13217   0.975  10.713   3.001 -2.4353 -1.5511 -1.9840
  839MOL0     H13218   0.818  10.773   2.980 -0.3081 -1.5667  1.2683
  839MOL0     H13219   0.865  11.006   3.050 -1.1749 -2.6342  1.2735
  839MOL0     H13220   1.013  10.963   3.127 -0.0961 -0.7148  1.1887
  839MOL0     H13221   1.006  10.977   2.819 -1.5331  1.3385  0.1128
  839MOL0     H13222   1.137  10.952   2.927 -0.2618 -0.1548  2.1727
  839MOL0     H13223   1.123  11.198   2.849  2.8826 -2.2516  0.7712
  839MOL0     H13224   1.117  11.201   3.021  1.1036 -0.9821 -0.0021
  839MOL0     H13225   0.700  11.292   2.975 -0.3950 -0.3940  1.5693
  839MOL0     H13226   0.530  11.320   2.779  0.1049  0.2653  1.8277
  839MOL0     H13227   0.716  11.425   2.200  0.1311  0.3816 -1.0021
  839MOL0     H13228   0.636  11.456   1.993 -0.5123  1.9416  1.1229
  839MOL0     H13229   0.464  11.504   1.860 -1.5542  0.8749 -0.8657
  839MOL0     H13230   0.579  11.395   1.793  0.2936  2.8769  1.3222
  839MOL0     H13231   0.429  11.487   1.612  0.5812  0.4944  2.1470
  839MOL0     H13232   0.419  11.312   1.626  1.8255  0.5102  0.4986
  839MOL0     H13233   0.190  11.401   1.624 -0.0736  3.0680 -1.8016
  839MOL0     H13234   0.224  11.392   1.799 -2.6463 -0.4055 -1.4872
  839MOL0     H13235   0.238  11.631   1.614  0.3985  0.6083 -0.1792
  839MOL0     H13236   0.254  11.636   1.794 -1.7884  0.4062  0.8035
  839MOL0     H13237   0.039  11.724   1.726 -3.0437  0.6103  1.6295
  839MOL0     H13238   0.038  11.590   1.840 -0.9031  0.5534 -0.6542
  839MOL0     H13239  -0.012  11.544   1.548  2.8917  2.8213  0.9643
  839MOL0     H13240  -0.038  11.432   1.671 -0.2692 -0.5354  3.5880
  839MOL0     H13241  -0.193  11.658   1.757  2.8883  1.7112 -1.6366
  839MOL0     H13242  -0.258  11.509   1.672 -0.5641  0.4552 -1.6026
  839MOL0     H13243  -0.171  11.653   1.462 -2.5642 -2.2929 -0.0410
  839MOL0     H13244  -0.329  11.681   1.527 -0.8324 -0.7759 -0.9899
  839MOL0     H13245   0.303  11.177   2.080 -0.5603 -0.4554 -0.7472
  839MOL0     H13246   0.387  11.172   2.321  3.2905 -3.7312  0.3525
  839MOL0     H13247   0.841  11.233   2.500  0.0163 -3.1581  0.0139
  839MOL0     H13248   1.002  11.234   2.682 -0.7577 -1.0392  0.5405
  839MOL0     H13249   0.879   9.739   3.384 -0.8952  0.5542 -0.9194
  839MOL0     H13250   1.028   9.542   3.375 -0.6319  1.0947  3.9323
  839MOL0     H13251   1.165   9.186   3.302  2.2692 -0.4989 -1.9843
  839MOL0     H13252   1.320   9.029   3.227 -0.2244  0.7789  0.0046
  839MOL0     H13253   1.212   8.580   3.114  0.4522  0.0398 -1.1917
  839MOL0     H13254   1.218   8.607   3.287 -1.2359 -1.7051 -1.1102
  839MOL0     H13255   1.472   8.638   3.263 -0.8544 -0.9260  0.4157
  839MOL0     H13256   1.452   8.594   3.087 -0.1632 -0.4450 -0.6628
  839MOL0     H13257   1.405   8.357   3.198  2.6797 -0.3342 -0.6295
  839MOL0     H13258   1.361   8.438   3.348  0.3341  1.2641 -0.1189
  839MOL0     H13259   1.601   8.488   3.387  1.3380  1.8687 -1.8976
  839MOL0     H13260   1.567   8.321   3.371 -1.1605 -1.1386 -1.6318
  839MOL0     H13261   1.840   8.403   3.062  1.8009 -0.7246  2.7039
  839MOL0     H13262   1.018   8.716   3.290 -0.1379 -0.7498 -4.9537
  839MOL0     H13263   0.770   8.908   3.442 -2.4247  0.6255 -2.1947
  839MOL0     H13264   0.767   8.885   3.265  1.2064 -0.2872 -0.5221
  839MOL0     H13265   0.828   8.758   3.381  1.0284 -0.3335  0.1573
  840MOL0     O13266  10.482   3.838   4.596 -0.8710  0.3095  0.5916
  840MOL0     C13267  10.537   3.931   4.539  0.0928  0.4179 -0.4225
  840MOL0     O13268  10.669   3.946   4.526 -0.2817 -0.1764  0.3836
  840MOL0     C13269  10.747   3.882   4.616 -0.0577  0.4132  0.5563
  840MOL0     C13270  10.799   3.947   4.728 -0.8453 -0.8520  0.0263
  840MOL0     C13271  10.902   3.888   4.800  0.1508  0.3119  0.2893
  840MOL0     C13272  10.937   3.761   4.766 -0.2360 -0.1387  0.3717
  840MOL0     O13273  11.027   3.682   4.833 -0.3391 -0.0459 -0.4294
  840MOL0     C13274  11.140   3.754   4.879  0.1680  0.5299  0.9079
  840MOL0     C13275  11.236   3.793   4.752  0.7848  0.4258 -0.0568
  840MOL0     C13276  11.375   3.838   4.807  0.0152 -0.7145  1.1817
  840MOL0     C13277  11.460   3.719   4.852 -1.3628  0.1545 -1.6305
  840MOL0     C13278  11.603   3.758   4.906  0.1729  0.1609 -0.3125
  840MOL0     C13279  11.683   3.630   4.928  0.4014  1.4727  0.6904
  840MOL0     C13280  11.811   3.665   4.992  0.4532  0.8378  0.3229
  840MOL0     C13281  11.923   3.701   4.890 -0.3167  0.3265 -0.2330
  840MOL0     N13282  12.051   3.720   4.966  0.7859 -0.2646  0.1170
  840MOL0     C13283  12.109   3.835   5.006  0.4645  0.0807 -0.2865
  840MOL0     C13284  12.213   3.790   5.084 -0.5547  0.0203  0.3148
  840MOL0     C13285  12.331   3.879   5.127 -0.4665 -0.1749  0.5305
  840MOL0     C13286  12.470   3.868   5.057 -0.1396  0.5763 -0.0893
  840MOL0     C13287  12.496   3.951   4.927  0.2160 -0.6225 -0.0133
  840MOL0     C13288  12.387   3.945   4.811 -0.7159  0.2466 -0.5360
  840MOL0     O13289  12.389   3.810   4.757 -0.3265 -0.1079 -0.2900
  840MOL0     C13290  12.276   3.764   4.697 -0.0764  0.1412  0.1332
  840MOL0     C13291  12.249   3.631   4.701 -0.0717 -0.1592 -0.8519
  840MOL0     C13292  12.139   3.572   4.651  1.2686  0.2357 -1.1310
  840MOL0     C13293  12.054   3.647   4.564 -0.2531  0.1022 -0.2463
  840MOL0     C13294  11.952   3.578   4.482  0.0843 -0.2510 -0.2072
  840MOL0     O13295  11.931   3.452   4.510  0.4943 -0.9837  0.4064
  840MOL0     C13296  11.881   3.371   4.416 -0.1890  0.5582 -1.2927
  840MOL0     C13297  11.967   3.342   4.309  0.2146 -0.8407  1.0541
  840MOL0     C13298  11.924   3.255   4.211 -0.3781  1.0646  0.2851
  840MOL0     C13299  11.804   3.179   4.224 -0.2614 -0.4661  0.2196
  840MOL0     O13300  11.772   3.073   4.142  0.3660 -0.1504 -0.7148
  840MOL0     C13301  11.862   2.972   4.182 -1.4851  0.6609  0.3117
  840MOL0     C13302  11.803   2.834   4.129 -0.4666 -0.7762  0.5738
  840MOL0     C13303  11.798   2.837   3.978 -0.0887  0.8002  0.2507
  840MOL0     C13304  11.679   2.763   3.924 -0.5777  0.3501  0.1680
  840MOL0     C13305  11.662   2.620   3.967  0.4917 -0.4816  0.7905
  840MOL0     C13306  11.512   2.574   3.971 -0.0874 -0.2951  0.2608
  840MOL0     C13307  11.410   2.676   4.033 -0.3972  0.3123  0.3440
  840MOL0     C13308  11.294   2.609   4.091 -0.5212 -0.7382  0.7028
  840MOL0    Cl13309  11.170   2.542   3.982 -0.3468 -0.1926 -0.4019
  840MOL0     C13310  11.735   3.189   4.341 -0.3414  0.3766 -0.9930
  840MOL0     C13311  11.765   3.288   4.439 -0.4376 -0.5770 -0.5094
  840MOL0     O13312  11.912   3.638   4.384 -0.3484 -0.0746 -0.2468
  840MOL0     C13313  12.086   3.787   4.557  0.2199 -0.6498  0.6856
  840MOL0     C13314  12.187   3.846   4.624 -0.2702  0.5560  0.6741
  840MOL0     N13315  12.225   3.657   5.083  0.4623 -0.3079 -0.8169
  840MOL0     N13316  12.125   3.613   5.011  0.6980  0.1648 -0.3603
  840MOL0     C13317  10.888   3.700   4.658  0.3928 -0.3036 -0.5710
  840MOL0     C13318  10.794   3.757   4.572 -0.8950 -1.0858  0.0012
  840MOL0     C13319  10.449   4.024   4.474  0.9620  0.5325 -0.2127
  840MOL0     C13320  10.360   4.106   4.562 -0.5845  0.5472  0.0978
  840MOL0     C13321  10.265   4.183   4.508 -0.3107 -0.2681 -0.2289
  840MOL0     C13322  10.256   4.199   4.366  0.2181 -0.3010 -0.3036
  840MOL0     O13323  10.164   4.284   4.307 -0.5206  0.5015  0.3087
  840MOL0     C13324  10.065   4.227   4.221  0.7135  0.4142  0.2445
  840MOL0     C13325   9.946   4.186   4.313 -0.1862 -0.9319 -0.0793
  840MOL0     C13326   9.899   4.315   4.390 -0.1647  0.3247  0.1230
  840MOL0     C13327   9.778   4.285   4.469  0.7258  0.5425 -0.4932
  840MOL0     C13328   9.808   4.233   4.602 -0.0961 -0.7710 -0.6102
  840MOL0     C13329   9.830   4.174   4.704  0.1283  0.6246 -0.7444
  840MOL0     C13330  10.353   4.132   4.281  0.0607 -0.5387  0.3840
  840MOL0     C13331  10.456   4.042   4.337  0.1004 -0.3789  1.0289
  840MOL0     C13332  10.553   3.968   4.235 -0.3289 -0.2893  0.0927
  840MOL0     H13333  10.789   4.051   4.757  5.2479 -0.3827  1.7432
  840MOL0     H13334  10.959   3.949   4.869 -0.3602  2.3420 -0.9844
  840MOL0     H13335  11.133   3.844   4.942  4.6929  0.5558  1.7033
  840MOL0     H13336  11.190   3.675   4.936  1.2774  1.5354  1.3657
  840MOL0     H13337  11.198   3.877   4.694  0.9778  1.0665  0.7328
  840MOL0     H13338  11.239   3.713   4.678 -0.4834  0.9851 -0.7412
  840MOL0     H13339  11.365   3.913   4.886 -1.7234  0.7170 -0.3046
  840MOL0     H13340  11.430   3.891   4.729 -2.8146 -1.0760 -1.2159
  840MOL0     H13341  11.420   3.673   4.943  4.4388  0.0390  1.2700
  840MOL0     H13342  11.469   3.640   4.777  1.2451 -1.6629  0.4018
  840MOL0     H13343  11.660   3.829   4.845  3.6578 -0.5773  1.8154
  840MOL0     H13344  11.607   3.802   5.006  0.9770  0.8168 -0.6315
  840MOL0     H13345  11.637   3.570   5.008 -0.1173  1.1106  0.1322
  840MOL0     H13346  11.692   3.567   4.839  4.3314  1.8309  0.6646
  840MOL0     H13347  11.837   3.573   5.046 -1.0089  0.3042  0.1547
  840MOL0     H13348  11.809   3.739   5.072  1.3525 -0.8497  1.9693
  840MOL0     H13349  11.926   3.613   4.825 -1.0941  0.1097  0.0138
  840MOL0     H13350  11.906   3.786   4.823 -2.2422 -1.6955 -2.5153
  840MOL0     H13351  12.100   3.939   4.974  0.8254  0.0535 -0.4744
  840MOL0     H13352  12.311   3.987   5.134 -1.3439 -0.1154 -1.8551
  840MOL0     H13353  12.337   3.842   5.229 -2.1620 -0.3103  0.6193
  840MOL0     H13354  12.547   3.903   5.126 -0.1037 -1.4999  1.0089
  840MOL0     H13355  12.495   3.766   5.026 -0.8384  1.0331 -2.3864
  840MOL0     H13356  12.592   3.911   4.891  0.6063  1.3410 -1.3588
  840MOL0     H13357  12.498   4.059   4.944 -2.6326 -0.5653  0.4626
  840MOL0     H13358  12.412   4.027   4.743  1.8091 -0.0583 -0.0592
  840MOL0     H13359  12.288   3.963   4.853 -1.0427  0.8778 -1.5244
  840MOL0     H13360  12.314   3.579   4.772  0.2560  1.1479 -0.1730
  840MOL0     H13361  12.121   3.466   4.665 -0.0184  0.3356 -1.8751
  840MOL0     H13362  12.056   3.403   4.296  0.9656 -2.0950  0.0174
  840MOL0     H13363  11.982   3.238   4.121  3.5773  0.7047  2.6815
  840MOL0     H13364  11.959   2.994   4.136 -1.8043 -0.1183 -0.7657
  840MOL0     H13365  11.872   2.967   4.290 -5.3184  0.5470  0.7832
  840MOL0     H13366  11.859   2.751   4.173  1.5635 -0.0583 -0.5199
  840MOL0     H13367  11.700   2.828   4.165 -0.8940  1.2625 -0.1582
  840MOL0     H13368  11.784   2.936   3.933 -0.4290  0.1320 -1.1647
  840MOL0     H13369  11.888   2.797   3.930 -2.5978  1.8893 -6.5287
  840MOL0     H13370  11.695   2.753   3.816 -1.0027  1.7286 -0.0462
  840MOL0     H13371  11.592   2.829   3.931 -0.4464  0.6697 -0.9767
  840MOL0     H13372  11.698   2.629   4.070  1.0411  0.9814  0.4997
  840MOL0     H13373  11.730   2.552   3.916 -0.5498 -1.5132  0.7444
  840MOL0     H13374  11.488   2.544   3.869 -1.5507  0.1759  0.4441
  840MOL0     H13375  11.504   2.484   4.031  0.2524 -0.0842  0.6274
  840MOL0     H13376  11.372   2.764   3.980  0.7045 -0.0157 -1.0759
  840MOL0     H13377  11.469   2.712   4.117 -1.8852 -0.1207  1.6179
  840MOL0     H13378  11.339   2.526   4.146  0.7232 -1.0802 -0.7644
  840MOL0     H13379  11.234   2.673   4.157 -3.0553 -2.9403  0.7147
  840MOL0     H13380  11.656   3.121   4.373 -4.8397  5.4678  0.2183
  840MOL0     H13381  11.705   3.301   4.528 -0.5738  0.7539 -0.7601
  840MOL0     H13382  12.027   3.854   4.495  1.3007  1.1089  1.4929
  840MOL0     H13383  12.199   3.952   4.608 -3.6679  0.8208 -0.8377
  840MOL0     H13384  10.924   3.599   4.641 -0.4161 -0.8383  0.8006
  840MOL0     H13385  10.778   3.699   4.481  0.7537  0.4047 -1.3064
  840MOL0     H13386  10.366   4.092   4.669  0.9545  0.5887  0.0283
  840MOL0     H13387  10.195   4.234   4.574 -1.9483 -1.4131 -0.9943
  840MOL0     H13388  10.104   4.134   4.179  1.6019 -0.9220  3.6824
  840MOL0     H13389  10.052   4.294   4.136  0.9844  1.4304  0.9853
  840MOL0     H13390   9.965   4.102   4.380  0.3416  1.1553  2.5210
  840MOL0     H13391   9.869   4.149   4.244 -1.9646  0.5973  0.9882
  840MOL0     H13392   9.872   4.404   4.332 -0.1182  0.4420  0.2807
  840MOL0     H13393   9.978   4.341   4.461  0.0631 -1.9796  0.7884
  840MOL0     H13394   9.714   4.372   4.487 -4.0983 -3.1937  3.1322
  840MOL0     H13395   9.711   4.210   4.425 -0.8948  0.5039  1.8743
  840MOL0     H13396   9.831   4.114   4.793 -0.3176  0.3547 -0.9242
  840MOL0     H13397  10.349   4.149   4.174  1.4596  1.1464  0.5507
  840MOL0     H13398  10.556   3.861   4.255 -1.9033 -0.5462 -0.8838
  840MOL0     H13399  10.521   3.993   4.133  2.6692  2.9858 -0.2722
  840MOL0     H13400  10.657   4.002   4.244 -1.3454  2.4211  4.4288
  841MOL0     O13401   5.982   5.198   1.103  0.1658  0.3555  0.0815
  841MOL0     C13402   6.071   5.153   1.171 -1.2413 -0.2881  0.1500
  841MOL0     O13403   6.141   5.035   1.148 -0.1077 -0.1252  0.7257
  841MOL0     C13404   6.121   4.946   1.041 -0.2426 -0.2011 -0.3049
  841MOL0     C13405   6.186   4.828   1.051  1.2282  0.9597 -0.3127
  841MOL0     C13406   6.161   4.725   0.968  0.2350  0.0929 -0.7107
  841MOL0     C13407   6.069   4.742   0.859  0.5351 -0.5547  0.5084
  841MOL0     O13408   6.040   4.652   0.758 -0.0986 -0.9313 -0.0473
  841MOL0     C13409   6.076   4.520   0.790 -0.0420 -0.0026  0.4654
  841MOL0     C13410   6.020   4.441   0.679 -0.1037 -0.3708 -0.1770
  841MOL0     C13411   5.871   4.442   0.686  0.5312  0.0175 -0.5896
  841MOL0     C13412   5.805   4.335   0.588  0.5913  0.4338 -0.2738
  841MOL0     C13413   5.669   4.291   0.645  0.0328  1.5290 -0.0697
  841MOL0     C13414   5.560   4.377   0.576  0.4769 -0.0738  0.2575
  841MOL0     C13415   5.422   4.312   0.577 -0.7991  0.1837 -0.4273
  841MOL0     C13416   5.309   4.397   0.535  0.3800  0.1335  0.1284
  841MOL0     N13417   5.239   4.458   0.648  0.5683 -0.1976  0.4792
  841MOL0     C13418   5.300   4.518   0.758 -0.4143 -0.3096  0.8842
  841MOL0     C13419   5.206   4.550   0.844  1.1502 -0.3940  0.5261
  841MOL0     C13420   5.213   4.633   0.961  0.5628  0.2637 -0.2895
  841MOL0     C13421   5.279   4.554   1.074  0.0977  0.5492  0.7791
  841MOL0     C13422   5.263   4.636   1.206  0.2025  0.0422  1.7580
  841MOL0     C13423   5.389   4.604   1.297 -0.6051  0.7508  1.0574
  841MOL0     O13424   5.361   4.672   1.419  0.6280  0.1125  1.1534
  841MOL0     C13425   5.452   4.661   1.519  0.4156  0.5278  0.7808
  841MOL0     C13426   5.559   4.575   1.528 -0.4370  0.1942  1.1013
  841MOL0     C13427   5.639   4.579   1.641  0.1825  0.2475  0.0491
  841MOL0     C13428   5.634   4.673   1.741 -0.4712 -0.1797  0.3055
  841MOL0     C13429   5.743   4.677   1.841  0.3265 -1.4025  0.1823
  841MOL0     O13430   5.759   4.792   1.910  0.9544  0.4402 -0.1355
  841MOL0     C13431   5.865   4.805   1.997  0.0829  0.5697  0.2252
  841MOL0     C13432   5.974   4.884   1.974  0.5834 -1.1066 -0.5335
  841MOL0     C13433   6.080   4.895   2.059 -0.1548  0.0290  0.0971
  841MOL0     C13434   6.092   4.803   2.166 -1.4690 -0.3489 -0.1093
  841MOL0     O13435   6.212   4.828   2.229 -0.3793  0.7919 -0.4025
  841MOL0     C13436   6.238   4.751   2.346 -0.4635 -0.4397  0.0990
  841MOL0     C13437   6.172   4.815   2.462  1.2333 -0.2046  0.3154
  841MOL0     C13438   6.215   4.957   2.486 -0.5538 -0.5157 -0.9376
  841MOL0     C13439   6.368   4.966   2.515 -0.1285  0.4344  1.1774
  841MOL0     C13440   6.402   5.100   2.590 -0.7307  0.2410 -0.3634
  841MOL0     C13441   6.546   5.112   2.625 -1.1909 -0.0408 -0.7064
  841MOL0     C13442   6.586   5.205   2.742  0.8770 -0.0237  0.8258
  841MOL0     C13443   6.728   5.172   2.779 -0.6332  0.6928  0.0744
  841MOL0    Cl13444   6.838   5.215   2.653  0.3154  0.1006  0.3161
  841MOL0     C13445   5.994   4.708   2.191  0.4919  0.1383  0.0476
  841MOL0     C13446   5.876   4.721   2.113 -0.2432  0.7980 -0.5535
  841MOL0     O13447   5.810   4.575   1.858 -1.0431  0.2866 -0.3870
  841MOL0     C13448   5.514   4.755   1.734  0.6281  0.4500  0.5496
  841MOL0     C13449   5.423   4.742   1.631  1.1133 -0.2688  1.0966
  841MOL0     N13450   5.088   4.509   0.784 -0.3846 -0.5906  0.6757
  841MOL0     N13451   5.110   4.441   0.678  0.0973  0.2348 -0.7655
  841MOL0     C13452   5.988   4.855   0.851  0.1839 -0.5587  0.4105
  841MOL0     C13453   6.027   4.967   0.932  0.1761  0.6089 -0.4948
  841MOL0     C13454   6.118   5.239   1.275  0.1314 -0.3617  0.2449
  841MOL0     C13455   6.258   5.224   1.305  0.0150  0.4589 -0.2028
  841MOL0     C13456   6.311   5.293   1.424  0.5072 -0.1234  0.0768
  841MOL0     C13457   6.240   5.387   1.490  0.2071 -0.0030 -1.1485
  841MOL0     O13458   6.291   5.462   1.592 -0.1959 -0.3603  0.3209
  841MOL0     C13459   6.424   5.448   1.635 -0.2437  0.8557 -0.5800
  841MOL0     C13460   6.460   5.565   1.728  0.5184  0.8671  0.6594
  841MOL0     C13461   6.478   5.697   1.644  1.1775  0.0165  0.4493
  841MOL0     C13462   6.525   5.805   1.739 -0.3792 -1.9005 -0.8958
  841MOL0     C13463   6.519   5.948   1.689 -0.0528 -0.2601  0.4773
  841MOL0     C13464   6.528   6.054   1.631  0.0630 -0.5101 -0.1385
  841MOL0     C13465   6.101   5.408   1.456 -0.1621  0.9251 -0.1136
  841MOL0     C13466   6.042   5.335   1.352  0.0702  0.0079 -0.7853
  841MOL0     C13467   5.885   5.350   1.338 -0.2805  0.0362  0.8056
  841MOL0     H13468   6.259   4.823   1.131  0.0951  0.2641  0.7186
  841MOL0     H13469   6.210   4.629   0.974  3.1586  1.5531  1.6999
  841MOL0     H13470   6.184   4.502   0.795 -0.2984 -2.1119 -0.3335
  841MOL0     H13471   6.040   4.494   0.890  0.8391 -0.5154  0.6638
  841MOL0     H13472   6.058   4.342   0.707  0.4723  0.2319  1.3236
  841MOL0     H13473   6.062   4.470   0.582  2.9993 -0.6488  0.9574
  841MOL0     H13474   5.827   4.539   0.662 -0.1816 -0.3117 -0.6306
  841MOL0     H13475   5.842   4.423   0.790  1.7019 -0.7776 -0.3992
  841MOL0     H13476   5.798   4.393   0.495 -0.6525 -0.9101 -1.0576
  841MOL0     H13477   5.860   4.245   0.560 -0.8541 -0.1704 -1.3106
  841MOL0     H13478   5.649   4.186   0.621 -0.0144  1.6236 -0.4532
  841MOL0     H13479   5.666   4.301   0.754  1.9615  0.6166  0.1058
  841MOL0     H13480   5.549   4.473   0.629 -1.3669 -1.2955  2.2456
  841MOL0     H13481   5.583   4.411   0.475  0.3033 -0.2768  0.1497
  841MOL0     H13482   5.397   4.270   0.675  1.1860  2.4734  1.1702
  841MOL0     H13483   5.438   4.226   0.511  1.6035 -1.2248  1.7818
  841MOL0     H13484   5.335   4.475   0.463 -0.8946 -1.1837 -1.8630
  841MOL0     H13485   5.231   4.332   0.495  1.2810  1.0595 -3.4968
  841MOL0     H13486   5.403   4.547   0.776 -1.4914  4.5392  0.4629
  841MOL0     H13487   5.281   4.711   0.926  1.8144 -0.5222  0.3075
  841MOL0     H13488   5.114   4.664   0.994  1.2044 -2.1041  5.0036
  841MOL0     H13489   5.227   4.460   1.093 -0.6391  0.4105 -1.6162
  841MOL0     H13490   5.388   4.547   1.059 -0.0525  1.4673 -1.0696
  841MOL0     H13491   5.171   4.602   1.255 -1.2811  0.5769 -0.5141
  841MOL0     H13492   5.261   4.744   1.188  2.7632 -0.0345  0.6253
  841MOL0     H13493   5.479   4.645   1.252 -1.1371  0.3890 -0.3892
  841MOL0     H13494   5.413   4.498   1.312 -2.9806  0.1243  0.8614
  841MOL0     H13495   5.586   4.496   1.459  2.3824  0.5305  1.6764
  841MOL0     H13496   5.720   4.508   1.625  0.6951  1.4920 -3.7259
  841MOL0     H13497   5.961   4.942   1.883 -1.3695  0.1157  0.4647
  841MOL0     H13498   6.164   4.962   2.044 -0.8182  0.4893 -1.8901
  841MOL0     H13499   6.190   4.654   2.330 -1.8180  0.1147  0.6543
  841MOL0     H13500   6.342   4.724   2.362 -0.1807  1.7486  2.9442
  841MOL0     H13501   6.064   4.811   2.445  1.6760  0.8120 -3.5572
  841MOL0     H13502   6.189   4.757   2.554 -1.5335 -0.7048  0.5928
  841MOL0     H13503   6.199   5.018   2.396  1.4108  1.3226 -0.1254
  841MOL0     H13504   6.158   5.001   2.569  2.1960  1.0898  0.2121
  841MOL0     H13505   6.433   4.954   2.427 -3.2263  2.7741 -1.6877
  841MOL0     H13506   6.402   4.887   2.583  1.8553  0.7768  0.6522
  841MOL0     H13507   6.344   5.124   2.679  1.6589 -2.6188  2.1773
  841MOL0     H13508   6.387   5.177   2.513 -0.1170  2.2739  1.4541
  841MOL0     H13509   6.574   5.010   2.655  2.1253  0.9068 -0.2011
  841MOL0     H13510   6.605   5.134   2.535 -0.2970 -1.0158 -0.3744
  841MOL0     H13511   6.515   5.196   2.824 -0.5696  2.3106 -0.0708
  841MOL0     H13512   6.579   5.310   2.713 -1.6982  0.2177  2.0567
  841MOL0     H13513   6.757   5.223   2.871 -0.0347  0.4569  0.0204
  841MOL0     H13514   6.726   5.066   2.804 -0.7087  0.6008 -0.3144
  841MOL0     H13515   6.009   4.623   2.257 -2.1225 -1.5432 -1.3616
  841MOL0     H13516   5.797   4.649   2.133 -1.1785  1.6283 -1.1722
  841MOL0     H13517   5.497   4.832   1.808 -0.3162  0.5429  0.2530
  841MOL0     H13518   5.335   4.805   1.621 -0.9539 -2.9942  0.8561
  841MOL0     H13519   5.907   4.861   0.778 -0.4787 -1.7060  1.0215
  841MOL0     H13520   5.962   5.053   0.929 -2.1392 -0.7184  3.5562
  841MOL0     H13521   6.328   5.154   1.261  1.3474  1.6426 -0.0450
  841MOL0     H13522   6.418   5.284   1.439  0.9545  0.7871 -2.1676
  841MOL0     H13523   6.495   5.458   1.553  1.9102  0.8646  1.1868
  841MOL0     H13524   6.439   5.359   1.698  0.7587  1.6079  0.2867
  841MOL0     H13525   6.556   5.541   1.774  1.1518  2.0790  0.0274
  841MOL0     H13526   6.385   5.563   1.807  0.7253  0.9441  0.8593
  841MOL0     H13527   6.377   5.721   1.609  1.6198 -1.5712 -2.2195
  841MOL0     H13528   6.543   5.689   1.556 -1.2101 -0.3229 -1.3961
  841MOL0     H13529   6.455   5.813   1.823  2.8032  1.8489  1.7411
  841MOL0     H13530   6.622   5.778   1.782  0.2249 -1.3538 -1.8908
  841MOL0     H13531   6.548   6.148   1.584  3.4620 -1.1946 -0.3220
  841MOL0     H13532   6.052   5.479   1.522  1.6909  0.9099  1.3778
  841MOL0     H13533   5.855   5.446   1.295  1.2691 -0.9466 -2.8431
  841MOL0     H13534   5.838   5.271   1.278 -1.5366 -0.4959  2.3986
  841MOL0     H13535   5.832   5.328   1.431 -4.0799 -1.6240 -1.4700
  842MOL0     O13536   7.349   5.936  11.333 -0.1111 -0.7578 -0.9894
  842MOL0     C13537   7.275   6.024  11.291 -0.4504 -0.2954  0.6677
  842MOL0     O13538   7.309   6.140  11.238 -1.1611  0.0418 -0.0890
  842MOL0     C13539   7.440   6.197  11.244 -0.6840  0.9814 -0.1355
  842MOL0     C13540   7.546   6.143  11.325 -0.2643  0.4025 -0.2767
  842MOL0     C13541   7.659   6.226  11.344  0.0513  0.3355  0.1365
  842MOL0     C13542   7.675   6.348  11.277 -0.1506 -0.4034 -0.1964
  842MOL0     O13543   7.789   6.416  11.315  0.6661  0.5493  0.8991
  842MOL0     C13544   7.827   6.513  11.216 -0.8044 -0.8920 -0.2201
  842MOL0     C13545   7.955   6.575  11.249  0.4639 -0.0676 -0.0152
  842MOL0     C13546   7.974   6.713  11.176  0.5295 -0.0871 -0.2343
  842MOL0     C13547   8.104   6.774  11.213 -0.3164  0.3537 -0.4067
  842MOL0     C13548   8.127   6.914  11.164 -0.6443 -0.5598 -0.5888
  842MOL0     C13549   8.262   6.969  11.210 -0.3277 -1.1154  0.2246
  842MOL0     C13550   8.280   7.105  11.159 -0.0479  0.3234  0.7024
  842MOL0     C13551   8.385   7.119  11.047 -0.4220 -0.3843 -0.1738
  842MOL0     N13552   8.524   7.126  11.100 -0.7004  0.3351  0.6449
  842MOL0     C13553   8.637   7.057  11.054 -0.6289 -0.5281 -0.3245
  842MOL0     C13554   8.736   7.087  11.147  0.0876 -0.0021  0.5345
  842MOL0     C13555   8.870   7.023  11.138  1.5177  0.7440 -0.2408
  842MOL0     C13556   8.909   6.962  11.276 -0.7956  0.3834  0.7004
  842MOL0     C13557   8.980   7.068  11.361  0.5052 -0.1324  0.8716
  842MOL0     C13558   9.041   7.006  11.493 -0.0855  0.1908  0.2924
  842MOL0     O13559   9.146   6.906  11.468  0.1040  0.3225  0.0105
  842MOL0     C13560   9.273   6.947  11.433  0.6009 -0.2418  0.2558
  842MOL0     C13561   9.365   6.853  11.400 -0.1739 -0.5552  1.1344
  842MOL0     C13562   9.497   6.890  11.363 -0.2587  0.5463  0.0947
  842MOL0     C13563   9.530   7.025  11.358 -1.0095 -0.8878 -0.9918
  842MOL0     C13564   9.669   7.053  11.324  0.6993  0.1894  0.2842
  842MOL0     O13565   9.745   6.952  11.270  0.3987 -0.6214  1.0122
  842MOL0     C13566   9.874   6.965  11.234 -0.4270 -0.9880  0.2910
  842MOL0     C13567   9.919   7.061  11.140 -0.7447  0.1103  0.5086
  842MOL0     C13568  10.054   7.067  11.101 -1.0256  0.4472  0.0554
  842MOL0     C13569  10.145   6.969  11.139  0.0318 -0.8214  1.0882
  842MOL0     O13570  10.271   6.980  11.081 -0.4357 -0.3398 -0.0061
  842MOL0     C13571  10.342   6.857  11.071 -0.1681 -0.0958  0.1330
  842MOL0     C13572  10.440   6.836  11.187  1.0233  0.6880  0.6914
  842MOL0     C13573  10.540   6.723  11.157  0.6152 -0.1172  0.1829
  842MOL0     C13574  10.637   6.697  11.273 -0.3531  0.1528 -0.3522
  842MOL0     C13575  10.706   6.559  11.279 -0.0140 -0.3042  0.6624
  842MOL0     C13576  10.815   6.568  11.390 -0.4023  1.6074 -0.8085
  842MOL0     C13577  10.823   6.438  11.459 -0.8548  0.4011  0.3572
  842MOL0     C13578  10.941   6.438  11.563  0.7061 -0.2795  0.9351
  842MOL0    Cl13579  11.110   6.465  11.493 -0.0295  0.0770  0.3984
  842MOL0     C13580  10.095   6.868  11.235 -0.3707  0.2182  0.3670
  842MOL0     C13581   9.964   6.874  11.280 -0.3656 -0.1910 -0.1545
  842MOL0     O13582   9.710   7.162  11.352  0.2677  0.1000 -0.4673
  842MOL0     C13583   9.437   7.125  11.377  0.7954  0.1533  0.7488
  842MOL0     C13584   9.310   7.086  11.434  0.8519 -0.4424  0.3947
  842MOL0     N13585   8.685   7.169  11.246 -0.1443  0.5989  0.5017
  842MOL0     N13586   8.561   7.195  11.215 -0.3565 -0.2206 -0.5885
  842MOL0     C13587   7.569   6.387  11.191  0.4499 -0.6701 -0.0587
  842MOL0     C13588   7.458   6.312  11.178 -0.3162  0.0590 -0.7873
  842MOL0     C13589   7.130   5.987  11.301 -0.1220 -0.4964  0.0456
  842MOL0     C13590   7.090   5.878  11.389  0.2445  0.2851 -0.3893
  842MOL0     C13591   6.963   5.857  11.424  1.0320 -0.7253 -0.4280
  842MOL0     C13592   6.862   5.941  11.378 -0.4374 -0.4391  0.3897
  842MOL0     O13593   6.728   5.922  11.403  0.6973 -0.2371  0.2858
  842MOL0     C13594   6.684   5.866  11.529 -0.1868 -0.0513  0.2073
  842MOL0     C13595   6.547   5.830  11.528 -0.0582  0.5384 -0.0462
  842MOL0     C13596   6.451   5.941  11.560  0.1604  0.5378  0.1859
  842MOL0     C13597   6.410   6.024  11.442 -0.3375 -0.3813 -0.2511
  842MOL0     C13598   6.502   6.139  11.412  0.1792  0.4644  0.1829
  842MOL0     C13599   6.589   6.225  11.386 -0.2061 -0.4940 -0.6546
  842MOL0     C13600   6.893   6.046  11.290 -0.7805  0.8182  0.0548
  842MOL0     C13601   7.024   6.069  11.245  1.3596 -0.5607 -0.6246
  842MOL0     C13602   7.045   6.167  11.136  0.3149  0.3822  0.6572
  842MOL0     H13603   7.537   6.050  11.381  1.9642  0.7936  0.8596
  842MOL0     H13604   7.724   6.191  11.423  1.3780  2.5445  0.1061
  842MOL0     H13605   7.846   6.475  11.115 -1.4443  1.6058 -1.3474
  842MOL0     H13606   7.756   6.595  11.204  1.2018  1.4269  2.6740
  842MOL0     H13607   8.035   6.507  11.218  0.4394  0.1927 -0.6640
  842MOL0     H13608   7.978   6.594  11.354  1.5203 -3.3875  0.4754
  842MOL0     H13609   7.900   6.784  11.214  1.6505  2.1770 -2.0344
  842MOL0     H13610   7.951   6.707  11.069 -0.9097  1.4971 -0.0600
  842MOL0     H13611   8.115   6.779  11.322  1.8459 -0.8234 -0.5317
  842MOL0     H13612   8.183   6.706  11.180 -1.2343 -0.2592 -1.3847
  842MOL0     H13613   8.120   6.916  11.055 -1.4475 -0.7181 -0.5438
  842MOL0     H13614   8.049   6.968  11.218  0.7144  0.6628  0.2612
  842MOL0     H13615   8.247   6.976  11.318  0.2053  2.4415  0.1979
  842MOL0     H13616   8.347   6.901  11.203  0.5523  0.0785 -1.4876
  842MOL0     H13617   8.298   7.185  11.232 -1.3678  3.2256 -1.9106
  842MOL0     H13618   8.187   7.139  11.113  1.0280  1.1898 -0.9332
  842MOL0     H13619   8.377   7.027  10.988  0.8309 -1.1993  0.8524
  842MOL0     H13620   8.376   7.218  11.002  1.6437 -0.8434 -1.8027
  842MOL0     H13621   8.639   6.984  10.973 -0.6194 -1.3912  0.4383
  842MOL0     H13622   8.844   6.941  11.070 -0.6562  1.3536 -0.2314
  842MOL0     H13623   8.949   7.086  11.097  3.4074 -1.1222  0.3924
  842MOL0     H13624   8.823   6.914  11.325  0.2621 -2.1922  0.2156
  842MOL0     H13625   8.980   6.880  11.258  0.4423  1.6006 -0.1276
  842MOL0     H13626   8.908   7.144  11.392  0.7366 -1.1350  4.3497
  842MOL0     H13627   9.060   7.120  11.308  0.5403  0.5955  1.6141
  842MOL0     H13628   8.962   6.969  11.559 -0.3750 -0.0280 -0.1689
  842MOL0     H13629   9.090   7.083  11.553  0.9041  0.0857 -0.3723
  842MOL0     H13630   9.341   6.749  11.416  2.7002 -1.4543  0.1150
  842MOL0     H13631   9.568   6.808  11.356 -1.1478 -0.2131 -0.1989
  842MOL0     H13632   9.839   7.116  11.092 -3.4188 -3.7828 -0.0415
  842MOL0     H13633  10.097   7.135  11.028  1.2479 -2.5927 -1.6815
  842MOL0     H13634  10.292   6.762  11.048  2.0477 -1.6360  1.2844
  842MOL0     H13635  10.398   6.885  10.981 -0.4342  1.6804  0.4868
  842MOL0     H13636  10.482   6.933  11.215 -0.6050  2.5915 -2.7045
  842MOL0     H13637  10.365   6.800  11.258 -0.3354 -0.0330 -1.0288
  842MOL0     H13638  10.476   6.646  11.112 -1.9814  1.3747  1.1615
  842MOL0     H13639  10.608   6.768  11.083 -1.4046  1.1478 -0.9927
  842MOL0     H13640  10.572   6.697  11.360 -1.6321  0.9991 -1.2723
  842MOL0     H13641  10.714   6.774  11.279 -1.7391  1.6270 -0.9065
  842MOL0     H13642  10.749   6.537  11.181 -1.8931  0.7828 -0.4661
  842MOL0     H13643  10.642   6.475  11.303  2.2843 -2.2275  0.4513
  842MOL0     H13644  10.915   6.572  11.346  0.6180  0.7628  1.2645
  842MOL0     H13645  10.797   6.656  11.452 -0.1507  2.9669 -2.6227
  842MOL0     H13646  10.862   6.362  11.391  0.7371  0.5016  1.1094
  842MOL0     H13647  10.727   6.411  11.505  1.2234 -2.8013  3.3239
  842MOL0     H13648  10.913   6.513  11.637 -3.6502  1.0268 -1.6517
  842MOL0     H13649  10.934   6.339  11.609 -0.0075 -0.5799  0.1998
  842MOL0     H13650  10.162   6.786  11.256  0.7684  1.1006  0.2990
  842MOL0     H13651   9.915   6.799  11.341  0.5418 -0.5424  0.1698
  842MOL0     H13652   9.451   7.230  11.352  0.5716 -0.1862 -0.9217
  842MOL0     H13653   9.252   7.174  11.460  0.9587 -0.2018 -0.1758
  842MOL0     H13654   7.556   6.482  11.139 -3.2450 -1.0299 -0.0462
  842MOL0     H13655   7.377   6.349  11.116 -1.9629  0.0193  1.2058
  842MOL0     H13656   7.165   5.809  11.425 -0.4197 -1.0370 -1.4595
  842MOL0     H13657   6.942   5.783  11.500 -1.6619 -2.7644 -2.9584
  842MOL0     H13658   6.701   5.941  11.606  1.8251  0.3757 -0.5803
  842MOL0     H13659   6.743   5.779  11.560  0.0248 -0.2221 -0.6458
  842MOL0     H13660   6.532   5.749  11.600  0.4894 -1.6149 -2.2221
  842MOL0     H13661   6.523   5.792  11.428 -1.2688 -0.5696  0.6200
  842MOL0     H13662   6.486   5.998  11.646  0.2483  1.5890 -0.5239
  842MOL0     H13663   6.358   5.893  11.592  0.9948 -0.9509  0.4764
  842MOL0     H13664   6.382   5.973  11.349 -4.2822 -0.8482  0.9928
  842MOL0     H13665   6.310   6.055  11.475 -1.4148 -3.0220 -0.7598
  842MOL0     H13666   6.652   6.301  11.345  1.8942 -2.2174 -0.7899
  842MOL0     H13667   6.810   6.105  11.252  0.8570  2.5763 -0.9765
  842MOL0     H13668   6.957   6.173  11.070 -0.2418 -2.4004  1.0034
  842MOL0     H13669   7.053   6.265  11.184  1.5635  1.4813 -1.6065
  842MOL0     H13670   7.133   6.150  11.073  0.6433  0.9507  0.9514
  843MOL0     O13671   2.493   0.851  10.168  0.0206 -0.3120 -0.5552
  843MOL0     C13672   2.435   0.952  10.139  0.6309  0.5923 -0.3053
  843MOL0     O13673   2.465   1.035  10.035  0.0232  0.7764  0.1137
  843MOL0     C13674   2.566   1.011   9.945  0.3558 -0.6555 -0.1634
  843MOL0     C13675   2.589   0.894   9.873 -0.0917 -0.6217  1.3105
  843MOL0     C13676   2.692   0.894   9.781  1.2340  0.1352  1.2349
  843MOL0     C13677   2.769   1.015   9.761 -0.0234 -0.0620  0.5336
  843MOL0     O13678   2.858   1.021   9.655  0.6439  0.0432  0.2705
  843MOL0     C13679   2.973   0.941   9.680 -0.7614 -0.7136  0.3662
  843MOL0     C13680   3.095   1.001   9.614  0.4044  0.1591  0.0695
  843MOL0     C13681   3.096   1.002   9.461 -0.3442  0.4345  0.1580
  843MOL0     C13682   3.226   1.055   9.400 -0.1903 -0.2913 -0.2899
  843MOL0     C13683   3.221   1.060   9.255  0.3550  0.2472 -0.0720
  843MOL0     C13684   3.360   1.066   9.191  0.6556  0.0786 -0.1164
  843MOL0     C13685   3.343   1.071   9.039 -0.8837 -0.2095  0.5729
  843MOL0     C13686   3.270   1.191   8.982 -0.0705  1.0975  0.5561
  843MOL0     N13687   3.287   1.187   8.839  0.7734 -1.0294  0.2817
  843MOL0     C13688   3.391   1.250   8.772 -0.7315  0.5676  1.0129
  843MOL0     C13689   3.354   1.244   8.641 -0.3397  0.6606  0.3503
  843MOL0     C13690   3.441   1.286   8.510  0.7077  0.1854 -1.0600
  843MOL0     C13691   3.550   1.377   8.536 -0.2633 -0.1609 -1.0139
  843MOL0     C13692   3.614   1.431   8.408 -0.2660  0.1311  0.4547
  843MOL0     C13693   3.723   1.529   8.451 -0.6711  0.7799  0.1566
  843MOL0     O13694   3.694   1.650   8.522 -0.7930  0.2014 -0.4169
  843MOL0     C13695   3.616   1.745   8.458  0.2908  0.3439 -0.2869
  843MOL0     C13696   3.473   1.734   8.468 -1.2986 -0.0601  0.0254
  843MOL0     C13697   3.399   1.830   8.391 -0.5118 -0.4629 -0.0326
  843MOL0     C13698   3.455   1.934   8.314 -0.6301 -0.1230  0.2629
  843MOL0     C13699   3.374   2.040   8.246  0.0569 -0.6366  0.5139
  843MOL0     O13700   3.236   2.057   8.280  0.2219  0.3980 -0.4012
  843MOL0     C13701   3.179   2.169   8.222 -0.4557  0.5278 -0.2119
  843MOL0     C13702   3.122   2.267   8.303 -0.9320  0.7616 -0.4579
  843MOL0     C13703   3.063   2.386   8.252 -0.1415 -0.1746  0.1859
  843MOL0     C13704   3.070   2.405   8.109  1.0557  0.4702  0.7631
  843MOL0     O13705   3.031   2.515   8.052  0.1070 -0.1196  0.4779
  843MOL0     C13706   2.905   2.564   8.082 -0.1132 -0.1201 -0.2860
  843MOL0     C13707   2.877   2.690   8.004 -0.0924  0.5552 -0.4714
  843MOL0     C13708   2.917   2.817   8.081 -0.0244  1.4762  0.0655
  843MOL0     C13709   2.927   2.949   7.999 -0.3126 -0.3855  0.2572
  843MOL0     C13710   2.803   2.967   7.918 -0.4868  0.4605  0.5565
  843MOL0     C13711   2.810   3.095   7.831 -0.0461  1.0830  0.1556
  843MOL0     C13712   2.696   3.100   7.728 -0.4454 -0.7636  0.3327
  843MOL0     C13713   2.683   3.244   7.671  0.2197 -0.1529 -0.8847
  843MOL0    Cl13714   2.655   3.375   7.785  0.1819 -0.5269  0.1034
  843MOL0     C13715   3.104   2.293   8.027 -0.2388  0.2864  0.0321
  843MOL0     C13716   3.149   2.171   8.084 -1.0400  0.6699 -0.9199
  843MOL0     O13717   3.433   2.105   8.162 -0.5799 -0.1772 -0.1633
  843MOL0     C13718   3.597   1.936   8.317  0.4719  0.3819 -0.7967
  843MOL0     C13719   3.674   1.843   8.386 -0.4740  0.4622 -0.4255
  843MOL0     N13720   3.226   1.193   8.642  0.2856 -0.7069  0.1323
  843MOL0     N13721   3.179   1.170   8.759 -0.4302  0.0737 -0.8265
  843MOL0     C13722   2.733   1.130   9.828  1.0599 -0.4529  0.3943
  843MOL0     C13723   2.630   1.130   9.922 -0.7554 -0.3448  0.0066
  843MOL0     C13724   2.305   0.978  10.220  0.0847  0.0187  0.3051
  843MOL0     C13725   2.231   1.092  10.187 -0.2657  0.2209 -0.4333
  843MOL0     C13726   2.107   1.113  10.249 -0.4417 -0.2738 -0.6473
  843MOL0     C13727   2.050   1.023  10.339  1.6142  0.4532 -0.5047
  843MOL0     O13728   1.927   1.054  10.403  0.1830  0.8205 -0.1546
  843MOL0     C13729   1.853   0.937  10.442 -1.3306 -0.4951 -0.6173
  843MOL0     C13730   1.833   0.932  10.592 -0.9719 -0.6860  0.3574
  843MOL0     C13731   1.727   1.031  10.651  1.2510  0.6597  0.6024
  843MOL0     C13732   1.708   1.015  10.802 -0.3901  0.0060  0.4324
  843MOL0     C13733   1.833   1.027  10.883  0.4658 -0.6881 -0.1261
  843MOL0     C13734   1.924   1.045  10.959 -0.5104  0.2121  0.1974
  843MOL0     C13735   2.123   0.909  10.370  0.1265 -0.4523  0.7294
  843MOL0     C13736   2.245   0.878  10.304  0.3723  0.4833  0.6886
  843MOL0     C13737   2.311   0.747  10.362 -0.4680 -0.1272  0.4284
  843MOL0     H13738   2.542   0.798   9.894  1.7013 -1.7081  0.6051
  843MOL0     H13739   2.707   0.815   9.709  1.1306  3.7042 -3.1212
  843MOL0     H13740   2.997   0.944   9.786  1.1832 -1.9359  0.0109
  843MOL0     H13741   2.961   0.842   9.634 -0.2923  0.5520 -2.7114
  843MOL0     H13742   3.189   0.953   9.642  1.2763  1.4521 -0.5789
  843MOL0     H13743   3.108   1.104   9.649  0.0757  0.4811 -0.7356
  843MOL0     H13744   3.008   1.060   9.432 -0.2304  3.0824  4.2319
  843MOL0     H13745   3.078   0.902   9.421  0.0087  1.1501 -1.9184
  843MOL0     H13746   3.239   1.159   9.431  0.0497 -1.0367  2.3245
  843MOL0     H13747   3.312   0.993   9.426  0.1187 -0.3579 -1.3897
  843MOL0     H13748   3.158   0.975   9.225 -1.8707  1.4618  0.9312
  843MOL0     H13749   3.166   1.151   9.229 -1.7020 -0.4917  1.3597
  843MOL0     H13750   3.414   1.152   9.233  2.4020 -2.6468  3.8478
  843MOL0     H13751   3.424   0.979   9.211  1.5527  0.5680 -0.7816
  843MOL0     H13752   3.282   0.987   9.005  0.2044 -1.3353  1.3140
  843MOL0     H13753   3.447   1.067   9.003 -0.6749 -0.6668  1.2145
  843MOL0     H13754   3.165   1.170   9.001  0.1836 -2.3140 -1.0886
  843MOL0     H13755   3.289   1.292   9.021 -0.9207  0.3895  2.9544
  843MOL0     H13756   3.484   1.290   8.811 -0.4877  0.7086  0.2964
  843MOL0     H13757   3.489   1.197   8.470  3.3189  1.0896 -0.1921
  843MOL0     H13758   3.380   1.334   8.433  1.1045  1.0910 -0.8311
  843MOL0     H13759   3.530   1.468   8.592  3.0168  0.3412 -0.4783
  843MOL0     H13760   3.622   1.323   8.599  2.0590  2.9642 -0.7860
  843MOL0     H13761   3.541   1.488   8.350 -0.1041  2.1795  2.1656
  843MOL0     H13762   3.654   1.345   8.353 -1.5101 -0.3776  0.2983
  843MOL0     H13763   3.771   1.571   8.361 -1.1986  4.8419  1.5797
  843MOL0     H13764   3.793   1.473   8.514  0.5931  1.2129 -0.8165
  843MOL0     H13765   3.428   1.659   8.533  2.8347 -2.7462  0.1706
  843MOL0     H13766   3.292   1.827   8.406 -0.2285 -1.2447  2.2006
  843MOL0     H13767   3.149   2.274   8.407 -0.5970 -3.9522 -0.0187
  843MOL0     H13768   3.037   2.472   8.313  1.3992 -1.5661  2.9879
  843MOL0     H13769   2.831   2.485   8.070 -0.0912 -0.2797  0.5549
  843MOL0     H13770   2.880   2.583   8.187  2.9232  0.3092  0.4552
  843MOL0     H13771   2.940   2.688   7.915  1.6680 -0.9587  0.7271
  843MOL0     H13772   2.772   2.692   7.973  0.2251 -0.8993 -1.7584
  843MOL0     H13773   2.845   2.825   8.162  0.8421 -1.8603  1.3338
  843MOL0     H13774   3.019   2.796   8.116  1.1620  3.3543 -1.9496
  843MOL0     H13775   3.012   2.948   7.930  0.3003 -0.4080  1.0034
  843MOL0     H13776   2.938   3.034   8.067  2.8246  0.7249 -1.4570
  843MOL0     H13777   2.718   2.980   7.986  1.4224  1.4024  2.9260
  843MOL0     H13778   2.796   2.884   7.846  0.5806  1.2434 -0.4706
  843MOL0     H13779   2.798   3.177   7.902 -0.0553  0.3993  0.9654
  843MOL0     H13780   2.911   3.106   7.791  0.3156  1.7415  1.1993
  843MOL0     H13781   2.599   3.067   7.768 -2.5635  2.4714 -1.6496
  843MOL0     H13782   2.706   3.041   7.636 -0.9539 -0.3650  0.0130
  843MOL0     H13783   2.781   3.258   7.623  0.7862  0.3146  0.3614
  843MOL0     H13784   2.606   3.255   7.595  0.2736  0.4560 -0.8599
  843MOL0     H13785   3.108   2.299   7.919  2.9507  0.0146  0.0567
  843MOL0     H13786   3.182   2.092   8.018  1.6628  0.7643  0.1864
  843MOL0     H13787   3.647   1.999   8.244  2.4278 -1.4226 -1.0902
  843MOL0     H13788   3.782   1.854   8.383 -0.3472 -0.2663  0.9362
  843MOL0     H13789   2.781   1.219   9.790  3.5054 -2.9179 -2.8032
  843MOL0     H13790   2.610   1.221   9.979  0.5643 -0.1355  0.1583
  843MOL0     H13791   2.253   1.177  10.124 -1.5616  1.9413  1.3143
  843MOL0     H13792   2.057   1.204  10.218 -1.0862 -0.2330  0.4572
  843MOL0     H13793   1.895   0.842  10.409 -0.1352  0.3678 -1.7137
  843MOL0     H13794   1.752   0.936  10.402 -2.5181 -1.7405  2.1404
  843MOL0     H13795   1.926   0.936  10.650 -0.8386  1.8893  0.1040
  843MOL0     H13796   1.783   0.836  10.602 -1.5075 -0.7156 -2.0961
  843MOL0     H13797   1.634   1.020  10.594  0.9628  1.0878  0.9816
  843MOL0     H13798   1.753   1.135  10.630 -1.4078  0.6639 -3.8868
  843MOL0     H13799   1.641   1.096  10.834 -1.2290  0.9261 -3.2216
  843MOL0     H13800   1.659   0.919  10.823 -0.0254 -0.7140 -1.8065
  843MOL0     H13801   1.997   1.045  11.038 -2.9975 -3.3048  2.8156
  843MOL0     H13802   2.099   0.839  10.449  0.1247 -1.6685 -0.3255
  843MOL0     H13803   2.402   0.781  10.412 -0.3358  0.5635 -0.2686
  843MOL0     H13804   2.251   0.706  10.444  0.9054 -0.0163  1.5171
  843MOL0     H13805   2.337   0.670  10.289 -0.1546 -0.0256  0.4315
  844MOL0     O13806   8.802   1.257   4.879 -0.7429 -0.8658  0.0516
  844MOL0     C13807   8.732   1.299   4.781  0.0969 -0.7833 -0.4266
  844MOL0     O13808   8.601   1.348   4.791  0.2402 -0.2070 -0.3028
  844MOL0     C13809   8.516   1.312   4.893 -0.4849 -0.4576 -0.7595
  844MOL0     C13810   8.400   1.253   4.858  0.4380 -0.0081 -1.4023
  844MOL0     C13811   8.311   1.224   4.963  0.6395 -0.6200 -0.9451
  844MOL0     C13812   8.338   1.254   5.111  0.4442  0.3875  0.4080
  844MOL0     O13813   8.248   1.246   5.212 -0.0468  0.2332 -0.1339
  844MOL0     C13814   8.143   1.148   5.190  0.5556  0.0921  0.5283
  844MOL0     C13815   8.099   1.087   5.326  0.5124  0.1113  0.5596
  844MOL0     C13816   8.015   0.962   5.301  0.0015  0.0965 -0.1815
  844MOL0     C13817   7.958   0.894   5.429  0.5387 -0.2204 -0.0130
  844MOL0     C13818   7.888   0.757   5.391 -0.5008 -0.2655  0.2491
  844MOL0     C13819   7.861   0.674   5.518  0.0750  0.4444 -0.4165
  844MOL0     C13820   7.728   0.707   5.579 -0.2070  0.3228  0.2235
  844MOL0     C13821   7.719   0.664   5.732 -0.5737  0.4531  1.1840
  844MOL0     N13822   7.781   0.525   5.762 -0.3482 -0.3947 -0.1137
  844MOL0     C13823   7.905   0.508   5.816 -1.1121 -0.1835  0.2830
  844MOL0     C13824   7.926   0.368   5.820 -0.1006 -0.4545  0.2389
  844MOL0     C13825   8.035   0.288   5.887  0.5265  0.6590  0.7135
  844MOL0     C13826   8.171   0.303   5.817 -0.0245 -0.0636  0.5743
  844MOL0     C13827   8.285   0.231   5.891  0.0524 -0.6556 -0.3909
  844MOL0     C13828   8.421   0.265   5.823  0.7006 -0.1862  0.4256
  844MOL0     O13829   8.471   0.397   5.850 -0.4849  0.0907 -0.3595
  844MOL0     C13830   8.568   0.433   5.764 -0.4889 -0.1792  1.1140
  844MOL0     C13831   8.658   0.354   5.679 -0.5888  0.5196 -1.0602
  844MOL0     C13832   8.726   0.411   5.568 -0.1562  0.6774  0.1046
  844MOL0     C13833   8.722   0.541   5.546 -0.1963 -0.7915 -0.0514
  844MOL0     C13834   8.791   0.606   5.433  0.3057  0.4193  0.5179
  844MOL0     O13835   8.888   0.536   5.380 -0.0247 -0.6270  0.0543
  844MOL0     C13836   8.955   0.579   5.266 -0.1741  0.2398  1.0418
  844MOL0     C13837   9.019   0.704   5.249 -1.4996  0.2000  0.0605
  844MOL0     C13838   9.095   0.740   5.133 -0.1588  0.4861  0.8235
  844MOL0     C13839   9.124   0.641   5.039  0.4721  0.4092  0.3886
  844MOL0     O13840   9.207   0.668   4.931  0.0374  0.1361  0.3324
  844MOL0     C13841   9.192   0.586   4.812 -0.1860  0.2879 -0.2860
  844MOL0     C13842   9.297   0.623   4.713  0.5273  0.1247 -0.0670
  844MOL0     C13843   9.302   0.510   4.603 -0.1673 -0.6017 -0.1779
  844MOL0     C13844   9.415   0.537   4.511 -0.2942  0.6155 -0.0032
  844MOL0     C13845   9.446   0.435   4.405  0.1119  0.3151  0.1786
  844MOL0     C13846   9.594   0.449   4.377 -1.1410  0.1797 -0.8080
  844MOL0     C13847   9.632   0.381   4.252 -0.0611 -0.3783  0.9552
  844MOL0     C13848   9.776   0.402   4.206  0.7150  0.6097  0.2178
  844MOL0    Cl13849   9.893   0.336   4.328  0.1775  0.0855  0.0566
  844MOL0     C13850   9.061   0.520   5.056  0.1742 -0.7697 -0.4044
  844MOL0     C13851   8.979   0.492   5.167 -0.0960 -0.6115  0.1101
  844MOL0     O13852   8.750   0.716   5.400  0.5460  0.3853  0.9135
  844MOL0     C13853   8.649   0.625   5.632  0.3022  0.8388  0.2629
  844MOL0     C13854   8.565   0.574   5.732  1.0856  0.3967 -0.6213
  844MOL0     N13855   7.814   0.314   5.759 -0.3072  0.0901 -0.6780
  844MOL0     N13856   7.732   0.409   5.724 -0.2298  0.5391 -0.8130
  844MOL0     C13857   8.458   1.317   5.128 -0.0283 -0.6089 -0.1441
  844MOL0     C13858   8.550   1.341   5.029 -0.4214 -0.5590  0.0067
  844MOL0     C13859   8.782   1.309   4.635  0.9686 -0.3745  1.2322
  844MOL0     C13860   8.754   1.435   4.572  0.3991  0.1662 -0.4803
  844MOL0     C13861   8.796   1.454   4.436 -0.3367  0.1575  0.6386
  844MOL0     C13862   8.876   1.355   4.368  0.9389  0.1958 -0.2938
  844MOL0     O13863   8.913   1.370   4.237  0.1287  0.3327  0.1308
  844MOL0     C13864   8.800   1.397   4.145  0.2985 -0.2986 -0.6551
  844MOL0     C13865   8.856   1.370   4.003  0.4032 -0.3008 -0.2891
  844MOL0     C13866   8.970   1.474   3.960 -1.5130  0.3473  0.4117
  844MOL0     C13867   9.019   1.435   3.812  0.5055 -1.2319  0.8948
  844MOL0     C13868   9.130   1.522   3.773  0.5068  0.2466 -0.0983
  844MOL0     C13869   9.217   1.593   3.728 -0.2361 -0.7352  0.2467
  844MOL0     C13870   8.898   1.238   4.434  1.1788  0.1277  0.0387
  844MOL0     C13871   8.857   1.214   4.566 -0.2236  0.3081 -0.2486
  844MOL0     C13872   8.895   1.083   4.625  0.1379  0.2168  0.1319
  844MOL0     H13873   8.356   1.225   4.763 -4.2173 -0.6846  0.6753
  844MOL0     H13874   8.212   1.202   4.924  0.3774 -1.2550  0.0654
  844MOL0     H13875   8.060   1.196   5.136  1.1156 -0.9484 -1.3409
  844MOL0     H13876   8.177   1.073   5.118 -0.0552 -0.5492  0.8938
  844MOL0     H13877   8.045   1.170   5.373 -0.7532  0.6376 -1.6739
  844MOL0     H13878   8.186   1.064   5.389 -1.4534 -0.6722  3.1860
  844MOL0     H13879   8.088   0.886   5.275  0.3177 -0.5519  2.3394
  844MOL0     H13880   7.942   0.981   5.221  0.4921  1.8647 -0.2500
  844MOL0     H13881   8.045   0.880   5.494  1.1123  0.8088 -0.5309
  844MOL0     H13882   7.890   0.960   5.484  1.2286  0.0158  0.5807
  844MOL0     H13883   7.804   0.775   5.324 -0.0105  1.7606  0.1302
  844MOL0     H13884   7.964   0.702   5.335 -0.8576 -1.7010  1.1001
  844MOL0     H13885   7.877   0.569   5.491  2.7223  0.8752 -0.7856
  844MOL0     H13886   7.945   0.699   5.584  0.2433  2.2292 -1.2697
  844MOL0     H13887   7.659   0.656   5.511  2.3904 -1.1691 -1.4802
  844MOL0     H13888   7.709   0.814   5.571  1.3737  0.5654 -0.7279
  844MOL0     H13889   7.768   0.736   5.798 -2.2746  1.7665  1.0918
  844MOL0     H13890   7.614   0.676   5.761 -1.0730  2.3165 -1.0323
  844MOL0     H13891   7.972   0.583   5.857  0.0428 -1.6227  1.0867
  844MOL0     H13892   8.058   0.320   5.989 -0.2540  0.4014  0.9768
  844MOL0     H13893   8.006   0.183   5.888  0.2479  0.7371  1.3494
  844MOL0     H13894   8.158   0.267   5.714  1.2948 -0.5316  0.5525
  844MOL0     H13895   8.187   0.411   5.822 -2.3734  0.3973 -0.4366
  844MOL0     H13896   8.287   0.123   5.874 -3.1820 -0.6865 -1.1983
  844MOL0     H13897   8.283   0.257   5.997 -4.3374  2.8208 -0.9986
  844MOL0     H13898   8.403   0.240   5.718 -2.5533 -2.2067  1.3077
  844MOL0     H13899   8.497   0.199   5.865 -0.0042  0.1404  2.3481
  844MOL0     H13900   8.669   0.246   5.680 -2.3660  0.2817  0.8018
  844MOL0     H13901   8.773   0.345   5.496  0.2173 -0.0320  0.9814
  844MOL0     H13902   9.003   0.777   5.329 -1.6502  0.4000 -0.1478
  844MOL0     H13903   9.147   0.834   5.115  0.9901 -0.5164 -1.6097
  844MOL0     H13904   9.202   0.482   4.844 -1.6557  0.8656  2.3410
  844MOL0     H13905   9.098   0.607   4.759 -0.3759 -0.8038 -0.4007
  844MOL0     H13906   9.281   0.724   4.674  2.4732  0.2222 -0.7239
  844MOL0     H13907   9.391   0.629   4.768  0.0869  0.9658  0.6308
  844MOL0     H13908   9.331   0.413   4.644  2.7451 -0.0333 -0.7089
  844MOL0     H13909   9.218   0.505   4.534  0.8867 -0.1939 -1.5198
  844MOL0     H13910   9.499   0.569   4.575 -0.9373 -0.0175  1.1749
  844MOL0     H13911   9.379   0.621   4.451 -1.7399  0.4706  0.6431
  844MOL0     H13912   9.382   0.454   4.318  0.2720  2.0778  0.4077
  844MOL0     H13913   9.437   0.332   4.440 -2.9260  1.4427  3.2595
  844MOL0     H13914   9.630   0.552   4.384 -1.0432  0.0784  3.9508
  844MOL0     H13915   9.648   0.408   4.463 -2.2700  2.2543  1.0042
  844MOL0     H13916   9.569   0.417   4.170  1.0478 -1.2473 -0.3474
  844MOL0     H13917   9.596   0.278   4.246  0.0414 -0.3316 -2.5816
  844MOL0     H13918   9.800   0.337   4.122 -0.9828 -3.3184  2.5109
  844MOL0     H13919   9.794   0.507   4.180 -0.3996  0.5165 -1.0747
  844MOL0     H13920   9.085   0.437   4.991 -2.6222 -1.5834 -0.5353
  844MOL0     H13921   8.933   0.395   5.184  0.4737 -0.6023  1.8898
  844MOL0     H13922   8.643   0.733   5.618 -1.7915  0.6044 -1.2070
  844MOL0     H13923   8.514   0.632   5.808  0.3758 -2.0530  0.9184
  844MOL0     H13924   8.488   1.346   5.228  1.8463 -2.0035 -0.2336
  844MOL0     H13925   8.641   1.386   5.067  0.4575 -3.3332  1.4067
  844MOL0     H13926   8.710   1.517   4.627  2.1116  0.0515  1.1365
  844MOL0     H13927   8.780   1.551   4.391 -2.9711 -0.3122  0.4139
  844MOL0     H13928   8.762   1.499   4.147  2.8994  0.7398 -0.0490
  844MOL0     H13929   8.717   1.332   4.175 -0.4228  0.3846 -1.1318
  844MOL0     H13930   8.766   1.372   3.940 -2.0592 -0.8408  2.9184
  844MOL0     H13931   8.893   1.268   3.994  0.5990 -0.3183  0.7066
  844MOL0     H13932   9.062   1.468   4.020  0.2536  0.0085 -2.1780
  844MOL0     H13933   8.946   1.580   3.970  0.1074  0.6795  1.2148
  844MOL0     H13934   9.054   1.332   3.821 -1.0723 -1.8393  0.5193
  844MOL0     H13935   8.932   1.447   3.746 -1.1752 -1.1794  2.9980
  844MOL0     H13936   9.300   1.652   3.695  0.0418 -0.6277  1.1040
  844MOL0     H13937   8.951   1.159   4.381  1.2568 -0.4070  0.8857
  844MOL0     H13938   8.818   1.036   4.687  0.4976  0.0954  0.4907
  844MOL0     H13939   8.929   1.008   4.553  1.2146 -2.6912  3.3638
  844MOL0     H13940   8.976   1.098   4.696  0.2518 -0.2944  0.1142
  845MOL0     O13941   9.934   3.665  11.395  0.6340  0.8039 -0.1493
  845MOL0     C13942  10.014   3.639  11.298  0.0774 -0.2496  0.3825
  845MOL0     O13943  10.017   3.700  11.177 -0.4320 -0.8277  0.1551
  845MOL0     C13944   9.897   3.737  11.117  0.7982  0.1570 -0.9355
  845MOL0     C13945   9.902   3.844  11.025 -0.6603 -0.9462 -0.6894
  845MOL0     C13946   9.792   3.884  10.957 -0.3252 -0.1266 -0.1890
  845MOL0     C13947   9.662   3.842  10.990  1.2630  0.3362 -0.2359
  845MOL0     O13948   9.542   3.887  10.943 -0.2120  0.6821  0.0511
  845MOL0     C13949   9.548   4.003  10.855  0.5858  0.4620 -0.4086
  845MOL0     C13950   9.404   4.047  10.838  0.1760  0.1975 -0.9071
  845MOL0     C13951   9.334   3.969  10.729 -0.9861 -0.2672 -0.2631
  845MOL0     C13952   9.185   4.003  10.720  0.6966 -0.2690 -0.4466
  845MOL0     C13953   9.120   3.939  10.602 -0.6193 -0.4073 -0.9606
  845MOL0     C13954   8.988   4.004  10.577  0.6305 -0.4764  1.0088
  845MOL0     C13955   8.903   3.944  10.468  0.4784  0.5380 -0.0917
  845MOL0     C13956   8.849   3.809  10.531 -0.3189  0.1826  0.5389
  845MOL0     N13957   8.731   3.762  10.445 -0.2103 -0.2115  0.0552
  845MOL0     C13958   8.644   3.673  10.504  0.1678 -0.3814  1.0186
  845MOL0     C13959   8.556   3.657  10.400 -0.1463 -0.7805  1.2481
  845MOL0     C13960   8.419   3.602  10.416  0.5888  0.1308 -0.3203
  845MOL0     C13961   8.315   3.702  10.466 -0.3529 -1.2348  0.3313
  845MOL0     C13962   8.169   3.674  10.459 -0.4919  0.3586  0.4984
  845MOL0     C13963   8.132   3.567  10.362  0.1759 -0.2044  1.0911
  845MOL0     O13964   8.176   3.434  10.381 -0.4630 -0.2984  0.3350
  845MOL0     C13965   8.120   3.339  10.298  0.2171 -1.4037 -0.0472
  845MOL0     C13966   8.202   3.246  10.227 -0.8743 -0.3440 -0.4958
  845MOL0     C13967   8.137   3.136  10.163 -0.4870 -0.6477 -0.0886
  845MOL0     C13968   8.000   3.104  10.173 -0.5654  0.6125  0.1610
  845MOL0     C13969   7.946   2.988  10.112 -0.4427 -0.2871 -0.4381
  845MOL0     O13970   7.803   2.981  10.106 -0.8306  0.3415  0.4453
  845MOL0     C13971   7.739   2.871  10.048  0.2585 -0.7888  0.3452
  845MOL0     C13972   7.697   2.884   9.913 -0.2355  0.3527  0.0415
  845MOL0     C13973   7.628   2.772   9.857  0.9073  0.1406  0.2345
  845MOL0     C13974   7.590   2.661   9.939  0.0235  0.8528  0.7245
  845MOL0     O13975   7.533   2.548   9.894 -0.2703  1.0448  0.0950
  845MOL0     C13976   7.465   2.539   9.768 -0.1145  0.3422 -0.3813
  845MOL0     C13977   7.561   2.482   9.667 -0.0807  0.6337  0.7850
  845MOL0     C13978   7.529   2.510   9.526  0.4972  0.3337  0.6976
  845MOL0     C13979   7.583   2.404   9.437 -0.1337 -0.4844  0.0964
  845MOL0     C13980   7.546   2.433   9.294  0.4502 -0.7427  0.3176
  845MOL0     C13981   7.617   2.547   9.236 -0.2461 -0.3365  0.5963
  845MOL0     C13982   7.618   2.546   9.078  0.2588 -0.5111 -0.1344
  845MOL0     C13983   7.742   2.612   9.022 -0.3731 -0.4980 -0.2292
  845MOL0    Cl13984   7.752   2.785   9.075  0.3213 -0.3925  0.1834
  845MOL0     C13985   7.636   2.658  10.066 -0.0135  0.1651 -0.6993
  845MOL0     C13986   7.707   2.760  10.123  0.2176 -0.0080  0.5396
  845MOL0     O13987   8.017   2.894  10.075 -0.3978  0.7523 -0.4088
  845MOL0     C13988   7.921   3.203  10.229 -0.4087 -0.2334  0.6108
  845MOL0     C13989   7.978   3.316  10.291  0.0427  0.6167 -0.5721
  845MOL0     N13990   8.606   3.687  10.283 -0.6715 -0.0939 -0.1765
  845MOL0     N13991   8.708   3.756  10.311 -0.0757  0.4634 -1.0715
  845MOL0     C13992   9.661   3.726  11.076  0.7097 -0.1466 -1.2958
  845MOL0     C13993   9.777   3.677  11.134  0.2858  0.0015 -0.7413
  845MOL0     C13994  10.110   3.524  11.303  0.0210 -0.6102 -1.0533
  845MOL0     C13995  10.154   3.470  11.183 -0.5608 -0.2591  0.3584
  845MOL0     C13996  10.230   3.352  11.171  0.0550 -0.5674  0.1362
  845MOL0     C13997  10.265   3.292  11.295 -0.5544  0.2409 -0.6592
  845MOL0     O13998  10.333   3.167  11.299 -0.4937  0.7958 -0.3324
  845MOL0     C13999  10.284   3.057  11.216  0.2694 -0.2087  1.7944
  845MOL0     C14000  10.341   2.920  11.257 -0.7566 -0.2978  0.8120
  845MOL0     C14001  10.252   2.876  11.368  0.3716  0.0712  0.7688
  845MOL0     C14002  10.263   2.732  11.381 -0.6433  0.1988  0.4380
  845MOL0     C14003  10.190   2.655  11.287  0.2402  0.2435  0.5219
  845MOL0     C14004  10.133   2.587  11.200  0.9506  0.5359  0.1130
  845MOL0     C14005  10.222   3.343  11.411  0.1267 -0.7519 -0.4561
  845MOL0     C14006  10.146   3.461  11.426 -0.9600  0.3644  0.4642
  845MOL0     C14007  10.113   3.511  11.561  0.3216 -0.1813  0.3780
  845MOL0     H14008  10.000   3.889  11.012 -0.7205  0.8671  3.5461
  845MOL0     H14009   9.790   3.957  10.877  0.0538 -2.5094 -2.5029
  845MOL0     H14010   9.619   4.076  10.895  2.2045 -1.8902  1.2028
  845MOL0     H14011   9.583   3.974  10.756 -0.7725  0.5878 -0.9597
  845MOL0     H14012   9.417   4.156  10.834  0.9033  0.4745  3.6181
  845MOL0     H14013   9.343   4.033  10.928 -0.6275 -1.7030 -1.7093
  845MOL0     H14014   9.350   3.863  10.748 -0.1348 -0.1579 -0.3407
  845MOL0     H14015   9.377   3.984  10.629  0.2194 -2.6805 -0.1798
  845MOL0     H14016   9.129   3.977  10.810  0.7163 -0.9430 -0.6188
  845MOL0     H14017   9.175   4.111  10.706 -0.2289 -0.1640  0.8341
  845MOL0     H14018   9.170   3.941  10.504 -1.7467 -3.2168 -1.6968
  845MOL0     H14019   9.101   3.835  10.629 -1.6442  0.3182  1.3432
  845MOL0     H14020   8.928   4.011  10.668  2.2479  0.9031  2.0206
  845MOL0     H14021   9.008   4.104  10.538 -0.0205 -0.0556  1.7291
  845MOL0     H14022   8.956   3.931  10.373  0.7012  1.1476 -0.0579
  845MOL0     H14023   8.821   4.012  10.442  0.5715  0.9507  0.6669
  845MOL0     H14024   8.922   3.727  10.531 -2.1790 -1.9333 -4.8385
  845MOL0     H14025   8.809   3.831  10.630 -2.3286  4.9410 -1.0507
  845MOL0     H14026   8.635   3.648  10.609  2.4935 -2.1661  0.8846
  845MOL0     H14027   8.392   3.543  10.327 -0.3764  0.6235 -0.3693
  845MOL0     H14028   8.428   3.522  10.490 -1.7132  0.9911  0.9913
  845MOL0     H14029   8.329   3.735  10.569 -4.2753  1.7986  0.1281
  845MOL0     H14030   8.326   3.787  10.397 -1.2957 -1.3174  0.0713
  845MOL0     H14031   8.109   3.761  10.433 -0.8321 -0.4483 -1.5828
  845MOL0     H14032   8.139   3.641  10.559 -4.3325 -0.3052 -0.7074
  845MOL0     H14033   8.195   3.599  10.278 -2.9952  1.9077 -0.6512
  845MOL0     H14034   8.027   3.574  10.333  1.2803  2.3178 -3.0584
  845MOL0     H14035   8.307   3.271  10.217 -0.8768 -0.8879 -2.1788
  845MOL0     H14036   8.189   3.054  10.115 -1.1279 -0.3446 -1.3542
  845MOL0     H14037   7.721   2.969   9.851  4.9578 -1.7573 -1.4161
  845MOL0     H14038   7.615   2.774   9.750  2.6444  2.8624 -0.0149
  845MOL0     H14039   7.395   2.458   9.792 -0.0932  0.0761 -1.2121
  845MOL0     H14040   7.412   2.631   9.743  0.4844  1.6233  2.5567
  845MOL0     H14041   7.661   2.522   9.687  1.2368 -2.3439  0.6249
  845MOL0     H14042   7.576   2.374   9.674 -3.3859 -0.4736 -3.9283
  845MOL0     H14043   7.419   2.505   9.526  0.5137 -0.1028  1.3101
  845MOL0     H14044   7.563   2.611   9.501 -0.8815  0.4019 -1.0748
  845MOL0     H14045   7.525   2.318   9.472 -2.1391  0.1863 -1.3765
  845MOL0     H14046   7.689   2.389   9.455  0.0811  0.3051 -0.4473
  845MOL0     H14047   7.437   2.445   9.289 -0.0849 -4.4106 -0.0707
  845MOL0     H14048   7.569   2.340   9.240 -0.7934 -0.0070 -1.5901
  845MOL0     H14049   7.569   2.640   9.268 -1.6961 -0.7981 -0.1420
  845MOL0     H14050   7.718   2.558   9.277 -0.0790 -0.4753  0.2213
  845MOL0     H14051   7.531   2.592   9.030  1.3344 -2.0435 -3.9393
  845MOL0     H14052   7.613   2.441   9.047  0.1813 -0.8477  0.9818
  845MOL0     H14053   7.833   2.563   9.059  2.1664  2.4915 -1.9530
  845MOL0     H14054   7.749   2.602   8.914 -1.3907  1.7371 -0.5524
  845MOL0     H14055   7.616   2.573  10.131 -2.3586  1.6294  0.6460
  845MOL0     H14056   7.731   2.762  10.229 -0.0709  2.8816  0.6161
  845MOL0     H14057   7.813   3.200  10.233 -0.6086 -0.8435 -2.6650
  845MOL0     H14058   7.909   3.380  10.345 -0.4758 -1.2494  1.1057
  845MOL0     H14059   9.560   3.698  11.106  0.7232 -0.0716 -1.1793
  845MOL0     H14060   9.779   3.593  11.203  3.0151  0.2357 -0.4675
  845MOL0     H14061  10.130   3.518  11.089  1.3588 -0.1514 -0.1141
  845MOL0     H14062  10.266   3.324  11.073 -1.6584  3.7913 -2.0235
  845MOL0     H14063  10.337   3.075  11.122 -0.4054 -1.3512  1.1642
  845MOL0     H14064  10.177   3.054  11.194  0.7128  0.7439 -0.7965
  845MOL0     H14065  10.445   2.925  11.292 -0.3974 -0.7325 -0.1353
  845MOL0     H14066  10.346   2.852  11.172 -1.2569  1.8025 -0.9847
  845MOL0     H14067  10.148   2.902  11.345 -0.9602  0.8346  6.2455
  845MOL0     H14068  10.265   2.928  11.463 -1.7839  1.9404  0.1257
  845MOL0     H14069  10.366   2.694  11.378 -1.2375 -1.4370 -1.4982
  845MOL0     H14070  10.218   2.706  11.477 -0.6083 -2.6977 -0.2159
  845MOL0     H14071  10.083   2.529  11.126 -0.7215  0.3661  1.3187
  845MOL0     H14072  10.269   3.300  11.499  1.6562  0.6134 -0.5435
  845MOL0     H14073  10.115   3.618  11.586 -0.6800 -0.4702  1.8474
  845MOL0     H14074  10.009   3.483  11.583  0.2528 -1.6251 -1.5782
  845MOL0     H14075  10.174   3.452  11.630  0.2715  0.5279  1.0589
  846MOL0     O14076  10.666  11.367   8.580  0.0297  0.0050  0.0947
  846MOL0     C14077  10.775  11.354   8.532 -0.4000 -1.0105  0.0534
  846MOL0     O14078  10.799  11.362   8.396  0.0494  0.2241  0.6145
  846MOL0     C14079  10.697  11.393   8.314  0.5148 -0.5550 -0.0485
  846MOL0     C14080  10.686  11.508   8.232  0.7835  0.4758 -0.7547
  846MOL0     C14081  10.581  11.521   8.141 -0.1428  0.4210  0.1008
  846MOL0     C14082  10.477  11.422   8.125  0.2242  0.1007  0.0080
  846MOL0     O14083  10.368  11.450   8.053  0.4139 -0.1007 -0.0728
  846MOL0     C14084  10.244  11.461   8.132  0.5388 -0.3362 -0.9480
  846MOL0     C14085  10.123  11.463   8.044 -0.5971 -0.5463 -0.1716
  846MOL0     C14086   9.994  11.440   8.133  0.7546  0.2713  0.6821
  846MOL0     C14087   9.960  11.561   8.208  0.1622  0.0228  1.2945
  846MOL0     C14088   9.813  11.562   8.272  0.3856 -0.0300  0.3384
  846MOL0     C14089   9.804  11.662   8.392 -0.2949  0.5527 -0.5461
  846MOL0     C14090   9.661  11.714   8.418  0.5846  1.5397 -0.7774
  846MOL0     C14091   9.654  11.810   8.540 -0.7102 -0.3670  0.6306
  846MOL0     N14092   9.664  11.739   8.670  0.4073 -0.2092  0.0511
  846MOL0     C14093   9.765  11.665   8.730 -0.2108 -0.3016  0.7471
  846MOL0     C14094   9.694  11.577   8.800 -0.5788  1.1812  0.5084
  846MOL0     C14095   9.763  11.472   8.900  0.5735 -0.4780 -0.2837
  846MOL0     C14096   9.744  11.325   8.866  0.6706 -0.8158 -1.1777
  846MOL0     C14097   9.836  11.235   8.948 -0.2729 -0.4803 -0.3583
  846MOL0     C14098   9.842  11.092   8.897 -0.0289 -0.2820 -0.8008
  846MOL0     O14099   9.709  11.046   8.855  0.2330 -0.4997  0.3651
  846MOL0     C14100   9.626  10.978   8.940  0.2820  0.4502  0.2580
  846MOL0     C14101   9.497  10.968   8.902 -0.5660 -0.4755  0.3262
  846MOL0     C14102   9.399  10.916   8.987  0.0359  0.0483  0.1570
  846MOL0     C14103   9.439  10.841   9.098 -0.0168  0.0493 -0.2415
  846MOL0     C14104   9.333  10.791   9.187  0.9868  0.3707  0.3307
  846MOL0     O14105   9.216  10.863   9.197 -0.0170 -0.5158  0.4052
  846MOL0     C14106   9.119  10.808   9.272  0.1173  0.3447  0.0357
  846MOL0     C14107   8.997  10.778   9.201 -0.9589  0.5447 -0.4870
  846MOL0     C14108   8.899  10.708   9.266 -1.1833  0.8065  1.5947
  846MOL0     C14109   8.901  10.685   9.403 -0.3940  0.4350  0.3201
  846MOL0     O14110   8.784  10.639   9.450  0.3521 -0.4102  0.0480
  846MOL0     C14111   8.731  10.679   9.570  0.5281 -0.1343  0.0815
  846MOL0     C14112   8.591  10.608   9.587  0.5829 -0.4583 -0.0463
  846MOL0     C14113   8.517  10.654   9.716 -0.4613  0.1090  0.0252
  846MOL0     C14114   8.493  10.803   9.725 -0.1867  0.6335  0.3485
  846MOL0     C14115   8.423  10.828   9.862  0.2925 -0.2370 -0.2938
  846MOL0     C14116   8.273  10.841   9.848  0.2551 -0.8939  0.3091
  846MOL0     C14117   8.208  10.919   9.961 -0.0401  0.1773 -0.3044
  846MOL0     C14118   8.055  10.917   9.953 -0.1791  0.2713  0.0583
  846MOL0    Cl14119   7.970  11.075   9.974 -0.3456 -0.3109 -0.6498
  846MOL0     C14120   9.012  10.730   9.476 -0.1711  0.8510 -0.6591
  846MOL0     C14121   9.117  10.789   9.412 -0.5547  0.7883  0.2947
  846MOL0     O14122   9.351  10.682   9.244 -0.1883  0.0430  0.8525
  846MOL0     C14123   9.574  10.851   9.136 -0.6891 -0.3486 -0.2609
  846MOL0     C14124   9.665  10.932   9.064  0.0276 -0.3350 -0.7168
  846MOL0     N14125   9.560  11.596   8.795 -0.0327 -0.6373  1.1258
  846MOL0     N14126   9.539  11.706   8.720 -0.8244  0.0122 -0.1146
  846MOL0     C14127  10.483  11.316   8.219  0.3345 -0.3051  0.8629
  846MOL0     C14128  10.602  11.296   8.297  0.8848  0.2364  0.5860
  846MOL0     C14129  10.886  11.330   8.626 -0.2299  0.0019  0.3687
  846MOL0     C14130  10.997  11.412   8.616  0.1815 -0.6185  0.7831
  846MOL0     C14131  11.106  11.390   8.702 -0.2267 -0.2464 -0.1519
  846MOL0     C14132  11.101  11.279   8.788  0.2642 -0.1446  0.3653
  846MOL0     O14133  11.211  11.267   8.871 -0.7256 -0.0192  0.2421
  846MOL0     C14134  11.194  11.172   8.979  0.1172 -0.4229 -0.2535
  846MOL0     C14135  11.321  11.157   9.064 -0.7885 -0.1524 -0.1433
  846MOL0     C14136  11.453  11.132   8.979  0.1283 -0.2762 -0.9220
  846MOL0     C14137  11.567  11.159   9.080 -0.6332 -0.2984  0.3660
  846MOL0     C14138  11.684  11.084   9.025  0.5615 -0.5384  0.0757
  846MOL0     C14139  11.765  11.013   8.977  0.5989 -0.3611 -0.8749
  846MOL0     C14140  10.987  11.196   8.792 -1.0079  0.3307 -0.7345
  846MOL0     C14141  10.875  11.223   8.720 -0.4529  0.0901  0.4947
  846MOL0     C14142  10.749  11.141   8.730 -0.4643 -0.9801  0.0948
  846MOL0     H14143  10.759  11.588   8.241  0.8912  0.2673  0.3252
  846MOL0     H14144  10.578  11.618   8.094 -0.0886  0.3391 -0.0704
  846MOL0     H14145  10.230  11.367   8.186  0.9269  0.6573  0.9522
  846MOL0     H14146  10.248  11.551   8.194 -2.5176  0.8873 -2.3512
  846MOL0     H14147  10.136  11.385   7.967  0.6303 -0.1936 -0.3375
  846MOL0     H14148  10.128  11.559   7.992 -1.9028 -0.4228 -0.1146
  846MOL0     H14149  10.003  11.350   8.195  2.2669 -0.8386 -1.0461
  846MOL0     H14150   9.912  11.420   8.063  2.1547 -0.4044 -0.8126
  846MOL0     H14151  10.028  11.572   8.293 -0.5672  1.5077  1.7185
  846MOL0     H14152   9.972  11.640   8.132 -3.7105 -0.3749  0.0370
  846MOL0     H14153   9.745  11.597   8.194  0.2839 -0.9869 -0.0152
  846MOL0     H14154   9.782  11.460   8.297 -0.8444  0.1657 -0.2846
  846MOL0     H14155   9.848  11.618   8.481  2.6575  1.5988 -1.3882
  846MOL0     H14156   9.867  11.742   8.351  1.2793 -0.7402 -0.7526
  846MOL0     H14157   9.597  11.627   8.433  1.9882  0.8004  1.3789
  846MOL0     H14158   9.618  11.764   8.331 -2.3706  0.7141  0.1063
  846MOL0     H14159   9.740  11.878   8.527  0.7335 -1.9452  1.5097
  846MOL0     H14160   9.557  11.859   8.544 -1.1439 -1.2574  1.1785
  846MOL0     H14161   9.873  11.669   8.719 -0.0250  0.8942  2.6007
  846MOL0     H14162   9.865  11.511   8.907  0.4626 -0.4829  1.8610
  846MOL0     H14163   9.704  11.495   8.989 -3.1144  2.4900 -3.1312
  846MOL0     H14164   9.641  11.298   8.893 -0.3637  3.0523 -0.5850
  846MOL0     H14165   9.759  11.307   8.759  2.0196  0.4682 -1.2336
  846MOL0     H14166   9.820  11.234   9.056 -4.2501  1.0900 -0.7846
  846MOL0     H14167   9.934  11.279   8.927 -0.4822 -0.3277 -1.0188
  846MOL0     H14168   9.890  11.027   8.971 -0.5994  0.2007  0.0094
  846MOL0     H14169   9.911  11.095   8.813  0.2068  1.9274 -0.5949
  846MOL0     H14170   9.468  11.023   8.813 -0.4448  0.4843  0.8647
  846MOL0     H14171   9.300  10.915   8.941  0.1568 -1.2545 -0.1191
  846MOL0     H14172   8.988  10.807   9.097 -1.2193  0.6761 -0.4296
  846MOL0     H14173   8.823  10.680   9.194 -0.1529  0.1137  0.7345
  846MOL0     H14174   8.799  10.657   9.653 -1.0734 -1.0374  1.2209
  846MOL0     H14175   8.716  10.787   9.568  2.5205  0.1863  0.1155
  846MOL0     H14176   8.526  10.619   9.500 -1.5205 -0.1508  1.4924
  846MOL0     H14177   8.608  10.500   9.587  3.7899 -0.0703  1.1073
  846MOL0     H14178   8.427  10.593   9.728 -1.1426  1.2495  1.0083
  846MOL0     H14179   8.585  10.617   9.793 -2.1412 -0.3301  1.3745
  846MOL0     H14180   8.432  10.839   9.642 -1.8053  0.3455  1.3726
  846MOL0     H14181   8.590  10.852   9.718  0.6134 -0.5650  2.0630
  846MOL0     H14182   8.462  10.922   9.902 -0.4196  0.0116 -0.1713
  846MOL0     H14183   8.440  10.739   9.924  1.5378  1.2726  1.6912
  846MOL0     H14184   8.260  10.880   9.747  0.3082 -2.2192 -0.2329
  846MOL0     H14185   8.227  10.742   9.841 -2.0073  0.2121 -3.7572
  846MOL0     H14186   8.253  11.018   9.944 -2.0644  1.4716  1.3838
  846MOL0     H14187   8.249  10.884  10.056  0.7829 -0.8249 -1.0066
  846MOL0     H14188   8.030  10.872   9.856  0.2456 -3.7879  1.6416
  846MOL0     H14189   8.010  10.849  10.025  0.4511  0.7519  0.9259
  846MOL0     H14190   9.006  10.710   9.583  0.0068 -2.5641 -1.1581
  846MOL0     H14191   9.196  10.832   9.473  0.3256 -2.5921  1.7403
  846MOL0     H14192   9.613  10.793   9.220  0.3927 -0.8917 -1.1093
  846MOL0     H14193   9.769  10.931   9.095 -0.7382 -0.1596  2.1462
  846MOL0     H14194  10.416  11.230   8.216 -0.4051  0.2980 -0.9533
  846MOL0     H14195  10.618  11.213   8.365 -1.6822  0.5379  1.6724
  846MOL0     H14196  10.998  11.496   8.547 -0.2503  2.8682  4.6494
  846MOL0     H14197  11.191  11.457   8.702 -0.9116  0.6384  0.7770
  846MOL0     H14198  11.175  11.075   8.932  0.9050 -1.1777  0.9203
  846MOL0     H14199  11.113  11.194   9.050  1.6215 -0.4170  1.5314
  846MOL0     H14200  11.307  11.080   9.141  3.9309 -0.4996  0.6570
  846MOL0     H14201  11.343  11.249   9.119 -1.1902  1.5211 -2.6158
  846MOL0     H14202  11.463  11.193   8.888  1.8994 -0.0934 -0.6411
  846MOL0     H14203  11.448  11.027   8.949 -0.5263 -0.2716 -0.8482
  846MOL0     H14204  11.585  11.263   9.105  0.6372 -0.9726  2.5029
  846MOL0     H14205  11.542  11.100   9.168  0.6613 -0.2825  0.7677
  846MOL0     H14206  11.846  10.947   8.956  0.7372 -0.1494 -1.0093
  846MOL0     H14207  10.987  11.107   8.853  2.5850  2.0011  2.0714
  846MOL0     H14208  10.672  11.205   8.773  0.9234  0.5683  0.3895
  846MOL0     H14209  10.723  11.111   8.629 -0.8105 -0.6452  0.0799
  846MOL0     H14210  10.784  11.057   8.791 -0.7887 -2.6914 -1.9784
  847MOL0     O14211   2.616   5.821   9.571 -0.7414  0.2284 -0.0517
  847MOL0     C14212   2.549   5.732   9.524  0.0444 -0.7973  0.3417
  847MOL0     O14213   2.548   5.606   9.576 -0.3044  0.7276  0.7144
  847MOL0     C14214   2.649   5.557   9.655  0.0625 -0.6925  0.2648
  847MOL0     C14215   2.609   5.448   9.735 -0.3801 -0.0076  0.1634
  847MOL0     C14216   2.706   5.379   9.800 -0.7306  0.2644  0.5153
  847MOL0     C14217   2.846   5.400   9.785  0.5890  0.1725 -0.1961
  847MOL0     O14218   2.941   5.323   9.851  0.0525  0.1366  0.0600
  847MOL0     C14219   2.902   5.201   9.905 -0.6355 -0.1927 -0.6591
  847MOL0     C14220   3.031   5.133   9.961 -0.6905 -0.0334  0.5501
  847MOL0     C14221   3.000   4.999  10.007  0.0813  0.2909 -0.8084
  847MOL0     C14222   3.108   4.949  10.101 -0.0510  0.6017  0.4141
  847MOL0     C14223   3.125   4.794  10.097 -0.6605 -0.8119 -0.3971
  847MOL0     C14224   3.250   4.763  10.176 -0.7059  0.2704  0.1798
  847MOL0     C14225   3.250   4.609  10.198  1.4453 -0.7474 -0.0778
  847MOL0     C14226   3.397   4.574  10.185  0.0685  0.9663  0.4304
  847MOL0     N14227   3.423   4.443  10.256  0.3716  0.1739  0.0919
  847MOL0     C14228   3.549   4.416  10.318 -1.0268 -0.3309  0.6929
  847MOL0     C14229   3.539   4.293  10.365  0.1034  0.4415 -0.6260
  847MOL0     C14230   3.638   4.200  10.442  0.2190 -0.2909 -0.8077
  847MOL0     C14231   3.631   4.232  10.592  0.3795 -0.5746 -0.7438
  847MOL0     C14232   3.683   4.362  10.642 -1.2057 -0.4580  0.6046
  847MOL0     C14233   3.667   4.377  10.796 -0.0067  0.5457  0.5632
  847MOL0     O14234   3.685   4.523  10.824 -0.9143  0.4246  0.4608
  847MOL0     C14235   3.755   4.548  10.942  0.3474  0.6429  0.2369
  847MOL0     C14236   3.863   4.634  10.935  0.3413  0.5653  0.4092
  847MOL0     C14237   3.921   4.691  11.052  0.4190  0.4157  0.9400
  847MOL0     C14238   3.885   4.631  11.175 -0.1829 -0.1151 -0.3182
  847MOL0     C14239   3.951   4.678  11.294  0.0150 -0.1689  0.7805
  847MOL0     O14240   3.877   4.669  11.407 -1.0400  0.0946 -0.1816
  847MOL0     C14241   3.951   4.676  11.526  0.5335 -0.1926  0.0036
  847MOL0     C14242   4.037   4.568  11.568  0.0666 -0.1936  0.2484
  847MOL0     C14243   4.114   4.583  11.684 -0.2560 -0.6203  0.0534
  847MOL0     C14244   4.090   4.693  11.763  0.0397 -0.1698 -1.2969
  847MOL0     O14245   4.156   4.713  11.884 -0.4836  0.4123 -0.4361
  847MOL0     C14246   4.234   4.826  11.908  0.4611 -0.0248  0.6278
  847MOL0     C14247   4.369   4.796  11.956 -0.1657  0.9921 -0.2321
  847MOL0     C14248   4.368   4.742  12.108  0.7592  0.1413 -0.9306
  847MOL0     C14249   4.325   4.579  12.117  0.1304 -0.2942 -1.0155
  847MOL0     C14250   4.399   4.473  12.025  0.0871  0.2602 -1.3340
  847MOL0     C14251   4.376   4.328  12.056 -0.2274 -0.0387  0.2802
  847MOL0     C14252   4.221   4.300  12.065 -0.0354  0.0439  0.6150
  847MOL0     C14253   4.153   4.323  11.925  0.3045 -0.6528  0.5179
  847MOL0    Cl14254   3.990   4.264  11.939 -0.0049 -0.1098 -0.0847
  847MOL0     C14255   4.005   4.799  11.720 -0.6686 -0.7676  0.0326
  847MOL0     C14256   3.938   4.791  11.598 -0.6334 -0.8551 -0.0172
  847MOL0     O14257   4.073   4.694  11.277  0.0371  0.4509 -0.3236
  847MOL0     C14258   3.781   4.534  11.183 -0.2840  0.4610  0.8235
  847MOL0     C14259   3.726   4.491  11.062 -0.2473  0.7957  0.2315
  847MOL0     N14260   3.422   4.239  10.319 -0.3807  0.6855  0.5553
  847MOL0     N14261   3.354   4.328  10.256  0.8601 -0.4041  0.5352
  847MOL0     C14262   2.882   5.503   9.712  0.1300  0.4036  0.1494
  847MOL0     C14263   2.788   5.588   9.638 -0.3652  0.4081 -0.3469
  847MOL0     C14264   2.463   5.784   9.420 -0.1296 -0.4789  0.0984
  847MOL0     C14265   2.516   5.883   9.331  0.3587  0.5190 -0.7520
  847MOL0     C14266   2.437   5.943   9.239 -0.3961  0.0226  0.2323
  847MOL0     C14267   2.296   5.917   9.238 -0.5583  0.3729 -0.3136
  847MOL0     O14268   2.212   5.984   9.153  0.3761  0.8488 -0.3317
  847MOL0     C14269   2.264   6.086   9.071 -0.4508  0.1624  0.6873
  847MOL0     C14270   2.145   6.159   9.012  1.3657  0.4627 -0.5072
  847MOL0     C14271   2.164   6.299   8.945 -0.0957 -0.2289  0.8796
  847MOL0     C14272   2.040   6.328   8.861  0.4826  0.1643  0.0498
  847MOL0     C14273   2.055   6.466   8.817  0.9170 -0.0739 -1.2343
  847MOL0     C14274   2.065   6.582   8.772  0.3792  0.4860  0.4438
  847MOL0     C14275   2.242   5.817   9.322 -0.9021  0.0811  0.1071
  847MOL0     C14276   2.331   5.746   9.411 -0.2790 -0.0648 -0.1800
  847MOL0     C14277   2.262   5.646   9.498 -0.0903 -0.2433 -0.3306
  847MOL0     H14278   2.508   5.407   9.737 -0.9401  1.3174  0.3041
  847MOL0     H14279   2.662   5.299   9.859  1.7127 -0.2830  1.7154
  847MOL0     H14280   2.822   5.226   9.975 -1.2201 -2.9446 -0.2257
  847MOL0     H14281   2.865   5.138   9.824 -0.0922 -1.0652 -0.2417
  847MOL0     H14282   3.070   5.188  10.047  0.4360  1.8170 -1.0661
  847MOL0     H14283   3.113   5.124   9.889 -1.6725 -3.2058 -0.3465
  847MOL0     H14284   2.994   4.932   9.921  0.8982 -0.6949 -0.1195
  847MOL0     H14285   2.912   5.005  10.072  1.2780  0.0152  0.8787
  847MOL0     H14286   3.205   4.998  10.083  2.0671 -3.1779  0.3995
  847MOL0     H14287   3.076   4.982  10.200 -0.6967  1.2369  0.0057
  847MOL0     H14288   3.038   4.747  10.143  1.2359 -3.0735  1.0918
  847MOL0     H14289   3.128   4.770   9.991 -4.2930  2.3232 -1.4259
  847MOL0     H14290   3.336   4.796  10.117  1.2676 -3.8801  0.3430
  847MOL0     H14291   3.258   4.809  10.275 -0.8803  0.3769  0.1437
  847MOL0     H14292   3.179   4.562  10.129  0.4441 -0.3200  0.6324
  847MOL0     H14293   3.203   4.589  10.294 -0.7118 -2.0183 -1.3154
  847MOL0     H14294   3.419   4.541  10.083  0.7153  0.6510  0.6707
  847MOL0     H14295   3.473   4.648  10.212  1.8511 -0.0211 -1.5662
  847MOL0     H14296   3.639   4.476  10.328 -0.9023 -0.6829  1.8025
  847MOL0     H14297   3.606   4.096  10.429 -0.4808 -0.4675  1.8024
  847MOL0     H14298   3.741   4.211  10.405  0.6639 -1.6350 -0.0415
  847MOL0     H14299   3.525   4.228  10.616  0.3672  2.1721 -0.0503
  847MOL0     H14300   3.678   4.151  10.649 -0.3218  0.2818  1.1415
  847MOL0     H14301   3.628   4.437  10.585  0.2959 -0.7882 -1.4003
  847MOL0     H14302   3.790   4.378  10.627 -1.3762 -1.1694 -1.9088
  847MOL0     H14303   3.744   4.326  10.855 -0.8154  2.2648  3.2729
  847MOL0     H14304   3.571   4.333  10.826  0.2443 -0.3465  0.0897
  847MOL0     H14305   3.879   4.680  10.838 -2.1493 -2.2084 -1.5009
  847MOL0     H14306   3.994   4.771  11.054 -0.5237  1.4226 -1.3187
  847MOL0     H14307   4.053   4.476  11.512  0.5801  0.6903 -1.1261
  847MOL0     H14308   4.185   4.509  11.720 -1.0025 -0.5993  1.6158
  847MOL0     H14309   4.252   4.883  11.816  2.5274 -1.7077 -0.0921
  847MOL0     H14310   4.193   4.901  11.976  0.2630  0.3015  0.1599
  847MOL0     H14311   4.420   4.721  11.895 -1.6490 -0.6941  0.5056
  847MOL0     H14312   4.427   4.888  11.964 -0.7903  1.6698 -2.7348
  847MOL0     H14313   4.463   4.772  12.152  1.7639 -1.0715 -2.1811
  847MOL0     H14314   4.296   4.787  12.177  1.4088  0.3648 -0.3938
  847MOL0     H14315   4.216   4.579  12.103  0.0694  1.5000 -0.7525
  847MOL0     H14316   4.339   4.546  12.220 -2.9639 -1.4711 -0.8616
  847MOL0     H14317   4.507   4.490  12.036  0.0854 -0.3486 -0.2524
  847MOL0     H14318   4.378   4.478  11.918  2.5731 -1.2197 -1.9679
  847MOL0     H14319   4.417   4.260  11.980  5.1392 -0.2455  2.8951
  847MOL0     H14320   4.425   4.298  12.149  0.7562 -1.1199 -0.5520
  847MOL0     H14321   4.169   4.354  12.145  1.9332  1.6941  0.8607
  847MOL0     H14322   4.218   4.193  12.088 -2.4657 -0.2304 -0.7093
  847MOL0     H14323   4.141   4.431  11.916 -2.1446 -0.6186  2.8549
  847MOL0     H14324   4.216   4.270  11.852  1.6953  1.2196  0.2830
  847MOL0     H14325   3.994   4.883  11.786 -2.1970 -1.0615  0.1786
  847MOL0     H14326   3.869   4.872  11.574  0.7687  1.7291  3.7305
  847MOL0     H14327   3.746   4.490  11.277 -1.3903  3.1624  1.7737
  847MOL0     H14328   3.640   4.426  11.078  2.1704 -2.5543  0.8792
  847MOL0     H14329   2.987   5.523   9.692 -0.6062  1.2887 -3.5201
  847MOL0     H14330   2.829   5.667   9.576  2.6471 -1.6072 -1.1184
  847MOL0     H14331   2.619   5.915   9.339  0.6051 -0.7054  2.5186
  847MOL0     H14332   2.476   6.024   9.179 -2.4029  2.6541  2.2319
  847MOL0     H14333   2.334   6.053   8.994  0.3392  1.6314  0.7272
  847MOL0     H14334   2.324   6.155   9.132  0.4904  0.5156 -0.5969
  847MOL0     H14335   2.080   6.175   9.098 -0.2799  1.4455 -1.8551
  847MOL0     H14336   2.100   6.086   8.942 -1.5727 -1.0074  2.6163
  847MOL0     H14337   2.246   6.305   8.872 -1.9181 -1.0483 -1.3387
  847MOL0     H14338   2.173   6.373   9.026 -3.5148  1.2984  0.0340
  847MOL0     H14339   2.040   6.259   8.776 -3.3633  0.1718 -0.1656
  847MOL0     H14340   1.949   6.309   8.919 -0.5733 -1.8995 -2.0943
  847MOL0     H14341   2.067   6.685   8.742  0.6336  0.0875 -0.9629
  847MOL0     H14342   2.136   5.795   9.323 -0.7779 -1.2382 -3.1871
  847MOL0     H14343   2.311   5.627   9.595 -1.6297  0.2339  0.5686
  847MOL0     H14344   2.159   5.678   9.516  0.5096  2.3718 -1.1492
  847MOL0     H14345   2.261   5.549   9.448 -0.5113 -2.8354  4.1077
  848MOL0     O14346   7.865   9.022   0.473  0.2013  0.2187  0.0372
  848MOL0     C14347   7.946   9.009   0.381 -0.3361  0.1330 -0.3536
  848MOL0     O14348   7.948   8.904   0.282  0.1860 -0.3065 -0.2155
  848MOL0     C14349   7.834   8.828   0.275  0.1689 -0.0189 -0.7282
  848MOL0     C14350   7.816   8.714   0.346  1.0309 -0.1218 -0.2350
  848MOL0     C14351   7.699   8.632   0.325  1.2866  0.4556 -0.3184
  848MOL0     C14352   7.592   8.677   0.243 -0.4306  0.3823 -0.5212
  848MOL0     O14353   7.474   8.610   0.220  0.0895  0.7387 -0.5700
  848MOL0     C14354   7.483   8.464   0.217 -0.5126  0.0682 -0.5683
  848MOL0     C14355   7.396   8.406   0.107 -0.7708  0.0841 -0.1045
  848MOL0     C14356   7.405   8.496  -0.025 -0.3869 -0.1910  0.0147
  848MOL0     C14357   7.328   8.443  -0.142  0.0024  0.3023  0.7768
  848MOL0     C14358   7.381   8.315  -0.201  0.4501  0.3674  1.0348
  848MOL0     C14359   7.282   8.244  -0.294 -0.7478 -0.5656  0.6975
  848MOL0     C14360   7.175   8.178  -0.211  0.1697  0.2159 -0.0694
  848MOL0     C14361   7.070   8.101  -0.295 -0.0222  0.3589 -0.9360
  848MOL0     N14362   7.128   7.988  -0.372 -0.0359  0.2300 -0.2513
  848MOL0     C14363   7.120   7.859  -0.336 -0.3570  1.0512  0.0251
  848MOL0     C14364   7.165   7.780  -0.440 -0.5956  1.1330  0.6604
  848MOL0     C14365   7.200   7.636  -0.436 -0.3205  0.7364  0.6567
  848MOL0     C14366   7.101   7.547  -0.354 -0.2051 -0.7710 -0.4655
  848MOL0     C14367   7.079   7.416  -0.419 -0.3176  0.3452  0.2589
  848MOL0     C14368   7.030   7.309  -0.323  0.1393 -0.2534 -0.9293
  848MOL0     O14369   7.133   7.276  -0.230  0.9230  0.2372  0.1938
  848MOL0     C14370   7.108   7.188  -0.128  0.0039  0.0525 -0.4039
  848MOL0     C14371   6.983   7.122  -0.101 -0.2646 -0.0267  0.1172
  848MOL0     C14372   6.977   7.034  -0.001  0.4898  0.1189  0.7818
  848MOL0     C14373   7.089   6.999   0.075 -0.7724 -0.5291  0.0133
  848MOL0     C14374   7.088   6.885   0.173  1.1981 -0.7176  0.3031
  848MOL0     O14375   6.988   6.789   0.159  0.3244 -0.1373  0.7671
  848MOL0     C14376   6.959   6.725   0.269  0.8444  0.7013  0.2643
  848MOL0     C14377   6.848   6.757   0.348  0.1601  0.2335 -0.0489
  848MOL0     C14378   6.821   6.686   0.465  0.0537 -0.6496 -0.1504
  848MOL0     C14379   6.886   6.568   0.502  0.7483 -1.0491  0.2253
  848MOL0     O14380   6.871   6.521   0.629 -0.9869 -0.4645  0.1600
  848MOL0     C14381   6.879   6.375   0.647 -0.0755 -0.2795  1.4635
  848MOL0     C14382   6.738   6.314   0.651 -0.3914  0.6376  0.2022
  848MOL0     C14383   6.645   6.391   0.752  0.0682  1.1857  0.8597
  848MOL0     C14384   6.503   6.327   0.749  0.8245 -0.3841 -0.0497
  848MOL0     C14385   6.425   6.362   0.884 -0.1864  0.4233  0.6718
  848MOL0     C14386   6.276   6.314   0.877 -0.9310 -0.5485  0.1635
  848MOL0     C14387   6.266   6.168   0.905 -0.4060  0.3013 -0.1558
  848MOL0     C14388   6.123   6.123   0.926  0.1662  0.2479 -0.5920
  848MOL0    Cl14389   6.079   6.179   1.088 -0.1004  0.5605  0.1617
  848MOL0     C14390   6.979   6.520   0.409 -0.1686  0.1470  0.5237
  848MOL0     C14391   7.017   6.599   0.294  0.6941  0.4874  0.6416
  848MOL0     O14392   7.168   6.903   0.265  1.0358  0.1048  0.4941
  848MOL0     C14393   7.208   7.070   0.052 -0.1078 -0.4785  0.2648
  848MOL0     C14394   7.210   7.172  -0.042  0.1850  0.3024 -0.7512
  848MOL0     N14395   7.184   7.864  -0.542 -0.6013 -0.3855  0.6382
  848MOL0     N14396   7.162   7.987  -0.500 -0.6137  0.1183  1.1137
  848MOL0     C14397   7.609   8.793   0.168 -0.2767 -0.8183  0.3788
  848MOL0     C14398   7.725   8.872   0.188 -0.0213  0.0605 -1.0242
  848MOL0     C14399   8.055   9.113   0.378  0.2304 -0.9530  0.9836
  848MOL0     C14400   8.152   9.093   0.285  0.5964 -1.2640  0.6387
  848MOL0     C14401   8.237   9.199   0.244 -0.1275 -0.2922 -1.1666
  848MOL0     C14402   8.223   9.333   0.308  0.3689 -0.3471 -0.3132
  848MOL0     O14403   8.299   9.445   0.278 -0.5175 -0.5158 -0.7145
  848MOL0     C14404   8.418   9.439   0.188  0.2087  0.2616 -1.5938
  848MOL0     C14405   8.548   9.430   0.258 -0.1588 -0.2247  0.5709
  848MOL0     C14406   8.546   9.323   0.359  0.1162 -0.5814 -0.1587
  848MOL0     C14407   8.691   9.315   0.424  0.5990 -1.4265 -0.4375
  848MOL0     C14408   8.807   9.326   0.329 -0.3259  0.4885 -0.1848
  848MOL0     C14409   8.910   9.307   0.261 -0.6338  0.0447  0.3468
  848MOL0     C14410   8.136   9.339   0.425 -0.6039 -0.0562  0.7629
  848MOL0     C14411   8.050   9.236   0.452  0.1499 -1.1058 -0.4921
  848MOL0     C14412   7.952   9.277   0.559  0.1164  0.1195 -0.1727
  848MOL0     H14413   7.899   8.679   0.406  0.8073  0.4736  0.4322
  848MOL0     H14414   7.680   8.541   0.382 -1.7444  0.2346 -1.4747
  848MOL0     H14415   7.587   8.436   0.202 -0.1683 -0.3220  2.0798
  848MOL0     H14416   7.461   8.422   0.316 -0.1847  1.1427 -0.0260
  848MOL0     H14417   7.294   8.405   0.147 -1.0915  0.4185 -0.8920
  848MOL0     H14418   7.427   8.303   0.093 -0.4967 -0.0939  1.5803
  848MOL0     H14419   7.505   8.524  -0.058 -1.1732  2.6892 -0.1586
  848MOL0     H14420   7.358   8.588   0.011  1.3843  0.2849  1.2527
  848MOL0     H14421   7.233   8.412  -0.097 -3.8002  1.4603 -5.3026
  848MOL0     H14422   7.308   8.517  -0.219 -2.2024 -1.8171 -0.8271
  848MOL0     H14423   7.468   8.338  -0.263 -1.7196  1.7727 -1.7601
  848MOL0     H14424   7.417   8.250  -0.120 -1.8387 -0.1452  1.7293
  848MOL0     H14425   7.234   8.319  -0.358 -0.2113 -1.9002 -1.3292
  848MOL0     H14426   7.339   8.173  -0.353  0.4482  1.3424 -0.5436
  848MOL0     H14427   7.117   8.247  -0.150 -2.6615 -2.8094  0.9125
  848MOL0     H14428   7.227   8.114  -0.140  0.6288 -0.7692 -1.2551
  848MOL0     H14429   6.992   8.064  -0.227 -0.7702  0.3396 -1.7846
  848MOL0     H14430   7.026   8.167  -0.371 -0.2820  1.6407  0.2883
  848MOL0     H14431   7.070   7.827  -0.246 -0.5016 -2.5623 -1.1517
  848MOL0     H14432   7.202   7.600  -0.540  0.5573  0.8067  0.6437
  848MOL0     H14433   7.303   7.632  -0.398 -0.3560 -0.5452  0.6442
  848MOL0     H14434   7.141   7.539  -0.253 -1.0543  2.4776  0.2404
  848MOL0     H14435   7.003   7.594  -0.342 -0.2097 -0.9427  0.1996
  848MOL0     H14436   7.175   7.382  -0.459 -0.3051 -2.6143  2.4633
  848MOL0     H14437   7.007   7.432  -0.499 -0.9297 -0.5021  0.6226
  848MOL0     H14438   6.998   7.225  -0.385 -2.5494  0.2965 -0.3889
  848MOL0     H14439   6.945   7.340  -0.262  1.4840 -1.2931  1.6028
  848MOL0     H14440   6.898   7.150  -0.162 -2.2173 -4.8803  0.2012
  848MOL0     H14441   6.890   6.977   0.029  0.2463  2.0481  4.2685
  848MOL0     H14442   6.795   6.850   0.328  4.0011  2.3725 -1.1543
  848MOL0     H14443   6.757   6.737   0.536  1.6292 -1.2991  1.8268
  848MOL0     H14444   6.935   6.320   0.572  0.2267  1.1203  0.6361
  848MOL0     H14445   6.916   6.346   0.746 -1.3992 -0.1092  2.0274
  848MOL0     H14446   6.696   6.343   0.554 -1.7285  4.4436  1.7328
  848MOL0     H14447   6.729   6.205   0.661  1.0647  0.6435  2.0790
  848MOL0     H14448   6.685   6.402   0.854  0.3025  3.3605  0.5708
  848MOL0     H14449   6.620   6.486   0.705 -1.2321  0.0280 -0.9107
  848MOL0     H14450   6.508   6.218   0.751 -0.0533 -0.4280  0.2758
  848MOL0     H14451   6.453   6.368   0.660  1.2541 -2.3819 -1.2946
  848MOL0     H14452   6.436   6.470   0.879  1.2929  0.2386 -2.3297
  848MOL0     H14453   6.478   6.317   0.970 -5.0682 -4.5901  1.6380
  848MOL0     H14454   6.224   6.367   0.957  1.0242 -2.0679  2.5873
  848MOL0     H14455   6.231   6.346   0.783  2.6109  3.0740 -0.5893
  848MOL0     H14456   6.320   6.151   0.998 -0.2453 -0.3553 -0.3600
  848MOL0     H14457   6.306   6.109   0.822  4.3158  1.4267  1.0107
  848MOL0     H14458   6.057   6.163   0.849  0.9907  2.5643 -0.1821
  848MOL0     H14459   6.122   6.014   0.924  1.3882  0.2365 -1.2585
  848MOL0     H14460   7.034   6.428   0.429  0.6349  0.2927 -0.9005
  848MOL0     H14461   7.094   6.572   0.224  0.1447  1.7008 -0.4662
  848MOL0     H14462   7.288   7.069   0.125  1.5854  0.5799 -1.4732
  848MOL0     H14463   7.293   7.242  -0.055 -0.1077  1.2484  1.8788
  848MOL0     H14464   7.534   8.822   0.095 -2.7576 -1.1480  2.6365
  848MOL0     H14465   7.736   8.970   0.142 -0.7810  0.2531 -0.8143
  848MOL0     H14466   8.166   8.999   0.233 -0.4555  0.9120 -4.0944
  848MOL0     H14467   8.295   9.184   0.154  0.1699 -2.6443 -0.6243
  848MOL0     H14468   8.409   9.538   0.141  1.4691 -1.0130 -4.7857
  848MOL0     H14469   8.403   9.372   0.103  0.2253 -0.8459 -0.7339
  848MOL0     H14470   8.582   9.527   0.296 -1.2431  2.0158 -3.6058
  848MOL0     H14471   8.621   9.415   0.178 -3.4111  1.4125 -3.0153
  848MOL0     H14472   8.527   9.228   0.307  2.2380  1.2399 -4.7240
  848MOL0     H14473   8.462   9.343   0.426 -0.6944 -0.4021 -1.1955
  848MOL0     H14474   8.707   9.400   0.491 -1.5530  1.3268 -3.1315
  848MOL0     H14475   8.692   9.225   0.486  0.9605 -2.1984 -1.5240
  848MOL0     H14476   8.980   9.295   0.181 -0.8543 -1.2878  0.3367
  848MOL0     H14477   8.127   9.433   0.478 -1.8899  0.3467 -0.1303
  848MOL0     H14478   7.959   9.383   0.587  1.0185  0.2145 -0.7308
  848MOL0     H14479   7.846   9.258   0.539  0.4507  0.1607 -2.3129
  848MOL0     H14480   7.980   9.229   0.653  1.2980 -2.5701 -1.7915
  849MOL0     O14481   7.295  10.874   9.993 -0.2266 -1.1001 -0.0651
  849MOL0     C14482   7.351  10.974  10.024  0.1309 -0.5010 -0.0472
  849MOL0     O14483   7.309  11.098   9.987 -0.1719 -0.3753  0.1747
  849MOL0     C14484   7.200  11.118   9.909 -0.4626 -0.1356 -0.0747
  849MOL0     C14485   7.066  11.077   9.943  0.3098 -0.5336  0.2388
  849MOL0     C14486   6.968  11.113   9.846 -0.2557 -0.3638 -0.0138
  849MOL0     C14487   6.993  11.196   9.733 -0.3761  0.2962  0.8141
  849MOL0     O14488   6.907  11.243   9.638 -0.1475  0.2479  0.3266
  849MOL0     C14489   6.803  11.155   9.602 -0.3432  1.4015 -0.0032
  849MOL0     C14490   6.726  11.230   9.499  0.9954 -0.5745 -0.3953
  849MOL0     C14491   6.609  11.154   9.465 -0.4549  0.1563  0.0310
  849MOL0     C14492   6.546  11.205   9.333  0.6870  0.0399 -0.1310
  849MOL0     C14493   6.418  11.126   9.298  0.1835 -0.1822  0.0395
  849MOL0     C14494   6.355  11.198   9.171  0.2159  0.3668 -0.0380
  849MOL0     C14495   6.230  11.129   9.117  0.3075 -0.1552  0.3895
  849MOL0     C14496   6.176  11.208   8.997 -0.3762 -0.4982  0.1351
  849MOL0     N14497   6.042  11.191   8.945  0.0318 -0.3787 -0.4618
  849MOL0     C14498   5.924  11.181   9.014  1.2751  0.4008  0.4969
  849MOL0     C14499   5.823  11.199   8.924  0.6616 -1.1660  0.8162
  849MOL0     C14500   5.674  11.200   8.957  0.6034 -0.4934  0.2882
  849MOL0     C14501   5.588  11.299   8.853 -0.2482  1.2407 -0.0025
  849MOL0     C14502   5.464  11.325   8.916  0.0774 -0.2046 -0.7055
  849MOL0     C14503   5.366  11.390   8.803  1.1807  0.2992 -0.1314
  849MOL0     O14504   5.321  11.274   8.723  0.9269  0.0383 -0.5981
  849MOL0     C14505   5.246  11.181   8.794 -0.0195  0.4237 -0.4019
  849MOL0     C14506   5.308  11.060   8.834 -0.0589 -0.0718 -0.4716
  849MOL0     C14507   5.230  10.953   8.890 -0.3926 -0.1471 -0.1416
  849MOL0     C14508   5.094  10.960   8.886 -0.7482 -0.2846 -0.7993
  849MOL0     C14509   5.010  10.848   8.934  0.1057  0.0676 -0.5218
  849MOL0     O14510   4.894  10.869   9.000 -0.3947  0.0663 -0.3689
  849MOL0     C14511   4.814  10.762   9.029  0.3481 -1.3286  0.1201
  849MOL0     C14512   4.851  10.630   9.078 -0.1008  0.5068  0.6959
  849MOL0     C14513   4.748  10.538   9.101 -0.1593  0.4635 -0.3704
  849MOL0     C14514   4.615  10.557   9.075  0.2559 -1.1288 -0.0647
  849MOL0     O14515   4.532  10.451   9.098  0.3807 -0.0545 -0.3290
  849MOL0     C14516   4.390  10.452   9.081  0.1809  0.2915  0.4194
  849MOL0     C14517   4.326  10.484   9.216 -0.9665 -1.0329 -0.3546
  849MOL0     C14518   4.254  10.360   9.284  1.0839 -0.5650  0.5479
  849MOL0     C14519   4.356  10.253   9.331 -0.0277  0.7086  0.5066
  849MOL0     C14520   4.284  10.123   9.368 -0.3062  0.5633  0.3254
  849MOL0     C14521   4.194  10.124   9.490  0.3317 -0.1748 -1.0019
  849MOL0     C14522   4.120   9.990   9.514 -0.5067  0.7696 -0.3029
  849MOL0     C14523   4.023   9.948   9.407 -0.2269  0.9044 -0.1578
  849MOL0    Cl14524   3.919   9.814   9.466  0.5023 -0.1178  0.3110
  849MOL0     C14525   4.588  10.690   9.021  0.7887 -0.7571  0.4353
  849MOL0     C14526   4.690  10.783   9.003  1.8223  0.7511 -0.2414
  849MOL0     O14527   5.061  10.736   8.917  0.2118  0.7235 -0.7911
  849MOL0     C14528   5.034  11.081   8.850 -0.4473 -0.5717  0.1360
  849MOL0     C14529   5.106  11.198   8.805 -0.0214 -0.3590  0.1329
  849MOL0     N14530   5.883  11.202   8.794  0.3490  0.2495  0.4676
  849MOL0     N14531   6.014  11.193   8.812 -0.0080 -0.9184  0.0676
  849MOL0     C14532   7.129  11.222   9.702  0.0634 -0.7648 -0.5407
  849MOL0     C14533   7.225  11.187   9.793  0.1365 -0.2512 -0.9056
  849MOL0     C14534   7.479  10.981  10.088 -1.0288 -0.2595 -0.7397
  849MOL0     C14535   7.515  11.086  10.175  0.3329 -0.1206  0.1130
  849MOL0     C14536   7.637  11.094  10.238 -0.3727  0.9320  0.0787
  849MOL0     C14537   7.732  10.992  10.231 -0.6222  0.0729  0.5900
  849MOL0     O14538   7.860  11.000  10.292  0.1188  0.2294 -0.0977
  849MOL0     C14539   7.894  11.133  10.331 -0.3553  0.6343 -0.3974
  849MOL0     C14540   8.041  11.141  10.371  0.2730  0.4145 -0.1011
  849MOL0     C14541   8.133  11.139  10.244  0.1696 -0.7044 -0.4056
  849MOL0     C14542   8.274  11.182  10.274 -0.5006  0.5283  0.3115
  849MOL0     C14543   8.346  11.085  10.360 -1.2946  0.2894  0.6214
  849MOL0     C14544   8.393  11.006  10.437 -0.3086 -0.1305 -0.3397
  849MOL0     C14545   7.703  10.892  10.142  0.2796  0.7348 -0.0529
  849MOL0     C14546   7.576  10.880  10.070  0.0971 -0.5670  1.0285
  849MOL0     C14547   7.564  10.757   9.984  0.3327  0.9062  0.5779
  849MOL0     H14548   7.036  11.022  10.032 -0.1053 -0.6662  0.0184
  849MOL0     H14549   6.866  11.081   9.867 -1.4812  2.0164 -1.8908
  849MOL0     H14550   6.858  11.072   9.557 -1.3622  0.4543  0.4527
  849MOL0     H14551   6.745  11.110   9.683  1.1994 -0.1259  0.3090
  849MOL0     H14552   6.786  11.258   9.412 -0.4604  3.9969 -0.1969
  849MOL0     H14553   6.685  11.324   9.537  0.2829 -0.9557 -0.1998
  849MOL0     H14554   6.532  11.165   9.542 -1.6404  2.4772 -1.3512
  849MOL0     H14555   6.638  11.050   9.449 -0.4129  0.5107 -2.6640
  849MOL0     H14556   6.526  11.312   9.329  1.2249  0.1491  0.1249
  849MOL0     H14557   6.619  11.181   9.255  2.8005  4.1071  0.3217
  849MOL0     H14558   6.435  11.018   9.287 -1.2695 -0.3164 -1.2566
  849MOL0     H14559   6.348  11.145   9.380 -0.0474  0.7568 -0.3652
  849MOL0     H14560   6.316  11.297   9.196  0.7036  0.0079  2.3553
  849MOL0     H14561   6.429  11.207   9.091  1.9029  1.5408  1.5552
  849MOL0     H14562   6.150  11.147   9.189  0.6155  2.4492  0.1748
  849MOL0     H14563   6.241  11.023   9.094 -2.7736 -0.2683 -1.0920
  849MOL0     H14564   6.191  11.313   9.024  1.0961 -1.1036  1.8322
  849MOL0     H14565   6.243  11.187   8.913  1.2333 -1.0671  1.5141
  849MOL0     H14566   5.910  11.162   9.120 -0.0735 -2.6581 -0.1125
  849MOL0     H14567   5.639  11.098   8.941 -1.4435  0.4322 -1.8244
  849MOL0     H14568   5.660  11.223   9.063 -2.0543 -2.4662  0.4437
  849MOL0     H14569   5.635  11.396   8.834 -0.1008  1.9429  3.3459
  849MOL0     H14570   5.570  11.252   8.756 -0.3043 -0.7537  0.9222
  849MOL0     H14571   5.476  11.414   8.979  0.2052  0.2432 -1.3448
  849MOL0     H14572   5.436  11.241   8.980 -2.1239 -0.5498 -1.9869
  849MOL0     H14573   5.426  11.461   8.745  2.2244 -1.2075 -0.9826
  849MOL0     H14574   5.275  11.440   8.836  0.3084 -1.1415 -0.2581
  849MOL0     H14575   5.415  11.048   8.830 -0.0749 -1.8251  2.3684
  849MOL0     H14576   5.274  10.861   8.928 -0.0010  0.0997  0.0242
  849MOL0     H14577   4.954  10.610   9.105  0.9054 -0.8202 -3.3657
  849MOL0     H14578   4.772  10.437   9.131  0.5993  0.2775 -1.5294
  849MOL0     H14579   4.369  10.539   9.018  3.0277  3.3307  3.2975
  849MOL0     H14580   4.347  10.358   9.044 -1.4035 -1.0206  4.9003
  849MOL0     H14581   4.404  10.511   9.288 -0.3091 -2.4033 -0.5223
  849MOL0     H14582   4.253  10.564   9.204 -2.5125 -1.8465  2.6927
  849MOL0     H14583   4.197  10.402   9.368 -0.6276 -0.4395 -0.6309
  849MOL0     H14584   4.182  10.324   9.210  1.1620 -1.3107  0.8287
  849MOL0     H14585   4.428  10.287   9.406  0.9345  0.5883 -0.3287
  849MOL0     H14586   4.420  10.224   9.246 -0.6109 -1.5519  0.7760
  849MOL0     H14587   4.348  10.035   9.380 -1.7126 -0.5293  0.1435
  849MOL0     H14588   4.225  10.097   9.280  0.9872 -5.2176  0.7646
  849MOL0     H14589   4.252  10.146   9.580  2.0279 -0.5470 -1.9526
  849MOL0     H14590   4.118  10.198   9.464  0.8605  0.8316  0.2094
  849MOL0     H14591   4.055   9.999   9.602  1.0616 -1.2959  1.1629
  849MOL0     H14592   4.189   9.906   9.526 -0.3508  0.7894 -1.0363
  849MOL0     H14593   3.953  10.029   9.387  1.5731  1.7653 -3.8719
  849MOL0     H14594   4.087   9.913   9.326 -1.5036  0.7969 -1.1479
  849MOL0     H14595   4.486  10.718   8.995  1.3862 -0.9369 -2.3181
  849MOL0     H14596   4.668  10.884   8.969 -1.3647 -0.3534 -1.8971
  849MOL0     H14597   4.926  11.094   8.855 -0.0525  4.0989  1.5212
  849MOL0     H14598   5.068  11.293   8.769 -0.0372 -0.3798  0.0958
  849MOL0     H14599   7.151  11.297   9.627 -1.4048 -0.1497 -0.4050
  849MOL0     H14600   7.328  11.216   9.772 -0.5037  0.5228 -3.3915
  849MOL0     H14601   7.447  11.170  10.179  1.9596  1.5523 -3.2295
  849MOL0     H14602   7.650  11.176  10.307 -0.5247  0.3855  0.7657
  849MOL0     H14603   7.841  11.158  10.424  3.0929  1.6677  1.4940
  849MOL0     H14604   7.857  11.203  10.255 -1.8630  2.0585  1.5324
  849MOL0     H14605   8.065  11.068  10.449  1.1735  0.4778 -0.3074
  849MOL0     H14606   8.053  11.242  10.411  0.8485 -0.2640  1.5287
  849MOL0     H14607   8.103  11.202  10.161  2.7100  0.4921 -0.5236
  849MOL0     H14608   8.136  11.036  10.207 -4.0551 -0.4989 -1.7800
  849MOL0     H14609   8.331  11.177  10.180 -0.3059 -1.0628  0.4787
  849MOL0     H14610   8.290  11.281  10.318 -0.5018  2.0471 -2.8136
  849MOL0     H14611   8.417  10.944  10.520 -1.9534  1.4518  1.4181
  849MOL0     H14612   7.786  10.822  10.133  1.2386  1.0302  4.2406
  849MOL0     H14613   7.512  10.678  10.039  0.8007  1.0923  1.3080
  849MOL0     H14614   7.498  10.781   9.901  1.2475  1.8257  0.0850
  849MOL0     H14615   7.665  10.725   9.957  0.3834  1.8806 -0.4353
  850MOL0     O14616  10.377   4.919   4.058 -0.7833 -0.8618 -0.1825
  850MOL0     C14617  10.399   4.842   3.961  0.0981  1.0301 -0.3687
  850MOL0     O14618  10.438   4.710   3.968  0.8206  0.8678  0.2157
  850MOL0     C14619  10.463   4.657   4.088 -0.6476 -0.1938  0.9135
  850MOL0     C14620  10.363   4.628   4.182  0.2631 -0.3603  0.0941
  850MOL0     C14621  10.397   4.573   4.304  0.1161 -0.0237 -0.1382
  850MOL0     C14622  10.528   4.559   4.339  0.4356  0.8739  0.2115
  850MOL0     O14623  10.565   4.522   4.462  0.2334 -0.8213 -0.3950
  850MOL0     C14624  10.564   4.379   4.485 -0.1352  0.1117  0.2153
  850MOL0     C14625  10.643   4.339   4.605  0.7008 -0.4211  0.4831
  850MOL0     C14626  10.799   4.361   4.587  0.4434 -0.5422 -0.0386
  850MOL0     C14627  10.864   4.240   4.514 -0.2506  0.2647 -0.1904
  850MOL0     C14628  11.003   4.271   4.457 -0.6708  0.3268  0.4034
  850MOL0     C14629  11.103   4.306   4.564 -0.6906 -0.1933 -0.3191
  850MOL0     C14630  11.234   4.366   4.506 -0.2266 -0.0532 -0.3367
  850MOL0     C14631  11.207   4.521   4.474  0.7713  0.6426 -1.3749
  850MOL0     N14632  11.225   4.605   4.601 -0.5225  0.6224  0.2942
  850MOL0     C14633  11.197   4.579   4.728  1.3266  0.1895 -0.8133
  850MOL0     C14634  11.193   4.704   4.788  0.3292 -0.0278 -0.3569
  850MOL0     C14635  11.153   4.734   4.920  0.1620  0.1507 -0.1303
  850MOL0     C14636  11.274   4.751   5.018 -0.8158  0.5525  0.1927
  850MOL0     C14637  11.241   4.743   5.167 -0.0430  0.4359  0.3788
  850MOL0     C14638  11.137   4.833   5.221  0.2651 -0.4753 -0.4226
  850MOL0     O14639  11.163   4.967   5.252 -0.2897 -0.0610 -0.1686
  850MOL0     C14640  11.270   4.984   5.334 -0.1447  0.4960 -0.3644
  850MOL0     C14641  11.390   5.023   5.270 -0.6432 -0.7609 -0.3905
  850MOL0     C14642  11.506   5.049   5.343 -0.6493 -0.5106 -0.2619
  850MOL0     C14643  11.518   5.019   5.479  0.4618  1.2371  0.2265
  850MOL0     C14644  11.654   5.026   5.552  0.4019 -0.4179 -0.3539
  850MOL0     O14645  11.645   5.048   5.688  0.5489 -0.6654  0.2503
  850MOL0     C14646  11.739   5.006   5.783 -0.3140 -0.7069  0.3194
  850MOL0     C14647  11.828   4.909   5.747  0.7710 -0.1445  0.4945
  850MOL0     C14648  11.928   4.880   5.840  0.1404 -0.3664  0.6697
  850MOL0     C14649  11.948   4.948   5.954 -0.6855 -0.1614 -1.4251
  850MOL0     O14650  12.053   4.912   6.040  0.6376 -0.2615 -0.3959
  850MOL0     C14651  12.115   5.015   6.115  0.2442 -0.0294 -0.2900
  850MOL0     C14652  12.263   4.989   6.141 -0.3034 -0.6478 -0.1734
  850MOL0     C14653  12.335   4.978   6.009 -0.4739 -0.8064 -0.1161
  850MOL0     C14654  12.486   4.969   6.026  0.3145  0.1819  0.5901
  850MOL0     C14655  12.552   4.944   5.892  0.0726 -0.8102 -0.3712
  850MOL0     C14656  12.700   4.952   5.907 -0.0314 -0.1625  0.7855
  850MOL0     C14657  12.752   4.821   5.970 -0.6122 -0.8813 -0.4877
  850MOL0     C14658  12.904   4.826   5.957 -0.1798 -0.5095  0.2013
  850MOL0    Cl14659  12.985   4.987   5.996  0.2538 -0.0617  0.1234
  850MOL0     C14660  11.860   5.051   5.990  1.1373 -0.0058  0.7695
  850MOL0     C14661  11.760   5.082   5.900 -0.5031 -0.5817 -0.7049
  850MOL0     O14662  11.764   5.019   5.490  0.3005  0.1029 -0.1490
  850MOL0     C14663  11.401   4.961   5.540 -1.3572 -0.1596  0.3539
  850MOL0     C14664  11.284   4.948   5.470 -0.8537 -0.2027 -0.9296
  850MOL0     N14665  11.232   4.798   4.698 -1.1496  0.3905  0.3626
  850MOL0     N14666  11.253   4.738   4.585  0.3835  0.3218 -0.8001
  850MOL0     C14667  10.631   4.590   4.256  0.3874 -0.0235 -0.0540
  850MOL0     C14668  10.596   4.640   4.130  0.4406  0.0238 -0.5010
  850MOL0     C14669  10.383   4.894   3.824  0.0412 -1.2097 -0.2376
  850MOL0     C14670  10.248   4.941   3.796 -0.2968  0.3372 -0.1290
  850MOL0     C14671  10.210   4.993   3.663 -0.2862 -0.0438 -0.7052
  850MOL0     C14672  10.312   4.988   3.567 -0.5459 -0.6306  0.2938
  850MOL0     O14673  10.286   5.035   3.439 -0.2523 -0.1719 -0.2123
  850MOL0     C14674  10.149   5.079   3.392 -0.4315 -0.1620 -0.5786
  850MOL0     C14675  10.152   5.123   3.243 -0.5991 -0.1551  0.6407
  850MOL0     C14676  10.244   5.242   3.208  0.4950  0.2768  0.8233
  850MOL0     C14677  10.235   5.354   3.309 -1.0652  0.6646  0.5668
  850MOL0     C14678  10.113   5.425   3.295 -0.0940 -0.8738 -0.3517
  850MOL0     C14679  10.022   5.500   3.255 -0.3083  0.9491  0.9938
  850MOL0     C14680  10.435   4.956   3.599 -0.3826 -0.9207  0.3464
  850MOL0     C14681  10.479   4.905   3.726 -0.7776 -0.9010 -0.0901
  850MOL0     C14682  10.620   4.884   3.761  0.4466  0.6584 -0.6859
  850MOL0     H14683  10.257   4.646   4.168  0.2029  1.8344  2.5902
  850MOL0     H14684  10.325   4.546   4.380  1.9490 -3.1406  0.6779
  850MOL0     H14685  10.462   4.340   4.486 -0.0408 -0.2670  3.4160
  850MOL0     H14686  10.611   4.329   4.400  1.5086 -0.7715  1.5823
  850MOL0     H14687  10.633   4.231   4.618  0.4478 -0.6264 -1.1872
  850MOL0     H14688  10.596   4.386   4.692 -1.2942 -0.1895 -0.6728
  850MOL0     H14689  10.833   4.368   4.691  1.5868  3.5620 -0.4966
  850MOL0     H14690  10.842   4.450   4.541  0.1920 -0.9488 -1.0910
  850MOL0     H14691  10.874   4.147   4.569  0.9662 -0.1672 -1.0769
  850MOL0     H14692  10.802   4.214   4.428  1.5329 -2.1473 -0.8421
  850MOL0     H14693  11.052   4.191   4.401  0.4983  2.7973 -2.3750
  850MOL0     H14694  10.986   4.348   4.382  0.4040  0.7121  0.5357
  850MOL0     H14695  11.055   4.366   4.642 -0.7769 -1.4855  0.6669
  850MOL0     H14696  11.113   4.210   4.616  0.9650 -0.6122 -1.3319
  850MOL0     H14697  11.267   4.322   4.412  3.4137 -2.2455  1.7296
  850MOL0     H14698  11.304   4.353   4.589 -0.8119  0.6558  0.2967
  850MOL0     H14699  11.277   4.562   4.401 -0.0937  2.0413 -1.4586
  850MOL0     H14700  11.102   4.536   4.447  0.4129 -0.4028 -0.6027
  850MOL0     H14701  11.177   4.488   4.784  0.6926  0.6266 -0.3124
  850MOL0     H14702  11.103   4.832   4.923  0.4461  0.2832  1.6796
  850MOL0     H14703  11.078   4.669   4.966 -0.9345  2.1841  1.1235
  850MOL0     H14704  11.352   4.678   4.993 -1.9615 -2.0251  3.3752
  850MOL0     H14705  11.310   4.851   4.992 -2.7902  1.1436 -0.4443
  850MOL0     H14706  11.326   4.747   5.236 -2.6524  3.1332  3.8363
  850MOL0     H14707  11.201   4.642   5.175 -0.3009  0.3674 -1.3975
  850MOL0     H14708  11.100   4.788   5.314  0.0927  0.9489  0.2318
  850MOL0     H14709  11.057   4.838   5.147  0.2657 -1.5078 -0.5024
  850MOL0     H14710  11.388   5.052   5.165 -0.2449 -0.8646 -0.4277
  850MOL0     H14711  11.597   5.083   5.293  0.3604  0.9720  2.3553
  850MOL0     H14712  11.827   4.857   5.652  5.6227 -1.0474  0.6956
  850MOL0     H14713  11.995   4.796   5.826  1.6635  0.9273 -0.2306
  850MOL0     H14714  12.117   5.116   6.073 -0.2845 -0.2274 -0.8040
  850MOL0     H14715  12.067   5.031   6.212  0.5305 -1.7698  0.1652
  850MOL0     H14716  12.308   5.075   6.192 -1.1371 -1.7253  2.5641
  850MOL0     H14717  12.271   4.906   6.212 -0.8252  1.5190  2.5867
  850MOL0     H14718  12.302   4.891   5.951  1.5009 -0.8878 -1.1919
  850MOL0     H14719  12.316   5.069   5.952  0.6993 -0.1322  0.5171
  850MOL0     H14720  12.508   4.894   6.103 -0.1679 -0.5627  0.0172
  850MOL0     H14721  12.517   5.065   6.068  0.0200  2.2250 -3.4231
  850MOL0     H14722  12.519   5.023   5.825 -1.1254  0.2083  1.3412
  850MOL0     H14723  12.530   4.846   5.849 -1.0245  0.5689 -3.2260
  850MOL0     H14724  12.740   4.953   5.806  1.7320 -2.8749  1.3325
  850MOL0     H14725  12.728   5.040   5.965  0.4505 -1.8908  3.3774
  850MOL0     H14726  12.720   4.726   5.926 -1.5605 -1.5350  1.4583
  850MOL0     H14727  12.740   4.824   6.079  0.9854  1.6228 -0.3063
  850MOL0     H14728  12.928   4.745   6.027 -2.0856  0.3072  1.9267
  850MOL0     H14729  12.926   4.805   5.852  0.3847 -4.4724  0.9576
  850MOL0     H14730  11.857   5.125   6.069  0.3548  1.7501 -0.8157
  850MOL0     H14731  11.702   5.173   5.914 -0.0526 -0.1337 -1.6313
  850MOL0     H14732  11.392   4.944   5.647 -1.7696  0.7054  0.4667
  850MOL0     H14733  11.197   4.911   5.523 -2.7623 -0.5252 -4.0266
  850MOL0     H14734  10.736   4.576   4.279  0.8099  0.0656 -1.7730
  850MOL0     H14735  10.677   4.664   4.062  0.3127 -2.1830 -1.4963
  850MOL0     H14736  10.185   4.944   3.885  0.6634  0.3559  0.5763
  850MOL0     H14737  10.105   5.017   3.653 -0.3262  1.9692  2.7703
  850MOL0     H14738  10.112   5.157   3.459  0.2083 -2.3382  2.5335
  850MOL0     H14739  10.088   4.988   3.400  2.7848 -2.3990  0.6623
  850MOL0     H14740  10.051   5.149   3.209 -1.0026  1.9739  3.1226
  850MOL0     H14741  10.192   5.035   3.192  1.3337 -0.0719  1.8997
  850MOL0     H14742  10.196   5.281   3.118 -1.9288  1.0469  2.3546
  850MOL0     H14743  10.350   5.213   3.197  0.6600  0.4953  1.7956
  850MOL0     H14744  10.257   5.315   3.408  0.1857 -1.7366 -0.5704
  850MOL0     H14745  10.326   5.414   3.295  0.7455 -2.1196 -0.4044
  850MOL0     H14746   9.933   5.546   3.219 -0.8215  0.2916  1.3961
  850MOL0     H14747  10.505   4.950   3.516 -0.3985  2.1627 -0.0023
  850MOL0     H14748  10.678   4.864   3.671 -0.4954  1.2945 -1.4616
  850MOL0     H14749  10.647   4.986   3.793  1.1831  0.7144 -1.4544
  850MOL0     H14750  10.645   4.807   3.834  1.0307 -0.5243 -2.1099
  851MOL0     O14751   4.506   7.176   4.513  0.2120 -0.3708  0.7229
  851MOL0     C14752   4.504   7.246   4.610  1.2049  0.7757  0.2933
  851MOL0     O14753   4.592   7.345   4.628 -0.1175  0.0160  0.1201
  851MOL0     C14754   4.703   7.386   4.561  0.3148 -0.3398  0.1652
  851MOL0     C14755   4.685   7.414   4.427 -0.1368 -0.0786 -0.7441
  851MOL0     C14756   4.786   7.433   4.341  1.0389 -0.1112 -0.0481
  851MOL0     C14757   4.918   7.416   4.389  0.0805 -0.5486 -0.3047
  851MOL0     O14758   5.029   7.420   4.312  0.7477  0.0550 -0.4012
  851MOL0     C14759   5.047   7.545   4.251 -0.1553 -0.1042 -0.8473
  851MOL0     C14760   5.080   7.663   4.337  0.7718  0.4054  0.0388
  851MOL0     C14761   5.212   7.645   4.415 -0.4246  0.2115  0.3059
  851MOL0     C14762   5.345   7.653   4.320 -0.8438 -0.4768 -0.0391
  851MOL0     C14763   5.472   7.674   4.398  0.5532 -0.1935  0.2300
  851MOL0     C14764   5.494   7.571   4.508 -0.3557 -0.7441  0.2860
  851MOL0     C14765   5.644   7.581   4.538  0.3764  0.8937 -0.6123
  851MOL0     C14766   5.699   7.438   4.580  0.2564 -0.3467  1.1910
  851MOL0     N14767   5.841   7.427   4.560  0.3142 -0.3324  0.0717
  851MOL0     C14768   5.936   7.532   4.566  0.9431  1.1724  0.5122
  851MOL0     C14769   6.053   7.483   4.517 -0.1549  0.3570  0.3915
  851MOL0     C14770   6.180   7.567   4.484  0.8565  0.5013 -0.6846
  851MOL0     C14771   6.194   7.625   4.336  1.2703  0.6085 -0.5755
  851MOL0     C14772   6.221   7.513   4.231  0.4967 -0.4393 -1.0023
  851MOL0     C14773   6.328   7.421   4.271  0.5326 -0.3010 -0.3708
  851MOL0     O14774   6.448   7.487   4.244 -0.1620 -0.4576 -0.0924
  851MOL0     C14775   6.571   7.446   4.292 -0.3494 -0.0368  0.1034
  851MOL0     C14776   6.619   7.322   4.255  0.9841 -0.6188 -0.8305
  851MOL0     C14777   6.752   7.284   4.287  0.5209  0.3036 -0.6901
  851MOL0     C14778   6.836   7.366   4.363 -0.2651 -0.1785  0.0645
  851MOL0     C14779   6.961   7.326   4.398 -0.3074 -0.4524 -0.4911
  851MOL0     O14780   7.015   7.225   4.331  0.2556  0.2703 -0.2017
  851MOL0     C14781   7.128   7.160   4.378 -0.8017 -0.5124 -0.2983
  851MOL0     C14782   7.257   7.186   4.337 -0.3917  0.3230  0.4383
  851MOL0     C14783   7.363   7.106   4.371 -1.1759 -0.2191  0.6813
  851MOL0     C14784   7.344   6.998   4.449 -0.0712 -0.0376 -1.6061
  851MOL0     O14785   7.449   6.928   4.502  0.1345  0.6357  0.4174
  851MOL0     C14786   7.533   6.861   4.404  0.1771 -0.3786  0.5883
  851MOL0     C14787   7.617   6.762   4.476 -0.1057 -0.4235 -0.3781
  851MOL0     C14788   7.707   6.677   4.377 -0.1968  0.0195 -0.3449
  851MOL0     C14789   7.761   6.549   4.435  0.7662 -0.2244 -0.4846
  851MOL0     C14790   7.852   6.471   4.335 -0.5703 -0.2622 -0.1976
  851MOL0     C14791   7.905   6.342   4.403  0.5284  0.0070 -0.5025
  851MOL0     C14792   8.003   6.279   4.311  0.4539  0.4805 -0.0714
  851MOL0     C14793   8.027   6.136   4.373  0.0802 -1.3734  0.6510
  851MOL0    Cl14794   8.115   6.051   4.250  0.5422 -0.3139 -0.4120
  851MOL0     C14795   7.221   6.978   4.506 -0.6485 -1.0626 -0.2294
  851MOL0     C14796   7.114   7.062   4.480  0.0776 -0.4007  0.4204
  851MOL0     O14797   7.019   7.371   4.501 -0.4321  0.3234  0.3494
  851MOL0     C14798   6.784   7.490   4.399 -0.0121 -0.5183  0.7787
  851MOL0     C14799   6.656   7.538   4.355  0.0942  0.9630  0.2159
  851MOL0     N14800   6.030   7.352   4.484 -0.5211 -0.4337 -0.8218
  851MOL0     N14801   5.903   7.327   4.503  0.1493  0.3531 -0.6365
  851MOL0     C14802   4.945   7.406   4.523 -0.5714 -0.2360  0.4989
  851MOL0     C14803   4.836   7.389   4.612  0.0751  1.0841  0.6771
  851MOL0     C14804   4.405   7.219   4.713 -0.2836  0.7570 -0.3074
  851MOL0     C14805   4.401   7.297   4.828  0.7213 -0.6271  0.3662
  851MOL0     C14806   4.310   7.280   4.932 -0.3786  0.0194 -0.3459
  851MOL0     C14807   4.211   7.185   4.923 -0.1354 -0.5395  0.3218
  851MOL0     O14808   4.139   7.160   5.035 -0.8446  0.0572 -1.3022
  851MOL0     C14809   4.024   7.078   5.046  0.3799 -0.4537 -0.1440
  851MOL0     C14810   3.971   7.069   5.189 -0.0437 -0.1960 -0.0936
  851MOL0     C14811   3.865   6.949   5.187 -0.2036 -0.4854  0.9206
  851MOL0     C14812   3.801   6.912   5.319  0.1882  0.0405  0.0682
  851MOL0     C14813   3.714   7.013   5.370  0.1172 -0.1545  0.7632
  851MOL0     C14814   3.663   7.117   5.401 -0.3464 -0.2797  0.6128
  851MOL0     C14815   4.209   7.101   4.810 -0.3240  0.1955  0.1182
  851MOL0     C14816   4.304   7.118   4.709  0.1368 -0.0905  0.7694
  851MOL0     C14817   4.291   7.020   4.585 -0.2622 -0.2972  0.0903
  851MOL0     H14818   4.588   7.418   4.378 -2.4632  0.3817  3.3687
  851MOL0     H14819   4.758   7.461   4.240  1.4408  1.4587  0.2460
  851MOL0     H14820   5.131   7.529   4.183 -0.2538 -1.0844 -0.7583
  851MOL0     H14821   4.956   7.561   4.192 -0.7398  0.7582  0.2591
  851MOL0     H14822   4.997   7.677   4.407  0.3151  1.5893 -0.6933
  851MOL0     H14823   5.078   7.750   4.270 -1.5283 -0.9930 -1.9082
  851MOL0     H14824   5.196   7.557   4.478  0.8758 -0.4880 -0.3020
  851MOL0     H14825   5.219   7.729   4.486 -0.8548  2.2830 -1.9688
  851MOL0     H14826   5.352   7.570   4.250  3.7390  0.0470 -0.4868
  851MOL0     H14827   5.343   7.750   4.269  3.5416  1.4237  2.7495
  851MOL0     H14828   5.552   7.641   4.331  0.8568 -1.2774  1.0900
  851MOL0     H14829   5.482   7.775   4.437 -1.6063 -0.9506  3.0782
  851MOL0     H14830   5.432   7.598   4.594  0.2367 -1.6384  1.0097
  851MOL0     H14831   5.455   7.474   4.476 -0.9161 -0.7561  0.9895
  851MOL0     H14832   5.668   7.639   4.628  3.3376 -1.8498  0.5379
  851MOL0     H14833   5.704   7.604   4.449  0.6990  1.4508 -0.2606
  851MOL0     H14834   5.678   7.426   4.687 -7.8492  1.9841  0.5894
  851MOL0     H14835   5.645   7.360   4.524  0.7244  0.6245 -0.6965
  851MOL0     H14836   5.914   7.634   4.598  0.5227  0.4140  2.8401
  851MOL0     H14837   6.175   7.662   4.537  1.0431  0.5190 -0.6992
  851MOL0     H14838   6.270   7.520   4.524  0.3470 -0.4599 -0.6445
  851MOL0     H14839   6.102   7.680   4.312  0.4229  1.8554  4.4256
  851MOL0     H14840   6.280   7.692   4.333  1.4085  0.5583  1.0810
  851MOL0     H14841   6.239   7.562   4.135 -4.8000  2.5533 -0.8222
  851MOL0     H14842   6.128   7.459   4.211 -0.6219  0.8047  0.5760
  851MOL0     H14843   6.322   7.331   4.210  0.8775  0.1030 -1.0137
  851MOL0     H14844   6.317   7.402   4.378 -3.3306  1.1910 -0.3341
  851MOL0     H14845   6.554   7.263   4.191  0.2795  0.3744 -1.0449
  851MOL0     H14846   6.789   7.186   4.257  0.8811 -0.5162  2.1833
  851MOL0     H14847   7.272   7.268   4.266 -2.1126  0.5622  0.3132
  851MOL0     H14848   7.455   7.145   4.327 -0.5435  1.9522  3.6325
  851MOL0     H14849   7.469   6.804   4.336  3.2694 -2.7812 -0.5267
  851MOL0     H14850   7.591   6.939   4.354 -0.6333  0.7629  1.3755
  851MOL0     H14851   7.684   6.814   4.545  0.1732 -0.3330 -0.7123
  851MOL0     H14852   7.537   6.699   4.517 -1.1692  0.3474 -1.2201
  851MOL0     H14853   7.653   6.660   4.283 -2.3903  0.8414  0.6984
  851MOL0     H14854   7.788   6.748   4.363 -1.2330  1.7058  1.6519
  851MOL0     H14855   7.675   6.495   4.475  0.6667  1.8886  2.5084
  851MOL0     H14856   7.820   6.573   4.524  0.5994 -1.3510 -0.0475
  851MOL0     H14857   7.934   6.535   4.303 -0.9931  1.9794  2.7703
  851MOL0     H14858   7.797   6.446   4.244 -2.4597  0.5176  0.6730
  851MOL0     H14859   7.953   6.365   4.498  1.0697 -1.5857 -0.3611
  851MOL0     H14860   7.823   6.270   4.417 -0.0450  0.8978  0.9527
  851MOL0     H14861   8.099   6.330   4.303 -0.3956  2.1346  0.0048
  851MOL0     H14862   7.963   6.269   4.209  0.2022 -2.8124  0.2399
  851MOL0     H14863   8.087   6.141   4.463 -0.3204  1.2370  0.8453
  851MOL0     H14864   7.930   6.087   4.389 -0.3165 -0.6805  0.4045
  851MOL0     H14865   7.196   6.900   4.578 -0.4948 -0.7560  0.1626
  851MOL0     H14866   7.017   7.040   4.524  0.2224 -1.5103  0.2079
  851MOL0     H14867   6.846   7.546   4.469  0.5245  0.4171 -0.4169
  851MOL0     H14868   6.627   7.635   4.392  1.4405  0.2728  3.4260
  851MOL0     H14869   5.048   7.409   4.556 -0.5389 -2.5590  0.7224
  851MOL0     H14870   4.854   7.364   4.716 -0.1560 -2.0069  0.0739
  851MOL0     H14871   4.477   7.372   4.848 -2.2580  1.9371  3.3704
  851MOL0     H14872   4.298   7.333   5.026 -3.1650 -1.6838  0.3783
  851MOL0     H14873   4.035   6.977   5.007  0.2252  0.5587 -3.1050
  851MOL0     H14874   3.948   7.118   4.978 -0.3644 -2.1059 -0.3221
  851MOL0     H14875   3.936   7.168   5.220 -0.8065 -0.4018 -0.2645
  851MOL0     H14876   4.047   7.038   5.261 -0.0343  1.8391  0.8357
  851MOL0     H14877   3.907   6.856   5.148  0.3830  0.1035  0.1183
  851MOL0     H14878   3.780   6.975   5.122 -0.5216  1.8014  2.1299
  851MOL0     H14879   3.756   6.813   5.305  2.1251 -0.7487 -0.8636
  851MOL0     H14880   3.876   6.893   5.397  1.6395 -0.4463 -1.3967
  851MOL0     H14881   3.609   7.207   5.422 -1.3013 -0.5287 -0.6601
  851MOL0     H14882   4.135   7.023   4.796  0.6394 -0.7770  0.3531
  851MOL0     H14883   4.217   6.940   4.586  1.9601 -2.5436 -1.5166
  851MOL0     H14884   4.270   7.073   4.492  0.1056 -2.8296 -1.5308
  851MOL0     H14885   4.391   6.976   4.573  0.1662  1.0651 -1.7962
  852MOL0     O14886   8.317   5.740  11.010  0.7003  0.5621  0.5543
  852MOL0     C14887   8.238   5.686  10.926  0.5706 -0.4673  0.6160
  852MOL0     O14888   8.277   5.633  10.808 -0.1059 -0.6111  0.9453
  852MOL0     C14889   8.409   5.635  10.758  0.6813 -0.8415 -0.6857
  852MOL0     C14890   8.436   5.664  10.624 -0.7654 -0.4265 -0.4037
  852MOL0     C14891   8.569   5.653  10.578  0.1550  0.3320 -0.1113
  852MOL0     C14892   8.675   5.606  10.659  0.6772  0.9828 -0.0725
  852MOL0     O14893   8.803   5.593  10.594 -0.5388 -0.0948 -0.0351
  852MOL0     C14894   8.921   5.580  10.668  0.1263  0.0695  0.0776
  852MOL0     C14895   8.993   5.708  10.711  0.5170 -0.0629  0.0912
  852MOL0     C14896   9.004   5.805  10.595  0.2843 -0.3696  0.5121
  852MOL0     C14897   9.115   5.768  10.493 -0.8076  0.2068 -0.3386
  852MOL0     C14898   9.122   5.852  10.363 -0.5580 -0.5261  0.5544
  852MOL0     C14899   9.176   5.991  10.402 -1.0547  1.3542 -0.3654
  852MOL0     C14900   9.217   6.066  10.268 -0.0179  0.0607  0.4557
  852MOL0     C14901   9.301   6.188  10.301  0.1232 -0.4848 -0.6770
  852MOL0     N14902   9.225   6.304  10.351 -0.6459  0.0978  0.0652
  852MOL0     C14903   9.168   6.412  10.284  1.3784 -0.9157 -0.2115
  852MOL0     C14904   9.130   6.507  10.374  0.6106  0.3827 -0.2106
  852MOL0     C14905   9.054   6.638  10.363  0.6739 -0.3332  0.1430
  852MOL0     C14906   9.099   6.734  10.461  0.3867 -0.5103  0.5331
  852MOL0     C14907   9.258   6.748  10.464 -0.7646 -0.0963  0.0932
  852MOL0     C14908   9.334   6.806  10.345  0.3466  0.0928  0.2383
  852MOL0     O14909   9.468   6.799  10.379 -0.3587  0.6943  1.2457
  852MOL0     C14910   9.551   6.706  10.322 -0.4593 -0.8815 -0.3214
  852MOL0     C14911   9.686   6.727  10.334  0.6181  0.1232  0.0490
  852MOL0     C14912   9.773   6.645  10.272  0.2447  0.1750 -0.5525
  852MOL0     C14913   9.738   6.528  10.213 -0.1849  0.6970 -0.3995
  852MOL0     C14914   9.835   6.441  10.149  0.3798 -0.1684  0.0777
  852MOL0     O14915   9.967   6.483  10.135  0.6606 -0.1299 -0.6104
  852MOL0     C14916  10.050   6.377  10.108  0.1487 -0.1625 -0.0791
  852MOL0     C14917  10.116   6.308  10.209 -0.2471 -0.4579 -0.6993
  852MOL0     C14918  10.197   6.199  10.173 -0.1014 -0.3969 -0.0625
  852MOL0     C14919  10.208   6.151  10.048  0.9703 -1.6365  0.0098
  852MOL0     O14920  10.279   6.040  10.020  0.4958 -0.3502 -0.0392
  852MOL0     C14921  10.324   5.950  10.123  0.4143  0.0084 -1.1158
  852MOL0     C14922  10.407   5.845  10.049  0.8984 -0.5234 -0.1816
  852MOL0     C14923  10.340   5.713  10.021 -0.3437 -0.3247 -1.0556
  852MOL0     C14924  10.323   5.614  10.138  0.9317  0.3746  0.1214
  852MOL0     C14925  10.290   5.478  10.086  0.6140 -0.3119 -0.1361
  852MOL0     C14926  10.401   5.410   9.987 -0.3986  0.6035 -0.7902
  852MOL0     C14927  10.385   5.259   9.984  0.1785 -0.2486 -0.3860
  852MOL0     C14928  10.483   5.176   9.895  0.8759  0.7608 -0.2111
  852MOL0    Cl14929  10.492   5.240   9.723 -0.5216  0.1875 -0.2640
  852MOL0     C14930  10.133   6.215   9.944  0.0414 -0.4628  0.1943
  852MOL0     C14931  10.056   6.330   9.975 -0.4605 -0.1813  0.0015
  852MOL0     O14932   9.791   6.324  10.125 -0.6841 -0.7965 -0.0839
  852MOL0     C14933   9.600   6.497  10.212  0.1878  0.1289 -0.7876
  852MOL0     C14934   9.509   6.591  10.262  0.4605  0.6877  0.4061
  852MOL0     N14935   9.142   6.448  10.502  0.1691  0.6880 -0.9297
  852MOL0     N14936   9.201   6.332  10.486 -0.4102  0.2195 -0.2837
  852MOL0     C14937   8.652   5.578  10.788  0.1661 -1.2632  0.2943
  852MOL0     C14938   8.519   5.592  10.837 -0.2134 -0.7820 -0.2876
  852MOL0     C14939   8.090   5.681  10.947  0.4134 -0.7467  0.3695
  852MOL0     C14940   8.018   5.632  10.837  0.0183 -0.6675 -0.4629
  852MOL0     C14941   7.876   5.599  10.853 -1.7261 -0.7731  0.7469
  852MOL0     C14942   7.811   5.633  10.962  0.8070  0.2136 -0.0333
  852MOL0     O14943   7.673   5.596  10.974 -0.6349  0.6763 -0.1978
  852MOL0     C14944   7.598   5.621  11.086  0.6796 -0.3370 -0.4494
  852MOL0     C14945   7.571   5.767  11.136 -0.1349  0.2915 -0.2790
  852MOL0     C14946   7.571   5.870  11.012  0.1789 -0.6605  0.3565
  852MOL0     C14947   7.467   5.836  10.902 -0.0085 -0.2844 -0.4075
  852MOL0     C14948   7.335   5.836  10.954 -0.2008  0.2650  0.4353
  852MOL0     C14949   7.224   5.867  11.002 -0.5416  0.0057 -0.4979
  852MOL0     C14950   7.877   5.686  11.064 -0.0774  0.5950  0.5959
  852MOL0     C14951   8.016   5.718  11.063  0.3076  0.9126  0.1988
  852MOL0     C14952   8.061   5.768  11.192 -0.0213  0.7165 -0.1268
  852MOL0     H14953   8.360   5.686  10.550 -1.1005 -1.5002 -0.3850
  852MOL0     H14954   8.595   5.686  10.478 -0.7107  3.6999  0.6171
  852MOL0     H14955   8.892   5.519  10.753  0.5730  0.2028  0.3301
  852MOL0     H14956   8.986   5.515  10.608 -0.8458 -2.6404  1.7975
  852MOL0     H14957   9.096   5.698  10.745  0.3352  2.0278  1.4316
  852MOL0     H14958   8.935   5.766  10.783  1.9184  2.9188 -1.0289
  852MOL0     H14959   9.019   5.907  10.631 -0.6858 -0.7109  2.0066
  852MOL0     H14960   8.904   5.815  10.551  0.3517  0.7966  0.5864
  852MOL0     H14961   9.217   5.773  10.534  0.4078  3.0859 -3.2397
  852MOL0     H14962   9.093   5.672  10.447 -0.8049 -0.8517  1.7781
  852MOL0     H14963   9.191   5.812  10.288  1.3707  0.7307  1.5452
  852MOL0     H14964   9.022   5.854  10.319  0.2082  2.7429 -1.3764
  852MOL0     H14965   9.100   6.049  10.455 -0.4429  1.5344  0.3270
  852MOL0     H14966   9.264   5.980  10.466  0.8020 -0.5469 -2.9943
  852MOL0     H14967   9.121   6.080  10.218  0.5462 -3.3966 -1.9581
  852MOL0     H14968   9.267   5.997  10.199  1.7258 -0.4680  2.1427
  852MOL0     H14969   9.375   6.165  10.379 -4.4636 -1.7327  3.9252
  852MOL0     H14970   9.342   6.221  10.205 -1.7453  1.8578 -0.7492
  852MOL0     H14971   9.161   6.423  10.176  0.4789  1.6786  0.0361
  852MOL0     H14972   9.068   6.679  10.263  2.7784  1.5190  1.1036
  852MOL0     H14973   8.948   6.614  10.357  0.8732 -0.8131 -2.6078
  852MOL0     H14974   9.059   6.828  10.422  3.5188  0.1864 -1.4002
  852MOL0     H14975   9.068   6.709  10.563 -1.5780 -4.1850 -0.7908
  852MOL0     H14976   9.307   6.654  10.492 -0.7019  0.1185  0.7035
  852MOL0     H14977   9.269   6.818  10.547  1.0724 -1.0372  0.6922
  852MOL0     H14978   9.290   6.903  10.318 -2.3445 -1.7355 -2.5978
  852MOL0     H14979   9.315   6.745  10.256 -0.6088 -0.9595  1.1291
  852MOL0     H14980   9.726   6.816  10.382  0.9563 -1.4346  2.8297
  852MOL0     H14981   9.878   6.669  10.286 -0.1711  0.7596  2.2490
  852MOL0     H14982  10.105   6.348  10.309 -0.2777 -0.3721 -0.7363
  852MOL0     H14983  10.266   6.155  10.244  2.8386 -0.9690 -3.0583
  852MOL0     H14984  10.395   5.998  10.191  2.1702 -1.1327 -2.0348
  852MOL0     H14985  10.239   5.908  10.177  0.8067 -0.5145 -0.8874
  852MOL0     H14986  10.429   5.884   9.950  0.4945  1.1764  0.3672
  852MOL0     H14987  10.494   5.823  10.111  0.6091 -0.5597  0.2205
  852MOL0     H14988  10.245   5.733   9.972 -1.2234 -2.1285 -0.1648
  852MOL0     H14989  10.415   5.667   9.954  1.1755 -1.8891  1.5382
  852MOL0     H14990  10.249   5.645  10.213 -0.1716 -2.6587  0.4360
  852MOL0     H14991  10.416   5.603  10.194  1.5149  0.4760 -0.8035
  852MOL0     H14992  10.187   5.472  10.050  0.3761  0.6573  0.3462
  852MOL0     H14993  10.288   5.411  10.173 -0.3356  1.6259  1.4401
  852MOL0     H14994  10.379   5.450   9.888  0.9140  2.2411 -0.4696
  852MOL0     H14995  10.501   5.439  10.020 -1.1892  0.1871  2.2703
  852MOL0     H14996  10.284   5.238   9.945  0.2201 -3.5188  0.8953
  852MOL0     H14997  10.377   5.225  10.087  1.0148  2.3142  0.5896
  852MOL0     H14998  10.578   5.170   9.950  0.1659 -1.1105  0.9094
  852MOL0     H14999  10.459   5.070   9.883 -0.9277  1.3387 -2.3518
  852MOL0     H15000  10.143   6.176   9.843 -1.1864  1.9857 -0.9670
  852MOL0     H15001   9.995   6.384   9.903 -2.1728 -3.4579 -1.2370
  852MOL0     H15002   9.551   6.410  10.171 -0.7487 -0.0559  0.6406
  852MOL0     H15003   9.406   6.565  10.241  0.7815 -1.3711  1.2021
  852MOL0     H15004   8.724   5.537  10.858 -1.3553  1.8024  4.0191
  852MOL0     H15005   8.492   5.572  10.940  1.1487  1.7330  0.6546
  852MOL0     H15006   8.061   5.586  10.748  0.4511 -0.2970 -0.4508
  852MOL0     H15007   7.825   5.557  10.767 -0.3323 -1.5189  0.2494
  852MOL0     H15008   7.634   5.562  11.171 -2.3233  0.1339  1.2817
  852MOL0     H15009   7.502   5.568  11.078 -2.2213  2.9552  5.5770
  852MOL0     H15010   7.631   5.798  11.222 -3.1036  0.1646  2.0072
  852MOL0     H15011   7.467   5.762  11.170 -0.9663  0.2487 -2.6425
  852MOL0     H15012   7.664   5.865  10.955 -0.3625  0.1085 -0.6340
  852MOL0     H15013   7.573   5.976  11.040 -1.4265 -0.6159  0.3933
  852MOL0     H15014   7.473   5.894  10.810  1.3081  0.9121  0.3997
  852MOL0     H15015   7.498   5.737  10.866  0.8731  0.0399 -0.5700
  852MOL0     H15016   7.123   5.874  11.038 -0.4135 -0.8149  0.0606
  852MOL0     H15017   7.826   5.719  11.154 -2.1983  2.0060 -1.0231
  852MOL0     H15018   8.107   5.688  11.251 -0.8675 -0.1698 -0.6576
  852MOL0     H15019   8.135   5.844  11.165  1.8898 -0.7934  0.5862
  852MOL0     H15020   7.986   5.812  11.259  0.6881  0.4509  0.8811
  853MOL0     O15021   3.254   8.523   8.023 -0.0616  0.5210 -0.1449
  853MOL0     C15022   3.266   8.418   7.956  0.0671 -0.8989 -0.7609
  853MOL0     O15023   3.367   8.335   7.977 -0.6009  0.2232  0.4062
  853MOL0     C15024   3.464   8.364   8.069 -0.2618  0.6606  0.4353
  853MOL0     C15025   3.492   8.266   8.165  0.4761  0.6438  0.9161
  853MOL0     C15026   3.601   8.298   8.255  0.2734 -0.2985  0.2258
  853MOL0     C15027   3.685   8.413   8.236  0.6313  0.4205 -0.0769
  853MOL0     O15028   3.792   8.440   8.316 -0.0523 -0.1330 -0.4937
  853MOL0     C15029   3.838   8.331   8.395 -0.0381  0.5141 -0.6074
  853MOL0     C15030   3.959   8.387   8.473  0.1099  0.1519 -0.4704
  853MOL0     C15031   3.925   8.482   8.588 -0.6171 -0.0113  0.2117
  853MOL0     C15032   3.898   8.403   8.720  0.3848 -0.3158  0.0757
  853MOL0     C15033   3.880   8.496   8.838 -0.5795 -0.2163 -0.2089
  853MOL0     C15034   3.880   8.436   8.980  0.4659 -0.3940  0.6659
  853MOL0     C15035   3.965   8.521   9.067 -0.4500 -0.4795  0.8647
  853MOL0     C15036   3.939   8.487   9.214 -0.2359 -0.7314  0.7089
  853MOL0     N15037   4.000   8.360   9.246 -0.1431  0.3362  0.0479
  853MOL0     C15038   3.938   8.240   9.267 -0.4958  0.1817  0.9825
  853MOL0     C15039   4.017   8.174   9.356  0.3286 -0.2147  0.6044
  853MOL0     C15040   3.984   8.044   9.422 -0.1709 -0.0712 -0.0843
  853MOL0     C15041   4.102   7.948   9.395  0.5765  0.1788 -0.6904
  853MOL0     C15042   4.127   7.914   9.253 -1.0557 -1.2714 -0.0277
  853MOL0     C15043   4.013   7.831   9.191 -1.0518  0.6779  0.0468
  853MOL0     O15044   3.889   7.899   9.177 -0.3816  0.3351  0.2020
  853MOL0     C15045   3.776   7.823   9.198 -0.3836  0.4808  0.0701
  853MOL0     C15046   3.777   7.679   9.211 -0.0717  0.8408  0.3410
  853MOL0     C15047   3.658   7.613   9.244  0.5465  0.8076 -0.3422
  853MOL0     C15048   3.536   7.681   9.243 -0.4769  0.1300  0.7046
  853MOL0     C15049   3.415   7.607   9.262 -0.1506  0.1470 -0.1417
  853MOL0     O15050   3.306   7.683   9.309 -0.2770  0.5071  0.0914
  853MOL0     C15051   3.192   7.609   9.330  0.4427  1.0885  0.0209
  853MOL0     C15052   3.153   7.579   9.459 -0.5385  0.9240  1.0421
  853MOL0     C15053   3.034   7.514   9.487  0.3468  0.1303 -0.2891
  853MOL0     C15054   2.942   7.490   9.390 -0.2148  1.6066  0.6905
  853MOL0     O15055   2.834   7.420   9.418 -0.3268  0.4695  0.9391
  853MOL0     C15056   2.711   7.462   9.365  0.6884  0.0274  0.2199
  853MOL0     C15057   2.641   7.546   9.473  0.5597 -0.4296 -0.0284
  853MOL0     C15058   2.538   7.638   9.403  0.3981  0.0594  0.0357
  853MOL0     C15059   2.461   7.720   9.500  0.1935 -0.8733  0.2213
  853MOL0     C15060   2.350   7.806   9.442 -0.5320  0.5321 -0.8760
  853MOL0     C15061   2.247   7.870   9.540 -0.2574  0.3638 -0.2245
  853MOL0     C15062   2.320   7.960   9.656  0.1792 -0.6852  0.1898
  853MOL0     C15063   2.308   8.107   9.618  0.0008 -0.1201 -0.0561
  853MOL0    Cl15064   2.127   8.131   9.603  0.1629 -0.0031 -0.6204
  853MOL0     C15065   2.982   7.512   9.257  0.2869  0.6022 -0.6677
  853MOL0     C15066   3.101   7.583   9.234 -0.7528 -0.8192  0.6236
  853MOL0     O15067   3.415   7.496   9.208 -0.4898  0.1414 -0.1970
  853MOL0     C15068   3.540   7.818   9.222  0.4630  0.6390 -0.6838
  853MOL0     C15069   3.656   7.891   9.198 -0.0053  0.6774  0.8292
  853MOL0     N15070   4.128   8.239   9.374 -0.8030 -0.7331  0.5703
  853MOL0     N15071   4.122   8.353   9.310 -0.0200  0.1221  0.2591
  853MOL0     C15072   3.657   8.502   8.131 -0.1659  0.7361 -1.0394
  853MOL0     C15073   3.544   8.479   8.053  0.2104  0.4909 -0.4752
  853MOL0     C15074   3.159   8.404   7.849 -0.3263  0.2713 -0.3687
  853MOL0     C15075   3.081   8.290   7.864  0.0773  0.2898 -0.2604
  853MOL0     C15076   2.977   8.271   7.780  0.4953  0.9212 -0.0373
  853MOL0     C15077   2.945   8.357   7.671 -0.7103  0.4278 -0.9193
  853MOL0     O15078   2.835   8.328   7.596  0.8547  0.1262 -0.2186
  853MOL0     C15079   2.782   8.429   7.513  0.1356 -0.7327  0.3866
  853MOL0     C15080   2.643   8.391   7.453 -0.8500  0.4163 -0.6870
  853MOL0     C15081   2.659   8.264   7.373 -0.0274 -0.4858 -0.3781
  853MOL0     C15082   2.532   8.251   7.292  0.0390  0.1291  0.0281
  853MOL0     C15083   2.543   8.337   7.174  0.4770  0.4760  0.6128
  853MOL0     C15084   2.558   8.398   7.063 -0.2371 -0.1690 -0.6059
  853MOL0     C15085   3.021   8.473   7.661  1.2766  1.2773  0.1511
  853MOL0     C15086   3.130   8.502   7.745  0.0828  0.8351 -0.1311
  853MOL0     C15087   3.203   8.630   7.725 -0.5464 -0.3757 -0.0595
  853MOL0     H15088   3.423   8.184   8.181  0.1236  1.0922  1.7486
  853MOL0     H15089   3.596   8.232   8.341 -2.0906  1.1695  1.3188
  853MOL0     H15090   3.761   8.310   8.470  0.9974 -0.1201  0.3166
  853MOL0     H15091   3.867   8.246   8.333  3.2153  1.7741 -1.0525
  853MOL0     H15092   4.024   8.435   8.398  0.1857  1.9016  0.6442
  853MOL0     H15093   4.009   8.303   8.522 -1.3720 -0.6893 -0.3555
  853MOL0     H15094   3.847   8.557   8.570 -0.3376  1.3687  3.8138
  853MOL0     H15095   4.015   8.542   8.600 -1.6970  1.5888  0.6485
  853MOL0     H15096   3.803   8.348   8.718  0.2913 -0.3137  2.3059
  853MOL0     H15097   3.986   8.339   8.724  0.7566 -0.1075 -2.7621
  853MOL0     H15098   3.974   8.553   8.836  0.0232 -1.0465  1.8406
  853MOL0     H15099   3.801   8.569   8.824 -0.8776  0.1129  2.7208
  853MOL0     H15100   3.779   8.415   9.017  1.2309 -1.9265  2.0079
  853MOL0     H15101   3.928   8.338   8.974 -0.7101 -0.9236 -0.8118
  853MOL0     H15102   3.937   8.625   9.045  0.2795  0.1126  2.5257
  853MOL0     H15103   4.071   8.521   9.043 -0.5268 -1.9723  0.4615
  853MOL0     H15104   3.978   8.564   9.281 -0.4306  2.0766 -2.1701
  853MOL0     H15105   3.833   8.480   9.239  0.2378  0.2073  3.3174
  853MOL0     H15106   3.836   8.215   9.239 -0.4777  1.0443  0.0944
  853MOL0     H15107   3.978   8.054   9.531 -4.7928  0.4109 -0.1934
  853MOL0     H15108   3.884   8.020   9.387 -0.3691  0.8506 -0.1626
  853MOL0     H15109   4.193   7.984   9.443  0.3810 -0.8031  0.4810
  853MOL0     H15110   4.069   7.855   9.443 -1.5479  1.4601  0.5145
  853MOL0     H15111   4.219   7.854   9.253 -1.3400 -1.7380 -1.5112
  853MOL0     H15112   4.157   7.992   9.183  2.1096 -3.1445 -0.9889
  853MOL0     H15113   4.008   7.741   9.254 -0.1797 -1.0239 -2.1669
  853MOL0     H15114   4.050   7.795   9.095 -2.4172 -0.6710 -0.0108
  853MOL0     H15115   3.866   7.618   9.220 -0.0612  0.3374 -2.3384
  853MOL0     H15116   3.642   7.507   9.260 -1.6001  1.1042 -0.3411
  853MOL0     H15117   3.226   7.595   9.538 -0.4378 -0.6771  1.2985
  853MOL0     H15118   2.990   7.494   9.585 -2.4602  0.7906 -1.3281
  853MOL0     H15119   2.721   7.521   9.274 -0.8673 -0.9774 -0.6458
  853MOL0     H15120   2.643   7.379   9.343  2.5188 -0.7628 -3.1913
  853MOL0     H15121   2.591   7.488   9.551 -3.5365  2.7660  0.0493
  853MOL0     H15122   2.718   7.598   9.530 -0.3737  1.6655 -0.5826
  853MOL0     H15123   2.582   7.701   9.325  0.2379 -0.0416 -0.1366
  853MOL0     H15124   2.468   7.574   9.349  1.4818 -0.6729 -0.5318
  853MOL0     H15125   2.536   7.793   9.531 -0.0736 -0.2067 -0.6604
  853MOL0     H15126   2.415   7.665   9.582 -3.1324 -0.0750 -0.9561
  853MOL0     H15127   2.285   7.736   9.389 -0.5064  0.6954 -1.1220
  853MOL0     H15128   2.385   7.879   9.369  0.0900  0.9095 -0.2181
  853MOL0     H15129   2.171   7.921   9.480 -1.5513 -2.8626 -1.5619
  853MOL0     H15130   2.198   7.786   9.591 -0.6642  1.1705  0.7506
  853MOL0     H15131   2.423   7.927   9.666  1.2050  2.3905  1.1003
  853MOL0     H15132   2.282   7.954   9.758  0.2517  1.6173  0.4122
  853MOL0     H15133   2.339   8.166   9.705 -3.0502  0.0488  1.0539
  853MOL0     H15134   2.340   8.146   9.521  0.7640  4.1140  1.6848
  853MOL0     H15135   2.918   7.477   9.176  0.8133 -3.3092  0.4196
  853MOL0     H15136   3.107   7.613   9.129 -2.6119  0.2315  0.7605
  853MOL0     H15137   3.447   7.874   9.213  0.4546  0.9308  0.9023
  853MOL0     H15138   3.654   7.997   9.173 -0.0254  0.8434  1.5256
  853MOL0     H15139   3.706   8.599   8.124 -1.3654  1.9764  3.9658
  853MOL0     H15140   3.515   8.545   7.971  1.0385  2.0391  0.4316
  853MOL0     H15141   3.094   8.224   7.950  1.1524 -1.8791 -1.9837
  853MOL0     H15142   2.915   8.183   7.795  0.7081  1.0362  1.6867
  853MOL0     H15143   2.850   8.463   7.434  1.0717  1.4572  2.0207
  853MOL0     H15144   2.780   8.518   7.576  2.4196  0.4270 -1.0271
  853MOL0     H15145   2.616   8.480   7.396  3.1187  2.9590  1.0078
  853MOL0     H15146   2.564   8.372   7.526 -3.2260 -0.4190 -3.2813
  853MOL0     H15147   2.667   8.174   7.434 -0.5720 -2.6903 -3.3367
  853MOL0     H15148   2.730   8.255   7.290 -0.8528 -0.6151 -1.0811
  853MOL0     H15149   2.534   8.145   7.263  2.3870 -0.1513  0.9720
  853MOL0     H15150   2.447   8.268   7.359  1.5489  1.8666  1.6068
  853MOL0     H15151   2.565   8.464   6.979  3.1861 -0.0295 -0.3491
  853MOL0     H15152   3.004   8.530   7.570 -0.4481 -0.5889 -0.7685
  853MOL0     H15153   3.308   8.635   7.758 -0.8573 -0.1865  0.9227
  853MOL0     H15154   3.194   8.660   7.620 -0.0828 -1.0435 -0.2967
  853MOL0     H15155   3.149   8.695   7.795  1.6885  1.1757  0.3573
  854MOL0     O15156   3.897   7.478   6.715  0.2710  0.1195 -0.0878
  854MOL0     C15157   3.928   7.456   6.830  0.3411 -0.0766 -0.0897
  854MOL0     O15158   3.835   7.410   6.923  0.2728  0.0346 -0.0429
  854MOL0     C15159   3.716   7.359   6.882  0.5515 -0.4499  0.4077
  854MOL0     C15160   3.598   7.405   6.945 -0.2058 -0.5312 -0.4421
  854MOL0     C15161   3.475   7.347   6.927 -0.4764  0.6425  0.0848
  854MOL0     C15162   3.464   7.246   6.836  0.1168  0.3781  0.1815
  854MOL0     O15163   3.334   7.192   6.839 -0.3528  0.6379  0.0798
  854MOL0     C15164   3.296   7.126   6.715  0.2953  0.6589 -0.0013
  854MOL0     C15165   3.154   7.094   6.712  0.2279 -0.3684 -0.3963
  854MOL0     C15166   3.122   6.979   6.610 -0.2798 -0.6115 -0.0737
  854MOL0     C15167   2.972   6.930   6.619 -0.3655 -0.4478 -0.4507
  854MOL0     C15168   2.938   6.798   6.557  0.0970 -0.5571 -0.1617
  854MOL0     C15169   2.793   6.765   6.573  0.1910  0.5571 -0.9424
  854MOL0     C15170   2.758   6.639   6.505  0.4336 -1.0447 -0.2467
  854MOL0     C15171   2.820   6.514   6.568  0.4735  0.1730  0.1578
  854MOL0     N15172   2.742   6.477   6.691 -0.7282  0.1567  1.1544
  854MOL0     C15173   2.775   6.512   6.813 -0.1113  0.4474  0.5374
  854MOL0     C15174   2.689   6.442   6.889  0.4241  0.1138 -0.6304
  854MOL0     C15175   2.665   6.447   7.043  0.1593 -0.5353 -0.4455
  854MOL0     C15176   2.775   6.537   7.106 -0.2287 -0.5254 -0.7962
  854MOL0     C15177   2.750   6.692   7.094 -0.4741  0.9392  0.5101
  854MOL0     C15178   2.880   6.778   7.117 -0.1376  0.0055 -0.6029
  854MOL0     O15179   2.986   6.745   7.017  0.1706 -0.2066  0.1752
  854MOL0     C15180   3.104   6.808   7.023  0.4046 -0.3829 -0.5917
  854MOL0     C15181   3.135   6.911   7.112 -0.1883 -1.3191  0.8370
  854MOL0     C15182   3.269   6.963   7.118 -1.1859 -0.6128  0.0056
  854MOL0     C15183   3.370   6.901   7.046 -0.8455  0.6131  0.5033
  854MOL0     C15184   3.514   6.927   7.061  0.3898 -0.1097  0.1693
  854MOL0     O15185   3.555   6.973   7.180 -0.1520 -0.5144  0.2798
  854MOL0     C15186   3.683   7.010   7.193  0.2817 -0.7182 -0.5242
  854MOL0     C15187   3.777   6.913   7.238  0.5994 -0.0692  0.0322
  854MOL0     C15188   3.913   6.950   7.263  0.1745 -0.6313  1.1037
  854MOL0     C15189   3.951   7.090   7.249  0.1246  0.4672 -1.2465
  854MOL0     O15190   4.071   7.149   7.274  1.0078 -0.1053  0.1069
  854MOL0     C15191   4.186   7.075   7.244 -0.2845  0.7303  0.3345
  854MOL0     C15192   4.243   7.107   7.098 -0.6627  0.4751  0.4089
  854MOL0     C15193   4.136   7.095   6.989  0.6757 -0.2163  0.0842
  854MOL0     C15194   4.197   7.086   6.848  0.1563 -0.4714  0.2560
  854MOL0     C15195   4.077   7.093   6.742 -0.3534  0.4877 -0.4003
  854MOL0     C15196   4.134   7.069   6.604 -0.2755 -1.5541  0.0772
  854MOL0     C15197   4.032   7.063   6.497 -0.0853  0.6607  0.3738
  854MOL0     C15198   4.104   7.003   6.370 -0.0648 -0.0025  0.1873
  854MOL0    Cl15199   3.998   7.021   6.238  0.1469 -0.1050  0.3449
  854MOL0     C15200   3.849   7.176   7.191  0.2408  0.8191 -0.4153
  854MOL0     C15201   3.720   7.144   7.167  0.0217  0.0839 -0.8071
  854MOL0     O15202   3.588   6.919   6.963 -0.0102 -0.0355  0.1221
  854MOL0     C15203   3.337   6.804   6.958  0.3524  0.2588  0.4247
  854MOL0     C15204   3.202   6.764   6.935  0.2651 -0.1540  0.2225
  854MOL0     N15205   2.636   6.345   6.810  0.7065  0.0719 -0.8827
  854MOL0     N15206   2.651   6.378   6.686 -0.1197 -0.0839  0.5440
  854MOL0     C15207   3.580   7.196   6.767  0.6448 -0.2632  0.2127
  854MOL0     C15208   3.701   7.252   6.790 -0.3803  0.2772 -1.3378
  854MOL0     C15209   4.058   7.496   6.887 -0.7674 -0.2408  0.4131
  854MOL0     C15210   4.046   7.561   7.011  0.5601  0.1740 -0.0408
  854MOL0     C15211   4.165   7.598   7.076  0.0811  0.4069  0.8029
  854MOL0     C15212   4.293   7.600   7.015  0.3267  0.4392  0.0385
  854MOL0     O15213   4.413   7.644   7.079  0.5023  0.2891 -0.0784
  854MOL0     C15214   4.419   7.771   7.139 -0.3384 -0.1309 -0.0550
  854MOL0     C15215   4.396   7.884   7.024  0.1355 -0.0368  0.0852
  854MOL0     C15216   4.490   7.861   6.903 -0.3308  0.5239 -0.4677
  854MOL0     C15217   4.637   7.850   6.950 -0.6612  0.4985  0.5347
  854MOL0     C15218   4.673   7.984   7.001 -0.5867  0.3420  0.5736
  854MOL0     C15219   4.685   8.103   7.037 -0.4275  0.1406  0.7875
  854MOL0     C15220   4.301   7.544   6.884  0.1660 -0.4724 -1.0431
  854MOL0     C15221   4.187   7.490   6.816  0.1281 -0.5650 -0.3890
  854MOL0     C15222   4.197   7.434   6.678  0.7167  0.5447 -0.1931
  854MOL0     H15223   3.617   7.475   7.026  0.0143 -1.1090  0.0216
  854MOL0     H15224   3.392   7.377   6.990  1.1979  0.3248  2.6168
  854MOL0     H15225   3.306   7.177   6.619 -2.7847 -1.0467 -1.3758
  854MOL0     H15226   3.353   7.033   6.709 -1.3707 -0.4714  0.8689
  854MOL0     H15227   3.093   7.178   6.678 -0.4746 -0.5526  0.3652
  854MOL0     H15228   3.121   7.072   6.814 -0.9289  0.6727 -0.5246
  854MOL0     H15229   3.187   6.897   6.641 -0.3951 -1.2844 -1.5293
  854MOL0     H15230   3.139   6.993   6.503  1.2773 -0.1300  0.2134
  854MOL0     H15231   2.946   6.905   6.722  0.9638 -4.2178 -0.8697
  854MOL0     H15232   2.907   7.001   6.567 -0.3759  1.6648  2.1934
  854MOL0     H15233   2.963   6.802   6.451 -2.4580 -1.4061 -0.8750
  854MOL0     H15234   3.004   6.721   6.599  1.0233 -0.0386 -0.6548
  854MOL0     H15235   2.758   6.760   6.676  2.5763 -0.5287 -0.1022
  854MOL0     H15236   2.740   6.843   6.517 -2.3487 -0.1779  0.2738
  854MOL0     H15237   2.794   6.631   6.402 -0.8671 -4.5058 -0.5546
  854MOL0     H15238   2.650   6.622   6.497  0.5310 -0.8954 -2.6948
  854MOL0     H15239   2.812   6.430   6.498 -0.1845 -0.6166  1.1427
  854MOL0     H15240   2.922   6.536   6.599  0.9801 -0.4899 -1.0157
  854MOL0     H15241   2.827   6.602   6.845  0.3731  0.6258 -0.6727
  854MOL0     H15242   2.564   6.485   7.062  0.6927  0.5503  0.3758
  854MOL0     H15243   2.659   6.345   7.083  1.6201 -0.3888  0.2185
  854MOL0     H15244   2.783   6.517   7.213 -0.7242  0.8733 -0.4857
  854MOL0     H15245   2.869   6.513   7.055  0.6817  1.6483 -0.2246
  854MOL0     H15246   2.679   6.727   7.170 -0.1892 -1.9677  2.2578
  854MOL0     H15247   2.715   6.717   6.993  0.4138 -1.3295 -0.4228
  854MOL0     H15248   2.921   6.769   7.218 -0.8325  1.8703 -0.1031
  854MOL0     H15249   2.849   6.882   7.102  2.9321  1.6013  2.5592
  854MOL0     H15250   3.057   6.929   7.186 -3.2092 -1.9605 -1.9969
  854MOL0     H15251   3.302   7.038   7.189  0.2440 -1.2386  0.0293
  854MOL0     H15252   3.744   6.813   7.261 -1.2704  0.2733 -0.9895
  854MOL0     H15253   3.975   6.878   7.316  0.0482 -2.4689 -1.1240
  854MOL0     H15254   4.263   7.106   7.315 -1.9437 -1.5874  3.4114
  854MOL0     H15255   4.167   6.969   7.263  0.5624  1.1073  3.9123
  854MOL0     H15256   4.276   7.211   7.095  2.1251 -0.3019  1.0744
  854MOL0     H15257   4.318   7.031   7.074  0.1153  1.8404 -1.8034
  854MOL0     H15258   4.055   7.023   7.005 -0.6186  0.8321 -1.5440
  854MOL0     H15259   4.076   7.186   6.992 -0.0577 -0.6975  0.3401
  854MOL0     H15260   4.241   6.986   6.847 -1.2275 -1.2795  3.7556
  854MOL0     H15261   4.279   7.155   6.829  0.6343 -1.1371 -0.1562
  854MOL0     H15262   4.025   7.188   6.753  1.1852  1.3849 -0.5784
  854MOL0     H15263   4.012   7.007   6.758 -0.0508  0.0057 -1.6301
  854MOL0     H15264   4.203   7.150   6.579 -0.8048 -1.4882 -1.2076
  854MOL0     H15265   4.193   6.977   6.612  1.1100 -0.6290  1.0751
  854MOL0     H15266   4.004   7.166   6.475  2.0353  1.4147  0.8997
  854MOL0     H15267   3.948   7.002   6.531  1.5600 -0.6217  2.3868
  854MOL0     H15268   4.195   7.059   6.345  0.2087  0.2335  1.6104
  854MOL0     H15269   4.129   6.898   6.386 -0.3546 -0.1051 -0.0309
  854MOL0     H15270   3.881   7.275   7.158  2.9795 -0.5028 -2.0305
  854MOL0     H15271   3.647   7.213   7.128 -1.2793  1.6758  3.7948
  854MOL0     H15272   3.419   6.765   6.900 -0.2974  0.4356 -0.6329
  854MOL0     H15273   3.180   6.687   6.862  0.9347  1.2650 -1.5755
  854MOL0     H15274   3.566   7.123   6.688  1.9767 -0.1599 -0.1388
  854MOL0     H15275   3.790   7.214   6.741 -0.5485 -1.0976 -0.6134
  854MOL0     H15276   3.949   7.579   7.056 -1.1786 -1.9307 -2.6349
  854MOL0     H15277   4.155   7.629   7.180 -2.0854 -2.8835  1.7530
  854MOL0     H15278   4.509   7.784   7.201 -1.0570 -0.0279  1.0036
  854MOL0     H15279   4.329   7.783   7.200 -1.1700 -0.9497 -1.0858
  854MOL0     H15280   4.410   7.984   7.065 -0.7346 -0.7603  2.3122
  854MOL0     H15281   4.291   7.873   6.995  0.2173  1.4634 -0.8780
  854MOL0     H15282   4.477   7.945   6.834 -2.0298  0.7305  0.0481
  854MOL0     H15283   4.464   7.768   6.853 -2.2510  0.8142 -0.0803
  854MOL0     H15284   4.662   7.772   7.022  0.0979 -0.1333 -0.3776
  854MOL0     H15285   4.698   7.826   6.862 -0.7485  3.8895 -0.6124
  854MOL0     H15286   4.694   8.195   7.090  0.5768  2.0095 -2.3336
  854MOL0     H15287   4.395   7.542   6.830  0.2393  2.7342 -1.2173
  854MOL0     H15288   4.149   7.511   6.617 -0.9314  2.2713  3.0084
  854MOL0     H15289   4.303   7.417   6.659  0.5874  1.7185 -2.2765
  854MOL0     H15290   4.148   7.338   6.660  0.4256  0.5553  0.5147
  855MOL0     O15291  10.823   9.074   8.246 -0.3152  0.4978 -0.0006
  855MOL0     C15292  10.808   9.050   8.129  0.0140 -0.1520  0.6308
  855MOL0     O15293  10.839   9.130   8.026  0.0977  0.4368  0.0754
  855MOL0     C15294  10.859   9.259   8.044  0.2757  0.0102  0.2854
  855MOL0     C15295  10.960   9.308   7.968 -0.0604  0.7233 -0.5096
  855MOL0     C15296  10.992   9.445   7.972  0.4827 -0.0261  0.6655
  855MOL0     C15297  10.925   9.532   8.060 -0.6082 -0.0432  1.2633
  855MOL0     O15298  10.957   9.673   8.067  0.5624  0.2431  0.3176
  855MOL0     C15299  10.982   9.736   7.950  0.3336  0.6178  0.3687
  855MOL0     C15300  11.037   9.872   7.991 -0.2713 -1.5026 -1.8467
  855MOL0     C15301  11.044   9.965   7.864  0.0603  0.6304  1.0221
  855MOL0     C15302  11.154   9.931   7.753  0.7765  0.6337 -0.5346
  855MOL0     C15303  11.131  10.021   7.622  0.7716  0.0981 -0.2218
  855MOL0     C15304  11.105  10.165   7.645  0.2128 -0.4566  0.1638
  855MOL0     C15305  11.078  10.212   7.503  0.8108 -0.5357 -0.0845
  855MOL0     C15306  11.098  10.358   7.507  1.0810  0.3845 -0.0884
  855MOL0     N15307  11.239  10.394   7.503  0.1629 -0.1690 -1.0044
  855MOL0     C15308  11.318  10.443   7.612  0.4193 -0.6435 -0.4052
  855MOL0     C15309  11.426  10.501   7.551  0.2432 -0.0248  0.3349
  855MOL0     C15310  11.534  10.592   7.600  0.8030  0.1833  0.3530
  855MOL0     C15311  11.677  10.570   7.560 -0.4662 -0.4922  0.0914
  855MOL0     C15312  11.709  10.628   7.420 -0.4444  0.2703 -0.3655
  855MOL0     C15313  11.846  10.697   7.415 -0.2061 -0.3070  0.6386
  855MOL0     O15314  11.948  10.597   7.410 -0.5536 -0.0347  0.4702
  855MOL0     C15315  12.075  10.638   7.435 -1.0845  0.0980 -0.7040
  855MOL0     C15316  12.172  10.539   7.413  0.2704  0.2739 -0.7171
  855MOL0     C15317  12.304  10.564   7.417 -0.4103  0.7133 -0.7760
  855MOL0     C15318  12.356  10.693   7.437  0.2073  0.3609  0.2663
  855MOL0     C15319  12.502  10.723   7.437  0.8318  0.6609 -0.1860
  855MOL0     O15320  12.603  10.636   7.471  0.2905 -0.0576  0.0507
  855MOL0     C15321  12.726  10.693   7.462 -0.5698  0.0607 -0.5856
  855MOL0     C15322  12.810  10.661   7.353 -0.7436 -0.0771 -0.9714
  855MOL0     C15323  12.937  10.719   7.344  0.2613 -0.5724  0.3575
  855MOL0     C15324  12.981  10.808   7.446 -0.6800  0.2349  0.1054
  855MOL0     O15325  13.098  10.876   7.434 -0.5260  0.1653 -0.2239
  855MOL0     C15326  13.212  10.803   7.384 -0.3193 -0.5954  0.3409
  855MOL0     C15327  13.334  10.890   7.406 -0.2267  1.1319  0.0057
  855MOL0     C15328  13.452  10.808   7.359  0.5723 -0.2568 -0.5874
  855MOL0     C15329  13.509  10.858   7.233 -0.2093  0.5923  0.5065
  855MOL0     C15330  13.634  10.772   7.186 -0.4994 -0.4010 -0.6676
  855MOL0     C15331  13.677  10.795   7.040  0.1756  0.6110 -0.0590
  855MOL0     C15332  13.740  10.939   7.016  0.3011 -0.3516 -0.3509
  855MOL0     C15333  13.811  10.982   6.886 -0.0916  0.9380  0.0957
  855MOL0    Cl15334  13.955  10.880   6.858  0.0853 -0.3783 -0.5838
  855MOL0     C15335  12.904  10.846   7.559  0.4669 -0.2856 -0.9430
  855MOL0     C15336  12.777  10.782   7.560 -1.2321 -0.7663 -0.2190
  855MOL0     O15337  12.514  10.837   7.401 -0.6700  0.5444  0.0098
  855MOL0     C15338  12.262  10.791   7.467  0.5529  0.0846 -0.0121
  855MOL0     C15339  12.121  10.767   7.457 -0.3592  0.6976 -0.4218
  855MOL0     N15340  11.417  10.490   7.417 -0.8299  0.5772 -0.8718
  855MOL0     N15341  11.303  10.437   7.390 -0.4685  0.1157 -0.0397
  855MOL0     C15342  10.825   9.481   8.142 -0.6895  1.8439 -0.8356
  855MOL0     C15343  10.781   9.344   8.132 -0.8695 -0.1973  0.2368
  855MOL0     C15344  10.782   8.915   8.072 -0.5256 -0.0689 -0.6517
  855MOL0     C15345  10.775   8.900   7.932 -0.4926 -0.0018 -0.2113
  855MOL0     C15346  10.733   8.772   7.879  0.4360  0.3744 -0.7627
  855MOL0     C15347  10.702   8.659   7.956 -0.0320  0.0479  0.3371
  855MOL0     O15348  10.650   8.544   7.903 -0.4489 -0.8934 -0.2062
  855MOL0     C15349  10.569   8.536   7.777 -0.0722 -0.0432 -0.8703
  855MOL0     C15350  10.456   8.634   7.800 -0.1871 -0.4528 -0.2380
  855MOL0     C15351  10.394   8.660   7.664 -1.4722 -0.4600  1.0257
  855MOL0     C15352  10.259   8.712   7.689 -0.1624 -0.1853  0.2963
  855MOL0     C15353  10.199   8.715   7.560  0.2816  0.4312  0.4060
  855MOL0     C15354  10.143   8.735   7.450  0.3751  0.6231 -0.6588
  855MOL0     C15355  10.723   8.671   8.086 -0.1601  0.1994 -0.3374
  855MOL0     C15356  10.753   8.792   8.143  0.1816 -0.9715 -0.4338
  855MOL0     C15357  10.747   8.794   8.296 -0.0726  0.4020 -0.2716
  855MOL0     H15358  11.020   9.249   7.899 -0.8559 -0.9996  0.2083
  855MOL0     H15359  11.077   9.487   7.918 -1.1334  1.8984 -0.5152
  855MOL0     H15360  11.071   9.701   7.897  2.7083  3.1862  2.3394
  855MOL0     H15361  10.897   9.746   7.882  0.5997  0.0383 -0.0505
  855MOL0     H15362  11.136   9.854   8.032 -2.4008 -3.4762  3.1879
  855MOL0     H15363  10.976   9.921   8.068 -0.8191 -2.4029 -1.6981
  855MOL0     H15364  11.078  10.059   7.910  1.0484  0.4486  0.6896
  855MOL0     H15365  10.946   9.980   7.819  0.2347 -0.6167  0.2132
  855MOL0     H15366  11.247   9.944   7.809 -0.4680  1.1002  1.5213
  855MOL0     H15367  11.137   9.830   7.715 -0.2242  0.7211 -0.3544
  855MOL0     H15368  11.219  10.001   7.560  0.9575  2.2648 -0.7338
  855MOL0     H15369  11.039   9.976   7.584  0.8105  0.8078 -1.1983
  855MOL0     H15370  11.019  10.189   7.709  1.0115  2.0180  0.4207
  855MOL0     H15371  11.193  10.221   7.679  0.6960 -1.0471 -0.1128
  855MOL0     H15372  10.972  10.191   7.484  0.3924 -0.1168  1.6002
  855MOL0     H15373  11.133  10.157   7.426 -1.6681 -1.6819 -1.1506
  855MOL0     H15374  11.048  10.413   7.427 -1.9757  1.0224  2.0523
  855MOL0     H15375  11.054  10.390   7.602 -0.6529 -1.5675 -0.1777
  855MOL0     H15376  11.291  10.423   7.715 -2.9912 -1.3293 -1.3087
  855MOL0     H15377  11.501  10.690   7.566  1.4817  0.4069  0.3121
  855MOL0     H15378  11.518  10.586   7.708 -2.0321 -1.5558 -0.0496
  855MOL0     H15379  11.746  10.617   7.631 -0.8025 -0.1701  0.2095
  855MOL0     H15380  11.689  10.462   7.547 -2.1203 -0.8018  0.8361
  855MOL0     H15381  11.635  10.707   7.407 -1.3450 -0.3113  1.0170
  855MOL0     H15382  11.710  10.550   7.344 -0.3083  3.2002 -3.5925
  855MOL0     H15383  11.858  10.758   7.504 -3.8104 -3.6079  3.7368
  855MOL0     H15384  11.853  10.760   7.326 -0.5254  1.0403  1.5411
  855MOL0     H15385  12.143  10.437   7.388 -1.6143  0.4221  0.6621
  855MOL0     H15386  12.374  10.487   7.387  0.2081  0.7782  0.4240
  855MOL0     H15387  12.763  10.595   7.281  1.6354 -2.0744 -0.8108
  855MOL0     H15388  12.978  10.716   7.244  1.8468  0.0314  0.9609
  855MOL0     H15389  13.217  10.703   7.428  1.2295  0.2331  2.2289
  855MOL0     H15390  13.204  10.794   7.276  0.3586  0.6117  0.1644
  855MOL0     H15391  13.328  10.982   7.346  0.6301  0.3191 -1.3871
  855MOL0     H15392  13.350  10.903   7.513 -0.7142  2.2971 -0.0515
  855MOL0     H15393  13.530  10.804   7.436 -1.2936 -0.8963  1.3929
  855MOL0     H15394  13.421  10.703   7.358  0.0161 -0.1431  0.8979
  855MOL0     H15395  13.539  10.963   7.242  4.2318 -0.4952  0.5188
  855MOL0     H15396  13.429  10.863   7.159 -0.8052  1.0552  1.1678
  855MOL0     H15397  13.615  10.665   7.202 -1.6187 -0.0219  0.7871
  855MOL0     H15398  13.716  10.792   7.255  2.4882  0.9975 -4.2410
  855MOL0     H15399  13.752  10.721   7.010 -1.8689 -0.4107 -3.0647
  855MOL0     H15400  13.599  10.767   6.969 -0.1919 -1.1261  0.9536
  855MOL0     H15401  13.795  10.960   7.108 -1.9642  1.2971  0.7046
  855MOL0     H15402  13.652  11.002   7.025 -0.9863 -2.0385 -0.6942
  855MOL0     H15403  13.733  10.971   6.810  0.1188 -0.4369  0.0461
  855MOL0     H15404  13.840  11.087   6.888 -2.2940  1.5949 -0.2101
  855MOL0     H15405  12.957  10.911   7.629 -1.4788  0.4763 -0.0958
  855MOL0     H15406  12.711  10.804   7.644  0.0934 -0.4754  0.7701
  855MOL0     H15407  12.295  10.891   7.494 -1.0559  0.8594 -0.8038
  855MOL0     H15408  12.054  10.850   7.478 -1.8935 -0.5983 -0.0180
  855MOL0     H15409  10.774   9.544   8.214 -1.5489  0.2843 -0.0469
  855MOL0     H15410  10.694   9.305   8.184 -2.1160 -0.4153 -1.8936
  855MOL0     H15411  10.797   8.977   7.859 -2.6735 -0.5651 -1.5745
  855MOL0     H15412  10.734   8.754   7.772 -0.9554 -0.6193 -0.6256
  855MOL0     H15413  10.530   8.434   7.768  0.8526 -0.4516 -0.3577
  855MOL0     H15414  10.632   8.551   7.689  0.5264 -3.1950 -1.0907
  855MOL0     H15415  10.473   8.729   7.852 -1.8848 -0.2870  0.0939
  855MOL0     H15416  10.382   8.591   7.868  0.8934  2.3329  2.9641
  855MOL0     H15417  10.398   8.562   7.616 -1.1538 -0.7889  1.7074
  855MOL0     H15418  10.460   8.724   7.605 -0.5292 -2.7673 -0.5707
  855MOL0     H15419  10.207   8.644   7.757 -1.0257  2.0051  1.9820
  855MOL0     H15420  10.263   8.812   7.734  0.1429 -1.0582  2.3588
  855MOL0     H15421  10.108   8.750   7.349  0.3160  1.3315 -0.5382
  855MOL0     H15422  10.690   8.577   8.128 -2.9279  0.4075 -1.8337
  855MOL0     H15423  10.693   8.709   8.340  2.2542 -0.8339  0.3709
  855MOL0     H15424  10.851   8.794   8.330 -0.1601  1.7489  0.0534
  855MOL0     H15425  10.694   8.879   8.340 -0.8852  0.8165 -1.9617
  856MOL0     O15426   0.724   6.134  10.290  0.2721  0.2927 -0.8081
  856MOL0     C15427   0.823   6.151  10.355 -0.2374  0.5467  0.3408
  856MOL0     O15428   0.829   6.230  10.463 -0.4351  0.3658 -0.2156
  856MOL0     C15429   0.719   6.275  10.521  0.2829  0.4879  0.3806
  856MOL0     C15430   0.710   6.397  10.587 -0.0921  0.5619  1.0697
  856MOL0     C15431   0.593   6.450  10.637 -0.1412 -0.4493 -0.3253
  856MOL0     C15432   0.473   6.373  10.646 -1.1194 -0.5066  0.1282
  856MOL0     O15433   0.352   6.408  10.698  0.5476  0.4215 -0.3385
  856MOL0     C15434   0.366   6.518  10.802 -0.0036  1.0471  0.5778
  856MOL0     C15435   0.249   6.516  10.888  0.1740 -0.0081 -0.1734
  856MOL0     C15436   0.236   6.381  10.961  0.8918 -0.9701  0.5130
  856MOL0     C15437   0.356   6.342  11.051 -0.1432 -0.8902  0.4083
  856MOL0     C15438   0.344   6.207  11.116 -0.5314  0.6308  0.4956
  856MOL0     C15439   0.468   6.177  11.207 -0.0643 -0.3166  0.8015
  856MOL0     C15440   0.464   6.047  11.266 -0.3551  1.0596  1.0838
  856MOL0     C15441   0.455   5.933  11.166  0.7122  0.4943  0.2867
  856MOL0     N15442   0.489   5.800  11.235 -0.1223 -0.6456 -0.0229
  856MOL0     C15443   0.396   5.709  11.274  0.2453  0.7672  0.3269
  856MOL0     C15444   0.470   5.632  11.357 -0.2219  0.7519  0.7902
  856MOL0     C15445   0.420   5.492  11.405 -0.1477  0.0386 -0.2682
  856MOL0     C15446   0.332   5.404  11.305  0.7676  0.0161  0.5634
  856MOL0     C15447   0.378   5.407  11.159  0.1826 -0.3882 -0.4052
  856MOL0     C15448   0.531   5.377  11.167  0.2457 -0.4755  0.4142
  856MOL0     O15449   0.567   5.334  11.032  0.0163  0.1737  0.8282
  856MOL0     C15450   0.696   5.329  10.982  0.3012 -0.5507  0.7279
  856MOL0     C15451   0.805   5.342  11.071 -0.7445 -0.5920  0.1278
  856MOL0     C15452   0.932   5.328  11.012  0.7234  0.4913 -0.1616
  856MOL0     C15453   0.960   5.314  10.878  0.7023 -0.8236  0.7089
  856MOL0     C15454   1.101   5.304  10.829  0.5752  0.1854 -0.8758
  856MOL0     O15455   1.114   5.260  10.709  0.2659 -0.0685  0.3379
  856MOL0     C15456   1.230   5.250  10.637  0.0495 -0.4123 -0.0099
  856MOL0     C15457   1.356   5.214  10.688  1.4174  0.4664 -0.2958
  856MOL0     C15458   1.466   5.188  10.604 -0.6390 -0.1179 -0.3516
  856MOL0     C15459   1.448   5.213  10.465  0.5766  1.2619  0.8975
  856MOL0     O15460   1.538   5.200  10.363 -0.2905 -0.2464 -0.3607
  856MOL0     C15461   1.629   5.085  10.376 -0.8538 -0.1898 -0.5980
  856MOL0     C15462   1.772   5.089  10.305  0.1594 -0.2011  0.5837
  856MOL0     C15463   1.841   5.215  10.345 -0.8629 -0.1079 -0.1397
  856MOL0     C15464   1.991   5.201  10.281 -0.7672 -1.0914  0.3671
  856MOL0     C15465   2.051   5.349  10.293  0.0227  0.5257  1.3870
  856MOL0     C15466   1.988   5.455  10.201 -0.0175 -0.5942 -0.8879
  856MOL0     C15467   1.951   5.401  10.060  0.2348 -0.3697  0.5966
  856MOL0     C15468   1.896   5.524   9.992 -0.3515  0.2477  0.6579
  856MOL0    Cl15469   2.041   5.626   9.933 -0.2222 -0.2009 -0.0016
  856MOL0     C15470   1.324   5.248  10.411 -0.1280  0.2955 -0.0308
  856MOL0     C15471   1.217   5.274  10.501  0.1592 -0.6185 -0.6754
  856MOL0     O15472   1.194   5.348  10.901 -0.1110 -0.3747  0.5090
  856MOL0     C15473   0.841   5.299  10.800 -0.4925  0.2397  1.1385
  856MOL0     C15474   0.707   5.300  10.846 -0.3436  0.3765 -0.1151
  856MOL0     N15475   0.601   5.676  11.362  0.5507 -0.0468  0.1539
  856MOL0     N15476   0.611   5.778  11.285  1.1860  0.6457 -0.6313
  856MOL0     C15477   0.476   6.253  10.589  0.9582 -0.4285 -0.2797
  856MOL0     C15478   0.591   6.200  10.526 -1.0144  0.5609 -0.0212
  856MOL0     C15479   0.946   6.096  10.301  0.0032 -0.0142 -0.2476
  856MOL0     C15480   1.066   6.167  10.333 -0.3882 -0.8192  1.1902
  856MOL0     C15481   1.193   6.138  10.296 -0.0259 -0.0778 -0.1728
  856MOL0     C15482   1.212   6.019  10.217  0.1074  0.0237  0.4944
  856MOL0     O15483   1.334   5.969  10.167 -0.2562 -0.0316  1.1486
  856MOL0     C15484   1.436   5.963  10.270  0.6713  0.2568  0.8507
  856MOL0     C15485   1.558   5.890  10.231 -0.1125  0.5616 -0.8405
  856MOL0     C15486   1.646   5.972  10.144 -0.5859 -0.6611 -0.0360
  856MOL0     C15487   1.795   5.959  10.177  1.3005 -0.3427  0.1224
  856MOL0     C15488   1.862   5.987  10.043 -0.3669  0.3605 -0.0395
  856MOL0     C15489   1.908   6.011   9.935 -0.5929 -0.2046  0.5573
  856MOL0     C15490   1.093   5.951  10.181 -0.0109 -0.4118 -1.1567
  856MOL0     C15491   0.967   5.981  10.223 -0.3806  0.9643  0.0352
  856MOL0     C15492   0.859   5.886  10.174 -0.1123 -0.5524  0.3329
  856MOL0     H15493   0.805   6.448  10.583 -0.4344  1.1215 -2.0236
  856MOL0     H15494   0.582   6.547  10.685 -0.8245 -1.0323  0.7339
  856MOL0     H15495   0.462   6.512  10.855 -0.7349  1.8661  2.0682
  856MOL0     H15496   0.368   6.609  10.741  1.2279 -0.5310 -1.8589
  856MOL0     H15497   0.171   6.523  10.811 -1.4728 -0.0791  1.4328
  856MOL0     H15498   0.244   6.610  10.944  1.1178  1.7603 -2.8186
  856MOL0     H15499   0.221   6.301  10.888 -1.6405 -1.4008  1.3999
  856MOL0     H15500   0.143   6.385  11.019  1.4926  1.8501  1.4318
  856MOL0     H15501   0.444   6.351  10.987  0.4791  3.4851  1.5094
  856MOL0     H15502   0.364   6.413  11.134  0.7292 -0.9368  0.3626
  856MOL0     H15503   0.255   6.199  11.180  0.1464 -0.7256  1.2930
  856MOL0     H15504   0.350   6.133  11.036 -0.0595  0.0136  1.1007
  856MOL0     H15505   0.563   6.198  11.157 -1.6951  0.0518 -2.4206
  856MOL0     H15506   0.469   6.252  11.287 -0.1590 -0.4355  0.9141
  856MOL0     H15507   0.391   6.032  11.346  0.1445  0.0768  1.3625
  856MOL0     H15508   0.559   6.038  11.318 -0.7332  2.0381  1.9807
  856MOL0     H15509   0.354   5.930  11.124  1.4305 -0.3961 -1.5121
  856MOL0     H15510   0.527   5.949  11.085  2.1012  0.2502  1.4392
  856MOL0     H15511   0.295   5.703  11.237 -0.5228  1.0918  2.2277
  856MOL0     H15512   0.504   5.437  11.449  0.9776  2.7524  1.2372
  856MOL0     H15513   0.357   5.513  11.492  1.9819  0.6201  1.2203
  856MOL0     H15514   0.329   5.302  11.345  1.7922 -1.3408 -2.4559
  856MOL0     H15515   0.228   5.440  11.305  1.0123  0.7922 -0.5452
  856MOL0     H15516   0.368   5.497  11.098  1.3674 -0.7876 -1.2259
  856MOL0     H15517   0.327   5.321  11.114  0.6747 -0.4832 -0.7985
  856MOL0     H15518   0.554   5.301  11.243 -1.5509 -0.0047  1.4874
  856MOL0     H15519   0.590   5.462  11.203 -2.4640 -0.1549  4.8855
  856MOL0     H15520   0.790   5.323  11.177 -1.8500 -2.1842 -0.2681
  856MOL0     H15521   1.017   5.332  11.080  1.3506 -0.2509 -0.8764
  856MOL0     H15522   1.362   5.195  10.794 -4.1344  2.1037  0.6308
  856MOL0     H15523   1.561   5.157  10.648  0.4882  1.2518 -1.7000
  856MOL0     H15524   1.652   5.061  10.480 -4.3493 -3.6242 -0.3948
  856MOL0     H15525   1.581   4.994  10.340  1.6841 -0.7889 -2.7829
  856MOL0     H15526   1.836   5.008  10.339  2.3321  1.7737  1.4959
  856MOL0     H15527   1.746   5.076  10.200 -0.8894  0.2429  0.7648
  856MOL0     H15528   1.782   5.298  10.304 -0.3772  0.6813  0.7059
  856MOL0     H15529   1.840   5.219  10.454  0.2135 -1.5963 -0.0486
  856MOL0     H15530   1.989   5.170  10.176 -2.1171  4.3670 -1.5926
  856MOL0     H15531   2.055   5.123  10.323  0.1610 -1.7386 -2.0615
  856MOL0     H15532   2.158   5.337  10.272 -0.1497 -4.6331  2.1637
  856MOL0     H15533   2.045   5.378  10.398  0.3076 -3.9030  2.8250
  856MOL0     H15534   1.890   5.480  10.244 -0.0335  1.4648 -2.0129
  856MOL0     H15535   2.059   5.537  10.198  1.4730 -1.8248 -0.4013
  856MOL0     H15536   1.873   5.324  10.064  0.6453 -0.7350  2.6338
  856MOL0     H15537   2.037   5.364  10.004  1.5811 -0.0374  2.3893
  856MOL0     H15538   1.826   5.491   9.914 -1.3538  1.2684  1.0907
  856MOL0     H15539   1.842   5.587  10.063 -0.0335 -0.3779  1.4666
  856MOL0     H15540   1.312   5.261  10.304 -1.2485  0.4069  0.0928
  856MOL0     H15541   1.125   5.307  10.455  0.8486  4.8522  1.1057
  856MOL0     H15542   0.877   5.284  10.698  1.7530 -2.0508  2.1427
  856MOL0     H15543   0.622   5.281  10.781  0.8779  0.8903 -1.9538
  856MOL0     H15544   0.387   6.193  10.605  0.3821  0.2790 -0.7628
  856MOL0     H15545   0.599   6.099  10.489  1.8950  0.2664  1.1596
  856MOL0     H15546   1.062   6.266  10.378 -0.3517  0.3971 -1.3004
  856MOL0     H15547   1.272   6.204  10.330  0.6110 -0.8896 -0.0606
  856MOL0     H15548   1.392   5.923  10.362  2.3101  0.9256  1.9853
  856MOL0     H15549   1.466   6.067  10.288 -0.5396  0.6416  0.7238
  856MOL0     H15550   1.530   5.797  10.180 -2.0643 -0.2413  1.4957
  856MOL0     H15551   1.611   5.851  10.318 -1.9696 -4.7188 -1.7314
  856MOL0     H15552   1.623   6.079  10.153  0.0229 -0.5732  0.6664
  856MOL0     H15553   1.615   5.946  10.043 -1.5199  0.5371 -0.0803
  856MOL0     H15554   1.821   6.037  10.250 -0.7843  1.4330 -0.9081
  856MOL0     H15555   1.823   5.862  10.218 -0.3580 -0.3137  1.4746
  856MOL0     H15556   1.963   6.034   9.846 -0.2763  1.3582  1.1368
  856MOL0     H15557   1.110   5.860  10.124  0.8483 -0.7970 -0.3241
  856MOL0     H15558   0.885   5.816  10.094 -1.2676 -2.7013  1.7227
  856MOL0     H15559   0.789   5.846  10.248 -2.4944  3.9277  0.8023
  856MOL0     H15560   0.796   5.949  10.111 -0.4792  0.3668  1.5770
  857MOL0     O15561   2.656   0.486   8.811  0.7530 -0.7532 -0.6236
  857MOL0     C15562   2.731   0.444   8.727  0.3414 -0.3755  0.5133
  857MOL0     O15563   2.818   0.340   8.743 -0.4859  0.3662  1.1921
  857MOL0     C15564   2.808   0.277   8.862 -0.1300 -0.0125 -0.0981
  857MOL0     C15565   2.800   0.139   8.851  0.6288 -0.9921  0.0406
  857MOL0     C15566   2.798   0.057   8.964 -0.6085 -0.0551  0.0854
  857MOL0     C15567   2.815   0.107   9.093 -0.9023 -0.4622  0.4062
  857MOL0     O15568   2.817   0.033   9.206  1.0678 -0.1315 -0.1639
  857MOL0     C15569   2.688   0.023   9.275  0.5595  0.6649 -0.3861
  857MOL0     C15570   2.709  -0.081   9.402 -0.0502 -0.0574 -0.0983
  857MOL0     C15571   2.784  -0.013   9.520  0.5875  0.1020  0.2154
  857MOL0     C15572   2.764  -0.108   9.644  0.7054  0.2094  0.9158
  857MOL0     C15573   2.783  -0.261   9.625  0.0064  1.0415 -0.5850
  857MOL0     C15574   2.927  -0.315   9.587 -0.1217  0.8072  0.0381
  857MOL0     C15575   2.944  -0.467   9.588 -0.3101  0.3131  1.0796
  857MOL0     C15576   3.057  -0.522   9.500 -0.1423 -0.4348 -0.0282
  857MOL0     N15577   3.064  -0.667   9.503  0.6415 -0.0054  0.3578
  857MOL0     C15578   3.041  -0.743   9.389 -0.4755 -0.5927 -0.7145
  857MOL0     C15579   3.070  -0.874   9.430  0.3868 -0.7475 -0.1705
  857MOL0     C15580   3.059  -0.992   9.338 -0.2592  0.1757  0.2592
  857MOL0     C15581   3.152  -1.088   9.399  0.1624  0.8640  1.3243
  857MOL0     C15582   3.182  -1.190   9.293  0.5290 -0.0560  0.0504
  857MOL0     C15583   3.245  -1.311   9.358 -0.1588  1.0088  0.0978
  857MOL0     O15584   3.256  -1.421   9.267 -0.3527 -0.4821  0.6970
  857MOL0     C15585   3.255  -1.542   9.324  0.7428 -0.9736 -0.5700
  857MOL0     C15586   3.371  -1.591   9.380 -0.1013  0.2563  0.6980
  857MOL0     C15587   3.366  -1.711   9.449 -1.3416  0.0562  0.9691
  857MOL0     C15588   3.253  -1.791   9.452 -0.0759 -0.0063  0.1466
  857MOL0     C15589   3.256  -1.920   9.519 -0.1644 -0.5395 -0.4223
  857MOL0     O15590   3.363  -1.968   9.590  0.3314  0.5147 -0.4212
  857MOL0     C15591   3.350  -2.106   9.610  0.8946  0.5624 -0.5129
  857MOL0     C15592   3.318  -2.159   9.732  0.0943 -0.1577 -0.3442
  857MOL0     C15593   3.332  -2.295   9.760  0.4835 -0.6024 -0.7640
  857MOL0     C15594   3.367  -2.389   9.657  0.2368 -0.6057  0.3180
  857MOL0     O15595   3.378  -2.527   9.649  1.0344 -0.1728 -0.1305
  857MOL0     C15596   3.441  -2.598   9.758  0.3358 -0.8340  0.7457
  857MOL0     C15597   3.451  -2.747   9.715  0.8507  0.3997  0.7700
  857MOL0     C15598   3.322  -2.826   9.699  0.2516  0.2243  0.3567
  857MOL0     C15599   3.344  -2.949   9.608 -0.4363 -0.2547 -1.9174
  857MOL0     C15600   3.214  -3.024   9.576  0.9678 -0.2051 -0.4032
  857MOL0     C15601   3.135  -3.062   9.709 -0.0674  0.3236 -0.3585
  857MOL0     C15602   3.002  -3.134   9.667  1.2455 -0.6032  0.6880
  857MOL0     C15603   2.910  -3.029   9.598  0.1408 -0.6563 -0.8022
  857MOL0    Cl15604   2.749  -3.109   9.586  0.4647 -0.1832 -0.1690
  857MOL0     C15605   3.381  -2.337   9.530 -1.3466 -0.3047 -0.4376
  857MOL0     C15606   3.381  -2.193   9.512  0.2479  0.1472  0.8480
  857MOL0     O15607   3.143  -1.975   9.511  0.5947 -0.1196 -0.3559
  857MOL0     C15608   3.140  -1.740   9.387 -0.5746 -0.1833 -0.7340
  857MOL0     C15609   3.141  -1.618   9.322  0.1512  0.4955  0.4219
  857MOL0     N15610   3.091  -0.871   9.570  0.2675  0.3035  0.4900
  857MOL0     N15611   3.097  -0.749   9.608  0.4002 -0.4641  0.7715
  857MOL0     C15612   2.828   0.252   9.106 -0.4976 -1.5605 -0.3209
  857MOL0     C15613   2.818   0.332   8.991  0.4394  0.4165  1.1622
  857MOL0     C15614   2.743   0.523   8.600 -0.1612  0.7055  0.5056
  857MOL0     C15615   2.837   0.475   8.502 -1.0077 -0.4466  0.5155
  857MOL0     C15616   2.860   0.547   8.386  0.1342  0.0351 -0.0437
  857MOL0     C15617   2.798   0.668   8.357 -0.0916 -0.3057 -0.2377
  857MOL0     O15618   2.825   0.739   8.244 -0.1119  0.9552 -0.5199
  857MOL0     C15619   2.721   0.799   8.169  0.2535  0.2114 -0.1621
  857MOL0     C15620   2.747   0.740   8.021 -0.0339  0.4924 -0.4505
  857MOL0     C15621   2.764   0.588   8.015 -0.4805 -0.4534  0.7799
  857MOL0     C15622   2.762   0.534   7.866 -0.6145  0.1932  0.3590
  857MOL0     C15623   2.631   0.539   7.811  0.1880  0.1407  0.2054
  857MOL0     C15624   2.519   0.560   7.770 -0.2064 -0.2330  1.2447
  857MOL0     C15625   2.718   0.723   8.455  0.2434 -0.4102  0.4238
  857MOL0     C15626   2.684   0.656   8.573 -0.1974  0.4291 -0.1545
  857MOL0     C15627   2.575   0.715   8.662  0.0096  1.4781 -0.1440
  857MOL0     H15628   2.800   0.097   8.751 -1.0508 -0.5564 -0.1698
  857MOL0     H15629   2.791  -0.047   8.934 -3.5434  0.9466 -3.5074
  857MOL0     H15630   2.663   0.124   9.308 -2.3383 -0.6888  2.1507
  857MOL0     H15631   2.607  -0.013   9.210 -0.5426 -1.1921  1.8448
  857MOL0     H15632   2.761  -0.173   9.371 -1.2578 -1.4886  1.8703
  857MOL0     H15633   2.610  -0.108   9.441 -1.0695  1.8816 -1.2258
  857MOL0     H15634   2.744   0.087   9.538 -2.4997 -0.9208 -0.3663
  857MOL0     H15635   2.890  -0.008   9.493  0.0668  0.4446 -1.9079
  857MOL0     H15636   2.843  -0.075   9.712 -1.5150  1.0959  3.2724
  857MOL0     H15637   2.667  -0.084   9.690  0.0870 -0.8338  0.2023
  857MOL0     H15638   2.764  -0.304   9.724  2.2739 -2.2025 -1.3841
  857MOL0     H15639   2.709  -0.302   9.556  0.9672  0.7919 -1.4951
  857MOL0     H15640   2.953  -0.282   9.486  0.9658  1.5808  0.5546
  857MOL0     H15641   3.000  -0.268   9.653 -3.2057  3.9935  1.4935
  857MOL0     H15642   2.848  -0.507   9.552 -0.4103  1.5999 -0.1471
  857MOL0     H15643   2.967  -0.505   9.688  0.6105 -1.0374  0.3802
  857MOL0     H15644   3.034  -0.496   9.396 -3.7686 -3.0367 -0.0485
  857MOL0     H15645   3.151  -0.473   9.529 -1.4062  0.9003  2.1338
  857MOL0     H15646   3.015  -0.702   9.291 -2.0700 -0.3705 -0.2268
  857MOL0     H15647   2.957  -1.025   9.318 -0.5249  0.7442  0.6461
  857MOL0     H15648   3.101  -0.963   9.241  4.6787  2.7120  2.7513
  857MOL0     H15649   3.246  -1.049   9.440 -0.4677  0.5199  3.2027
  857MOL0     H15650   3.112  -1.134   9.489 -0.3608  0.4233  0.8728
  857MOL0     H15651   3.259  -1.143   9.232  2.5278  0.4378  2.7746
  857MOL0     H15652   3.111  -1.217   9.214  1.4463  0.1478 -0.8645
  857MOL0     H15653   3.190  -1.342   9.448  1.4482 -1.7864  0.2666
  857MOL0     H15654   3.348  -1.288   9.389 -0.4945  0.7080  1.4972
  857MOL0     H15655   3.463  -1.534   9.380  0.2195 -0.2434  0.0710
  857MOL0     H15656   3.452  -1.760   9.492 -2.6735 -0.7431  2.8906
  857MOL0     H15657   3.296  -2.096   9.818 -1.5549  1.0147 -1.5656
  857MOL0     H15658   3.320  -2.337   9.860  1.5491 -2.4768 -1.3586
  857MOL0     H15659   3.544  -2.561   9.771 -0.1717  1.7046 -1.4728
  857MOL0     H15660   3.395  -2.598   9.857  1.1468 -0.9620  1.1382
  857MOL0     H15661   3.522  -2.762   9.633  0.8404  0.7131  0.7006
  857MOL0     H15662   3.503  -2.803   9.793  2.8261  0.6571 -0.2815
  857MOL0     H15663   3.271  -2.853   9.793  1.3318 -3.0984  0.1108
  857MOL0     H15664   3.251  -2.765   9.642 -0.3260 -2.1333 -1.6414
  857MOL0     H15665   3.415  -3.025   9.642 -1.1189 -1.1667 -2.4596
  857MOL0     H15666   3.394  -2.910   9.519 -1.3901  1.1161 -1.8885
  857MOL0     H15667   3.247  -3.116   9.528  1.9941 -0.9317  1.5794
  857MOL0     H15668   3.155  -2.962   9.508 -0.0526 -0.1932  0.4650
  857MOL0     H15669   3.198  -3.129   9.768 -3.6374 -2.0503  1.0980
  857MOL0     H15670   3.107  -2.981   9.777  2.6990  0.3936  0.8240
  857MOL0     H15671   2.948  -3.165   9.757  0.0248  1.0904  0.6106
  857MOL0     H15672   3.034  -3.216   9.603  0.6483 -1.6312  1.6668
  857MOL0     H15673   2.903  -2.935   9.653  0.0636 -0.9783 -0.2607
  857MOL0     H15674   2.934  -2.987   9.500 -2.4833  3.6110  0.1275
  857MOL0     H15675   3.395  -2.401   9.444 -3.1068  0.4711 -1.3522
  857MOL0     H15676   3.387  -2.159   9.409  2.6038 -1.2375  0.4544
  857MOL0     H15677   3.045  -1.792   9.389 -0.9195  0.3891 -1.6246
  857MOL0     H15678   3.049  -1.592   9.269 -3.8879 -1.9912  5.3294
  857MOL0     H15679   2.837   0.303   9.201 -1.7669  0.6478 -1.2996
  857MOL0     H15680   2.840   0.438   8.996  0.1005  0.5876 -0.4398
  857MOL0     H15681   2.889   0.382   8.523 -0.1434  0.3995  2.3715
  857MOL0     H15682   2.928   0.501   8.316  1.7015 -1.0249  2.0518
  857MOL0     H15683   2.724   0.907   8.182  0.1494  0.1286  0.5691
  857MOL0     H15684   2.627   0.767   8.215  1.3385 -2.1728  0.5685
  857MOL0     H15685   2.837   0.795   7.990 -0.2998  1.6487  0.7580
  857MOL0     H15686   2.661   0.765   7.958 -1.5051  1.3790  1.7798
  857MOL0     H15687   2.684   0.544   8.075  1.9019 -1.0134  3.8198
  857MOL0     H15688   2.862   0.564   8.059  0.3588 -0.4894 -0.9888
  857MOL0     H15689   2.837   0.586   7.805 -0.1771  0.8437  1.4360
  857MOL0     H15690   2.794   0.429   7.874  1.4003  0.6533 -0.8661
  857MOL0     H15691   2.425   0.596   7.733  1.5224  1.8517 -1.5062
  857MOL0     H15692   2.666   0.815   8.430  0.5064 -0.0221  1.2647
  857MOL0     H15693   2.498   0.640   8.678 -1.0189  2.0567 -2.0533
  857MOL0     H15694   2.609   0.756   8.758 -0.1530  0.6429  0.2794
  857MOL0     H15695   2.525   0.799   8.614  1.6636  1.2672 -2.3797
  858MOL0     O15696   0.839   4.983   6.722 -0.0362 -0.5850  0.2660
  858MOL0     C15697   0.842   5.088   6.791 -0.7514  0.1058 -0.0419
  858MOL0     O15698   0.888   5.102   6.919 -0.0233  0.4773  0.9871
  858MOL0     C15699   0.937   5.001   6.995  0.5772 -0.3790 -0.5099
  858MOL0     C15700   0.913   4.867   6.981 -0.1158  0.2746  0.2237
  858MOL0     C15701   0.957   4.775   7.077  1.3418 -0.8742 -0.0397
  858MOL0     C15702   1.034   4.818   7.189  0.0318 -0.2638 -0.0008
  858MOL0     O15703   1.098   4.727   7.270  0.7459 -0.7533  0.3123
  858MOL0     C15704   1.229   4.698   7.229  0.7086  0.4363 -0.5531
  858MOL0     C15705   1.223   4.554   7.183  0.3904 -0.4376  1.0074
  858MOL0     C15706   1.351   4.485   7.127  0.1151 -0.4619  0.0233
  858MOL0     C15707   1.430   4.396   7.229 -0.4759 -0.1890 -0.4053
  858MOL0     C15708   1.546   4.343   7.144 -0.6934 -0.4540  0.2714
  858MOL0     C15709   1.618   4.234   7.216  0.2824 -0.6548  0.2455
  858MOL0     C15710   1.699   4.147   7.117 -0.7271 -0.0846  0.1506
  858MOL0     C15711   1.613   4.046   7.050  0.2165  0.8070  0.3059
  858MOL0     N15712   1.694   3.973   6.953 -0.2068  0.1424  0.1793
  858MOL0     C15713   1.677   3.979   6.822  0.0151 -0.4677 -0.5227
  858MOL0     C15714   1.786   3.913   6.774 -0.0506 -0.5927 -0.9831
  858MOL0     C15715   1.818   3.874   6.634  0.2000  0.4348  0.5971
  858MOL0     C15716   1.943   3.941   6.590  0.2680 -0.1976  0.9021
  858MOL0     C15717   1.951   4.094   6.594 -0.0350  0.3196  0.9312
  858MOL0     C15718   2.089   4.157   6.573 -0.4127  0.2014  0.0655
  858MOL0     O15719   2.181   4.130   6.677 -0.0912 -0.2332  0.7459
  858MOL0     C15720   2.311   4.176   6.676  0.8937 -0.1500  0.1177
  858MOL0     C15721   2.384   4.225   6.565  0.4885  0.0150 -0.0453
  858MOL0     C15722   2.518   4.254   6.580 -0.3379 -0.0888 -1.2279
  858MOL0     C15723   2.600   4.215   6.693 -0.5622 -1.1840  0.5914
  858MOL0     C15724   2.740   4.255   6.716 -1.0517  0.5860 -0.0323
  858MOL0     O15725   2.799   4.231   6.841  0.0428 -0.8539  0.6465
  858MOL0     C15726   2.931   4.212   6.854 -0.1075 -0.4980  0.5269
  858MOL0     C15727   2.981   4.092   6.807  0.3259 -0.5711 -0.8040
  858MOL0     C15728   3.117   4.059   6.824 -0.8922  0.3359  1.2014
  858MOL0     C15729   3.208   4.149   6.871  0.3726  1.4773  0.5515
  858MOL0     O15730   3.335   4.093   6.865 -0.6441  0.4777 -0.4316
  858MOL0     C15731   3.436   4.180   6.879  0.6205 -0.0216  0.4210
  858MOL0     C15732   3.570   4.116   6.840  0.2064 -0.1251 -0.7326
  858MOL0     C15733   3.685   4.162   6.930  0.5224  0.4661  0.5099
  858MOL0     C15734   3.720   4.061   7.042  0.0792 -0.3349  0.6511
  858MOL0     C15735   3.840   4.121   7.118 -0.1479 -0.6228 -0.3629
  858MOL0     C15736   3.883   4.029   7.244 -0.7308 -0.1528 -0.1060
  858MOL0     C15737   4.012   4.098   7.301  1.3025 -0.7034  0.5383
  858MOL0     C15738   4.090   3.989   7.365 -0.1560 -0.2758 -0.1154
  858MOL0    Cl15739   4.254   4.053   7.435  0.3888  0.0920 -0.6253
  858MOL0     C15740   3.161   4.274   6.910 -0.0919 -0.6237 -1.3454
  858MOL0     C15741   3.022   4.305   6.900 -0.1078 -0.5404  0.7819
  858MOL0     O15742   2.799   4.316   6.622  0.0397  0.5980 -0.4809
  858MOL0     C15743   2.524   4.154   6.801 -0.6518 -0.2639  0.1025
  858MOL0     C15744   2.384   4.145   6.796  0.3866 -0.2962 -0.0109
  858MOL0     N15745   1.861   3.870   6.881  0.6937 -0.8751 -0.9242
  858MOL0     N15746   1.806   3.900   6.991  0.0695 -0.2757  0.7119
  858MOL0     C15747   1.057   4.958   7.204  0.9507 -0.0091  0.5208
  858MOL0     C15748   0.991   5.051   7.113  0.7124  0.2538  0.3756
  858MOL0     C15749   0.766   5.206   6.737  1.0507  0.1014 -0.8537
  858MOL0     C15750   0.739   5.208   6.599 -0.3704 -1.1397  1.0191
  858MOL0     C15751   0.676   5.320   6.535 -0.1698  0.9150 -0.7897
  858MOL0     C15752   0.615   5.420   6.620 -0.6026  0.2559  0.3342
  858MOL0     O15753   0.569   5.526   6.551  0.7886 -0.2086  0.0656
  858MOL0     C15754   0.473   5.611   6.619  0.0960 -0.2276  0.0026
  858MOL0     C15755   0.419   5.698   6.510 -0.2686 -0.2214 -0.4960
  858MOL0     C15756   0.306   5.797   6.556 -0.4744 -0.0904  0.4392
  858MOL0     C15757   0.240   5.879   6.442  0.1797 -0.5286 -0.6490
  858MOL0     C15758   0.119   5.818   6.380 -1.3573  0.6826  1.6077
  858MOL0     C15759   0.016   5.779   6.329 -0.4265  0.2446 -0.3530
  858MOL0     C15760   0.635   5.409   6.756  0.2555 -0.2543  0.2919
  858MOL0     C15761   0.709   5.307   6.815  1.0266 -0.1797 -0.5842
  858MOL0     C15762   0.722   5.314   6.972  0.1506 -0.1473  0.4580
  858MOL0     H15763   0.866   4.835   6.888 -0.3889  1.9873 -0.2647
  858MOL0     H15764   0.949   4.672   7.042 -1.2570 -0.1311 -1.9659
  858MOL0     H15765   1.254   4.771   7.151  1.1037 -0.2840 -1.1096
  858MOL0     H15766   1.297   4.695   7.315  1.7796 -1.1235 -1.4099
  858MOL0     H15767   1.160   4.540   7.094  1.1869  2.2058 -0.0693
  858MOL0     H15768   1.176   4.496   7.263 -1.9844 -1.3689 -0.9076
  858MOL0     H15769   1.420   4.558   7.085 -1.6141  1.7024  0.7569
  858MOL0     H15770   1.316   4.424   7.043  2.5141 -0.6286 -0.9380
  858MOL0     H15771   1.479   4.456   7.306  0.7545 -2.7382  0.9130
  858MOL0     H15772   1.371   4.312   7.266  1.1980 -1.4661 -0.4957
  858MOL0     H15773   1.516   4.305   7.046 -0.2364  1.1995 -0.5395
  858MOL0     H15774   1.620   4.422   7.129  0.0923 -1.2596 -0.2184
  858MOL0     H15775   1.683   4.282   7.291  3.0174 -2.3900 -0.8646
  858MOL0     H15776   1.555   4.169   7.277 -1.5650  0.7475 -0.1026
  858MOL0     H15777   1.771   4.084   7.171 -1.1706 -1.0780 -0.3777
  858MOL0     H15778   1.755   4.207   7.045  1.9335 -1.7729  0.6373
  858MOL0     H15779   1.576   3.970   7.120 -1.4484 -0.3416 -1.6910
  858MOL0     H15780   1.524   4.095   7.010  0.7967 -0.8206 -3.3714
  858MOL0     H15781   1.595   4.033   6.775 -0.7303  1.1477  2.3877
  858MOL0     H15782   1.830   3.765   6.637 -0.6832  0.3448  0.9362
  858MOL0     H15783   1.737   3.898   6.565  0.9710 -0.2843 -0.6123
  858MOL0     H15784   2.026   3.907   6.653  0.4264  1.8085  1.8553
  858MOL0     H15785   1.974   3.917   6.488 -0.1768  2.2664  0.1290
  858MOL0     H15786   1.915   4.135   6.689 -0.8006  1.3275  0.2307
  858MOL0     H15787   1.896   4.137   6.510  0.2507 -0.0716  0.5401
  858MOL0     H15788   2.078   4.266   6.565  1.8729  0.3255 -3.3733
  858MOL0     H15789   2.123   4.111   6.480  1.0949 -0.6630  1.0166
  858MOL0     H15790   2.323   4.248   6.478  0.1222 -1.8718 -0.3468
  858MOL0     H15791   2.570   4.311   6.504  1.0510  2.5650  1.4858
  858MOL0     H15792   2.915   4.022   6.756  0.6226 -0.4679 -1.3311
  858MOL0     H15793   3.148   3.959   6.795 -0.5945  0.6425  0.4372
  858MOL0     H15794   3.421   4.276   6.829 -1.3168 -1.5687 -2.2065
  858MOL0     H15795   3.434   4.194   6.988  0.6800  1.0349  0.2973
  858MOL0     H15796   3.565   4.006   6.835  1.1460 -0.1405 -1.7346
  858MOL0     H15797   3.584   4.143   6.735 -1.4346  0.4155 -0.8288
  858MOL0     H15798   3.770   4.189   6.867  0.6340  0.4993  0.6744
  858MOL0     H15799   3.650   4.253   6.978 -0.5330  1.7881 -2.5407
  858MOL0     H15800   3.747   3.962   7.003  0.7274  0.6206 -1.4954
  858MOL0     H15801   3.632   4.044   7.105  1.2815 -1.7309  2.0422
  858MOL0     H15802   3.799   4.208   7.171 -3.2507 -1.5605 -1.0219
  858MOL0     H15803   3.921   4.133   7.046  0.8555 -0.5783  0.7317
  858MOL0     H15804   3.817   4.022   7.330  1.5067  1.6108  1.9271
  858MOL0     H15805   3.908   3.928   7.211  0.0399 -0.1010  0.2981
  858MOL0     H15806   3.982   4.172   7.376  3.0082  4.5702 -3.3833
  858MOL0     H15807   4.063   4.156   7.223 -0.2063  1.5700  1.1263
  858MOL0     H15808   4.033   3.925   7.433 -1.8961 -0.0833 -1.3195
  858MOL0     H15809   4.121   3.918   7.288 -1.5318  0.4898 -1.4308
  858MOL0     H15810   3.222   4.355   6.949 -1.0505 -0.9108  0.9659
  858MOL0     H15811   2.975   4.398   6.930  0.0953  0.0364 -0.6125
  858MOL0     H15812   2.558   4.123   6.899 -0.5311  2.2999  0.9485
  858MOL0     H15813   2.327   4.098   6.875 -1.8889  0.6343 -1.0230
  858MOL0     H15814   1.103   4.987   7.298  4.4303 -2.4562 -0.2191
  858MOL0     H15815   0.988   5.157   7.136  1.2509  0.0717  1.3287
  858MOL0     H15816   0.773   5.125   6.538  1.1846  0.5466 -0.5282
  858MOL0     H15817   0.689   5.326   6.427  2.1499  1.7952 -0.5272
  858MOL0     H15818   0.513   5.661   6.707 -1.1071 -1.3325  1.2376
  858MOL0     H15819   0.395   5.554   6.671  0.5165  1.1128  2.2227
  858MOL0     H15820   0.386   5.627   6.432 -0.2358  0.6720 -1.3390
  858MOL0     H15821   0.500   5.758   6.468  1.1071 -0.6656  1.3963
  858MOL0     H15822   0.360   5.864   6.623  0.3259  2.8757 -2.8405
  858MOL0     H15823   0.226   5.747   6.611 -2.2707 -0.2493 -2.1524
  858MOL0     H15824   0.211   5.978   6.479  0.2329 -1.8434  3.4885
  858MOL0     H15825   0.316   5.890   6.364  2.0913 -1.2281  1.0248
  858MOL0     H15826  -0.074   5.741   6.285 -0.9103 -2.7740  2.8105
  858MOL0     H15827   0.580   5.477   6.821  0.0335 -0.4190  0.2800
  858MOL0     H15828   0.653   5.393   7.002 -1.2748  0.2875 -3.3911
  858MOL0     H15829   0.686   5.215   7.003  1.6021 -1.0695 -0.6388
  858MOL0     H15830   0.823   5.332   7.010  1.3175  1.2778 -2.9922
  859MOL0     O15831   5.725   9.825  11.185 -0.7176  0.0123  0.0344
  859MOL0     C15832   5.610   9.854  11.214 -0.2316 -0.0378  0.2056
  859MOL0     O15833   5.519   9.761  11.270 -0.1113 -0.7866 -0.2441
  859MOL0     C15834   5.552   9.633  11.297  0.8805  0.0622 -0.7536
  859MOL0     C15835   5.648   9.557  11.230 -1.1635  0.3978 -0.2910
  859MOL0     C15836   5.674   9.421  11.263  0.9939  0.0593 -0.4485
  859MOL0     C15837   5.591   9.350  11.361  0.1555  0.7055  0.0828
  859MOL0     O15838   5.609   9.223  11.404 -0.1273 -0.6073  0.0264
  859MOL0     C15839   5.663   9.125  11.309 -0.2727 -0.2588 -0.1938
  859MOL0     C15840   5.593   8.994  11.327 -0.4044  1.0701 -0.4451
  859MOL0     C15841   5.658   8.862  11.281 -0.0576 -0.5627  0.3296
  859MOL0     C15842   5.575   8.754  11.345  0.0551  1.0542  0.4255
  859MOL0     C15843   5.616   8.624  11.282  0.3271  0.0286 -0.3462
  859MOL0     C15844   5.593   8.507  11.371  0.9108 -0.6965  0.6205
  859MOL0     C15845   5.658   8.391  11.311  0.8018 -0.3242  0.5846
  859MOL0     C15846   5.811   8.383  11.316  0.3474  0.1266 -0.9804
  859MOL0     N15847   5.842   8.263  11.234  0.5552 -0.2197 -0.1272
  859MOL0     C15848   5.807   8.145  11.281  0.4107  0.4951  0.2317
  859MOL0     C15849   5.848   8.058  11.179  0.9223 -0.6529 -0.7249
  859MOL0     C15850   5.817   7.917  11.179 -0.2305 -0.1076  0.0777
  859MOL0     C15851   5.863   7.843  11.306 -0.1524  0.0566 -0.0715
  859MOL0     C15852   5.785   7.715  11.336  0.9694  0.0775  0.4826
  859MOL0     C15853   5.840   7.596  11.263 -0.3773 -0.2489 -0.5716
  859MOL0     O15854   5.950   7.530  11.332  0.2736 -0.3915  0.3151
  859MOL0     C15855   5.927   7.438  11.433 -0.4593  0.4095  0.7379
  859MOL0     C15856   5.804   7.406  11.488  0.3865  0.0896 -0.4747
  859MOL0     C15857   5.790   7.299  11.575  0.3538  0.3426 -0.6613
  859MOL0     C15858   5.894   7.210  11.602 -0.8938  0.8145  0.6743
  859MOL0     C15859   5.868   7.088  11.678  0.2263  0.3787 -1.2204
  859MOL0     O15860   5.975   7.000  11.658  0.8433 -0.8517  0.5656
  859MOL0     C15861   5.959   6.869  11.682 -1.1744  0.3124  0.1796
  859MOL0     C15862   5.997   6.795  11.577  0.1040 -0.0853 -0.4659
  859MOL0     C15863   5.985   6.655  11.572 -0.2976  0.2224 -0.3910
  859MOL0     C15864   5.944   6.590  11.685 -1.1555  0.1309  0.3346
  859MOL0     O15865   5.930   6.452  11.675 -0.0895 -0.0092 -0.2584
  859MOL0     C15866   6.039   6.364  11.645 -0.1187 -0.2233  0.9106
  859MOL0     C15867   6.123   6.345  11.771 -0.8316  0.1648  0.0890
  859MOL0     C15868   6.192   6.207  11.763  0.3815 -0.8105  0.1959
  859MOL0     C15869   6.102   6.082  11.801  0.0303 -0.8840  0.1182
  859MOL0     C15870   6.191   5.962  11.796  0.6755  1.3791 -0.3251
  859MOL0     C15871   6.200   5.880  11.924 -0.4998 -1.2289 -0.1536
  859MOL0     C15872   6.326   5.794  11.916 -0.6222 -1.1335  0.2147
  859MOL0     C15873   6.334   5.708  12.040  0.1064  0.8936 -0.9893
  859MOL0    Cl15874   6.442   5.586  12.040 -0.5304  0.3235 -0.4692
  859MOL0     C15875   5.927   6.661  11.802  0.4462 -0.7586 -1.0036
  859MOL0     C15876   5.919   6.801  11.801 -0.1765 -0.3743  0.5866
  859MOL0     O15877   5.765   7.069  11.741  0.4770  0.4486 -0.9632
  859MOL0     C15878   6.015   7.252  11.550 -0.5645  0.5442 -0.4305
  859MOL0     C15879   6.037   7.361  11.475 -0.3120  0.1065  0.0991
  859MOL0     N15880   5.915   8.129  11.079 -0.0437  0.5917  0.1073
  859MOL0     N15881   5.906   8.249  11.112  0.1134  0.3952 -0.1072
  859MOL0     C15882   5.495   9.434  11.420  0.7122  0.0039  0.5795
  859MOL0     C15883   5.476   9.570  11.392 -0.0937 -0.3371  0.6911
  859MOL0     C15884   5.542   9.986  11.171  0.4341  0.4427 -0.4864
  859MOL0     C15885   5.427  10.025  11.248 -0.4496 -0.1917 -0.7240
  859MOL0     C15886   5.374  10.151  11.249  0.7700 -0.6764  0.2118
  859MOL0     C15887   5.428  10.243  11.157  0.5110 -0.1775  0.5663
  859MOL0     O15888   5.362  10.357  11.144 -0.5527  0.1437 -0.4212
  859MOL0     C15889   5.435  10.483  11.127  0.2842  0.1415 -0.3085
  859MOL0     C15890   5.541  10.523  11.235 -0.2773 -1.4051  0.4316
  859MOL0     C15891   5.621  10.649  11.176 -0.0210  0.7007 -0.0277
  859MOL0     C15892   5.694  10.722  11.286 -0.1072 -0.8697  0.2800
  859MOL0     C15893   5.806  10.638  11.323  0.1661 -0.1202  0.9025
  859MOL0     C15894   5.881  10.553  11.360  0.2026 -0.3438 -0.2577
  859MOL0     C15895   5.541  10.212  11.079 -0.9605  0.0799  0.4450
  859MOL0     C15896   5.595  10.079  11.083 -0.0517 -0.3855 -0.5653
  859MOL0     C15897   5.710  10.048  10.995 -0.8271 -0.1584  0.2771
  859MOL0     H15898   5.709   9.594  11.149  0.3910 -0.0079  0.6555
  859MOL0     H15899   5.757   9.368  11.219  1.2319 -0.8197  1.0213
  859MOL0     H15900   5.660   9.152  11.203  2.0590 -0.3384 -0.3258
  859MOL0     H15901   5.766   9.110  11.343 -0.1709 -2.3222 -1.2921
  859MOL0     H15902   5.496   9.000  11.277  0.1323  0.1532 -1.6332
  859MOL0     H15903   5.581   8.986  11.436 -2.5632  1.8457 -0.5746
  859MOL0     H15904   5.766   8.864  11.302 -0.1147 -1.4438  0.7438
  859MOL0     H15905   5.653   8.869  11.172 -0.1134  3.0207  0.4549
  859MOL0     H15906   5.594   8.749  11.453  0.9035  4.2631  0.5090
  859MOL0     H15907   5.468   8.766  11.323 -0.2452  1.6005  1.9865
  859MOL0     H15908   5.570   8.609  11.184 -1.1564 -3.0039  0.6778
  859MOL0     H15909   5.722   8.633  11.257  0.3466  0.3229 -0.1568
  859MOL0     H15910   5.651   8.529  11.461  4.6345  1.2399 -2.0144
  859MOL0     H15911   5.488   8.480  11.388  1.6125 -2.9874  1.7948
  859MOL0     H15912   5.622   8.379  11.208  1.3571  1.8845  0.0915
  859MOL0     H15913   5.611   8.309  11.366 -0.6140 -1.4733 -2.1399
  859MOL0     H15914   5.864   8.464  11.265  1.2695 -0.0469 -0.3229
  859MOL0     H15915   5.844   8.367  11.419  0.4903 -2.3873 -1.3457
  859MOL0     H15916   5.754   8.126  11.373 -2.6998  0.9943 -1.3212
  859MOL0     H15917   5.710   7.914  11.154  0.0234 -0.9684 -1.0242
  859MOL0     H15918   5.855   7.866  11.090  3.4112 -1.0742  1.9854
  859MOL0     H15919   5.967   7.810  11.297 -0.3857 -0.4463 -1.1481
  859MOL0     H15920   5.844   7.901  11.397 -0.7191  0.4794 -0.4555
  859MOL0     H15921   5.684   7.719  11.294  1.2732 -0.1665 -0.2876
  859MOL0     H15922   5.778   7.681  11.440  1.6725  0.3245  0.6124
  859MOL0     H15923   5.886   7.624  11.167 -1.3383  2.1178 -0.4007
  859MOL0     H15924   5.762   7.522  11.246 -1.7009  0.8593  0.4593
  859MOL0     H15925   5.711   7.455  11.462  0.5623 -0.9909 -3.4262
  859MOL0     H15926   5.692   7.270  11.612  0.3219  1.1548 -0.0942
  859MOL0     H15927   6.052   6.849  11.500  1.4775  0.9253  1.1474
  859MOL0     H15928   6.008   6.607  11.478 -0.6246 -1.9937  0.5970
  859MOL0     H15929   6.014   6.260  11.619 -0.7249 -0.6689  3.1074
  859MOL0     H15930   6.105   6.395  11.563  2.0593  0.3209  2.7864
  859MOL0     H15931   6.205   6.416  11.786 -0.9596 -0.0373  2.1198
  859MOL0     H15932   6.069   6.352  11.867  1.4919  2.8179  1.3418
  859MOL0     H15933   6.231   6.202  11.661  0.3386 -2.0849  0.2218
  859MOL0     H15934   6.273   6.194  11.836 -0.2896 -1.9302  0.7699
  859MOL0     H15935   6.012   6.074  11.739 -0.4580 -2.5570  0.9824
  859MOL0     H15936   6.062   6.094  11.902  0.2088  1.2806 -0.0195
  859MOL0     H15937   6.295   5.982  11.771  1.3662 -1.7251 -0.4149
  859MOL0     H15938   6.150   5.907  11.710 -1.1293  1.5766  0.3604
  859MOL0     H15939   6.200   5.942  12.015 -2.0239 -2.2700  0.5931
  859MOL0     H15940   6.111   5.817  11.934 -2.1918  0.6443 -2.5340
  859MOL0     H15941   6.412   5.859  11.897 -0.3903 -1.7175 -0.8264
  859MOL0     H15942   6.318   5.724  11.833 -1.2717 -4.0160  2.5598
  859MOL0     H15943   6.365   5.777  12.119  2.6031  2.9670 -3.5673
  859MOL0     H15944   6.238   5.661  12.062  0.0698  0.3848 -2.1673
  859MOL0     H15945   5.904   6.603  11.891  1.1673  1.6580  0.8375
  859MOL0     H15946   5.892   6.847  11.896  1.6555  1.8889  0.0981
  859MOL0     H15947   6.103   7.193  11.573 -0.0117  1.5534  0.0918
  859MOL0     H15948   6.133   7.394  11.435  0.2664 -1.3763  0.2160
  859MOL0     H15949   5.433   9.397  11.501  0.3157 -0.3125  0.1393
  859MOL0     H15950   5.413   9.639  11.447 -0.4601  1.7356 -2.1167
  859MOL0     H15951   5.382   9.951  11.315  0.1239  0.6012  0.5747
  859MOL0     H15952   5.294  10.193  11.309  1.4577  0.8442  0.1171
  859MOL0     H15953   5.348  10.549  11.135  0.1655 -0.0295 -0.1788
  859MOL0     H15954   5.480  10.487  11.027 -3.6009  0.8798 -2.2289
  859MOL0     H15955   5.615  10.444  11.251  0.3899 -0.8600  0.0658
  859MOL0     H15956   5.489  10.561  11.324 -1.2161  0.3990 -0.8110
  859MOL0     H15957   5.547  10.711  11.125 -1.4201 -2.2445 -1.9257
  859MOL0     H15958   5.692  10.608  11.103  1.5468  0.3135  1.6679
  859MOL0     H15959   5.731  10.814  11.240  0.3949 -1.4561 -0.5176
  859MOL0     H15960   5.644  10.741  11.382  1.3169 -3.6021  1.7068
  859MOL0     H15961   5.938  10.474  11.404 -0.1307 -0.0753  0.7027
  859MOL0     H15962   5.592  10.279  11.011  1.0999  0.4493  2.2207
  859MOL0     H15963   5.806  10.055  11.046 -0.9751 -2.4501  0.9721
  859MOL0     H15964   5.696   9.943  10.968  0.3025 -0.3815  0.5109
  859MOL0     H15965   5.708  10.111  10.905 -0.4733 -0.5094  0.0220
  860MOL0     O15966   4.897   8.187   0.180  0.4918  0.7430  0.3571
  860MOL0     C15967   4.856   8.301   0.201  0.6314  0.3398 -0.1921
  860MOL0     O15968   4.864   8.368   0.324  0.3253 -0.1167 -0.5519
  860MOL0     C15969   4.946   8.311   0.422 -0.1676  0.2609 -0.3338
  860MOL0     C15970   4.898   8.271   0.553  0.3458  0.6485 -0.6130
  860MOL0     C15971   4.990   8.240   0.666 -0.3305  0.9549  0.2225
  860MOL0     C15972   5.131   8.256   0.654  0.1811  0.2748 -0.2145
  860MOL0     O15973   5.210   8.232   0.763  0.4850 -0.2023 -0.3434
  860MOL0     C15974   5.310   8.334   0.791 -0.0153 -0.3009 -0.6738
  860MOL0     C15975   5.389   8.259   0.901 -0.6182 -1.0604 -0.3591
  860MOL0     C15976   5.322   8.264   1.035 -0.4084 -0.8856  0.1153
  860MOL0     C15977   5.323   8.394   1.113  0.1776 -1.1796 -0.4650
  860MOL0     C15978   5.406   8.380   1.245  0.8663 -0.6078  0.3288
  860MOL0     C15979   5.552   8.361   1.207  0.5270 -0.6751 -0.5650
  860MOL0     C15980   5.652   8.361   1.325 -0.3070 -0.4140  0.2300
  860MOL0     C15981   5.792   8.321   1.281 -0.2358  0.1182 -0.0185
  860MOL0     N15982   5.888   8.343   1.394 -0.1315  0.3264  0.7462
  860MOL0     C15983   5.907   8.258   1.497  0.7728 -1.0214 -1.2310
  860MOL0     C15984   5.986   8.331   1.586 -0.1134 -0.0010 -0.2317
  860MOL0     C15985   6.028   8.302   1.726  0.7011  0.2076 -0.2214
  860MOL0     C15986   6.156   8.210   1.724 -0.1686 -0.3541 -0.6358
  860MOL0     C15987   6.213   8.188   1.867 -0.1337 -0.5301  0.4931
  860MOL0     C15988   6.354   8.150   1.869 -0.2803 -0.7664 -0.4271
  860MOL0     O15989   6.362   8.023   1.810 -0.3839 -0.0691  0.5408
  860MOL0     C15990   6.485   7.951   1.824 -0.4353 -0.2831 -0.0693
  860MOL0     C15991   6.601   8.008   1.858  0.1339 -0.0605  0.0195
  860MOL0     C15992   6.724   7.932   1.848 -0.5697 -0.4407  0.4095
  860MOL0     C15993   6.721   7.808   1.797 -0.1945  0.7082 -0.8716
  860MOL0     C15994   6.851   7.741   1.764  0.2529  0.8807 -0.3196
  860MOL0     O15995   6.968   7.788   1.823  0.2244 -0.3037 -0.1985
  860MOL0     C15996   7.078   7.739   1.770  0.4465 -0.9211  0.2927
  860MOL0     C15997   7.162   7.829   1.700 -0.3355  0.5625 -0.5773
  860MOL0     C15998   7.285   7.785   1.642  0.5927 -0.1328  0.6107
  860MOL0     C15999   7.324   7.651   1.654  0.6204 -1.1699 -0.4287
  860MOL0     O16000   7.445   7.613   1.600 -0.3661 -0.5856 -0.4655
  860MOL0     C16001   7.556   7.638   1.687  0.8793 -0.1893 -0.0783
  860MOL0     C16002   7.655   7.531   1.676  0.0211 -0.0549 -0.7488
  860MOL0     C16003   7.799   7.566   1.717  0.0359 -0.8166 -0.3547
  860MOL0     C16004   7.893   7.450   1.740  0.0297 -0.2743  0.2978
  860MOL0     C16005   7.901   7.374   1.603  0.9566  0.1245  0.0119
  860MOL0     C16006   8.026   7.291   1.585  0.2494  1.1015  1.0994
  860MOL0     C16007   8.040   7.159   1.670  0.2419 -0.4390 -0.7286
  860MOL0     C16008   8.116   7.047   1.603  0.2617 -0.9094  0.0218
  860MOL0    Cl16009   8.045   6.891   1.664 -0.1677 -0.0336 -0.2871
  860MOL0     C16010   7.227   7.564   1.716  0.4079 -0.2647  0.5215
  860MOL0     C16011   7.108   7.605   1.773  0.4921  0.1931 -0.0133
  860MOL0     O16012   6.843   7.649   1.679 -0.0661  0.2328 -0.5394
  860MOL0     C16013   6.602   7.757   1.755  0.0937 -0.5834  0.2254
  860MOL0     C16014   6.481   7.825   1.780 -0.1977 -0.0073  1.3880
  860MOL0     N16015   6.019   8.451   1.515  0.7395 -0.5704 -0.2809
  860MOL0     N16016   5.952   8.462   1.406 -0.7402  0.1458  0.5208
  860MOL0     C16017   5.174   8.291   0.525 -0.0438  0.1562 -0.3434
  860MOL0     C16018   5.086   8.321   0.410  0.0886  0.3156 -0.2503
  860MOL0     C16019   4.785   8.377   0.090 -0.8462  1.1242  0.3249
  860MOL0     C16020   4.710   8.488   0.121  0.7281 -0.1857  0.5216
  860MOL0     C16021   4.639   8.557   0.022 -0.1943  0.5858 -0.4313
  860MOL0     C16022   4.644   8.505  -0.115 -0.9772 -0.2410  0.2002
  860MOL0     O16023   4.562   8.568  -0.205 -0.3037 -0.2498  0.1561
  860MOL0     C16024   4.540   8.517  -0.341  0.2455  0.2402  0.3183
  860MOL0     C16025   4.403   8.574  -0.398 -0.5774  0.0739  0.1552
  860MOL0     C16026   4.397   8.722  -0.421 -0.0612 -0.8538  0.1004
  860MOL0     C16027   4.513   8.766  -0.515 -1.3342 -0.7735 -0.1415
  860MOL0     C16028   4.496   8.904  -0.537 -0.2279 -0.1341 -0.2198
  860MOL0     C16029   4.468   9.018  -0.556  0.0827 -0.0604  0.7060
  860MOL0     C16030   4.732   8.394  -0.143  0.7846  0.5100  0.8638
  860MOL0     C16031   4.809   8.332  -0.046  0.6260 -0.4531 -0.1406
  860MOL0     C16032   4.900   8.223  -0.088 -0.1543  0.1857 -0.0183
  860MOL0     H16033   4.793   8.284   0.578  0.7753  0.9802  1.1952
  860MOL0     H16034   4.937   8.223   0.760 -0.2334  1.1932  0.3215
  860MOL0     H16035   5.368   8.363   0.703 -2.1940  0.4568 -1.9384
  860MOL0     H16036   5.260   8.425   0.828  0.2103 -0.9201  1.2735
  860MOL0     H16037   5.493   8.295   0.904 -0.6022 -1.1532  0.2970
  860MOL0     H16038   5.414   8.160   0.861  0.8795 -1.2556  0.9470
  860MOL0     H16039   5.370   8.186   1.095  0.9959  0.5898  0.9935
  860MOL0     H16040   5.218   8.233   1.030  0.0922 -2.4154 -1.8179
  860MOL0     H16041   5.373   8.471   1.054  2.3601 -2.8987 -0.9704
  860MOL0     H16042   5.226   8.431   1.148 -0.5636 -3.0061 -0.4989
  860MOL0     H16043   5.416   8.473   1.301  2.4669 -1.6187  1.8124
  860MOL0     H16044   5.352   8.306   1.305  0.7421 -1.2429 -0.5433
  860MOL0     H16045   5.563   8.259   1.169  1.3581 -0.5019 -0.8243
  860MOL0     H16046   5.585   8.424   1.124  1.1889 -0.5513 -0.2182
  860MOL0     H16047   5.612   8.291   1.399 -2.9639  2.0958  1.3441
  860MOL0     H16048   5.644   8.462   1.366  0.5563  0.2580 -1.1734
  860MOL0     H16049   5.795   8.216   1.253  0.8527  0.4822 -1.3719
  860MOL0     H16050   5.822   8.379   1.193 -2.0432  2.7755  0.9834
  860MOL0     H16051   5.857   8.164   1.516  2.8283 -1.6123  2.0095
  860MOL0     H16052   6.041   8.392   1.786 -3.8581  0.6294  0.5126
  860MOL0     H16053   5.939   8.250   1.765 -1.5418  3.4201 -0.6907
  860MOL0     H16054   6.137   8.109   1.686  0.1754 -2.2770  3.6864
  860MOL0     H16055   6.233   8.260   1.664  2.4076 -2.1331  0.9717
  860MOL0     H16056   6.156   8.108   1.915 -3.1841  1.1203 -0.1239
  860MOL0     H16057   6.214   8.282   1.923  2.5488 -1.0911  1.5354
  860MOL0     H16058   6.395   8.150   1.971 -0.7204  2.5240 -0.1417
  860MOL0     H16059   6.409   8.222   1.808 -2.4842 -1.3865 -3.3709
  860MOL0     H16060   6.607   8.113   1.885 -2.8600  1.0371 -2.9432
  860MOL0     H16061   6.820   7.970   1.881 -0.7374  0.0617  0.3249
  860MOL0     H16062   7.125   7.931   1.698 -1.1600  0.4414  2.8166
  860MOL0     H16063   7.348   7.838   1.572  1.6216 -0.5151  1.2241
  860MOL0     H16064   7.603   7.734   1.661  0.8132  0.0361  0.6021
  860MOL0     H16065   7.534   7.650   1.793  1.8174 -0.2028  0.1262
  860MOL0     H16066   7.613   7.451   1.737  0.1684  0.4231 -0.0053
  860MOL0     H16067   7.653   7.490   1.575  2.6293  1.8363 -1.6975
  860MOL0     H16068   7.851   7.623   1.640  0.1293 -1.5347 -0.8368
  860MOL0     H16069   7.797   7.619   1.813  1.4389 -0.2672 -0.6106
  860MOL0     H16070   7.858   7.393   1.826 -0.3561  0.9770  0.9881
  860MOL0     H16071   7.994   7.483   1.764  0.6296  0.3166 -2.5929
  860MOL0     H16072   7.889   7.443   1.520 -0.8625 -1.9907 -1.6210
  860MOL0     H16073   7.811   7.313   1.591  0.5291  0.2881  1.9639
  860MOL0     H16074   8.017   7.264   1.479 -2.3544  0.6987  1.3640
  860MOL0     H16075   8.114   7.353   1.601  2.6370 -2.5190  3.4560
  860MOL0     H16076   7.937   7.125   1.687 -0.4256  2.1185  1.0615
  860MOL0     H16077   8.074   7.169   1.774  1.2474 -0.1809 -1.0809
  860MOL0     H16078   8.106   7.053   1.494  0.4705  1.6304  0.0876
  860MOL0     H16079   8.223   7.061   1.622  0.8055 -0.8695 -2.7344
  860MOL0     H16080   7.257   7.464   1.744  0.8799 -0.4206 -0.4805
  860MOL0     H16081   7.034   7.530   1.799  0.7089  0.0376  0.1635
  860MOL0     H16082   6.603   7.665   1.698 -1.6429  0.3202 -1.3888
  860MOL0     H16083   6.386   7.784   1.746 -0.1568  0.4155  0.7526
  860MOL0     H16084   5.281   8.299   0.507  0.0094  1.1405  0.3262
  860MOL0     H16085   5.126   8.354   0.315  1.2693  2.6896  0.9880
  860MOL0     H16086   4.704   8.521   0.225 -0.6478  0.6505  0.1947
  860MOL0     H16087   4.569   8.637   0.046 -1.5469 -1.5085  3.3195
  860MOL0     H16088   4.531   8.408  -0.341  2.2075  0.0522  0.7619
  860MOL0     H16089   4.619   8.537  -0.413  0.7167  0.1331  0.7931
  860MOL0     H16090   4.323   8.551  -0.328 -1.6682 -1.2245 -1.4488
  860MOL0     H16091   4.390   8.519  -0.492 -0.5950  1.4278 -0.6759
  860MOL0     H16092   4.422   8.767  -0.325  2.9399 -0.7182 -0.6509
  860MOL0     H16093   4.304   8.766  -0.461  0.4698 -0.7156 -1.0235
  860MOL0     H16094   4.612   8.740  -0.476 -0.9389  0.2674 -0.4207
  860MOL0     H16095   4.516   8.712  -0.611 -0.7066 -1.0580  0.0289
  860MOL0     H16096   4.443   9.114  -0.596  1.0875 -0.3903 -0.8288
  860MOL0     H16097   4.747   8.347  -0.240  0.9389 -2.7932  2.3579
  860MOL0     H16098   4.931   8.236  -0.192  1.9806 -2.0097  0.2600
  860MOL0     H16099   4.987   8.215  -0.023 -0.8394 -1.2044  0.7912
  860MOL0     H16100   4.851   8.125  -0.079  1.5828 -0.6509  0.9522
  861MOL0     O16101   6.026   4.692   5.804 -0.1014 -0.4743 -0.7325
  861MOL0     C16102   6.038   4.573   5.781 -0.3465 -0.1570 -0.5163
  861MOL0     O16103   6.145   4.508   5.745 -0.7560  0.0023 -0.0288
  861MOL0     C16104   6.250   4.577   5.699  0.4534  0.3768 -0.4284
  861MOL0     C16105   6.273   4.585   5.557  0.8637 -1.1138  0.1192
  861MOL0     C16106   6.382   4.656   5.511 -0.0982  0.8780  0.2065
  861MOL0     C16107   6.479   4.703   5.598  1.3355  0.0024  0.0376
  861MOL0     O16108   6.595   4.743   5.540 -0.4594 -0.8010  0.0702
  861MOL0     C16109   6.683   4.835   5.608 -0.5198  1.1230 -0.6256
  861MOL0     C16110   6.803   4.866   5.514  0.5385  0.2952  0.2779
  861MOL0     C16111   6.910   4.938   5.584 -0.2538 -0.4196 -0.5335
  861MOL0     C16112   7.019   5.006   5.491  0.1440  0.5235 -1.1136
  861MOL0     C16113   7.118   5.098   5.570  0.1285 -0.3692 -0.8834
  861MOL0     C16114   7.266   5.104   5.506  0.2922 -0.0089  0.2342
  861MOL0     C16115   7.360   5.177   5.606  0.2607 -0.2319 -0.2088
  861MOL0     C16116   7.501   5.132   5.596 -0.0311  0.1399 -0.4868
  861MOL0     N16117   7.543   5.089   5.464  0.3099  0.2424 -0.0676
  861MOL0     C16118   7.580   5.160   5.345 -0.4180 -0.8645 -0.5338
  861MOL0     C16119   7.626   5.066   5.254  0.0194 -0.3234  0.7162
  861MOL0     C16120   7.679   5.095   5.115 -0.3304 -0.2128 -0.0364
  861MOL0     C16121   7.822   5.037   5.093 -0.1435 -0.0990 -1.0493
  861MOL0     C16122   7.880   5.099   4.964  0.4962  0.6893 -0.0943
  861MOL0     C16123   7.997   5.010   4.897  0.1710  0.2394  0.3901
  861MOL0     O16124   8.017   4.881   4.961  0.6986  0.0735 -0.6152
  861MOL0     C16125   7.925   4.780   4.924 -0.4814  0.5027 -0.1359
  861MOL0     C16126   7.934   4.659   4.998  0.3589  0.0597  0.4304
  861MOL0     C16127   7.830   4.564   4.994 -0.1545 -0.7419 -0.0714
  861MOL0     C16128   7.717   4.599   4.919  0.6401  0.3614  0.1680
  861MOL0     C16129   7.611   4.492   4.908  1.4977  0.4730 -0.8360
  861MOL0     O16130   7.513   4.519   4.822 -0.8748 -0.6971 -1.0534
  861MOL0     C16131   7.407   4.435   4.820  0.0972 -0.1360  0.4584
  861MOL0     C16132   7.412   4.293   4.799  0.1987  0.1201  0.6694
  861MOL0     C16133   7.291   4.220   4.799  0.1165 -0.3054 -0.1837
  861MOL0     C16134   7.170   4.286   4.816 -0.0471 -0.5286 -0.2054
  861MOL0     O16135   7.046   4.234   4.812  1.0706  0.3197 -0.5870
  861MOL0     C16136   7.029   4.088   4.823 -0.1278  0.5874  0.4029
  861MOL0     C16137   6.883   4.054   4.809  0.3566  0.4575 -0.5208
  861MOL0     C16138   6.845   3.911   4.829  0.5172 -1.0257  0.0891
  861MOL0     C16139   6.691   3.885   4.815 -0.4890  0.1830 -0.2357
  861MOL0     C16140   6.650   3.738   4.851  0.6228  0.3703  0.1668
  861MOL0     C16141   6.502   3.725   4.877  0.0537 -0.4755  0.4929
  861MOL0     C16142   6.453   3.602   4.943 -1.2350  0.3013 -0.3352
  861MOL0     C16143   6.317   3.615   5.010 -0.1231  0.0825  0.7031
  861MOL0    Cl16144   6.191   3.704   4.923 -0.5017 -0.3615 -0.2208
  861MOL0     C16145   7.171   4.419   4.850 -0.0584 -0.3081  0.2234
  861MOL0     C16146   7.289   4.496   4.850  0.2170  0.2434  0.0960
  861MOL0     O16147   7.620   4.385   4.980  0.1879 -0.0966  0.2622
  861MOL0     C16148   7.707   4.718   4.841 -0.0528  0.2755  0.2327
  861MOL0     C16149   7.811   4.810   4.842 -0.9630  0.3469  0.1732
  861MOL0     N16150   7.602   4.946   5.315  0.0481  0.2310  0.2710
  861MOL0     N16151   7.541   4.958   5.429  0.0908  0.1848  0.2017
  861MOL0     C16152   6.451   4.708   5.743 -0.2453  0.5578  0.2642
  861MOL0     C16153   6.342   4.634   5.797  0.2579 -0.7210 -0.2298
  861MOL0     C16154   5.919   4.485   5.822 -0.2393  0.4674 -0.0773
  861MOL0     C16155   5.880   4.383   5.720 -0.0077  0.7459 -0.4161
  861MOL0     C16156   5.763   4.313   5.722 -0.1674  0.4117 -0.0051
  861MOL0     C16157   5.673   4.327   5.833 -0.4058 -0.6308  0.1805
  861MOL0     O16158   5.555   4.253   5.831  0.2682 -0.1036 -0.6070
  861MOL0     C16159   5.469   4.264   5.945  0.3477  0.7869  0.1162
  861MOL0     C16160   5.516   4.180   6.065  0.5787 -0.2397 -0.2178
  861MOL0     C16161   5.439   4.227   6.188  0.0560  0.0272 -0.8880
  861MOL0     C16162   5.515   4.343   6.262  0.0041  0.5393  0.0594
  861MOL0     C16163   5.571   4.303   6.397  1.0969  0.6174  0.1253
  861MOL0     C16164   5.625   4.266   6.501  0.1151  0.3517  0.2875
  861MOL0     C16165   5.710   4.432   5.930 -0.4072  1.2351  1.4360
  861MOL0     C16166   5.829   4.504   5.932 -0.2299  0.1565  0.3042
  861MOL0     C16167   5.855   4.601   6.041  0.4759 -0.4124  1.3352
  861MOL0     H16168   6.210   4.537   5.483  0.3846  2.2350 -1.8400
  861MOL0     H16169   6.397   4.659   5.404 -0.8891  0.3510  0.0682
  861MOL0     H16170   6.632   4.926   5.641  1.5958  1.0297  3.6219
  861MOL0     H16171   6.725   4.796   5.701 -1.6291  0.8949 -0.2076
  861MOL0     H16172   6.764   4.935   5.438 -0.0622 -0.5769 -0.2217
  861MOL0     H16173   6.846   4.777   5.468 -0.9052  0.4826 -1.5698
  861MOL0     H16174   6.946   4.859   5.651  0.3476  0.2083 -0.1166
  861MOL0     H16175   6.869   5.020   5.644  1.5498  0.1659 -0.0417
  861MOL0     H16176   7.082   4.926   5.451  1.7679  0.8130  0.7005
  861MOL0     H16177   6.969   5.052   5.406 -4.3956 -0.9549  0.4613
  861MOL0     H16178   7.073   5.197   5.561 -2.2998 -1.3043 -0.0925
  861MOL0     H16179   7.121   5.054   5.670 -5.3450 -0.8339 -0.5883
  861MOL0     H16180   7.291   4.998   5.493 -1.8740 -0.4106 -1.2652
  861MOL0     H16181   7.285   5.156   5.411 -3.1643  0.2949 -0.3939
  861MOL0     H16182   7.339   5.151   5.710  1.6838 -1.2784 -0.1487
  861MOL0     H16183   7.336   5.283   5.592 -1.0105 -0.5088 -0.1964
  861MOL0     H16184   7.570   5.206   5.637 -1.6234  3.0183 -2.6350
  861MOL0     H16185   7.519   5.050   5.666  2.8870 -1.0355 -2.4284
  861MOL0     H16186   7.571   5.264   5.318  0.8186 -0.2869  1.0936
  861MOL0     H16187   7.609   5.059   5.040 -0.0773 -1.4713  0.3101
  861MOL0     H16188   7.687   5.203   5.095 -2.8889 -0.1581 -1.1920
  861MOL0     H16189   7.883   5.062   5.180  0.0205  2.3829 -1.7806
  861MOL0     H16190   7.815   4.928   5.087  2.3837 -0.4625  1.1670
  861MOL0     H16191   7.918   5.198   4.989 -1.3960  0.6307  3.8982
  861MOL0     H16192   7.791   5.102   4.902 -0.1271  0.0152  0.7350
  861MOL0     H16193   8.098   5.052   4.888  2.0080 -4.1282 -4.2755
  861MOL0     H16194   7.967   4.986   4.795  1.1261 -2.0311  0.5816
  861MOL0     H16195   8.015   4.632   5.065  1.8953  0.0570 -1.3135
  861MOL0     H16196   7.831   4.471   5.051 -2.2922 -1.9260 -1.8067
  861MOL0     H16197   7.509   4.250   4.776 -0.9881 -1.3579 -2.0628
  861MOL0     H16198   7.294   4.113   4.783  2.3617 -0.1360 -1.1218
  861MOL0     H16199   7.080   4.030   4.746  0.2244 -1.9254  2.3843
  861MOL0     H16200   7.076   4.043   4.911  0.2494  0.6641  0.2427
  861MOL0     H16201   6.826   4.111   4.883  0.5725  1.0610 -0.8140
  861MOL0     H16202   6.847   4.076   4.708 -0.3790 -1.0058 -0.6031
  861MOL0     H16203   6.896   3.854   4.750 -0.3650  0.2819 -1.4887
  861MOL0     H16204   6.879   3.874   4.926  0.6883 -2.7924 -0.6097
  861MOL0     H16205   6.651   3.903   4.714 -0.4198  2.2391  0.0590
  861MOL0     H16206   6.638   3.947   4.888  1.0300  0.8258  0.3564
  861MOL0     H16207   6.698   3.709   4.945 -0.8384  0.4422  0.9738
  861MOL0     H16208   6.674   3.672   4.766  1.5434  2.2419 -1.0835
  861MOL0     H16209   6.483   3.810   4.944  0.3617 -1.5506  2.0077
  861MOL0     H16210   6.447   3.728   4.783 -1.1001 -3.1765  0.9948
  861MOL0     H16211   6.538   3.586   5.009 -1.5958  1.5885  0.4940
  861MOL0     H16212   6.447   3.520   4.871 -1.0806 -4.0000  4.0385
  861MOL0     H16213   6.281   3.512   5.017 -0.7549  0.3311  1.1855
  861MOL0     H16214   6.333   3.667   5.105 -1.7030 -0.6691  1.4144
  861MOL0     H16215   7.076   4.471   4.859 -0.7879 -1.9810  4.9041
  861MOL0     H16216   7.300   4.602   4.871 -0.7543  0.3100  0.3024
  861MOL0     H16217   7.614   4.735   4.788 -0.6039 -1.5104  0.5681
  861MOL0     H16218   7.798   4.897   4.779  1.1747  2.3917  2.3428
  861MOL0     H16219   6.528   4.739   5.813 -0.2337 -0.4661  0.7172
  861MOL0     H16220   6.324   4.621   5.903 -2.4661 -1.3124 -0.6873
  861MOL0     H16221   5.950   4.369   5.638  3.3123  0.7621  2.1723
  861MOL0     H16222   5.724   4.251   5.641 -1.8230 -0.5633  1.4519
  861MOL0     H16223   5.374   4.219   5.916  1.0573 -0.5979 -0.1597
  861MOL0     H16224   5.453   4.370   5.968  0.3189  0.4321  1.8847
  861MOL0     H16225   5.622   4.203   6.078  0.6422 -1.1015  0.9845
  861MOL0     H16226   5.506   4.075   6.037  3.1374 -0.8060  0.7258
  861MOL0     H16227   5.432   4.148   6.263 -0.9788  1.9833  1.1873
  861MOL0     H16228   5.337   4.259   6.164 -0.9193 -0.7296  1.8070
  861MOL0     H16229   5.596   4.395   6.210  0.4167  0.2953  0.4479
  861MOL0     H16230   5.432   4.406   6.295 -0.7665 -1.2038  1.6214
  861MOL0     H16231   5.676   4.218   6.581 -2.3576 -5.2155 -0.9952
  861MOL0     H16232   5.642   4.437   6.014 -2.1491 -1.1963  0.2979
  861MOL0     H16233   5.852   4.705   6.009 -0.6562 -0.7864  0.1350
  861MOL0     H16234   5.770   4.582   6.109  0.1707 -2.6215  0.4362
  861MOL0     H16235   5.949   4.573   6.090  0.3615 -1.4995  0.9703
  862MOL0     O16236   7.081   9.087   7.201  0.2396  0.9363 -0.4490
  862MOL0     C16237   7.056   9.168   7.292 -0.7783  0.3904 -0.4426
  862MOL0     O16238   6.931   9.220   7.317 -0.2857  0.0433 -0.3486
  862MOL0     C16239   6.820   9.149   7.286 -0.4050  0.0965  0.5264
  862MOL0     C16240   6.717   9.216   7.231 -0.6262  1.1741  0.2209
  862MOL0     C16241   6.600   9.142   7.197 -0.6906  0.8669 -0.0301
  862MOL0     C16242   6.583   9.003   7.228 -1.1771 -0.0188 -0.3770
  862MOL0     O16243   6.471   8.923   7.208  0.6983  0.1608  0.0950
  862MOL0     C16244   6.384   8.940   7.089 -0.0180  0.3966 -1.3243
  862MOL0     C16245   6.230   8.960   7.104  0.8547 -0.5380  0.2222
  862MOL0     C16246   6.152   8.920   6.969 -0.2693 -1.4019 -0.0728
  862MOL0     C16247   6.030   8.832   6.994 -0.1727 -0.3584  0.4047
  862MOL0     C16248   5.960   8.797   6.865  0.3269 -0.6991 -0.1896
  862MOL0     C16249   5.814   8.762   6.883 -0.2475 -0.0518 -0.5985
  862MOL0     C16250   5.767   8.708   6.737  0.1391 -0.7071 -0.2093
  862MOL0     C16251   5.615   8.687   6.750  0.5311 -0.6197  0.5914
  862MOL0     N16252   5.536   8.803   6.788 -0.2411 -0.3630  0.2444
  862MOL0     C16253   5.472   8.893   6.702 -0.1589  0.2594  0.5374
  862MOL0     C16254   5.384   8.956   6.785 -0.1634 -0.5657  0.3147
  862MOL0     C16255   5.303   9.076   6.743 -0.4944  0.9496  0.4064
  862MOL0     C16256   5.155   9.054   6.783 -0.0434  0.5233 -0.1839
  862MOL0     C16257   5.058   9.140   6.702  0.3446  0.1574 -0.5005
  862MOL0     C16258   4.920   9.166   6.768 -1.1303  0.1919  0.0938
  862MOL0     O16259   4.829   9.238   6.685 -0.4240 -0.0569 -0.3547
  862MOL0     C16260   4.840   9.372   6.685  1.1670  0.3832  0.0917
  862MOL0     C16261   4.755   9.433   6.590 -1.6618 -0.6152  0.4680
  862MOL0     C16262   4.783   9.576   6.564  0.0611  0.2875 -0.1550
  862MOL0     C16263   4.863   9.653   6.659 -0.0589  1.3266  1.0589
  862MOL0     C16264   4.870   9.797   6.644 -1.4364 -1.2221  0.6381
  862MOL0     O16265   4.969   9.861   6.714  0.1354 -0.0019 -0.4987
  862MOL0     C16266   4.960  10.001   6.714 -0.4303  0.1681  0.5566
  862MOL0     C16267   4.944  10.073   6.831 -0.8177  0.7075 -0.4536
  862MOL0     C16268   4.947  10.213   6.828  0.0195  1.2264 -0.3959
  862MOL0     C16269   4.951  10.283   6.710 -0.1143  0.0393  0.5395
  862MOL0     O16270   4.939  10.415   6.703  0.8678 -0.8231 -0.2156
  862MOL0     C16271   4.888  10.489   6.816  0.0861 -0.0395 -0.5932
  862MOL0     C16272   4.903  10.636   6.793  0.2430  0.2557 -0.0014
  862MOL0     C16273   5.049  10.680   6.821  0.1545 -0.5162  0.1886
  862MOL0     C16274   5.067  10.828   6.769 -0.1580 -0.9523 -0.9409
  862MOL0     C16275   5.173  10.913   6.843 -0.0250  0.1066 -0.4408
  862MOL0     C16276   5.238  11.030   6.768 -0.2824  0.3797  0.2247
  862MOL0     C16277   5.131  11.116   6.696  0.5501 -0.4444  0.0651
  862MOL0     C16278   5.032  11.181   6.795  0.2870  0.1359  0.1099
  862MOL0    Cl16279   4.961  11.309   6.705 -0.1902  0.4335 -0.0699
  862MOL0     C16280   4.957  10.207   6.590  0.1587  0.3266 -0.7546
  862MOL0     C16281   4.968  10.069   6.594  0.0247  0.4285  0.1423
  862MOL0     O16282   4.781   9.858   6.584 -0.5010 -0.4007 -0.2843
  862MOL0     C16283   4.943   9.586   6.744 -0.0237  0.4108 -0.6898
  862MOL0     C16284   4.927   9.449   6.752 -1.0433 -1.1361 -0.2653
  862MOL0     N16285   5.400   8.906   6.910 -0.2510  0.5616 -0.4367
  862MOL0     N16286   5.492   8.818   6.914  0.3173 -0.4374 -0.2838
  862MOL0     C16287   6.694   8.938   7.279  0.0529  0.3882 -0.1142
  862MOL0     C16288   6.813   9.010   7.301  0.1160  0.1504 -0.3160
  862MOL0     C16289   7.157   9.221   7.383  0.0659  0.0097 -0.2931
  862MOL0     C16290   7.284   9.259   7.328 -0.3073 -0.3158  0.1100
  862MOL0     C16291   7.381   9.318   7.415 -0.0971  0.6888  0.3207
  862MOL0     C16292   7.345   9.345   7.552  1.0513 -0.3707  0.2794
  862MOL0     O16293   7.438   9.384   7.642 -0.2246 -0.2861  0.6277
  862MOL0     C16294   7.576   9.372   7.616  0.3814 -0.1667 -0.3678
  862MOL0     C16295   7.620   9.231   7.649  0.8310  0.3974 -0.2702
  862MOL0     C16296   7.635   9.211   7.803  0.0259 -0.5942 -0.6444
  862MOL0     C16297   7.491   9.221   7.879 -1.1849 -0.4667  0.0783
  862MOL0     C16298   7.520   9.158   8.008  0.4430  0.4643  0.1273
  862MOL0     C16299   7.548   9.127   8.121 -0.1853  0.3458 -0.2552
  862MOL0     C16300   7.226   9.307   7.607 -0.5003 -0.6696 -0.1106
  862MOL0     C16301   7.136   9.240   7.524  0.9596 -1.2606  0.1572
  862MOL0     C16302   7.012   9.195   7.603  0.1871  0.2407 -0.5369
  862MOL0     H16303   6.739   9.322   7.219 -1.1655  1.1147 -1.6583
  862MOL0     H16304   6.517   9.202   7.158 -2.0455 -2.4652 -2.8864
  862MOL0     H16305   6.420   9.021   7.026 -2.8465  1.6619 -1.4680
  862MOL0     H16306   6.398   8.845   7.036  1.2521 -1.3729  1.9091
  862MOL0     H16307   6.208   9.064   7.127  2.1307  0.0660 -1.1586
  862MOL0     H16308   6.186   8.895   7.180 -1.1357 -1.0505 -1.2881
  862MOL0     H16309   6.218   8.859   6.907  2.9593  0.2736  1.4546
  862MOL0     H16310   6.130   9.012   6.914  1.6478  0.0314  1.4330
  862MOL0     H16311   6.064   8.738   7.040  0.9731  1.2014  2.9610
  862MOL0     H16312   5.956   8.887   7.052  1.3008  0.3607  1.6750
  862MOL0     H16313   5.967   8.868   6.782 -0.4352  1.2691  1.3730
  862MOL0     H16314   6.014   8.711   6.822  1.5490 -0.8390  1.5295
  862MOL0     H16315   5.804   8.692   6.966  0.4519 -0.3371 -0.7571
  862MOL0     H16316   5.751   8.850   6.901 -0.0845 -0.1594  0.5814
  862MOL0     H16317   5.831   8.622   6.717  2.9548  1.1252  0.3289
  862MOL0     H16318   5.780   8.781   6.656  1.2760 -0.0894  0.4936
  862MOL0     H16319   5.574   8.640   6.660  2.7041 -1.2713 -0.1277
  862MOL0     H16320   5.605   8.618   6.834  1.6040 -1.7564 -0.1695
  862MOL0     H16321   5.470   8.917   6.596 -1.8174 -1.1708  0.2051
  862MOL0     H16322   5.353   9.156   6.799  2.4144 -0.7982  0.4984
  862MOL0     H16323   5.309   9.092   6.635 -2.0834 -2.1940 -0.2605
  862MOL0     H16324   5.127   8.950   6.767  0.3116  0.2713  0.7831
  862MOL0     H16325   5.159   9.080   6.889 -1.2985 -0.6596  0.1821
  862MOL0     H16326   5.036   9.088   6.608  1.9336  0.0238 -0.8266
  862MOL0     H16327   5.105   9.234   6.670 -1.4083  0.7429 -1.4931
  862MOL0     H16328   4.942   9.209   6.866  1.4858 -1.9751  0.5657
  862MOL0     H16329   4.880   9.066   6.788 -2.3720  0.0337 -2.7056
  862MOL0     H16330   4.699   9.381   6.513  1.5630 -0.2477 -2.3496
  862MOL0     H16331   4.722   9.624   6.488 -1.8906 -0.3248  0.9697
  862MOL0     H16332   4.927  10.025   6.926 -0.1604 -1.8466 -1.5514
  862MOL0     H16333   4.942  10.271   6.920 -0.4273  2.1671 -1.0003
  862MOL0     H16334   4.781  10.473   6.828 -0.1861  2.3959  0.9041
  862MOL0     H16335   4.947  10.462   6.904 -0.3505  1.0076  0.0445
  862MOL0     H16336   4.872  10.656   6.690 -2.3311  3.9581  1.2817
  862MOL0     H16337   4.842  10.689   6.866  2.6764  3.4566 -0.0917
  862MOL0     H16338   5.079  10.665   6.925 -1.4511  1.2138  0.9749
  862MOL0     H16339   5.125  10.620   6.771  2.9140  2.7393  0.0761
  862MOL0     H16340   4.974  10.884   6.781 -0.0594 -1.4048  3.1531
  862MOL0     H16341   5.089  10.827   6.662 -1.7496  3.5948 -1.5108
  862MOL0     H16342   5.254  10.847   6.875  0.8250  1.3787  0.1117
  862MOL0     H16343   5.118  10.948   6.931  1.9239 -0.7191  1.1779
  862MOL0     H16344   5.302  11.088   6.835 -1.4259  0.6329  1.1385
  862MOL0     H16345   5.301  10.982   6.693  1.1830 -0.6562  2.0444
  862MOL0     H16346   5.064  11.060   6.631 -1.6353 -2.9060  4.0284
  862MOL0     H16347   5.191  11.190   6.641  0.2430  0.4953  0.9583
  862MOL0     H16348   4.949  11.119   6.830  1.3511 -0.8382  0.9621
  862MOL0     H16349   5.083  11.230   6.879  0.1607 -1.6015  1.2400
  862MOL0     H16350   4.938  10.244   6.489 -0.5606  1.2918 -0.2806
  862MOL0     H16351   4.968  10.013   6.501  1.4858  1.4909 -0.5319
  862MOL0     H16352   5.020   9.632   6.805 -1.5475  1.5491  0.4582
  862MOL0     H16353   4.991   9.413   6.833  1.2179  3.1138  0.1434
  862MOL0     H16354   6.682   8.830   7.281 -1.5005  0.0536 -6.4346
  862MOL0     H16355   6.901   8.952   7.328  0.7459  0.2554 -2.0617
  862MOL0     H16356   7.300   9.241   7.222 -0.2575  0.1236  0.0419
  862MOL0     H16357   7.482   9.339   7.380 -0.9778  1.0410 -2.1896
  862MOL0     H16358   7.628   9.440   7.685 -0.5438 -1.3633  1.5832
  862MOL0     H16359   7.605   9.405   7.516 -2.3066 -1.8741 -1.8368
  862MOL0     H16360   7.719   9.208   7.608  0.6679 -2.7247  0.7895
  862MOL0     H16361   7.549   9.161   7.603  2.4497 -0.6448 -1.3226
  862MOL0     H16362   7.699   9.291   7.842 -2.2815  1.5837 -1.0727
  862MOL0     H16363   7.678   9.112   7.822  0.8279 -0.0908  0.2609
  862MOL0     H16364   7.455   9.322   7.900 -1.0972 -0.1878 -1.0583
  862MOL0     H16365   7.423   9.164   7.815  2.2408 -1.5101 -2.9772
  862MOL0     H16366   7.579   9.104   8.221 -2.3305  2.9358  1.1512
  862MOL0     H16367   7.207   9.334   7.711  0.1757 -1.5272  0.2499
  862MOL0     H16368   6.950   9.283   7.618 -0.7054 -0.7685  2.3616
  862MOL0     H16369   6.966   9.109   7.552  2.3215 -2.8010  2.1904
  862MOL0     H16370   7.041   9.153   7.700 -0.4458 -1.1916 -0.9322
  863MOL0     O16371   5.614   1.203   1.589 -0.9001  0.6281 -0.2602
  863MOL0     C16372   5.521   1.257   1.530  0.1150 -0.7727  0.0937
  863MOL0     O16373   5.535   1.304   1.403  0.6695 -0.5230 -0.7581
  863MOL0     C16374   5.663   1.313   1.353  0.8839  0.3636 -0.6489
  863MOL0     C16375   5.679   1.245   1.229 -0.0860 -0.2586  0.2338
  863MOL0     C16376   5.812   1.244   1.179  0.1583 -0.3173  0.5914
  863MOL0     C16377   5.917   1.322   1.235  0.2050 -0.3991 -0.5452
  863MOL0     O16378   6.037   1.324   1.168  0.1997 -0.6306  0.0749
  863MOL0     C16379   6.147   1.404   1.211  0.7592 -1.1441  0.6145
  863MOL0     C16380   6.250   1.394   1.104 -0.0143  0.3860  0.0849
  863MOL0     C16381   6.219   1.497   0.987 -0.0336 -1.0518 -0.5779
  863MOL0     C16382   6.198   1.645   1.042 -0.4704  0.2665 -0.0754
  863MOL0     C16383   6.331   1.703   1.096  0.0534 -0.6869 -0.2283
  863MOL0     C16384   6.435   1.715   0.989  0.1665  0.2793  0.0692
  863MOL0     C16385   6.568   1.790   1.014  0.2008 -1.2349 -0.4027
  863MOL0     C16386   6.557   1.930   1.061 -0.3545 -0.2400 -0.2880
  863MOL0     N16387   6.690   2.010   1.073 -0.5688 -0.2445  1.0183
  863MOL0     C16388   6.792   2.023   0.985  0.7784  0.4710 -0.4609
  863MOL0     C16389   6.882   2.107   1.040 -0.6863  0.1686 -0.5765
  863MOL0     C16390   7.015   2.132   0.968 -0.7584  0.3057  1.5349
  863MOL0     C16391   7.124   2.201   1.049 -1.0927 -0.1628  0.6824
  863MOL0     C16392   7.243   2.237   0.958 -0.4268  0.0723  0.4932
  863MOL0     C16393   7.293   2.378   1.001 -0.2472  0.9318  0.1633
  863MOL0     O16394   7.395   2.415   0.906 -0.7483 -0.4758  0.0877
  863MOL0     C16395   7.520   2.357   0.903  0.7967  0.3015  0.3187
  863MOL0     C16396   7.613   2.374   0.798  0.1884 -0.5717 -0.5010
  863MOL0     C16397   7.735   2.320   0.803 -0.6074 -0.3140 -0.4505
  863MOL0     C16398   7.786   2.247   0.911  0.3769  0.3369  0.6268
  863MOL0     C16399   7.924   2.208   0.924 -0.2540 -0.3097 -0.4071
  863MOL0     O16400   8.021   2.272   0.851  0.4973 -0.0819  1.0361
  863MOL0     C16401   8.158   2.233   0.863  0.3664  1.3367 -0.0960
  863MOL0     C16402   8.249   2.335   0.893 -0.7441 -0.5462  0.3651
  863MOL0     C16403   8.388   2.316   0.901  0.2545  0.0886  0.1107
  863MOL0     C16404   8.433   2.191   0.850  0.3073 -1.1143 -0.3839
  863MOL0     O16405   8.567   2.180   0.827  0.1799  0.3019 -1.0286
  863MOL0     C16406   8.656   2.160   0.937 -0.5801 -0.6928 -0.5135
  863MOL0     C16407   8.779   2.089   0.894 -0.3148  0.5901 -0.9428
  863MOL0     C16408   8.854   2.055   1.026 -0.2878 -0.0539  0.1311
  863MOL0     C16409   8.994   2.005   1.005 -1.0950 -0.4557 -0.3972
  863MOL0     C16410   9.070   1.984   1.135 -0.7051  0.2636 -0.2032
  863MOL0     C16411   9.190   1.891   1.117 -0.2454  0.3643  0.8142
  863MOL0     C16412   9.211   1.815   1.249 -0.6985  0.0314  1.4460
  863MOL0     C16413   9.319   1.702   1.237  0.4897  0.0046  0.1552
  863MOL0    Cl16414   9.475   1.774   1.209  0.0066 -0.3925  0.0926
  863MOL0     C16415   8.346   2.089   0.812  0.3435 -0.0864  0.4547
  863MOL0     C16416   8.212   2.112   0.821  0.2349  0.1467 -0.6775
  863MOL0     O16417   7.952   2.126   1.011  0.0035  0.8208 -0.0072
  863MOL0     C16418   7.697   2.225   1.020 -0.1653 -0.3962 -0.2200
  863MOL0     C16419   7.572   2.279   1.011  0.7061  0.6787  0.7594
  863MOL0     N16420   6.844   2.141   1.163 -0.2196 -0.9120 -0.7296
  863MOL0     N16421   6.726   2.092   1.173  0.9341 -0.4889 -0.4162
  863MOL0     C16422   5.891   1.392   1.349  0.7190 -0.5205  0.1265
  863MOL0     C16423   5.763   1.384   1.416 -0.1621 -0.5278 -0.3273
  863MOL0     C16424   5.386   1.279   1.590 -0.1349  0.0511 -0.4912
  863MOL0     C16425   5.277   1.297   1.500  0.0635 -0.3979  0.0772
  863MOL0     C16426   5.151   1.336   1.552 -0.1814  0.8126  0.0819
  863MOL0     C16427   5.122   1.351   1.690  0.9618 -0.4074  0.3285
  863MOL0     O16428   5.013   1.419   1.736 -0.1230  0.1631  0.0584
  863MOL0     C16429   4.944   1.370   1.849 -0.1371  0.1304  0.0339
  863MOL0     C16430   4.843   1.259   1.805 -0.9646 -0.5347 -0.0524
  863MOL0     C16431   4.743   1.299   1.689 -0.1306 -0.7930 -0.1378
  863MOL0     C16432   4.785   1.266   1.542 -0.0335 -0.5340 -0.4083
  863MOL0     C16433   4.679   1.229   1.450  0.1555  0.5874 -0.2150
  863MOL0     C16434   4.581   1.208   1.381 -0.3407 -0.2886  1.0491
  863MOL0     C16435   5.225   1.312   1.775  0.7679 -0.4479 -0.3801
  863MOL0     C16436   5.357   1.280   1.733 -0.2546  0.4811  0.5231
  863MOL0     C16437   5.466   1.241   1.828  0.2294 -0.5308  0.1728
  863MOL0     H16438   5.605   1.194   1.168 -0.0932  1.2288 -1.0578
  863MOL0     H16439   5.847   1.201   1.086 -0.6123  0.7166 -0.2037
  863MOL0     H16440   6.114   1.505   1.237  1.7636 -0.1349 -1.7951
  863MOL0     H16441   6.179   1.370   1.311  0.2764 -5.3337 -0.4461
  863MOL0     H16442   6.268   1.296   1.061  1.7701  2.6752 -5.2125
  863MOL0     H16443   6.347   1.425   1.143  0.5213 -2.5625  1.3006
  863MOL0     H16444   6.129   1.464   0.935 -0.7558  1.5039 -1.0559
  863MOL0     H16445   6.304   1.501   0.917  0.0703 -4.0022 -0.7889
  863MOL0     H16446   6.169   1.707   0.956 -0.6549  1.6689  0.9750
  863MOL0     H16447   6.115   1.660   1.111 -0.0361  2.5346  0.0148
  863MOL0     H16448   6.321   1.805   1.134  1.7991 -1.2454  1.9785
  863MOL0     H16449   6.353   1.639   1.182  1.1577  0.8213  0.6619
  863MOL0     H16450   6.473   1.616   0.961 -2.1081 -0.6159 -0.0241
  863MOL0     H16451   6.389   1.757   0.900  0.4595  0.7624  0.1406
  863MOL0     H16452   6.620   1.798   0.918 -0.6102  0.2079 -0.7599
  863MOL0     H16453   6.623   1.730   1.087  0.2097  0.2861  0.9024
  863MOL0     H16454   6.481   1.987   1.007  0.5851 -0.8328 -2.3685
  863MOL0     H16455   6.526   1.931   1.165  0.6427  3.8390  0.1192
  863MOL0     H16456   6.801   1.962   0.895  0.5276  0.5316 -0.5266
  863MOL0     H16457   7.053   2.048   0.909  0.0720  1.3699  0.5032
  863MOL0     H16458   6.999   2.209   0.892 -0.5032  0.1244  1.2948
  863MOL0     H16459   7.086   2.290   1.100  0.5386  1.4101 -0.7216
  863MOL0     H16460   7.163   2.129   1.123  0.2817  0.6276  0.7585
  863MOL0     H16461   7.217   2.241   0.852  3.2870  0.7905 -0.5284
  863MOL0     H16462   7.321   2.159   0.959 -1.2173 -0.9278 -2.8950
  863MOL0     H16463   7.321   2.380   1.107 -0.8222  0.0383  0.3433
  863MOL0     H16464   7.211   2.449   0.995 -0.1978  1.1507  1.6513
  863MOL0     H16465   7.577   2.440   0.719  0.1791  0.9070  0.6926
  863MOL0     H16466   7.804   2.337   0.721 -0.2175  1.7294  0.2400
  863MOL0     H16467   8.213   2.437   0.906  0.1083  0.1164 -1.9722
  863MOL0     H16468   8.458   2.396   0.917  1.3009 -0.8827  0.5128
  863MOL0     H16469   8.683   2.260   0.971  3.2669 -1.1158 -1.8484
  863MOL0     H16470   8.603   2.102   1.013 -0.9591  0.0495 -0.2017
  863MOL0     H16471   8.762   1.989   0.853 -0.1373  0.1660  0.0006
  863MOL0     H16472   8.837   2.149   0.822  0.9823 -0.6700 -0.9902
  863MOL0     H16473   8.871   2.151   1.075  2.3670  0.6989 -2.0187
  863MOL0     H16474   8.803   1.973   1.079  2.5444 -4.1896 -2.8922
  863MOL0     H16475   9.041   2.081   0.941 -1.6283  2.0582  1.9889
  863MOL0     H16476   8.982   1.909   0.955  0.8914 -0.5561 -0.7666
  863MOL0     H16477   9.000   1.929   1.199  0.3045 -1.6719 -0.6796
  863MOL0     H16478   9.104   2.075   1.186 -2.4766  1.1268 -0.4647
  863MOL0     H16479   9.167   1.816   1.041  2.0307  1.7508 -1.3896
  863MOL0     H16480   9.269   1.953   1.074 -1.5803 -1.2304 -4.6996
  863MOL0     H16481   9.115   1.767   1.274  0.0868 -2.2849  0.3089
  863MOL0     H16482   9.242   1.889   1.323  3.0260  0.4581 -0.3085
  863MOL0     H16483   9.326   1.650   1.333 -0.9603 -0.9772 -0.2224
  863MOL0     H16484   9.299   1.630   1.157 -0.4392  1.4909 -1.0136
  863MOL0     H16485   8.386   1.993   0.780 -0.1378 -0.9189  2.2459
  863MOL0     H16486   8.145   2.031   0.795  1.0604 -0.3698 -1.2205
  863MOL0     H16487   7.719   2.158   1.102 -1.2883 -2.5477 -1.5540
  863MOL0     H16488   7.504   2.258   1.092 -0.5612  0.1417 -0.4101
  863MOL0     H16489   5.977   1.434   1.400  1.5616 -0.3194 -1.4024
  863MOL0     H16490   5.747   1.449   1.501  1.8719  1.3518 -1.2610
  863MOL0     H16491   5.298   1.282   1.394  0.5563 -2.7202  0.4344
  863MOL0     H16492   5.068   1.353   1.484 -0.2498 -0.7384 -0.2557
  863MOL0     H16493   4.884   1.450   1.892 -0.4108 -0.7111  1.2910
  863MOL0     H16494   5.012   1.332   1.926 -1.4022 -1.6764  0.3474
  863MOL0     H16495   4.779   1.234   1.890  0.7028 -0.5266  1.2300
  863MOL0     H16496   4.904   1.171   1.785 -0.2848 -0.0319 -0.2269
  863MOL0     H16497   4.729   1.408   1.697 -2.1504 -0.9624 -0.7351
  863MOL0     H16498   4.649   1.255   1.722 -0.8552 -0.1124 -1.1997
  863MOL0     H16499   4.844   1.343   1.492  0.6117  0.6305  1.9976
  863MOL0     H16500   4.848   1.177   1.555  0.4840 -0.5843 -2.8913
  863MOL0     H16501   4.497   1.183   1.320 -2.2366  4.5673  1.2711
  863MOL0     H16502   5.202   1.298   1.881  0.7443 -0.6279 -0.4079
  863MOL0     H16503   5.439   1.250   1.934  1.1266  1.2321  0.2975
  863MOL0     H16504   5.496   1.138   1.803 -0.8522 -0.7928 -0.0708
  863MOL0     H16505   5.546   1.315   1.822 -1.7633  1.6786 -0.1745
  864MOL0     O16506   2.187   8.736   9.182 -0.1871  0.4089  0.1560
  864MOL0     C16507   2.257   8.814   9.244 -0.2384  0.3142  0.5365
  864MOL0     O16508   2.273   8.943   9.204 -0.8228  0.1580 -0.6274
  864MOL0     C16509   2.172   9.008   9.137 -0.4109  0.8369 -0.4909
  864MOL0     C16510   2.213   9.129   9.100  0.5946 -0.7669  0.5001
  864MOL0     C16511   2.129   9.217   9.038  0.3883 -0.0306  0.0249
  864MOL0     C16512   1.994   9.181   9.005  0.0726 -0.2306  0.5825
  864MOL0     O16513   1.903   9.263   8.946  0.2325 -0.1376  0.0529
  864MOL0     C16514   1.967   9.360   8.869  0.4679 -1.0569  1.2012
  864MOL0     C16515   1.869   9.417   8.766  0.4064  0.5022 -1.6077
  864MOL0     C16516   1.747   9.485   8.818  1.4119 -0.2300 -0.4166
  864MOL0     C16517   1.687   9.566   8.704  0.6721  0.4767  0.3656
  864MOL0     C16518   1.529   9.579   8.711 -0.7238 -0.0903  0.0686
  864MOL0     C16519   1.494   9.697   8.808  0.3383 -0.1367  0.0528
  864MOL0     C16520   1.356   9.682   8.864 -0.8567 -0.4773 -0.7346
  864MOL0     C16521   1.308   9.800   8.943 -0.6814  0.1676 -0.0743
  864MOL0     N16522   1.187   9.770   9.005  0.3600  0.2780 -0.0415
  864MOL0     C16523   1.069   9.778   8.941  1.5288 -1.5859 -0.9889
  864MOL0     C16524   0.975   9.738   9.032  0.0518 -0.3204  0.1634
  864MOL0     C16525   0.824   9.739   9.011 -0.3032  0.6212  0.3357
  864MOL0     C16526   0.752   9.666   9.129  0.0068  0.0167 -0.2977
  864MOL0     C16527   0.603   9.668   9.090  0.5236  0.0875  0.9727
  864MOL0     C16528   0.559   9.522   9.053  0.7428  0.3995 -0.2510
  864MOL0     O16529   0.422   9.499   9.012  0.2495 -0.0872 -0.1516
  864MOL0     C16530   0.330   9.566   9.089  0.8314  0.8118  1.0369
  864MOL0     C16531   0.262   9.674   9.039 -0.1467 -0.8534 -0.4168
  864MOL0     C16532   0.157   9.735   9.103  0.1956  0.2097  0.4445
  864MOL0     C16533   0.106   9.683   9.227  0.2604 -0.6523  0.1177
  864MOL0     C16534  -0.012   9.725   9.300 -0.1963 -0.0657 -0.7753
  864MOL0     O16535  -0.064   9.842   9.264  0.0096 -0.3322 -0.0114
  864MOL0     C16536  -0.186   9.876   9.330  0.3406  0.3338 -0.1346
  864MOL0     C16537  -0.185   9.935   9.460 -0.0791 -0.0826  0.9403
  864MOL0     C16538  -0.308   9.968   9.518 -0.0358  0.1445  0.9467
  864MOL0     C16539  -0.433   9.977   9.451 -0.5222 -0.3391 -0.0750
  864MOL0     O16540  -0.542  10.022   9.522 -0.7420  0.2804  0.8870
  864MOL0     C16541  -0.679  10.037   9.470 -0.0448  0.3873 -0.7203
  864MOL0     C16542  -0.748   9.905   9.446  0.4887 -0.3483 -0.4573
  864MOL0     C16543  -0.844   9.905   9.321 -0.2706 -0.5319 -0.0567
  864MOL0     C16544  -0.971  10.002   9.317 -0.6855  0.2844 -0.5227
  864MOL0     C16545  -1.078   9.953   9.399  0.2258  1.3422  0.4312
  864MOL0     C16546  -1.207  10.039   9.388  0.1968 -0.3830 -0.1069
  864MOL0     C16547  -1.180  10.187   9.407 -0.8068  0.8663  0.1829
  864MOL0     C16548  -1.308  10.266   9.416 -0.6386 -0.3290  0.0426
  864MOL0    Cl16549  -1.380  10.295   9.247 -0.3127  0.3737 -0.1414
  864MOL0     C16550  -0.427   9.923   9.320 -0.3449  0.4450  0.5758
  864MOL0     C16551  -0.308   9.873   9.262  0.0155  0.2064  0.8723
  864MOL0     O16552  -0.056   9.648   9.389 -0.3959  0.2751  0.2229
  864MOL0     C16553   0.170   9.570   9.274 -1.4326  0.6179 -0.6423
  864MOL0     C16554   0.281   9.512   9.210 -0.6069 -0.9288 -0.7190
  864MOL0     N16555   1.034   9.717   9.150 -0.1536 -0.1992  0.7167
  864MOL0     N16556   1.162   9.726   9.130 -0.3140  0.4102 -0.0558
  864MOL0     C16557   1.949   9.052   9.046 -0.5750  0.0245  0.2156
  864MOL0     C16558   2.042   8.962   9.104 -0.3904  0.1301  0.3717
  864MOL0     C16559   2.339   8.763   9.363  0.0530 -0.0031 -0.6138
  864MOL0     C16560   2.438   8.845   9.423 -0.3713  0.0560  0.2877
  864MOL0     C16561   2.537   8.795   9.513 -0.9086  0.7278  0.5475
  864MOL0     C16562   2.520   8.666   9.566  0.0826  0.9300  0.1187
  864MOL0     O16563   2.602   8.621   9.666  0.0951 -0.1415  0.3103
  864MOL0     C16564   2.640   8.713   9.771  0.9871  0.5707 -0.5855
  864MOL0     C16565   2.733   8.650   9.874  0.7484 -0.3537 -0.2771
  864MOL0     C16566   2.673   8.525   9.942  0.4474  0.1489  0.0119
  864MOL0     C16567   2.741   8.486  10.074 -0.1734  0.8148  0.9221
  864MOL0     C16568   2.882   8.459  10.051  0.4568 -0.1255  0.2032
  864MOL0     C16569   2.999   8.447  10.044 -0.1020 -0.1663  0.2265
  864MOL0     C16570   2.407   8.600   9.524 -0.0291  0.1286  0.4559
  864MOL0     C16571   2.319   8.637   9.424 -0.3569  1.1313  0.4865
  864MOL0     C16572   2.205   8.537   9.383 -0.1574 -0.2569  1.0321
  864MOL0     H16573   2.317   9.160   9.098 -0.0350  1.7936  1.9765
  864MOL0     H16574   2.162   9.313   8.997 -1.3768 -0.0933 -1.7147
  864MOL0     H16575   1.988   9.444   8.937 -0.4697  1.4964 -1.4502
  864MOL0     H16576   2.053   9.322   8.814  0.6093 -0.5554  1.0665
  864MOL0     H16577   1.835   9.329   8.710 -1.0310 -1.1121  1.5193
  864MOL0     H16578   1.928   9.490   8.710  1.3692  0.6592 -0.4359
  864MOL0     H16579   1.773   9.554   8.899 -0.8613 -0.8479  0.9087
  864MOL0     H16580   1.687   9.406   8.863  0.4356  0.6569 -0.1282
  864MOL0     H16581   1.727   9.667   8.706 -1.3538  1.4423 -2.0169
  864MOL0     H16582   1.718   9.529   8.606  0.0456  3.3331 -1.0197
  864MOL0     H16583   1.496   9.603   8.610  1.1312  2.2581 -0.0547
  864MOL0     H16584   1.486   9.480   8.728 -0.5260 -0.1596  0.1769
  864MOL0     H16585   1.561   9.713   8.893 -0.0257  1.3407  0.0850
  864MOL0     H16586   1.508   9.784   8.744  1.3709 -2.2286 -2.7984
  864MOL0     H16587   1.369   9.604   8.939  0.7670  0.8445  0.4309
  864MOL0     H16588   1.291   9.661   8.778 -0.4469 -2.0885 -0.6753
  864MOL0     H16589   1.376   9.830   9.024 -0.6332  1.3036 -0.5178
  864MOL0     H16590   1.303   9.881   8.869 -2.2443  0.0734 -0.1016
  864MOL0     H16591   1.054   9.803   8.837 -1.0790 -1.2340 -0.5978
  864MOL0     H16592   0.783   9.838   8.987  0.3346  0.3705 -1.9707
  864MOL0     H16593   0.812   9.690   8.915  0.2524 -1.3249  1.2159
  864MOL0     H16594   0.785   9.561   9.132 -3.2232 -1.1512 -1.1781
  864MOL0     H16595   0.776   9.721   9.220 -0.8724  0.0581 -0.0764
  864MOL0     H16596   0.572   9.742   9.016 -2.3237 -0.7326  1.2187
  864MOL0     H16597   0.557   9.704   9.183  0.1749  3.0295 -0.2441
  864MOL0     H16598   0.567   9.448   9.133  1.4657 -1.4753 -1.9768
  864MOL0     H16599   0.624   9.498   8.969  1.4650 -0.4695  0.5360
  864MOL0     H16600   0.281   9.712   8.939 -0.9919 -1.9489 -1.0177
  864MOL0     H16601   0.112   9.816   9.048  0.9173  0.7661  0.6432
  864MOL0     H16602  -0.084   9.940   9.500  0.2271  0.9883  0.0738
  864MOL0     H16603  -0.297  10.018   9.614  0.1822 -3.0501  2.7204
  864MOL0     H16604  -0.741  10.087   9.545 -1.9398  0.1739 -2.0666
  864MOL0     H16605  -0.695  10.096   9.379  0.6247  3.0217  0.7933
  864MOL0     H16606  -0.670   9.830   9.430  0.5425 -0.5422  0.6539
  864MOL0     H16607  -0.815   9.884   9.529  3.6095 -0.3936  2.2588
  864MOL0     H16608  -0.771   9.932   9.245  0.5387 -3.6437 -0.5364
  864MOL0     H16609  -0.881   9.802   9.317 -1.5277 -0.1442  0.7096
  864MOL0     H16610  -1.006   9.981   9.215 -0.5619 -1.8612 -0.1588
  864MOL0     H16611  -0.933  10.103   9.338 -2.7736  1.0787 -0.3598
  864MOL0     H16612  -1.051   9.964   9.504 -0.7148  1.8099  0.6388
  864MOL0     H16613  -1.106   9.849   9.382 -1.1058  0.7815  4.8862
  864MOL0     H16614  -1.242  10.015   9.287 -0.1818  2.3797 -0.7144
  864MOL0     H16615  -1.282   9.999   9.457 -0.4596 -1.8675 -1.6213
  864MOL0     H16616  -1.123  10.230   9.324 -0.9586 -1.6041 -1.3361
  864MOL0     H16617  -1.133  10.199   9.504 -0.5910  1.2335  0.0332
  864MOL0     H16618  -1.383  10.206   9.467  0.3012 -1.8361 -0.3085
  864MOL0     H16619  -1.281  10.365   9.454  1.7009  0.3312 -2.9031
  864MOL0     H16620  -0.521   9.921   9.267 -0.0700  0.2766  0.0881
  864MOL0     H16621  -0.315   9.832   9.162 -3.6435  0.1088  1.0217
  864MOL0     H16622   0.139   9.534   9.372 -0.2325 -0.2994 -0.5756
  864MOL0     H16623   0.325   9.433   9.270  2.5251 -0.2066 -1.9195
  864MOL0     H16624   1.848   9.016   9.031 -1.0556  0.8118  1.3648
  864MOL0     H16625   2.007   8.860   9.117 -0.2294 -0.2182 -1.6396
  864MOL0     H16626   2.463   8.943   9.383  0.0365 -0.4365 -0.7178
  864MOL0     H16627   2.618   8.863   9.536 -0.2507  0.4580 -0.8744
  864MOL0     H16628   2.551   8.736   9.830 -1.0484  0.3041 -3.3335
  864MOL0     H16629   2.693   8.800   9.730  2.2763  0.2881  0.4043
  864MOL0     H16630   2.752   8.734   9.941 -1.5505 -0.0145  0.0397
  864MOL0     H16631   2.827   8.633   9.821  0.8241 -1.7553  0.2691
  864MOL0     H16632   2.669   8.433   9.884 -0.3021 -0.7731  1.4688
  864MOL0     H16633   2.573   8.563   9.966  1.2378  1.1789  1.9908
  864MOL0     H16634   2.730   8.568  10.146 -1.1417 -0.1306  1.8818
  864MOL0     H16635   2.700   8.397  10.123 -0.6091  1.4097  1.6467
  864MOL0     H16636   3.105   8.462  10.047  0.0114  0.4907 -3.1077
  864MOL0     H16637   2.384   8.503   9.565 -1.5402 -1.1997 -3.1519
  864MOL0     H16638   2.198   8.449   9.448  0.5481  0.7713  2.5840
  864MOL0     H16639   2.110   8.590   9.386 -0.5240 -0.9456  2.1530
  864MOL0     H16640   2.228   8.496   9.284 -2.6249 -1.1534  0.7628
  865MOL0     O16641  11.307   6.918   4.638 -0.9000 -0.2231 -0.3109
  865MOL0     C16642  11.347   7.007   4.558 -0.2271  0.5320 -0.4934
  865MOL0     O16643  11.458   7.090   4.575 -0.0467 -0.7142 -0.4584
  865MOL0     C16644  11.521   7.097   4.699 -0.1557 -0.5624  0.9001
  865MOL0     C16645  11.464   7.066   4.815 -0.9493  0.1029 -1.0446
  865MOL0     C16646  11.537   7.078   4.932  0.1858  0.0116 -0.0463
  865MOL0     C16647  11.671   7.102   4.938  0.8355 -1.5858 -0.2241
  865MOL0     O16648  11.735   7.083   5.066 -0.2617  0.4086 -0.1386
  865MOL0     C16649  11.884   7.103   5.069 -0.0182  0.6325  0.4439
  865MOL0     C16650  11.937   7.094   5.209 -0.4060 -0.5388 -0.2416
  865MOL0     C16651  11.849   7.180   5.301  0.0868  0.3690  0.8590
  865MOL0     C16652  11.923   7.202   5.426  0.1880  0.1731  0.1451
  865MOL0     C16653  11.839   7.246   5.546  0.5167  0.8181  0.3736
  865MOL0     C16654  11.932   7.286   5.664 -0.2553 -0.3274  0.7129
  865MOL0     C16655  11.977   7.427   5.638 -0.5747 -0.1968 -0.0922
  865MOL0     C16656  11.883   7.533   5.690 -1.1285 -0.3861  0.8510
  865MOL0     N16657  11.945   7.664   5.661 -0.0381  0.2998  0.2489
  865MOL0     C16658  11.971   7.698   5.530 -0.1701  0.0547  1.1312
  865MOL0     C16659  12.054   7.809   5.543  0.0148 -0.2549 -0.0433
  865MOL0     C16660  12.114   7.903   5.438 -0.0129  0.3716  0.3338
  865MOL0     C16661  12.112   8.050   5.470  0.2488  0.3523 -0.1471
  865MOL0     C16662  11.964   8.109   5.480 -0.6291  0.8271 -0.1159
  865MOL0     C16663  11.853   8.049   5.389  0.0578  0.2370  0.8363
  865MOL0     O16664  11.748   8.144   5.398 -0.4563 -0.2055  0.3486
  865MOL0     C16665  11.653   8.147   5.298  0.0348  0.2954 -1.2174
  865MOL0     C16666  11.535   8.216   5.333 -0.6582  0.5252  0.3915
  865MOL0     C16667  11.436   8.240   5.229  0.1796 -0.7554  0.6832
  865MOL0     C16668  11.452   8.176   5.104  0.4550 -0.3355 -0.9845
  865MOL0     C16669  11.333   8.187   5.009  0.4467  0.1167 -0.3479
  865MOL0     O16670  11.332   8.081   4.919  0.4186 -0.2462 -0.1244
  865MOL0     C16671  11.227   8.060   4.842  0.6047 -0.2032  1.3170
  865MOL0     C16672  11.090   8.063   4.874 -0.9026  0.1577 -0.7304
  865MOL0     C16673  10.993   8.015   4.793  0.2682  0.2318  0.5161
  865MOL0     C16674  11.031   7.973   4.665  1.0827 -0.1419 -0.2268
  865MOL0     O16675  10.920   7.931   4.589 -0.8397 -0.2309 -0.1052
  865MOL0     C16676  10.939   7.832   4.489 -0.0334 -0.4380  0.1174
  865MOL0     C16677  10.805   7.829   4.414  0.6004 -0.7474  0.6074
  865MOL0     C16678  10.686   7.771   4.488 -0.5969 -0.1219  1.0544
  865MOL0     C16679  10.573   7.749   4.384  0.0666 -1.3009 -0.8565
  865MOL0     C16680  10.448   7.699   4.462  0.5078  0.6093  0.3678
  865MOL0     C16681  10.333   7.664   4.364 -0.0043 -0.3596 -0.3425
  865MOL0     C16682  10.345   7.528   4.309 -0.1994  0.5809  0.1290
  865MOL0     C16683  10.259   7.514   4.187 -0.1288 -0.8587  0.5515
  865MOL0    Cl16684  10.330   7.585   4.043 -0.3708 -0.2980 -0.7376
  865MOL0     C16685  11.161   7.982   4.621 -0.7957 -0.6623 -0.3667
  865MOL0     C16686  11.262   8.029   4.707  0.7409 -0.6078 -0.2825
  865MOL0     O16687  11.241   8.267   5.032  0.8286 -0.1915  0.4811
  865MOL0     C16688  11.568   8.103   5.077  1.4824  0.2616  0.1750
  865MOL0     C16689  11.673   8.099   5.171  0.3946 -0.2244  0.3890
  865MOL0     N16690  12.054   7.838   5.673 -0.5219  0.5542  0.2803
  865MOL0     N16691  11.992   7.752   5.747 -1.0062  0.5636 -0.6781
  865MOL0     C16692  11.727   7.125   4.814 -0.4137 -0.1339 -0.6875
  865MOL0     C16693  11.655   7.128   4.700  0.1539 -0.2192 -0.3886
  865MOL0     C16694  11.281   7.006   4.425 -0.6205  0.4436  0.8086
  865MOL0     C16695  11.361   7.066   4.323  0.5133  0.9341  0.0426
  865MOL0     C16696  11.315   7.069   4.196  0.2123  0.7383  0.3252
  865MOL0     C16697  11.192   7.013   4.152  0.2325 -0.5777 -1.2193
  865MOL0     O16698  11.156   6.999   4.022 -0.2629  0.4353 -0.1367
  865MOL0     C16699  11.211   7.087   3.932 -0.0631  0.3530 -0.5233
  865MOL0     C16700  11.130   7.217   3.961 -0.4034  0.4154 -0.1319
  865MOL0     C16701  11.150   7.308   3.839 -0.5820 -0.0832 -0.0072
  865MOL0     C16702  11.020   7.377   3.806 -0.9320 -0.4806 -0.1981
  865MOL0     C16703  10.925   7.282   3.738 -0.1569 -0.6061  0.6812
  865MOL0     C16704  10.854   7.212   3.665  0.1192 -0.0435  0.3374
  865MOL0     C16705  11.127   6.936   4.252 -0.2684  0.1384 -0.7606
  865MOL0     C16706  11.166   6.940   4.386  0.3506 -0.9566 -0.3210
  865MOL0     C16707  11.076   6.882   4.491 -0.7642 -0.2807  0.4051
  865MOL0     H16708  11.362   7.037   4.838  0.1091 -0.2521  4.6695
  865MOL0     H16709  11.492   7.039   5.023 -1.9676  1.7488 -0.2969
  865MOL0     H16710  11.937   7.031   5.006 -0.2089  3.3723 -3.1029
  865MOL0     H16711  11.914   7.200   5.029  1.4632 -0.5061 -1.3629
  865MOL0     H16712  12.041   7.125   5.203 -0.1600 -1.0739  1.0237
  865MOL0     H16713  11.921   6.990   5.240  3.6359 -1.5066 -0.9153
  865MOL0     H16714  11.756   7.123   5.313 -1.0504  1.2294 -2.6648
  865MOL0     H16715  11.826   7.273   5.248  0.5949  0.8813  1.5212
  865MOL0     H16716  11.976   7.109   5.449  1.9126  1.0999  0.0250
  865MOL0     H16717  12.003   7.273   5.405 -0.1663  0.6972  0.5414
  865MOL0     H16718  11.762   7.317   5.514  1.8348  1.4238 -1.6076
  865MOL0     H16719  11.790   7.154   5.580  0.3000  1.4061  1.7456
  865MOL0     H16720  11.887   7.281   5.764  2.2146  0.3274  1.9433
  865MOL0     H16721  12.017   7.219   5.678  1.6290  1.8320  0.2708
  865MOL0     H16722  11.995   7.435   5.530  2.6902 -0.1473  0.3593
  865MOL0     H16723  12.073   7.447   5.686 -0.4804 -1.9603  0.5051
  865MOL0     H16724  11.780   7.532   5.651 -1.1255  3.5491  0.3619
  865MOL0     H16725  11.866   7.516   5.797  0.3988 -1.8060  0.9089
  865MOL0     H16726  11.944   7.642   5.442 -0.8699 -0.8747  1.9184
  865MOL0     H16727  12.215   7.864   5.424 -0.9327 -1.8572 -0.4894
  865MOL0     H16728  12.068   7.881   5.341  3.4100  1.4959 -1.7252
  865MOL0     H16729  12.176   8.066   5.557  0.6446 -1.4685 -0.0719
  865MOL0     H16730  12.157   8.107   5.388  0.7942  1.3500  0.8166
  865MOL0     H16731  11.969   8.218   5.479 -2.2849  0.9841  2.1297
  865MOL0     H16732  11.939   8.092   5.585 -1.7452  0.4016 -0.4329
  865MOL0     H16733  11.815   7.954   5.426  1.3743 -0.7329 -0.1867
  865MOL0     H16734  11.906   8.036   5.294 -0.5812 -2.3830  0.7614
  865MOL0     H16735  11.527   8.251   5.435 -1.5950 -0.8029  0.8146
  865MOL0     H16736  11.343   8.295   5.243 -0.9729 -1.9958 -1.5914
  865MOL0     H16737  11.040   8.097   4.964  0.2239 -0.5246  0.1752
  865MOL0     H16738  10.888   8.008   4.821  0.3788 -3.7675  0.6043
  865MOL0     H16739  11.016   7.850   4.413 -1.4342 -1.6563 -1.6782
  865MOL0     H16740  10.960   7.741   4.545 -2.5345  1.0502  3.8441
  865MOL0     H16741  10.789   7.924   4.362  2.8188 -1.1353 -0.9798
  865MOL0     H16742  10.828   7.757   4.335  1.7032 -1.3412  1.4392
  865MOL0     H16743  10.713   7.671   4.523 -0.3773 -0.5804 -0.3332
  865MOL0     H16744  10.656   7.841   4.566 -0.3958 -0.9370  1.8732
  865MOL0     H16745  10.604   7.671   4.313 -0.4519 -0.9674 -1.4595
  865MOL0     H16746  10.549   7.844   4.335 -0.5144 -0.1926  1.4268
  865MOL0     H16747  10.420   7.764   4.546 -2.5107 -1.7882  1.4293
  865MOL0     H16748  10.479   7.610   4.517 -2.3218  0.1847  1.4559
  865MOL0     H16749  10.232   7.673   4.405 -0.1483 -2.6883 -0.0430
  865MOL0     H16750  10.335   7.738   4.284  2.2780 -1.5362 -1.4888
  865MOL0     H16751  10.311   7.449   4.377  2.4312 -2.5833 -1.9347
  865MOL0     H16752  10.449   7.499   4.290 -0.8822 -0.0811 -3.2425
  865MOL0     H16753  10.224   7.415   4.154 -0.2538 -0.8635  0.6991
  865MOL0     H16754  10.168   7.570   4.208 -0.0740 -0.8919  0.8873
  865MOL0     H16755  11.186   7.915   4.539 -3.5527 -4.2608  1.4796
  865MOL0     H16756  11.366   8.043   4.681  0.9099  2.6081  1.5607
  865MOL0     H16757  11.576   8.064   4.976  2.8124  1.6915 -0.3014
  865MOL0     H16758  11.765   8.052   5.137 -0.4898 -2.6782  1.1988
  865MOL0     H16759  11.827   7.167   4.823 -1.2270  1.3908  4.6647
  865MOL0     H16760  11.703   7.139   4.603  2.5836  0.3038  0.8149
  865MOL0     H16761  11.459   7.111   4.338  1.7123 -0.7129 -2.1875
  865MOL0     H16762  11.383   7.126   4.133  0.1953  0.2243 -0.1623
  865MOL0     H16763  11.196   7.040   3.835 -2.0714  0.1337 -0.1517
  865MOL0     H16764  11.319   7.098   3.934 -0.0506  0.1946 -0.2185
  865MOL0     H16765  11.155   7.269   4.054  0.4290 -2.7663  1.5922
  865MOL0     H16766  11.026   7.183   3.973 -0.2424 -0.4234 -0.9884
  865MOL0     H16767  11.171   7.255   3.745 -1.5885 -0.5734  0.0279
  865MOL0     H16768  11.232   7.377   3.860 -1.3351  0.5438  0.9293
  865MOL0     H16769  10.976   7.406   3.902 -0.1425  1.5971 -0.4126
  865MOL0     H16770  11.042   7.473   3.758 -3.0831 -0.4785 -1.2959
  865MOL0     H16771  10.802   7.142   3.604 -1.9558  1.0726  0.7137
  865MOL0     H16772  11.031   6.889   4.232 -1.7013  1.6908  1.8988
  865MOL0     H16773  10.999   6.827   4.437 -0.0599 -0.5595 -0.3407
  865MOL0     H16774  11.110   6.799   4.555 -1.3994 -0.5423  0.4085
  865MOL0     H16775  11.034   6.963   4.550  0.2370 -0.6619  1.6998
  866MOL0     O16776   6.232  10.424   2.779  0.1509 -0.4235 -0.1910
  866MOL0     C16777   6.253  10.458   2.898 -0.8376  0.3784  0.0753
  866MOL0     O16778   6.377  10.506   2.939 -0.1644 -0.0728 -0.3157
  866MOL0     C16779   6.452  10.580   2.850 -0.6076  0.6557  0.2613
  866MOL0     C16780   6.588  10.538   2.848 -0.0838 -0.1627 -0.5272
  866MOL0     C16781   6.684  10.596   2.761  0.7490 -0.0316 -0.6573
  866MOL0     C16782   6.642  10.698   2.679  0.9453 -0.5302  0.4137
  866MOL0     O16783   6.726  10.752   2.587  0.2150 -0.0287  0.5230
  866MOL0     C16784   6.850  10.812   2.628  0.2012  0.5337 -0.3251
  866MOL0     C16785   6.937  10.903   2.541 -0.7004 -0.3278  0.4972
  866MOL0     C16786   7.078  10.925   2.578 -0.4932  0.4190 -0.1830
  866MOL0     C16787   7.174  10.804   2.538  0.8978 -0.0143  0.3435
  866MOL0     C16788   7.296  10.768   2.630 -0.4746 -0.6942 -0.5368
  866MOL0     C16789   7.389  10.672   2.549  1.3762  1.2681  0.0275
  866MOL0     C16790   7.521  10.645   2.608 -1.4839 -0.3441 -0.7115
  866MOL0     C16791   7.613  10.763   2.590 -0.0001  0.4154  0.0176
  866MOL0     N16792   7.740  10.742   2.664  0.0842 -0.4265 -0.2512
  866MOL0     C16793   7.760  10.753   2.799 -0.7860  0.0341 -0.4462
  866MOL0     C16794   7.898  10.751   2.816 -0.3678 -0.2081  0.4391
  866MOL0     C16795   7.965  10.740   2.950  0.3122 -0.3402  0.2315
  866MOL0     C16796   7.933  10.597   3.002 -0.8898  0.2309 -0.5438
  866MOL0     C16797   8.024  10.569   3.127 -0.1970  0.1082 -0.6089
  866MOL0     C16798   7.998  10.430   3.196 -1.0244 -0.7262  0.9518
  866MOL0     O16799   7.885  10.434   3.287 -1.1648  0.1397  0.1877
  866MOL0     C16800   7.862  10.324   3.371  0.4801 -0.2194  0.4490
  866MOL0     C16801   7.962  10.263   3.445 -0.1712 -0.3398 -1.0562
  866MOL0     C16802   7.930  10.141   3.508 -0.1456 -0.1366  0.1281
  866MOL0     C16803   7.799  10.099   3.526 -0.0781  0.1248  1.1667
  866MOL0     C16804   7.759   9.978   3.609  0.3761 -0.3311  0.1236
  866MOL0     O16805   7.854   9.922   3.687 -0.6945 -0.1080 -0.2167
  866MOL0     C16806   7.809   9.819   3.772 -0.3388 -0.4679  0.8864
  866MOL0     C16807   7.706   9.832   3.864 -0.2775  0.2711  0.8268
  866MOL0     C16808   7.680   9.723   3.947 -0.3416  1.2548  0.3909
  866MOL0     C16809   7.741   9.596   3.934 -0.1172  0.8496  0.0179
  866MOL0     O16810   7.720   9.480   4.005  0.0020  0.5045  0.5661
  866MOL0     C16811   7.584   9.474   4.044  0.4186  0.9923 -0.6013
  866MOL0     C16812   7.538   9.334   4.081  0.4449 -0.2149 -0.4497
  866MOL0     C16813   7.402   9.337   4.155  0.6942  0.6848  0.5253
  866MOL0     C16814   7.353   9.199   4.191 -0.4852  0.6920  0.4212
  866MOL0     C16815   7.226   9.200   4.281 -0.4848  0.1551  0.1780
  866MOL0     C16816   7.188   9.053   4.326 -0.1870 -0.6159 -0.1613
  866MOL0     C16817   7.092   9.062   4.441 -0.1473 -0.7577 -0.4931
  866MOL0     C16818   7.033   8.923   4.455 -0.3144 -0.2868 -0.5985
  866MOL0    Cl16819   6.896   8.958   4.563 -0.0932 -0.1385  0.2196
  866MOL0     C16820   7.840   9.581   3.835 -0.2619  0.0357 -0.3130
  866MOL0     C16821   7.876   9.692   3.754  0.5491 -0.2296  0.3227
  866MOL0     O16822   7.646   9.934   3.596  0.8872  0.5915 -0.8974
  866MOL0     C16823   7.699  10.171   3.476  1.1976 -0.8244  0.5442
  866MOL0     C16824   7.729  10.274   3.381 -0.3308  0.3692 -0.2532
  866MOL0     N16825   7.956  10.749   2.690 -0.7796  0.1725  1.0393
  866MOL0     N16826   7.863  10.736   2.601  0.0290 -0.8019  0.2327
  866MOL0     C16827   6.514  10.750   2.682  0.1999 -0.1081  0.4286
  866MOL0     C16828   6.416  10.680   2.758  0.9743 -0.1997 -0.0657
  866MOL0     C16829   6.145  10.436   2.997 -0.7046 -0.8180  0.4219
  866MOL0     C16830   6.026  10.373   2.962  0.6285  0.5404  0.0026
  866MOL0     C16831   5.919  10.336   3.055  0.3142  0.1803 -0.5613
  866MOL0     C16832   5.937  10.357   3.188 -0.0558  0.6844  0.2241
  866MOL0     O16833   5.838  10.323   3.274 -0.2576  0.5006 -0.3367
  866MOL0     C16834   5.852  10.339   3.415 -0.0711  0.4008 -0.1637
  866MOL0     C16835   5.732  10.283   3.495  0.0353 -0.4911 -0.3270
  866MOL0     C16836   5.710  10.126   3.480 -0.5794  0.5740  0.8399
  866MOL0     C16837   5.579  10.074   3.544  0.4685 -0.6090  0.0712
  866MOL0     C16838   5.587   9.933   3.543  0.2767  0.2424 -0.1295
  866MOL0     C16839   5.620   9.813   3.553  0.1452  0.8555 -0.1786
  866MOL0     C16840   6.052  10.423   3.223 -0.2779  0.1583 -0.7883
  866MOL0     C16841   6.157  10.468   3.136 -0.2629 -0.8310 -0.7799
  866MOL0     C16842   6.274  10.558   3.187 -1.1136 -0.1297  0.4435
  866MOL0     H16843   6.622  10.462   2.917 -0.4513 -1.3424 -1.5992
  866MOL0     H16844   6.786  10.560   2.746  0.8291  0.4411 -1.2370
  866MOL0     H16845   6.843  10.857   2.728 -0.7583  1.8626 -0.9604
  866MOL0     H16846   6.896  10.714   2.637 -1.8773 -0.4014  0.7923
  866MOL0     H16847   6.884  10.998   2.541 -0.4814 -0.1941 -0.4580
  866MOL0     H16848   6.929  10.867   2.438  0.9079 -1.0673  0.5998
  866MOL0     H16849   7.083  10.937   2.687  0.7370 -1.1459 -0.0322
  866MOL0     H16850   7.105  11.021   2.532 -2.1639  0.5458 -0.9768
  866MOL0     H16851   7.117  10.713   2.516 -1.7306  2.0182 -2.1071
  866MOL0     H16852   7.210  10.839   2.441 -1.2370 -2.2971 -1.4077
  866MOL0     H16853   7.347  10.861   2.659 -1.8856 -0.3877  1.1327
  866MOL0     H16854   7.263  10.719   2.722 -0.8493  0.3909 -0.0693
  866MOL0     H16855   7.341  10.575   2.534 -0.7065  2.2386  0.1610
  866MOL0     H16856   7.402  10.718   2.450  1.6701  1.4741  0.1593
  866MOL0     H16857   7.569  10.555   2.570  0.5832  1.1650 -1.8733
  866MOL0     H16858   7.514  10.639   2.717  3.2000  2.4374 -0.0026
  866MOL0     H16859   7.649  10.769   2.486  1.8130  0.8780  0.6435
  866MOL0     H16860   7.564  10.858   2.612 -0.0806  0.7803 -1.5860
  866MOL0     H16861   7.686  10.746   2.879 -1.2408  0.4941 -0.8196
  866MOL0     H16862   8.067  10.770   2.928  0.2236  0.1074  0.4257
  866MOL0     H16863   7.942  10.819   3.021  1.1372 -1.0382  1.2993
  866MOL0     H16864   7.826  10.594   3.024 -0.8197 -3.1495 -0.1201
  866MOL0     H16865   7.959  10.526   2.922  1.4762  1.9822 -1.4491
  866MOL0     H16866   8.025  10.650   3.200 -1.4232  1.0857 -1.6411
  866MOL0     H16867   8.125  10.572   3.084 -0.4767  0.4371 -1.2433
  866MOL0     H16868   8.093  10.410   3.246 -2.1008  1.3252  4.0605
  866MOL0     H16869   7.981  10.347   3.126  1.5193 -1.8555  1.5468
  866MOL0     H16870   8.063  10.301   3.449  0.3189 -1.6033  2.5034
  866MOL0     H16871   8.018  10.095   3.551 -0.2274 -1.6676 -1.2247
  866MOL0     H16872   7.648   9.919   3.889 -1.2605 -0.5731  1.5523
  866MOL0     H16873   7.609   9.746   4.026  0.3590  1.6854  0.9030
  866MOL0     H16874   7.576   9.545   4.126 -0.7364 -0.5620  0.6829
  866MOL0     H16875   7.508   9.493   3.968 -0.9275 -0.2359  0.4021
  866MOL0     H16876   7.523   9.282   3.986  2.5983 -0.5418 -0.6677
  866MOL0     H16877   7.608   9.276   4.142 -0.1925 -0.8933 -0.3501
  866MOL0     H16878   7.400   9.402   4.243  1.0230  3.2389 -1.2796
  866MOL0     H16879   7.330   9.385   4.089  1.4902 -0.6047 -1.3674
  866MOL0     H16880   7.433   9.144   4.241 -0.6696 -0.8806 -0.9078
  866MOL0     H16881   7.333   9.142   4.100 -1.7877  2.4365 -0.4455
  866MOL0     H16882   7.144   9.251   4.230 -0.7871 -1.5158 -1.1070
  866MOL0     H16883   7.255   9.252   4.373 -1.3720 -1.5672  1.4871
  866MOL0     H16884   7.131   9.000   4.249 -0.3964 -3.1296  1.5805
  866MOL0     H16885   7.280   9.006   4.361  1.2269  1.6450 -0.6495
  866MOL0     H16886   7.017   9.137   4.417  1.4839  0.4278 -2.2312
  866MOL0     H16887   7.142   9.088   4.535  1.4943  4.5742 -2.4722
  866MOL0     H16888   7.017   8.873   4.360 -0.8240 -0.0889 -0.6181
  866MOL0     H16889   7.105   8.859   4.507 -1.2208 -1.5351 -0.8427
  866MOL0     H16890   7.885   9.482   3.829  1.3448  0.7253 -0.2425
  866MOL0     H16891   7.951   9.680   3.677 -1.6168 -0.5480 -1.8590
  866MOL0     H16892   7.594  10.159   3.498  0.5637 -0.4949 -1.9366
  866MOL0     H16893   7.652  10.334   3.334  0.4244  1.1584 -0.5118
  866MOL0     H16894   6.493  10.830   2.612  0.2767 -1.1264 -0.7971
  866MOL0     H16895   6.311  10.702   2.747  0.8783 -0.9988 -0.7946
  866MOL0     H16896   6.007  10.347   2.858 -1.6500 -1.0473  0.7419
  866MOL0     H16897   5.827  10.293   3.017 -0.3034  3.2375 -2.9453
  866MOL0     H16898   5.864  10.447   3.431 -3.0939  1.0842 -1.6500
  866MOL0     H16899   5.941  10.290   3.455  1.7669  2.4919 -1.4254
  866MOL0     H16900   5.644  10.338   3.461  1.9472  1.6947 -2.0813
  866MOL0     H16901   5.754  10.299   3.601  0.8596 -0.4574 -0.4916
  866MOL0     H16902   5.786  10.061   3.524  0.3261 -1.7778 -3.5897
  866MOL0     H16903   5.708  10.099   3.374  0.0164  2.5954  0.2635
  866MOL0     H16904   5.586  10.102   3.649  2.4836  0.7204 -0.3571
  866MOL0     H16905   5.490  10.114   3.495 -1.1741 -0.3013  3.0610
  866MOL0     H16906   5.660   9.714   3.553 -0.0789  0.7449  1.6883
  866MOL0     H16907   6.062  10.454   3.326 -3.7235 -2.5729  0.5714
  866MOL0     H16908   6.369  10.503   3.188 -0.9373  0.1759  0.5960
  866MOL0     H16909   6.281  10.643   3.120  0.1861  0.3699  1.1662
  866MOL0     H16910   6.261  10.595   3.289  3.3744  0.6720  0.9075
  867MOL0     O16911  10.367   4.656   5.076 -0.6171 -0.9351  0.3539
  867MOL0     C16912  10.312   4.697   4.973  0.7335 -0.6702 -0.5807
  867MOL0     O16913  10.233   4.623   4.887 -0.1038  0.2554  0.5302
  867MOL0     C16914  10.184   4.498   4.923  0.9616 -0.0289  1.7659
  867MOL0     C16915  10.199   4.385   4.841  1.1148 -0.0454 -1.1036
  867MOL0     C16916  10.151   4.259   4.885  0.3758 -0.7294 -0.5690
  867MOL0     C16917  10.103   4.239   5.011  0.5532  0.5931  0.7664
  867MOL0     O16918  10.072   4.112   5.056  0.3669  0.3219  0.3056
  867MOL0     C16919  10.022   4.098   5.191  0.0730  0.6466  0.8728
  867MOL0     C16920   9.987   3.957   5.223  0.4671  0.7971 -0.1710
  867MOL0     C16921   9.893   3.903   5.110 -1.1921 -1.1573 -0.4585
  867MOL0     C16922   9.748   3.970   5.107 -0.8350 -0.5705  0.0541
  867MOL0     C16923   9.664   3.898   5.004 -0.6280  0.2522 -0.0637
  867MOL0     C16924   9.530   3.961   4.989 -0.0471  0.1667 -0.2383
  867MOL0     C16925   9.441   3.878   4.882 -0.5679  0.4507  0.1827
  867MOL0     C16926   9.292   3.856   4.909  0.5086  0.1581 -0.2633
  867MOL0     N16927   9.234   3.988   4.944 -0.0034  0.4643  0.0931
  867MOL0     C16928   9.193   4.033   5.074 -0.5453  0.1053  0.4847
  867MOL0     C16929   9.148   4.154   5.062  0.2708 -0.6238  0.6698
  867MOL0     C16930   9.117   4.246   5.172  0.0742  0.0294 -0.7832
  867MOL0     C16931   9.236   4.310   5.237 -1.3351  0.0301  0.2758
  867MOL0     C16932   9.191   4.385   5.364  0.1365 -0.1589 -0.0640
  867MOL0     C16933   9.293   4.448   5.445  0.1573  0.3122  1.0015
  867MOL0     O16934   9.355   4.533   5.343 -0.7585  0.0170  0.1111
  867MOL0     C16935   9.463   4.612   5.377 -0.4497 -0.3919  0.0054
  867MOL0     C16936   9.507   4.714   5.287  0.8519  0.5232  0.9910
  867MOL0     C16937   9.623   4.786   5.319 -0.7492 -0.8127 -0.0599
  867MOL0     C16938   9.692   4.765   5.439 -0.0819  0.1500  0.0185
  867MOL0     C16939   9.809   4.840   5.479  0.4718  0.1040  0.2646
  867MOL0     O16940   9.807   4.893   5.602 -0.3609 -0.7228 -0.0079
  867MOL0     C16941   9.869   5.015   5.627 -0.7236 -0.2960  0.5563
  867MOL0     C16942   9.874   5.123   5.531  0.3049  0.2456 -0.3745
  867MOL0     C16943   9.953   5.241   5.566  0.1109 -0.2286 -0.1626
  867MOL0     C16944  10.008   5.257   5.695  0.3678 -0.4710 -0.0165
  867MOL0     O16945  10.078   5.375   5.704 -0.3700  0.0746  0.0217
  867MOL0     C16946  10.086   5.421   5.842  0.0459 -0.2411 -0.3413
  867MOL0     C16947  10.222   5.380   5.911 -0.4582 -0.4628  0.2097
  867MOL0     C16948  10.243   5.430   6.062  0.1504  0.1072  0.3481
  867MOL0     C16949  10.244   5.582   6.053 -0.2753 -0.4308 -0.4595
  867MOL0     C16950  10.273   5.657   6.195 -1.2509  0.1706  0.3343
  867MOL0     C16951  10.285   5.803   6.161 -0.7307  0.1652 -0.1981
  867MOL0     C16952  10.242   5.895   6.284 -0.2147 -0.5405  0.0677
  867MOL0     C16953  10.335   5.884   6.403  0.3290 -0.0428 -0.0412
  867MOL0    Cl16954  10.472   5.970   6.357  0.3633 -0.2767 -0.4300
  867MOL0     C16955   9.981   5.158   5.785  0.3002  0.4598  0.1641
  867MOL0     C16956   9.914   5.034   5.756  0.4070 -0.7102  0.0247
  867MOL0     O16957   9.895   4.857   5.392 -0.0060  0.8390  0.0510
  867MOL0     C16958   9.639   4.671   5.535  0.1644  0.6723  0.7534
  867MOL0     C16959   9.532   4.591   5.499 -0.2539  0.1051 -0.3572
  867MOL0     N16960   9.161   4.184   4.930 -0.6511 -0.1457 -0.0447
  867MOL0     N16961   9.201   4.084   4.853 -0.2168  1.3908  0.8524
  867MOL0     C16962  10.086   4.357   5.090  0.3159  0.8415  1.4628
  867MOL0     C16963  10.119   4.479   5.052  0.2708  0.5994  0.3722
  867MOL0     C16964  10.349   4.831   4.921  0.2647  0.8426 -0.1780
  867MOL0     C16965  10.406   4.842   4.792 -0.1366 -0.4656 -0.4005
  867MOL0     C16966  10.451   4.966   4.746 -0.0036 -0.0088  0.7393
  867MOL0     C16967  10.437   5.079   4.831 -0.4002 -0.3574  0.6442
  867MOL0     O16968  10.469   5.211   4.796 -0.6586 -0.1768 -0.9118
  867MOL0     C16969  10.548   5.254   4.681  0.7868 -0.7463 -0.1431
  867MOL0     C16970  10.639   5.372   4.715 -0.1493  0.4257 -0.6064
  867MOL0     C16971  10.587   5.498   4.792 -0.2990 -0.4513  0.3014
  867MOL0     C16972  10.502   5.572   4.689  0.5788  0.9255 -0.1024
  867MOL0     C16973  10.464   5.703   4.760  0.6189 -0.5802 -0.4760
  867MOL0     C16974  10.437   5.804   4.826 -0.4282 -0.2748  0.1669
  867MOL0     C16975  10.373   5.064   4.954 -0.9433 -0.5877 -0.4368
  867MOL0     C16976  10.327   4.942   5.001  0.5346 -0.8015 -0.7058
  867MOL0     C16977  10.248   4.931   5.124  1.2283 -0.4615  0.0415
  867MOL0     H16978  10.235   4.399   4.740 -1.7098  0.6740 -2.1044
  867MOL0     H16979  10.148   4.183   4.807 -0.5941 -0.2783 -0.9914
  867MOL0     H16980  10.098   4.124   5.266  3.2605 -2.0663 -1.1574
  867MOL0     H16981   9.936   4.165   5.182  1.6564  2.5598 -1.3877
  867MOL0     H16982   9.938   3.950   5.320 -0.4123  0.6963 -0.6121
  867MOL0     H16983  10.077   3.897   5.233 -0.8962 -1.1559  0.9632
  867MOL0     H16984   9.879   3.795   5.120 -0.3809 -1.3399 -1.1884
  867MOL0     H16985   9.944   3.913   5.013 -2.0218 -1.0732 -0.9000
  867MOL0     H16986   9.703   3.970   5.207  1.3712 -0.5481  1.1077
  867MOL0     H16987   9.769   4.075   5.085 -0.5933 -0.4979  0.6206
  867MOL0     H16988   9.721   3.912   4.912  0.8188 -1.1145  0.5785
  867MOL0     H16989   9.664   3.790   5.017  2.0912  0.2653  0.7263
  867MOL0     H16990   9.486   3.955   5.089  0.6804  2.6324  0.2819
  867MOL0     H16991   9.543   4.065   4.958  4.0882  0.4864  1.8711
  867MOL0     H16992   9.480   3.776   4.886 -4.5780 -1.2844 -0.2469
  867MOL0     H16993   9.467   3.925   4.787 -1.5263 -0.4755 -0.5587
  867MOL0     H16994   9.257   3.819   4.812  1.7433 -0.3871 -0.5197
  867MOL0     H16995   9.269   3.790   4.993 -3.1334  0.4285 -0.8897
  867MOL0     H16996   9.228   3.982   5.162  3.0745  0.1386 -0.7933
  867MOL0     H16997   9.059   4.324   5.122 -1.2591 -0.1917  0.3541
  867MOL0     H16998   9.061   4.198   5.253 -0.9326  1.4627 -0.5851
  867MOL0     H16999   9.308   4.237   5.274 -1.0690  1.0290  1.8474
  867MOL0     H17000   9.282   4.376   5.163  0.1925 -3.2961 -1.9828
  867MOL0     H17001   9.152   4.311   5.434 -1.4697 -0.7800 -1.5410
  867MOL0     H17002   9.112   4.454   5.336 -0.5226 -0.7938  0.2001
  867MOL0     H17003   9.363   4.368   5.473 -1.5366 -2.3631 -1.7230
  867MOL0     H17004   9.264   4.498   5.538  2.5327  1.9191  0.9818
  867MOL0     H17005   9.445   4.729   5.200  1.9795 -0.0519  0.0720
  867MOL0     H17006   9.664   4.848   5.240  0.9963 -0.3911  1.1268
  867MOL0     H17007   9.831   5.111   5.432 -1.9354 -0.7586  0.6692
  867MOL0     H17008   9.976   5.323   5.499 -0.5417 -0.9206 -1.2481
  867MOL0     H17009  10.087   5.530   5.844  1.1920 -0.2349  1.6722
  867MOL0     H17010  10.005   5.392   5.911  2.0256  1.4489  2.9581
  867MOL0     H17011  10.225   5.270   5.909  0.6840 -0.4348 -0.5624
  867MOL0     H17012  10.311   5.417   5.859  1.4024 -2.8551  1.4641
  867MOL0     H17013  10.164   5.380   6.118  0.9387 -1.4653  0.1081
  867MOL0     H17014  10.340   5.395   6.098  0.6893 -1.3432 -2.2088
  867MOL0     H17015  10.151   5.623   6.013 -0.4655 -0.4623 -0.0519
  867MOL0     H17016  10.326   5.616   5.989 -0.5853  1.2684  0.0207
  867MOL0     H17017  10.362   5.615   6.241 -0.2783 -1.7222 -2.9640
  867MOL0     H17018  10.196   5.636   6.270  0.1034  1.5070  2.2007
  867MOL0     H17019  10.387   5.832   6.132  0.7727 -3.7981  0.5321
  867MOL0     H17020  10.224   5.832   6.074 -1.1996  0.1191  0.1131
  867MOL0     H17021  10.139   5.871   6.313 -0.8750 -0.6047 -2.1855
  867MOL0     H17022  10.243   6.000   6.254 -0.5564  0.9987  4.7075
  867MOL0     H17023  10.290   5.933   6.490  1.5324  3.1657 -1.0839
  867MOL0     H17024  10.364   5.783   6.433  1.5315  0.7567  1.5953
  867MOL0     H17025  10.017   5.156   5.887 -2.1981 -1.6948  1.1246
  867MOL0     H17026   9.896   4.963   5.836  0.6936 -0.0535  0.6907
  867MOL0     H17027   9.694   4.662   5.628  3.0429  2.4484 -0.5994
  867MOL0     H17028   9.489   4.510   5.556 -0.8114 -0.4353 -1.5114
  867MOL0     H17029  10.045   4.342   5.190 -0.2186 -0.1131  1.1126
  867MOL0     H17030  10.108   4.547   5.137  1.5179 -1.2339  2.0970
  867MOL0     H17031  10.431   4.745   4.749 -2.5804 -1.6782  0.7128
  867MOL0     H17032  10.494   4.967   4.647  2.0414 -0.8784  1.5576
  867MOL0     H17033  10.471   5.283   4.609  0.3912  0.1133  0.6012
  867MOL0     H17034  10.601   5.165   4.646  3.2928  0.2906  0.7831
  867MOL0     H17035  10.690   5.403   4.623 -1.3975  1.3146 -1.0285
  867MOL0     H17036  10.721   5.328   4.772 -1.4549 -0.5491  0.5839
  867MOL0     H17037  10.672   5.561   4.821  0.2695 -0.5340 -1.1023
  867MOL0     H17038  10.529   5.476   4.882 -3.9376  2.8934 -0.9766
  867MOL0     H17039  10.556   5.590   4.596  1.5065  0.6842  0.3792
  867MOL0     H17040  10.407   5.522   4.667  0.5887 -0.4426  2.6337
  867MOL0     H17041  10.417   5.898   4.872  2.2983  0.5141 -0.0770
  867MOL0     H17042  10.376   5.157   5.010 -1.8117 -0.6852 -0.2119
  867MOL0     H17043  10.220   5.032   5.156  1.2880 -0.8189  1.2973
  867MOL0     H17044  10.157   4.877   5.097  1.3416 -0.5895 -0.0854
  867MOL0     H17045  10.305   4.879   5.201  2.0674  0.8919  0.3744
  868MOL0     O17046  10.761   7.470   1.676 -0.2187 -0.6952 -0.0972
  868MOL0     C17047  10.825   7.527   1.583 -0.7387 -0.1040  0.0119
  868MOL0     O17048  10.952   7.555   1.587 -0.8983  0.2553  0.8741
  868MOL0     C17049  11.023   7.497   1.686  0.1134 -0.1997  0.2323
  868MOL0     C17050  11.041   7.361   1.708  0.6281 -0.6518 -0.4151
  868MOL0     C17051  11.118   7.307   1.807  0.4287 -0.2009 -0.1495
  868MOL0     C17052  11.197   7.398   1.882  0.6605 -0.2298 -0.7063
  868MOL0     O17053  11.269   7.364   1.996  0.1212  0.8579 -0.3782
  868MOL0     C17054  11.321   7.228   2.007 -0.2363  0.6716  0.0485
  868MOL0     C17055  11.234   7.118   2.075  0.7557  0.3648 -0.3399
  868MOL0     C17056  11.329   7.005   2.105  0.1714  0.3041  0.3343
  868MOL0     C17057  11.256   6.919   2.213 -0.8266  0.6080  0.7078
  868MOL0     C17058  11.328   6.786   2.220 -0.3049 -0.4475 -0.0246
  868MOL0     C17059  11.285   6.711   2.343 -0.4214  1.0302 -0.0327
  868MOL0     C17060  11.305   6.556   2.331 -0.9757 -0.7842 -0.2130
  868MOL0     C17061  11.441   6.514   2.282  0.1151 -0.4029  0.0141
  868MOL0     N17062  11.484   6.373   2.297 -0.1136  0.1296 -0.3922
  868MOL0     C17063  11.475   6.295   2.412  0.0597  0.0617  0.4217
  868MOL0     C17064  11.524   6.172   2.375  0.3352 -0.3460  0.1211
  868MOL0     C17065  11.531   6.039   2.448  0.2232  0.2454 -0.1313
  868MOL0     C17066  11.510   5.915   2.371  0.3197  0.5016  0.3270
  868MOL0     C17067  11.465   5.796   2.459  0.0112  0.6677  0.2136
  868MOL0     C17068  11.580   5.735   2.550 -0.4478 -0.7272 -0.5936
  868MOL0     O17069  11.678   5.673   2.480 -0.6222 -0.5037  0.7760
  868MOL0     C17070  11.632   5.564   2.406  0.5668 -0.1692  0.1226
  868MOL0     C17071  11.618   5.573   2.267  0.1238 -0.0717  1.0733
  868MOL0     C17072  11.553   5.475   2.198  0.7345  0.5664 -0.3123
  868MOL0     C17073  11.532   5.348   2.262 -0.0129  0.1852 -0.5140
  868MOL0     C17074  11.453   5.239   2.191  0.4999  0.2762 -0.0245
  868MOL0     O17075  11.391   5.152   2.275 -0.7520  0.4758  0.1441
  868MOL0     C17076  11.298   5.067   2.223  0.3155  0.9122  0.2357
  868MOL0     C17077  11.300   4.936   2.283  0.8190 -0.2027  0.0296
  868MOL0     C17078  11.207   4.844   2.253 -0.2178 -0.0853  0.8900
  868MOL0     C17079  11.115   4.878   2.149 -0.2330 -0.1014 -0.1400
  868MOL0     O17080  11.012   4.800   2.118  0.1948 -0.2658  0.2503
  868MOL0     C17081  11.039   4.665   2.079  0.0648  0.3743  0.1216
  868MOL0     C17082  10.906   4.592   2.038  0.4127 -0.3655 -0.1247
  868MOL0     C17083  10.933   4.447   2.013  0.2036  0.0415 -1.2957
  868MOL0     C17084  10.962   4.366   2.144 -0.6700  1.0943 -0.5186
  868MOL0     C17085  10.946   4.215   2.124 -1.1494  0.6877 -0.2096
  868MOL0     C17086  10.910   4.146   2.259  0.4606 -0.1732 -0.6646
  868MOL0     C17087  11.022   4.170   2.360  0.2816  0.1821 -0.3540
  868MOL0     C17088  11.019   4.050   2.455  0.3061 -0.0806  0.1488
  868MOL0    Cl17089  11.143   4.073   2.578 -0.2688 -0.3485  0.0001
  868MOL0     C17090  11.120   4.999   2.082 -0.0758 -0.3882  0.0524
  868MOL0     C17091  11.203   5.101   2.125  0.4881  0.7438 -0.3675
  868MOL0     O17092  11.454   5.241   2.067  0.9740 -0.0137  0.4152
  868MOL0     C17093  11.549   5.339   2.402  0.3252 -0.0937  0.2523
  868MOL0     C17094  11.584   5.452   2.472  0.0731 -0.2541  0.4187
  868MOL0     N17095  11.539   6.176   2.235 -0.5230  0.4819  0.3349
  868MOL0     N17096  11.508   6.293   2.193 -0.2130  0.6045 -0.1191
  868MOL0     C17097  11.190   7.535   1.839 -0.6194  0.0468 -0.2464
  868MOL0     C17098  11.100   7.583   1.747  0.8230 -0.5142 -0.2398
  868MOL0     C17099  10.754   7.580   1.462 -0.0505 -0.0332 -1.3197
  868MOL0     C17100  10.813   7.560   1.343 -0.8341 -0.0086  0.2763
  868MOL0     C17101  10.751   7.595   1.224 -0.5689  0.9476 -0.1599
  868MOL0     C17102  10.619   7.647   1.228 -0.5065  0.1758  0.2467
  868MOL0     O17103  10.559   7.653   1.106  0.1461  0.3191  0.9023
  868MOL0     C17104  10.444   7.740   1.096 -0.3734  0.3620  1.1759
  868MOL0     C17105  10.390   7.726   0.954  0.2035  0.4752  0.3858
  868MOL0     C17106  10.489   7.775   0.837  0.2887 -0.3753 -0.2384
  868MOL0     C17107  10.457   7.705   0.702 -1.9219  0.8386  0.3298
  868MOL0     C17108  10.348   7.767   0.628  1.1880  0.8305  0.7312
  868MOL0     C17109  10.270   7.841   0.574 -0.4204 -0.1540 -0.0632
  868MOL0     C17110  10.566   7.682   1.356 -1.3028  0.1713 -0.3855
  868MOL0     C17111  10.631   7.646   1.475 -0.1106  0.1379 -0.4643
  868MOL0     C17112  10.560   7.674   1.613 -0.2483  0.1623  0.3761
  868MOL0     H17113  10.992   7.292   1.640 -0.6454  0.1009 -0.3004
  868MOL0     H17114  11.105   7.200   1.818 -2.5465 -0.1321 -1.8162
  868MOL0     H17115  11.373   7.197   1.916  0.5843 -1.0346  1.0404
  868MOL0     H17116  11.407   7.238   2.073  0.3221  4.0725 -1.0364
  868MOL0     H17117  11.153   7.074   2.016 -0.8690  0.9057  1.4007
  868MOL0     H17118  11.177   7.153   2.161 -1.1410  0.2943 -1.5065
  868MOL0     H17119  11.426   7.041   2.139 -0.8167  1.4904  1.9944
  868MOL0     H17120  11.346   6.956   2.008  1.0250  0.1928  0.5364
  868MOL0     H17121  11.255   6.973   2.308 -3.1215  0.4091  0.8344
  868MOL0     H17122  11.152   6.901   2.188 -1.1869  0.2506  2.3289
  868MOL0     H17123  11.295   6.725   2.135 -1.8608 -2.5887  2.0011
  868MOL0     H17124  11.433   6.812   2.212  0.2765 -1.8372  2.1967
  868MOL0     H17125  11.354   6.736   2.424  1.1142  3.8227 -2.0328
  868MOL0     H17126  11.185   6.739   2.380  0.9101  2.5283  2.7797
  868MOL0     H17127  11.227   6.509   2.271 -1.3592 -0.5891  0.1227
  868MOL0     H17128  11.279   6.513   2.428 -1.7636  0.3162  0.0848
  868MOL0     H17129  11.454   6.555   2.182 -0.8715  0.0939  0.0813
  868MOL0     H17130  11.500   6.579   2.348 -2.1158  1.4379  0.3017
  868MOL0     H17131  11.448   6.328   2.512  0.1639  0.3954  0.3440
  868MOL0     H17132  11.623   6.033   2.508 -0.8550 -0.1274  1.5673
  868MOL0     H17133  11.456   6.048   2.527  2.0632  0.9955  1.6256
  868MOL0     H17134  11.435   5.921   2.292  1.2888 -2.8203 -1.0479
  868MOL0     H17135  11.606   5.891   2.324  1.6032 -0.4818  3.2195
  868MOL0     H17136  11.426   5.713   2.398  1.2139 -1.6233  2.3865
  868MOL0     H17137  11.383   5.831   2.522  0.4879 -1.4087  2.1177
  868MOL0     H17138  11.539   5.665   2.623  0.9280  0.5115  1.4629
  868MOL0     H17139  11.621   5.827   2.593 -2.6268  0.5597 -1.0889
  868MOL0     H17140  11.646   5.663   2.214  1.2002 -1.7617 -1.4447
  868MOL0     H17141  11.533   5.492   2.092 -0.1701  2.8594  0.1739
  868MOL0     H17142  11.369   4.908   2.362 -1.0217 -0.6499  1.5569
  868MOL0     H17143  11.207   4.750   2.307  1.1563  0.3056  1.6049
  868MOL0     H17144  11.110   4.668   1.996  0.0517  2.7847  0.1273
  868MOL0     H17145  11.086   4.614   2.163 -1.8258 -2.3599 -0.3615
  868MOL0     H17146  10.823   4.595   2.108  0.9657  1.8985  0.5467
  868MOL0     H17147  10.878   4.636   1.942  0.9776  1.5554  0.5250
  868MOL0     H17148  10.839   4.414   1.968 -1.2837  1.7985  0.3095
  868MOL0     H17149  11.019   4.418   1.952  1.3995 -0.8485  0.6886
  868MOL0     H17150  10.892   4.386   2.225  0.3659 -2.4994  1.5392
  868MOL0     H17151  11.065   4.384   2.175 -0.3521 -1.0175 -0.2108
  868MOL0     H17152  11.032   4.166   2.078 -2.2595 -0.0762 -1.5723
  868MOL0     H17153  10.870   4.178   2.054 -0.8388 -1.0546  0.3220
  868MOL0     H17154  10.811   4.180   2.291  0.3396  0.8696 -2.0782
  868MOL0     H17155  10.893   4.039   2.248 -1.3790 -0.4310  3.0141
  868MOL0     H17156  11.000   4.263   2.414 -2.7146  1.2244 -3.0043
  868MOL0     H17157  11.116   4.190   2.309  0.0886  2.7690  0.1591
  868MOL0     H17158  10.918   4.054   2.498 -0.3523  0.9583 -1.3871
  868MOL0     H17159  11.032   3.956   2.402  1.9642  0.1421  0.1128
  868MOL0     H17160  11.054   5.020   1.998 -0.7360  1.0086  0.8881
  868MOL0     H17161  11.184   5.203   2.091 -2.7123  1.5394  3.1481
  868MOL0     H17162  11.519   5.248   2.453 -1.2459  0.2723  0.0286
  868MOL0     H17163  11.587   5.446   2.580  0.9628  1.1761  0.5060
  868MOL0     H17164  11.253   7.600   1.900  0.1021 -0.9972  0.1676
  868MOL0     H17165  11.087   7.690   1.734  0.8740 -0.2288  1.7366
  868MOL0     H17166  10.911   7.516   1.353 -0.9027 -0.1741  0.2253
  868MOL0     H17167  10.800   7.578   1.129 -1.9778 -0.5609 -0.6644
  868MOL0     H17168  10.483   7.839   1.121  1.7914 -0.2145  0.2705
  868MOL0     H17169  10.360   7.702   1.156 -1.7099  0.7352 -0.3812
  868MOL0     H17170  10.303   7.791   0.940  1.3859  1.9900 -0.1089
  868MOL0     H17171  10.358   7.625   0.927  4.9134 -1.6523  1.7811
  868MOL0     H17172  10.593   7.749   0.858  0.6671  0.7168 -0.6970
  868MOL0     H17173  10.487   7.884   0.826  1.2330 -0.3628 -0.3454
  868MOL0     H17174  10.543   7.715   0.635 -3.1245 -2.8839 -2.1070
  868MOL0     H17175  10.442   7.599   0.725  1.7872 -1.0779 -4.3187
  868MOL0     H17176  10.191   7.904   0.539  0.5521  2.1440  1.5991
  868MOL0     H17177  10.469   7.730   1.360 -1.5202 -0.1196 -1.7071
  868MOL0     H17178  10.488   7.755   1.593 -1.6136 -1.2817 -0.8072
  868MOL0     H17179  10.497   7.591   1.644 -0.1096  0.1015  0.4955
  868MOL0     H17180  10.638   7.700   1.685  0.8774 -0.0548 -0.7342
  869MOL0     O17181   6.178   8.286   4.832  0.0152  0.0231 -0.6837
  869MOL0     C17182   6.111   8.309   4.935  0.5201  0.3019  1.2090
  869MOL0     O17183   5.997   8.388   4.931  0.2594  0.2778  0.1610
  869MOL0     C17184   5.952   8.451   4.816  0.2927  0.1169 -1.0110
  869MOL0     C17185   5.816   8.442   4.797 -0.5742 -0.9006 -1.1134
  869MOL0     C17186   5.758   8.498   4.680  0.8298  0.5959 -0.4188
  869MOL0     C17187   5.831   8.557   4.581  0.0731  1.4720  0.8931
  869MOL0     O17188   5.763   8.617   4.482  0.0621 -0.3450  0.3077
  869MOL0     C17189   5.836   8.697   4.380  0.9630  1.1565 -0.6011
  869MOL0     C17190   5.747   8.710   4.257 -0.1235  0.6680 -0.3539
  869MOL0     C17191   5.818   8.748   4.123 -0.5235  0.6652 -0.1818
  869MOL0     C17192   5.890   8.628   4.055  1.0987 -0.1133  0.3834
  869MOL0     C17193   5.792   8.517   4.014 -0.8116  0.3025 -0.3521
  869MOL0     C17194   5.851   8.410   3.924 -0.1943  0.3057  0.1858
  869MOL0     C17195   5.784   8.273   3.952 -0.3166  0.0825  0.1749
  869MOL0     C17196   5.652   8.267   3.878  0.4822 -0.4005 -0.1034
  869MOL0     N17197   5.582   8.141   3.908 -0.0835 -0.7760 -0.0827
  869MOL0     C17198   5.598   8.014   3.860 -0.0696  1.3210  2.1390
  869MOL0     C17199   5.508   7.940   3.931  0.6062  0.9881  0.3866
  869MOL0     C17200   5.491   7.791   3.921  0.5789 -0.0426  0.0019
  869MOL0     C17201   5.347   7.767   3.878 -0.2084 -0.0481  0.5217
  869MOL0     C17202   5.315   7.619   3.913 -0.5727 -0.6267 -0.5034
  869MOL0     C17203   5.170   7.599   3.870 -0.3278  0.5400  0.1377
  869MOL0     O17204   5.122   7.482   3.945 -0.4955 -0.3352  0.0986
  869MOL0     C17205   4.991   7.461   3.947  0.2054 -0.6279  0.3767
  869MOL0     C17206   4.887   7.530   3.871  0.4107 -0.0940 -0.2737
  869MOL0     C17207   4.750   7.500   3.888 -0.8021 -0.4372 -0.4100
  869MOL0     C17208   4.712   7.393   3.963  0.6003  0.4458 -0.9178
  869MOL0     C17209   4.575   7.347   3.978 -0.3378 -0.5546 -0.1913
  869MOL0     O17210   4.550   7.226   4.050  0.1773 -0.8479  0.0714
  869MOL0     C17211   4.420   7.192   4.067  0.6608  0.7700  0.4748
  869MOL0     C17212   4.357   7.099   3.989 -0.2485  1.4051 -0.1401
  869MOL0     C17213   4.222   7.066   4.011 -0.3612  0.3418 -0.1350
  869MOL0     C17214   4.146   7.146   4.103 -0.3568 -0.3874  1.5142
  869MOL0     O17215   4.017   7.103   4.127 -0.2719  0.6146  0.4643
  869MOL0     C17216   3.973   7.088   4.263  0.0866 -0.1531 -0.1526
  869MOL0     C17217   3.819   7.086   4.265 -0.0765 -0.6269  0.8456
  869MOL0     C17218   3.784   7.024   4.398  0.1714 -0.1493 -1.1955
  869MOL0     C17219   3.780   6.867   4.387  1.1053 -0.1668  0.0267
  869MOL0     C17220   3.807   6.786   4.520  0.3031 -0.7567 -0.1832
  869MOL0     C17221   3.936   6.827   4.579 -0.4036  0.0718 -0.1026
  869MOL0     C17222   3.998   6.735   4.696 -0.0283  0.0734  0.5562
  869MOL0     C17223   3.918   6.722   4.823  0.2810  0.6584 -0.8536
  869MOL0    Cl17224   4.001   6.585   4.923  0.0072  0.1543  0.5043
  869MOL0     C17225   4.208   7.246   4.172 -0.6893  0.0104  0.6584
  869MOL0     C17226   4.347   7.256   4.164  0.0935 -0.7718 -0.6629
  869MOL0     O17227   4.487   7.433   3.948 -0.4584  0.5325  0.3008
  869MOL0     C17228   4.811   7.321   4.027  1.2643  0.1483 -0.0314
  869MOL0     C17229   4.947   7.349   4.023 -0.1692 -0.3540  0.2180
  869MOL0     N17230   5.435   8.012   4.019 -0.1857 -0.6492 -0.5995
  869MOL0     N17231   5.475   8.138   4.004  0.4814  0.1000  0.0029
  869MOL0     C17232   5.970   8.574   4.608  0.2998 -0.8560 -0.1069
  869MOL0     C17233   6.033   8.513   4.720 -1.2659  0.6600 -0.1834
  869MOL0     C17234   6.162   8.247   5.055  0.5747  0.2594 -0.0779
  869MOL0     C17235   6.302   8.256   5.077 -0.3586 -1.4972  0.0784
  869MOL0     C17236   6.356   8.215   5.202  0.7115  1.0058 -0.0539
  869MOL0     C17237   6.275   8.168   5.301 -0.0860 -0.0047 -0.2519
  869MOL0     O17238   6.331   8.132   5.421 -0.9037  1.2433  0.0627
  869MOL0     C17239   6.246   8.086   5.522 -0.0785 -0.3271 -0.1954
  869MOL0     C17240   6.166   8.200   5.597  0.7543 -0.0627  0.2539
  869MOL0     C17241   6.049   8.157   5.682  1.5785 -0.3765 -0.5903
  869MOL0     C17242   6.070   8.051   5.787  0.5876 -0.7109 -0.4091
  869MOL0     C17243   5.962   8.043   5.882  0.1322  0.1772  0.4058
  869MOL0     C17244   5.866   8.071   5.957 -0.1139 -0.1355 -0.1624
  869MOL0     C17245   6.132   8.168   5.276 -0.6011  1.3587 -0.3741
  869MOL0     C17246   6.071   8.208   5.161  0.2623 -0.3960  0.0853
  869MOL0     C17247   5.919   8.197   5.138 -0.9759  0.0115  0.2929
  869MOL0     H17248   5.750   8.393   4.868  0.1204  1.0744  1.0111
  869MOL0     H17249   5.651   8.490   4.669  0.8334  0.9811 -0.7439
  869MOL0     H17250   5.874   8.788   4.426  2.2641 -0.1757  1.1153
  869MOL0     H17251   5.922   8.634   4.353 -1.5770 -2.8689 -0.1828
  869MOL0     H17252   5.674   8.786   4.285 -0.5022  0.4208 -0.6459
  869MOL0     H17253   5.689   8.619   4.240 -2.7202  2.7312 -4.2770
  869MOL0     H17254   5.895   8.824   4.143  0.3221  0.2691 -1.7610
  869MOL0     H17255   5.754   8.778   4.040  1.7852  1.9866 -1.5929
  869MOL0     H17256   5.932   8.664   3.961 -0.3480  1.4584  0.2771
  869MOL0     H17257   5.965   8.585   4.121  1.4980  0.8058  0.5456
  869MOL0     H17258   5.752   8.483   4.110  0.3062  0.1482  0.0633
  869MOL0     H17259   5.703   8.560   3.966 -1.5833  3.3021  3.2558
  869MOL0     H17260   5.850   8.434   3.818 -0.6663 -2.0070 -0.3780
  869MOL0     H17261   5.959   8.415   3.940  0.0506  1.2185 -1.5426
  869MOL0     H17262   5.771   8.261   4.060  0.9438 -0.0097  0.3352
  869MOL0     H17263   5.860   8.204   3.913  0.0919  0.7616 -0.2364
  869MOL0     H17264   5.589   8.352   3.904 -0.7148 -1.0503 -0.8059
  869MOL0     H17265   5.672   8.273   3.771 -1.1282 -0.8991 -0.4502
  869MOL0     H17266   5.677   7.962   3.808 -2.9349 -2.5103  1.1036
  869MOL0     H17267   5.564   7.737   3.859  0.3528 -2.3879  1.6472
  869MOL0     H17268   5.506   7.760   4.025  0.3269 -1.5601 -0.3892
  869MOL0     H17269   5.282   7.832   3.937  1.4403  0.5184  1.7798
  869MOL0     H17270   5.329   7.779   3.771 -1.0820 -2.3637  0.3599
  869MOL0     H17271   5.318   7.608   4.022 -0.0222  0.9752 -0.3395
  869MOL0     H17272   5.387   7.550   3.868 -2.4685 -4.0287  1.2383
  869MOL0     H17273   5.163   7.560   3.768  0.5742  1.0351 -0.1275
  869MOL0     H17274   5.106   7.688   3.872 -1.4787 -0.2829  0.7550
  869MOL0     H17275   4.908   7.602   3.793  3.4214 -1.2215 -0.6233
  869MOL0     H17276   4.683   7.554   3.822 -0.1467  2.4457  1.1068
  869MOL0     H17277   4.412   7.040   3.916 -1.7093 -0.2994  0.0492
  869MOL0     H17278   4.177   6.978   3.966  1.1834  0.6066 -2.3643
  869MOL0     H17279   4.009   6.993   4.304 -4.3816 -1.6380  0.8293
  869MOL0     H17280   4.011   7.172   4.323 -0.3399 -0.3277  0.3633
  869MOL0     H17281   3.784   7.190   4.265 -2.5866 -1.4087  0.4006
  869MOL0     H17282   3.777   7.036   4.178 -0.6483 -2.8273  2.2812
  869MOL0     H17283   3.862   7.046   4.471 -0.1321 -2.1058 -0.2261
  869MOL0     H17284   3.685   7.061   4.426  1.0953  0.8984  0.9038
  869MOL0     H17285   3.861   6.826   4.325  0.2084  1.3788 -2.3041
  869MOL0     H17286   3.681   6.842   4.348  1.1070 -1.3759  0.7371
  869MOL0     H17287   3.804   6.680   4.491  1.1483 -0.0065 -3.4453
  869MOL0     H17288   3.735   6.806   4.599  1.6594  1.8362  0.4959
  869MOL0     H17289   4.006   6.819   4.495  0.4998  0.8333  0.5638
  869MOL0     H17290   3.932   6.928   4.620 -4.6660 -1.0952  3.1228
  869MOL0     H17291   4.100   6.760   4.725 -0.1235  0.4705  0.5501
  869MOL0     H17292   4.005   6.635   4.653  1.6643  0.1906  0.5148
  869MOL0     H17293   3.916   6.823   4.865  2.1442  1.1380 -1.8335
  869MOL0     H17294   3.812   6.695   4.814  0.0795  0.3191  1.6219
  869MOL0     H17295   4.170   7.307   4.253  1.6383  0.3313  1.6008
  869MOL0     H17296   4.386   7.336   4.225  0.0807 -1.1746 -0.1197
  869MOL0     H17297   4.783   7.238   4.090  0.6444 -0.6484 -1.3042
  869MOL0     H17298   5.020   7.296   4.084  1.1271 -0.3849 -1.2969
  869MOL0     H17299   6.032   8.632   4.540 -0.9895 -1.6454 -2.0431
  869MOL0     H17300   6.140   8.530   4.732 -1.4623  2.9308 -1.0618
  869MOL0     H17301   6.375   8.310   5.019 -1.4641  0.4884  0.4270
  869MOL0     H17302   6.463   8.214   5.219  0.4896  2.9097  1.8746
  869MOL0     H17303   6.308   8.042   5.600  1.0074  1.1065 -0.2326
  869MOL0     H17304   6.169   8.010   5.502 -1.1987 -0.1794  2.9655
  869MOL0     H17305   6.133   8.269   5.519 -0.2427 -1.2393 -0.3947
  869MOL0     H17306   6.222   8.262   5.668 -1.6942  1.7575  0.7381
  869MOL0     H17307   5.970   8.126   5.614  0.4727 -2.4501  1.5114
  869MOL0     H17308   6.013   8.246   5.735 -0.6456 -1.0137 -0.9729
  869MOL0     H17309   6.087   7.951   5.745  5.1513 -1.3421  2.1755
  869MOL0     H17310   6.151   8.066   5.859 -0.5649 -2.5636  1.4020
  869MOL0     H17311   5.772   8.099   6.001 -0.9685 -0.2832 -1.8058
  869MOL0     H17312   6.060   8.141   5.352  1.2000  0.5982  1.1328
  869MOL0     H17313   5.899   8.145   5.043 -1.9894 -2.4405  1.7476
  869MOL0     H17314   5.881   8.137   5.221  3.8668 -1.9754  1.4383
  869MOL0     H17315   5.878   8.298   5.133 -0.5364  0.6530  5.2508
  870MOL0     O17316  11.350   0.569   9.247 -0.1409  0.1613  0.2705
  870MOL0     C17317  11.369   0.603   9.362  0.3878 -0.7348 -0.2433
  870MOL0     O17318  11.474   0.678   9.406  0.2625  0.7356  0.1725
  870MOL0     C17319  11.563   0.750   9.330  0.8617  0.3589 -0.3518
  870MOL0     C17320  11.554   0.771   9.188 -0.1213  0.8367 -0.5114
  870MOL0     C17321  11.642   0.857   9.118 -0.0633  0.1576  0.5492
  870MOL0     C17322  11.745   0.924   9.178 -0.0410  0.0049 -0.4624
  870MOL0     O17323  11.832   1.014   9.126 -0.0557  0.4596  1.1574
  870MOL0     C17324  11.869   0.979   8.993 -0.3793 -0.3524 -0.1868
  870MOL0     C17325  11.970   1.081   8.935  0.5082  0.5284  0.0436
  870MOL0     C17326  12.010   1.059   8.787  0.2441 -0.2579 -0.4220
  870MOL0     C17327  12.135   0.973   8.770  0.1123 -0.4005 -0.6561
  870MOL0     C17328  12.172   0.925   8.620  0.5823  0.6459 -0.1274
  870MOL0     C17329  12.253   0.799   8.603 -0.8408  0.0661  0.6468
  870MOL0     C17330  12.262   0.766   8.456 -0.0028 -0.3613 -0.5184
  870MOL0     C17331  12.142   0.683   8.416 -0.1682 -0.5352  0.6963
  870MOL0     N17332  12.160   0.606   8.301  0.5367 -1.0856  0.8949
  870MOL0     C17333  12.132   0.664   8.174  0.4692 -0.2770 -0.4665
  870MOL0     C17334  12.152   0.566   8.088 -0.2993 -0.1938 -0.0260
  870MOL0     C17335  12.159   0.583   7.938  0.6478  0.1138 -0.5030
  870MOL0     C17336  12.043   0.509   7.865 -0.0683  0.1233  0.3665
  870MOL0     C17337  12.082   0.364   7.827 -0.7536 -0.0771 -0.2134
  870MOL0     C17338  11.948   0.302   7.791  0.3289 -0.3830 -0.2714
  870MOL0     O17339  11.972   0.190   7.704  0.4869  0.7168 -0.1903
  870MOL0     C17340  11.873   0.096   7.684 -0.1628  0.5060 -0.0601
  870MOL0     C17341  11.745   0.111   7.731  0.0054  0.5906  0.5814
  870MOL0     C17342  11.643   0.029   7.680 -0.5513  0.2235 -0.4901
  870MOL0     C17343  11.666  -0.089   7.606 -0.2844 -0.3060  0.6974
  870MOL0     C17344  11.556  -0.175   7.566 -0.1100  0.9937  0.2616
  870MOL0     O17345  11.581  -0.281   7.476 -0.3721  0.5510 -0.0518
  870MOL0     C17346  11.477  -0.349   7.423  0.5228  0.0990  0.0854
  870MOL0     C17347  11.345  -0.306   7.399 -0.4756 -0.3084  0.4982
  870MOL0     C17348  11.244  -0.392   7.355 -0.1470  0.3380 -1.1780
  870MOL0     C17349  11.272  -0.525   7.337 -0.5792  0.6174  0.1231
  870MOL0     O17350  11.160  -0.598   7.314 -0.0770  0.1501  0.0438
  870MOL0     C17351  11.185  -0.729   7.261  0.8176  0.6573  0.4407
  870MOL0     C17352  11.054  -0.817   7.256 -0.0082  0.7036 -0.4881
  870MOL0     C17353  10.962  -0.772   7.141  0.2730 -0.1824 -0.4649
  870MOL0     C17354  10.858  -0.895   7.095 -0.6492 -0.8086 -0.0198
  870MOL0     C17355  10.732  -0.841   7.027  0.5964  0.7092  0.2160
  870MOL0     C17356  10.774  -0.797   6.886  0.0621  0.0471 -0.3224
  870MOL0     C17357  10.653  -0.776   6.792 -0.3743 -0.4895 -0.7481
  870MOL0     C17358  10.681  -0.785   6.644 -0.2047  0.3604 -0.1455
  870MOL0    Cl17359  10.722  -0.955   6.608 -0.3130  0.0243 -0.2558
  870MOL0     C17360  11.411  -0.566   7.346 -0.0180  0.6307 -1.1372
  870MOL0     C17361  11.508  -0.478   7.392 -0.5830 -0.0740  0.8064
  870MOL0     O17362  11.447  -0.147   7.612  1.0257  0.0882 -0.1200
  870MOL0     C17363  11.790  -0.105   7.562 -0.6465  1.1211 -0.0019
  870MOL0     C17364  11.894  -0.014   7.597 -0.8409  0.4373 -0.7295
  870MOL0     N17365  12.182   0.447   8.155  0.4949  0.2406 -0.1848
  870MOL0     N17366  12.180   0.474   8.281  0.1527  0.5163  0.0932
  870MOL0     C17367  11.759   0.897   9.317 -0.9002 -0.3420 -0.3441
  870MOL0     C17368  11.667   0.817   9.387  0.8149  0.2385  0.2930
  870MOL0     C17369  11.266   0.545   9.460  0.2332  0.9193 -0.6373
  870MOL0     C17370  11.131   0.543   9.422 -0.3166 -0.2303 -0.3230
  870MOL0     C17371  11.029   0.488   9.494  0.2486 -0.4657  0.5409
  870MOL0     C17372  11.056   0.432   9.625 -0.6484 -0.3097 -0.1480
  870MOL0     O17373  10.972   0.367   9.709 -0.1950 -0.2659  0.0130
  870MOL0     C17374  10.842   0.323   9.666  0.5033 -0.6414 -0.0334
  870MOL0     C17375  10.859   0.199   9.584 -0.0268 -0.2631 -0.3616
  870MOL0     C17376  10.730   0.158   9.520  0.2687 -0.3427  0.1598
  870MOL0     C17377  10.675   0.257   9.406 -0.6431  0.2814 -0.8445
  870MOL0     C17378  10.548   0.223   9.345 -0.1637  0.1495  0.5244
  870MOL0     C17379  10.440   0.206   9.287  0.2361  0.2241  0.6776
  870MOL0     C17380  11.189   0.436   9.664 -0.4114  0.3985  0.3297
  870MOL0     C17381  11.300   0.472   9.585  0.2754 -0.2893 -0.5755
  870MOL0     C17382  11.442   0.444   9.599 -0.0851  0.4899 -0.3527
  870MOL0     H17383  11.477   0.717   9.133  1.1369 -0.0620 -1.4424
  870MOL0     H17384  11.619   0.865   9.013 -0.8772 -0.7683  0.6389
  870MOL0     H17385  11.926   0.886   8.995  0.3855  0.1139  0.5911
  870MOL0     H17386  11.784   0.978   8.924  2.0330  1.5796 -3.5016
  870MOL0     H17387  12.056   1.081   9.002  0.5806 -3.6395  0.2332
  870MOL0     H17388  11.914   1.175   8.927 -1.0516 -0.4673 -1.2390
  870MOL0     H17389  12.009   1.153   8.731 -2.4302 -1.7004 -3.0724
  870MOL0     H17390  11.932   0.997   8.742 -1.6884  2.6498 -1.3654
  870MOL0     H17391  12.223   1.033   8.796 -0.4181  1.1531 -2.2896
  870MOL0     H17392  12.133   0.894   8.846  0.0655  2.0826  2.1380
  870MOL0     H17393  12.073   0.914   8.573 -0.6894  1.1855  2.2261
  870MOL0     H17394  12.222   1.003   8.562  0.1882  0.4053 -0.8051
  870MOL0     H17395  12.359   0.818   8.623 -0.0954 -2.4734 -0.4926
  870MOL0     H17396  12.228   0.715   8.669  0.5793  0.7899  2.1734
  870MOL0     H17397  12.353   0.706   8.444 -0.5116 -1.1346 -0.5926
  870MOL0     H17398  12.255   0.851   8.387  0.1013  2.0747  2.2945
  870MOL0     H17399  12.141   0.599   8.487  5.4306 -2.4978 -1.0659
  870MOL0     H17400  12.055   0.749   8.414 -3.1365 -3.8257  3.9369
  870MOL0     H17401  12.122   0.771   8.158  1.6497 -0.1646 -0.5739
  870MOL0     H17402  12.164   0.690   7.915  0.5302  0.2991  0.3079
  870MOL0     H17403  12.257   0.543   7.911  0.6262 -1.9349  2.0122
  870MOL0     H17404  11.955   0.507   7.929  0.2981 -0.9458  0.8613
  870MOL0     H17405  12.022   0.569   7.776  0.3707 -1.3654 -0.7908
  870MOL0     H17406  12.126   0.328   7.920 -0.6805  0.3846 -0.0669
  870MOL0     H17407  12.158   0.368   7.749  0.4852  0.0917  0.9615
  870MOL0     H17408  11.881   0.367   7.734 -3.2931 -1.9825  1.7734
  870MOL0     H17409  11.889   0.277   7.880 -0.8810  1.5808 -0.4637
  870MOL0     H17410  11.716   0.190   7.800  3.3925  1.7515  0.8746
  870MOL0     H17411  11.544   0.049   7.720  0.0389 -1.3530  2.0054
  870MOL0     H17412  11.316  -0.203   7.418  2.6610  0.5374  1.3082
  870MOL0     H17413  11.143  -0.357   7.336 -1.5105 -1.3640  2.1041
  870MOL0     H17414  11.225  -0.717   7.160 -0.3164 -1.2503 -0.2953
  870MOL0     H17415  11.264  -0.780   7.317  1.9745  2.2384  0.3051
  870MOL0     H17416  11.092  -0.911   7.215  4.8999  1.4123  1.8055
  870MOL0     H17417  11.005  -0.832   7.352  1.5883 -0.1094  0.2241
  870MOL0     H17418  10.903  -0.685   7.171  2.4333  1.9569 -2.1335
  870MOL0     H17419  11.022  -0.739   7.057 -0.1862  4.0277  0.6446
  870MOL0     H17420  10.827  -0.955   7.181  0.6628 -0.4213  0.7550
  870MOL0     H17421  10.908  -0.965   7.027 -0.5196 -0.7028 -0.0322
  870MOL0     H17422  10.699  -0.760   7.092  2.4374  0.4268  1.6215
  870MOL0     H17423  10.649  -0.912   7.022 -0.2778  1.7122  0.2066
  870MOL0     H17424  10.831  -0.704   6.881  0.8022 -0.3005  1.2013
  870MOL0     H17425  10.838  -0.876   6.846 -1.0492 -2.8061  3.0140
  870MOL0     H17426  10.614  -0.679   6.825 -1.7683 -1.7232  1.5368
  870MOL0     H17427  10.579  -0.854   6.814 -3.6847  2.4003 -0.7701
  870MOL0     H17428  10.594  -0.756   6.585  1.9656  1.4261 -3.0380
  870MOL0     H17429  10.763  -0.720   6.615  0.4897 -0.0137  0.8947
  870MOL0     H17430  11.441  -0.670   7.337  0.9860  0.3031  3.6398
  870MOL0     H17431  11.612  -0.504   7.403 -0.7728 -1.2121  0.0502
  870MOL0     H17432  11.823  -0.189   7.501  1.9781  2.5074 -0.6360
  870MOL0     H17433  11.990  -0.032   7.548 -0.7394  0.6467 -0.6077
  870MOL0     H17434  11.856   0.927   9.355 -0.5260  0.4169 -1.8292
  870MOL0     H17435  11.690   0.787   9.489  1.9464  2.0794  0.6311
  870MOL0     H17436  11.097   0.591   9.331 -1.9665  0.2821  0.5176
  870MOL0     H17437  10.929   0.486   9.452  1.0253 -1.6613 -1.3647
  870MOL0     H17438  10.802   0.404   9.604  1.7104 -0.6433 -0.8300
  870MOL0     H17439  10.771   0.306   9.748  1.2137 -1.5950  0.4063
  870MOL0     H17440  10.876   0.130   9.667  0.0856  0.7351  0.4718
  870MOL0     H17441  10.935   0.204   9.505 -0.7336  2.1640 -0.9796
  870MOL0     H17442  10.650   0.159   9.596  1.2884 -0.2202  1.2621
  870MOL0     H17443  10.745   0.058   9.480  0.6116 -0.0584 -0.4291
  870MOL0     H17444  10.680   0.360   9.442  1.2532 -0.0446 -0.0266
  870MOL0     H17445  10.752   0.250   9.328 -0.6927  1.1585 -0.9832
  870MOL0     H17446  10.351   0.181   9.234  1.2982  0.4634 -1.3322
  870MOL0     H17447  11.202   0.375   9.753  4.1483  0.2222 -0.2525
  870MOL0     H17448  11.490   0.404   9.509  1.0042  1.3128 -0.1570
  870MOL0     H17449  11.498   0.537   9.612 -1.4321  1.8115 -3.0497
  870MOL0     H17450  11.456   0.366   9.674  1.1500  1.8938  0.9316
  871MOL0     O17451   3.743   0.146   3.535  0.2718  0.4020 -0.0945
  871MOL0     C17452   3.632   0.136   3.466  0.0575 -0.2424  0.4554
  871MOL0     O17453   3.618   0.176   3.340 -0.0650 -0.2939  0.0149
  871MOL0     C17454   3.708   0.228   3.252 -0.7571  0.3378  0.0778
  871MOL0     C17455   3.660   0.265   3.123  0.8985 -0.4747  0.4393
  871MOL0     C17456   3.749   0.284   3.020 -0.1226  0.2780 -0.3459
  871MOL0     C17457   3.887   0.256   3.036 -0.1393  0.0354  0.1275
  871MOL0     O17458   3.977   0.249   2.935  0.4269 -0.2266 -0.3748
  871MOL0     C17459   3.949   0.156   2.830 -0.4084  0.0104  0.0865
  871MOL0     C17460   4.030   0.192   2.705 -0.3498  0.3950  0.0250
  871MOL0     C17461   3.957   0.299   2.631  0.7810 -1.1811  0.5526
  871MOL0     C17462   4.046   0.351   2.514  0.7067 -0.1180 -1.1668
  871MOL0     C17463   3.972   0.459   2.440  0.2212 -0.8052 -0.0259
  871MOL0     C17464   3.980   0.601   2.508  0.9107 -0.6329  0.2736
  871MOL0     C17465   3.923   0.707   2.406  0.0262 -0.3314 -0.0371
  871MOL0     C17466   3.932   0.843   2.462  0.2152  0.8597 -0.4561
  871MOL0     N17467   4.068   0.878   2.497  0.5370  0.1594 -1.7728
  871MOL0     C17468   4.095   0.913   2.626  0.2299  0.2983 -0.5385
  871MOL0     C17469   4.211   0.976   2.625  0.3208  1.3396  0.5503
  871MOL0     C17470   4.299   1.026   2.728  1.2420 -0.3455 -0.4691
  871MOL0     C17471   4.452   1.026   2.705 -0.2930  0.6190  0.5530
  871MOL0     C17472   4.513   1.103   2.823  0.1890 -1.0380  0.6959
  871MOL0     C17473   4.664   1.106   2.811 -1.2905 -0.5041 -0.0550
  871MOL0     O17474   4.694   1.199   2.705  0.7542 -0.1987 -0.4517
  871MOL0     C17475   4.755   1.317   2.729  0.2545 -0.0030 -1.0866
  871MOL0     C17476   4.749   1.379   2.850  0.3547 -0.8573  0.5640
  871MOL0     C17477   4.814   1.499   2.871  0.3140 -0.2840 -0.2848
  871MOL0     C17478   4.884   1.562   2.760  0.7456  0.2939  0.8436
  871MOL0     C17479   4.924   1.705   2.769  0.3575 -0.9691  0.2985
  871MOL0     O17480   5.047   1.733   2.725 -0.1744 -0.2946 -0.4807
  871MOL0     C17481   5.105   1.857   2.754  0.3260  1.1837  0.7916
  871MOL0     C17482   5.048   1.981   2.730  0.2067 -1.2630 -0.7153
  871MOL0     C17483   5.124   2.097   2.748 -0.2321  0.6475  1.2873
  871MOL0     C17484   5.265   2.090   2.770  0.1394 -0.4523 -0.7027
  871MOL0     O17485   5.332   2.215   2.783  0.4508  0.2653 -0.6589
  871MOL0     C17486   5.484   2.203   2.811  1.0771 -1.1778 -0.4937
  871MOL0     C17487   5.538   2.341   2.868 -0.4498  0.2823 -0.2439
  871MOL0     C17488   5.535   2.475   2.804  0.4841  0.1299 -0.3824
  871MOL0     C17489   5.573   2.463   2.657 -0.1322 -1.3412 -0.1992
  871MOL0     C17490   5.585   2.594   2.595 -1.0297 -0.1673  0.6048
  871MOL0     C17491   5.686   2.594   2.480  0.1408 -0.0383  0.1121
  871MOL0     C17492   5.680   2.735   2.412  0.4487  0.2636 -0.5374
  871MOL0     C17493   5.759   2.737   2.277  0.3190  0.4056 -0.3557
  871MOL0    Cl17494   5.752   2.907   2.235  0.0634  0.2036  0.1725
  871MOL0     C17495   5.316   1.963   2.796  0.1494 -0.3175 -0.0702
  871MOL0     C17496   5.243   1.849   2.781  0.9962 -0.1957 -0.7453
  871MOL0     O17497   4.851   1.786   2.826 -0.6846  0.8354 -0.2046
  871MOL0     C17498   4.906   1.493   2.639  0.1780  0.0432 -0.3848
  871MOL0     C17499   4.841   1.364   2.631  0.1049 -0.6887  0.5002
  871MOL0     N17500   4.244   0.983   2.490  0.1289  0.2708 -0.4644
  871MOL0     N17501   4.153   0.939   2.417  0.1321  0.1014  0.3201
  871MOL0     C17502   3.935   0.225   3.164  0.3668  0.1196 -0.1469
  871MOL0     C17503   3.846   0.213   3.272  0.1220 -0.2217 -0.0210
  871MOL0     C17504   3.518   0.062   3.522  0.3452  0.1990 -0.4061
  871MOL0     C17505   3.538  -0.011   3.638  0.8146  0.3470 -0.3398
  871MOL0     C17506   3.443  -0.113   3.678 -0.5851 -0.5146  0.2566
  871MOL0     C17507   3.319  -0.129   3.612  0.0567  0.6690 -0.2616
  871MOL0     O17508   3.230  -0.228   3.637  0.4149  0.6349 -0.1014
  871MOL0     C17509   3.246  -0.313   3.755  0.3135  0.4486  0.3506
  871MOL0     C17510   3.147  -0.425   3.761  0.3104 -0.0538 -0.1324
  871MOL0     C17511   3.007  -0.383   3.812 -0.8958 -0.1229 -0.4360
  871MOL0     C17512   2.902  -0.496   3.829  0.9692  1.2236 -0.5537
  871MOL0     C17513   2.955  -0.612   3.904 -0.9900 -0.2895 -1.3750
  871MOL0     C17514   2.997  -0.711   3.958 -0.7536  0.3857 -0.5985
  871MOL0     C17515   3.293  -0.042   3.505  0.5139 -0.3739  0.0263
  871MOL0     C17516   3.390   0.053   3.470  0.0018 -0.7483  0.6651
  871MOL0     C17517   3.338   0.149   3.369 -0.2562 -0.7696 -0.0847
  871MOL0     H17518   3.556   0.294   3.106  0.7355 -2.4105 -2.4823
  871MOL0     H17519   3.729   0.329   2.923  1.4192  4.4837  1.0645
  871MOL0     H17520   3.977   0.057   2.867 -1.1869  0.3265  1.5824
  871MOL0     H17521   3.843   0.167   2.806 -0.5438  2.7380  1.4727
  871MOL0     H17522   4.050   0.097   2.655 -2.3816 -0.3888  0.6118
  871MOL0     H17523   4.130   0.228   2.730  1.4299 -2.9279 -1.6754
  871MOL0     H17524   3.929   0.381   2.698 -1.6692  0.1123 -1.8419
  871MOL0     H17525   3.867   0.259   2.585  0.1353  1.3958 -0.6299
  871MOL0     H17526   4.135   0.390   2.564 -1.5574  1.0884  2.2412
  871MOL0     H17527   4.078   0.271   2.446 -0.8115  1.1977 -3.5383
  871MOL0     H17528   4.001   0.466   2.335  1.1696 -1.1196  0.2050
  871MOL0     H17529   3.868   0.425   2.437 -0.0703  0.1135 -0.8952
  871MOL0     H17530   3.941   0.606   2.610  1.7218 -2.9672  0.7566
  871MOL0     H17531   4.087   0.624   2.508  0.4712  1.6136  0.1382
  871MOL0     H17532   3.824   0.672   2.376  0.6031 -1.6077 -0.5238
  871MOL0     H17533   3.989   0.713   2.319  1.1480  2.5478  0.8634
  871MOL0     H17534   3.893   0.904   2.381 -3.7305 -0.5235  0.1751
  871MOL0     H17535   3.858   0.850   2.543 -0.1205 -0.9485 -0.5540
  871MOL0     H17536   4.043   0.883   2.716  0.8701  1.6330  0.3269
  871MOL0     H17537   4.284   1.134   2.744  2.2415 -0.1300 -0.8915
  871MOL0     H17538   4.269   0.972   2.819 -1.0139  0.6650 -0.5673
  871MOL0     H17539   4.477   0.919   2.697 -2.3181 -0.2335  3.7755
  871MOL0     H17540   4.473   1.074   2.609 -0.9705 -2.8742 -1.5539
  871MOL0     H17541   4.476   1.063   2.918  1.0423 -0.3894  1.3224
  871MOL0     H17542   4.479   1.206   2.810 -0.8604 -1.6020 -1.4714
  871MOL0     H17543   4.714   1.013   2.780  1.4481 -0.0282  2.4552
  871MOL0     H17544   4.713   1.130   2.906  1.4478  0.0307 -1.4808
  871MOL0     H17545   4.676   1.361   2.928 -0.7817 -0.8022 -0.4590
  871MOL0     H17546   4.806   1.543   2.970  3.6004 -1.9307  0.8693
  871MOL0     H17547   4.945   2.002   2.704  0.1261  1.4024  1.3005
  871MOL0     H17548   5.064   2.187   2.740 -1.2089 -0.1975 -2.0435
  871MOL0     H17549   5.515   2.124   2.879 -1.3980 -1.8622 -0.0541
  871MOL0     H17550   5.520   2.205   2.707  0.4565  4.1589 -0.8831
  871MOL0     H17551   5.481   2.357   2.960 -1.0571 -2.4247 -0.0533
  871MOL0     H17552   5.644   2.320   2.887 -0.2902  2.5856  1.9061
  871MOL0     H17553   5.444   2.534   2.817  0.1403  0.1373 -2.4201
  871MOL0     H17554   5.601   2.542   2.858  1.8987 -0.3749 -1.4322
  871MOL0     H17555   5.506   2.400   2.597  3.0070 -1.5678 -3.8450
  871MOL0     H17556   5.670   2.412   2.657 -0.9581 -2.9906  0.5154
  871MOL0     H17557   5.622   2.670   2.665  3.0345 -1.8409  0.5350
  871MOL0     H17558   5.494   2.640   2.554  0.7287  2.4221 -0.7014
  871MOL0     H17559   5.786   2.579   2.521  1.0265  0.2914 -1.8231
  871MOL0     H17560   5.659   2.518   2.406  0.5233  0.3964 -0.4802
  871MOL0     H17561   5.725   2.805   2.483 -2.2722  0.4285  1.1666
  871MOL0     H17562   5.580   2.778   2.403 -0.2541 -0.7659  1.6794
  871MOL0     H17563   5.864   2.708   2.283 -0.1210 -0.9162  2.7407
  871MOL0     H17564   5.706   2.672   2.208  1.6456  0.1377 -1.1669
  871MOL0     H17565   5.418   1.930   2.816  0.2092  0.2103  0.5438
  871MOL0     H17566   5.299   1.757   2.791  2.4819  0.2121 -4.0168
  871MOL0     H17567   4.952   1.526   2.546  1.0380 -2.0134 -0.7413
  871MOL0     H17568   4.846   1.302   2.542  1.3731 -0.8915  0.6949
  871MOL0     H17569   4.040   0.206   3.185  0.5567  0.6451 -0.5900
  871MOL0     H17570   3.888   0.196   3.370 -0.8053  1.7036  0.7697
  871MOL0     H17571   3.630   0.010   3.692  0.2196 -1.5455  1.5553
  871MOL0     H17572   3.476  -0.178   3.758  2.8593  1.4602  0.6620
  871MOL0     H17573   3.245  -0.249   3.844 -1.0422  0.8619  0.0613
  871MOL0     H17574   3.345  -0.361   3.757  0.5124  0.8404  2.7626
  871MOL0     H17575   3.181  -0.500   3.833 -1.9775  1.2083  2.4574
  871MOL0     H17576   3.132  -0.476   3.665 -1.8192 -0.2008  0.2309
  871MOL0     H17577   2.966  -0.307   3.745 -2.2623 -1.0447 -0.6994
  871MOL0     H17578   3.015  -0.322   3.903  2.8552 -0.6542 -0.2873
  871MOL0     H17579   2.817  -0.448   3.879 -0.2893 -0.6506 -0.8096
  871MOL0     H17580   2.869  -0.530   3.730  1.0274 -1.6203  0.3163
  871MOL0     H17581   3.041  -0.786   4.019 -3.6670  0.9561  2.4667
  871MOL0     H17582   3.194  -0.044   3.461 -0.2484  0.0325  1.6694
  871MOL0     H17583   3.373   0.114   3.271 -2.0432  1.5885 -1.7057
  871MOL0     H17584   3.229   0.148   3.361 -0.4751  4.3618 -0.7630
  871MOL0     H17585   3.369   0.252   3.384 -0.7138 -0.8944  1.8969
  872MOL0     O17586   2.415   6.441   9.018 -0.1756  0.3460  0.0495
  872MOL0     C17587   2.428   6.559   9.045  0.0867 -1.7248  0.1157
  872MOL0     O17588   2.392   6.619   9.164 -0.0386 -0.4811 -0.3757
  872MOL0     C17589   2.392   6.536   9.279  0.3258 -0.0903  0.1491
  872MOL0     C17590   2.301   6.568   9.371 -0.3963  0.3514  1.0880
  872MOL0     C17591   2.299   6.499   9.490 -0.6780  0.6314  0.2302
  872MOL0     C17592   2.408   6.402   9.524  0.0649 -1.1034 -0.2363
  872MOL0     O17593   2.430   6.363   9.648 -0.9498  0.1808 -0.4155
  872MOL0     C17594   2.373   6.439   9.754 -0.5599  0.6380 -0.3309
  872MOL0     C17595   2.443   6.398   9.884 -0.2852  0.1907  0.7642
  872MOL0     C17596   2.380   6.460  10.010 -0.0832 -1.1075 -0.2545
  872MOL0     C17597   2.427   6.405  10.142  0.2271 -0.3965  0.2203
  872MOL0     C17598   2.582   6.389  10.149 -0.2509 -0.5043 -0.9250
  872MOL0     C17599   2.630   6.358  10.287  0.3923 -0.0656 -1.0132
  872MOL0     C17600   2.776   6.385  10.325 -0.2226  0.7691 -0.7650
  872MOL0     C17601   2.807   6.360  10.474  0.1442 -0.5122 -0.2731
  872MOL0     N17602   2.926   6.415  10.532 -0.3262  0.0742 -0.0039
  872MOL0     C17603   3.050   6.390  10.487 -0.3263 -0.6682 -0.5545
  872MOL0     C17604   3.131   6.437  10.587 -0.3898 -0.3046  0.0052
  872MOL0     C17605   3.278   6.406  10.590  0.4579  0.5462 -0.4577
  872MOL0     C17606   3.335   6.359  10.719 -0.6002  0.5175  0.9001
  872MOL0     C17607   3.467   6.283  10.700  0.0363 -0.3470 -0.0472
  872MOL0     C17608   3.544   6.270  10.828  0.4177 -0.1391  1.3304
  872MOL0     O17609   3.589   6.402  10.852  0.8425 -0.1196  0.7611
  872MOL0     C17610   3.621   6.441  10.978 -0.1062 -0.3190 -0.7308
  872MOL0     C17611   3.560   6.554  11.013 -0.3495 -0.1179  0.6951
  872MOL0     C17612   3.608   6.624  11.127  0.6210  0.8465  0.4041
  872MOL0     C17613   3.718   6.572  11.207 -0.0145 -0.5251  0.0179
  872MOL0     C17614   3.765   6.648  11.327  0.3932  1.2735  0.7135
  872MOL0     O17615   3.817   6.573  11.431 -0.4691 -0.0803 -0.3771
  872MOL0     C17616   3.874   6.643  11.534  0.1474  0.2495 -0.1074
  872MOL0     C17617   3.806   6.724  11.620  0.1325 -0.1107  1.1701
  872MOL0     C17618   3.881   6.794  11.718 -0.1252  0.0335  0.1460
  872MOL0     C17619   4.008   6.765  11.745  0.7850  0.6740 -0.3056
  872MOL0     O17620   4.069   6.837  11.844 -0.3999 -0.6198 -0.4785
  872MOL0     C17621   4.116   6.762  11.949 -0.0429  0.3361  0.3938
  872MOL0     C17622   4.204   6.847  12.048 -0.0737  0.2294  0.8459
  872MOL0     C17623   4.233   6.773  12.180 -0.0687 -0.6301 -0.1117
  872MOL0     C17624   4.284   6.866  12.277 -0.2182  0.0550  0.3402
  872MOL0     C17625   4.307   6.821  12.416 -1.9862  0.3861 -0.0458
  872MOL0     C17626   4.429   6.730  12.422  0.3366  0.5912  0.5147
  872MOL0     C17627   4.475   6.687  12.569 -0.2955 -0.3230  0.8632
  872MOL0     C17628   4.578   6.570  12.562 -0.3552 -0.2804 -0.5162
  872MOL0    Cl17629   4.728   6.591  12.470 -0.1761  0.2011 -0.0773
  872MOL0     C17630   4.071   6.666  11.663 -0.9864 -0.1710  0.7829
  872MOL0     C17631   4.007   6.605  11.554  0.1344  1.2362 -0.8563
  872MOL0     O17632   3.765   6.772  11.321 -0.3678  0.4736  0.0161
  872MOL0     C17633   3.762   6.437  11.172 -0.0386  0.2114 -0.6389
  872MOL0     C17634   3.719   6.375  11.057 -0.3486  0.0528 -0.4270
  872MOL0     N17635   3.051   6.484  10.690 -0.1409  1.0669  0.2720
  872MOL0     N17636   2.929   6.474  10.652 -0.2459  0.3764 -0.0695
  872MOL0     C17637   2.505   6.392   9.433 -0.3108 -0.3918 -0.1053
  872MOL0     C17638   2.495   6.452   9.308 -0.5019 -0.3792  0.3645
  872MOL0     C17639   2.483   6.648   8.938 -0.7396 -0.9700 -0.2113
  872MOL0     C17640   2.523   6.776   8.988 -0.4484 -0.3949 -0.4289
  872MOL0     C17641   2.570   6.873   8.902 -0.2022  0.3031  0.0587
  872MOL0     C17642   2.567   6.854   8.764 -0.5083  0.4959  0.8382
  872MOL0     O17643   2.591   6.942   8.664  0.1860  0.3662  0.6750
  872MOL0     C17644   2.594   7.080   8.689  1.0351 -0.6303  0.6357
  872MOL0     C17645   2.634   7.159   8.556 -0.2620 -0.6747 -0.1143
  872MOL0     C17646   2.777   7.110   8.537  0.0734  1.5150 -0.3126
  872MOL0     C17647   2.838   7.183   8.422 -0.0959 -0.2492  0.2974
  872MOL0     C17648   2.968   7.118   8.382 -0.7478  0.7353  0.0617
  872MOL0     C17649   3.080   7.078   8.353  0.1944  0.0637 -0.0796
  872MOL0     C17650   2.545   6.722   8.717 -0.4965  0.1076 -0.9087
  872MOL0     C17651   2.493   6.626   8.805 -0.4070  0.7559  0.3158
  872MOL0     C17652   2.438   6.504   8.737  0.6053  0.1548 -0.6807
  872MOL0     H17653   2.229   6.649   9.358 -1.7280 -0.6012  2.2378
  872MOL0     H17654   2.237   6.539   9.570 -0.0560  0.9417  0.5653
  872MOL0     H17655   2.394   6.545   9.735  0.6616  0.0106 -2.9215
  872MOL0     H17656   2.268   6.423   9.779  0.4593 -0.3499  4.1886
  872MOL0     H17657   2.550   6.420   9.879  0.1170 -1.4867  1.5381
  872MOL0     H17658   2.440   6.289   9.888  1.9015  0.0969  1.1301
  872MOL0     H17659   2.271   6.452  10.004  0.0213 -3.3162  0.1431
  872MOL0     H17660   2.405   6.566  10.013 -0.0469 -1.1050 -0.5559
  872MOL0     H17661   2.386   6.460  10.227 -1.0758  2.7847 -2.2898
  872MOL0     H17662   2.376   6.310  10.163 -0.0618 -0.1811  0.5008
  872MOL0     H17663   2.618   6.315  10.077 -0.9340 -0.4171 -1.3618
  872MOL0     H17664   2.636   6.483  10.136  0.5440 -0.4129  2.2711
  872MOL0     H17665   2.563   6.408  10.358 -1.5381  0.1874 -2.8962
  872MOL0     H17666   2.611   6.251  10.302 -1.0932 -0.0100 -2.2165
  872MOL0     H17667   2.796   6.490  10.299  1.2076  1.4200  2.5433
  872MOL0     H17668   2.840   6.321  10.264  1.5204 -1.0395  2.6755
  872MOL0     H17669   2.721   6.393  10.533  0.8187 -0.7772  0.9018
  872MOL0     H17670   2.808   6.252  10.495 -0.2867 -0.1122  2.1630
  872MOL0     H17671   3.083   6.357  10.389  2.3618  1.1310 -0.3723
  872MOL0     H17672   3.303   6.344  10.504 -2.6322  1.5799 -2.2806
  872MOL0     H17673   3.319   6.507  10.580  0.1045  0.9690  1.7259
  872MOL0     H17674   3.358   6.441  10.788  1.2150  0.8199  0.0010
  872MOL0     H17675   3.260   6.300  10.773 -1.8605  1.3129  0.0813
  872MOL0     H17676   3.537   6.321  10.625  1.6754 -0.7885  1.2131
  872MOL0     H17677   3.432   6.185  10.666 -2.2415  0.5041 -0.3331
  872MOL0     H17678   3.629   6.204  10.809 -0.6067 -1.7395  2.0467
  872MOL0     H17679   3.483   6.239  10.914 -0.1353 -4.5908 -0.3926
  872MOL0     H17680   3.481   6.587  10.946 -0.2699  0.8125  1.0525
  872MOL0     H17681   3.563   6.717  11.160  1.2763  1.2086  0.3019
  872MOL0     H17682   3.700   6.744  11.605 -0.2120 -0.5115  2.8160
  872MOL0     H17683   3.830   6.863  11.785  0.1947 -1.4879  2.0331
  872MOL0     H17684   4.034   6.716  12.005  2.7927 -6.2447  0.0022
  872MOL0     H17685   4.172   6.674  11.919  0.7060  0.7985  0.4178
  872MOL0     H17686   4.297   6.886  12.005  0.6158 -1.0395  1.1203
  872MOL0     H17687   4.144   6.935  12.070 -1.0379 -0.3042  0.4335
  872MOL0     H17688   4.146   6.715  12.211  0.1301 -0.5864  0.5564
  872MOL0     H17689   4.319   6.708  12.160 -0.1649 -0.4091 -1.2784
  872MOL0     H17690   4.210   6.945  12.296  1.0482  1.9472 -2.0215
  872MOL0     H17691   4.371   6.911  12.228 -0.3962 -1.4047 -1.4106
  872MOL0     H17692   4.221   6.766  12.458 -0.9731 -0.8916  0.4275
  872MOL0     H17693   4.322   6.908  12.480  2.0026 -2.2567  3.1415
  872MOL0     H17694   4.413   6.636  12.368 -1.4973  1.2516 -0.1553
  872MOL0     H17695   4.516   6.785  12.384  0.9648 -0.0598  0.9716
  872MOL0     H17696   4.385   6.660  12.624  0.3408 -1.2546  1.4753
  872MOL0     H17697   4.513   6.774  12.622 -1.5429 -0.3392  1.8101
  872MOL0     H17698   4.621   6.544  12.660  2.0768  1.2601 -1.0968
  872MOL0     H17699   4.540   6.480  12.512 -0.0372 -0.0728 -1.1392
  872MOL0     H17700   4.174   6.631  11.671 -0.2998  1.0959 -1.5677
  872MOL0     H17701   4.045   6.522  11.496 -2.0976  0.6137 -1.5492
  872MOL0     H17702   3.825   6.389  11.246  0.3318  1.4592 -0.1195
  872MOL0     H17703   3.770   6.287  11.020  2.3064  1.1811  0.3259
  872MOL0     H17704   2.597   6.340   9.458  0.2243  1.3220  1.7883
  872MOL0     H17705   2.589   6.443   9.254  0.6543  4.3006  1.1456
  872MOL0     H17706   2.520   6.808   9.092 -1.2165 -1.9442  0.0647
  872MOL0     H17707   2.591   6.972   8.942  1.8304 -0.1248  0.1388
  872MOL0     H17708   2.659   7.110   8.772 -0.9651  1.2610  1.6041
  872MOL0     H17709   2.499   7.126   8.719  2.0037  1.9545  0.0304
  872MOL0     H17710   2.632   7.268   8.560  0.6648 -0.5756 -1.5807
  872MOL0     H17711   2.564   7.139   8.474  1.6004 -1.5917 -1.5679
  872MOL0     H17712   2.791   7.004   8.517 -1.2009  1.3807 -0.5486
  872MOL0     H17713   2.829   7.130   8.631 -0.6035  1.8793 -0.0065
  872MOL0     H17714   2.775   7.192   8.333  0.2264  0.0693  0.0971
  872MOL0     H17715   2.858   7.285   8.456  1.1055 -0.3579 -0.0349
  872MOL0     H17716   3.170   7.031   8.320 -1.6927 -2.3158 -2.1931
  872MOL0     H17717   2.535   6.696   8.612  0.0583 -1.0159 -0.7036
  872MOL0     H17718   2.354   6.472   8.798  1.6271 -1.4233 -0.0275
  872MOL0     H17719   2.396   6.533   8.640  1.9837  0.1295 -1.3067
  872MOL0     H17720   2.498   6.413   8.725 -1.9478 -1.8750  1.0210
  873MOL0     O17721   1.641   1.032   1.219  0.7467 -0.3910 -0.3959
  873MOL0     C17722   1.712   1.078   1.134 -0.5013  0.1436 -0.8561
  873MOL0     O17723   1.842   1.051   1.121 -0.2806 -0.0214 -0.1007
  873MOL0     C17724   1.923   1.005   1.218 -0.5888  0.2618  0.7173
  873MOL0     C17725   1.893   0.930   1.344  0.4558  0.8337 -0.3701
  873MOL0     C17726   1.996   0.875   1.420  0.1403  0.4972  0.2499
  873MOL0     C17727   2.134   0.889   1.389 -0.0831 -0.1475 -0.1949
  873MOL0     O17728   2.246   0.847   1.461  0.4297  0.1730 -0.3062
  873MOL0     C17729   2.214   0.812   1.599  0.3187 -0.5934  0.7019
  873MOL0     C17730   2.346   0.784   1.680  0.1905  0.1111 -0.2103
  873MOL0     C17731   2.393   0.927   1.722 -0.3035  0.2316 -0.6195
  873MOL0     C17732   2.549   0.915   1.750  0.1868 -0.4359  0.2419
  873MOL0     C17733   2.604   1.062   1.788 -0.5113  0.2597 -0.1380
  873MOL0     C17734   2.761   1.058   1.778  0.6214  0.2179  0.4555
  873MOL0     C17735   2.812   1.202   1.795 -0.1212  0.5198 -0.3765
  873MOL0     C17736   2.966   1.192   1.823  0.4238  0.1121 -0.1932
  873MOL0     N17737   3.039   1.315   1.790  0.5632 -0.5252 -0.3368
  873MOL0     C17738   3.093   1.352   1.663 -0.0141  0.4758 -0.4125
  873MOL0     C17739   3.154   1.469   1.690 -0.0017  1.1489 -0.2393
  873MOL0     C17740   3.246   1.542   1.587 -1.1092 -0.4100  0.0031
  873MOL0     C17741   3.333   1.658   1.642 -0.7672 -0.7009  0.2076
  873MOL0     C17742   3.397   1.733   1.524  1.2381  0.5780  0.1473
  873MOL0     C17743   3.440   1.863   1.574  0.5398 -0.6546  0.8644
  873MOL0     O17744   3.526   1.935   1.481  1.4626 -0.5229 -0.2876
  873MOL0     C17745   3.659   1.916   1.484  0.1305 -0.8221  0.2444
  873MOL0     C17746   3.731   1.830   1.558  0.0840  0.2375 -0.4037
  873MOL0     C17747   3.866   1.822   1.543 -0.5683  0.0730 -0.1683
  873MOL0     C17748   3.939   1.892   1.445 -0.4939  0.0358  0.7421
  873MOL0     C17749   4.074   1.880   1.417 -0.3954 -0.8768 -0.3951
  873MOL0     O17750   4.130   1.944   1.308  0.0601  0.3649 -0.2218
  873MOL0     C17751   4.274   1.938   1.290  0.3074  0.7407  1.4479
  873MOL0     C17752   4.352   2.044   1.256  0.8442 -0.1658 -0.2879
  873MOL0     C17753   4.489   2.036   1.216  0.9808  0.3656  1.6250
  873MOL0     C17754   4.544   1.908   1.203 -0.0381 -0.2019 -0.3268
  873MOL0     O17755   4.667   1.903   1.148 -0.8901  0.3272 -0.4766
  873MOL0     C17756   4.778   1.913   1.232 -0.1167  0.0873 -0.2051
  873MOL0     C17757   4.802   2.054   1.296  0.4470 -0.0975  1.0712
  873MOL0     C17758   4.935   2.041   1.375  0.5572  0.4763  0.4969
  873MOL0     C17759   4.931   2.143   1.494  0.0213  0.6819  0.7958
  873MOL0     C17760   5.071   2.148   1.562  0.2282 -0.5975 -0.3434
  873MOL0     C17761   5.054   2.207   1.706 -0.0137 -0.8935 -1.5018
  873MOL0     C17762   5.181   2.232   1.782  0.1851  0.0243  0.1863
  873MOL0     C17763   5.255   2.101   1.809 -0.5628 -0.2210 -0.6343
  873MOL0    Cl17764   5.412   2.103   1.881 -0.0518  0.1898 -0.2457
  873MOL0     C17765   4.472   1.799   1.237 -0.9700  0.8252 -0.3622
  873MOL0     C17766   4.342   1.813   1.280  0.7359  0.1477 -0.5329
  873MOL0     O17767   4.132   1.834   1.514 -0.1911  0.1431  0.5472
  873MOL0     C17768   3.864   1.980   1.367 -0.2762 -0.1330 -0.8351
  873MOL0     C17769   3.725   1.995   1.382  1.2815  0.2804  0.2985
  873MOL0     N17770   3.130   1.509   1.813  0.5817  0.0655  0.3105
  873MOL0     N17771   3.072   1.412   1.879 -0.2005  0.1138  1.0032
  873MOL0     C17772   2.155   0.950   1.271 -0.8143  0.3400  0.3614
  873MOL0     C17773   2.061   1.005   1.184 -0.4669  0.2510 -0.2892
  873MOL0     C17774   1.656   1.162   1.032 -0.3326 -1.1847  0.1946
  873MOL0     C17775   1.744   1.219   0.932  0.7245  0.8771 -1.7719
  873MOL0     C17776   1.691   1.304   0.839  0.4414 -0.0070 -0.1659
  873MOL0     C17777   1.557   1.347   0.835 -0.1169  0.5503 -0.2586
  873MOL0     O17778   1.542   1.445   0.746  0.4392 -0.5763  0.2412
  873MOL0     C17779   1.410   1.480   0.694  0.7392  0.3450  0.5802
  873MOL0     C17780   1.369   1.623   0.748  0.0601  0.6736  0.0591
  873MOL0     C17781   1.404   1.727   0.648  0.0164  0.8206  0.3218
  873MOL0     C17782   1.366   1.866   0.697  0.5017 -0.0422  1.1584
  873MOL0     C17783   1.434   1.972   0.625 -0.0473 -0.2148 -0.6769
  873MOL0     C17784   1.478   2.060   0.562 -0.0531 -0.4947 -0.8570
  873MOL0     C17785   1.470   1.292   0.930  0.4828 -0.1164  0.5126
  873MOL0     C17786   1.517   1.190   1.014 -0.5305 -0.1111 -0.6659
  873MOL0     C17787   1.405   1.125   1.104  0.3721 -0.3744  0.5046
  873MOL0     H17788   1.794   0.912   1.385  0.8870 -1.9609 -0.3629
  873MOL0     H17789   1.962   0.831   1.513 -1.6753 -0.4841 -0.8250
  873MOL0     H17790   2.155   0.887   1.652  1.0200 -0.6011  1.5246
  873MOL0     H17791   2.165   0.716   1.614  0.0531 -0.2331  2.3831
  873MOL0     H17792   2.408   0.736   1.605 -0.7275  0.1868 -1.0320
  873MOL0     H17793   2.323   0.722   1.768 -1.2314  0.3297 -0.3941
  873MOL0     H17794   2.337   0.968   1.806 -1.1313  4.0971 -2.8285
  873MOL0     H17795   2.371   0.993   1.637 -3.9115  1.2609  0.9327
  873MOL0     H17796   2.564   0.851   1.837 -0.1492 -1.0520 -0.1396
  873MOL0     H17797   2.594   0.872   1.660 -0.3588  1.1191 -0.8167
  873MOL0     H17798   2.571   1.142   1.720 -1.0602 -0.1306 -0.3445
  873MOL0     H17799   2.563   1.091   1.885  1.3450  0.4810  0.6138
  873MOL0     H17800   2.801   1.009   1.866  0.1103  0.6791  0.9562
  873MOL0     H17801   2.799   1.008   1.688  1.6806  2.5333 -0.4751
  873MOL0     H17802   2.764   1.254   1.878  2.0867 -0.7248  1.8163
  873MOL0     H17803   2.797   1.250   1.698 -2.4997 -2.9063 -1.9228
  873MOL0     H17804   2.983   1.171   1.929 -0.3993  0.4015  0.0027
  873MOL0     H17805   3.004   1.115   1.755  0.4704  0.6849 -0.8345
  873MOL0     H17806   3.099   1.290   1.574 -0.5659 -1.0406  0.5861
  873MOL0     H17807   3.311   1.470   1.536  1.5693  0.9659  1.3037
  873MOL0     H17808   3.174   1.561   1.507 -2.0274 -2.7813  0.1903
  873MOL0     H17809   3.263   1.729   1.688 -2.2321 -0.6456 -1.9149
  873MOL0     H17810   3.407   1.629   1.717  0.8287  1.5228 -0.3969
  873MOL0     H17811   3.325   1.745   1.442  0.9322 -0.1773  0.2958
  873MOL0     H17812   3.484   1.679   1.486 -0.3042 -0.5930 -1.9596
  873MOL0     H17813   3.486   1.869   1.673 -0.2697  3.0028  1.1685
  873MOL0     H17814   3.358   1.935   1.583  0.7526 -0.3163  0.1557
  873MOL0     H17815   3.684   1.761   1.627  1.5088 -1.1463 -0.7641
  873MOL0     H17816   3.915   1.751   1.608  2.3434  1.7472 -0.3473
  873MOL0     H17817   4.313   2.146   1.263  1.7312  0.1081  0.9627
  873MOL0     H17818   4.547   2.122   1.185 -1.4588  1.5443  0.0722
  873MOL0     H17819   4.754   1.860   1.324 -3.0738 -1.3786 -1.7051
  873MOL0     H17820   4.873   1.888   1.184 -0.2889 -0.6599 -0.1590
  873MOL0     H17821   4.810   2.127   1.216  1.0643 -2.1238 -0.8110
  873MOL0     H17822   4.717   2.077   1.362  1.0030 -2.5969  2.8332
  873MOL0     H17823   4.934   1.947   1.431  0.1896  1.3319  1.9838
  873MOL0     H17824   5.026   2.040   1.314  0.7229 -0.8957  0.7332
  873MOL0     H17825   4.855   2.110   1.565  0.3832  1.8493  1.7516
  873MOL0     H17826   4.915   2.247   1.464  0.4296  1.2787  2.5363
  873MOL0     H17827   5.131   2.212   1.497  0.2491 -2.0349 -1.8275
  873MOL0     H17828   5.118   2.049   1.550  0.7828 -0.2697 -1.0068
  873MOL0     H17829   5.003   2.303   1.697  2.1319  0.4669 -0.1333
  873MOL0     H17830   4.977   2.149   1.758  2.0716 -1.4293  1.2083
  873MOL0     H17831   5.148   2.275   1.878  3.6408 -0.1662  1.5869
  873MOL0     H17832   5.235   2.310   1.727  0.2636 -0.6764 -0.7453
  873MOL0     H17833   5.202   2.036   1.879  2.8197 -0.8705  1.5490
  873MOL0     H17834   5.267   2.049   1.713 -0.2820 -3.0448  0.8210
  873MOL0     H17835   4.510   1.699   1.224 -0.5711  1.0461 -0.8825
  873MOL0     H17836   4.281   1.724   1.289  0.5951  0.4668  3.3250
  873MOL0     H17837   3.915   2.038   1.290 -0.0881  1.4534  0.4501
  873MOL0     H17838   3.662   2.063   1.324  0.0178 -0.0774  1.2001
  873MOL0     H17839   2.262   0.967   1.263 -0.5025  1.2910  4.2197
  873MOL0     H17840   2.109   1.048   1.096 -0.2932 -2.0813 -1.3983
  873MOL0     H17841   1.851   1.198   0.931  0.2121 -2.2985 -2.5074
  873MOL0     H17842   1.752   1.363   0.771  1.8887 -1.0842  0.1434
  873MOL0     H17843   1.329   1.412   0.725  0.7891 -0.2460 -0.5622
  873MOL0     H17844   1.397   1.465   0.587  2.2935  0.3082  0.3770
  873MOL0     H17845   1.408   1.643   0.848 -3.2880  1.7578  1.2996
  873MOL0     H17846   1.261   1.621   0.764 -0.1536 -0.8012 -1.2720
  873MOL0     H17847   1.355   1.695   0.555  0.9147  1.5761 -0.4375
  873MOL0     H17848   1.507   1.706   0.616 -1.3062 -3.4767 -1.9518
  873MOL0     H17849   1.258   1.875   0.682 -0.0181  1.3572  4.7099
  873MOL0     H17850   1.370   1.893   0.803  0.5259  0.0174  1.1431
  873MOL0     H17851   1.526   2.142   0.512  1.5061 -3.0871 -4.0018
  873MOL0     H17852   1.366   1.322   0.923  0.0791 -1.6537 -0.7679
  873MOL0     H17853   1.436   1.132   1.208  0.6044 -0.2164  0.4280
  873MOL0     H17854   1.308   1.173   1.088  1.5539  1.6465 -1.2115
  873MOL0     H17855   1.397   1.020   1.074 -2.6232  0.2669 -1.3674
  874MOL0     O17856   6.257   9.009   4.975  0.2035 -0.5437  0.0496
  874MOL0     C17857   6.176   9.004   5.070  0.3106 -0.3346  0.6776
  874MOL0     O17858   6.203   9.043   5.202  0.0048 -1.0213 -0.3154
  874MOL0     C17859   6.331   9.073   5.238 -0.4510  0.4390 -0.3291
  874MOL0     C17860   6.351   9.197   5.297  1.1449  0.2249  0.1061
  874MOL0     C17861   6.473   9.243   5.319  0.2513 -0.2151 -0.5978
  874MOL0     C17862   6.585   9.162   5.292  0.9259 -0.6147  0.5926
  874MOL0     O17863   6.707   9.206   5.305 -0.8556 -0.0569  0.3843
  874MOL0     C17864   6.782   9.154   5.421  0.3439 -0.0596 -0.9765
  874MOL0     C17865   6.920   9.212   5.408  0.0504 -0.2407  0.1272
  874MOL0     C17866   6.985   9.148   5.291 -0.6620 -1.1739 -0.2700
  874MOL0     C17867   7.141   9.189   5.306  0.3395 -0.8221  0.2511
  874MOL0     C17868   7.229   9.185   5.173 -0.1660 -0.5379 -0.0841
  874MOL0     C17869   7.274   9.038   5.149  0.3681  1.0386  0.4480
  874MOL0     C17870   7.394   9.037   5.052 -0.3858 -0.3588  0.4516
  874MOL0     C17871   7.526   9.071   5.124  0.0865 -0.8192  0.3757
  874MOL0     N17872   7.633   9.082   5.024 -0.2788 -0.3789  0.6838
  874MOL0     C17873   7.726   8.987   4.990  0.1186 -0.6060 -0.1759
  874MOL0     C17874   7.833   9.056   4.937  1.2430 -0.4798 -1.2094
  874MOL0     C17875   7.973   9.010   4.895  0.2014 -0.4854  0.3197
  874MOL0     C17876   7.960   8.890   4.797  0.2431  0.4114 -0.8072
  874MOL0     C17877   7.877   8.931   4.672 -0.5120 -0.4702 -0.5312
  874MOL0     C17878   7.943   9.036   4.579 -1.0714 -0.3276  0.3007
  874MOL0     O17879   8.073   8.976   4.539 -0.4445  0.0661 -0.1935
  874MOL0     C17880   8.194   9.027   4.576  0.4448 -0.5321  0.6231
  874MOL0     C17881   8.304   8.947   4.558 -0.5766  0.0646 -0.1356
  874MOL0     C17882   8.432   8.978   4.600  0.5062 -0.1116  0.4709
  874MOL0     C17883   8.458   9.111   4.650 -0.1701  0.2976  0.0855
  874MOL0     C17884   8.600   9.146   4.689 -0.0468 -0.3888 -0.7683
  874MOL0     O17885   8.672   9.063   4.773 -0.7772 -0.5306  0.1117
  874MOL0     C17886   8.801   9.091   4.807 -0.8717  0.1994  1.1315
  874MOL0     C17887   8.835   9.208   4.878  0.7917  0.6504  1.0502
  874MOL0     C17888   8.956   9.219   4.938  0.0646 -0.5545  1.2029
  874MOL0     C17889   9.055   9.120   4.925 -0.5403 -0.0065 -1.2312
  874MOL0     O17890   9.172   9.140   4.992 -0.9743  0.3603  0.4248
  874MOL0     C17891   9.209   9.028   5.072 -1.0236 -0.1924 -0.5265
  874MOL0     C17892   9.345   9.053   5.136 -0.4875  0.6923 -0.5179
  874MOL0     C17893   9.374   8.927   5.232  0.1359 -0.8112 -1.1051
  874MOL0     C17894   9.519   8.945   5.287  0.6065 -1.3583 -0.3759
  874MOL0     C17895   9.566   8.825   5.373  0.6009 -0.4594 -0.1303
  874MOL0     C17896   9.718   8.844   5.413  0.3328  0.3735 -0.6698
  874MOL0     C17897   9.751   8.746   5.528  0.1106  0.7545 -0.0176
  874MOL0     C17898   9.900   8.707   5.548 -0.3804 -0.0100  0.4401
  874MOL0    Cl17899  10.017   8.828   5.607 -0.5325  0.2338 -0.0564
  874MOL0     C17900   9.024   9.005   4.844 -0.2787 -0.1533  0.4149
  874MOL0     C17901   8.896   8.986   4.784 -0.6263  0.0715  0.5883
  874MOL0     O17902   8.644   9.260   4.657  0.5132  0.0358 -0.0243
  874MOL0     C17903   8.351   9.197   4.678 -0.9024 -0.1676 -0.1284
  874MOL0     C17904   8.215   9.153   4.647  0.3437 -0.3908  0.7377
  874MOL0     N17905   7.796   9.191   4.930  1.1627  0.8467 -0.2086
  874MOL0     N17906   7.684   9.204   4.982 -0.1966  0.4847  0.5602
  874MOL0     C17907   6.566   9.041   5.230 -0.8475  0.0636 -1.2087
  874MOL0     C17908   6.436   8.984   5.214 -0.8193 -0.5351  0.1135
  874MOL0     C17909   6.051   8.938   5.053 -0.4100 -0.1477  0.3723
  874MOL0     C17910   5.973   8.912   5.164  0.3700  1.1714 -0.4318
  874MOL0     C17911   5.852   8.848   5.163  0.0859  0.2082  0.4329
  874MOL0     C17912   5.802   8.807   5.034 -0.2676  0.6805  0.7936
  874MOL0     O17913   5.682   8.748   5.006  0.0620  0.0692  0.5738
  874MOL0     C17914   5.591   8.700   5.100 -0.9798 -0.0758 -0.0208
  874MOL0     C17915   5.509   8.599   5.014  0.3413 -0.9083 -0.0783
  874MOL0     C17916   5.420   8.674   4.918  0.5586  0.6933  0.1172
  874MOL0     C17917   5.296   8.592   4.874 -0.9254  0.0607 -0.7342
  874MOL0     C17918   5.348   8.468   4.813  0.8947  1.3286  0.0085
  874MOL0     C17919   5.386   8.367   4.763  0.0978 -0.6972  0.1884
  874MOL0     C17920   5.879   8.827   4.918 -0.4840  1.4561 -0.6381
  874MOL0     C17921   6.005   8.899   4.930  0.6908  0.1353  0.6508
  874MOL0     C17922   6.064   8.919   4.789 -0.5277 -0.0922 -0.4963
  874MOL0     H17923   6.260   9.255   5.307 -0.7292 -1.9033 -2.8058
  874MOL0     H17924   6.481   9.347   5.350  0.6071 -0.2136 -0.6954
  874MOL0     H17925   6.734   9.195   5.510 -0.9528 -2.0478 -0.7089
  874MOL0     H17926   6.784   9.047   5.440  0.2611  0.4156  2.2564
  874MOL0     H17927   6.972   9.205   5.504 -1.1174 -0.8076  0.7409
  874MOL0     H17928   6.918   9.319   5.385 -0.3702 -0.0160  1.1360
  874MOL0     H17929   6.949   9.200   5.201  3.0288  2.1619 -0.1566
  874MOL0     H17930   6.971   9.040   5.298 -1.1781 -1.1209 -0.4877
  874MOL0     H17931   7.127   9.291   5.342 -1.5084 -0.4100 -1.4198
  874MOL0     H17932   7.192   9.130   5.383 -0.3653 -0.3824  1.0702
  874MOL0     H17933   7.177   9.227   5.086  2.2348  2.1602 -0.3809
  874MOL0     H17934   7.315   9.245   5.207 -0.4183  1.0961 -2.0821
  874MOL0     H17935   7.292   8.984   5.242  1.0956 -1.2509 -0.9300
  874MOL0     H17936   7.195   8.975   5.105  1.8288 -4.2187  4.3118
  874MOL0     H17937   7.368   9.107   4.973  1.2883  0.9005  0.9588
  874MOL0     H17938   7.392   8.936   5.010  0.7932 -0.0121 -0.4576
  874MOL0     H17939   7.519   9.170   5.170  3.3042 -1.5569  2.7977
  874MOL0     H17940   7.555   8.992   5.193 -0.0066 -2.3753 -1.2868
  874MOL0     H17941   7.703   8.881   4.998 -1.3230 -0.3230 -0.3078
  874MOL0     H17942   8.030   9.082   4.835 -2.7868  0.4256 -1.6673
  874MOL0     H17943   8.032   8.998   4.986  1.2842  2.1681  0.0772
  874MOL0     H17944   8.049   8.837   4.762 -2.6751 -3.7272 -2.8531
  874MOL0     H17945   7.899   8.818   4.853  1.0894  1.2917  1.3592
  874MOL0     H17946   7.787   8.971   4.719  0.7207  1.8666 -0.0347
  874MOL0     H17947   7.861   8.844   4.606  1.5594  0.4326 -2.3159
  874MOL0     H17948   7.952   9.137   4.620  2.8690  0.4401 -1.9580
  874MOL0     H17949   7.880   9.045   4.490  1.1293 -1.6051 -1.4798
  874MOL0     H17950   8.289   8.850   4.513 -1.3254  0.1270 -0.0370
  874MOL0     H17951   8.515   8.910   4.583 -0.9593 -2.6547  2.7013
  874MOL0     H17952   8.765   9.288   4.897  0.7884  0.3559  2.3978
  874MOL0     H17953   8.991   9.312   4.983  1.9779  0.2909 -1.7397
  874MOL0     H17954   9.130   9.020   5.147 -1.1842 -0.5560 -0.7291
  874MOL0     H17955   9.207   8.929   5.024 -1.1560 -1.3139  1.6749
  874MOL0     H17956   9.409   9.052   5.047 -0.5542  1.6405 -0.5880
  874MOL0     H17957   9.345   9.149   5.188 -2.4501 -0.2534  1.3450
  874MOL0     H17958   9.310   8.925   5.320 -0.3541  1.0059 -1.3664
  874MOL0     H17959   9.367   8.833   5.177 -0.0418  0.7895 -4.0174
  874MOL0     H17960   9.521   9.042   5.339 -2.5544 -1.8959  0.9289
  874MOL0     H17961   9.595   8.946   5.208  1.2385  0.3593  0.2019
  874MOL0     H17962   9.548   8.726   5.328  0.0363 -0.2817 -0.3033
  874MOL0     H17963   9.498   8.833   5.458 -0.8085  0.5168 -1.2922
  874MOL0     H17964   9.796   8.842   5.337  4.5115  1.0347  3.1917
  874MOL0     H17965   9.724   8.948   5.448  0.5941  0.4094 -0.8241
  874MOL0     H17966   9.702   8.649   5.516 -0.5986  0.8114  2.0959
  874MOL0     H17967   9.704   8.794   5.614 -3.5105  1.1694 -2.0056
  874MOL0     H17968   9.906   8.616   5.609  0.1001 -1.1578 -1.2485
  874MOL0     H17969   9.932   8.672   5.449 -0.1353 -0.2771  0.6125
  874MOL0     H17970   9.100   8.929   4.831  1.2173  1.0763  1.6168
  874MOL0     H17971   8.877   8.891   4.735 -0.9578  0.8046 -0.7602
  874MOL0     H17972   8.380   9.283   4.737  2.5855 -1.8987  0.9369
  874MOL0     H17973   8.129   9.217   4.662 -1.4303 -2.1488 -1.1917
  874MOL0     H17974   6.659   8.990   5.204 -0.2577  1.1934 -1.3906
  874MOL0     H17975   6.417   8.880   5.187  1.9369 -0.4503 -2.6685
  874MOL0     H17976   6.003   8.936   5.266  0.1358 -2.2343  0.5594
  874MOL0     H17977   5.786   8.834   5.248  1.0208  0.6347  1.2507
  874MOL0     H17978   5.524   8.776   5.142 -1.5174 -0.3753 -0.3120
  874MOL0     H17979   5.643   8.633   5.169 -0.8044 -1.2734 -1.2713
  874MOL0     H17980   5.449   8.544   5.087  1.4176  0.5111  1.9641
  874MOL0     H17981   5.571   8.530   4.956  0.7689  1.4317 -2.6167
  874MOL0     H17982   5.491   8.709   4.842  0.9689  0.4978  0.4068
  874MOL0     H17983   5.371   8.760   4.965 -0.5889  0.7194 -1.0739
  874MOL0     H17984   5.248   8.579   4.971 -1.4226  0.9630 -0.8491
  874MOL0     H17985   5.229   8.651   4.811 -3.3763  0.6945  2.2468
  874MOL0     H17986   5.397   8.275   4.711  0.6965 -1.0195  0.8786
  874MOL0     H17987   5.841   8.803   4.819 -1.1289 -0.2091 -0.0208
  874MOL0     H17988   6.008   8.900   4.697 -0.9152 -0.4954 -0.1845
  874MOL0     H17989   6.105   9.020   4.777 -2.3061  0.9314  1.3784
  874MOL0     H17990   6.156   8.859   4.790  0.4737  1.3893  0.2333
  875MOL0     O17991   7.843   2.484   7.293 -0.0849 -0.0544 -0.1450
  875MOL0     C17992   7.867   2.577   7.211 -0.0886 -0.3129 -0.1813
  875MOL0     O17993   7.799   2.695   7.199 -0.4716 -0.1510 -0.0224
  875MOL0     C17994   7.666   2.711   7.231 -0.4029  0.4930 -1.0208
  875MOL0     C17995   7.577   2.610   7.278 -0.0319  0.2727  0.8037
  875MOL0     C17996   7.445   2.643   7.298 -0.3161  0.0725  0.2353
  875MOL0     C17997   7.396   2.767   7.270  0.3166  0.0671 -0.5261
  875MOL0     O17998   7.270   2.802   7.295  0.5560  0.0973 -0.5616
  875MOL0     C17999   7.170   2.743   7.215 -0.2972  0.0887  0.1804
  875MOL0     C18000   7.082   2.857   7.172  0.2084 -0.2388 -0.8000
  875MOL0     C18001   6.945   2.809   7.111  0.9466  0.4033 -0.3304
  875MOL0     C18002   6.874   2.697   7.198  0.1021  0.0899 -0.2184
  875MOL0     C18003   6.735   2.651   7.140  0.3461 -0.0526 -0.0990
  875MOL0     C18004   6.725   2.503   7.098  0.3650  1.0895  0.3959
  875MOL0     C18005   6.822   2.460   6.984  0.1722  0.7181  0.8924
  875MOL0     C18006   6.792   2.508   6.845  0.3789  0.6613  0.4441
  875MOL0     N18007   6.703   2.409   6.776 -0.2562 -0.2040  0.1081
  875MOL0     C18008   6.569   2.406   6.795 -0.3929  0.9067  0.3489
  875MOL0     C18009   6.533   2.287   6.746 -0.5655  0.0012  0.0120
  875MOL0     C18010   6.390   2.277   6.710  0.2579 -0.4190  0.0466
  875MOL0     C18011   6.371   2.275   6.560  0.0957  0.5609  0.0666
  875MOL0     C18012   6.410   2.404   6.503  0.5152  0.4668 -0.4487
  875MOL0     C18013   6.340   2.441   6.373 -0.4492  0.4825 -0.8629
  875MOL0     O18014   6.213   2.477   6.401 -0.6795  0.1725 -0.1056
  875MOL0     C18015   6.135   2.551   6.316  0.1166 -0.6614 -0.4186
  875MOL0     C18016   6.156   2.586   6.182  0.2456 -0.7859 -0.2218
  875MOL0     C18017   6.043   2.630   6.099 -0.9588  0.4583  0.2567
  875MOL0     C18018   5.921   2.644   6.161  0.4596 -0.5846 -0.8291
  875MOL0     C18019   5.800   2.680   6.083  0.5004 -0.8955 -0.0183
  875MOL0     O18020   5.832   2.776   5.987  0.0299 -0.2862 -0.2446
  875MOL0     C18021   5.732   2.840   5.914 -1.0747  0.3378  0.8870
  875MOL0     C18022   5.649   2.770   5.814 -0.1621 -0.0385 -0.0265
  875MOL0     C18023   5.547   2.849   5.759  0.2774 -0.1112  0.0224
  875MOL0     C18024   5.532   2.986   5.785  0.2339  0.2411  0.2056
  875MOL0     O18025   5.440   3.061   5.719  0.4394  1.0467 -0.1163
  875MOL0     C18026   5.340   3.136   5.791  0.4690  0.0805  0.7740
  875MOL0     C18027   5.316   3.268   5.711 -0.1896 -0.0429 -0.2947
  875MOL0     C18028   5.221   3.367   5.771 -1.1273  0.4557  0.6014
  875MOL0     C18029   5.178   3.473   5.664 -0.1010  0.5235 -0.4873
  875MOL0     C18030   5.070   3.563   5.722 -0.7402 -0.4837  0.1194
  875MOL0     C18031   5.013   3.640   5.607 -0.0437  0.1129  0.2849
  875MOL0     C18032   4.925   3.766   5.649  0.0378  0.3847  0.2913
  875MOL0     C18033   4.918   3.869   5.538  0.2968 -0.6683 -0.3381
  875MOL0    Cl18034   4.821   3.995   5.614  0.2882  0.1133 -0.2167
  875MOL0     C18035   5.609   3.042   5.884 -0.1570 -0.2728  1.1369
  875MOL0     C18036   5.710   2.975   5.948 -0.6777 -0.1676  0.8275
  875MOL0     O18037   5.695   2.638   6.112 -0.4643  0.4899 -0.1769
  875MOL0     C18038   5.896   2.617   6.293  0.1152  1.0912 -0.6887
  875MOL0     C18039   6.007   2.575   6.364 -0.9283  0.8343 -0.9324
  875MOL0     N18040   6.645   2.217   6.700 -0.0681  0.3649  0.0335
  875MOL0     N18041   6.744   2.296   6.712 -0.2519 -0.1386 -0.0314
  875MOL0     C18042   7.479   2.870   7.232 -0.7214 -0.3260  0.5195
  875MOL0     C18043   7.619   2.845   7.215  0.3155  0.0023  0.4726
  875MOL0     C18044   7.986   2.556   7.124 -0.0021  1.0928  0.0530
  875MOL0     C18045   8.044   2.427   7.126 -1.3685  0.3511 -0.2259
  875MOL0     C18046   8.152   2.387   7.040 -0.3058 -0.5995  0.1920
  875MOL0     C18047   8.215   2.490   6.963  0.2251  0.5667  0.0262
  875MOL0     O18048   8.327   2.460   6.892 -0.3241  0.7742 -0.0507
  875MOL0     C18049   8.417   2.561   6.853  0.6594 -0.1423  0.1191
  875MOL0     C18050   8.552   2.494   6.837  0.3457 -0.9149  0.2783
  875MOL0     C18051   8.667   2.591   6.855 -0.0999  0.1080 -0.2200
  875MOL0     C18052   8.708   2.583   7.010  0.7540  0.2681  0.5683
  875MOL0     C18053   8.847   2.622   7.041  0.2398 -0.3457  0.5310
  875MOL0     C18054   8.965   2.653   7.049 -0.2802  0.2878  0.0149
  875MOL0     C18055   8.166   2.620   6.972 -0.8301 -0.3402  0.0900
  875MOL0     C18056   8.052   2.651   7.047  0.3853 -0.5467 -0.0687
  875MOL0     C18057   7.999   2.790   7.027 -0.0070 -0.0812  0.3137
  875MOL0     H18058   7.602   2.505   7.270 -1.9637 -0.3377  2.1666
  875MOL0     H18059   7.366   2.574   7.329 -1.8326  1.4286 -0.4578
  875MOL0     H18060   7.215   2.703   7.124 -1.0842  1.5601 -0.8849
  875MOL0     H18061   7.124   2.659   7.268 -0.9123  0.4076  0.1533
  875MOL0     H18062   7.127   2.932   7.105  0.5384  1.7973  1.5491
  875MOL0     H18063   7.052   2.917   7.258  0.1733 -0.2048 -0.8360
  875MOL0     H18064   6.964   2.759   7.016 -2.0121 -2.1045  0.2354
  875MOL0     H18065   6.874   2.892   7.108  3.4114  2.7950  2.1534
  875MOL0     H18066   6.935   2.606   7.207 -2.3365 -1.5276  0.8417
  875MOL0     H18067   6.864   2.738   7.299  0.5282  1.3830 -0.6790
  875MOL0     H18068   6.657   2.676   7.213  0.7509  1.2970 -0.1020
  875MOL0     H18069   6.724   2.713   7.051  0.1209  2.5015  1.6021
  875MOL0     H18070   6.724   2.440   7.188 -0.1683  2.4066  1.3367
  875MOL0     H18071   6.623   2.483   7.065 -0.5083 -0.2391  3.5447
  875MOL0     H18072   6.822   2.351   6.973 -2.1338  0.8214 -0.8899
  875MOL0     H18073   6.925   2.487   7.010  1.7568 -3.3607 -0.3873
  875MOL0     H18074   6.741   2.603   6.864 -0.8826 -0.0829  0.8775
  875MOL0     H18075   6.883   2.529   6.788  1.4867 -0.6111  1.6838
  875MOL0     H18076   6.495   2.469   6.842 -0.5881  1.2734 -0.4294
  875MOL0     H18077   6.349   2.185   6.754  0.1032 -1.3507 -1.9536
  875MOL0     H18078   6.331   2.353   6.763  1.8534 -1.8341  4.2705
  875MOL0     H18079   6.431   2.195   6.516  1.1077  0.6475  1.2197
  875MOL0     H18080   6.266   2.261   6.535  0.0578 -1.5826  1.2157
  875MOL0     H18081   6.519   2.395   6.496  0.9161  1.4322  3.0899
  875MOL0     H18082   6.384   2.485   6.572  0.5089  2.0921 -2.2568
  875MOL0     H18083   6.350   2.364   6.296 -1.4924  0.5894 -1.1180
  875MOL0     H18084   6.406   2.518   6.333  0.9578  0.3047  0.9357
  875MOL0     H18085   6.251   2.560   6.138  0.6480 -0.8723  0.6643
  875MOL0     H18086   6.056   2.644   5.992  0.3478  0.3551  0.3792
  875MOL0     H18087   5.656   2.667   5.779 -1.2838 -0.0201 -0.3352
  875MOL0     H18088   5.492   2.790   5.686  1.9892 -0.6927 -0.8380
  875MOL0     H18089   5.243   3.085   5.795 -0.4276  1.2577 -2.4925
  875MOL0     H18090   5.374   3.173   5.888 -0.7435  0.7529  0.9656
  875MOL0     H18091   5.410   3.323   5.707 -0.4701  0.4307 -0.5604
  875MOL0     H18092   5.282   3.268   5.607  2.3074  4.2683 -1.3449
  875MOL0     H18093   5.139   3.307   5.811  0.2563 -1.7992  0.2372
  875MOL0     H18094   5.281   3.424   5.843  0.1413  2.1688 -1.6842
  875MOL0     H18095   5.147   3.411   5.579 -0.3164 -2.2246  1.4453
  875MOL0     H18096   5.259   3.535   5.625  0.9144  1.0078  2.1812
  875MOL0     H18097   5.112   3.638   5.790  1.0394  0.3998 -1.8242
  875MOL0     H18098   4.979   3.519   5.765 -0.9859 -0.8435 -0.7531
  875MOL0     H18099   5.094   3.668   5.539  0.7614  2.4273  2.0269
  875MOL0     H18100   4.944   3.571   5.559  1.4450 -1.3185  0.1159
  875MOL0     H18101   4.962   3.805   5.745  2.3280 -2.2690  0.6248
  875MOL0     H18102   4.823   3.725   5.655  0.5168 -1.3328 -1.9880
  875MOL0     H18103   5.018   3.900   5.505 -0.2414  0.5372 -0.8872
  875MOL0     H18104   4.867   3.817   5.456  1.3002  0.2585 -1.5963
  875MOL0     H18105   5.591   3.148   5.900  0.3715 -0.0724  0.4679
  875MOL0     H18106   5.773   3.024   6.023 -2.2179  0.1730  1.9468
  875MOL0     H18107   5.796   2.616   6.337  0.3538 -1.5742 -0.0542
  875MOL0     H18108   5.985   2.529   6.460 -3.1414 -1.2296 -2.3278
  875MOL0     H18109   7.436   2.969   7.240 -2.5206 -0.8655 -1.6060
  875MOL0     H18110   7.689   2.922   7.185 -1.6795  3.2494  3.3865
  875MOL0     H18111   8.007   2.344   7.186  0.6897 -0.9104 -0.5819
  875MOL0     H18112   8.195   2.287   7.042  1.8903  0.2960  2.3030
  875MOL0     H18113   8.420   2.643   6.926  0.4767 -1.2242  1.3853
  875MOL0     H18114   8.375   2.600   6.760 -2.2332 -0.6279  1.1132
  875MOL0     H18115   8.561   2.465   6.732 -0.0872 -0.0774 -0.0012
  875MOL0     H18116   8.552   2.411   6.909 -0.0506  0.6127  2.1000
  875MOL0     H18117   8.640   2.691   6.821 -1.0794  0.0672  0.4144
  875MOL0     H18118   8.758   2.564   6.800 -1.0203  1.1668 -2.4028
  875MOL0     H18119   8.631   2.640   7.063 -0.4878 -0.8563  0.0259
  875MOL0     H18120   8.703   2.480   7.046  0.5875 -0.5411 -1.6037
  875MOL0     H18121   9.066   2.686   7.062 -0.1403  0.0080 -0.3413
  875MOL0     H18122   8.219   2.708   6.937 -0.9835 -1.5325 -3.5511
  875MOL0     H18123   7.897   2.782   6.989  0.9073 -1.9669 -1.9333
  875MOL0     H18124   7.998   2.841   7.124 -3.4202 -0.3726  0.5489
  875MOL0     H18125   8.050   2.852   6.954 -1.4941 -0.0472 -0.7352
  876MOL0     O18126   9.050   0.864   2.260 -0.4031  0.5463  0.1091
  876MOL0     C18127   8.978   0.921   2.180 -0.9628 -0.5866  0.8418
  876MOL0     O18128   8.867   0.857   2.125  0.4672 -0.2245  0.0292
  876MOL0     C18129   8.836   0.724   2.156  0.2270  0.3267 -0.1163
  876MOL0     C18130   8.780   0.684   2.276  0.8687 -0.0325 -0.2379
  876MOL0     C18131   8.752   0.548   2.299  0.5440  0.0038  0.6717
  876MOL0     C18132   8.778   0.448   2.202  0.9461 -0.3877  0.3954
  876MOL0     O18133   8.746   0.321   2.241 -0.2338  0.2231 -0.3963
  876MOL0     C18134   8.824   0.206   2.215 -0.6249 -0.6010  0.1887
  876MOL0     C18135   8.939   0.195   2.310 -0.0876  0.5033 -0.2858
  876MOL0     C18136   8.999   0.055   2.288  1.1311 -0.2466 -0.2253
  876MOL0     C18137   9.144   0.035   2.315 -1.5261 -1.4765  0.1721
  876MOL0     C18138   9.171   0.046   2.467  0.3212  0.3000  0.1931
  876MOL0     C18139   9.323   0.039   2.502 -0.9340  0.3597 -0.7995
  876MOL0     C18140   9.334   0.009   2.652 -0.2861 -1.6517  0.1339
  876MOL0     C18141   9.294  -0.135   2.683 -0.2991  0.2405 -0.3036
  876MOL0     N18142   9.369  -0.240   2.609 -0.2244 -0.1735 -0.0729
  876MOL0     C18143   9.504  -0.266   2.603 -0.0097  0.4601  0.7731
  876MOL0     C18144   9.519  -0.351   2.504 -0.8427 -0.8800 -0.1858
  876MOL0     C18145   9.646  -0.402   2.456 -0.6739  0.2362 -0.0405
  876MOL0     C18146   9.682  -0.359   2.309  0.0961 -0.2987  0.1269
  876MOL0     C18147   9.773  -0.238   2.296  0.5698  0.9689  1.8896
  876MOL0     C18148   9.709  -0.113   2.358  0.6486 -0.3756 -0.0100
  876MOL0     O18149   9.745   0.020   2.304 -0.1572 -0.0761 -0.0234
  876MOL0     C18150   9.886   0.041   2.309 -0.3460  0.0330 -0.0229
  876MOL0     C18151   9.945   0.114   2.207 -1.4779  0.6547  0.4260
  876MOL0     C18152  10.079   0.155   2.228 -0.9730 -0.5257  0.7112
  876MOL0     C18153  10.163   0.106   2.335  0.4851 -0.1082  0.1458
  876MOL0     C18154  10.303   0.145   2.348 -0.2702 -0.1529  1.3693
  876MOL0     O18155  10.356   0.226   2.257  0.4383 -0.6335  0.3858
  876MOL0     C18156  10.484   0.271   2.280 -0.2688 -0.4130 -0.5269
  876MOL0     C18157  10.511   0.351   2.400 -0.3370  0.3739  0.0885
  876MOL0     C18158  10.637   0.418   2.424  0.3553  0.2174 -0.1230
  876MOL0     C18159  10.737   0.394   2.325  0.3505  0.5143 -0.4041
  876MOL0     O18160  10.863   0.442   2.336 -0.1397 -0.0047  0.6699
  876MOL0     C18161  10.917   0.499   2.455  0.7672 -0.6680 -0.5464
  876MOL0     C18162  10.999   0.621   2.421  0.7065 -0.3154 -0.7998
  876MOL0     C18163  11.043   0.699   2.544  0.2074 -0.3053  0.4394
  876MOL0     C18164  11.121   0.603   2.643  0.2247 -0.8043  1.1546
  876MOL0     C18165  11.245   0.514   2.593  0.8800 -0.7108  0.5363
  876MOL0     C18166  11.269   0.394   2.686  0.6475 -0.8651  0.0110
  876MOL0     C18167  11.298   0.442   2.831  0.1448  0.4387  0.8474
  876MOL0     C18168  11.307   0.332   2.936 -0.4746 -0.8582  1.0141
  876MOL0    Cl18169  11.325   0.388   3.104  0.1932  0.0200  0.1310
  876MOL0     C18170  10.701   0.322   2.210 -0.4884  0.3590  0.7425
  876MOL0     C18171  10.581   0.260   2.178  1.0280 -0.2775 -0.0352
  876MOL0     O18172  10.364   0.082   2.432  0.1902 -0.0029  0.3234
  876MOL0     C18173  10.095   0.034   2.430  0.6909 -1.2070  0.7281
  876MOL0     C18174   9.956  -0.004   2.425 -0.0260 -0.8735 -0.2695
  876MOL0     N18175   9.394  -0.390   2.453  0.1611 -0.6889  0.2287
  876MOL0     N18176   9.308  -0.314   2.516  0.8212  0.3892  0.1635
  876MOL0     C18177   8.831   0.484   2.081 -0.1897 -1.4406  1.1973
  876MOL0     C18178   8.868   0.620   2.059  0.1543  0.0367  0.6804
  876MOL0     C18179   9.014   1.066   2.139  0.0448 -0.3286  0.3578
  876MOL0     C18180   8.934   1.130   2.040 -0.7870 -0.2374  0.0322
  876MOL0     C18181   8.957   1.262   1.995  0.4088  0.9943 -0.0320
  876MOL0     C18182   9.061   1.337   2.055  0.7946  1.2958 -0.2435
  876MOL0     O18183   9.100   1.460   2.012  0.3739 -0.0515 -0.0465
  876MOL0     C18184   9.007   1.563   2.026  0.1663 -0.2317  0.3233
  876MOL0     C18185   9.098   1.688   2.017  0.2199  0.1094 -0.1244
  876MOL0     C18186   9.219   1.699   2.114 -0.5213  0.9971  0.4955
  876MOL0     C18187   9.290   1.833   2.112  1.2906 -1.0483  0.6513
  876MOL0     C18188   9.379   1.846   2.224  0.7579 -0.2523 -0.4521
  876MOL0     C18189   9.460   1.853   2.315 -0.1082  0.0976  0.1283
  876MOL0     C18190   9.129   1.287   2.166 -0.9360  0.0342  0.4571
  876MOL0     C18191   9.112   1.149   2.196  0.0887  0.6200  0.0058
  876MOL0     C18192   9.202   1.103   2.313 -0.4984  0.0959 -0.4638
  876MOL0     H18193   8.762   0.759   2.353 -1.2150  1.5079 -2.0879
  876MOL0     H18194   8.719   0.528   2.400  0.5688  3.1794  1.4174
  876MOL0     H18195   8.755   0.121   2.214  0.6891 -1.8444 -3.7086
  876MOL0     H18196   8.856   0.219   2.111  0.2300  0.6964  0.5902
  876MOL0     H18197   8.899   0.213   2.410  0.9388  0.5907  0.1314
  876MOL0     H18198   9.008   0.276   2.285 -2.5798  2.7726 -0.2310
  876MOL0     H18199   8.997   0.034   2.181  4.4888 -0.5363 -0.3352
  876MOL0     H18200   8.944  -0.025   2.338  1.8861 -0.6976 -0.1150
  876MOL0     H18201   9.188  -0.063   2.293 -0.9908 -1.4725  1.1527
  876MOL0     H18202   9.200   0.116   2.267 -0.4961 -1.5226  1.2614
  876MOL0     H18203   9.129   0.144   2.493  2.0621  1.9939 -2.7786
  876MOL0     H18204   9.117  -0.036   2.514  0.2089  0.2613 -0.0031
  876MOL0     H18205   9.381  -0.031   2.441 -0.3615  0.7119 -0.6685
  876MOL0     H18206   9.375   0.134   2.489 -2.7785  1.4614 -0.4505
  876MOL0     H18207   9.279   0.086   2.706  0.6371 -1.1142  0.3323
  876MOL0     H18208   9.434   0.029   2.692 -0.9312 -0.0290  1.0246
  876MOL0     H18209   9.319  -0.152   2.788  4.5547 -0.9620 -1.3997
  876MOL0     H18210   9.187  -0.157   2.685  0.2857 -3.0992  0.4618
  876MOL0     H18211   9.580  -0.231   2.672 -0.3358  1.8524  0.4554
  876MOL0     H18212   9.729  -0.363   2.516  1.3225  0.3667 -2.6964
  876MOL0     H18213   9.645  -0.511   2.469 -2.8845  0.0688 -1.2140
  876MOL0     H18214   9.726  -0.448   2.264 -1.5094 -1.9401  1.6651
  876MOL0     H18215   9.589  -0.333   2.258  1.1719 -0.0517 -1.8318
  876MOL0     H18216   9.785  -0.212   2.190  4.0109 -0.2234  1.8433
  876MOL0     H18217   9.875  -0.261   2.328  1.0789  1.6203  0.8045
  876MOL0     H18218   9.720  -0.115   2.467 -0.6194 -0.0246  0.1293
  876MOL0     H18219   9.601  -0.120   2.349  0.5743  1.1343 -0.5266
  876MOL0     H18220   9.886   0.142   2.120  0.4990 -0.0347 -1.2063
  876MOL0     H18221  10.124   0.215   2.149  2.1947 -2.8727  0.5220
  876MOL0     H18222  10.426   0.369   2.466 -3.0482 -1.5054 -2.6274
  876MOL0     H18223  10.639   0.485   2.509 -1.0682 -0.0295  0.1340
  876MOL0     H18224  10.843   0.529   2.530 -0.7352 -0.3174 -2.0953
  876MOL0     H18225  10.986   0.423   2.492  1.6308  0.4430  0.2302
  876MOL0     H18226  11.082   0.595   2.355  0.2307 -0.2208 -1.4392
  876MOL0     H18227  10.930   0.684   2.365 -0.7568 -0.3288  0.8895
  876MOL0     H18228  11.112   0.775   2.507 -2.6055  1.8157 -0.8177
  876MOL0     H18229  10.964   0.761   2.588  0.5012  0.9666 -0.7590
  876MOL0     H18230  11.045   0.540   2.689  1.1509 -1.6119  1.6019
  876MOL0     H18231  11.158   0.670   2.722  2.5157 -1.5985  0.8265
  876MOL0     H18232  11.329   0.585   2.593 -1.1023  1.8782 -1.8023
  876MOL0     H18233  11.224   0.479   2.491  1.0700 -3.8147  1.4695
  876MOL0     H18234  11.181   0.330   2.701  1.7869 -2.5595 -0.3194
  876MOL0     H18235  11.347   0.329   2.647  0.1648 -1.3286 -0.1958
  876MOL0     H18236  11.216   0.496   2.878 -0.8351 -2.1138  2.2747
  876MOL0     H18237  11.391   0.498   2.821  1.7396 -2.2792 -0.9693
  876MOL0     H18238  11.217   0.270   2.942 -0.9152 -1.0140 -3.6746
  876MOL0     H18239  11.396   0.273   2.912  0.0065  0.5553 -0.9205
  876MOL0     H18240  10.777   0.301   2.135 -1.7060  0.5484 -0.5829
  876MOL0     H18241  10.561   0.203   2.087 -1.4950  0.2802  0.0916
  876MOL0     H18242  10.154   0.000   2.514 -0.1214 -0.5050  1.6016
  876MOL0     H18243   9.910  -0.051   2.511  1.8511 -2.9287 -0.3077
  876MOL0     H18244   8.852   0.409   2.005  1.4869 -0.6840  0.8706
  876MOL0     H18245   8.917   0.634   1.963  1.2933 -0.8658  1.1093
  876MOL0     H18246   8.850   1.077   1.995 -1.4192  0.8645 -0.1317
  876MOL0     H18247   8.896   1.312   1.920 -2.4090 -0.3966  1.1818
  876MOL0     H18248   8.976   1.551   2.130 -1.1880 -1.3256 -0.1702
  876MOL0     H18249   8.926   1.560   1.952  0.9672  1.3742 -0.6746
  876MOL0     H18250   9.042   1.775   2.051  2.8574  1.2104  1.7154
  876MOL0     H18251   9.135   1.697   1.914  2.6191 -3.6949  0.2027
  876MOL0     H18252   9.297   1.628   2.084 -1.1740  0.5750 -0.2484
  876MOL0     H18253   9.203   1.670   2.218  2.4083 -2.2651  0.2309
  876MOL0     H18254   9.344   1.855   2.020 -2.2963  4.1821 -0.6087
  876MOL0     H18255   9.221   1.917   2.117  0.8438 -1.3861  0.2764
  876MOL0     H18256   9.531   1.866   2.394  1.1189 -2.4724 -0.4264
  876MOL0     H18257   9.190   1.355   2.225 -0.2880  1.8199 -2.1306
  876MOL0     H18258   9.289   1.049   2.274  1.8017  1.6193  2.2160
  876MOL0     H18259   9.232   1.187   2.376 -2.0540 -0.1232  0.6230
  876MOL0     H18260   9.156   1.035   2.385  3.0976 -1.2661  0.8036
  877MOL0     O18261   4.591   8.601   2.598 -0.2155 -0.7474 -0.3910
  877MOL0     C18262   4.506   8.629   2.517 -0.2499  0.2971 -0.2933
  877MOL0     O18263   4.402   8.723   2.543  0.0983  0.2858  0.1046
  877MOL0     C18264   4.418   8.785   2.667  0.5936 -1.2926 -0.6014
  877MOL0     C18265   4.379   8.720   2.785 -0.7930 -0.1478 -0.7116
  877MOL0     C18266   4.397   8.770   2.910  1.0981 -0.1075 -0.5211
  877MOL0     C18267   4.459   8.902   2.925  0.8452  0.2846  0.4320
  877MOL0     O18268   4.473   8.965   3.043 -0.3227 -0.7279 -0.7817
  877MOL0     C18269   4.357   8.975   3.128  0.7922  0.4744 -0.3200
  877MOL0     C18270   4.252   9.071   3.066  0.7796  1.4093  0.0215
  877MOL0     C18271   4.308   9.220   3.067  0.5958 -0.2292  0.7021
  877MOL0     C18272   4.278   9.297   3.203 -0.1273  0.5719  0.2075
  877MOL0     C18273   4.345   9.432   3.208  0.7531 -0.2437  0.4984
  877MOL0     C18274   4.359   9.482   3.349  0.1285 -0.8080  0.2009
  877MOL0     C18275   4.228   9.553   3.391  1.0181 -0.5203 -0.3889
  877MOL0     C18276   4.206   9.562   3.544 -0.8314  0.6878 -0.3764
  877MOL0     N18277   4.149   9.451   3.613  0.4720 -0.4500  0.3111
  877MOL0     C18278   4.022   9.388   3.588 -0.3931 -0.5470  0.4219
  877MOL0     C18279   4.016   9.286   3.676 -0.4391 -0.0524 -0.8407
  877MOL0     C18280   3.901   9.199   3.681  0.3013 -0.3945  0.1985
  877MOL0     C18281   3.804   9.237   3.796  0.2350  0.4272 -0.0989
  877MOL0     C18282   3.682   9.135   3.805 -1.0895  0.2380  0.0178
  877MOL0     C18283   3.585   9.185   3.907  0.3790 -0.2015 -0.3789
  877MOL0     O18284   3.475   9.099   3.932  0.0002 -0.1563 -0.2472
  877MOL0     C18285   3.410   9.096   4.054  0.8360  0.5157 -0.1290
  877MOL0     C18286   3.436   9.171   4.164  0.6713 -0.3327  0.6956
  877MOL0     C18287   3.359   9.144   4.273  0.7706 -0.8077 -0.0019
  877MOL0     C18288   3.261   9.045   4.285  0.1745 -0.5612 -0.0823
  877MOL0     C18289   3.177   9.022   4.397  0.1290  0.4581 -0.3828
  877MOL0     O18290   3.112   8.898   4.400 -0.5275  0.0702  0.1467
  877MOL0     C18291   3.015   8.879   4.494  0.0069  0.4241  0.0954
  877MOL0     C18292   2.882   8.856   4.457  0.1999  0.9310 -0.1344
  877MOL0     C18293   2.788   8.828   4.557 -0.8245  1.2808  0.3644
  877MOL0     C18294   2.823   8.816   4.689 -0.2718  0.2460 -0.7406
  877MOL0     O18295   2.741   8.765   4.788  0.0488  0.8795 -0.3699
  877MOL0     C18296   2.598   8.757   4.766 -0.2212 -0.4288 -0.5917
  877MOL0     C18297   2.552   8.741   4.914  0.4475  1.4195  0.4027
  877MOL0     C18298   2.537   8.878   4.991 -0.9572  0.6733  1.1819
  877MOL0     C18299   2.518   8.860   5.140 -0.9376 -0.1708  0.5782
  877MOL0     C18300   2.625   8.791   5.229 -0.1782  0.1367 -0.0066
  877MOL0     C18301   2.766   8.850   5.223 -0.5690 -0.1864 -0.2551
  877MOL0     C18302   2.852   8.822   5.354  0.6919  0.3322  0.2249
  877MOL0     C18303   2.891   8.682   5.404  1.0743  0.5062 -0.0640
  877MOL0    Cl18304   2.757   8.566   5.408  0.4246 -0.3581  0.1103
  877MOL0     C18305   2.960   8.839   4.728  0.1769  0.1576  0.1325
  877MOL0     C18306   3.054   8.862   4.624  0.1459  0.7214 -1.0381
  877MOL0     O18307   3.170   9.116   4.480  0.3846 -0.3582  0.1918
  877MOL0     C18308   3.239   8.963   4.173 -0.5381 -0.0907  0.4236
  877MOL0     C18309   3.315   8.992   4.062  0.1956  0.5451  0.4218
  877MOL0     N18310   4.129   9.287   3.758 -0.0877  0.2430 -0.1007
  877MOL0     N18311   4.195   9.388   3.727 -0.0511  0.7215 -0.6399
  877MOL0     C18312   4.498   8.966   2.804 -0.2015  1.3731  0.5302
  877MOL0     C18313   4.481   8.905   2.679 -0.3339 -0.3962  0.0178
  877MOL0     C18314   4.504   8.551   2.386 -0.2568  0.8471 -0.1461
  877MOL0     C18315   4.500   8.411   2.400 -0.7238 -0.7622 -0.5776
  877MOL0     C18316   4.475   8.331   2.289  0.8216 -0.2809  0.2061
  877MOL0     C18317   4.458   8.382   2.163 -0.5517 -0.1761  0.6196
  877MOL0     O18318   4.433   8.304   2.058  0.1020  0.4452 -0.5616
  877MOL0     C18319   4.405   8.354   1.924 -0.2872  0.5078 -0.6814
  877MOL0     C18320   4.379   8.249   1.822 -0.8457  1.0499  0.5225
  877MOL0     C18321   4.514   8.188   1.775 -0.4544 -0.0042 -0.1197
  877MOL0     C18322   4.568   8.079   1.870  0.1602  0.0368  0.0392
  877MOL0     C18323   4.703   8.043   1.816  0.9318  0.0270 -0.4063
  877MOL0     C18324   4.816   8.029   1.792 -0.3599 -0.1450  0.9368
  877MOL0     C18325   4.462   8.522   2.150  1.0159  0.4473 -0.6062
  877MOL0     C18326   4.471   8.607   2.263  0.8540 -0.3990 -0.2158
  877MOL0     C18327   4.443   8.753   2.252 -0.0131 -0.1724  0.1266
  877MOL0     H18328   4.345   8.618   2.765  0.7319 -0.9881  0.7454
  877MOL0     H18329   4.361   8.709   2.992  2.9484 -1.1008 -0.3986
  877MOL0     H18330   4.316   8.874   3.137  1.5375  0.2608  1.1316
  877MOL0     H18331   4.371   8.993   3.235 -3.5480 -3.9562  1.3856
  877MOL0     H18332   4.163   9.063   3.129  0.9758 -2.4612  0.0719
  877MOL0     H18333   4.235   9.043   2.962  1.4342  2.6387 -0.4281
  877MOL0     H18334   4.260   9.271   2.983  3.1291  0.6874 -0.2919
  877MOL0     H18335   4.416   9.217   3.055  0.7360  3.8919 -0.6263
  877MOL0     H18336   4.171   9.312   3.191  0.1449  0.4889 -3.8047
  877MOL0     H18337   4.305   9.236   3.290 -1.3154 -1.5472 -0.8155
  877MOL0     H18338   4.448   9.423   3.172  0.0897 -1.3614 -1.2701
  877MOL0     H18339   4.287   9.501   3.147 -0.2430  0.7202  2.4331
  877MOL0     H18340   4.389   9.398   3.413  1.8417  1.5638  2.7359
  877MOL0     H18341   4.446   9.548   3.355  0.0230 -0.5591 -0.8251
  877MOL0     H18342   4.142   9.503   3.345  1.4450 -1.3067 -0.3518
  877MOL0     H18343   4.229   9.653   3.346  0.4100 -0.5493 -0.4784
  877MOL0     H18344   4.302   9.584   3.592 -1.5456  3.2228  0.0132
  877MOL0     H18345   4.142   9.650   3.555 -3.2050 -0.8874 -0.7943
  877MOL0     H18346   3.959   9.420   3.506 -0.3208  2.0605  1.2905
  877MOL0     H18347   3.839   9.200   3.591 -1.9794 -0.8415  1.6756
  877MOL0     H18348   3.941   9.097   3.680 -2.5327 -1.5883 -0.2310
  877MOL0     H18349   3.856   9.236   3.892 -1.1413 -4.3879  0.8398
  877MOL0     H18350   3.781   9.344   3.786  2.2547  0.9521  0.4187
  877MOL0     H18351   3.715   9.040   3.849  0.5790  1.7076  2.0970
  877MOL0     H18352   3.637   9.115   3.707 -0.7315  0.0639 -0.1133
  877MOL0     H18353   3.529   9.269   3.866  2.5265  1.7052  0.3838
  877MOL0     H18354   3.632   9.211   4.003  0.5046 -3.3457  0.5496
  877MOL0     H18355   3.511   9.249   4.164 -0.2716  0.6283  2.0142
  877MOL0     H18356   3.359   9.209   4.360  4.2303 -1.0437  0.2907
  877MOL0     H18357   2.854   8.872   4.353  0.4371 -1.3965 -0.6009
  877MOL0     H18358   2.686   8.799   4.533  0.3847 -2.8142 -0.5284
  877MOL0     H18359   2.560   8.842   4.710 -0.4927  0.7621  1.3393
  877MOL0     H18360   2.565   8.667   4.713 -1.3129 -0.4061  0.0127
  877MOL0     H18361   2.455   8.690   4.919  1.1853 -0.7443 -3.3029
  877MOL0     H18362   2.615   8.671   4.967 -1.2556 -0.6892 -0.1984
  877MOL0     H18363   2.628   8.935   4.972 -2.2812  2.0199 -1.7061
  877MOL0     H18364   2.453   8.928   4.942 -0.4977 -1.0830 -1.5784
  877MOL0     H18365   2.427   8.800   5.149  1.0273 -3.4400  0.2169
  877MOL0     H18366   2.499   8.962   5.175  0.0790 -0.0271  0.7298
  877MOL0     H18367   2.634   8.683   5.211  0.2948  0.2642 -0.5753
  877MOL0     H18368   2.589   8.794   5.333 -0.1100  0.8156  0.0012
  877MOL0     H18369   2.825   8.795   5.150 -2.1236 -3.5197  0.8012
  877MOL0     H18370   2.761   8.958   5.203 -4.3629 -0.2443 -0.3233
  877MOL0     H18371   2.800   8.873   5.436 -0.6795  0.2513 -0.5606
  877MOL0     H18372   2.942   8.884   5.348 -0.0916  1.5340  0.4427
  877MOL0     H18373   2.965   8.642   5.334  2.2156  1.2324  0.6812
  877MOL0     H18374   2.952   8.690   5.495  0.1086  0.1172  0.6399
  877MOL0     H18375   2.992   8.826   4.830  0.7955  4.6385  0.6800
  877MOL0     H18376   3.155   8.882   4.659  0.3979 -3.0043  0.9056
  877MOL0     H18377   3.176   8.876   4.174  1.2860 -1.5207  2.4824
  877MOL0     H18378   3.308   8.951   3.962  2.1929  1.1970 -0.0425
  877MOL0     H18379   4.536   9.067   2.808  0.4970  1.1433 -0.1792
  877MOL0     H18380   4.514   8.955   2.588  0.3781  0.3476  0.6744
  877MOL0     H18381   4.519   8.364   2.496  1.1966 -0.6757 -0.8831
  877MOL0     H18382   4.476   8.222   2.287 -4.8815 -0.6336 -0.0007
  877MOL0     H18383   4.480   8.427   1.892 -0.3697  1.5296  1.2736
  877MOL0     H18384   4.306   8.400   1.931  0.2938  1.5675  2.0497
  877MOL0     H18385   4.325   8.287   1.735 -1.2042  1.2280  0.8163
  877MOL0     H18386   4.312   8.169   1.857  1.7357 -0.9410  1.2398
  877MOL0     H18387   4.593   8.264   1.772  0.8989 -1.3967 -1.6393
  877MOL0     H18388   4.497   8.153   1.673 -0.1603  3.2234 -1.4001
  877MOL0     H18389   4.575   8.111   1.975 -0.4901 -0.2060  0.1566
  877MOL0     H18390   4.492   8.001   1.866 -1.3321  1.4786 -0.7707
  877MOL0     H18391   4.916   8.033   1.753 -0.9591  3.5616 -0.5946
  877MOL0     H18392   4.439   8.575   2.059 -1.2963  0.8076  0.1280
  877MOL0     H18393   4.494   8.791   2.163 -0.4295 -3.2632 -1.5994
  877MOL0     H18394   4.334   8.760   2.252 -0.3164 -3.3387  0.0212
  877MOL0     H18395   4.490   8.809   2.333 -0.7000 -0.8558  1.0160
  878MOL0     O18396   8.585   2.574   5.835  0.3422 -0.2057  0.5332
  878MOL0     C18397   8.615   2.683   5.803  0.9258 -0.1022 -1.1774
  878MOL0     O18398   8.588   2.788   5.877 -0.2181 -0.1953  0.4920
  878MOL0     C18399   8.699   2.829   5.943 -0.1854  0.2946 -0.5068
  878MOL0     C18400   8.762   2.752   6.045 -0.2139  0.6511 -0.0795
  878MOL0     C18401   8.861   2.800   6.130 -0.7533  0.9664  0.0115
  878MOL0     C18402   8.893   2.935   6.122  0.6300  0.5225 -0.5890
  878MOL0     O18403   8.968   2.990   6.224 -0.1421  0.4545  0.7299
  878MOL0     C18404   8.976   3.138   6.228 -0.4789 -0.3059  0.1590
  878MOL0     C18405   8.844   3.216   6.247  0.3596 -0.3527  0.3481
  878MOL0     C18406   8.766   3.171   6.363 -0.2391  0.7110  0.1346
  878MOL0     C18407   8.660   3.273   6.399  0.6685  0.4846 -0.4750
  878MOL0     C18408   8.547   3.219   6.487  0.1726  0.4737 -0.7903
  878MOL0     C18409   8.484   3.336   6.570  0.1163 -0.1329  0.5969
  878MOL0     C18410   8.374   3.290   6.672  0.2152  0.3558 -0.9170
  878MOL0     C18411   8.350   3.405   6.774  0.5306  0.0054  0.6106
  878MOL0     N18412   8.478   3.454   6.830  0.7666 -0.3741 -0.0362
  878MOL0     C18413   8.562   3.387   6.910 -0.3185  0.8753  0.0843
  878MOL0     C18414   8.673   3.466   6.925 -0.4175  0.0016  0.6770
  878MOL0     C18415   8.794   3.432   7.013  0.4614 -0.3775 -0.5012
  878MOL0     C18416   8.920   3.387   6.938 -0.0635  0.8131  0.2555
  878MOL0     C18417   8.889   3.272   6.842 -0.5914 -0.5603 -0.1790
  878MOL0     C18418   8.986   3.158   6.871  0.2214  0.7634 -0.2147
  878MOL0     O18419   9.122   3.184   6.844 -0.1936 -0.6467  0.8683
  878MOL0     C18420   9.212   3.126   6.916 -0.8117  0.3628 -0.3308
  878MOL0     C18421   9.187   2.990   6.952  0.1156 -0.3727  0.2844
  878MOL0     C18422   9.275   2.932   7.043  0.4371  0.5701  0.1892
  878MOL0     C18423   9.385   2.998   7.099  0.2597  0.9598 -0.5019
  878MOL0     C18424   9.465   2.939   7.208 -0.2143  0.0249  0.5418
  878MOL0     O18425   9.415   2.825   7.270 -0.6372 -0.2156 -0.1991
  878MOL0     C18426   9.481   2.776   7.383  0.0915 -0.7653  0.6201
  878MOL0     C18427   9.500   2.642   7.406 -0.0821 -0.4598 -0.7263
  878MOL0     C18428   9.562   2.605   7.533 -0.1165  0.4680  0.2864
  878MOL0     C18429   9.576   2.695   7.634  0.0295 -0.1896 -0.1770
  878MOL0     O18430   9.608   2.663   7.767 -0.3906 -0.5580 -0.9873
  878MOL0     C18431   9.735   2.604   7.792 -1.0983 -0.5620  0.1300
  878MOL0     C18432   9.831   2.727   7.820  0.6825  0.3702 -0.0869
  878MOL0     C18433   9.967   2.677   7.868  0.5265 -0.0953  0.3328
  878MOL0     C18434   9.978   2.653   8.020 -0.8286  0.0098 -0.1336
  878MOL0     C18435  10.124   2.662   8.080  0.6238  0.2903  0.7819
  878MOL0     C18436  10.194   2.526   8.072  0.3546  0.0267  0.3954
  878MOL0     C18437  10.322   2.507   8.149  0.3500  0.6279  0.7102
  878MOL0     C18438  10.453   2.561   8.085 -0.7302  0.4633  0.3245
  878MOL0    Cl18439  10.480   2.488   7.921 -0.2184 -0.0382  0.1470
  878MOL0     C18440   9.564   2.831   7.614 -0.1778  0.4280  0.1039
  878MOL0     C18441   9.520   2.866   7.490 -0.1961 -0.2942 -0.6912
  878MOL0     O18442   9.568   3.004   7.236  0.2495 -0.1835  0.1418
  878MOL0     C18443   9.410   3.126   7.051  0.7924  0.2208 -0.0569
  878MOL0     C18444   9.326   3.188   6.956 -0.8531 -0.2673  0.3639
  878MOL0     N18445   8.650   3.577   6.851 -0.3194 -1.0845 -0.4254
  878MOL0     N18446   8.536   3.577   6.791 -0.4505 -0.2539 -0.7386
  878MOL0     C18447   8.853   3.000   6.006 -0.0190 -0.4706 -0.6152
  878MOL0     C18448   8.753   2.954   5.923  0.4812 -0.3145 -0.2542
  878MOL0     C18449   8.649   2.704   5.658  0.1789 -0.1097  0.2131
  878MOL0     C18450   8.624   2.831   5.599 -0.3003  0.5361  0.7193
  878MOL0     C18451   8.640   2.854   5.459  0.2011  0.7475 -0.0100
  878MOL0     C18452   8.692   2.747   5.375  0.4082  0.2358 -0.3331
  878MOL0     O18453   8.728   2.769   5.246 -0.4353 -0.0076  0.2493
  878MOL0     C18454   8.636   2.726   5.141 -0.0727  0.3174 -0.4540
  878MOL0     C18455   8.524   2.821   5.109 -0.1596 -0.2396 -0.1308
  878MOL0     C18456   8.481   2.794   4.960 -0.0896 -0.1152 -0.3980
  878MOL0     C18457   8.368   2.897   4.931 -1.8758  0.0399  0.5112
  878MOL0     C18458   8.317   2.889   4.790 -0.2801 -0.7465  0.3762
  878MOL0     C18459   8.274   2.890   4.677  0.5459  0.7329  0.2636
  878MOL0     C18460   8.736   2.629   5.429  0.1256 -0.0906 -0.9499
  878MOL0     C18461   8.703   2.605   5.567  0.5305 -0.7564  0.1449
  878MOL0     C18462   8.746   2.472   5.628  0.1908  0.2033 -1.2392
  878MOL0     H18463   8.724   2.650   6.043 -2.4019  1.3833 -2.9594
  878MOL0     H18464   8.895   2.737   6.211 -1.5211  1.3599  0.6494
  878MOL0     H18465   9.034   3.170   6.315  1.9997 -1.0206 -1.1291
  878MOL0     H18466   9.032   3.193   6.152  1.5465 -0.2603  1.5910
  878MOL0     H18467   8.790   3.213   6.151  3.1412  0.9419 -1.3856
  878MOL0     H18468   8.862   3.323   6.262 -1.6217 -0.0005  0.6103
  878MOL0     H18469   8.830   3.160   6.451 -1.5660 -1.5502  0.9247
  878MOL0     H18470   8.732   3.067   6.357  1.4816  0.1486 -0.2866
  878MOL0     H18471   8.727   3.350   6.439 -0.1267  0.8243  0.2321
  878MOL0     H18472   8.624   3.311   6.303  1.3522  0.9502 -0.5533
  878MOL0     H18473   8.471   3.172   6.423  0.5271  0.9388 -1.5713
  878MOL0     H18474   8.588   3.140   6.551  0.8566 -1.1593 -3.1147
  878MOL0     H18475   8.573   3.377   6.619  2.8801 -0.9387 -3.2408
  878MOL0     H18476   8.435   3.415   6.511  1.8001  1.0940  0.7660
  878MOL0     H18477   8.412   3.198   6.717  0.9115  0.3221 -1.5550
  878MOL0     H18478   8.280   3.264   6.623  1.2948 -4.1554 -1.0657
  878MOL0     H18479   8.304   3.486   6.717 -0.9928 -1.3074 -0.1096
  878MOL0     H18480   8.290   3.378   6.862 -0.9539 -0.9411 -0.6330
  878MOL0     H18481   8.550   3.299   6.973  1.5477  2.1596  2.4471
  878MOL0     H18482   8.828   3.523   7.065  0.3904 -1.8838  2.3802
  878MOL0     H18483   8.753   3.377   7.098  0.2040  0.3627 -0.1316
  878MOL0     H18484   8.967   3.465   6.877 -0.3895  0.1335 -0.8979
  878MOL0     H18485   9.000   3.359   7.007  0.4048 -1.3181 -1.0819
  878MOL0     H18486   8.889   3.310   6.740 -2.2033  0.2026  0.0703
  878MOL0     H18487   8.786   3.240   6.863 -0.2781 -0.9408  0.8535
  878MOL0     H18488   8.947   3.069   6.821  1.2190 -0.5250  1.2088
  878MOL0     H18489   8.974   3.137   6.978 -0.6582 -1.3427 -0.6849
  878MOL0     H18490   9.103   2.932   6.915 -1.1980  1.4467  0.2372
  878MOL0     H18491   9.257   2.828   7.069 -2.3124  0.8192 -0.4697
  878MOL0     H18492   9.459   2.566   7.340  1.2371 -2.8421  1.0384
  878MOL0     H18493   9.573   2.501   7.562 -1.5238 -0.2232 -1.4546
  878MOL0     H18494   9.734   2.537   7.879 -1.9303 -0.0542  0.5253
  878MOL0     H18495   9.782   2.552   7.707  2.0713  1.9927  0.1237
  878MOL0     H18496   9.835   2.776   7.723  0.8828  0.2570 -0.1375
  878MOL0     H18497   9.787   2.790   7.898  2.3263  0.7043  0.6053
  878MOL0     H18498   9.979   2.587   7.807 -0.9690 -0.8474  1.0862
  878MOL0     H18499  10.049   2.747   7.851 -0.3554  0.5093 -1.7985
  878MOL0     H18500   9.932   2.558   8.048 -1.5852 -0.1752 -1.8889
  878MOL0     H18501   9.918   2.731   8.068  1.8168  0.2400  3.2214
  878MOL0     H18502  10.111   2.695   8.183  1.6555  0.9747  0.7146
  878MOL0     H18503  10.189   2.739   8.036 -0.1662  1.8357  2.2282
  878MOL0     H18504  10.127   2.458   8.126 -0.2269 -1.2163 -1.7631
  878MOL0     H18505  10.208   2.488   7.971  1.8725  1.8329 -0.1190
  878MOL0     H18506  10.341   2.402   8.174 -0.2188  0.8443  2.1024
  878MOL0     H18507  10.310   2.561   8.243  2.2957  0.4047  1.1341
  878MOL0     H18508  10.436   2.668   8.073 -2.1308  0.4067  1.5402
  878MOL0     H18509  10.539   2.551   8.151  0.9103 -1.1520 -1.9111
  878MOL0     H18510   9.581   2.906   7.690 -3.0056  0.0761  1.1740
  878MOL0     H18511   9.489   2.970   7.492 -3.8298 -1.2078  1.6099
  878MOL0     H18512   9.494   3.183   7.090  0.2225  0.3812  0.9588
  878MOL0     H18513   9.359   3.287   6.924  0.8145 -0.1709  2.1620
  878MOL0     H18514   8.870   3.105   5.987 -2.3091 -0.3023 -1.9898
  878MOL0     H18515   8.715   3.005   5.835  2.0918  0.9030 -0.3075
  878MOL0     H18516   8.583   2.913   5.658  4.3697  0.5920  4.5196
  878MOL0     H18517   8.627   2.955   5.423  3.0426  0.8456 -1.0664
  878MOL0     H18518   8.590   2.634   5.177 -1.4606 -0.6089 -4.1826
  878MOL0     H18519   8.694   2.707   5.050 -1.3051  1.8773 -1.6212
  878MOL0     H18520   8.553   2.927   5.115  0.6484 -0.2388 -2.8349
  878MOL0     H18521   8.443   2.810   5.181  0.9483 -1.3732  0.9849
  878MOL0     H18522   8.430   2.698   4.947  0.0453 -0.0655 -1.4047
  878MOL0     H18523   8.571   2.805   4.899  0.1604  0.6415  0.0860
  878MOL0     H18524   8.290   2.903   5.007 -0.2365  3.2185  2.1508
  878MOL0     H18525   8.414   2.996   4.942  0.8676 -1.2615  1.7243
  878MOL0     H18526   8.225   2.890   4.582 -0.1106  1.0269  0.5972
  878MOL0     H18527   8.788   2.560   5.363 -0.2981 -2.9671  1.5207
  878MOL0     H18528   8.656   2.425   5.668  1.1952 -0.7001  0.0366
  878MOL0     H18529   8.792   2.394   5.567  1.9994  0.5442 -0.3851
  878MOL0     H18530   8.823   2.505   5.699  0.2581  0.5374 -1.4625
  879MOL0     O18531   8.430   0.566   1.297  0.1577  0.0216 -0.4193
  879MOL0     C18532   8.360   0.538   1.391 -0.7339 -0.7106  0.1268
  879MOL0     O18533   8.386   0.579   1.515 -0.8727  0.6539  0.3454
  879MOL0     C18534   8.515   0.633   1.541 -0.0199 -0.4266  0.6255
  879MOL0     C18535   8.547   0.759   1.500  0.5273  0.6486 -1.1449
  879MOL0     C18536   8.673   0.810   1.510 -0.2492 -0.5048  0.1464
  879MOL0     C18537   8.765   0.733   1.571  0.4041 -0.3544 -0.3632
  879MOL0     O18538   8.895   0.767   1.607 -0.0211 -0.1265 -0.0871
  879MOL0     C18539   8.912   0.901   1.674  0.8869  0.4118 -0.0314
  879MOL0     C18540   9.064   0.946   1.658 -0.0936 -0.1925 -0.2484
  879MOL0     C18541   9.165   0.844   1.705  0.4464 -0.0967 -0.0534
  879MOL0     C18542   9.163   0.824   1.856 -0.8277 -0.4833  0.5395
  879MOL0     C18543   9.260   0.702   1.889  0.5282 -0.1019 -0.6832
  879MOL0     C18544   9.407   0.739   1.868  0.6026  0.2327 -0.4687
  879MOL0     C18545   9.507   0.642   1.941 -0.1627  0.3327  0.9131
  879MOL0     C18546   9.631   0.617   1.851 -0.3744  0.5987  0.0107
  879MOL0     N18547   9.742   0.551   1.923  0.0158 -0.3420  0.0685
  879MOL0     C18548   9.815   0.615   2.020 -0.9272 -0.7210 -0.1096
  879MOL0     C18549   9.904   0.526   2.060  0.1945 -0.1582 -1.1001
  879MOL0     C18550  10.010   0.555   2.165  0.3232 -0.3620 -0.1156
  879MOL0     C18551  10.154   0.535   2.120  0.6508  0.0229 -0.1900
  879MOL0     C18552  10.259   0.529   2.237  0.2104  1.3475 -0.4468
  879MOL0     C18553  10.273   0.672   2.301 -0.6135  0.4380 -0.1921
  879MOL0     O18554  10.316   0.773   2.208 -0.1631 -0.8221 -0.4501
  879MOL0     C18555  10.452   0.795   2.172 -0.1557 -0.5680 -0.0778
  879MOL0     C18556  10.478   0.883   2.060 -0.4690  0.2138  0.1630
  879MOL0     C18557  10.604   0.890   2.007  0.6848  0.5252 -0.3376
  879MOL0     C18558  10.709   0.807   2.047 -0.5822 -1.1496  0.9071
  879MOL0     C18559  10.843   0.823   1.985 -1.2583 -0.3846  0.3576
  879MOL0     O18560  10.922   0.719   1.989 -0.5090  0.9207 -0.3351
  879MOL0     C18561  11.046   0.729   1.935  0.0373 -0.2222  0.6492
  879MOL0     C18562  11.160   0.747   2.021  0.1230 -0.0085 -0.1131
  879MOL0     C18563  11.285   0.771   1.961 -0.8621  0.0149  0.3203
  879MOL0     C18564  11.302   0.763   1.829  0.3561  0.1188  0.5471
  879MOL0     O18565  11.433   0.782   1.790  0.1276  0.4706  0.8319
  879MOL0     C18566  11.478   0.703   1.678 -0.4142 -0.0242  0.6147
  879MOL0     C18567  11.625   0.718   1.678 -0.0493 -0.4185 -0.7776
  879MOL0     C18568  11.690   0.623   1.572 -0.3027 -0.7258 -0.3899
  879MOL0     C18569  11.840   0.643   1.552 -0.7259 -0.0882  0.3187
  879MOL0     C18570  11.920   0.516   1.582 -0.4192  0.2748 -0.0802
  879MOL0     C18571  11.966   0.490   1.725  0.2968 -1.0834 -0.0780
  879MOL0     C18572  12.063   0.372   1.704  0.3928 -0.2787 -0.4822
  879MOL0     C18573  12.127   0.353   1.840 -0.5059  0.2455 -0.5748
  879MOL0    Cl18574  12.242   0.221   1.835 -0.3331  0.2572  0.0960
  879MOL0     C18575  11.191   0.746   1.746  0.5631  1.1376 -0.0549
  879MOL0     C18576  11.065   0.729   1.804  0.8257  0.0653  0.5663
  879MOL0     O18577  10.862   0.929   1.929  0.3580  0.2736  0.4572
  879MOL0     C18578  10.675   0.712   2.135 -0.4747  0.8791  0.4371
  879MOL0     C18579  10.555   0.705   2.204 -0.3250  0.1760  1.0686
  879MOL0     N18580   9.871   0.401   2.002  0.0653  0.3466  0.1857
  879MOL0     N18581   9.761   0.419   1.940  0.2681 -0.4949 -0.0911
  879MOL0     C18582   8.732   0.610   1.624  0.0296 -0.8941 -0.2693
  879MOL0     C18583   8.604   0.560   1.606 -0.4025 -0.4279 -0.5413
  879MOL0     C18584   8.224   0.470   1.353 -0.6946 -0.2998 -0.2109
  879MOL0     C18585   8.182   0.480   1.218 -0.0313 -0.6058  0.0732
  879MOL0     C18586   8.058   0.426   1.180  0.1013  0.2636  0.9587
  879MOL0     C18587   7.986   0.344   1.274 -0.3551  0.1814 -0.3861
  879MOL0     O18588   7.867   0.279   1.255  0.0441 -0.2059 -0.5542
  879MOL0     C18589   7.807   0.271   1.125 -0.7422 -0.7012 -0.7016
  879MOL0     C18590   7.706   0.385   1.101 -0.0328  0.5737  0.5029
  879MOL0     C18591   7.585   0.398   1.199  0.2322  0.7246 -0.0098
  879MOL0     C18592   7.628   0.491   1.313 -0.1112  0.0181 -0.2389
  879MOL0     C18593   7.605   0.634   1.267  1.5931 -0.0571 -0.3858
  879MOL0     C18594   7.588   0.749   1.233 -0.0159  0.6685 -0.7151
  879MOL0     C18595   8.030   0.329   1.403 -0.4389  1.0600  0.5388
  879MOL0     C18596   8.147   0.390   1.447 -0.6235  0.5677 -0.2549
  879MOL0     C18597   8.185   0.372   1.592  0.2132  0.4083 -1.1754
  879MOL0     H18598   8.467   0.806   1.444 -0.7417 -0.6328 -0.4749
  879MOL0     H18599   8.698   0.910   1.478  0.7760  0.0706  2.4812
  879MOL0     H18600   8.846   0.972   1.623 -2.7570 -3.5237 -1.4302
  879MOL0     H18601   8.873   0.879   1.774  0.2492 -1.0882 -0.5701
  879MOL0     H18602   9.092   1.036   1.714  1.8599  0.2632 -1.8055
  879MOL0     H18603   9.071   0.975   1.552  0.3187  0.6491 -0.0048
  879MOL0     H18604   9.262   0.886   1.676 -0.2923  1.8606  0.1315
  879MOL0     H18605   9.166   0.752   1.647 -1.7859  0.8541 -1.7278
  879MOL0     H18606   9.204   0.911   1.907 -0.6003 -1.1016  1.4495
  879MOL0     H18607   9.059   0.816   1.890 -1.1071  0.9641  0.0902
  879MOL0     H18608   9.243   0.683   1.995  0.4428  1.6943 -0.3476
  879MOL0     H18609   9.227   0.607   1.846 -2.3312 -0.0478  1.1621
  879MOL0     H18610   9.431   0.748   1.762 -3.7948  3.4798 -1.4701
  879MOL0     H18611   9.417   0.840   1.910 -0.7212 -0.8927  2.8913
  879MOL0     H18612   9.457   0.545   1.951  1.1499 -0.9061 -2.8578
  879MOL0     H18613   9.544   0.681   2.037  2.1741 -2.3474  1.2518
  879MOL0     H18614   9.611   0.539   1.777 -0.4410  2.2754 -1.7974
  879MOL0     H18615   9.670   0.708   1.805 -1.5320  0.6359 -0.9534
  879MOL0     H18616   9.795   0.715   2.056  1.2686  1.0164 -3.2578
  879MOL0     H18617   9.996   0.656   2.206  0.8274 -0.3122 -0.0577
  879MOL0     H18618   9.994   0.486   2.248  3.1877 -0.7044  0.2658
  879MOL0     H18619  10.158   0.440   2.066  0.1828  0.1138 -0.3911
  879MOL0     H18620  10.182   0.618   2.055  0.7355 -0.2249 -0.4737
  879MOL0     H18621  10.358   0.502   2.199 -0.5104 -0.9590 -0.8657
  879MOL0     H18622  10.224   0.457   2.312  6.1392  1.7044  3.3257
  879MOL0     H18623  10.347   0.666   2.381  1.5474  1.1779 -2.0108
  879MOL0     H18624  10.180   0.711   2.343 -1.3328  0.3354 -1.6355
  879MOL0     H18625  10.403   0.945   2.014  1.1595  0.9609 -1.6395
  879MOL0     H18626  10.630   0.958   1.926 -0.7728  3.4447  1.4535
  879MOL0     H18627  11.139   0.746   2.127  0.8756  1.3223  0.0687
  879MOL0     H18628  11.367   0.779   2.032 -0.9795 -1.8480  0.7129
  879MOL0     H18629  11.449   0.600   1.699  1.0330 -0.4748  0.5059
  879MOL0     H18630  11.437   0.740   1.584 -2.6138 -2.4705  0.4875
  879MOL0     H18631  11.657   0.819   1.653  0.4657 -0.7559 -1.5006
  879MOL0     H18632  11.666   0.706   1.779 -2.7396  2.3517  0.8376
  879MOL0     H18633  11.678   0.523   1.614  3.3973 -0.7202  1.0846
  879MOL0     H18634  11.647   0.635   1.472  0.2634 -0.9628 -0.6624
  879MOL0     H18635  11.870   0.729   1.612 -3.3293 -0.4773  2.3705
  879MOL0     H18636  11.856   0.656   1.445  2.9271  0.2624  0.7888
  879MOL0     H18637  12.013   0.545   1.534 -1.6880  0.3451 -2.6848
  879MOL0     H18638  11.877   0.425   1.538  2.4832 -0.1964 -2.2392
  879MOL0     H18639  12.016   0.576   1.769 -2.5398 -0.8974  3.1802
  879MOL0     H18640  11.884   0.461   1.791  0.5444 -1.0642  0.2410
  879MOL0     H18641  12.135   0.397   1.626 -0.8546 -1.1779 -1.9627
  879MOL0     H18642  12.000   0.289   1.673 -0.0372 -0.9030  1.8565
  879MOL0     H18643  12.180   0.446   1.863 -2.6962  1.2149  0.8009
  879MOL0     H18644  12.046   0.356   1.913 -1.0026  2.3731 -1.1508
  879MOL0     H18645  11.206   0.746   1.639 -1.1486 -0.0788 -0.3422
  879MOL0     H18646  10.982   0.703   1.739  2.0606  0.4646 -1.2549
  879MOL0     H18647  10.741   0.630   2.162 -2.1929 -0.2004  1.5683
  879MOL0     H18648  10.528   0.627   2.274  0.3578 -0.2567  0.8563
  879MOL0     H18649   8.814   0.553   1.666 -2.0278 -2.0147  2.5483
  879MOL0     H18650   8.576   0.463   1.645 -2.6450 -0.3841 -1.8299
  879MOL0     H18651   8.247   0.544   1.158  0.0586  0.1618  0.9557
  879MOL0     H18652   8.018   0.453   1.083 -1.2200  1.9621  1.9312
  879MOL0     H18653   7.753   0.176   1.124 -0.2140 -1.0041 -1.4096
  879MOL0     H18654   7.876   0.271   1.041 -0.6630  1.6683 -0.7038
  879MOL0     H18655   7.663   0.362   1.002 -1.4513  1.8722  0.7785
  879MOL0     H18656   7.753   0.483   1.092 -0.8537  0.8552 -1.3086
  879MOL0     H18657   7.548   0.304   1.239  2.7528 -1.6092 -2.7091
  879MOL0     H18658   7.505   0.444   1.140 -1.0238 -1.6590 -0.2797
  879MOL0     H18659   7.569   0.474   1.403 -1.2540  2.9841 -0.3225
  879MOL0     H18660   7.729   0.481   1.354 -1.7161  0.9872  4.5529
  879MOL0     H18661   7.558   0.847   1.202 -1.6903  0.3215 -0.2841
  879MOL0     H18662   7.966   0.271   1.469 -0.5914 -1.0967 -1.3499
  879MOL0     H18663   8.155   0.457   1.653  1.2173  1.6591 -2.3689
  879MOL0     H18664   8.142   0.277   1.626 -1.2886  1.7981  1.0405
  879MOL0     H18665   8.294   0.364   1.604  0.5294  4.8344  0.6308
  880MOL0     O18666   0.104  10.844  10.415 -0.0101 -0.8599 -0.5397
  880MOL0     C18667   0.123  10.945  10.354 -0.1476 -0.1314  0.3973
  880MOL0     O18668   0.198  10.957  10.242 -0.0959 -0.3460 -1.5429
  880MOL0     C18669   0.290  10.861  10.214  0.1665 -1.1492 -0.3169
  880MOL0     C18670   0.378  10.819  10.316  0.0599  0.6387  0.3418
  880MOL0     C18671   0.484  10.732  10.292 -0.0349  0.7406 -0.8416
  880MOL0     C18672   0.500  10.677  10.164 -0.3291 -0.4659  0.3506
  880MOL0     O18673   0.590  10.570  10.151  0.2051  0.3121  0.0484
  880MOL0     C18674   0.527  10.445  10.177 -0.4624 -0.1599 -0.1319
  880MOL0     C18675   0.617  10.323  10.187  0.5159  1.0525 -0.1054
  880MOL0     C18676   0.718  10.338  10.308  0.9140  0.3708 -0.3037
  880MOL0     C18677   0.832  10.235  10.300 -0.6938  0.5125  0.2532
  880MOL0     C18678   0.949  10.285  10.390 -0.2247 -0.4073 -0.1263
  880MOL0     C18679   1.067  10.191  10.375 -0.1690  0.8301  0.2180
  880MOL0     C18680   1.187  10.217  10.465 -0.1260 -0.6656  1.0475
  880MOL0     C18681   1.142  10.217  10.616  0.2207 -0.3131  0.5409
  880MOL0     N18682   1.222  10.118  10.695 -0.4215  0.1782  1.2487
  880MOL0     C18683   1.361  10.125  10.728  0.9322 -0.3961 -0.0323
  880MOL0     C18684   1.403  10.010  10.780  0.1399  0.1651  0.1447
  880MOL0     C18685   1.538   9.966  10.838 -0.7694  0.1463  0.9113
  880MOL0     C18686   1.656  10.037  10.766  0.0865  1.3375 -0.1039
  880MOL0     C18687   1.781   9.997  10.836  0.3424 -0.2381 -0.0021
  880MOL0     C18688   1.897  10.028  10.750  0.2240 -0.8495 -0.4961
  880MOL0     O18689   2.018   9.980  10.810  0.4123  0.3602 -0.1985
  880MOL0     C18690   2.134   9.977  10.739 -0.8383 -0.0705  0.0282
  880MOL0     C18691   2.156  10.049  10.616 -0.7209  0.3049 -0.6308
  880MOL0     C18692   2.281  10.044  10.550 -0.8763 -1.5192 -1.0436
  880MOL0     C18693   2.389   9.973  10.617  0.2007  0.5569 -0.1412
  880MOL0     C18694   2.530   9.984  10.563  0.3139 -0.0067  0.3445
  880MOL0     O18695   2.635   9.939  10.626 -0.3400  0.0274 -0.4928
  880MOL0     C18696   2.752   9.944  10.560  0.6632 -0.5879  0.0041
  880MOL0     C18697   2.843  10.037  10.601 -0.2299 -0.2814  0.8793
  880MOL0     C18698   2.968  10.061  10.537  1.2241 -0.3713 -0.4754
  880MOL0     C18699   2.998   9.986  10.431  0.0376  0.4949 -0.3473
  880MOL0     O18700   3.125   9.977  10.381  0.5703 -0.1838 -1.0826
  880MOL0     C18701   3.214  10.081  10.411  0.2202 -0.1408  0.5650
  880MOL0     C18702   3.341  10.078  10.320  0.3516  0.1499  1.0594
  880MOL0     C18703   3.351  10.184  10.204 -0.1679  0.7156 -0.2867
  880MOL0     C18704   3.502  10.179  10.156  0.1479 -0.3586  0.0283
  880MOL0     C18705   3.555  10.287  10.058 -0.0148 -0.5482 -0.5365
  880MOL0     C18706   3.483  10.278   9.921 -0.4132  0.3993 -0.1760
  880MOL0     C18707   3.511  10.397   9.821 -0.5641  0.3022 -0.2526
  880MOL0     C18708   3.398  10.395   9.714  0.2687  0.0800 -0.3011
  880MOL0    Cl18709   3.388  10.215   9.639 -0.2207 -0.3261 -0.4615
  880MOL0     C18710   2.913   9.876  10.388 -0.1637 -0.0880  0.0240
  880MOL0     C18711   2.790   9.863  10.452  0.1779 -0.2718 -0.7231
  880MOL0     O18712   2.535  10.033  10.454  0.3257  0.1341 -0.6546
  880MOL0     C18713   2.367   9.912  10.739 -0.0015  1.2698  0.3492
  880MOL0     C18714   2.238   9.914  10.802 -0.5862 -0.0349 -0.0985
  880MOL0     N18715   1.297   9.924  10.757 -0.0742  0.8661 -0.1105
  880MOL0     N18716   1.192   9.990  10.731  0.3964 -0.3075 -0.2757
  880MOL0     C18717   0.423  10.725  10.056  0.2029 -0.3477  0.2367
  880MOL0     C18718   0.323  10.830  10.082 -0.7952  0.5591 -0.4339
  880MOL0     C18719   0.043  11.062  10.397 -0.1219 -0.5513  0.4374
  880MOL0     C18720   0.047  11.186  10.324 -0.5069 -0.3471  0.5868
  880MOL0     C18721  -0.038  11.294  10.349  0.0536 -0.6770  0.3070
  880MOL0     C18722  -0.141  11.294  10.442 -0.3579  1.1079 -0.5341
  880MOL0     O18723  -0.232  11.386  10.472 -0.0575 -0.6342  0.1870
  880MOL0     C18724  -0.252  11.489  10.370 -0.1926 -1.1194 -0.4522
  880MOL0     C18725  -0.152  11.611  10.398  0.1680  0.3877  0.5352
  880MOL0     C18726  -0.181  11.669  10.540  0.2500 -0.0443  0.1485
  880MOL0     C18727  -0.092  11.796  10.552 -0.0161  0.1554  0.0650
  880MOL0     C18728  -0.152  11.911  10.480 -0.2401 -0.5355  0.0613
  880MOL0     C18729  -0.198  12.014  10.429  0.3053  0.5224  0.0118
  880MOL0     C18730  -0.146  11.173  10.524 -0.2399 -0.7360 -0.0296
  880MOL0     C18731  -0.058  11.064  10.499  0.0312  0.3406  0.6874
  880MOL0     C18732  -0.088  10.958  10.600 -0.3289  0.2956  0.7621
  880MOL0     H18733   0.355  10.866  10.412 -1.7078  2.2215 -0.7720
  880MOL0     H18734   0.540  10.695  10.377 -1.2362  0.5193 -0.1348
  880MOL0     H18735   0.476  10.447  10.274  0.1739  0.5107  0.1917
  880MOL0     H18736   0.446  10.423  10.106 -1.0154 -2.1508  1.0415
  880MOL0     H18737   0.666  10.311  10.090 -2.1623 -3.3071 -1.1810
  880MOL0     H18738   0.557  10.233  10.201  0.7528  1.1192  1.5705
  880MOL0     H18739   0.651  10.328  10.394 -0.1848  0.2032 -1.1542
  880MOL0     H18740   0.754  10.441  10.296 -0.7156  1.0405  0.3711
  880MOL0     H18741   0.808  10.135  10.337 -1.8412  0.6667 -0.0444
  880MOL0     H18742   0.854  10.228  10.193 -1.7315  0.3081  0.0389
  880MOL0     H18743   0.976  10.387  10.362  0.1618 -1.0088 -2.1093
  880MOL0     H18744   0.911  10.306  10.490 -1.9358  1.5685 -1.1167
  880MOL0     H18745   1.029  10.089  10.387  0.7229  0.4308 -0.2768
  880MOL0     H18746   1.109  10.192  10.274 -0.3248  1.8267  0.1543
  880MOL0     H18747   1.231  10.315  10.445  0.9397 -1.3580 -0.1189
  880MOL0     H18748   1.266  10.148  10.435 -0.9448 -0.6388 -1.3424
  880MOL0     H18749   1.138  10.319  10.654 -0.9104 -1.0081  2.4523
  880MOL0     H18750   1.042  10.173  10.629 -0.0406  0.5186  1.5274
  880MOL0     H18751   1.425  10.212  10.722 -0.7456  0.8061 -1.4939
  880MOL0     H18752   1.543  10.001  10.942  4.6381  1.9835  0.3464
  880MOL0     H18753   1.543   9.857  10.837 -0.6622  0.0548 -2.9836
  880MOL0     H18754   1.656  10.014  10.659  2.0427  0.4712  0.0379
  880MOL0     H18755   1.639  10.145  10.765  0.5724  1.4761 -3.3125
  880MOL0     H18756   1.779   9.893  10.868 -1.3814  0.1476  1.3023
  880MOL0     H18757   1.792  10.048  10.932 -1.3870  0.0138  0.0898
  880MOL0     H18758   1.916  10.136  10.751  1.7041 -1.0737  1.7360
  880MOL0     H18759   1.883   9.990  10.648  1.2562 -3.7530  0.3584
  880MOL0     H18760   2.076  10.100  10.563 -2.4717 -1.4824  0.1795
  880MOL0     H18761   2.295  10.106  10.462 -1.2895 -0.3208 -0.2893
  880MOL0     H18762   2.807  10.101  10.681  1.7445  1.8844  0.1589
  880MOL0     H18763   3.027  10.140  10.584  1.2982 -1.4927  1.4091
  880MOL0     H18764   3.163  10.178  10.409  0.6954  0.2214  3.1037
  880MOL0     H18765   3.254  10.078  10.513  0.9918 -0.1046  0.2752
  880MOL0     H18766   3.421  10.078  10.394  0.6605  3.1895  0.8330
  880MOL0     H18767   3.344   9.975  10.281 -2.8163 -0.5006  2.1583
  880MOL0     H18768   3.299  10.157  10.111  2.8512  0.4736 -2.0574
  880MOL0     H18769   3.320  10.278  10.250 -1.0278  1.1242 -1.6318
  880MOL0     H18770   3.512  10.088  10.097  0.7523  0.3148 -0.9323
  880MOL0     H18771   3.565  10.164  10.244  0.2189 -4.7846 -0.5735
  880MOL0     H18772   3.662  10.278  10.039 -0.1678 -0.9971 -1.2503
  880MOL0     H18773   3.525  10.383  10.100  2.2515 -0.3824  0.8127
  880MOL0     H18774   3.505  10.180   9.878  1.6683  1.5333 -1.8640
  880MOL0     H18775   3.375  10.286   9.940 -0.8601 -0.8606 -1.8705
  880MOL0     H18776   3.613  10.388   9.783  0.2417  2.9787  0.9647
  880MOL0     H18777   3.510  10.487   9.884 -0.3945 -1.2104  2.0300
  880MOL0     H18778   3.304  10.426   9.761 -0.1556  2.2963 -2.3954
  880MOL0     H18779   3.414  10.465   9.631  0.0868  1.5157  0.8353
  880MOL0     H18780   2.949   9.797  10.322  1.3467  1.4870 -1.1005
  880MOL0     H18781   2.717   9.792  10.415 -2.2681  1.0868  1.1858
  880MOL0     H18782   2.451   9.862  10.786 -0.9358 -1.4033 -0.6336
  880MOL0     H18783   2.230   9.879  10.904 -0.3143  2.1932  0.7501
  880MOL0     H18784   0.429  10.690   9.953  1.2464 -0.8101  0.4485
  880MOL0     H18785   0.260  10.879  10.008 -2.7174 -3.3755 -1.6723
  880MOL0     H18786   0.116  11.195  10.241 -0.5724 -3.0945  0.1339
  880MOL0     H18787  -0.014  11.389  10.301 -0.6701 -1.1047 -0.9394
  880MOL0     H18788  -0.357  11.519  10.358 -0.0050 -0.3961 -0.3394
  880MOL0     H18789  -0.226  11.451  10.270 -1.0936  0.6395 -1.4150
  880MOL0     H18790  -0.167  11.698  10.335 -3.4563  0.0518  0.7609
  880MOL0     H18791  -0.048  11.578  10.387 -0.0666 -2.1276  4.0158
  880MOL0     H18792  -0.157  11.598  10.619 -0.0207 -0.3427 -0.0346
  880MOL0     H18793  -0.287  11.696  10.546  0.0374 -0.4627 -1.2632
  880MOL0     H18794  -0.079  11.821  10.658 -0.5286  2.3625 -0.3566
  880MOL0     H18795   0.007  11.779  10.510 -0.9503  1.8577 -3.0847
  880MOL0     H18796  -0.246  12.094  10.377 -1.6853 -0.2082  0.6603
  880MOL0     H18797  -0.225  11.162  10.597 -0.8660 -0.7863 -0.6987
  880MOL0     H18798   0.000  10.916  10.651 -0.6691 -1.5558 -0.0917
  880MOL0     H18799  -0.159  10.988  10.677 -0.9403  1.3990 -0.2155
  880MOL0     H18800  -0.120  10.867  10.548 -2.8885 -0.0036  2.6495
  881MOL0     O18801   8.478   8.800   6.294  0.5478  0.1200  0.0482
  881MOL0     C18802   8.472   8.675   6.305 -0.5761 -0.6195 -0.4443
  881MOL0     O18803   8.385   8.613   6.379 -0.6470  0.4294 -0.4575
  881MOL0     C18804   8.255   8.650   6.385 -0.3831 -0.0832  0.6603
  881MOL0     C18805   8.184   8.680   6.262 -0.2612 -0.3327  0.1989
  881MOL0     C18806   8.061   8.732   6.275 -0.3147 -0.5972  0.5969
  881MOL0     C18807   7.994   8.737   6.393  0.0735 -0.7502 -0.9068
  881MOL0     O18808   7.861   8.778   6.413 -0.4861  0.1477 -0.5445
  881MOL0     C18809   7.767   8.739   6.310  0.0265  1.2815 -0.3676
  881MOL0     C18810   7.662   8.645   6.359 -1.2210  0.6934 -0.6340
  881MOL0     C18811   7.608   8.684   6.493 -0.2176 -0.2526  0.2216
  881MOL0     C18812   7.479   8.606   6.512 -0.2060  0.0510 -0.1406
  881MOL0     C18813   7.461   8.584   6.666  0.2275 -0.4858 -0.1275
  881MOL0     C18814   7.569   8.500   6.740 -0.5169  0.9338 -0.5770
  881MOL0     C18815   7.601   8.356   6.680 -0.6210 -0.6196  0.2328
  881MOL0     C18816   7.495   8.253   6.701  0.2805 -0.4125 -0.8995
  881MOL0     N18817   7.547   8.118   6.715 -0.4218  0.0505  0.4891
  881MOL0     C18818   7.563   8.014   6.618  0.4206 -0.4966  0.0419
  881MOL0     C18819   7.626   7.920   6.682  1.0290 -0.2417 -0.1129
  881MOL0     C18820   7.669   7.778   6.636  0.4612  0.4205  0.5935
  881MOL0     C18821   7.806   7.716   6.667 -0.3452  0.6414  0.6820
  881MOL0     C18822   7.811   7.570   6.608  0.1072  0.0091 -0.1982
  881MOL0     C18823   7.808   7.571   6.452 -0.2361  0.1664  0.0298
  881MOL0     O18824   7.919   7.651   6.415 -0.2614  0.5946 -0.6049
  881MOL0     C18825   7.932   7.683   6.280  0.5569 -0.2924  0.2422
  881MOL0     C18826   7.859   7.629   6.171  0.6362 -0.4561 -0.8015
  881MOL0     C18827   7.888   7.675   6.039  0.4449 -0.0821 -0.3039
  881MOL0     C18828   7.990   7.762   6.007 -0.1554 -0.4326 -0.4222
  881MOL0     C18829   8.010   7.796   5.864  0.2762 -0.7560  0.1523
  881MOL0     O18830   8.144   7.826   5.829  0.1365  0.0625 -0.6647
  881MOL0     C18831   8.164   7.866   5.700 -0.2542 -0.4861  1.3408
  881MOL0     C18832   8.278   7.950   5.684 -0.8543 -0.0676 -0.2097
  881MOL0     C18833   8.319   8.002   5.565 -0.9846 -0.6423 -0.2702
  881MOL0     C18834   8.236   7.980   5.446 -0.5662  0.1570  0.2431
  881MOL0     O18835   8.258   8.021   5.316 -0.3931  0.9727 -0.0427
  881MOL0     C18836   8.352   8.124   5.289  0.0358  0.4197 -0.6706
  881MOL0     C18837   8.392   8.134   5.145  0.0345 -0.2355  0.0845
  881MOL0     C18838   8.298   8.229   5.053 -0.7249 -0.3510 -0.1611
  881MOL0     C18839   8.186   8.159   4.972  0.3700 -0.3524  0.1807
  881MOL0     C18840   8.071   8.113   5.061  0.0159  0.7133 -0.8198
  881MOL0     C18841   7.944   8.086   4.970  0.0770 -0.3985 -0.4764
  881MOL0     C18842   7.833   8.027   5.058  0.2522  0.2002 -0.2027
  881MOL0     C18843   7.814   7.875   5.032  0.3657 -0.2203 -1.1629
  881MOL0    Cl18844   7.721   7.842   4.887 -0.1730  0.2827  0.2724
  881MOL0     C18845   8.122   7.892   5.458 -0.0443 -0.3426 -0.1521
  881MOL0     C18846   8.086   7.834   5.584 -0.4554 -0.1488  0.9019
  881MOL0     O18847   7.916   7.811   5.788  0.2315  0.0974  0.0535
  881MOL0     C18848   8.078   7.794   6.103  0.0457 -0.7499  0.0900
  881MOL0     C18849   8.042   7.758   6.238  0.4212 -0.2773 -0.1394
  881MOL0     N18850   7.648   7.958   6.816 -0.2821 -0.1164 -0.1275
  881MOL0     N18851   7.598   8.072   6.835 -0.5249 -0.0739 -0.3843
  881MOL0     C18852   8.060   8.695   6.510 -0.1053 -0.0817  0.6922
  881MOL0     C18853   8.193   8.658   6.507 -1.0866 -0.4088 -0.2793
  881MOL0     C18854   8.577   8.589   6.266  0.1948 -0.0439 -0.4450
  881MOL0     C18855   8.646   8.519   6.361 -0.3393 -0.2641 -0.1770
  881MOL0     C18856   8.763   8.447   6.329 -0.2574  0.5110 -0.9694
  881MOL0     C18857   8.818   8.451   6.197  0.0340  0.1129  0.0386
  881MOL0     O18858   8.931   8.383   6.166  0.2280  0.0821 -0.3701
  881MOL0     C18859   9.015   8.337   6.271 -0.3534 -1.0290  0.2211
  881MOL0     C18860   9.138   8.301   6.204  0.1478  0.1792 -0.7865
  881MOL0     C18861   9.230   8.420   6.169  1.3548  0.6991 -0.0074
  881MOL0     C18862   9.324   8.373   6.053 -0.2069  0.0695 -0.5475
  881MOL0     C18863   9.416   8.262   6.081  0.2247 -1.0397 -0.6087
  881MOL0     C18864   9.477   8.170   6.121 -0.4096  0.1624 -0.8656
  881MOL0     C18865   8.745   8.518   6.103 -0.1262  0.0915  0.6785
  881MOL0     C18866   8.626   8.587   6.131  0.3971 -0.7367  0.1989
  881MOL0     C18867   8.573   8.678   6.023  0.4368 -0.5619 -0.0198
  881MOL0     H18868   8.225   8.681   6.162 -2.1642 -1.1248 -0.6459
  881MOL0     H18869   8.016   8.765   6.182 -0.1108  2.5733  1.4888
  881MOL0     H18870   7.716   8.829   6.273 -1.0648  1.4829  1.5276
  881MOL0     H18871   7.801   8.704   6.211 -2.7735  2.7495 -1.9660
  881MOL0     H18872   7.707   8.546   6.366 -0.5749  0.8260 -2.3600
  881MOL0     H18873   7.573   8.649   6.296 -3.0833  0.1050  1.8311
  881MOL0     H18874   7.572   8.786   6.473  0.7934  0.5046  2.0104
  881MOL0     H18875   7.682   8.680   6.573  0.6212 -0.0082 -0.5323
  881MOL0     H18876   7.397   8.663   6.467 -1.0806 -1.9751 -1.2730
  881MOL0     H18877   7.463   8.509   6.463 -2.0884  1.1104 -1.7695
  881MOL0     H18878   7.468   8.679   6.720  0.6356 -0.4969 -0.1543
  881MOL0     H18879   7.365   8.536   6.689 -0.4874  1.4079  1.0651
  881MOL0     H18880   7.662   8.556   6.745 -0.0666  0.2142 -0.7374
  881MOL0     H18881   7.530   8.487   6.842 -1.1957 -1.4583 -1.0607
  881MOL0     H18882   7.699   8.323   6.718  1.3618  1.8493 -2.3370
  881MOL0     H18883   7.610   8.369   6.572  1.4472  2.8913  0.6551
  881MOL0     H18884   7.448   8.265   6.798  1.3280  0.2429 -0.4549
  881MOL0     H18885   7.426   8.252   6.616 -2.6261 -1.0652  1.3239
  881MOL0     H18886   7.510   7.996   6.525  0.9747  1.6032 -0.7456
  881MOL0     H18887   7.593   7.707   6.672  1.2364 -0.6712  0.1402
  881MOL0     H18888   7.670   7.785   6.527  3.3207  0.1100  0.5213
  881MOL0     H18889   7.885   7.785   6.636 -0.7695 -0.2988 -2.9762
  881MOL0     H18890   7.820   7.713   6.775 -1.0229 -0.6805  0.7507
  881MOL0     H18891   7.736   7.500   6.648  0.1651  0.1853  0.2275
  881MOL0     H18892   7.904   7.524   6.643 -0.6746 -3.1970 -1.8914
  881MOL0     H18893   7.717   7.608   6.404 -0.5914  1.5304  1.6590
  881MOL0     H18894   7.814   7.467   6.417 -0.6754  0.4989 -1.0740
  881MOL0     H18895   7.771   7.568   6.187 -1.4375  2.4072 -0.7222
  881MOL0     H18896   7.818   7.641   5.964 -0.3273  1.5504 -0.3654
  881MOL0     H18897   8.333   7.988   5.769 -0.5832 -1.3167  0.2010
  881MOL0     H18898   8.407   8.065   5.565 -1.1135 -0.4634 -0.0001
  881MOL0     H18899   8.314   8.222   5.319 -2.4845 -0.9549  0.9041
  881MOL0     H18900   8.438   8.109   5.355 -2.1791  1.1025  2.6268
  881MOL0     H18901   8.485   8.191   5.150  1.6779 -2.5742 -1.7251
  881MOL0     H18902   8.413   8.036   5.103 -0.9049 -1.2735  1.9231
  881MOL0     H18903   8.258   8.309   5.115  1.6912 -0.0074  1.1035
  881MOL0     H18904   8.372   8.268   4.982  0.7056  0.4473  1.6849
  881MOL0     H18905   8.226   8.074   4.918  0.2348  0.2902 -0.9523
  881MOL0     H18906   8.146   8.231   4.900  3.3405  0.6589 -0.5976
  881MOL0     H18907   8.048   8.185   5.140 -1.0119  0.5859 -0.9879
  881MOL0     H18908   8.103   8.022   5.112  0.4940  0.7969 -0.9596
  881MOL0     H18909   7.905   8.180   4.930 -0.7876 -1.6530 -2.8079
  881MOL0     H18910   7.973   8.022   4.885 -3.9568 -2.2211 -0.7172
  881MOL0     H18911   7.742   8.077   5.024  1.9447  1.2115 -3.7134
  881MOL0     H18912   7.856   8.045   5.164  1.3037  0.5296 -0.4743
  881MOL0     H18913   7.912   7.827   5.034  0.2421 -0.4949 -1.6087
  881MOL0     H18914   7.756   7.843   5.120 -0.8703  1.6060 -1.2526
  881MOL0     H18915   8.069   7.873   5.365  1.5751 -0.4801 -1.0880
  881MOL0     H18916   7.998   7.771   5.584  0.0004 -0.8077  1.9830
  881MOL0     H18917   8.159   7.857   6.070 -0.4285  1.1898  2.3446
  881MOL0     H18918   8.114   7.789   6.313  1.2814  2.1083 -1.8355
  881MOL0     H18919   8.005   8.698   6.604 -3.4099  0.9333 -1.1029
  881MOL0     H18920   8.241   8.634   6.602 -0.5768 -0.4388 -0.5430
  881MOL0     H18921   8.619   8.510   6.466  3.5683 -3.5801  0.8356
  881MOL0     H18922   8.813   8.404   6.416 -0.0898 -1.4259 -1.9708
  881MOL0     H18923   8.956   8.255   6.312 -0.9843 -0.6674  0.0640
  881MOL0     H18924   9.024   8.417   6.346  0.2540  0.8514 -1.7438
  881MOL0     H18925   9.110   8.263   6.105 -1.1093  0.9436 -0.7388
  881MOL0     H18926   9.192   8.210   6.235 -1.1898 -0.6864 -0.9368
  881MOL0     H18927   9.282   8.459   6.257 -0.1718 -1.3884  1.9165
  881MOL0     H18928   9.176   8.506   6.128  0.2897  1.2980  2.5084
  881MOL0     H18929   9.264   8.346   5.966 -1.4460 -0.8320  0.5347
  881MOL0     H18930   9.377   8.463   6.022  1.1555  0.3595  2.2596
  881MOL0     H18931   9.544   8.105   6.173  2.6189  1.2131 -3.1529
  881MOL0     H18932   8.788   8.527   6.004  2.5698  0.9295  1.8257
  881MOL0     H18933   8.465   8.661   6.018  0.0948  0.9000  1.2934
  881MOL0     H18934   8.580   8.784   6.051  2.6481 -1.4968  3.7376
  881MOL0     H18935   8.618   8.666   5.925  3.3978  1.3255  0.9682
  882MOL0     O18936   3.333   2.452   3.419 -0.6118  0.3747  0.0245
  882MOL0     C18937   3.340   2.538   3.500 -0.2005 -0.1470  0.7966
  882MOL0     O18938   3.290   2.530   3.624 -0.3915  0.0608 -1.0418
  882MOL0     C18939   3.299   2.640   3.716 -0.1226  1.3992  0.6580
  882MOL0     C18940   3.376   2.622   3.835 -0.2518  0.1558  0.0147
  882MOL0     C18941   3.376   2.716   3.934 -0.5648 -0.0978 -0.3581
  882MOL0     C18942   3.303   2.829   3.918  0.2860 -1.0887  0.7556
  882MOL0     O18943   3.315   2.927   4.010  0.1556 -0.0596  0.2486
  882MOL0     C18944   3.242   2.900   4.132  0.9798 -0.1945 -0.0188
  882MOL0     C18945   3.099   2.937   4.116  0.4381  0.2974 -0.4793
  882MOL0     C18946   3.025   2.923   4.250  0.8545 -0.5208  0.3939
  882MOL0     C18947   2.874   2.932   4.224  0.2518  0.0375 -0.6777
  882MOL0     C18948   2.782   2.893   4.332  1.4881  0.2541 -0.1157
  882MOL0     C18949   2.639   2.959   4.307 -0.0371 -0.4545  0.3691
  882MOL0     C18950   2.561   2.934   4.430  1.3878  0.0030 -0.6810
  882MOL0     C18951   2.585   3.022   4.546 -0.4732 -0.1192  0.2531
  882MOL0     N18952   2.470   3.031   4.642 -0.2698  0.1418 -0.5359
  882MOL0     C18953   2.426   2.925   4.716  0.1498  1.3285  0.2184
  882MOL0     C18954   2.330   2.980   4.785 -0.0233 -0.1542 -0.5014
  882MOL0     C18955   2.268   2.928   4.915  0.1409 -0.1229  0.1843
  882MOL0     C18956   2.350   2.966   5.035  0.5987 -0.6947 -0.3096
  882MOL0     C18957   2.299   2.892   5.161  1.0938  0.1239  1.0094
  882MOL0     C18958   2.149   2.918   5.188 -0.5634 -0.1754  0.1055
  882MOL0     O18959   2.113   2.859   5.314 -0.4547  0.3115  0.3512
  882MOL0     C18960   1.993   2.883   5.354 -0.1440 -0.0507 -1.1404
  882MOL0     C18961   1.937   3.013   5.368  0.5019 -0.4793 -0.2337
  882MOL0     C18962   1.814   3.040   5.418  0.0926  0.4573  0.8761
  882MOL0     C18963   1.724   2.938   5.436 -0.0338 -0.8944  0.0281
  882MOL0     C18964   1.574   2.948   5.478 -0.7714  0.4772 -0.7269
  882MOL0     O18965   1.528   3.066   5.535 -0.0989  0.4633 -0.2765
  882MOL0     C18966   1.393   3.056   5.565  0.1660 -0.2161  0.7200
  882MOL0     C18967   1.344   2.988   5.673 -0.5289  0.4445 -0.4212
  882MOL0     C18968   1.212   3.003   5.713  0.5562  1.1119  0.1822
  882MOL0     C18969   1.121   3.061   5.631 -0.5926 -0.4760  0.5658
  882MOL0     O18970   0.991   3.071   5.675  0.1311 -0.6854 -0.4126
  882MOL0     C18971   0.881   3.119   5.594 -0.0513  0.3614  0.2696
  882MOL0     C18972   0.752   3.103   5.681  0.4142 -0.0432 -0.4089
  882MOL0     C18973   0.735   2.960   5.729  0.3793  0.1462 -0.3371
  882MOL0     C18974   0.769   2.850   5.620  0.7508 -1.1735  0.0357
  882MOL0     C18975   0.718   2.713   5.661 -0.2567  0.9749  0.4358
  882MOL0     C18976   0.753   2.676   5.807  0.7137 -0.4397  0.6393
  882MOL0     C18977   0.768   2.526   5.844  0.1444 -1.5586 -0.4254
  882MOL0     C18978   0.734   2.516   5.992 -0.2620 -0.4287 -0.1423
  882MOL0    Cl18979   0.817   2.641   6.083  0.2864 -0.4896  0.1317
  882MOL0     C18980   1.168   3.119   5.515  0.5479  0.1579 -0.8963
  882MOL0     C18981   1.303   3.117   5.483 -0.9307  0.4829  0.2849
  882MOL0     O18982   1.503   2.849   5.457 -0.3622  0.3505  0.0416
  882MOL0     C18983   1.776   2.812   5.415  0.0706 -0.6783 -0.2725
  882MOL0     C18984   1.914   2.780   5.389 -0.5900 -0.3315  0.6460
  882MOL0     N18985   2.314   3.113   4.755  0.8955  0.7091 -0.9820
  882MOL0     N18986   2.403   3.147   4.671  0.4558  0.3407 -0.3082
  882MOL0     C18987   3.243   2.850   3.798  0.0215  0.4220 -0.7112
  882MOL0     C18988   3.226   2.753   3.700  0.0182 -0.7434  1.0158
  882MOL0     C18989   3.422   2.655   3.468 -0.3074 -0.6287 -0.0526
  882MOL0     C18990   3.555   2.650   3.514  0.0583  0.8866 -0.1663
  882MOL0     C18991   3.649   2.751   3.485  1.0563  0.7331 -0.3217
  882MOL0     C18992   3.611   2.860   3.409  0.5652  0.1768 -0.7132
  882MOL0     O18993   3.698   2.955   3.354 -0.2918  0.1990  0.5657
  882MOL0     C18994   3.803   3.001   3.430  0.1001 -0.6072 -0.6279
  882MOL0     C18995   3.909   3.058   3.344 -0.3680  0.4665  0.4105
  882MOL0     C18996   3.972   2.949   3.265  0.4231 -0.1311 -0.6066
  882MOL0     C18997   4.092   3.001   3.181  0.6392  0.0229 -0.0563
  882MOL0     C18998   4.180   3.091   3.259  0.6549  0.1415 -0.8575
  882MOL0     C18999   4.248   3.175   3.312  0.3868 -0.0474  0.3716
  882MOL0     C19000   3.475   2.865   3.361 -0.6552  0.0884  0.7286
  882MOL0     C19001   3.381   2.767   3.392 -0.3412 -0.2093  0.7457
  882MOL0     C19002   3.243   2.778   3.330  0.1599  0.2654  0.1233
  882MOL0     H19003   3.432   2.529   3.838  1.5194  0.9559 -3.2058
  882MOL0     H19004   3.425   2.702   4.030 -0.1477  1.1398 -0.3744
  882MOL0     H19005   3.241   2.794   4.158 -1.4977  0.3596  2.6998
  882MOL0     H19006   3.270   2.956   4.221  0.2609 -0.3883  0.3366
  882MOL0     H19007   3.056   2.871   4.040 -0.7963  0.4845  0.0290
  882MOL0     H19008   3.091   3.042   4.088 -1.6007  0.8565  1.8652
  882MOL0     H19009   3.062   2.992   4.326  0.7584 -0.6364  0.5472
  882MOL0     H19010   3.043   2.826   4.297 -0.0896 -1.4346 -1.0767
  882MOL0     H19011   2.847   3.035   4.196 -1.5016  0.4067  2.0380
  882MOL0     H19012   2.837   2.879   4.136  1.0693  2.0769 -2.3434
  882MOL0     H19013   2.780   2.785   4.347 -3.4052  0.4446  3.0870
  882MOL0     H19014   2.823   2.934   4.425 -2.2359  0.0387  1.8118
  882MOL0     H19015   2.651   3.063   4.275  1.9081 -0.2987  1.4656
  882MOL0     H19016   2.587   2.909   4.224  1.2552 -0.8191 -0.2535
  882MOL0     H19017   2.577   2.834   4.470  3.3179  0.3118 -0.5793
  882MOL0     H19018   2.453   2.937   4.413  0.3494 -2.9971  3.6356
  882MOL0     H19019   2.678   2.984   4.590  0.4546 -0.4197 -1.8377
  882MOL0     H19020   2.600   3.125   4.512 -0.0346 -0.0008  0.8006
  882MOL0     H19021   2.480   2.835   4.742 -2.6505 -0.2043  1.1885
  882MOL0     H19022   2.165   2.965   4.918  0.0458 -0.0385 -2.1603
  882MOL0     H19023   2.247   2.821   4.902 -1.5590  0.3342 -1.3669
  882MOL0     H19024   2.458   2.967   5.017  0.9969  4.0275  0.9238
  882MOL0     H19025   2.336   3.073   5.052  0.6773 -1.0599  2.4745
  882MOL0     H19026   2.358   2.931   5.244 -0.8477  1.9245  1.6209
  882MOL0     H19027   2.321   2.786   5.143  2.4990  0.7334 -1.3585
  882MOL0     H19028   2.089   2.863   5.115 -1.5145 -2.8566  2.7034
  882MOL0     H19029   2.116   3.022   5.194  0.3895  0.0618  2.5080
  882MOL0     H19030   2.003   3.092   5.334  0.0854 -0.5705 -1.3015
  882MOL0     H19031   1.788   3.146   5.413  2.9384  1.1668 -1.9143
  882MOL0     H19032   1.407   2.919   5.729  0.5716  0.2319 -1.8502
  882MOL0     H19033   1.182   2.957   5.807  4.2849 -2.4158 -0.0608
  882MOL0     H19034   0.896   3.225   5.572 -1.9875  0.9494  1.4558
  882MOL0     H19035   0.866   3.056   5.506 -1.5333 -0.2619  0.9339
  882MOL0     H19036   0.750   3.173   5.764  0.4513 -0.1239 -0.3385
  882MOL0     H19037   0.663   3.130   5.624 -1.2574  1.8161  2.8536
  882MOL0     H19038   0.808   2.951   5.811 -1.4734 -0.7377  1.3024
  882MOL0     H19039   0.634   2.940   5.767  0.9922 -1.4022  0.5689
  882MOL0     H19040   0.877   2.850   5.601  0.7686  3.2055 -0.6995
  882MOL0     H19041   0.716   2.875   5.527 -0.8390  0.5172  1.3398
  882MOL0     H19042   0.765   2.642   5.592 -0.9407 -0.3068  1.2385
  882MOL0     H19043   0.611   2.708   5.638  0.1295  0.2954 -1.3151
  882MOL0     H19044   0.847   2.722   5.837 -0.1354  1.5218  0.4646
  882MOL0     H19045   0.667   2.719   5.858 -0.5182 -2.4402  0.3760
  882MOL0     H19046   0.871   2.493   5.830  0.7450 -0.3523  0.8556
  882MOL0     H19047   0.698   2.467   5.783 -5.4431  0.5505  3.1212
  882MOL0     H19048   0.626   2.517   6.003 -0.4886 -1.2374 -2.0397
  882MOL0     H19049   0.771   2.419   6.026 -1.8113 -1.4671 -1.3570
  882MOL0     H19050   1.097   3.158   5.443  1.7047  2.3054 -0.9567
  882MOL0     H19051   1.334   3.163   5.389 -0.3195 -0.9094 -0.2205
  882MOL0     H19052   1.717   2.721   5.420 -1.4154  0.1620 -1.4606
  882MOL0     H19053   1.957   2.681   5.380 -0.4223 -0.2544  0.5964
  882MOL0     H19054   3.184   2.941   3.803  0.4025  0.6214  0.3942
  882MOL0     H19055   3.168   2.765   3.610  3.9084  1.7012 -1.4933
  882MOL0     H19056   3.598   2.566   3.567 -0.8244 -0.0876 -0.9203
  882MOL0     H19057   3.749   2.743   3.528  0.4019  0.2521  1.2054
  882MOL0     H19058   3.852   2.923   3.490 -2.0605 -1.1252  0.5768
  882MOL0     H19059   3.776   3.084   3.495  2.3511  0.4704 -0.9854
  882MOL0     H19060   3.984   3.103   3.409 -0.1116  2.1441 -0.9653
  882MOL0     H19061   3.857   3.130   3.280  0.8851  1.6333  0.6643
  882MOL0     H19062   3.895   2.899   3.205 -0.3803  0.5548 -0.1864
  882MOL0     H19063   4.014   2.884   3.342  1.4507  1.3513  0.1434
  882MOL0     H19064   4.159   2.924   3.142  0.2189 -2.4459  3.5830
  882MOL0     H19065   4.039   3.050   3.098  0.6025  2.5297  1.3687
  882MOL0     H19066   4.311   3.245   3.363  2.0134 -0.4935 -0.9245
  882MOL0     H19067   3.444   2.941   3.290 -1.5774  1.7521  2.8211
  882MOL0     H19068   3.169   2.838   3.384 -0.3374 -0.5177  0.3256
  882MOL0     H19069   3.249   2.832   3.235 -2.9487 -0.4768 -0.6034
  882MOL0     H19070   3.185   2.686   3.319 -0.2207  0.5687 -0.4494
  883MOL0     O19071   9.483   0.484   7.168  0.4724 -0.0619  0.4410
  883MOL0     C19072   9.413   0.401   7.228  0.8957  0.2479  1.1092
  883MOL0     O19073   9.427   0.358   7.351  0.6130  1.1306  0.0453
  883MOL0     C19074   9.553   0.350   7.401 -0.0872 -0.6130 -0.0015
  883MOL0     C19075   9.672   0.315   7.335 -0.7509  0.2060  0.1706
  883MOL0     C19076   9.798   0.321   7.395  0.3977  0.2499  0.0288
  883MOL0     C19077   9.806   0.375   7.522 -0.4948 -0.4010  0.1578
  883MOL0     O19078   9.927   0.405   7.584  0.5206  0.3622  0.1503
  883MOL0     C19079  10.030   0.456   7.500  0.4257  0.1517 -0.2060
  883MOL0     C19080  10.131   0.542   7.575  0.4681  0.3774 -0.6588
  883MOL0     C19081  10.071   0.650   7.669  1.0243 -0.9847 -0.5442
  883MOL0     C19082   9.982   0.752   7.594  0.2278  0.1815  0.5133
  883MOL0     C19083   9.954   0.876   7.684  1.2619 -0.6298  0.7740
  883MOL0     C19084   9.902   0.863   7.827 -0.2997 -0.3580  0.6945
  883MOL0     C19085   9.783   0.781   7.842 -0.5212  0.9356 -0.2092
  883MOL0     C19086   9.656   0.839   7.773 -1.0652  0.2751  0.0463
  883MOL0     N19087   9.536   0.758   7.805 -0.8707 -0.7964  0.4301
  883MOL0     C19088   9.475   0.784   7.923  0.8504  1.2230 -0.1128
  883MOL0     C19089   9.385   0.685   7.933  1.0780  0.1494  0.3346
  883MOL0     C19090   9.296   0.655   8.056 -0.3832 -0.3183  0.5461
  883MOL0     C19091   9.152   0.669   8.009  0.1587 -0.3740  0.5293
  883MOL0     C19092   9.052   0.661   8.131 -1.0146 -0.0887 -0.0821
  883MOL0     C19093   8.909   0.682   8.105  0.9483 -0.1799 -0.2897
  883MOL0     O19094   8.868   0.602   8.000 -0.3200 -0.1762 -0.1063
  883MOL0     C19095   8.755   0.645   7.936 -0.2309  0.5767 -0.2281
  883MOL0     C19096   8.636   0.682   7.999  0.5682 -1.3190  0.1412
  883MOL0     C19097   8.516   0.719   7.933  0.3543 -0.6555  0.3719
  883MOL0     C19098   8.516   0.713   7.787 -0.3290  0.9148  0.1585
  883MOL0     C19099   8.394   0.750   7.713  0.1282 -0.1697 -0.3602
  883MOL0     O19100   8.304   0.818   7.785 -0.1971 -0.5834 -0.7180
  883MOL0     C19101   8.202   0.866   7.714  0.3996 -0.4057 -0.1083
  883MOL0     C19102   8.213   0.974   7.620  0.2310 -0.2815 -0.4712
  883MOL0     C19103   8.095   1.023   7.557  1.0377  0.3459  0.1362
  883MOL0     C19104   7.967   0.978   7.598  0.4049 -0.0575  0.0255
  883MOL0     O19105   7.863   1.045   7.547 -0.1214  0.4422  0.0476
  883MOL0     C19106   7.791   0.977   7.444  0.1386 -0.6147  0.2193
  883MOL0     C19107   7.705   1.069   7.372 -0.3389 -1.2004 -0.1890
  883MOL0     C19108   7.577   1.104   7.445  0.3694 -0.5950  0.0964
  883MOL0     C19109   7.511   1.230   7.385 -0.0517 -0.2037 -0.3979
  883MOL0     C19110   7.391   1.268   7.461  0.1176 -0.2146  0.1245
  883MOL0     C19111   7.279   1.161   7.450  0.4816 -0.1472  0.6833
  883MOL0     C19112   7.148   1.224   7.503 -0.7113  0.0655  0.7909
  883MOL0     C19113   7.064   1.315   7.413  0.2077 -0.9495  0.2170
  883MOL0    Cl19114   6.914   1.338   7.512 -0.1396 -0.2470 -0.0086
  883MOL0     C19115   7.955   0.887   7.699  0.1411  0.0696 -0.4796
  883MOL0     C19116   8.070   0.828   7.760 -0.0989  0.9206  0.1301
  883MOL0     O19117   8.385   0.722   7.597  0.2364  0.5573 -0.2309
  883MOL0     C19118   8.635   0.669   7.721  0.1393 -0.4547 -0.1291
  883MOL0     C19119   8.753   0.641   7.797 -0.0078  0.4609 -0.2530
  883MOL0     N19120   9.393   0.602   7.826  0.0341  0.3295  0.1194
  883MOL0     N19121   9.491   0.642   7.744  0.4879 -0.3342 -0.8081
  883MOL0     C19122   9.690   0.410   7.593 -0.0591  0.5060 -0.2934
  883MOL0     C19123   9.571   0.399   7.528 -0.1330  0.1709 -0.2078
  883MOL0     C19124   9.279   0.358   7.170  0.3014  0.2619  0.3312
  883MOL0     C19125   9.164   0.355   7.256 -0.7283  0.0857  0.2048
  883MOL0     C19126   9.042   0.301   7.221  0.2243  0.0432 -0.2343
  883MOL0     C19127   9.025   0.250   7.087 -1.1275  0.8992  0.0873
  883MOL0     O19128   8.911   0.189   7.044  0.3134  0.0078  0.1705
  883MOL0     C19129   8.787   0.218   7.114  1.2574  0.7480  0.0303
  883MOL0     C19130   8.682   0.090   7.101 -0.8758 -0.4454 -0.1559
  883MOL0     C19131   8.757  -0.036   7.156  0.5262  0.1272 -0.2619
  883MOL0     C19132   8.810  -0.028   7.299  0.4200  0.1005  0.5920
  883MOL0     C19133   8.708   0.033   7.384 -0.2423 -0.3916  0.5485
  883MOL0     C19134   8.609   0.071   7.444  0.0749 -0.1202 -0.0188
  883MOL0     C19135   9.140   0.254   7.006  0.4487 -0.3410  0.1543
  883MOL0     C19136   9.263   0.299   7.040  1.2968  0.3965 -0.2432
  883MOL0     C19137   9.372   0.283   6.944  0.1195 -0.4354  0.1558
  883MOL0     H19138   9.643   0.298   7.232 -2.7127  1.6928  0.4087
  883MOL0     H19139   9.889   0.294   7.343  1.9447  3.0304  1.0807
  883MOL0     H19140  10.074   0.367   7.454  1.6399  0.8128 -0.3735
  883MOL0     H19141   9.982   0.515   7.421 -2.4715 -1.5070  0.1868
  883MOL0     H19142  10.189   0.597   7.500  1.0733 -2.2978 -2.3078
  883MOL0     H19143  10.195   0.479   7.637 -1.2191  0.3592  1.1833
  883MOL0     H19144  10.150   0.703   7.724 -0.6420 -0.0229  1.0539
  883MOL0     H19145  10.015   0.596   7.746  1.3005  0.1642  0.4978
  883MOL0     H19146  10.029   0.784   7.499 -1.3582 -0.1767 -0.4256
  883MOL0     H19147   9.884   0.724   7.554  0.4111  0.6142 -0.2613
  883MOL0     H19148  10.053   0.919   7.701  1.7388 -0.8237 -1.2501
  883MOL0     H19149   9.889   0.942   7.626 -0.2768 -1.1681  1.8231
  883MOL0     H19150   9.985   0.831   7.891 -0.3712 -2.3347 -0.1276
  883MOL0     H19151   9.880   0.966   7.858 -0.6838  0.4442 -1.9376
  883MOL0     H19152   9.767   0.771   7.950  3.6516  1.4601  0.6074
  883MOL0     H19153   9.798   0.678   7.807 -2.4641  0.9608 -1.2775
  883MOL0     H19154   9.662   0.948   7.783  4.5850  0.7418 -3.8577
  883MOL0     H19155   9.667   0.833   7.664 -1.5225  2.4527 -0.1761
  883MOL0     H19156   9.497   0.841   8.013  3.6282 -0.7416  0.6234
  883MOL0     H19157   9.301   0.550   8.088  1.7856 -0.3504  0.2725
  883MOL0     H19158   9.327   0.725   8.134  0.1063 -1.6341  1.5789
  883MOL0     H19159   9.135   0.769   7.966 -3.1128 -1.4548 -1.0088
  883MOL0     H19160   9.129   0.591   7.936  0.6004  0.2782 -0.3335
  883MOL0     H19161   9.090   0.735   8.202  0.3996  0.2867 -1.1905
  883MOL0     H19162   9.064   0.562   8.178 -1.1635 -0.2928 -0.4763
  883MOL0     H19163   8.908   0.788   8.079  1.0072 -0.0013  0.4174
  883MOL0     H19164   8.849   0.667   8.195  0.9035  3.5344  0.4682
  883MOL0     H19165   8.633   0.673   8.108 -2.2373  0.7616  0.3354
  883MOL0     H19166   8.424   0.731   7.989 -0.2326 -0.9353 -0.5264
  883MOL0     H19167   8.310   1.006   7.585  0.1830 -1.5328 -1.8258
  883MOL0     H19168   8.094   1.101   7.481 -0.0991  1.4499  1.2445
  883MOL0     H19169   7.867   0.932   7.381  0.0695 -3.2215  1.8302
  883MOL0     H19170   7.728   0.893   7.476 -1.6313  0.1864 -0.9496
  883MOL0     H19171   7.770   1.157   7.363 -1.8355 -0.2236 -2.2536
  883MOL0     H19172   7.685   1.041   7.268 -0.1649 -1.4974 -0.1427
  883MOL0     H19173   7.507   1.020   7.440 -0.0196 -0.2490 -0.3841
  883MOL0     H19174   7.590   1.128   7.551 -0.1604  0.3313 -0.0371
  883MOL0     H19175   7.472   1.207   7.285 -1.5872  1.9359 -0.3565
  883MOL0     H19176   7.576   1.318   7.386  0.1713 -0.3605 -0.7793
  883MOL0     H19177   7.352   1.364   7.425  0.4840 -1.4147 -4.0254
  883MOL0     H19178   7.419   1.280   7.566 -2.0954  3.1963  0.4890
  883MOL0     H19179   7.268   1.117   7.351  1.4805 -0.4062  0.6736
  883MOL0     H19180   7.297   1.071   7.509 -2.7703 -2.2353 -1.1666
  883MOL0     H19181   7.184   1.276   7.592  1.3704 -1.5586  0.9966
  883MOL0     H19182   7.081   1.140   7.526 -2.4201  1.4842  1.1698
  883MOL0     H19183   7.116   1.409   7.390 -1.0697 -0.0719  0.7883
  883MOL0     H19184   7.040   1.268   7.318 -1.2338 -2.4186  1.2545
  883MOL0     H19185   7.860   0.848   7.732  0.9789 -1.8583 -0.1965
  883MOL0     H19186   8.044   0.764   7.844  3.7282 -2.6602 -1.0890
  883MOL0     H19187   8.629   0.656   7.614 -1.8313 -2.0289  0.0921
  883MOL0     H19188   8.847   0.601   7.760 -0.9400 -2.9547  0.6764
  883MOL0     H19189   9.694   0.451   7.693 -0.2928  1.0788 -0.5151
  883MOL0     H19190   9.477   0.426   7.575  0.3276 -1.9277  2.1189
  883MOL0     H19191   9.175   0.386   7.359 -2.0170 -2.2857  1.1356
  883MOL0     H19192   8.961   0.313   7.293 -0.3111  1.7271 -1.0689
  883MOL0     H19193   8.747   0.311   7.072  0.8115  1.0758  1.1587
  883MOL0     H19194   8.789   0.243   7.220 -2.9968 -1.7677  0.9451
  883MOL0     H19195   8.658   0.067   6.997  0.1208 -0.1257 -0.4716
  883MOL0     H19196   8.586   0.108   7.150 -0.0052 -0.2949  1.5799
  883MOL0     H19197   8.831  -0.082   7.090  0.7719 -1.2639  0.9227
  883MOL0     H19198   8.675  -0.107   7.170  1.0092 -0.3240  0.3389
  883MOL0     H19199   8.829  -0.132   7.326 -0.4797  0.2751  2.0445
  883MOL0     H19200   8.902   0.030   7.305 -1.0662  2.5355  2.2255
  883MOL0     H19201   8.521   0.094   7.502 -0.8071 -0.2133 -1.2745
  883MOL0     H19202   9.113   0.196   6.919 -0.9477 -3.4001  2.4212
  883MOL0     H19203   9.331   0.313   6.846  1.4240 -2.0234 -0.9177
  883MOL0     H19204   9.451   0.356   6.962 -1.8355  1.7043  0.6979
  883MOL0     H19205   9.415   0.183   6.943 -1.8780 -1.3533 -0.3894
  884MOL0     O19206  10.718   6.268   4.011 -0.0732 -0.1124 -0.0060
  884MOL0     C19207  10.763   6.279   3.899  0.4328 -0.4488 -0.7565
  884MOL0     O19208  10.696   6.254   3.777 -0.9598 -0.1680  0.6025
  884MOL0     C19209  10.560   6.257   3.759  0.4651 -0.5492 -0.0736
  884MOL0     C19210  10.465   6.267   3.860  0.8631  0.3153 -1.0832
  884MOL0     C19211  10.336   6.231   3.832  0.0844 -1.7109 -0.2319
  884MOL0     C19212  10.292   6.197   3.709  0.5513  0.0056 -0.1615
  884MOL0     O19213  10.160   6.165   3.674 -0.1186  0.1024 -0.1879
  884MOL0     C19214  10.057   6.155   3.774 -0.3295  0.2372 -0.0035
  884MOL0     C19215   9.922   6.146   3.694 -0.4737  1.0201 -0.7598
  884MOL0     C19216   9.893   6.005   3.643  0.2870  0.8671  0.7649
  884MOL0     C19217   9.943   5.985   3.497 -0.2288 -0.3355 -0.3994
  884MOL0     C19218   9.945   5.829   3.464  0.5695 -0.1661  0.4258
  884MOL0     C19219  10.070   5.756   3.516  0.1297 -0.1708  0.2614
  884MOL0     C19220  10.208   5.815   3.466 -0.0113  0.4307  0.6447
  884MOL0     C19221  10.311   5.717   3.531 -0.7607 -0.2529 -0.2381
  884MOL0     N19222  10.431   5.794   3.556  0.0936 -0.1389  0.0358
  884MOL0     C19223  10.448   5.867   3.672  0.3992  0.7854 -0.4841
  884MOL0     C19224  10.576   5.895   3.674 -0.7424  0.2221  1.1183
  884MOL0     C19225  10.663   5.942   3.785  0.3189  0.4266 -0.2719
  884MOL0     C19226  10.744   5.837   3.858  0.6893 -0.7831 -0.5537
  884MOL0     C19227  10.894   5.883   3.865 -0.5801  0.1881 -0.0922
  884MOL0     C19228  10.922   5.958   4.007 -0.7527 -0.3611 -0.4591
  884MOL0     O19229  11.052   6.014   3.974 -0.3355 -0.4358 -0.2375
  884MOL0     C19230  11.118   6.067   4.080 -0.0927 -1.1270 -0.6438
  884MOL0     C19231  11.130   5.996   4.195  0.3216 -0.3415 -0.1048
  884MOL0     C19232  11.193   6.054   4.313  0.6162 -0.6362 -0.2646
  884MOL0     C19233  11.255   6.178   4.302 -0.1091  0.5298  0.0339
  884MOL0     C19234  11.335   6.242   4.414 -0.1285 -0.2797  0.2228
  884MOL0     O19235  11.388   6.368   4.401  0.0271 -0.6318  0.7143
  884MOL0     C19236  11.437   6.439   4.511 -0.7294 -0.2420  0.3232
  884MOL0     C19237  11.548   6.384   4.584 -0.3485 -0.4982  0.7477
  884MOL0     C19238  11.601   6.439   4.699  0.3905 -0.1209 -0.6116
  884MOL0     C19239  11.539   6.562   4.737 -0.0422 -0.8392 -0.6773
  884MOL0     O19240  11.574   6.613   4.865 -0.1108  0.2276  0.8991
  884MOL0     C19241  11.685   6.696   4.869 -0.2921  0.3897  0.9809
  884MOL0     C19242  11.697   6.765   5.003  0.0868 -0.0779 -0.0612
  884MOL0     C19243  11.682   6.662   5.118  0.9334 -0.4941 -0.3069
  884MOL0     C19244  11.693   6.728   5.252  0.4771 -0.5420 -0.0768
  884MOL0     C19245  11.675   6.629   5.367  0.4075 -0.1472 -0.8121
  884MOL0     C19246  11.662   6.703   5.498 -0.7672 -0.1305  0.2973
  884MOL0     C19247  11.776   6.800   5.517 -0.4393  0.5540  0.1703
  884MOL0     C19248  11.803   6.813   5.667  0.3539  0.3304  0.5162
  884MOL0    Cl19249  11.968   6.889   5.686 -0.5530  0.1592 -0.3202
  884MOL0     C19250  11.430   6.616   4.671 -0.1878  0.3663 -0.2466
  884MOL0     C19251  11.376   6.557   4.552 -0.0142 -0.4455  0.0374
  884MOL0     O19252  11.339   6.174   4.519  0.0727 -0.7196 -0.6061
  884MOL0     C19253  11.235   6.255   4.181 -0.7226  0.6795  0.3519
  884MOL0     C19254  11.163   6.199   4.075 -0.4985  0.1473  0.2947
  884MOL0     N19255  10.625   5.841   3.554 -0.4333  0.3302  0.5874
  884MOL0     N19256  10.535   5.788   3.472  0.0515  0.0117  0.4573
  884MOL0     C19257  10.383   6.188   3.610  0.4985  0.1540  0.0877
  884MOL0     C19258  10.513   6.220   3.633  1.1956  0.7645  0.7712
  884MOL0     C19259  10.896   6.349   3.884  0.3281 -0.7817 -0.0152
  884MOL0     C19260  10.965   6.322   3.759 -0.5809  0.0094  0.1734
  884MOL0     C19261  11.084   6.394   3.722  0.4150 -0.6322 -0.5251
  884MOL0     C19262  11.137   6.488   3.811 -0.0495  0.2761 -0.4594
  884MOL0     O19263  11.266   6.526   3.780  0.0482 -0.7183  0.0897
  884MOL0     C19264  11.332   6.633   3.854  0.7755 -0.7561  0.1541
  884MOL0     C19265  11.274   6.774   3.812 -0.3482  1.0217  0.4788
  884MOL0     C19266  11.250   6.805   3.662 -0.7336  0.2217 -0.2651
  884MOL0     C19267  11.381   6.851   3.591 -0.5869 -0.4834 -0.7415
  884MOL0     C19268  11.420   6.998   3.609  0.3316  0.4182  0.3801
  884MOL0     C19269  11.465   7.114   3.615  0.9378 -0.4196 -0.1921
  884MOL0     C19270  11.066   6.512   3.929 -0.5741  1.1060 -0.2918
  884MOL0     C19271  10.947   6.447   3.971  0.7633  0.5322  0.2341
  884MOL0     C19272  10.882   6.480   4.100  0.0873  0.0155  0.4180
  884MOL0     H19273  10.490   6.315   3.954 -2.0328  1.6169 -0.8594
  884MOL0     H19274  10.259   6.247   3.906 -2.8040 -0.2392 -3.2887
  884MOL0     H19275  10.081   6.080   3.850 -1.6273  2.6459  2.9637
  884MOL0     H19276  10.058   6.244   3.837  0.3701 -1.0572  1.8991
  884MOL0     H19277   9.924   6.220   3.614  1.2119  0.1596 -1.5587
  884MOL0     H19278   9.841   6.177   3.762  0.9369  1.7954  0.6307
  884MOL0     H19279   9.785   5.988   3.651  0.2413 -0.8872 -2.1532
  884MOL0     H19280   9.942   5.936   3.712  0.9932  1.9187  1.3550
  884MOL0     H19281   9.881   6.045   3.431  0.3869  1.1540  0.3380
  884MOL0     H19282  10.048   6.016   3.492  0.8011 -2.7771  2.6854
  884MOL0     H19283   9.854   5.787   3.507  0.7625  0.0156  1.0127
  884MOL0     H19284   9.943   5.828   3.354 -1.7436  0.9176  0.4063
  884MOL0     H19285  10.081   5.761   3.624  3.0073 -1.7853  0.1505
  884MOL0     H19286  10.074   5.651   3.484 -0.2145  0.8509 -3.7046
  884MOL0     H19287  10.220   5.919   3.501  1.4410  0.6998 -0.5474
  884MOL0     H19288  10.221   5.806   3.358  0.9062 -0.7054  0.8360
  884MOL0     H19289  10.278   5.673   3.625 -0.6430  0.4239  0.1278
  884MOL0     H19290  10.326   5.630   3.466 -0.6974  0.9421 -1.9117
  884MOL0     H19291  10.380   5.878   3.755 -0.1397 -0.1937 -0.7805
  884MOL0     H19292  10.723   6.022   3.740  0.2754 -0.1587 -1.3959
  884MOL0     H19293  10.595   5.990   3.856 -0.9920 -0.7394 -0.7064
  884MOL0     H19294  10.705   5.822   3.959 -0.6605 -0.0116 -0.9332
  884MOL0     H19295  10.747   5.735   3.819  3.6658 -0.3580 -1.7299
  884MOL0     H19296  10.923   5.949   3.782  0.1524 -0.1437 -0.1051
  884MOL0     H19297  10.962   5.799   3.852  0.5472  0.8999  1.0387
  884MOL0     H19298  10.913   5.896   4.096 -2.3619  0.8083  0.2448
  884MOL0     H19299  10.857   6.045   4.025  1.1751  0.9885  0.2564
  884MOL0     H19300  11.100   5.892   4.201  2.2102 -1.0921 -2.1943
  884MOL0     H19301  11.203   5.989   4.399 -0.2906 -1.4249 -0.7406
  884MOL0     H19302  11.595   6.290   4.555  0.7838  0.4016 -0.4650
  884MOL0     H19303  11.689   6.404   4.753  0.2680  0.3738 -0.0898
  884MOL0     H19304  11.774   6.633   4.859 -0.9373 -0.7530  2.0636
  884MOL0     H19305  11.683   6.776   4.795 -0.4433  0.6511  1.2662
  884MOL0     H19306  11.787   6.824   5.023 -0.6685  0.4877  1.9882
  884MOL0     H19307  11.614   6.835   5.013  0.9778  0.9909 -0.0020
  884MOL0     H19308  11.598   6.593   5.104  0.8839 -0.4188 -0.3810
  884MOL0     H19309  11.761   6.587   5.107 -1.3722 -3.0600 -0.5198
  884MOL0     H19310  11.622   6.811   5.250  0.2262 -0.7538 -0.0134
  884MOL0     H19311  11.791   6.776   5.264 -1.2762  3.0681  1.1678
  884MOL0     H19312  11.763   6.564   5.365  2.9003  2.9837 -1.7606
  884MOL0     H19313  11.585   6.568   5.357 -0.5625  0.4173  2.8906
  884MOL0     H19314  11.572   6.764   5.488 -0.4050  0.3688  0.0587
  884MOL0     H19315  11.648   6.624   5.572  0.3970 -1.8493 -1.2206
  884MOL0     H19316  11.757   6.897   5.471 -1.7679  1.9865  3.3810
  884MOL0     H19317  11.868   6.763   5.473 -0.3443  2.8900 -1.7915
  884MOL0     H19318  11.720   6.865   5.717 -1.1991 -0.3093 -1.3109
  884MOL0     H19319  11.801   6.710   5.702 -4.6067  0.5503  1.6400
  884MOL0     H19320  11.376   6.702   4.709 -0.7375  1.3997 -3.1340
  884MOL0     H19321  11.284   6.597   4.511 -0.4828 -0.6242  0.8940
  884MOL0     H19322  11.279   6.354   4.168 -0.9876  0.9687  1.5759
  884MOL0     H19323  11.141   6.254   3.984 -3.1778  1.6718  1.7203
  884MOL0     H19324  10.339   6.146   3.521  2.2653 -2.6290  0.3731
  884MOL0     H19325  10.574   6.211   3.544  0.9865 -0.4209  0.7404
  884MOL0     H19326  10.934   6.254   3.681  0.9461  2.3391 -2.6978
  884MOL0     H19327  11.133   6.360   3.632  3.1073 -1.6273  1.1672
  884MOL0     H19328  11.439   6.631   3.832  0.6343  0.6810 -0.8005
  884MOL0     H19329  11.325   6.613   3.961 -1.6281  1.2611  0.4656
  884MOL0     H19330  11.352   6.844   3.845 -0.3502 -0.5790  4.4033
  884MOL0     H19331  11.179   6.792   3.861 -1.0823  0.9753 -0.8710
  884MOL0     H19332  11.159   6.864   3.654  0.5797  2.3905 -0.1665
  884MOL0     H19333  11.230   6.709   3.613 -1.8952  1.9728 -3.5668
  884MOL0     H19334  11.455   6.789   3.643 -0.3218  2.0549  2.2151
  884MOL0     H19335  11.380   6.829   3.484  2.1462 -1.4549 -0.6532
  884MOL0     H19336  11.495   7.216   3.622  0.7926 -0.3967  0.0892
  884MOL0     H19337  11.118   6.572   4.004  2.7800 -2.1918  0.3145
  884MOL0     H19338  10.911   6.577   4.141 -0.8806  0.5570 -0.1221
  884MOL0     H19339  10.774   6.484   4.080  0.2600  1.4123 -0.3725
  884MOL0     H19340  10.890   6.401   4.175 -2.8190  0.0706  0.9410
  885MOL0     O19341   8.349   8.934   3.671 -0.2245  0.5442  0.0942
  885MOL0     C19342   8.327   8.988   3.566  0.3080  0.6388 -0.3075
  885MOL0     O19343   8.188   9.027   3.541 -0.5279 -0.2419 -0.0977
  885MOL0     C19344   8.076   8.960   3.597 -0.8885  1.0288 -0.2657
  885MOL0     C19345   7.964   9.030   3.640 -0.9171 -0.6669 -0.3030
  885MOL0     C19346   7.865   8.967   3.702  0.0575  0.4545  0.4768
  885MOL0     C19347   7.852   8.831   3.716 -1.0661  0.4918 -0.5351
  885MOL0     O19348   7.736   8.766   3.750 -0.6706  0.5094  0.3414
  885MOL0     C19349   7.613   8.849   3.774 -0.1067  0.7574  0.4343
  885MOL0     C19350   7.507   8.753   3.844 -1.2763 -0.3091 -0.4002
  885MOL0     C19351   7.403   8.852   3.915 -0.7857  0.5526  0.0111
  885MOL0     C19352   7.295   8.764   3.977 -0.6012 -0.1926 -0.7534
  885MOL0     C19353   7.336   8.711   4.114 -1.2963 -0.3976  0.8701
  885MOL0     C19354   7.221   8.635   4.178 -0.4188 -0.7462 -0.6145
  885MOL0     C19355   7.171   8.501   4.108  0.3800 -1.2038  0.1562
  885MOL0     C19356   7.041   8.457   4.174  0.8259 -0.2673  0.5286
  885MOL0     N19357   7.060   8.384   4.299 -0.6348 -0.0033 -0.1443
  885MOL0     C19358   7.102   8.246   4.304 -0.3194  0.8631  0.6605
  885MOL0     C19359   7.135   8.227   4.436 -0.2731  0.0766 -0.3004
  885MOL0     C19360   7.188   8.092   4.485 -0.9280  0.2249 -1.0338
  885MOL0     C19361   7.324   8.048   4.442 -0.0208  0.2740 -0.7777
  885MOL0     C19362   7.430   8.120   4.530 -0.4633  0.1746  0.0695
  885MOL0     C19363   7.577   8.088   4.503 -0.2667  0.5972  0.6633
  885MOL0     O19364   7.600   7.949   4.470 -0.2965  0.7968  0.2979
  885MOL0     C19365   7.726   7.899   4.493 -0.4475  0.1224 -1.3248
  885MOL0     C19366   7.737   7.764   4.483  1.2964  0.4131  0.1819
  885MOL0     C19367   7.859   7.692   4.506 -0.1333 -1.0000  0.9217
  885MOL0     C19368   7.974   7.754   4.553  0.1575 -0.2958 -0.2370
  885MOL0     C19369   8.095   7.680   4.580  0.2338  0.2568 -0.6068
  885MOL0     O19370   8.197   7.750   4.615  0.1542 -0.3071 -0.2940
  885MOL0     C19371   8.324   7.707   4.588  0.5026 -0.2580  0.1174
  885MOL0     C19372   8.392   7.768   4.477  1.0331 -0.6090  0.7675
  885MOL0     C19373   8.521   7.737   4.450 -0.8402  0.4292 -1.0546
  885MOL0     C19374   8.586   7.638   4.521 -0.6948 -0.8616  0.1757
  885MOL0     O19375   8.720   7.611   4.497 -0.1258 -0.5495  0.6038
  885MOL0     C19376   8.747   7.577   4.358  0.1576  0.8888  0.3206
  885MOL0     C19377   8.897   7.599   4.330  0.4694  0.5129  0.0057
  885MOL0     C19378   8.939   7.742   4.339 -0.5846  0.1945  0.2660
  885MOL0     C19379   8.857   7.847   4.261 -0.2415 -0.1976 -0.4092
  885MOL0     C19380   8.927   7.972   4.209 -0.5841  0.6540 -0.4724
  885MOL0     C19381   8.836   8.053   4.119  0.1119 -0.1076 -0.7272
  885MOL0     C19382   8.898   8.188   4.074  0.4194 -0.0035 -0.0142
  885MOL0     C19383   8.800   8.262   3.978 -0.2767  0.1918  0.7291
  885MOL0    Cl19384   8.853   8.436   3.944 -0.2689 -0.4082  0.7565
  885MOL0     C19385   8.518   7.573   4.630 -0.3397  0.4961  1.0805
  885MOL0     C19386   8.393   7.620   4.669 -0.1284 -0.3641  0.8252
  885MOL0     O19387   8.089   7.557   4.568  0.0129  0.0397  0.2133
  885MOL0     C19388   7.963   7.892   4.568  0.2644  0.4703  0.9583
  885MOL0     C19389   7.837   7.970   4.548  0.2559  0.4573  0.4825
  885MOL0     N19390   7.128   8.347   4.500  0.2644  0.8088 -0.0868
  885MOL0     N19391   7.078   8.440   4.421 -0.0449  0.0965 -0.0969
  885MOL0     C19392   7.956   8.755   3.666 -0.3200 -0.4847 -0.1025
  885MOL0     C19393   8.073   8.817   3.608  0.1934  0.2950  0.5330
  885MOL0     C19394   8.433   9.024   3.475 -0.6652  0.3902 -0.0988
  885MOL0     C19395   8.563   9.056   3.524  0.9297  0.4417  0.7126
  885MOL0     C19396   8.670   9.078   3.435 -0.3523  0.3329 -0.0925
  885MOL0     C19397   8.657   9.061   3.299  0.1988  0.7050  0.2241
  885MOL0     O19398   8.760   9.074   3.217  0.3628 -0.7963 -0.1043
  885MOL0     C19399   8.735   9.105   3.078 -1.5148  0.4713 -0.0598
  885MOL0     C19400   8.851   9.175   3.006 -0.7557  0.1826  0.3236
  885MOL0     C19401   8.981   9.097   3.034  0.3610  0.7242 -0.2032
  885MOL0     C19402   9.093   9.126   2.931 -0.0352 -0.0272  0.0361
  885MOL0     C19403   9.216   9.065   2.979 -0.1077  0.1929 -0.0584
  885MOL0     C19404   9.302   8.976   3.003  0.7564 -0.5631 -0.2711
  885MOL0     C19405   8.529   9.035   3.251  0.2717  0.3132 -0.7794
  885MOL0     C19406   8.414   9.025   3.337  0.6361 -0.1538  0.1797
  885MOL0     C19407   8.279   8.992   3.278  0.0497 -1.5647  0.2822
  885MOL0     H19408   7.969   9.139   3.642  4.5746 -0.5859  2.4060
  885MOL0     H19409   7.801   9.039   3.753  1.5277  2.0262  0.1886
  885MOL0     H19410   7.626   8.936   3.838 -4.0583  0.9147  1.2745
  885MOL0     H19411   7.564   8.876   3.680  1.6569 -0.8242 -1.0429
  885MOL0     H19412   7.559   8.682   3.909  0.9125 -1.0037 -2.7375
  885MOL0     H19413   7.448   8.694   3.774 -2.4413 -0.1979  0.4618
  885MOL0     H19414   7.368   8.928   3.844  0.8964  0.8384 -0.5675
  885MOL0     H19415   7.458   8.901   3.996  0.0233  0.0162 -0.1952
  885MOL0     H19416   7.201   8.817   3.993 -0.1112  0.0328  1.6768
  885MOL0     H19417   7.277   8.675   3.917  2.1195 -1.3170 -0.0361
  885MOL0     H19418   7.422   8.644   4.103  1.2285  2.9306 -1.8322
  885MOL0     H19419   7.366   8.799   4.172 -0.5491 -0.2785  0.3225
  885MOL0     H19420   7.255   8.605   4.278 -0.4312 -1.1661 -0.7335
  885MOL0     H19421   7.140   8.708   4.187  2.0023  1.8884  3.0422
  885MOL0     H19422   7.247   8.423   4.118  0.3349 -0.9690  3.1582
  885MOL0     H19423   7.142   8.515   4.004  0.5719  0.4916  0.3006
  885MOL0     H19424   6.966   8.536   4.184 -0.7439 -1.8442  1.9602
  885MOL0     H19425   6.996   8.392   4.098  0.6077 -0.0899  0.5045
  885MOL0     H19426   7.105   8.169   4.228 -3.1397  1.3553 -0.0938
  885MOL0     H19427   7.191   8.098   4.594 -1.5274  0.0092 -1.0033
  885MOL0     H19428   7.113   8.020   4.451 -0.5666 -0.8401  0.3468
  885MOL0     H19429   7.333   7.939   4.449  2.4769  0.3197 -2.0981
  885MOL0     H19430   7.339   8.086   4.341  1.9921  4.4709  0.8475
  885MOL0     H19431   7.401   8.079   4.627 -2.7249  0.3821 -0.4459
  885MOL0     H19432   7.405   8.226   4.532  2.1224  0.8569 -0.7581
  885MOL0     H19433   7.635   8.121   4.590  2.0468  1.7864 -1.2020
  885MOL0     H19434   7.602   8.162   4.426  0.5210 -0.1290  0.2014
  885MOL0     H19435   7.653   7.706   4.445  1.2927  1.9374 -2.3436
  885MOL0     H19436   7.850   7.585   4.491 -3.9386 -0.5285 -1.6305
  885MOL0     H19437   8.331   7.831   4.414  2.9763 -2.1567 -3.0018
  885MOL0     H19438   8.568   7.794   4.370  1.8176 -0.5823 -0.3090
  885MOL0     H19439   8.729   7.472   4.335  2.1787  0.5124  0.3123
  885MOL0     H19440   8.698   7.646   4.289  4.0511  2.4161 -1.2024
  885MOL0     H19441   8.944   7.541   4.410 -0.1429 -0.9143 -0.6141
  885MOL0     H19442   8.921   7.559   4.231 -1.1233  1.0831 -0.6469
  885MOL0     H19443   8.928   7.775   4.443  3.3550 -0.7408  1.1578
  885MOL0     H19444   9.046   7.744   4.314  0.2257 -4.0933  2.5588
  885MOL0     H19445   8.772   7.875   4.324 -1.3095  2.7513 -2.8899
  885MOL0     H19446   8.819   7.803   4.168 -0.0072  1.7611 -1.4916
  885MOL0     H19447   9.001   7.923   4.146  1.0965  0.8259  1.2707
  885MOL0     H19448   8.977   8.032   4.286 -0.5703 -0.5167  0.4650
  885MOL0     H19449   8.801   8.002   4.029  0.5227 -2.0478  0.1637
  885MOL0     H19450   8.745   8.078   4.173  0.7693  0.8535 -0.0339
  885MOL0     H19451   8.981   8.182   4.002 -2.7273  2.9921 -4.4790
  885MOL0     H19452   8.924   8.244   4.164 -0.6707 -1.9957  1.6321
  885MOL0     H19453   8.785   8.209   3.884 -3.1342  0.6349  0.8421
  885MOL0     H19454   8.702   8.274   4.027  0.0509  0.7522  1.2668
  885MOL0     H19455   8.562   7.494   4.690 -0.8039 -0.3946  0.2832
  885MOL0     H19456   8.341   7.578   4.754 -1.6506  2.3734  1.3949
  885MOL0     H19457   8.058   7.940   4.588  0.5213 -0.6371  2.6204
  885MOL0     H19458   7.844   8.078   4.554 -3.8946  0.9010  0.8551
  885MOL0     H19459   7.951   8.647   3.654  3.6088 -0.6941 -1.5782
  885MOL0     H19460   8.160   8.764   3.570  0.6887  1.0573  0.5736
  885MOL0     H19461   8.582   9.056   3.631 -0.2686 -4.6542  1.1739
  885MOL0     H19462   8.769   9.102   3.472 -0.2380  2.1957 -1.4392
  885MOL0     H19463   8.645   9.164   3.057 -0.7082  2.0276  0.7046
  885MOL0     H19464   8.727   9.008   3.028  0.2946  0.1798  0.1416
  885MOL0     H19465   8.865   9.280   3.031 -1.2777  1.5786 -4.2524
  885MOL0     H19466   8.832   9.158   2.899 -0.7333 -4.1687  0.8409
  885MOL0     H19467   8.961   8.991   3.018  0.9176  0.9361 -2.8564
  885MOL0     H19468   9.020   9.120   3.133  0.8844  1.7557 -0.6248
  885MOL0     H19469   9.074   9.087   2.831 -3.4034  1.0466  0.1275
  885MOL0     H19470   9.105   9.234   2.918 -0.1144 -0.3124 -3.0768
  885MOL0     H19471   9.376   8.900   3.018  0.4529 -0.3325  3.2153
  885MOL0     H19472   8.512   9.019   3.145  1.4135  0.4859 -0.9978
  885MOL0     H19473   8.282   8.970   3.171 -1.8873  0.8287 -0.3596
  885MOL0     H19474   8.221   8.915   3.330 -2.6794  0.8785  1.1791
  885MOL0     H19475   8.216   9.081   3.289 -0.2003 -1.8212  0.9705
  886MOL0     O19476   2.591   7.699   3.540 -0.2777 -0.2614  0.0386
  886MOL0     C19477   2.708   7.694   3.507 -0.3094  0.4775  0.5829
  886MOL0     O19478   2.760   7.721   3.384 -0.7498  0.8150 -0.1103
  886MOL0     C19479   2.680   7.790   3.293 -0.4371  0.3434 -0.5665
  886MOL0     C19480   2.677   7.746   3.162 -0.0902  1.2883  0.8192
  886MOL0     C19481   2.600   7.804   3.058 -0.7742 -0.5263 -0.5542
  886MOL0     C19482   2.509   7.906   3.093  0.1200 -0.2639  0.6473
  886MOL0     O19483   2.436   7.971   3.001  0.1586 -0.5106 -0.0897
  886MOL0     C19484   2.428   7.924   2.862 -0.1553 -0.3393  0.8361
  886MOL0     C19485   2.298   7.980   2.797 -0.0708  0.1449 -0.4024
  886MOL0     C19486   2.191   7.990   2.907 -0.4131 -0.0841 -0.5195
  886MOL0     C19487   2.054   7.991   2.840  0.3611 -0.1824 -0.9309
  886MOL0     C19488   1.940   8.024   2.938  1.2470 -0.2576 -0.6102
  886MOL0     C19489   1.911   7.904   3.027 -0.2752  0.4820 -0.1813
  886MOL0     C19490   1.790   7.936   3.123  0.4541 -0.2632 -0.4756
  886MOL0     C19491   1.653   7.907   3.067 -0.1372 -0.3834 -0.6092
  886MOL0     N19492   1.616   8.006   2.970 -0.3433  0.7053  0.1092
  886MOL0     C19493   1.569   8.124   3.009  0.6151 -0.7566  0.7750
  886MOL0     C19494   1.539   8.185   2.890 -0.2329  0.7631 -0.1903
  886MOL0     C19495   1.496   8.326   2.893 -0.5993 -0.0362 -0.4423
  886MOL0     C19496   1.587   8.410   2.808  0.0119 -0.2219  0.5046
  886MOL0     C19497   1.548   8.556   2.784 -0.1779 -0.4669 -0.1655
  886MOL0     C19498   1.657   8.636   2.701 -0.2937  0.2022  0.0551
  886MOL0     O19499   1.663   8.593   2.567 -0.4793 -0.2340  0.6087
  886MOL0     C19500   1.568   8.629   2.477 -0.5678  0.3556 -1.1148
  886MOL0     C19501   1.551   8.549   2.362  0.0384  0.4626 -0.0937
  886MOL0     C19502   1.468   8.584   2.253  0.2016  0.8483  0.4849
  886MOL0     C19503   1.385   8.694   2.259  0.8393 -0.7291 -0.4602
  886MOL0     C19504   1.294   8.746   2.144  0.7809  0.1372 -0.1413
  886MOL0     O19505   1.285   8.668   2.031 -0.2133  0.2019 -0.0532
  886MOL0     C19506   1.192   8.689   1.932  0.2306 -0.4823 -0.0845
  886MOL0     C19507   1.189   8.801   1.852  0.2595  0.4489  0.0544
  886MOL0     C19508   1.086   8.822   1.761 -0.4072  0.0352  0.2257
  886MOL0     C19509   0.971   8.734   1.759 -0.0396 -0.5138  0.2044
  886MOL0     O19510   0.851   8.761   1.689  0.3207 -0.8423 -0.6957
  886MOL0     C19511   0.841   8.680   1.576  0.0362 -0.1961  0.3477
  886MOL0     C19512   0.697   8.678   1.530  0.0583  0.2119  1.0472
  886MOL0     C19513   0.666   8.570   1.416  0.2411 -0.2130  1.5171
  886MOL0     C19514   0.686   8.416   1.458  0.8733 -0.2864  0.1115
  886MOL0     C19515   0.635   8.379   1.587  0.4478  0.5997 -0.2295
  886MOL0     C19516   0.487   8.378   1.614 -0.3879 -0.0233 -1.5696
  886MOL0     C19517   0.449   8.325   1.754 -0.0559  0.8037 -0.1524
  886MOL0     C19518   0.315   8.364   1.800 -0.2066  0.6282 -0.4557
  886MOL0    Cl19519   0.280   8.234   1.916 -0.0137 -0.2555  0.2230
  886MOL0     C19520   0.979   8.622   1.835 -0.3245 -0.6461  0.8452
  886MOL0     C19521   1.087   8.597   1.924  0.1160 -0.0807  1.0571
  886MOL0     O19522   1.237   8.855   2.152 -0.6218 -0.0607 -0.0949
  886MOL0     C19523   1.396   8.772   2.375 -0.4678  0.6689  0.2468
  886MOL0     C19524   1.485   8.736   2.485 -0.1606 -0.4810  0.2102
  886MOL0     N19525   1.567   8.102   2.780  0.4121 -0.4355 -0.5123
  886MOL0     N19526   1.611   7.994   2.831 -0.4344 -0.1798 -0.2248
  886MOL0     C19527   2.498   7.937   3.227 -0.1135 -0.1458 -0.3552
  886MOL0     C19528   2.587   7.887   3.321 -0.0958 -0.3264  0.0810
  886MOL0     C19529   2.800   7.666   3.621 -1.2694 -1.0237 -0.4035
  886MOL0     C19530   2.757   7.684   3.747 -0.9936 -0.2195  0.4343
  886MOL0     C19531   2.846   7.702   3.853 -1.0500 -0.5747 -1.0339
  886MOL0     C19532   2.981   7.672   3.837  0.5266 -0.9491 -0.5295
  886MOL0     O19533   3.070   7.683   3.944  0.2245 -0.9862  0.1461
  886MOL0     C19534   3.030   7.738   4.071 -0.5627  0.8116 -0.1669
  886MOL0     C19535   3.143   7.703   4.167  0.5482  1.2056 -0.8935
  886MOL0     C19536   3.158   7.547   4.197 -0.2930 -0.7242 -0.1499
  886MOL0     C19537   3.252   7.473   4.105 -0.6005  0.5733  0.6160
  886MOL0     C19538   3.392   7.519   4.112 -0.0374 -0.0985 -0.4375
  886MOL0     C19539   3.501   7.570   4.125  0.3031 -0.0231 -0.1954
  886MOL0     C19540   3.022   7.640   3.713  0.5255  0.8684  0.1550
  886MOL0     C19541   2.938   7.633   3.600 -0.4248 -0.3432  1.3773
  886MOL0     C19542   3.006   7.595   3.465 -0.4766  0.5100  0.6095
  886MOL0     H19543   2.755   7.678   3.130 -1.3518 -0.8869  2.1378
  886MOL0     H19544   2.646   7.799   2.960 -0.1071  1.0288 -0.3414
  886MOL0     H19545   2.515   7.966   2.809  0.0873 -2.5429 -0.6527
  886MOL0     H19546   2.433   7.816   2.849  1.5832 -0.4227  1.8992
  886MOL0     H19547   2.271   7.912   2.717  0.5189 -0.3367 -0.1968
  886MOL0     H19548   2.315   8.082   2.759 -0.7535  1.4137  2.3997
  886MOL0     H19549   2.210   8.086   2.955 -0.8512 -1.1264  1.8890
  886MOL0     H19550   2.193   7.903   2.974  3.2615 -1.0110 -1.6216
  886MOL0     H19551   2.052   8.075   2.771 -0.1234 -0.7876 -1.6743
  886MOL0     H19552   2.023   7.901   2.786  0.6782  0.0422 -1.4805
  886MOL0     H19553   1.959   8.116   2.994 -3.2382 -0.2825  1.3765
  886MOL0     H19554   1.857   8.040   2.869  1.6017 -2.1446 -1.5257
  886MOL0     H19555   1.883   7.816   2.968 -1.9130 -1.3493  3.0632
  886MOL0     H19556   2.002   7.870   3.078 -1.9867 -3.6692  0.5363
  886MOL0     H19557   1.798   8.041   3.153 -0.7193 -0.2688 -0.0833
  886MOL0     H19558   1.803   7.876   3.212  0.7817  2.2123  1.2506
  886MOL0     H19559   1.642   7.810   3.016 -3.8777  0.0375 -0.9141
  886MOL0     H19560   1.573   7.903   3.141  0.0423 -0.3065 -0.4129
  886MOL0     H19561   1.572   8.183   3.099  1.0255  2.4423 -1.1793
  886MOL0     H19562   1.392   8.332   2.861 -1.2149  2.1342  1.6312
  886MOL0     H19563   1.502   8.368   2.994 -2.1224  1.1142 -0.7930
  886MOL0     H19564   1.684   8.400   2.858 -0.6055 -0.2388  1.7215
  886MOL0     H19565   1.583   8.376   2.704  2.4921  2.1260 -0.4771
  886MOL0     H19566   1.563   8.605   2.881  2.7111 -0.0171 -0.7551
  886MOL0     H19567   1.443   8.556   2.753  0.2268 -0.0103 -1.6147
  886MOL0     H19568   1.752   8.601   2.744  0.6023  1.6909 -0.6402
  886MOL0     H19569   1.648   8.744   2.711  0.9872  0.1403  2.5173
  886MOL0     H19570   1.622   8.467   2.353  1.4657  1.8118 -1.9640
  886MOL0     H19571   1.472   8.521   2.164 -0.1220  0.9832  0.3756
  886MOL0     H19572   1.265   8.877   1.860  0.8999 -0.3808  2.8424
  886MOL0     H19573   1.068   8.909   1.699  1.8688  0.1211 -0.3719
  886MOL0     H19574   0.912   8.721   1.504  0.6928 -1.9733 -0.0756
  886MOL0     H19575   0.867   8.577   1.604  0.3328  0.3608  2.2706
  886MOL0     H19576   0.632   8.668   1.617  0.4939  2.1282  1.6356
  886MOL0     H19577   0.666   8.777   1.495 -2.1446 -0.6757  0.3299
  886MOL0     H19578   0.561   8.597   1.403  0.1625 -1.0684  0.2653
  886MOL0     H19579   0.735   8.595   1.335 -0.1500  1.5935  1.6966
  886MOL0     H19580   0.795   8.399   1.457  0.7662 -1.4312  2.0692
  886MOL0     H19581   0.643   8.345   1.386 -0.1237  1.4665 -1.0758
  886MOL0     H19582   0.675   8.438   1.671 -1.2000  1.0737  0.2449
  886MOL0     H19583   0.672   8.281   1.621 -0.7130  0.7653  1.6717
  886MOL0     H19584   0.456   8.482   1.621 -0.7608 -0.2592  3.4316
  886MOL0     H19585   0.426   8.318   1.545 -0.0456  0.1333 -2.0079
  886MOL0     H19586   0.521   8.352   1.831  1.5496 -0.4994 -1.1365
  886MOL0     H19587   0.455   8.217   1.743 -0.8937  0.8539 -1.3465
  886MOL0     H19588   0.304   8.462   1.848  1.8040 -0.0857  1.6324
  886MOL0     H19589   0.245   8.364   1.715  0.4173  0.3814 -0.9789
  886MOL0     H19590   0.895   8.553   1.829  2.1111 -3.9042  1.2040
  886MOL0     H19591   1.095   8.510   1.989 -0.1203 -0.6906  0.2886
  886MOL0     H19592   1.347   8.866   2.399  1.4048  1.3739  1.4655
  886MOL0     H19593   1.476   8.806   2.567 -1.3917 -1.1978  0.7142
  886MOL0     H19594   2.433   8.016   3.262  1.1637  0.9384 -0.3522
  886MOL0     H19595   2.591   7.926   3.423  4.5652 -0.7990  0.3178
  886MOL0     H19596   2.654   7.709   3.772 -0.1677  3.0173  1.1220
  886MOL0     H19597   2.808   7.736   3.948 -4.3734 -2.5273 -1.5032
  886MOL0     H19598   2.935   7.696   4.107  0.2594 -2.9853 -1.9383
  886MOL0     H19599   3.009   7.845   4.058  2.6321  2.0238  2.9945
  886MOL0     H19600   3.102   7.755   4.254 -0.2266 -1.7613  0.6571
  886MOL0     H19601   3.228   7.754   4.122  1.5170 -1.4305 -2.2637
  886MOL0     H19602   3.062   7.494   4.185  0.6158 -2.2078 -1.2791
  886MOL0     H19603   3.179   7.520   4.301 -2.0201 -1.9067 -0.0613
  886MOL0     H19604   3.238   7.367   4.127 -3.1915  1.3090  3.1275
  886MOL0     H19605   3.220   7.500   4.005  1.3321  3.2475  0.5929
  886MOL0     H19606   3.584   7.637   4.118 -0.1421  0.5545 -0.0319
  886MOL0     H19607   3.126   7.610   3.703 -0.1135 -2.9192  2.5809
  886MOL0     H19608   3.047   7.672   3.398  2.5616 -1.3966  0.0373
  886MOL0     H19609   3.086   7.524   3.489 -0.7758  0.9198  3.0310
  886MOL0     H19610   2.934   7.542   3.402  0.3238 -1.5481  1.3451
  887MOL0     O19611  11.357   9.319   3.525  0.6676  0.1458 -0.4454
  887MOL0     C19612  11.448   9.352   3.445  0.1758 -0.7340 -0.9227
  887MOL0     O19613  11.516   9.272   3.367  0.0293  0.3911  0.5851
  887MOL0     C19614  11.508   9.133   3.392  0.0652  0.4845 -0.1215
  887MOL0     C19615  11.626   9.056   3.414 -0.1698  0.2856 -0.0756
  887MOL0     C19616  11.615   8.918   3.422  0.1056 -0.2290 -0.3135
  887MOL0     C19617  11.500   8.849   3.401 -0.2698  0.3350  0.3902
  887MOL0     O19618  11.485   8.715   3.405  0.1925  0.3009  0.1464
  887MOL0     C19619  11.561   8.627   3.316 -0.3927  0.0968 -0.0138
  887MOL0     C19620  11.667   8.553   3.399 -0.1544  0.0411 -0.1536
  887MOL0     C19621  11.790   8.498   3.327  0.5537  0.6633  0.1317
  887MOL0     C19622  11.760   8.424   3.198  0.1213 -0.5968  0.2117
  887MOL0     C19623  11.875   8.336   3.141  0.4293 -0.3411  0.7666
  887MOL0     C19624  11.837   8.270   3.010  0.4908 -0.3588  0.8138
  887MOL0     C19625  11.954   8.197   2.945 -0.3627 -0.9503 -0.8547
  887MOL0     C19626  11.925   8.138   2.808 -0.7630 -0.3899  0.1860
  887MOL0     N19627  12.047   8.075   2.761 -0.2078  0.3295 -0.6499
  887MOL0     C19628  12.131   8.130   2.669 -0.0432  0.6663  0.0595
  887MOL0     C19629  12.215   8.032   2.634 -0.8143  0.1025 -0.3591
  887MOL0     C19630  12.332   8.051   2.533 -1.1325  0.2022 -0.7105
  887MOL0     C19631  12.312   7.985   2.393  0.4633 -0.6727  0.4840
  887MOL0     C19632  12.374   7.851   2.360  0.7891  0.5002 -0.4582
  887MOL0     C19633  12.520   7.850   2.346 -0.2521  0.2285  0.6734
  887MOL0     O19634  12.578   7.724   2.309 -0.0851  0.6029  0.9105
  887MOL0     C19635  12.606   7.697   2.182 -0.7295 -1.1921 -0.3600
  887MOL0     C19636  12.739   7.663   2.158  0.5697 -0.0913 -0.2377
  887MOL0     C19637  12.779   7.641   2.030 -0.1409 -0.2383  0.2251
  887MOL0     C19638  12.692   7.630   1.922 -0.8159 -0.0977 -0.2985
  887MOL0     C19639  12.731   7.577   1.792 -0.0142 -0.6474  0.5402
  887MOL0     O19640  12.866   7.557   1.769 -1.1428  0.5960  0.3029
  887MOL0     C19641  12.906   7.479   1.664  0.0197 -0.0102 -0.7253
  887MOL0     C19642  12.853   7.349   1.653 -0.6639 -0.4767 -1.1686
  887MOL0     C19643  12.908   7.261   1.567  0.4221  0.2654  0.3938
  887MOL0     C19644  13.017   7.296   1.481  0.0612 -0.0038  0.2029
  887MOL0     O19645  13.073   7.199   1.391  0.4107 -0.2981  0.1953
  887MOL0     C19646  13.196   7.225   1.329 -0.0554 -0.1237  0.5693
  887MOL0     C19647  13.320   7.190   1.410 -0.0871  0.7119  0.0199
  887MOL0     C19648  13.306   7.065   1.492 -0.4692  0.6341 -0.5480
  887MOL0     C19649  13.337   6.947   1.403 -0.6673  0.3863 -1.0440
  887MOL0     C19650  13.318   6.818   1.487 -0.2247  0.3760  0.2374
  887MOL0     C19651  13.168   6.780   1.484  0.1283 -0.1639 -0.6515
  887MOL0     C19652  13.144   6.644   1.538  0.3720  0.1508 -0.1666
  887MOL0     C19653  12.998   6.615   1.565 -0.5494 -0.8721  0.5184
  887MOL0    Cl19654  12.908   6.648   1.408  0.1965 -0.1892  0.2569
  887MOL0     C19655  13.066   7.434   1.486  0.0537 -0.2783  0.5992
  887MOL0     C19656  13.013   7.524   1.580  0.8763  1.1582 -0.0360
  887MOL0     O19657  12.637   7.537   1.717  0.1243  0.0947 -0.5909
  887MOL0     C19658  12.558   7.656   1.942 -0.9115 -1.0945 -0.5387
  887MOL0     C19659  12.523   7.694   2.077  0.3317 -0.0360  0.4175
  887MOL0     N19660  12.183   7.912   2.708  0.1928 -0.1307  0.0615
  887MOL0     N19661  12.086   7.947   2.785 -1.0666 -0.2662  0.0206
  887MOL0     C19662  11.381   8.921   3.398 -0.0161 -0.3141  0.0776
  887MOL0     C19663  11.384   9.061   3.376  0.3370 -0.3491 -0.5166
  887MOL0     C19664  11.477   9.497   3.444 -0.4757  0.7303 -0.5875
  887MOL0     C19665  11.455   9.562   3.324  0.2357  0.1030 -0.1952
  887MOL0     C19666  11.510   9.691   3.309  0.4170  0.1218 -0.1567
  887MOL0     C19667  11.577   9.759   3.408  0.8633 -0.6570  0.5306
  887MOL0     O19668  11.614   9.886   3.395  0.0706 -0.6590 -0.7890
  887MOL0     C19669  11.610   9.955   3.266 -0.3617  0.1741  0.8260
  887MOL0     C19670  11.608  10.099   3.310 -0.5101  0.0541  0.4822
  887MOL0     C19671  11.624  10.183   3.177 -1.0277  0.5841 -0.8810
  887MOL0     C19672  11.638  10.329   3.210 -0.4024  0.4438 -1.2610
  887MOL0     C19673  11.516  10.385   3.275 -0.1569  0.6769  0.3820
  887MOL0     C19674  11.419  10.441   3.313 -0.1608  0.9401 -0.5849
  887MOL0     C19675  11.578   9.699   3.535  1.0253 -0.5144 -0.2193
  887MOL0     C19676  11.535   9.562   3.546 -0.5696  0.2527  0.3449
  887MOL0     C19677  11.574   9.496   3.677  0.4069 -0.3158  0.6901
  887MOL0     H19678  11.729   9.089   3.421 -0.0209 -0.1741 -0.1053
  887MOL0     H19679  11.708   8.863   3.432  0.6854  0.8148  0.2080
  887MOL0     H19680  11.500   8.551   3.266  0.3519 -1.5412  1.4409
  887MOL0     H19681  11.605   8.680   3.231 -0.4823 -1.2299 -0.9253
  887MOL0     H19682  11.622   8.468   3.451 -1.4388 -0.2453 -1.6436
  887MOL0     H19683  11.710   8.619   3.474 -1.2899  1.6825 -0.9043
  887MOL0     H19684  11.839   8.432   3.399 -0.3612  0.8567  0.9636
  887MOL0     H19685  11.852   8.584   3.300  1.7432 -0.7464 -1.8991
  887MOL0     H19686  11.684   8.351   3.227 -1.1191 -0.3687 -2.2196
  887MOL0     H19687  11.727   8.494   3.121  0.4295 -1.1005 -0.3936
  887MOL0     H19688  11.951   8.410   3.116  1.7828 -1.7717  0.4459
  887MOL0     H19689  11.924   8.264   3.207  1.3647 -1.6784 -1.2715
  887MOL0     H19690  11.761   8.195   3.032 -1.4120  1.3321  0.3206
  887MOL0     H19691  11.798   8.347   2.942 -1.2182 -0.5100  1.5733
  887MOL0     H19692  11.979   8.111   3.008 -1.9361  0.5240  1.9669
  887MOL0     H19693  12.038   8.266   2.935 -1.1256  0.2449  0.6306
  887MOL0     H19694  11.848   8.062   2.814 -1.7106  0.6177  5.2498
  887MOL0     H19695  11.902   8.227   2.747 -0.3689 -0.8409 -0.6449
  887MOL0     H19696  12.140   8.234   2.643  2.3495  0.2454 -1.0147
  887MOL0     H19697  12.340   8.159   2.522 -2.2904  0.3227 -0.4901
  887MOL0     H19698  12.429   8.042   2.584 -0.8900  2.0956 -0.7658
  887MOL0     H19699  12.205   7.983   2.372  0.9791  0.9850 -3.1424
  887MOL0     H19700  12.355   8.044   2.312  1.8066 -3.7215 -1.2157
  887MOL0     H19701  12.318   7.796   2.283 -0.4597 -1.2736  1.5828
  887MOL0     H19702  12.359   7.787   2.448  2.3768  0.6197 -0.0735
  887MOL0     H19703  12.574   7.883   2.436  3.9135  1.4505 -1.9650
  887MOL0     H19704  12.548   7.924   2.270  2.3682  0.9877  2.2462
  887MOL0     H19705  12.809   7.655   2.241 -0.7504 -0.7254  0.8599
  887MOL0     H19706  12.887   7.629   2.019  0.0113  2.1012 -1.8420
  887MOL0     H19707  12.764   7.318   1.708  0.1814 -3.9321 -1.5597
  887MOL0     H19708  12.877   7.157   1.563  0.3969  0.3169 -1.0568
  887MOL0     H19709  13.203   7.147   1.252  0.6057 -0.0509  0.5477
  887MOL0     H19710  13.192   7.319   1.272 -2.2978  0.1650  1.1196
  887MOL0     H19711  13.408   7.186   1.345 -1.4681 -1.5874 -1.8767
  887MOL0     H19712  13.342   7.257   1.494  0.3212  2.0201 -1.0884
  887MOL0     H19713  13.379   7.072   1.573 -0.0958 -2.0586 -0.5649
  887MOL0     H19714  13.212   7.053   1.546  0.8535  0.6712  1.8826
  887MOL0     H19715  13.443   6.939   1.378  0.1307 -1.3215  2.3430
  887MOL0     H19716  13.275   6.951   1.313 -1.4712  0.8310 -0.4865
  887MOL0     H19717  13.353   6.826   1.591 -0.5231 -0.3161  0.3960
  887MOL0     H19718  13.369   6.736   1.436 -0.3750  0.9784 -0.8998
  887MOL0     H19719  13.105   6.857   1.530 -0.6020 -1.6019  0.8581
  887MOL0     H19720  13.149   6.785   1.376  0.0123  1.4248 -0.5756
  887MOL0     H19721  13.201   6.644   1.631  0.5158  0.9641 -0.2489
  887MOL0     H19722  13.173   6.566   1.467  1.5832 -0.2032  0.6837
  887MOL0     H19723  12.982   6.512   1.596 -4.2935 -0.2899  0.9810
  887MOL0     H19724  12.966   6.687   1.641  0.8749  0.5440 -0.1396
  887MOL0     H19725  13.156   7.460   1.431  1.6062 -2.9285  1.7427
  887MOL0     H19726  13.057   7.622   1.587 -1.6841  2.4402 -0.6382
  887MOL0     H19727  12.484   7.665   1.863  0.2904  0.3316 -1.5641
  887MOL0     H19728  12.418   7.699   2.100  0.7644 -2.0509  3.3985
  887MOL0     H19729  11.284   8.873   3.398 -0.3371  0.2905 -1.4188
  887MOL0     H19730  11.296   9.117   3.347 -1.4091 -3.0866 -0.9035
  887MOL0     H19731  11.403   9.505   3.247  0.9823 -0.8815  0.0169
  887MOL0     H19732  11.513   9.731   3.208  3.1007 -2.5475 -1.3044
  887MOL0     H19733  11.526   9.931   3.199  2.1366 -1.5485 -1.9881
  887MOL0     H19734  11.704   9.948   3.210 -0.1490  3.3960  0.6330
  887MOL0     H19735  11.697  10.121   3.370 -1.0272  1.5613  0.7227
  887MOL0     H19736  11.515  10.113   3.365 -1.8965 -1.4587 -1.3677
  887MOL0     H19737  11.534  10.175   3.116 -1.1316 -1.3379 -0.5140
  887MOL0     H19738  11.716  10.161   3.122 -1.3061  1.7428 -1.8578
  887MOL0     H19739  11.714  10.343   3.287 -0.9304 -3.0826  0.0868
  887MOL0     H19740  11.647  10.389   3.119 -0.7306  1.8767 -0.3716
  887MOL0     H19741  11.340  10.511   3.334 -0.7176 -0.7241  4.1398
  887MOL0     H19742  11.610   9.748   3.626  2.2052 -2.0190  0.2315
  887MOL0     H19743  11.643   9.554   3.740 -0.7024  1.8494  0.0310
  887MOL0     H19744  11.483   9.485   3.737 -0.4586 -2.5504 -0.9200
  887MOL0     H19745  11.621   9.402   3.648  0.0987 -0.1625 -0.3237
  888MOL0     O19746   1.440   9.536   6.663 -0.4018 -0.2706  0.1284
  888MOL0     C19747   1.407   9.465   6.566 -0.1296 -0.2861  1.1782
  888MOL0     O19748   1.488   9.372   6.495  0.1859  0.0318  0.0388
  888MOL0     C19749   1.612   9.320   6.546  0.3203 -0.8512 -0.0677
  888MOL0     C19750   1.638   9.310   6.686  0.1485 -0.6540  0.2050
  888MOL0     C19751   1.746   9.241   6.742  1.0168 -0.3507  1.1720
  888MOL0     C19752   1.833   9.184   6.653 -0.8283 -0.1646  0.2777
  888MOL0     O19753   1.943   9.121   6.699 -0.0371 -0.5895  0.5641
  888MOL0     C19754   1.930   9.008   6.790 -0.2950 -0.0023  0.5844
  888MOL0     C19755   2.043   9.003   6.898  0.1802  1.0223 -0.6183
  888MOL0     C19756   2.059   8.869   6.967 -0.1917  0.3681  0.4831
  888MOL0     C19757   2.198   8.825   7.002 -1.1322 -0.7532  1.0199
  888MOL0     C19758   2.218   8.687   7.066  0.6049  0.0446 -0.1691
  888MOL0     C19759   2.201   8.596   6.955  0.3370 -1.4205 -0.6676
  888MOL0     C19760   2.202   8.449   7.024 -0.2717  0.1694 -0.1248
  888MOL0     C19761   2.220   8.332   6.920 -0.3253 -1.1624  0.2654
  888MOL0     N19762   2.205   8.196   6.987  0.2396 -0.5282 -0.1320
  888MOL0     C19763   2.203   8.172   7.128  0.2699  0.1027  1.2991
  888MOL0     C19764   2.155   8.049   7.146 -0.2782 -0.2530  0.0469
  888MOL0     C19765   2.137   7.972   7.267 -0.4789 -0.4542  0.4757
  888MOL0     C19766   2.261   7.961   7.354 -0.0066  0.6540  0.1043
  888MOL0     C19767   2.375   7.867   7.297 -0.2603 -1.1461 -0.2696
  888MOL0     C19768   2.461   7.784   7.397  0.2933 -0.0329 -0.8620
  888MOL0     O19769   2.511   7.885   7.478 -0.1527 -0.0198 -0.6733
  888MOL0     C19770   2.623   7.856   7.553  0.7061  0.0744 -0.8066
  888MOL0     C19771   2.624   7.923   7.678  0.4899  0.4210  0.1958
  888MOL0     C19772   2.739   7.934   7.757 -0.7550  0.3709 -0.5600
  888MOL0     C19773   2.860   7.865   7.725  0.6552 -0.1516  0.2888
  888MOL0     C19774   2.986   7.882   7.801  0.2147 -0.3749  0.3002
  888MOL0     O19775   2.985   7.971   7.911 -0.6150  0.2277 -0.4512
  888MOL0     C19776   3.084   7.955   8.007 -0.3188 -0.8245  0.7427
  888MOL0     C19777   3.041   7.935   8.135  0.4234 -0.2868  0.4343
  888MOL0     C19778   3.131   7.909   8.236  0.0282 -0.7976 -0.2153
  888MOL0     C19779   3.268   7.920   8.218  0.4858  0.5289 -0.7145
  888MOL0     O19780   3.345   7.887   8.331 -0.7656  1.1553 -0.3175
  888MOL0     C19781   3.485   7.854   8.312  0.3503 -0.1427 -0.4002
  888MOL0     C19782   3.553   7.854   8.445  0.7192  0.7285 -0.3376
  888MOL0     C19783   3.693   7.788   8.447  0.9017 -0.5088 -0.2145
  888MOL0     C19784   3.693   7.639   8.437  0.0034 -0.4566  0.2188
  888MOL0     C19785   3.836   7.589   8.442  0.0204 -0.0331 -0.0865
  888MOL0     C19786   3.883   7.601   8.302 -0.3585  0.0458 -0.2733
  888MOL0     C19787   4.028   7.563   8.298 -0.4860  0.2737  0.2444
  888MOL0     C19788   4.115   7.648   8.197  0.0951  0.0793 -0.9297
  888MOL0    Cl19789   4.076   7.629   8.021  0.5173 -0.1841 -0.0733
  888MOL0     C19790   3.314   7.938   8.088  0.1236  0.9921 -0.5887
  888MOL0     C19791   3.226   7.956   7.981 -0.5341  0.0024 -1.1486
  888MOL0     O19792   3.078   7.802   7.778  1.0272 -0.5611  0.6311
  888MOL0     C19793   2.857   7.797   7.598  0.0438  0.4826 -0.0283
  888MOL0     C19794   2.740   7.786   7.515 -1.1518  0.0174 -0.3985
  888MOL0     N19795   2.118   7.999   7.018 -0.6516 -0.2489 -0.6121
  888MOL0     N19796   2.149   8.090   6.925 -0.5930  0.3902  0.5087
  888MOL0     C19797   1.814   9.197   6.513 -0.8181 -0.8162  0.1519
  888MOL0     C19798   1.711   9.266   6.456  0.0656 -0.6421 -1.1244
  888MOL0     C19799   1.268   9.490   6.515  0.4737 -0.2537 -1.0364
  888MOL0     C19800   1.185   9.377   6.476 -0.1793 -0.0036  0.2444
  888MOL0     C19801   1.051   9.383   6.443 -1.2720 -0.3298  0.4260
  888MOL0     C19802   0.995   9.505   6.418  0.1342  0.2123 -0.7650
  888MOL0     O19803   0.872   9.514   6.373  0.5940  0.0967 -0.3813
  888MOL0     C19804   0.776   9.620   6.389  0.0920  0.1015 -0.4695
  888MOL0     C19805   0.638   9.563   6.392 -0.2894 -0.1232 -0.6068
  888MOL0     C19806   0.594   9.481   6.266  0.1986 -0.5452  0.3602
  888MOL0     C19807   0.619   9.328   6.273 -0.1616  0.2474 -0.6684
  888MOL0     C19808   0.511   9.262   6.196  0.0375 -0.8438  0.4474
  888MOL0     C19809   0.436   9.202   6.130  0.0806  0.0861 -0.7631
  888MOL0     C19810   1.070   9.620   6.452 -0.8341  0.2511 -0.7385
  888MOL0     C19811   1.198   9.616   6.496  1.1704  0.2652  0.5856
  888MOL0     C19812   1.261   9.747   6.523 -0.5407  0.0465 -0.0036
  888MOL0     H19813   1.567   9.346   6.760  2.4355 -1.8059  3.1667
  888MOL0     H19814   1.767   9.251   6.848  2.7862  0.5987  0.7880
  888MOL0     H19815   1.831   8.998   6.835  0.6745 -0.1318  2.8174
  888MOL0     H19816   1.938   8.925   6.720 -0.7214  1.9994 -1.9755
  888MOL0     H19817   2.018   9.073   6.978 -1.0616 -1.5474  1.3890
  888MOL0     H19818   2.135   9.035   6.850 -0.7106  0.7736 -2.5898
  888MOL0     H19819   2.030   8.801   6.887  2.0964 -0.5653  0.3600
  888MOL0     H19820   1.989   8.860   7.051  1.9129  2.0130  2.5545
  888MOL0     H19821   2.268   8.837   6.919 -0.7784 -1.6242  1.1821
  888MOL0     H19822   2.225   8.894   7.083 -4.6579  0.1827  1.5614
  888MOL0     H19823   2.315   8.675   7.115  1.5679 -0.3174 -2.0718
  888MOL0     H19824   2.139   8.689   7.141 -0.3663  0.9037 -1.1654
  888MOL0     H19825   2.106   8.604   6.901 -0.4429  1.2303  0.9072
  888MOL0     H19826   2.291   8.611   6.894  1.3686 -2.3586  0.5752
  888MOL0     H19827   2.103   8.439   7.070  0.3391  2.0642  1.7328
  888MOL0     H19828   2.273   8.432   7.105  0.0965  0.9728 -0.2765
  888MOL0     H19829   2.154   8.346   6.834 -0.1956  1.1030  0.4754
  888MOL0     H19830   2.315   8.336   6.866  0.2318 -0.0798  1.2775
  888MOL0     H19831   2.238   8.240   7.204 -0.6944 -2.1117  3.8849
  888MOL0     H19832   2.064   8.035   7.318 -0.8915 -0.8361  0.3583
  888MOL0     H19833   2.085   7.877   7.251 -0.9991 -0.0026 -0.6056
  888MOL0     H19834   2.302   8.055   7.391  3.0166 -0.1423 -0.9130
  888MOL0     H19835   2.213   7.919   7.443 -3.1858 -1.9676 -2.5641
  888MOL0     H19836   2.436   7.924   7.227  1.2945 -2.7613 -0.3207
  888MOL0     H19837   2.330   7.785   7.240 -3.1214 -0.6312  1.0764
  888MOL0     H19838   2.544   7.740   7.340  0.7854 -1.9317  1.1905
  888MOL0     H19839   2.396   7.714   7.449 -1.9406  0.9528 -2.1647
  888MOL0     H19840   2.532   7.974   7.706 -0.7515 -2.0658  1.0564
  888MOL0     H19841   2.745   7.983   7.853 -1.0843 -1.4282  0.4267
  888MOL0     H19842   2.934   7.921   8.152  0.1990 -0.1319 -0.7292
  888MOL0     H19843   3.096   7.888   8.337  2.9559  0.9243  1.3205
  888MOL0     H19844   3.504   7.757   8.265  1.5499  0.0253 -0.2786
  888MOL0     H19845   3.535   7.934   8.257  0.9828  0.2000  0.6394
  888MOL0     H19846   3.570   7.958   8.473 -0.3698  1.6274 -2.7146
  888MOL0     H19847   3.485   7.801   8.514 -1.5191  2.3566 -1.1739
  888MOL0     H19848   3.736   7.843   8.363  2.7636 -3.0931 -1.0859
  888MOL0     H19849   3.758   7.819   8.529  2.3533 -0.9990 -1.1516
  888MOL0     H19850   3.629   7.609   8.353  0.7101  0.6799 -0.7514
  888MOL0     H19851   3.641   7.599   8.525  1.2684 -3.2026 -0.1824
  888MOL0     H19852   3.843   7.484   8.469 -0.1715 -0.2151 -0.7150
  888MOL0     H19853   3.895   7.655   8.507 -1.6609  1.8130 -0.3083
  888MOL0     H19854   3.820   7.547   8.231  0.5884  0.7983 -1.7356
  888MOL0     H19855   3.875   7.705   8.270 -0.6399  0.8998  2.3028
  888MOL0     H19856   4.020   7.466   8.249 -3.0338  0.0105  1.0368
  888MOL0     H19857   4.073   7.551   8.397 -2.5168  1.9699  1.4682
  888MOL0     H19858   4.099   7.753   8.223 -3.9092 -0.1083 -1.9995
  888MOL0     H19859   4.219   7.618   8.212  0.6215  1.4740 -1.6502
  888MOL0     H19860   3.418   7.954   8.063  0.4325  0.9637  0.6253
  888MOL0     H19861   3.268   7.970   7.882 -0.7483  1.0475 -1.1026
  888MOL0     H19862   2.949   7.750   7.566  0.9748  3.2262 -1.7108
  888MOL0     H19863   2.735   7.727   7.424 -2.0349 -0.0621 -0.3079
  888MOL0     H19864   1.871   9.149   6.433 -1.5815  2.8264 -2.8467
  888MOL0     H19865   1.716   9.274   6.348 -1.0415  0.5389 -1.1118
  888MOL0     H19866   1.221   9.275   6.487  0.1459  0.2821  2.1791
  888MOL0     H19867   0.991   9.294   6.431 -3.3051  1.0525 -0.1870
  888MOL0     H19868   0.794   9.700   6.317  1.5485  0.3136  0.0898
  888MOL0     H19869   0.800   9.662   6.487 -1.4791  0.7756 -0.3457
  888MOL0     H19870   0.571   9.648   6.409 -0.2303 -0.7290  3.9382
  888MOL0     H19871   0.627   9.502   6.482  0.0569  0.6834 -0.0073
  888MOL0     H19872   0.661   9.518   6.187  0.3413 -1.6181 -0.0442
  888MOL0     H19873   0.491   9.506   6.242 -0.2232 -1.2490  1.3859
  888MOL0     H19874   0.715   9.300   6.229  0.2136 -1.3345  1.0354
  888MOL0     H19875   0.640   9.290   6.374 -1.4159 -2.4681 -1.3377
  888MOL0     H19876   0.367   9.152   6.064 -1.5721  1.4007 -0.1045
  888MOL0     H19877   1.029   9.720   6.444  2.4821  2.1109  2.5550
  888MOL0     H19878   1.368   9.730   6.510 -0.3474  0.6682  0.7090
  888MOL0     H19879   1.236   9.824   6.449 -1.3765  0.3804  0.6095
  888MOL0     H19880   1.253   9.790   6.623 -1.3373 -3.7195  1.7198
  889MOL0     O19881   3.653   4.551  10.007  0.4902 -1.1256 -0.6338
  889MOL0     C19882   3.753   4.564   9.935  0.1297  0.0371  0.2444
  889MOL0     O19883   3.883   4.566   9.980 -0.4160  0.2635  0.2953
  889MOL0     C19884   3.898   4.578  10.114 -0.2775 -0.2714  0.6484
  889MOL0     C19885   3.921   4.461  10.189 -0.0921 -0.4473  0.5946
  889MOL0     C19886   3.910   4.476  10.328 -0.7779  0.4917 -0.0155
  889MOL0     C19887   3.898   4.596  10.400 -0.7875  1.3143  0.2567
  889MOL0     O19888   3.890   4.607  10.533 -0.2887  0.0108  0.3636
  889MOL0     C19889   4.011   4.563  10.605 -0.7328 -0.2957  0.7675
  889MOL0     C19890   4.120   4.676  10.601 -0.4499 -0.4733  0.2923
  889MOL0     C19891   4.235   4.650  10.698 -0.0158  0.5163 -0.3681
  889MOL0     C19892   4.247   4.766  10.792  0.1623  0.2001  0.3596
  889MOL0     C19893   4.364   4.778  10.878 -0.8686  0.5605 -0.2457
  889MOL0     C19894   4.348   4.680  10.994 -0.4976  0.5316  0.1035
  889MOL0     C19895   4.472   4.694  11.088  0.1469 -0.7159 -0.2383
  889MOL0     C19896   4.462   4.617  11.213 -0.5057 -0.6570 -0.1641
  889MOL0     N19897   4.587   4.635  11.297  0.2678  0.4837  0.0363
  889MOL0     C19898   4.722   4.647  11.253 -0.3380 -0.3158 -0.4950
  889MOL0     C19899   4.786   4.671  11.366  0.0935 -0.0201 -0.1006
  889MOL0     C19900   4.928   4.654  11.385  0.1514 -0.6632  1.4434
  889MOL0     C19901   4.947   4.523  11.448 -0.2636 -0.0492 -0.5465
  889MOL0     C19902   5.094   4.476  11.449 -0.6606  0.8909 -0.4471
  889MOL0     C19903   5.100   4.374  11.560 -0.7754  0.3753 -0.2398
  889MOL0     O19904   5.234   4.336  11.579  0.0929 -0.4142  0.0400
  889MOL0     C19905   5.261   4.231  11.660 -0.2629 -0.1783 -1.2163
  889MOL0     C19906   5.172   4.174  11.759 -0.3522  0.7990  0.0769
  889MOL0     C19907   5.206   4.064  11.832 -0.9087 -0.0862  0.3912
  889MOL0     C19908   5.332   4.003  11.815 -0.1495 -0.0233  0.1781
  889MOL0     C19909   5.367   3.873  11.891  0.5546  0.2456 -0.7273
  889MOL0     O19910   5.275   3.838  11.989  1.0895  0.2302  0.0532
  889MOL0     C19911   5.311   3.737  12.076  0.2878  0.9465 -0.3227
  889MOL0     C19912   5.368   3.766  12.209  0.8117  0.3188  0.4747
  889MOL0     C19913   5.415   3.670  12.291 -1.2403  0.8656  0.4012
  889MOL0     C19914   5.399   3.534  12.255 -0.0380 -0.5725  0.5760
  889MOL0     O19915   5.451   3.450  12.356 -0.6992  0.4433  0.2967
  889MOL0     C19916   5.441   3.310  12.330  1.4987 -0.4234 -0.7956
  889MOL0     C19917   5.528   3.239  12.214 -0.0014  0.0356 -0.1889
  889MOL0     C19918   5.657   3.179  12.276  0.8832  0.2388 -0.2110
  889MOL0     C19919   5.634   3.077  12.394  0.3928  0.8130 -0.9459
  889MOL0     C19920   5.776   3.029  12.428 -0.3554 -0.7035 -0.6085
  889MOL0     C19921   5.771   2.941  12.548  0.0223  0.0502  0.0834
  889MOL0     C19922   5.909   2.889  12.575 -0.1084 -0.9221  0.0575
  889MOL0     C19923   5.921   2.823  12.708 -0.0623 -0.1562 -0.0458
  889MOL0    Cl19924   6.090   2.769  12.724  0.0715  0.4237 -0.4924
  889MOL0     C19925   5.329   3.500  12.135  0.0274 -0.0039 -0.2101
  889MOL0     C19926   5.281   3.601  12.051 -0.1492  0.0313 -0.4093
  889MOL0     O19927   5.475   3.816  11.874 -0.1771  0.1973  0.4810
  889MOL0     C19928   5.424   4.076  11.727 -0.4204  0.3566 -0.1052
  889MOL0     C19929   5.386   4.180  11.652  0.7339 -0.1301  0.1317
  889MOL0     N19930   4.700   4.697  11.465 -0.7072  0.2566  1.0045
  889MOL0     N19931   4.585   4.668  11.431  0.2453 -0.3924 -0.2261
  889MOL0     C19932   3.901   4.705  10.319 -0.8702 -0.0643 -0.1015
  889MOL0     C19933   3.886   4.697  10.179 -0.5799 -0.0804 -0.5215
  889MOL0     C19934   3.713   4.579   9.791 -0.5598  0.3775  0.0117
  889MOL0     C19935   3.595   4.645   9.764 -0.6301 -0.0463 -1.0048
  889MOL0     C19936   3.545   4.657   9.636 -0.4214 -0.0377  0.2814
  889MOL0     C19937   3.620   4.610   9.524  0.2225  0.6784 -0.1374
  889MOL0     O19938   3.584   4.638   9.394  0.6106  0.4174  0.2391
  889MOL0     C19939   3.444   4.670   9.366 -1.4485  0.3523 -0.0745
  889MOL0     C19940   3.412   4.821   9.362 -0.0291  0.2365 -0.6569
  889MOL0     C19941   3.266   4.853   9.326 -0.2753 -0.1967 -1.1044
  889MOL0     C19942   3.223   4.793   9.186  0.0845  0.1439  0.2431
  889MOL0     C19943   3.097   4.854   9.152 -0.2823 -0.1751 -0.0419
  889MOL0     C19944   2.989   4.912   9.140 -0.1484 -0.4317  0.0681
  889MOL0     C19945   3.739   4.549   9.557 -0.8041 -0.6505  0.2556
  889MOL0     C19946   3.795   4.529   9.686  0.2924  1.5586 -0.0872
  889MOL0     C19947   3.926   4.455   9.705 -0.1378 -0.4779 -0.3986
  889MOL0     H19948   3.926   4.366  10.137 -1.9177 -0.2039 -0.1156
  889MOL0     H19949   3.921   4.385  10.386 -1.5264  1.1908  1.3021
  889MOL0     H19950   3.977   4.545  10.707 -0.4918  0.1589  0.9323
  889MOL0     H19951   4.045   4.473  10.554 -3.3712 -1.1610  0.3998
  889MOL0     H19952   4.070   4.771  10.622  1.4308  0.9351 -1.1711
  889MOL0     H19953   4.165   4.684  10.501  0.3302 -0.6757  0.6169
  889MOL0     H19954   4.327   4.636  10.641 -0.1220  1.0437 -0.6803
  889MOL0     H19955   4.220   4.558  10.754  0.4223 -0.5584 -1.9520
  889MOL0     H19956   4.242   4.860  10.736  0.2119 -0.4375 -0.7471
  889MOL0     H19957   4.158   4.759  10.855  0.3760 -2.2331  0.4980
  889MOL0     H19958   4.459   4.764  10.824 -1.4846  2.8260 -2.0892
  889MOL0     H19959   4.356   4.881  10.916  0.4571  1.6426 -2.6677
  889MOL0     H19960   4.256   4.683  11.054 -1.3787  0.9253 -1.2235
  889MOL0     H19961   4.343   4.576  10.959 -2.9076 -0.5224  3.0311
  889MOL0     H19962   4.479   4.797  11.122  3.1009 -1.1051  0.5993
  889MOL0     H19963   4.559   4.673  11.026 -1.6609 -1.7609 -2.6186
  889MOL0     H19964   4.378   4.658  11.270  0.6428 -1.2412  2.0848
  889MOL0     H19965   4.449   4.509  11.197  1.6153 -0.9261 -0.3724
  889MOL0     H19966   4.764   4.632  11.154 -0.9121  1.4825 -1.0560
  889MOL0     H19967   4.969   4.659  11.284 -2.9697 -1.7292  0.0108
  889MOL0     H19968   4.979   4.726  11.451  1.5131 -2.7223  2.7514
  889MOL0     H19969   4.906   4.532  11.550  2.8172 -0.6036  0.8589
  889MOL0     H19970   4.876   4.450  11.407 -1.9340  0.3609  1.4366
  889MOL0     H19971   5.157   4.565  11.458 -0.3330  0.5037  1.3924
  889MOL0     H19972   5.116   4.423  11.356 -0.6106  1.2243 -0.6285
  889MOL0     H19973   5.048   4.287  11.519  1.5839 -1.0438 -0.4338
  889MOL0     H19974   5.067   4.416  11.655  3.3717 -0.9546  2.0307
  889MOL0     H19975   5.070   4.209  11.765 -0.8052  0.0865 -2.2509
  889MOL0     H19976   5.132   4.030  11.904  0.5229 -0.0906  1.9204
  889MOL0     H19977   5.381   3.871  12.236  0.2901  0.6059 -0.3560
  889MOL0     H19978   5.471   3.687  12.383 -1.0245 -1.4821  0.7706
  889MOL0     H19979   5.458   3.260  12.425  1.5470  0.4258 -0.3482
  889MOL0     H19980   5.334   3.300  12.309  1.2529  1.7464 -0.7507
  889MOL0     H19981   5.466   3.159  12.174 -0.8180 -0.2777  1.5951
  889MOL0     H19982   5.546   3.313  12.135 -0.8102  0.6290  0.1621
  889MOL0     H19983   5.716   3.129  12.198  1.4394  1.9135 -0.8964
  889MOL0     H19984   5.706   3.274  12.297  0.4906  0.4968 -0.4682
  889MOL0     H19985   5.557   3.002  12.375 -0.3464  1.1433  0.5419
  889MOL0     H19986   5.604   3.121  12.490  3.0587  1.9016 -0.5196
  889MOL0     H19987   5.846   3.112  12.440 -1.3045  0.0396 -0.0448
  889MOL0     H19988   5.802   2.966  12.343 -0.5670 -0.4771 -0.8418
  889MOL0     H19989   5.740   3.016  12.622  0.2174  1.1779 -0.9525
  889MOL0     H19990   5.699   2.861  12.530 -0.9893  1.1287 -0.8266
  889MOL0     H19991   5.972   2.979  12.580 -1.3455  0.0078 -0.5259
  889MOL0     H19992   5.950   2.823  12.498 -0.1782 -1.0762  0.1541
  889MOL0     H19993   5.904   2.896  12.787 -0.3129  0.4368 -0.6283
  889MOL0     H19994   5.843   2.748  12.722  1.8436 -2.0605  0.8554
  889MOL0     H19995   5.314   3.397  12.104 -1.6501 -0.9498  3.1958
  889MOL0     H19996   5.235   3.573  11.957  1.5184  2.0878 -1.9541
  889MOL0     H19997   5.517   4.029  11.698 -1.3521 -0.3320 -2.0964
  889MOL0     H19998   5.460   4.231  11.591  1.6456 -2.0452 -0.4267
  889MOL0     H19999   3.896   4.808  10.354 -2.0893  0.5503 -1.9494
  889MOL0     H20000   3.862   4.788  10.124 -1.5547  1.0443  1.6579
  889MOL0     H20001   3.529   4.685   9.840 -2.7115 -0.5608 -2.4837
  889MOL0     H20002   3.456   4.718   9.626  1.9227  4.2875  2.7645
  889MOL0     H20003   3.381   4.610   9.432  1.1080 -1.8116  0.5625
  889MOL0     H20004   3.416   4.642   9.264 -1.1492 -3.3381  0.7391
  889MOL0     H20005   3.477   4.855   9.281  1.5761  0.9293  0.8309
  889MOL0     H20006   3.438   4.862   9.460 -2.2660 -2.6472  1.3064
  889MOL0     H20007   3.258   4.962   9.324 -0.7448 -0.1826  0.2605
  889MOL0     H20008   3.194   4.814   9.399 -0.0355  0.5225 -0.4607
  889MOL0     H20009   3.301   4.811   9.111 -0.1227  0.5153  0.1131
  889MOL0     H20010   3.222   4.685   9.201  2.1255  0.2839  1.8694
  889MOL0     H20011   2.893   4.958   9.149  0.2691  0.8165 -1.3756
  889MOL0     H20012   3.795   4.527   9.466 -0.6043  1.6326 -0.2326
  889MOL0     H20013   4.007   4.528   9.691  0.8264 -1.6178 -0.9613
  889MOL0     H20014   3.921   4.409   9.804  0.0200 -0.2016 -0.2593
  889MOL0     H20015   3.924   4.375   9.631 -2.3553  1.2038 -2.3273
  890MOL0     O20016   7.063   6.736   1.955  0.3475 -0.3233  0.0233
  890MOL0     C20017   7.093   6.840   2.004  0.4732 -0.1178  0.1307
  890MOL0     O20018   7.201   6.913   1.973  0.3615  0.2977  0.2044
  890MOL0     C20019   7.297   6.856   1.886  0.1223  0.5584 -0.4214
  890MOL0     C20020   7.403   6.784   1.949  0.5444 -0.2275  0.3356
  890MOL0     C20021   7.499   6.726   1.863  0.0896  0.1328  0.0289
  890MOL0     C20022   7.492   6.728   1.729 -0.1925  0.0187  0.5975
  890MOL0     O20023   7.587   6.676   1.651  0.7081 -0.1913  0.3580
  890MOL0     C20024   7.717   6.646   1.699  1.2035  0.0867  0.2178
  890MOL0     C20025   7.799   6.606   1.572 -0.2448  1.2498  1.2395
  890MOL0     C20026   7.772   6.470   1.511 -0.0257  0.3224 -0.3426
  890MOL0     C20027   7.865   6.427   1.402  0.0725  0.3021 -1.2258
  890MOL0     C20028   7.877   6.511   1.281 -0.4412  0.3706 -0.1917
  890MOL0     C20029   7.750   6.510   1.191 -0.5103 -0.4686  0.3247
  890MOL0     C20030   7.751   6.604   1.074 -0.9532  0.2011 -0.4140
  890MOL0     C20031   7.753   6.538   0.941 -0.4230 -0.1678  0.2054
  890MOL0     N20032   7.738   6.626   0.817  0.1113  0.4606  0.5091
  890MOL0     C20033   7.733   6.762   0.809 -0.1387  0.1697  0.1347
  890MOL0     C20034   7.758   6.787   0.680 -0.4692  0.1874  0.4316
  890MOL0     C20035   7.788   6.914   0.602 -0.8069 -1.1178  0.5383
  890MOL0     C20036   7.734   7.044   0.649 -0.5147 -0.0561  0.2880
  890MOL0     C20037   7.605   7.084   0.575  0.4660  0.5899 -0.5778
  890MOL0     C20038   7.522   7.175   0.669  0.0064 -0.7530 -1.1842
  890MOL0     O20039   7.433   7.243   0.582 -1.0021 -0.8309 -0.6660
  890MOL0     C20040   7.303   7.220   0.601  0.2736  0.1618 -0.4865
  890MOL0     C20041   7.239   7.130   0.514 -0.0467 -0.1525 -0.0802
  890MOL0     C20042   7.099   7.101   0.540 -0.7679 -0.2547  0.3805
  890MOL0     C20043   7.026   7.162   0.641  0.7199  1.4254 -0.1531
  890MOL0     C20044   6.878   7.138   0.666 -0.1561 -0.7177  1.1918
  890MOL0     O20045   6.822   7.211   0.763 -0.0679 -0.6491 -0.4231
  890MOL0     C20046   6.692   7.205   0.791  0.0052  0.3065  0.3623
  890MOL0     C20047   6.590   7.223   0.694 -0.9047 -0.2347 -1.0547
  890MOL0     C20048   6.456   7.208   0.727 -0.6411 -0.5958 -0.1331
  890MOL0     C20049   6.416   7.176   0.860 -0.0538  0.6436  0.5504
  890MOL0     O20050   6.285   7.186   0.902  0.2927  0.6764 -0.6416
  890MOL0     C20051   6.199   7.258   0.816  0.3363  0.6945 -0.4367
  890MOL0     C20052   6.059   7.260   0.883  0.0703  0.0284  0.7733
  890MOL0     C20053   6.036   7.400   0.965 -1.8411  0.3502  0.4171
  890MOL0     C20054   5.900   7.402   1.033 -0.9502 -0.5461 -1.1195
  890MOL0     C20055   5.907   7.332   1.168 -0.4093 -0.0631  0.7359
  890MOL0     C20056   5.775   7.275   1.227 -0.1439 -0.0089 -0.5502
  890MOL0     C20057   5.654   7.369   1.212  0.0081  0.6171  0.7684
  890MOL0     C20058   5.535   7.302   1.282 -0.0678 -0.2899  0.5884
  890MOL0    Cl20059   5.484   7.149   1.200  0.2502  0.1269 -0.2467
  890MOL0     C20060   6.513   7.143   0.950  0.1864 -0.6225  0.6552
  890MOL0     C20061   6.648   7.164   0.915 -0.3126  0.0834 -0.5521
  890MOL0     O20062   6.818   7.054   0.592  0.5626  0.1104 -0.7312
  890MOL0     C20063   7.093   7.256   0.726 -0.2828 -0.0882  0.4300
  890MOL0     C20064   7.228   7.293   0.701  0.1292  1.6637 -0.1413
  890MOL0     N20065   7.789   6.669   0.608 -0.3131  0.5176 -0.0688
  890MOL0     N20066   7.763   6.574   0.687 -0.6396 -0.2207  0.6330
  890MOL0     C20067   7.384   6.789   1.667  0.2189 -0.2634  0.4057
  890MOL0     C20068   7.286   6.850   1.751 -0.6182  0.1212  0.7585
  890MOL0     C20069   6.982   6.921   2.083 -0.6282  0.3224  0.8670
  890MOL0     C20070   6.871   6.837   2.109  0.2834 -0.4031 -0.5840
  890MOL0     C20071   6.760   6.892   2.177 -0.5272  0.1761 -0.0749
  890MOL0     C20072   6.759   7.026   2.201  0.1026 -0.5664  0.3856
  890MOL0     O20073   6.630   7.068   2.228 -0.4022 -0.0355 -0.9963
  890MOL0     C20074   6.600   7.209   2.215 -0.7806 -1.0639  0.9682
  890MOL0     C20075   6.468   7.250   2.284 -0.5903  0.0412  0.4359
  890MOL0     C20076   6.359   7.142   2.265 -0.0724  0.0275 -0.0599
  890MOL0     C20077   6.214   7.192   2.296  0.7847  0.4349 -0.1917
  890MOL0     C20078   6.164   7.282   2.191 -0.4757 -0.2380  0.0676
  890MOL0     C20079   6.113   7.350   2.104  0.1117  0.3272  0.3732
  890MOL0     C20080   6.866   7.102   2.169 -1.3634 -0.1753 -0.3927
  890MOL0     C20081   6.983   7.057   2.114  0.2676  0.0340  0.2153
  890MOL0     C20082   7.088   7.153   2.076  0.1203  0.1140 -1.0847
  890MOL0     H20083   7.403   6.771   2.056  1.9774  2.6404  0.7590
  890MOL0     H20084   7.584   6.680   1.911  0.7497 -0.0012 -1.2335
  890MOL0     H20085   7.765   6.737   1.734  0.1726  1.3845 -1.5920
  890MOL0     H20086   7.718   6.570   1.779 -0.1120 -0.2200 -0.0264
  890MOL0     H20087   7.903   6.590   1.602 -0.6072 -5.7698  0.3372
  890MOL0     H20088   7.785   6.692   1.505 -2.1501 -0.8427 -1.2664
  890MOL0     H20089   7.670   6.487   1.476 -0.4188 -0.0866  0.5861
  890MOL0     H20090   7.759   6.403   1.595  1.7038  1.5386  0.9695
  890MOL0     H20091   7.968   6.418   1.439 -1.2583  1.0044  3.3217
  890MOL0     H20092   7.839   6.330   1.360  1.0051 -0.5179  0.0381
  890MOL0     H20093   7.905   6.615   1.300  0.5029  0.6437 -2.6987
  890MOL0     H20094   7.959   6.467   1.224 -0.9980 -1.6978  0.4918
  890MOL0     H20095   7.725   6.407   1.163 -1.0636 -0.4530  0.7360
  890MOL0     H20096   7.666   6.526   1.259 -3.2081 -1.7710 -2.4461
  890MOL0     H20097   7.835   6.670   1.098 -3.9269  3.8902  0.8117
  890MOL0     H20098   7.661   6.661   1.098 -0.8623  0.0238  0.3677
  890MOL0     H20099   7.837   6.471   0.919 -2.6865 -1.7713 -5.1812
  890MOL0     H20100   7.669   6.469   0.926 -0.0094 -0.4402 -0.9725
  890MOL0     H20101   7.717   6.833   0.889  2.3642  1.8140 -0.6993
  890MOL0     H20102   7.894   6.927   0.626 -1.1829  1.4173  1.1437
  890MOL0     H20103   7.770   6.905   0.495 -2.5853 -1.5870  0.8351
  890MOL0     H20104   7.718   7.042   0.758 -1.4884 -1.8013  0.1423
  890MOL0     H20105   7.812   7.119   0.632  0.3417 -0.9670  0.1560
  890MOL0     H20106   7.553   6.991   0.550 -0.6809 -0.5246  4.6576
  890MOL0     H20107   7.625   7.142   0.485  4.1037 -2.6657 -2.1628
  890MOL0     H20108   7.583   7.250   0.720 -0.2048 -0.7191 -0.9774
  890MOL0     H20109   7.470   7.116   0.746  1.7784  0.4524  1.0455
  890MOL0     H20110   7.293   7.082   0.432 -2.3347 -0.6248 -1.3983
  890MOL0     H20111   7.059   7.028   0.470  3.1781 -2.7271  0.3663
  890MOL0     H20112   6.616   7.261   0.595 -2.5289  7.6075  0.8281
  890MOL0     H20113   6.383   7.212   0.647 -4.2144  2.0302  2.9087
  890MOL0     H20114   6.219   7.365   0.810 -3.5420  1.6642  0.7864
  890MOL0     H20115   6.195   7.211   0.717 -0.2018  1.8349 -0.9817
  890MOL0     H20116   5.988   7.238   0.803  0.4816 -0.3923  0.5175
  890MOL0     H20117   6.044   7.177   0.953  2.0439 -1.6064 -0.6121
  890MOL0     H20118   6.110   7.416   1.045 -1.5668  0.0419  0.2264
  890MOL0     H20119   6.039   7.485   0.896 -1.6123  1.8771  2.2032
  890MOL0     H20120   5.830   7.348   0.969 -1.1657 -0.6695 -0.7808
  890MOL0     H20121   5.857   7.502   1.048 -0.0672 -0.3335  0.1631
  890MOL0     H20122   5.946   7.406   1.238 -0.0664 -1.7090  2.3530
  890MOL0     H20123   5.974   7.246   1.153 -0.1057 -0.1682  2.5366
  890MOL0     H20124   5.751   7.181   1.177  4.2299 -1.0954 -0.9920
  890MOL0     H20125   5.790   7.251   1.333 -0.7800  2.0770  0.0581
  890MOL0     H20126   5.636   7.383   1.105  3.1948 -1.6157 -0.1968
  890MOL0     H20127   5.683   7.460   1.266 -0.8576  0.7705  0.9917
  890MOL0     H20128   5.564   7.293   1.387 -0.4519 -2.3546  0.5641
  890MOL0     H20129   5.443   7.361   1.271  2.2660  3.1623 -3.7815
  890MOL0     H20130   6.484   7.114   1.051 -0.2027 -5.1291 -0.5253
  890MOL0     H20131   6.727   7.149   0.987 -0.5302 -0.4133 -0.4112
  890MOL0     H20132   7.043   7.304   0.809  0.3488  0.6368  0.4058
  890MOL0     H20133   7.282   7.364   0.764  2.5269 -1.9945  2.4064
  890MOL0     H20134   7.373   6.810   1.561  0.7248  0.9666  0.5844
  890MOL0     H20135   7.203   6.906   1.709 -1.4067 -1.6390 -0.1256
  890MOL0     H20136   6.875   6.732   2.085  0.9657 -0.3209 -0.8767
  890MOL0     H20137   6.677   6.824   2.193  0.7420 -1.5140 -0.3915
  890MOL0     H20138   6.613   7.234   2.110 -3.3003 -2.3620  0.2704
  890MOL0     H20139   6.682   7.257   2.268  0.1106  0.0202 -1.2945
  890MOL0     H20140   6.426   7.340   2.238 -0.2981 -0.3734 -0.6629
  890MOL0     H20141   6.471   7.260   2.393  1.4226 -1.0427  0.5177
  890MOL0     H20142   6.381   7.053   2.325  1.1237 -1.2438 -2.2540
  890MOL0     H20143   6.364   7.095   2.166 -1.7134  0.8454 -0.5572
  890MOL0     H20144   6.155   7.101   2.312  0.7801  0.2195 -1.3438
  890MOL0     H20145   6.211   7.249   2.388  4.2419  4.5019 -2.2824
  890MOL0     H20146   6.072   7.412   2.027 -0.2488 -1.5565 -1.0102
  890MOL0     H20147   6.866   7.209   2.187 -0.5943 -0.4620  1.5670
  890MOL0     H20148   7.181   7.129   2.129 -0.9115  0.7964  1.1788
  890MOL0     H20149   7.103   7.143   1.968 -2.0559  2.7038 -1.7342
  890MOL0     H20150   7.065   7.258   2.096  3.1070  0.9699 -1.6603
  891MOL0     O20151  10.142  10.855   8.737 -0.0613  0.0539  0.4439
  891MOL0     C20152  10.138  10.750   8.802  0.2083 -0.1166 -0.1159
  891MOL0     O20153  10.248  10.671   8.827 -0.0851  0.4890 -0.4951
  891MOL0     C20154  10.365  10.700   8.755  0.0103  0.4582 -0.9511
  891MOL0     C20155  10.369  10.671   8.615  0.1110 -0.6910 -0.4656
  891MOL0     C20156  10.482  10.705   8.543  1.0480  0.1715  0.8065
  891MOL0     C20157  10.598  10.761   8.606 -0.4976  0.3360  0.7016
  891MOL0     O20158  10.701  10.804   8.534 -0.2518  0.3877 -0.0191
  891MOL0     C20159  10.738  10.749   8.408 -0.7635  0.1513 -0.0910
  891MOL0     C20160  10.863  10.808   8.353 -0.4075 -0.2668  0.4810
  891MOL0     C20161  10.870  10.961   8.369  0.6461  1.0053 -0.8831
  891MOL0     C20162  10.987  11.011   8.284 -0.8078  0.0965 -0.1727
  891MOL0     C20163  11.123  10.942   8.313 -0.8568 -0.0362 -0.6221
  891MOL0     C20164  11.182  10.956   8.456 -0.5548 -0.4060 -0.4311
  891MOL0     C20165  11.191  11.096   8.510  0.1870 -0.0345  0.1211
  891MOL0     C20166  11.270  11.203   8.435  0.6360  0.5520  0.7455
  891MOL0     N20167  11.405  11.157   8.424 -0.0603  0.0258  0.4210
  891MOL0     C20168  11.493  11.154   8.526 -1.2610 -0.4566  0.2938
  891MOL0     C20169  11.610  11.102   8.471 -0.1781 -0.6812 -0.2050
  891MOL0     C20170  11.738  11.108   8.558 -0.2884 -0.4629  0.2142
  891MOL0     C20171  11.787  11.248   8.589 -0.1380  1.3553  0.3617
  891MOL0     C20172  11.933  11.246   8.618  0.3714 -0.1556  0.8497
  891MOL0     C20173  11.961  11.232   8.772  0.0346  0.4803 -0.2996
  891MOL0     O20174  11.911  11.352   8.847  0.6579  0.1509  0.2238
  891MOL0     C20175  11.954  11.374   8.977  0.6138 -1.0086 -0.3937
  891MOL0     C20176  12.006  11.273   9.055 -0.0863 -0.3291 -0.3941
  891MOL0     C20177  12.077  11.319   9.178  0.8924 -0.4528  0.1542
  891MOL0     C20178  12.083  11.452   9.215 -0.0462  0.2366  0.3568
  891MOL0     C20179  12.156  11.486   9.341  0.5518  0.3482  0.4160
  891MOL0     O20180  12.237  11.393   9.382 -0.0896 -0.5031  0.8870
  891MOL0     C20181  12.306  11.418   9.503 -0.0491  0.5895  0.3572
  891MOL0     C20182  12.262  11.367   9.626  0.7265  0.6086 -0.7339
  891MOL0     C20183  12.336  11.378   9.748  0.0395  0.3896  0.0845
  891MOL0     C20184  12.457  11.444   9.739 -0.5911 -0.4009 -0.4550
  891MOL0     O20185  12.527  11.468   9.855  0.5948  0.1807 -0.8253
  891MOL0     C20186  12.452  11.564   9.937  0.2917  0.4311  0.0629
  891MOL0     C20187  12.534  11.584  10.059 -0.9740 -0.2338 -0.3540
  891MOL0     C20188  12.642  11.687  10.055  0.0111  0.3041  0.9998
  891MOL0     C20189  12.721  11.699  10.186  0.4992 -0.1381  0.5004
  891MOL0     C20190  12.838  11.796  10.173  0.4678 -0.2300 -0.4111
  891MOL0     C20191  12.913  11.777  10.301 -0.0486  0.1159 -0.8940
  891MOL0     C20192  13.056  11.822  10.286 -0.3880 -0.8853 -0.1587
  891MOL0     C20193  13.076  11.969  10.235  0.3189 -1.1643 -0.4328
  891MOL0    Cl20194  13.014  12.074  10.363  0.0706  0.3652 -0.2058
  891MOL0     C20195  12.506  11.501   9.618  1.1435 -1.2573 -0.0688
  891MOL0     C20196  12.437  11.468   9.493  0.2473  0.2243 -0.1214
  891MOL0     O20197  12.132  11.596   9.397  0.5280 -0.3748  0.3847
  891MOL0     C20198  12.033  11.550   9.132 -0.0020 -0.0896 -0.1790
  891MOL0     C20199  11.971  11.512   9.014  0.0707 -0.4579 -1.3829
  891MOL0     N20200  11.590  11.073   8.339  0.8975 -0.6783  0.5602
  891MOL0     N20201  11.470  11.108   8.310  0.1171 -0.4586 -0.4823
  891MOL0     C20202  10.590  10.793   8.745  0.5259  0.3098  0.4178
  891MOL0     C20203  10.471  10.765   8.821 -0.0644  0.4294  0.3531
  891MOL0     C20204  10.001  10.697   8.848 -0.7946 -0.2703  0.0858
  891MOL0     C20205   9.877  10.722   8.781  0.0870  0.3817 -0.4260
  891MOL0     C20206   9.758  10.657   8.819 -0.0089  0.4498  1.4556
  891MOL0     C20207   9.753  10.562   8.920 -0.3184 -0.1793 -0.1901
  891MOL0     O20208   9.641  10.504   8.971 -0.3426  0.8989  0.4443
  891MOL0     C20209   9.639  10.415   9.086  0.5643  0.1623 -0.3716
  891MOL0     C20210   9.495  10.375   9.093 -1.2474 -0.0056 -0.4471
  891MOL0     C20211   9.479  10.295   9.228  1.2150  0.6830 -0.4360
  891MOL0     C20212   9.336  10.236   9.236  0.0483  0.3640 -0.2958
  891MOL0     C20213   9.246  10.343   9.259  0.4086  1.3029 -0.9497
  891MOL0     C20214   9.154  10.408   9.295  0.8096 -0.3653 -0.6839
  891MOL0     C20215   9.873  10.543   8.991 -0.4581  0.4989  0.9046
  891MOL0     C20216  10.001  10.610   8.960  0.0461  0.0271 -0.3350
  891MOL0     C20217  10.108  10.565   9.053  0.1187  1.3042 -1.1493
  891MOL0     H20218  10.280  10.624   8.573 -0.2754 -0.0751 -0.3506
  891MOL0     H20219  10.489  10.674   8.440 -2.5745 -0.3729  0.6050
  891MOL0     H20220  10.740  10.640   8.420  1.5739  0.4319  3.8264
  891MOL0     H20221  10.659  10.778   8.339 -0.2796 -0.4173 -0.8964
  891MOL0     H20222  10.870  10.805   8.244 -0.3929  1.4373  0.4090
  891MOL0     H20223  10.953  10.761   8.394  1.1587  0.5101 -1.8849
  891MOL0     H20224  10.890  10.970   8.476  2.9554 -1.4683 -0.9947
  891MOL0     H20225  10.773  11.002   8.339 -2.7295 -3.0720  2.9706
  891MOL0     H20226  10.972  11.001   8.176 -0.3212 -4.2646 -0.0076
  891MOL0     H20227  10.992  11.117   8.314 -2.4844  0.1652  0.0001
  891MOL0     H20228  11.106  10.839   8.280 -0.7927  0.1784 -1.3366
  891MOL0     H20229  11.195  10.990   8.247 -1.4246  0.2103 -1.0706
  891MOL0     H20230  11.133  10.891   8.530 -2.0536  1.1851  0.0621
  891MOL0     H20231  11.276  10.902   8.447 -2.2378 -3.5910 -0.4051
  891MOL0     H20232  11.233  11.084   8.611 -1.1167 -3.9044  0.3865
  891MOL0     H20233  11.091  11.140   8.517 -0.3012 -1.2835  2.0610
  891MOL0     H20234  11.231  11.189   8.334  2.2617 -0.0550  0.1542
  891MOL0     H20235  11.251  11.301   8.479 -5.2982  0.0949 -0.0429
  891MOL0     H20236  11.465  11.191   8.624 -1.9022  0.3566 -0.1836
  891MOL0     H20237  11.714  11.038   8.638  0.0721 -1.5811 -0.6286
  891MOL0     H20238  11.815  11.054   8.503 -0.2194 -0.6945  0.5348
  891MOL0     H20239  11.763  11.304   8.499  0.7973 -0.0857 -0.8298
  891MOL0     H20240  11.739  11.291   8.677  1.3963 -1.2021  2.6529
  891MOL0     H20241  11.972  11.338   8.572  0.5223 -0.1332  1.0202
  891MOL0     H20242  11.984  11.162   8.570 -1.3622 -0.1626 -1.0919
  891MOL0     H20243  12.069  11.224   8.789 -0.0364 -0.1547 -0.1245
  891MOL0     H20244  11.920  11.137   8.807 -0.5909  2.0245  3.6728
  891MOL0     H20245  11.984  11.170   9.029 -1.3348 -0.9185  2.6127
  891MOL0     H20246  12.121  11.239   9.235 -3.4751 -0.9178  3.4369
  891MOL0     H20247  12.167  11.317   9.642  1.1018 -0.0828 -0.6686
  891MOL0     H20248  12.309  11.327   9.840  0.7354  0.5043  0.3595
  891MOL0     H20249  12.438  11.659   9.886  1.2776  0.0862 -0.8854
  891MOL0     H20250  12.353  11.523   9.961  0.4276  0.1525  0.1525
  891MOL0     H20251  12.467  11.602  10.144  0.8150 -0.1836  1.0931
  891MOL0     H20252  12.594  11.495  10.081  2.6182  1.8144 -1.0252
  891MOL0     H20253  12.706  11.659   9.971 -2.3629  0.7890 -1.0533
  891MOL0     H20254  12.598  11.786  10.040 -1.7103 -0.4107  1.1910
  891MOL0     H20255  12.765  11.604  10.219 -2.2510 -1.0341  1.9193
  891MOL0     H20256  12.647  11.707  10.265 -0.6151 -3.2954 -0.0676
  891MOL0     H20257  12.792  11.895  10.165  1.5137  0.2284 -0.9627
  891MOL0     H20258  12.893  11.771  10.083 -0.3310  0.3765 -1.0900
  891MOL0     H20259  12.876  11.834  10.386 -0.2837 -1.2074 -0.0777
  891MOL0     H20260  12.907  11.671  10.328 -2.1772 -0.0866 -1.9576
  891MOL0     H20261  13.107  11.765  10.208  2.1074  2.7821 -1.4864
  891MOL0     H20262  13.119  11.805  10.374 -0.5506 -0.9233 -0.0490
  891MOL0     H20263  13.180  11.996  10.216  0.5639 -1.5387  0.3547
  891MOL0     H20264  13.027  11.998  10.141 -0.0150  0.1327  0.1341
  891MOL0     H20265  12.593  11.565   9.617 -0.3948  1.0153 -2.1801
  891MOL0     H20266  12.481  11.487   9.396  0.8122  0.1316  0.1100
  891MOL0     H20267  12.040  11.657   9.152 -4.0841  0.8705 -2.7001
  891MOL0     H20268  11.930  11.584   8.944  1.7866  0.2272 -1.7441
  891MOL0     H20269  10.671  10.850   8.790  0.4021  2.5415 -1.9239
  891MOL0     H20270  10.450  10.783   8.926 -0.9609  0.7518  0.1267
  891MOL0     H20271   9.877  10.783   8.691  0.8044 -2.4156 -2.4627
  891MOL0     H20272   9.667  10.685   8.767  0.4554 -3.1784 -1.7150
  891MOL0     H20273   9.667  10.466   9.179  0.4603 -0.9124  0.2651
  891MOL0     H20274   9.705  10.329   9.084  1.3524  0.7554 -0.3932
  891MOL0     H20275   9.474  10.315   9.004  3.2912  1.2524 -2.6500
  891MOL0     H20276   9.428  10.461   9.095 -1.6423 -0.2361  3.1453
  891MOL0     H20277   9.493  10.364   9.311 -1.1147  1.0651 -0.3035
  891MOL0     H20278   9.544  10.206   9.229  0.7908  0.3701  0.8058
  891MOL0     H20279   9.319  10.173   9.149  1.7781  1.7209 -1.6934
  891MOL0     H20280   9.332  10.172   9.325  2.4290 -1.5799 -1.4645
  891MOL0     H20281   9.067  10.462   9.328  0.0110 -2.1906  0.3827
  891MOL0     H20282   9.861  10.461   9.062 -0.0149 -0.8426 -0.5161
  891MOL0     H20283  10.178  10.642   9.087 -0.3307  1.2523 -0.0894
  891MOL0     H20284  10.064  10.526   9.145 -2.6432  3.3799 -1.4525
  891MOL0     H20285  10.150  10.478   9.002 -1.4298  0.1342 -0.5045
  892MOL0     O20286   8.758   2.101   6.951  1.2218 -0.4109 -0.2905
  892MOL0     C20287   8.824   2.033   6.877 -0.0501 -0.2997  0.0069
  892MOL0     O20288   8.813   1.896   6.872  0.8226 -1.3471  0.5200
  892MOL0     C20289   8.725   1.843   6.961  0.9215 -0.0852 -0.4809
  892MOL0     C20290   8.767   1.849   7.093 -0.2730 -0.8067  0.5831
  892MOL0     C20291   8.688   1.794   7.194 -0.3763  0.4669 -0.1975
  892MOL0     C20292   8.560   1.753   7.162  0.5862 -0.9796  0.1647
  892MOL0     O20293   8.474   1.756   7.262  0.1590  0.3970 -0.8946
  892MOL0     C20294   8.341   1.704   7.240  0.5310 -0.2154  0.6624
  892MOL0     C20295   8.273   1.701   7.378  0.8280  0.9645 -0.1669
  892MOL0     C20296   8.234   1.833   7.448 -0.4895  0.3703 -0.6179
  892MOL0     C20297   8.200   1.806   7.603  0.4808  0.8166  1.0169
  892MOL0     C20298   8.133   1.926   7.677 -0.0402  0.6209  0.5430
  892MOL0     C20299   8.206   2.061   7.656  0.5327  0.1025 -0.1274
  892MOL0     C20300   8.207   2.132   7.788  0.1450  0.2119 -0.5543
  892MOL0     C20301   8.304   2.103   7.909  0.4494  0.7741 -0.4593
  892MOL0     N20302   8.447   2.139   7.876 -0.6314  0.4523  0.0751
  892MOL0     C20303   8.490   2.271   7.862  0.6898 -0.1520 -0.4775
  892MOL0     C20304   8.616   2.255   7.817 -0.1284 -0.0918 -0.1978
  892MOL0     C20305   8.708   2.379   7.791  0.3831  0.8644  0.3234
  892MOL0     C20306   8.833   2.372   7.869  0.7855 -0.3070  0.0588
  892MOL0     C20307   8.915   2.498   7.839  0.1675 -0.5929  0.0396
  892MOL0     C20308   9.059   2.472   7.888  0.4707 -0.6834 -0.3166
  892MOL0     O20309   9.121   2.379   7.799  0.3142  0.3877 -0.2223
  892MOL0     C20310   9.259   2.360   7.794  0.5914  0.8285 -0.4037
  892MOL0     C20311   9.348   2.399   7.899  0.0770 -0.2273  0.6893
  892MOL0     C20312   9.478   2.358   7.897 -0.6527  0.6518 -0.0153
  892MOL0     C20313   9.534   2.298   7.775  1.3495  0.1720 -0.2660
  892MOL0     C20314   9.674   2.268   7.760 -0.5812 -0.3403 -0.2361
  892MOL0     O20315   9.713   2.264   7.633  0.4272  0.2984 -0.3214
  892MOL0     C20316   9.844   2.255   7.596 -0.8102 -0.3022  0.8959
  892MOL0     C20317   9.920   2.363   7.553 -0.0203 -0.2289 -0.7162
  892MOL0     C20318  10.053   2.357   7.501 -0.8407 -0.3869 -0.8980
  892MOL0     C20319  10.115   2.231   7.506 -0.9853 -0.3152  0.4801
  892MOL0     O20320  10.242   2.210   7.460 -0.2120 -0.8848  0.1484
  892MOL0     C20321  10.340   2.231   7.559  1.5236  0.0690 -0.1470
  892MOL0     C20322  10.458   2.204   7.480 -0.0562  1.2845  0.0007
  892MOL0     C20323  10.586   2.182   7.570  0.1971 -0.0314 -0.2956
  892MOL0     C20324  10.717   2.183   7.490  0.3791  0.6736 -0.0702
  892MOL0     C20325  10.842   2.157   7.576  0.3930  0.2252  0.1098
  892MOL0     C20326  10.962   2.131   7.490 -0.3264 -0.1529 -0.6239
  892MOL0     C20327  10.982   2.236   7.390  0.1922 -0.5460 -0.4685
  892MOL0     C20328  11.115   2.225   7.328 -0.9535 -0.1324  0.3309
  892MOL0    Cl20329  11.129   2.325   7.176 -0.1655 -0.1480  0.5091
  892MOL0     C20330  10.051   2.116   7.553  0.3315 -0.8880  0.3099
  892MOL0     C20331   9.915   2.130   7.595  0.1757 -0.3573  0.6577
  892MOL0     O20332   9.757   2.272   7.854 -0.4430  0.3259 -0.1533
  892MOL0     C20333   9.443   2.266   7.668  0.2260  0.6491  0.8336
  892MOL0     C20334   9.309   2.300   7.682 -0.7205 -0.7508  0.3225
  892MOL0     N20335   8.644   2.119   7.803 -0.3496  0.1897 -1.2215
  892MOL0     N20336   8.544   2.053   7.843  0.4046  0.3637  0.7946
  892MOL0     C20337   8.522   1.752   7.032  0.0744  0.0947  0.4735
  892MOL0     C20338   8.599   1.798   6.922 -1.1927 -0.2317  0.1975
  892MOL0     C20339   8.902   2.106   6.770  0.9190 -0.7087 -1.2423
  892MOL0     C20340   8.912   2.254   6.789  0.6720 -0.1238 -0.4827
  892MOL0     C20341   8.980   2.325   6.690 -0.0269 -0.5522  0.1948
  892MOL0     C20342   9.052   2.263   6.594  0.5120  0.3680 -0.0098
  892MOL0     O20343   9.108   2.341   6.502 -0.4179 -0.5779  0.2480
  892MOL0     C20344   9.170   2.288   6.381  0.5088 -0.0129 -0.1928
  892MOL0     C20345   9.243   2.401   6.301  0.1188 -0.1648  0.3767
  892MOL0     C20346   9.262   2.382   6.145  0.8125 -0.0805  0.2641
  892MOL0     C20347   9.350   2.493   6.103 -0.0704 -0.1462 -0.0615
  892MOL0     C20348   9.277   2.620   6.094 -0.5945 -0.7496  0.1142
  892MOL0     C20349   9.208   2.721   6.098  0.4803  0.0719 -0.4673
  892MOL0     C20350   9.040   2.127   6.583 -0.7743 -0.1958  0.8786
  892MOL0     C20351   8.966   2.044   6.664  0.6735  1.0150  0.3916
  892MOL0     C20352   8.960   1.903   6.607  0.0343  0.5559 -0.0603
  892MOL0     H20353   8.863   1.896   7.110  0.7058 -1.2595 -2.8937
  892MOL0     H20354   8.711   1.786   7.300 -0.4358  2.2356 -0.0186
  892MOL0     H20355   8.288   1.769   7.169 -0.2579 -0.8174  0.6767
  892MOL0     H20356   8.347   1.601   7.203  1.1352  0.4206 -1.1335
  892MOL0     H20357   8.335   1.643   7.448  0.3681  3.2141  2.2825
  892MOL0     H20358   8.178   1.650   7.362  2.2340 -1.7957 -0.3396
  892MOL0     H20359   8.159   1.881   7.385  1.3849 -0.2128 -3.4831
  892MOL0     H20360   8.317   1.903   7.438 -2.5643  2.6407 -3.8806
  892MOL0     H20361   8.132   1.720   7.610 -0.1763  1.2717  0.3969
  892MOL0     H20362   8.286   1.767   7.657 -0.4151  0.1954  2.0247
  892MOL0     H20363   8.028   1.934   7.647  1.0836 -0.8869 -4.8164
  892MOL0     H20364   8.127   1.895   7.782 -0.3846 -1.4285 -0.0469
  892MOL0     H20365   8.309   2.049   7.621  0.0234  0.7264 -1.9815
  892MOL0     H20366   8.148   2.119   7.584  0.8703  0.4342 -0.1336
  892MOL0     H20367   8.107   2.112   7.829 -0.9643 -2.2577 -3.9921
  892MOL0     H20368   8.219   2.232   7.746 -1.6786 -0.4048 -2.7856
  892MOL0     H20369   8.263   2.155   7.997  0.8373  0.2453  0.0448
  892MOL0     H20370   8.299   1.997   7.934  2.0385 -0.0371 -3.2094
  892MOL0     H20371   8.430   2.354   7.899  0.6493 -1.0225  1.5370
  892MOL0     H20372   8.737   2.368   7.686  0.3417  1.6350  0.2269
  892MOL0     H20373   8.660   2.476   7.808  2.8760  1.8012  2.6235
  892MOL0     H20374   8.807   2.370   7.975  0.7064  2.4009  0.1618
  892MOL0     H20375   8.888   2.284   7.833 -2.2798 -2.3063 -0.1179
  892MOL0     H20376   8.853   2.574   7.887 -1.9796 -2.0010 -0.3702
  892MOL0     H20377   8.912   2.524   7.733  4.5642 -0.7537 -0.3112
  892MOL0     H20378   9.063   2.432   7.989  2.4839  1.0629  0.3785
  892MOL0     H20379   9.116   2.566   7.886 -0.0782 -0.2734  1.3510
  892MOL0     H20380   9.314   2.462   7.981  1.1990  0.3916  0.7011
  892MOL0     H20381   9.541   2.392   7.978 -0.8658  0.3259  0.2881
  892MOL0     H20382   9.869   2.458   7.540  2.5265  1.3611  0.1839
  892MOL0     H20383  10.098   2.444   7.454  1.4486 -1.7081 -1.3269
  892MOL0     H20384  10.327   2.329   7.606 -2.5324  0.6370 -1.9876
  892MOL0     H20385  10.335   2.152   7.634 -0.5114  1.3269  1.1232
  892MOL0     H20386  10.452   2.107   7.430  1.4478  0.9681  0.3862
  892MOL0     H20387  10.473   2.286   7.408 -0.7241  0.1827 -1.4396
  892MOL0     H20388  10.594   2.267   7.638 -0.0548 -0.1839 -0.0747
  892MOL0     H20389  10.582   2.098   7.639 -1.1855  2.1394  2.4964
  892MOL0     H20390  10.730   2.285   7.454  0.3309  0.8128  0.3027
  892MOL0     H20391  10.710   2.111   7.408 -0.1403  0.7099 -0.0620
  892MOL0     H20392  10.823   2.067   7.636 -1.0605 -1.0337 -2.1126
  892MOL0     H20393  10.870   2.245   7.635 -0.3997  0.1368  0.6359
  892MOL0     H20394  11.050   2.109   7.551 -0.9663 -1.2662 -0.0663
  892MOL0     H20395  10.941   2.035   7.442 -2.0827  0.7710 -1.7979
  892MOL0     H20396  10.975   2.337   7.433  2.3280  0.2303 -1.7581
  892MOL0     H20397  10.914   2.217   7.307 -0.0766 -0.2698 -0.3112
  892MOL0     H20398  11.193   2.258   7.398 -1.3047  0.8288  0.2858
  892MOL0     H20399  11.143   2.122   7.303  0.5822  0.6993 -1.6535
  892MOL0     H20400  10.102   2.020   7.553  1.7737 -0.1572  0.9247
  892MOL0     H20401   9.866   2.036   7.622  0.8841 -1.6520 -2.2304
  892MOL0     H20402   9.484   2.208   7.586  1.5745 -1.1438  2.6671
  892MOL0     H20403   9.245   2.267   7.601  0.8747  1.2394 -1.8891
  892MOL0     H20404   8.420   1.734   6.997  0.5103 -0.5363 -0.5311
  892MOL0     H20405   8.559   1.795   6.822  0.1415  1.3264 -0.4215
  892MOL0     H20406   8.855   2.304   6.866 -1.7964 -3.0388 -0.2548
  892MOL0     H20407   8.984   2.433   6.683  1.5607 -0.6086 -0.2977
  892MOL0     H20408   9.091   2.249   6.315 -0.5935 -0.8126  1.5262
  892MOL0     H20409   9.235   2.209   6.419  2.1940  1.3463 -0.1180
  892MOL0     H20410   9.346   2.407   6.337  0.6665 -0.7632 -1.0312
  892MOL0     H20411   9.184   2.492   6.313 -0.3837 -0.0624 -2.2783
  892MOL0     H20412   9.161   2.388   6.104  0.2699  0.2084  1.5931
  892MOL0     H20413   9.314   2.291   6.115  1.0554 -0.1616  0.9027
  892MOL0     H20414   9.431   2.498   6.177 -2.0389  0.2185  2.1923
  892MOL0     H20415   9.403   2.467   6.011 -0.4116 -2.1058  0.2501
  892MOL0     H20416   9.143   2.806   6.087  2.8631  2.0360 -0.2207
  892MOL0     H20417   9.100   2.077   6.509  3.2801  0.3337  3.5031
  892MOL0     H20418   8.913   1.825   6.667  0.2316 -1.3799 -2.2679
  892MOL0     H20419   8.907   1.902   6.511  0.0955 -0.2671 -0.0954
  892MOL0     H20420   9.059   1.860   6.586 -1.0619 -1.1895 -2.0481
  893MOL0     O20421   0.832   2.576   2.229  0.3020 -0.1588  0.6167
  893MOL0     C20422   0.838   2.656   2.140  0.4822 -0.2810  0.1458
  893MOL0     O20423   0.882   2.784   2.153  0.0311  0.2932 -0.2889
  893MOL0     C20424   0.949   2.832   2.263 -0.0238 -0.0957  0.1210
  893MOL0     C20425   1.086   2.853   2.255 -0.0150 -0.3169 -0.4774
  893MOL0     C20426   1.153   2.922   2.359 -0.1774  0.3055  0.0412
  893MOL0     C20427   1.085   2.947   2.481 -0.2612 -0.9338 -0.9191
  893MOL0     O20428   1.162   2.983   2.600 -0.2332 -0.0029 -0.1377
  893MOL0     C20429   1.289   3.054   2.577 -0.0220 -1.2761 -0.8474
  893MOL0     C20430   1.324   3.129   2.703 -0.5992  0.3000 -0.0431
  893MOL0     C20431   1.463   3.174   2.707 -0.5994  0.1793 -0.8287
  893MOL0     C20432   1.488   3.263   2.824  0.5192 -0.2058 -0.6192
  893MOL0     C20433   1.634   3.272   2.861 -0.3019 -0.3480  0.4876
  893MOL0     C20434   1.716   3.359   2.764  0.3553 -0.5794 -0.1997
  893MOL0     C20435   1.865   3.361   2.787 -1.0910 -0.2213  1.1653
  893MOL0     C20436   1.930   3.241   2.723  0.2862 -0.4833 -0.4792
  893MOL0     N20437   2.072   3.223   2.765  0.3139 -0.6234  0.5231
  893MOL0     C20438   2.158   3.327   2.814  0.9433 -0.4855 -0.1669
  893MOL0     C20439   2.267   3.267   2.854 -0.9237 -0.5465 -0.9487
  893MOL0     C20440   2.384   3.336   2.912 -0.0581  0.1029 -0.3660
  893MOL0     C20441   2.407   3.299   3.056 -0.5848 -0.2305  0.1785
  893MOL0     C20442   2.510   3.392   3.124 -0.1675 -0.2774  0.3344
  893MOL0     C20443   2.656   3.345   3.077  0.2101  0.5138  0.5054
  893MOL0     O20444   2.759   3.370   3.172  0.4550  0.1572 -0.2123
  893MOL0     C20445   2.787   3.272   3.268 -0.1288  0.9934 -0.7063
  893MOL0     C20446   2.911   3.261   3.321 -0.8475  0.1386  0.1342
  893MOL0     C20447   2.937   3.170   3.427 -0.7522  0.7705 -0.5505
  893MOL0     C20448   2.848   3.074   3.464 -0.0652  0.7066  0.5654
  893MOL0     C20449   2.865   2.977   3.567 -0.1033  0.1465  0.9809
  893MOL0     O20450   2.806   2.856   3.558  0.6478 -0.5899 -0.8401
  893MOL0     C20451   2.790   2.769   3.671 -0.2457  0.3268  0.1364
  893MOL0     C20452   2.834   2.783   3.800 -0.8521  0.1738 -0.6649
  893MOL0     C20453   2.808   2.682   3.895 -0.9956 -0.3546  0.0393
  893MOL0     C20454   2.740   2.562   3.862 -0.3886 -0.4229  0.1264
  893MOL0     O20455   2.729   2.468   3.961 -0.5131 -1.2304  0.3699
  893MOL0     C20456   2.693   2.334   3.914 -0.8493 -0.1037 -1.0894
  893MOL0     C20457   2.681   2.249   4.042  0.2078  0.1860  0.2611
  893MOL0     C20458   2.558   2.286   4.135 -0.7415 -0.1677 -0.0369
  893MOL0     C20459   2.505   2.171   4.225  0.0055  0.3181  0.3569
  893MOL0     C20460   2.431   2.226   4.345 -0.4625  0.0146  0.8674
  893MOL0     C20461   2.365   2.122   4.438 -0.2785 -0.8419  0.4772
  893MOL0     C20462   2.250   2.183   4.530 -0.1005 -0.4809 -0.3499
  893MOL0     C20463   2.181   2.084   4.616  0.5574 -0.0424 -0.1673
  893MOL0    Cl20464   2.129   2.186   4.758  0.4540 -0.0755  0.4753
  893MOL0     C20465   2.704   2.544   3.723  1.1959  1.0243 -0.0208
  893MOL0     C20466   2.731   2.649   3.632  0.1760 -0.4068  0.1270
  893MOL0     O20467   2.937   3.018   3.661  0.4499 -0.7511  0.1484
  893MOL0     C20468   2.719   3.082   3.403 -0.3298 -0.7693 -0.2330
  893MOL0     C20469   2.697   3.178   3.310 -0.2105  0.0436  0.0451
  893MOL0     N20470   2.245   3.134   2.852 -0.0460 -0.0828 -0.2567
  893MOL0     N20471   2.128   3.110   2.813  0.2784  0.7075  0.0441
  893MOL0     C20472   0.948   2.914   2.493 -0.1833 -0.6402 -0.2931
  893MOL0     C20473   0.883   2.854   2.383  0.8733 -0.5240 -1.1525
  893MOL0     C20474   0.780   2.637   2.005 -0.9037 -0.1365 -0.6626
  893MOL0     C20475   0.658   2.573   2.005  0.0850 -0.4060  0.1493
  893MOL0     C20476   0.593   2.542   1.893  0.4647  0.9613  0.1137
  893MOL0     C20477   0.631   2.584   1.764 -0.0843 -0.6420 -0.7181
  893MOL0     O20478   0.565   2.560   1.643  0.0336  0.3960  0.2788
  893MOL0     C20479   0.475   2.441   1.640 -0.4381  0.7557  0.7877
  893MOL0     C20480   0.451   2.392   1.493 -0.0445 -0.0629 -0.8097
  893MOL0     C20481   0.353   2.283   1.481 -0.1149  0.9627  0.7428
  893MOL0     C20482   0.336   2.244   1.336  0.0098  0.6244 -0.2520
  893MOL0     C20483   0.439   2.178   1.264 -1.2609 -0.8299 -0.4318
  893MOL0     C20484   0.521   2.119   1.201  0.8664  0.2840  0.0614
  893MOL0     C20485   0.754   2.660   1.758 -0.1772  0.9065 -0.4507
  893MOL0     C20486   0.829   2.678   1.876 -0.5473  0.8127 -0.2367
  893MOL0     C20487   0.959   2.747   1.874 -0.3854  0.8289 -0.1666
  893MOL0     H20488   1.125   2.824   2.159 -1.1847  0.0807 -1.1011
  893MOL0     H20489   1.260   2.930   2.347 -0.5216  0.2538 -4.5486
  893MOL0     H20490   1.380   2.998   2.553  2.5741  2.2785 -0.1425
  893MOL0     H20491   1.270   3.128   2.499  0.7257 -0.5339 -0.3339
  893MOL0     H20492   1.296   3.061   2.784  3.2050 -0.1800  1.0632
  893MOL0     H20493   1.265   3.222   2.702  3.0405  2.8386 -1.2759
  893MOL0     H20494   1.504   3.223   2.618  2.2706 -1.5331 -0.5610
  893MOL0     H20495   1.521   3.082   2.715  1.1931  1.2580 -0.7493
  893MOL0     H20496   1.439   3.358   2.802 -1.6968 -0.9585  0.7093
  893MOL0     H20497   1.441   3.227   2.916 -0.7226  0.6725 -0.8759
  893MOL0     H20498   1.641   3.299   2.967 -1.1538 -2.0256  1.0221
  893MOL0     H20499   1.685   3.176   2.852 -0.3775 -0.2179 -2.0076
  893MOL0     H20500   1.691   3.339   2.660  0.0175  2.3536 -0.7875
  893MOL0     H20501   1.672   3.460   2.772 -1.9593 -1.3074 -2.3582
  893MOL0     H20502   1.883   3.360   2.895 -1.2674 -1.1134  1.1967
  893MOL0     H20503   1.908   3.449   2.740 -3.9917 -0.5427 -2.5364
  893MOL0     H20504   1.877   3.148   2.748  2.7701 -1.7799  0.2783
  893MOL0     H20505   1.925   3.233   2.614  2.4109 -0.1488 -0.6356
  893MOL0     H20506   2.145   3.435   2.813 -3.4490 -0.8263  0.2127
  893MOL0     H20507   2.471   3.304   2.854  0.3139  1.9334 -0.8705
  893MOL0     H20508   2.380   3.443   2.893 -0.9127  0.2732  0.6425
  893MOL0     H20509   2.315   3.298   3.116 -0.6848  0.4384  0.0398
  893MOL0     H20510   2.451   3.198   3.056 -0.6621 -0.2648  0.1041
  893MOL0     H20511   2.492   3.374   3.231  1.1072  0.2023  0.6475
  893MOL0     H20512   2.483   3.497   3.112 -0.3229 -0.4246 -0.6954
  893MOL0     H20513   2.687   3.399   2.987  4.1773  1.3855  2.1681
  893MOL0     H20514   2.657   3.240   3.048 -1.2299  0.8528 -0.9267
  893MOL0     H20515   2.994   3.321   3.287  0.2427 -0.4910  1.5858
  893MOL0     H20516   3.033   3.174   3.477 -0.7057 -2.0456 -0.2223
  893MOL0     H20517   2.880   2.873   3.841  0.7331 -0.0913 -1.7560
  893MOL0     H20518   2.833   2.701   3.999  1.6191 -2.1056 -0.1855
  893MOL0     H20519   2.596   2.340   3.863 -0.5746 -0.1374 -1.6302
  893MOL0     H20520   2.772   2.300   3.845  0.4342 -1.9509  1.1642
  893MOL0     H20521   2.657   2.150   4.002 -2.4427 -0.1216  2.2418
  893MOL0     H20522   2.771   2.240   4.103  0.4437  0.3376 -0.0693
  893MOL0     H20523   2.592   2.378   4.183  0.4216 -0.7415  0.2713
  893MOL0     H20524   2.470   2.303   4.072  0.6634  0.7852 -1.8435
  893MOL0     H20525   2.591   2.115   4.262 -1.0638 -2.5613 -1.2567
  893MOL0     H20526   2.433   2.115   4.164 -0.2140 -0.1690  1.0438
  893MOL0     H20527   2.351   2.289   4.304  0.7458  0.9703 -0.0833
  893MOL0     H20528   2.499   2.298   4.392  0.4479  0.6982 -1.3735
  893MOL0     H20529   2.324   2.039   4.379 -2.4149 -0.7641  1.7625
  893MOL0     H20530   2.441   2.070   4.499  0.6198 -0.8157 -0.5850
  893MOL0     H20531   2.170   2.223   4.467  1.1536  0.7114 -1.2469
  893MOL0     H20532   2.300   2.257   4.593 -1.7501 -0.0150  0.4597
  893MOL0     H20533   2.086   2.047   4.575 -0.4281  1.0633  1.0469
  893MOL0     H20534   2.243   2.001   4.651 -0.9088 -1.9618 -1.8827
  893MOL0     H20535   2.657   2.454   3.686  4.3034 -0.2016 -1.3289
  893MOL0     H20536   2.693   2.631   3.532  0.5971 -0.9616  0.0648
  893MOL0     H20537   2.646   3.005   3.428  0.9388 -2.4033 -1.3497
  893MOL0     H20538   2.599   3.160   3.265 -0.0555 -0.4884 -0.0872
  893MOL0     H20539   0.891   2.923   2.585 -1.5224 -1.8759 -0.9630
  893MOL0     H20540   0.778   2.833   2.400  0.9518  0.6163  1.2144
  893MOL0     H20541   0.615   2.537   2.098 -1.7766  0.8362 -0.1812
  893MOL0     H20542   0.509   2.474   1.899 -0.7230  2.2307 -1.4056
  893MOL0     H20543   0.379   2.457   1.691 -1.2668 -1.8615  0.2019
  893MOL0     H20544   0.521   2.353   1.686  1.1536  0.6988 -0.8371
  893MOL0     H20545   0.544   2.363   1.443 -1.4376 -1.6620 -2.6146
  893MOL0     H20546   0.408   2.480   1.445 -0.4891  0.5895  0.7105
  893MOL0     H20547   0.256   2.319   1.516 -2.7883  0.4108 -4.9420
  893MOL0     H20548   0.381   2.195   1.540 -2.4415  0.6701  1.5352
  893MOL0     H20549   0.257   2.170   1.321 -0.3671  0.9681  0.0236
  893MOL0     H20550   0.301   2.323   1.269  1.9452  0.1274 -1.9632
  893MOL0     H20551   0.597   2.086   1.134  3.2420  0.2850  2.5787
  893MOL0     H20552   0.791   2.711   1.670  1.3152  1.0943  0.2610
  893MOL0     H20553   0.984   2.780   1.773  0.1423  0.3083 -0.2137
  893MOL0     H20554   0.954   2.844   1.925  0.7562  0.9918 -0.3327
  893MOL0     H20555   1.037   2.683   1.918 -0.7466  0.2155 -0.4155
  894MOL0     O20556   1.577  11.260   6.098  0.2007  0.2808 -0.3026
  894MOL0     C20557   1.669  11.231   6.179  0.2592 -0.0371 -0.0450
  894MOL0     O20558   1.688  11.113   6.246 -0.2966  0.0763 -0.0081
  894MOL0     C20559   1.599  11.019   6.229  1.4918 -0.4635  0.1984
  894MOL0     C20560   1.486  11.015   6.311  0.9526  0.1406 -0.0684
  894MOL0     C20561   1.388  10.921   6.297  0.4049 -0.8165 -0.2364
  894MOL0     C20562   1.405  10.826   6.199  0.3099 -0.1069  0.1705
  894MOL0     O20563   1.322  10.724   6.178 -0.3266 -0.4576  0.2940
  894MOL0     C20564   1.194  10.720   6.242  1.1638 -0.2164 -0.1733
  894MOL0     C20565   1.107  10.614   6.177 -0.6046  0.5293  0.2638
  894MOL0     C20566   1.168  10.476   6.163  0.7842 -0.0729 -0.4371
  894MOL0     C20567   1.064  10.389   6.090  0.7885 -0.1953  0.0414
  894MOL0     C20568   1.125  10.253   6.055  0.4788 -0.4031  1.0259
  894MOL0     C20569   1.041  10.145   5.973 -0.2995 -0.3879  0.6604
  894MOL0     C20570   0.996  10.206   5.830 -0.4239  0.5418  0.0542
  894MOL0     C20571   0.935  10.094   5.745  0.0036  0.2336  1.0083
  894MOL0     N20572   1.027  10.008   5.665 -0.4192  0.3301 -0.0921
  894MOL0     C20573   1.014   9.969   5.532  0.2823  0.3632  0.0937
  894MOL0     C20574   1.115   9.885   5.504  0.3798 -0.4155  0.9318
  894MOL0     C20575   1.144   9.814   5.374  0.0886  0.1014  0.2663
  894MOL0     C20576   1.290   9.772   5.344  0.7937 -0.4617 -0.4256
  894MOL0     C20577   1.311   9.766   5.187  0.3677 -0.8692 -0.5992
  894MOL0     C20578   1.225   9.657   5.116 -0.1971  0.2934 -0.7255
  894MOL0     O20579   1.247   9.524   5.166 -0.2568 -0.4980  0.2032
  894MOL0     C20580   1.235   9.417   5.078 -0.8894 -0.5287 -0.3039
  894MOL0     C20581   1.291   9.298   5.123  0.5099  0.3328 -0.0213
  894MOL0     C20582   1.279   9.173   5.052  0.2238 -0.0023 -0.3236
  894MOL0     C20583   1.214   9.174   4.927  0.0992  0.1829  1.6591
  894MOL0     C20584   1.192   9.052   4.846  0.0984 -0.3193  0.2943
  894MOL0     O20585   1.235   8.942   4.898 -0.2125  0.0214  0.7573
  894MOL0     C20586   1.226   8.817   4.839 -0.2054 -0.6846 -0.8185
  894MOL0     C20587   1.240   8.797   4.703  0.0344 -0.1258  0.6952
  894MOL0     C20588   1.206   8.668   4.643 -0.5055 -0.0435 -0.1321
  894MOL0     C20589   1.160   8.560   4.731  0.0064  0.0465  0.0252
  894MOL0     O20590   1.118   8.440   4.685  0.5713  0.0015  0.1625
  894MOL0     C20591   1.135   8.394   4.553 -0.0296 -0.0314 -1.2086
  894MOL0     C20592   1.038   8.282   4.533  0.0777  0.4421  0.8027
  894MOL0     C20593   1.066   8.217   4.397  0.3857  0.0446  0.5682
  894MOL0     C20594   1.156   8.092   4.413  0.1130  0.3790 -0.3854
  894MOL0     C20595   1.100   7.978   4.321 -0.0370  0.2245 -0.2514
  894MOL0     C20596   1.192   7.860   4.336 -0.5762  1.0221 -0.3263
  894MOL0     C20597   1.164   7.748   4.239 -0.3321  1.0818 -0.0014
  894MOL0     C20598   1.025   7.672   4.262  0.2948 -0.7165  1.2194
  894MOL0    Cl20599   1.039   7.581   4.422  0.2326 -0.0689 -0.4739
  894MOL0     C20600   1.151   8.584   4.871 -0.2457  1.2528 -0.3345
  894MOL0     C20601   1.182   8.714   4.923 -0.4566  0.7049  0.9266
  894MOL0     O20602   1.144   9.059   4.737 -0.2538 -0.2819 -0.3194
  894MOL0     C20603   1.153   9.298   4.882 -0.3481  0.9823 -0.4460
  894MOL0     C20604   1.175   9.420   4.951  0.2934  0.6801 -1.4333
  894MOL0     N20605   1.184   9.856   5.621  0.6500  0.1821  0.1923
  894MOL0     N20606   1.129   9.926   5.720 -0.2670  0.0848 -0.1461
  894MOL0     C20607   1.511  10.832   6.113 -0.1792  0.9364  0.4074
  894MOL0     C20608   1.611  10.927   6.135  0.6941 -0.5859  0.0450
  894MOL0     C20609   1.781  11.328   6.222  0.1450  0.0784  0.4623
  894MOL0     C20610   1.752  11.456   6.191 -1.3404 -0.7536 -0.8991
  894MOL0     C20611   1.829  11.561   6.239  0.3251 -0.5727  0.3889
  894MOL0     C20612   1.957  11.540   6.286  0.2817  0.6805  0.6008
  894MOL0     O20613   2.053  11.626   6.341 -0.2278  0.4312  1.4367
  894MOL0     C20614   2.076  11.734   6.238 -0.6186 -0.0442  0.3736
  894MOL0     C20615   2.162  11.839   6.304  0.0574 -0.5173  1.1608
  894MOL0     C20616   2.108  11.982   6.266  0.5968 -0.0035 -0.0354
  894MOL0     C20617   2.182  12.088   6.347  0.5487 -0.1756  0.2347
  894MOL0     C20618   2.329  12.100   6.327 -0.0599  0.3163 -0.8583
  894MOL0     C20619   2.450  12.101   6.310 -0.1462  0.1126 -0.5000
  894MOL0     C20620   2.000  11.405   6.305  0.8202 -0.5186 -0.0678
  894MOL0     C20621   1.916  11.299   6.277 -0.6599  0.3896  1.0571
  894MOL0     C20622   1.978  11.161   6.285  0.5061  0.1063 -0.3405
  894MOL0     H20623   1.489  11.088   6.391  1.0691 -1.1212  1.1263
  894MOL0     H20624   1.310  10.927   6.372  0.6528 -1.1796  0.0501
  894MOL0     H20625   1.195  10.707   6.350 -2.0215 -1.7089 -0.1999
  894MOL0     H20626   1.135  10.813   6.232 -1.6703 -1.7658  0.9488
  894MOL0     H20627   1.082  10.647   6.076 -0.4952  1.7270  0.6124
  894MOL0     H20628   1.017  10.602   6.237  0.7410 -1.6582  2.0088
  894MOL0     H20629   1.176  10.438   6.265  0.1959  1.2845  0.1473
  894MOL0     H20630   1.264  10.487   6.111 -0.5893  0.5770 -2.9781
  894MOL0     H20631   0.976  10.378   6.154  1.2006  2.2798  1.1597
  894MOL0     H20632   1.023  10.438   6.001 -2.0317 -3.8566 -0.9198
  894MOL0     H20633   1.214  10.279   5.997 -0.7701 -1.8046 -1.6695
  894MOL0     H20634   1.159  10.209   6.149 -0.4055 -0.4757  1.3286
  894MOL0     H20635   1.099  10.054   5.988 -0.2831 -0.4604  0.1809
  894MOL0     H20636   0.941  10.135   6.016 -1.2509  0.9858 -1.1045
  894MOL0     H20637   1.081  10.255   5.782  0.4155 -0.2558  0.6797
  894MOL0     H20638   0.914  10.278   5.840 -2.7104 -1.7622 -0.8231
  894MOL0     H20639   0.860  10.047   5.810 -2.7208  0.1086 -1.9878
  894MOL0     H20640   0.875  10.157   5.678  0.4199  0.5778  0.9574
  894MOL0     H20641   0.946  10.019   5.464  1.0908  2.5822  0.8129
  894MOL0     H20642   1.091   9.719   5.385  2.0991 -1.2363 -0.9057
  894MOL0     H20643   1.101   9.858   5.284 -1.3378 -3.0851 -0.7793
  894MOL0     H20644   1.357   9.838   5.400  1.7648  0.6737 -2.7564
  894MOL0     H20645   1.304   9.669   5.377 -4.0960 -1.7979 -1.7192
  894MOL0     H20646   1.417   9.739   5.184  0.6163  0.0394 -0.3394
  894MOL0     H20647   1.301   9.867   5.147 -0.9009 -0.6822  0.1469
  894MOL0     H20648   1.271   9.669   5.018  3.8184 -1.0220  0.7857
  894MOL0     H20649   1.120   9.688   5.114 -1.2406 -2.8454 -1.5692
  894MOL0     H20650   1.331   9.298   5.224 -0.5149 -0.3591  0.4136
  894MOL0     H20651   1.327   9.086   5.095  3.1942  0.8840 -1.5946
  894MOL0     H20652   1.277   8.875   4.637  0.2678 -1.5309 -0.8970
  894MOL0     H20653   1.229   8.640   4.541 -0.8685 -4.9649  0.8957
  894MOL0     H20654   1.118   8.472   4.478  2.3333  0.3193 -1.4548
  894MOL0     H20655   1.236   8.353   4.547 -1.3438 -3.6153 -1.1873
  894MOL0     H20656   1.020   8.214   4.617 -2.4565  0.7154  0.5529
  894MOL0     H20657   0.942   8.334   4.522 -1.4062 -2.1822  0.4946
  894MOL0     H20658   0.969   8.190   4.355  1.2666 -0.8910 -0.9445
  894MOL0     H20659   1.119   8.281   4.326  0.6906 -1.8454 -0.9782
  894MOL0     H20660   1.160   8.058   4.517 -0.4439 -1.9333 -1.0566
  894MOL0     H20661   1.256   8.129   4.387 -0.1728  1.9882  0.6129
  894MOL0     H20662   1.101   8.017   4.219  4.6964 -0.2970 -0.6319
  894MOL0     H20663   1.002   7.941   4.353  1.0771 -0.9539  2.0410
  894MOL0     H20664   1.296   7.884   4.312  0.5742 -2.0839  0.9795
  894MOL0     H20665   1.188   7.819   4.438  0.5877 -0.0537 -0.6901
  894MOL0     H20666   1.251   7.683   4.249 -0.2656  1.0828 -0.5090
  894MOL0     H20667   1.154   7.795   4.140  2.5296 -1.2578 -1.5691
  894MOL0     H20668   0.939   7.740   4.259  0.3262 -0.6515 -1.5340
  894MOL0     H20669   1.014   7.613   4.170  1.1527  2.4640 -1.1010
  894MOL0     H20670   1.099   8.522   4.944 -0.3272 -0.1174 -1.5132
  894MOL0     H20671   1.165   8.738   5.027 -1.9819  1.3881  0.5500
  894MOL0     H20672   1.101   9.303   4.787 -0.3650  2.1789 -0.3934
  894MOL0     H20673   1.138   9.508   4.899  3.4437  1.7930 -2.0193
  894MOL0     H20674   1.521  10.769   6.026  1.4694  0.7647  0.6879
  894MOL0     H20675   1.685  10.935   6.056  0.9882  0.4792  0.4058
  894MOL0     H20676   1.660  11.482   6.138 -1.4533 -0.1300 -0.4190
  894MOL0     H20677   1.789  11.661   6.225 -0.4578 -1.0539 -1.0606
  894MOL0     H20678   1.983  11.778   6.198 -1.1222 -3.5504 -2.9627
  894MOL0     H20679   2.138  11.700   6.155 -1.7275  2.3935 -1.5953
  894MOL0     H20680   2.266  11.824   6.272 -0.4548 -0.8268 -0.4139
  894MOL0     H20681   2.159  11.827   6.413 -1.7306  1.6919  1.4437
  894MOL0     H20682   2.005  11.997   6.301 -0.9611  1.2817 -4.4249
  894MOL0     H20683   2.103  11.996   6.158  0.7340  1.4654  0.1317
  894MOL0     H20684   2.138  12.185   6.322  0.5961 -0.0281  0.7256
  894MOL0     H20685   2.164  12.069   6.453  0.9172 -1.9735  0.0021
  894MOL0     H20686   2.556  12.094   6.299  0.5797  1.7436  3.5910
  894MOL0     H20687   2.094  11.388   6.357  1.3294  2.8713  0.3199
  894MOL0     H20688   2.057  11.150   6.360 -3.6123  0.1215  4.5345
  894MOL0     H20689   1.910  11.085   6.323 -0.9919  1.8099  0.5094
  894MOL0     H20690   2.020  11.141   6.186  0.3325 -1.0203 -0.1925
  895MOL0     O20691   9.653   0.703   0.359  0.1537  0.0804  0.0119
  895MOL0     C20692   9.585   0.605   0.408 -0.5246  0.1722 -0.2029
  895MOL0     O20693   9.624   0.531   0.513  0.0113  0.4829  0.2381
  895MOL0     C20694   9.745   0.556   0.579 -0.0115 -0.0029 -0.0105
  895MOL0     C20695   9.774   0.680   0.641  0.8072  1.0233 -0.3522
  895MOL0     C20696   9.896   0.699   0.707 -1.2012  0.2336 -0.1966
  895MOL0     C20697   9.996   0.603   0.711 -0.1774  1.7109  0.5151
  895MOL0     O20698  10.117   0.637   0.765  0.6338 -0.0405 -0.6318
  895MOL0     C20699  10.135   0.596   0.910  0.1425 -0.9335  0.6227
  895MOL0     C20700  10.254   0.662   0.979  0.7320 -0.8240 -0.4401
  895MOL0     C20701  10.392   0.655   0.908 -0.4580  0.0117 -0.4406
  895MOL0     C20702  10.507   0.732   0.985 -0.4076  0.2594 -0.1043
  895MOL0     C20703  10.636   0.727   0.909 -0.2763  0.8856  0.3930
  895MOL0     C20704  10.706   0.592   0.935 -0.1858  0.6321  0.4555
  895MOL0     C20705  10.859   0.585   0.898  0.7888  0.0374 -0.0577
  895MOL0     C20706  10.935   0.473   0.973  0.2382  0.5483  0.2260
  895MOL0     N20707  10.924   0.484   1.121 -0.1616  0.1020 -0.0442
  895MOL0     C20708  10.997   0.563   1.211 -0.8976 -0.3738  0.4894
  895MOL0     C20709  10.937   0.561   1.334  1.2842  0.3653  1.0177
  895MOL0     C20710  10.971   0.641   1.462 -0.5107  0.2171 -0.5821
  895MOL0     C20711  10.951   0.793   1.448  0.2033 -0.6481  0.4407
  895MOL0     C20712  10.827   0.839   1.523 -0.7885 -0.4979  0.0375
  895MOL0     C20713  10.798   0.987   1.494  0.3294  0.4951 -0.3286
  895MOL0     O20714  10.683   1.039   1.554 -0.4023  0.3244 -0.1959
  895MOL0     C20715  10.562   1.030   1.486  0.6457 -0.0868 -0.6250
  895MOL0     C20716  10.548   0.971   1.363  0.3148 -0.6459  0.1317
  895MOL0     C20717  10.417   0.972   1.304  0.1193 -0.1018  0.4369
  895MOL0     C20718  10.310   1.027   1.366 -0.0784 -0.1673  0.3028
  895MOL0     C20719  10.168   1.024   1.304 -0.4644  0.0968  0.3825
  895MOL0     O20720  10.155   0.990   1.175 -0.1564 -0.7675 -0.8512
  895MOL0     C20721  10.022   0.962   1.135 -0.8916  0.0185 -0.2421
  895MOL0     C20722   9.933   1.061   1.084  0.6252  0.0068  0.5625
  895MOL0     C20723   9.808   1.029   1.018 -0.1186 -0.7004  0.0577
  895MOL0     C20724   9.770   0.896   1.023  0.2969  0.3426  0.3635
  895MOL0     O20725   9.644   0.870   0.969  0.3730  0.1993  0.0620
  895MOL0     C20726   9.572   0.746   0.984  0.2860  0.7397 -0.2451
  895MOL0     C20727   9.427   0.754   0.954  0.1016  0.1996 -0.4534
  895MOL0     C20728   9.398   0.750   0.807 -0.2298 -0.0191 -0.8742
  895MOL0     C20729   9.257   0.754   0.762 -0.5522 -0.5433  0.9320
  895MOL0     C20730   9.239   0.777   0.606  0.1791  0.4194 -0.4521
  895MOL0     C20731   9.094   0.779   0.581  0.3135 -0.1623 -0.7763
  895MOL0     C20732   9.053   0.784   0.433 -1.1153 -0.4900 -0.1438
  895MOL0     C20733   8.903   0.802   0.412  1.0694  0.0129  0.0405
  895MOL0    Cl20734   8.843   0.970   0.431  0.7031 -0.3492 -0.1070
  895MOL0     C20735   9.853   0.802   1.074 -1.0868  0.2436 -0.6449
  895MOL0     C20736   9.982   0.832   1.124 -0.3693 -0.0466 -1.5948
  895MOL0     O20737  10.078   1.052   1.378 -0.3994 -1.2430 -0.1959
  895MOL0     C20738  10.325   1.090   1.489 -0.3357  0.6169 -0.5606
  895MOL0     C20739  10.448   1.093   1.550  0.5700  0.4903 -0.7274
  895MOL0     N20740  10.835   0.472   1.318  0.2313 -0.3955  0.2154
  895MOL0     N20741  10.825   0.432   1.198  0.3381 -0.4006  1.2883
  895MOL0     C20742   9.965   0.481   0.639 -0.5420  0.1499 -0.0340
  895MOL0     C20743   9.844   0.462   0.577 -0.0748  1.0592  0.7282
  895MOL0     C20744   9.455   0.561   0.330  1.1393 -0.9390  0.3404
  895MOL0     C20745   9.393   0.439   0.372 -0.7976  0.1300  0.6662
  895MOL0     C20746   9.275   0.390   0.319  0.3500 -0.1665  0.1713
  895MOL0     C20747   9.205   0.466   0.234  0.8228 -0.7070  0.5009
  895MOL0     O20748   9.080   0.425   0.199  0.1798  0.6535  0.2165
  895MOL0     C20749   8.987   0.516   0.141  0.5586 -0.1807  0.4853
  895MOL0     C20750   8.986   0.481  -0.015 -0.1813 -0.0931  0.0096
  895MOL0     C20751   8.900   0.352  -0.053 -0.3818  0.0335 -0.7120
  895MOL0     C20752   8.908   0.324  -0.198 -0.3014  0.5366  0.3531
  895MOL0     C20753   8.816   0.207  -0.245  0.9145  0.7517 -0.8404
  895MOL0     C20754   8.753   0.108  -0.274 -0.1339 -0.1424  0.3326
  895MOL0     C20755   9.264   0.578   0.179  0.3780  0.7195 -0.4551
  895MOL0     C20756   9.381   0.630   0.224 -0.6218  0.3446 -0.7781
  895MOL0     C20757   9.432   0.767   0.174  0.5536 -0.5047  0.5706
  895MOL0     H20758   9.701   0.760   0.642 -1.8691 -1.2684  0.7212
  895MOL0     H20759   9.916   0.797   0.749 -2.5015  0.0861  0.8122
  895MOL0     H20760  10.040   0.620   0.959 -1.3916  0.2400 -2.6293
  895MOL0     H20761  10.140   0.487   0.916  2.8455 -0.9427 -0.4521
  895MOL0     H20762  10.267   0.632   1.083 -1.7975 -0.9461 -0.0976
  895MOL0     H20763  10.233   0.769   0.968  0.8362 -0.7204  0.2948
  895MOL0     H20764  10.386   0.693   0.806  2.7232  1.5526 -0.1391
  895MOL0     H20765  10.419   0.553   0.878  0.3452  1.6832 -6.7094
  895MOL0     H20766  10.481   0.837   1.001 -0.7110  0.2822 -0.7100
  895MOL0     H20767  10.531   0.687   1.082  0.4717 -2.3387 -1.4337
  895MOL0     H20768  10.625   0.733   0.800 -0.0681  0.0621  0.3157
  895MOL0     H20769  10.707   0.800   0.948  0.3146  0.6305 -0.1903
  895MOL0     H20770  10.685   0.567   1.039  0.3809  1.0911  0.6850
  895MOL0     H20771  10.667   0.515   0.867 -1.6597  2.5359 -0.9481
  895MOL0     H20772  10.891   0.682   0.936  0.0165  0.3727 -0.2411
  895MOL0     H20773  10.877   0.583   0.790 -2.9991 -2.0441 -0.8169
  895MOL0     H20774  10.885   0.385   0.931  1.2104  1.2318 -2.6169
  895MOL0     H20775  11.033   0.486   0.925 -0.6399 -1.3107 -2.3103
  895MOL0     H20776  11.078   0.628   1.179 -0.4379 -0.9658  0.4280
  895MOL0     H20777  10.916   0.598   1.546  0.1244  1.4973  0.5090
  895MOL0     H20778  11.078   0.625   1.477 -1.0306 -2.9728  0.6773
  895MOL0     H20779  11.033   0.837   1.506 -0.0387  2.5899 -1.4329
  895MOL0     H20780  10.960   0.817   1.342  3.9627  0.6734  0.9055
  895MOL0     H20781  10.820   0.826   1.631 -2.7997 -0.8586 -0.0986
  895MOL0     H20782  10.743   0.779   1.487 -0.7704  0.3831 -1.5803
  895MOL0     H20783  10.812   1.011   1.389 -1.3232 -0.0437 -0.7078
  895MOL0     H20784  10.874   1.040   1.552 -1.4991  0.7441  2.0282
  895MOL0     H20785  10.623   0.932   1.295  0.3344 -0.4596  0.0463
  895MOL0     H20786  10.407   0.921   1.208  0.8851  1.6302 -0.6088
  895MOL0     H20787   9.959   1.167   1.085 -2.3262  0.8209  0.4176
  895MOL0     H20788   9.741   1.106   0.982  1.3795  1.6061  1.8550
  895MOL0     H20789   9.619   0.674   0.915 -0.2474  0.4043 -0.2681
  895MOL0     H20790   9.587   0.724   1.090 -2.2582  0.6411  0.1500
  895MOL0     H20791   9.367   0.678   1.004 -1.4027  0.9805 -1.0342
  895MOL0     H20792   9.399   0.848   1.004  0.8755 -0.0366  0.4737
  895MOL0     H20793   9.453   0.827   0.751 -0.9071  2.1922  1.2758
  895MOL0     H20794   9.432   0.651   0.779 -2.1887 -1.4500  1.4105
  895MOL0     H20795   9.221   0.840   0.820 -1.0947 -1.9688  2.8021
  895MOL0     H20796   9.197   0.669   0.795 -1.6880 -0.3395 -0.4940
  895MOL0     H20797   9.281   0.694   0.548  0.5450  0.0711  0.2886
  895MOL0     H20798   9.289   0.870   0.576  0.3934  1.5481  3.0074
  895MOL0     H20799   9.052   0.686   0.620 -1.0258 -0.6905 -3.2531
  895MOL0     H20800   9.058   0.865   0.638 -2.2439 -1.9127  0.4007
  895MOL0     H20801   9.073   0.684   0.391 -2.0521 -0.3423 -0.9762
  895MOL0     H20802   9.107   0.863   0.381 -0.6508 -0.3721  0.4962
  895MOL0     H20803   8.878   0.768   0.311  1.1535  3.7161 -1.3956
  895MOL0     H20804   8.840   0.731   0.466  1.1377 -2.3896 -2.7614
  895MOL0     H20805   9.828   0.697   1.083 -0.1791  0.0459 -0.3214
  895MOL0     H20806  10.054   0.757   1.156 -0.8759  0.7829  1.8327
  895MOL0     H20807  10.234   1.121   1.540 -1.5096 -1.8763 -0.9882
  895MOL0     H20808  10.454   1.127   1.653  0.4555 -1.1310 -0.1480
  895MOL0     H20809  10.042   0.405   0.634 -0.7951 -0.0346 -3.5254
  895MOL0     H20810   9.829   0.374   0.516  1.4987  2.3153 -1.6141
  895MOL0     H20811   9.436   0.374   0.448 -0.2956 -0.8548 -0.4431
  895MOL0     H20812   9.232   0.296   0.351  1.2593 -0.3353  0.9378
  895MOL0     H20813   9.011   0.621   0.158 -2.8759  0.8270 -0.0329
  895MOL0     H20814   8.887   0.496   0.180  0.1607 -0.0755 -0.4541
  895MOL0     H20815   9.090   0.467  -0.048 -0.2520  2.8257 -1.7586
  895MOL0     H20816   8.944   0.569  -0.064 -1.2005 -0.6596 -0.1645
  895MOL0     H20817   8.795   0.366  -0.029 -0.7683 -1.3257 -1.4393
  895MOL0     H20818   8.932   0.268   0.010  2.2624  0.5157 -1.2951
  895MOL0     H20819   8.869   0.412  -0.250 -1.3727 -0.3384 -0.3916
  895MOL0     H20820   9.010   0.305  -0.233 -0.3954  2.4978 -1.2073
  895MOL0     H20821   8.703   0.016  -0.298  0.2268 -0.1572 -0.3913
  895MOL0     H20822   9.200   0.614   0.099 -2.8147 -3.0496  0.0679
  895MOL0     H20823   9.538   0.765   0.146 -0.1200 -0.5441 -2.2575
  895MOL0     H20824   9.385   0.812   0.086  2.8325 -0.6588 -0.8242
  895MOL0     H20825   9.426   0.847   0.249 -1.9437  0.7663 -0.8564
  896MOL0     O20826   0.886   3.911   2.575 -0.4614  0.8113  0.3839
  896MOL0     C20827   0.769   3.906   2.550  0.0802  0.8730  0.0905
  896MOL0     O20828   0.686   4.015   2.528 -0.0711 -0.4749 -0.4871
  896MOL0     C20829   0.741   4.140   2.514  1.3281 -0.6772  0.3073
  896MOL0     C20830   0.731   4.210   2.392  0.2807  0.1507  0.4437
  896MOL0     C20831   0.779   4.341   2.379  0.6911  1.0348  0.0212
  896MOL0     C20832   0.817   4.406   2.500 -0.0911 -0.1392 -0.0789
  896MOL0     O20833   0.838   4.546   2.509  0.3223  0.3491 -0.3779
  896MOL0     C20834   0.882   4.621   2.392  0.0659  0.1377 -0.6737
  896MOL0     C20835   0.969   4.740   2.440 -0.7948 -0.0437 -0.4701
  896MOL0     C20836   0.966   4.852   2.333  0.0021  0.7176 -0.7276
  896MOL0     C20837   1.024   4.825   2.195 -1.2084  0.1354 -0.3759
  896MOL0     C20838   1.180   4.816   2.202 -0.3773 -0.0735  0.4344
  896MOL0     C20839   1.251   4.806   2.063  0.3854 -0.3886 -0.6420
  896MOL0     C20840   1.398   4.813   2.088 -0.1461 -0.3405  0.1513
  896MOL0     C20841   1.472   4.807   1.951 -0.7136 -0.0667 -0.8405
  896MOL0     N20842   1.586   4.894   1.944 -0.2852 -0.0169  0.3471
  896MOL0     C20843   1.702   4.888   2.020  0.4594 -0.0421 -0.0342
  896MOL0     C20844   1.780   4.988   1.972 -0.7704  0.0090  0.1168
  896MOL0     C20845   1.922   5.033   2.016  0.2089  0.1190 -0.0764
  896MOL0     C20846   1.947   5.019   2.168 -0.4619  0.0224 -0.5317
  896MOL0     C20847   1.843   5.085   2.258 -0.1665 -0.0688 -0.0852
  896MOL0     C20848   1.875   5.084   2.407 -0.1225 -0.0473 -0.4305
  896MOL0     O20849   1.994   5.158   2.430 -1.1015  0.3503 -0.7306
  896MOL0     C20850   2.018   5.286   2.409  0.3792 -1.0073  0.4274
  896MOL0     C20851   1.911   5.378   2.405  0.0466  1.0088  0.1234
  896MOL0     C20852   1.946   5.514   2.400 -0.5159  0.9124  0.9307
  896MOL0     C20853   2.083   5.562   2.397  0.1419  0.7390 -0.0090
  896MOL0     C20854   2.111   5.705   2.398  0.4326 -0.3610  0.3005
  896MOL0     O20855   2.000   5.781   2.424 -0.7747 -0.0432  0.1059
  896MOL0     C20856   1.999   5.916   2.433  0.0311 -0.0377 -0.2597
  896MOL0     C20857   1.898   5.959   2.517  0.3634  0.3458 -0.1187
  896MOL0     C20858   1.894   6.096   2.555  0.2231 -0.1972 -0.5820
  896MOL0     C20859   1.973   6.186   2.501  1.0064 -0.3040  1.2393
  896MOL0     O20860   1.951   6.316   2.531 -0.0892 -0.1242  0.1866
  896MOL0     C20861   2.040   6.412   2.482 -0.2515  0.4023 -0.5424
  896MOL0     C20862   2.014   6.564   2.513  0.2407  0.0335  0.0590
  896MOL0     C20863   2.080   6.601   2.641 -0.4008 -0.4920 -0.0272
  896MOL0     C20864   2.084   6.755   2.648 -0.8382 -1.0046  0.5660
  896MOL0     C20865   2.143   6.806   2.780  0.2102  0.2313  0.1105
  896MOL0     C20866   2.290   6.779   2.794 -0.4325 -0.3424 -0.5140
  896MOL0     C20867   2.328   6.795   2.948  0.0454  0.9178  0.8053
  896MOL0     C20868   2.467   6.745   2.995 -0.4420  0.3888  0.2213
  896MOL0    Cl20869   2.578   6.857   2.902  0.0876  0.4371 -0.4022
  896MOL0     C20870   2.069   6.138   2.406 -0.0366 -0.4687  0.3017
  896MOL0     C20871   2.079   6.010   2.363  0.1275 -0.7435 -0.6428
  896MOL0     O20872   2.225   5.753   2.392 -0.0974  0.0084 -0.4475
  896MOL0     C20873   2.182   5.467   2.382 -0.3558  1.0256 -0.3796
  896MOL0     C20874   2.152   5.329   2.384  0.5550  0.0087 -0.0824
  896MOL0     N20875   1.715   5.052   1.869  0.6956 -0.9045 -0.0274
  896MOL0     N20876   1.602   5.002   1.854  0.4179  0.4991 -0.1104
  896MOL0     C20877   0.816   4.335   2.615  0.8528  0.1080 -0.3395
  896MOL0     C20878   0.786   4.203   2.624  0.0177 -0.6580 -0.2887
  896MOL0     C20879   0.702   3.770   2.555  0.2863  0.0816 -0.5772
  896MOL0     C20880   0.613   3.747   2.449 -0.3617  1.1239 -0.0211
  896MOL0     C20881   0.556   3.614   2.429  0.3673  0.0360 -0.4781
  896MOL0     C20882   0.592   3.510   2.515  0.2682  0.0181 -0.8215
  896MOL0     O20883   0.547   3.385   2.500  0.4888 -0.2520 -0.1830
  896MOL0     C20884   0.495   3.342   2.374 -0.5670  0.2752 -0.0649
  896MOL0     C20885   0.499   3.187   2.360  0.3397 -0.6561  0.3572
  896MOL0     C20886   0.636   3.137   2.335  0.1097 -0.5570  0.1876
  896MOL0     C20887   0.665   3.085   2.197 -0.0072 -0.8201  0.5406
  896MOL0     C20888   0.596   2.960   2.182 -0.7019 -0.1879 -0.1623
  896MOL0     C20889   0.543   2.852   2.157 -0.1284  0.7532 -0.6954
  896MOL0     C20890   0.670   3.543   2.631  0.2033 -0.1512 -0.0784
  896MOL0     C20891   0.716   3.672   2.658 -0.0927  0.3815 -0.2654
  896MOL0     C20892   0.803   3.681   2.781  0.4212 -0.0133 -0.4422
  896MOL0     H20893   0.689   4.155   2.308 -1.3770  0.0558  1.2962
  896MOL0     H20894   0.768   4.400   2.289 -0.7465 -2.2716 -2.1554
  896MOL0     H20895   0.941   4.559   2.323  2.5307  0.5138  0.9421
  896MOL0     H20896   0.797   4.661   2.336  0.7916  1.7307 -0.7122
  896MOL0     H20897   1.067   4.703   2.473 -0.8508  0.5713  0.4406
  896MOL0     H20898   0.915   4.772   2.530 -0.1170 -0.6826  0.1879
  896MOL0     H20899   1.021   4.933   2.381  2.6305 -1.4931  0.2561
  896MOL0     H20900   0.861   4.878   2.316  0.1630  0.8683 -1.5280
  896MOL0     H20901   0.993   4.733   2.146  2.0149 -0.2418 -2.0378
  896MOL0     H20902   0.985   4.901   2.127  0.2774  0.8209 -0.5007
  896MOL0     H20903   1.221   4.909   2.243  1.6743 -1.9488  2.9728
  896MOL0     H20904   1.212   4.732   2.264  3.8575  0.9117 -0.0851
  896MOL0     H20905   1.218   4.712   2.018 -2.3191  0.0926  0.1800
  896MOL0     H20906   1.216   4.881   1.990 -0.6651 -1.1553 -0.9452
  896MOL0     H20907   1.436   4.733   2.153 -0.7609 -0.0609  0.8735
  896MOL0     H20908   1.416   4.906   2.142  1.2771  1.2888 -2.8497
  896MOL0     H20909   1.514   4.706   1.951 -1.7845 -0.5362  0.4793
  896MOL0     H20910   1.418   4.824   1.857  1.3846 -0.1703 -2.1372
  896MOL0     H20911   1.717   4.808   2.093 -0.5308 -1.4381 -1.3164
  896MOL0     H20912   1.996   4.967   1.970  2.0929  1.8128  0.3853
  896MOL0     H20913   1.932   5.140   1.993 -4.4956  0.5517 -1.0772
  896MOL0     H20914   1.952   4.910   2.182  2.0243 -0.3037 -2.9672
  896MOL0     H20915   2.044   5.050   2.207 -2.4094  2.6451  2.7009
  896MOL0     H20916   1.758   5.018   2.241  2.0243 -2.9978 -0.2129
  896MOL0     H20917   1.818   5.186   2.225  1.7526  1.0730  1.6956
  896MOL0     H20918   1.879   4.982   2.444  0.4954  0.3869  0.7595
  896MOL0     H20919   1.790   5.126   2.461 -1.5777 -1.8907 -1.2097
  896MOL0     H20920   1.811   5.338   2.399  1.2808 -2.2549 -2.4276
  896MOL0     H20921   1.855   5.573   2.403 -2.1035 -1.3158  0.0128
  896MOL0     H20922   1.819   5.888   2.544 -0.4624  2.3770  3.4413
  896MOL0     H20923   1.815   6.135   2.618  0.8457 -0.4658  0.3801
  896MOL0     H20924   2.146   6.406   2.506 -0.8075  1.7480  2.7319
  896MOL0     H20925   2.033   6.399   2.374 -1.2299  0.0633 -0.4516
  896MOL0     H20926   2.067   6.614   2.432  1.8763 -3.7376 -1.4702
  896MOL0     H20927   1.907   6.588   2.517 -0.0016 -1.1204  1.8343
  896MOL0     H20928   2.045   6.563   2.738  1.0209  2.9514  2.0367
  896MOL0     H20929   2.185   6.572   2.641  0.7423  3.1517 -0.9278
  896MOL0     H20930   1.989   6.808   2.638  0.4548  1.3202 -0.0311
  896MOL0     H20931   2.143   6.788   2.562 -0.5671 -0.8799  0.7993
  896MOL0     H20932   2.091   6.752   2.860 -0.4067 -0.8177 -0.9817
  896MOL0     H20933   2.148   6.915   2.790 -0.2791  0.1907  0.8699
  896MOL0     H20934   2.318   6.678   2.763  1.4637 -0.9119  2.6190
  896MOL0     H20935   2.339   6.857   2.734 -2.2158 -0.3491 -2.0529
  896MOL0     H20936   2.263   6.729   3.006 -0.9322  0.1379 -1.0806
  896MOL0     H20937   2.324   6.902   2.970  0.1788  0.8259  1.2866
  896MOL0     H20938   2.484   6.767   3.101  1.3429 -1.5853  0.4180
  896MOL0     H20939   2.494   6.639   2.988  0.5307  0.7258 -2.3718
  896MOL0     H20940   2.134   6.209   2.357  0.7196 -0.2064  1.6305
  896MOL0     H20941   2.167   5.973   2.311  1.7860 -2.4495  2.9998
  896MOL0     H20942   2.288   5.491   2.372  0.4371 -1.8209  0.2130
  896MOL0     H20943   2.234   5.258   2.371  2.4403  1.2520  3.5737
  896MOL0     H20944   0.840   4.389   2.707  0.9207 -1.8460  0.8379
  896MOL0     H20945   0.810   4.147   2.714  2.1926 -1.2898 -1.2049
  896MOL0     H20946   0.605   3.817   2.366  0.4558  2.9445  1.3575
  896MOL0     H20947   0.483   3.597   2.350  0.8146 -0.3607 -0.8075
  896MOL0     H20948   0.546   3.398   2.295  0.8740 -1.8863 -0.7631
  896MOL0     H20949   0.390   3.370   2.374 -1.2011 -1.8351  1.8230
  896MOL0     H20950   0.436   3.162   2.274  0.5701 -2.7058  0.7372
  896MOL0     H20951   0.457   3.142   2.450 -0.0036  0.9792  1.0444
  896MOL0     H20952   0.664   3.059   2.406 -1.1758 -1.0470  0.1886
  896MOL0     H20953   0.698   3.223   2.363 -0.9980  0.9113 -1.6212
  896MOL0     H20954   0.644   3.149   2.111  0.9625  0.3772  1.1643
  896MOL0     H20955   0.773   3.064   2.193 -0.2763 -2.6836  1.6857
  896MOL0     H20956   0.491   2.759   2.147 -1.3217  0.3598  5.2347
  896MOL0     H20957   0.713   3.466   2.693 -1.3845 -0.5788  0.5261
  896MOL0     H20958   0.761   3.625   2.865 -2.1488  1.5313 -0.5944
  896MOL0     H20959   0.901   3.643   2.751 -0.0975 -3.8739  2.0288
  896MOL0     H20960   0.810   3.784   2.817  0.5437 -0.6701  1.5503
  897MOL0     O20961   0.944   0.549   2.988 -0.4282  0.4511 -0.0339
  897MOL0     C20962   0.853   0.621   2.946 -0.5880  0.3606  0.1369
  897MOL0     O20963   0.849   0.682   2.826  0.3152 -0.7937  0.0959
  897MOL0     C20964   0.960   0.657   2.746 -0.1990 -0.8696 -0.1008
  897MOL0     C20965   1.077   0.740   2.760 -0.3175  0.3526 -0.5115
  897MOL0     C20966   1.185   0.715   2.671 -0.5049  0.5051  0.0675
  897MOL0     C20967   1.182   0.607   2.578 -1.6522 -0.6946 -0.1924
  897MOL0     O20968   1.289   0.559   2.507  0.0094  0.0697 -0.2229
  897MOL0     C20969   1.286   0.598   2.370  0.3261  0.1513  0.4378
  897MOL0     C20970   1.372   0.502   2.282 -0.0062  0.2291  0.2399
  897MOL0     C20971   1.325   0.360   2.271  0.6210  0.4684 -0.9624
  897MOL0     C20972   1.335   0.299   2.125 -0.8431  0.0800 -0.4003
  897MOL0     C20973   1.288   0.160   2.115  0.3375  0.6910  0.2940
  897MOL0     C20974   1.288   0.111   1.966  0.3788  0.2181 -0.2050
  897MOL0     C20975   1.255  -0.044   1.960 -0.9640 -0.4851  0.6229
  897MOL0     C20976   1.321  -0.129   1.847 -0.1416  0.4167  0.1402
  897MOL0     N20977   1.464  -0.127   1.860 -0.3037  0.1571 -0.6504
  897MOL0     C20978   1.545  -0.149   1.978  0.3269  0.2670 -0.4501
  897MOL0     C20979   1.671  -0.118   1.941 -0.2123 -0.8981 -0.0067
  897MOL0     C20980   1.787  -0.117   2.038  0.4610  0.6254 -0.0282
  897MOL0     C20981   1.847   0.023   2.053  0.6002  0.0565  0.2899
  897MOL0     C20982   1.969   0.021   2.149  0.1928  0.1689  1.0081
  897MOL0     C20983   2.040   0.144   2.158 -0.5103 -0.7982  0.1431
  897MOL0     O20984   2.179   0.110   2.169  0.3748  0.6593 -0.4108
  897MOL0     C20985   2.275   0.205   2.205 -0.1232  0.3475  0.3407
  897MOL0     C20986   2.404   0.158   2.239  0.0404  0.5043  0.1597
  897MOL0     C20987   2.510   0.242   2.284  0.4895 -0.0032 -0.7451
  897MOL0     C20988   2.486   0.370   2.325  1.5633 -0.4945 -0.9977
  897MOL0     C20989   2.587   0.465   2.375 -0.0328 -0.1430  0.8766
  897MOL0     O20990   2.714   0.432   2.356  0.1615 -0.1097  0.3335
  897MOL0     C20991   2.808   0.495   2.435 -0.5849 -0.3132 -0.3993
  897MOL0     C20992   2.942   0.460   2.411 -0.3218  0.0873 -0.0295
  897MOL0     C20993   3.049   0.509   2.483  0.0493  0.2273  0.5073
  897MOL0     C20994   3.033   0.593   2.588 -0.5565  0.3121  0.2676
  897MOL0     O20995   3.127   0.625   2.685 -0.4421  0.3474 -0.0320
  897MOL0     C20996   3.257   0.663   2.652 -0.5211  0.1005 -0.3564
  897MOL0     C20997   3.354   0.653   2.774 -0.5123  0.7171 -0.1433
  897MOL0     C20998   3.503   0.666   2.738  0.0560  0.4214 -0.5497
  897MOL0     C20999   3.578   0.663   2.871  0.4425 -0.3635  0.2583
  897MOL0     C21000   3.720   0.665   2.850  0.2864 -0.0334 -1.1168
  897MOL0     C21001   3.802   0.698   2.985 -0.1566  0.4837  1.1402
  897MOL0     C21002   3.934   0.768   2.961  0.3004 -0.0239 -0.1150
  897MOL0     C21003   3.989   0.793   3.099 -0.8489  0.8402  0.6540
  897MOL0    Cl21004   4.158   0.832   3.091  0.1129  0.0931  0.2544
  897MOL0     C21005   2.904   0.632   2.614  0.2235 -0.2610  0.2192
  897MOL0     C21006   2.791   0.579   2.550  0.0456  0.2506 -1.1419
  897MOL0     O21007   2.539   0.569   2.428  0.4781  0.9108 -0.3731
  897MOL0     C21008   2.358   0.423   2.288  0.1419  0.5920 -0.7685
  897MOL0     C21009   2.254   0.342   2.226  0.7533 -0.3758  0.5108
  897MOL0     N21010   1.673  -0.067   1.812 -0.1713  0.4711  0.4699
  897MOL0     N21011   1.550  -0.077   1.767 -0.1777 -0.9046  0.3708
  897MOL0     C21012   1.063   0.531   2.571  0.0518  0.1429  0.0106
  897MOL0     C21013   0.958   0.554   2.654 -0.3251  0.5215 -0.5960
  897MOL0     C21014   0.732   0.634   3.029 -1.3121 -0.1436  0.7177
  897MOL0     C21015   0.640   0.742   2.997 -0.6929 -0.3023 -0.5940
  897MOL0     C21016   0.531   0.762   3.074  0.6609 -0.2742 -0.6227
  897MOL0     C21017   0.496   0.681   3.179 -0.6373 -1.0236 -0.8310
  897MOL0     O21018   0.377   0.699   3.242  0.1613 -0.8818 -0.6406
  897MOL0     C21019   0.262   0.650   3.161  0.7520 -0.0960  0.3181
  897MOL0     C21020   0.121   0.682   3.227  0.4227 -0.3745  0.1700
  897MOL0     C21021   0.109   0.582   3.335  0.3763  0.5498 -1.4137
  897MOL0     C21022  -0.007   0.602   3.442  0.2646  1.0975 -0.2943
  897MOL0     C21023  -0.138   0.612   3.378  0.4443 -0.2028  0.5957
  897MOL0     C21024  -0.253   0.622   3.334  0.2679  0.4338  0.4211
  897MOL0     C21025   0.583   0.580   3.216 -0.8190 -0.0824  0.7589
  897MOL0     C21026   0.698   0.548   3.138  1.6528 -0.1259 -0.1389
  897MOL0     C21027   0.774   0.428   3.181  0.0515  0.4130 -0.5298
  897MOL0     H21028   1.090   0.812   2.840  0.7978  0.2360 -0.5820
  897MOL0     H21029   1.273   0.773   2.697  0.1047 -0.8622  1.2354
  897MOL0     H21030   1.184   0.608   2.332  0.1186  2.5119  1.4163
  897MOL0     H21031   1.337   0.694   2.357 -2.2372  1.3337 -1.7859
  897MOL0     H21032   1.475   0.503   2.320 -0.3086 -0.7258  1.1272
  897MOL0     H21033   1.381   0.548   2.183  1.3116  0.3325  0.3893
  897MOL0     H21034   1.221   0.366   2.306  0.8002  2.1400 -0.6569
  897MOL0     H21035   1.381   0.287   2.331  0.3264 -0.8588 -2.2481
  897MOL0     H21036   1.275   0.363   2.059 -1.3360  1.2327  1.1171
  897MOL0     H21037   1.438   0.292   2.090 -1.4034 -2.4845 -1.8713
  897MOL0     H21038   1.350   0.089   2.171 -2.6127 -3.5489 -1.3106
  897MOL0     H21039   1.188   0.141   2.155  0.1740 -0.2980 -0.5616
  897MOL0     H21040   1.210   0.173   1.921 -1.1758 -2.5683 -1.6385
  897MOL0     H21041   1.387   0.138   1.927 -0.7077  1.7101 -2.1027
  897MOL0     H21042   1.147  -0.061   1.962 -0.8874 -0.9688  2.2024
  897MOL0     H21043   1.286  -0.095   2.052  0.3231 -2.6301 -0.8980
  897MOL0     H21044   1.282  -0.229   1.870 -2.9861  1.3348 -0.2787
  897MOL0     H21045   1.295  -0.092   1.747 -0.0331  2.6302  0.8779
  897MOL0     H21046   1.506  -0.186   2.072 -1.1432  0.5584 -0.9116
  897MOL0     H21047   1.762  -0.140   2.142  3.0081 -0.6570  0.3905
  897MOL0     H21048   1.865  -0.192   2.019 -0.8954 -1.4262  1.9332
  897MOL0     H21049   1.864   0.062   1.952 -2.4740 -1.9865 -1.1872
  897MOL0     H21050   1.775   0.092   2.099  2.1173  2.2533 -0.4521
  897MOL0     H21051   2.044  -0.050   2.110  1.4584  2.7675 -1.6438
  897MOL0     H21052   1.956  -0.023   2.248 -1.6700  0.8775  1.0992
  897MOL0     H21053   2.008   0.207   2.241 -2.4808 -1.4146 -0.0947
  897MOL0     H21054   2.025   0.200   2.064 -0.2329  1.0415  1.1463
  897MOL0     H21055   2.415   0.051   2.230 -0.4690  0.5438 -1.2227
  897MOL0     H21056   2.606   0.198   2.309  0.8688  1.2405  0.1577
  897MOL0     H21057   2.964   0.394   2.328  0.5541  1.0770 -0.6162
  897MOL0     H21058   3.149   0.477   2.453 -0.5309 -0.3066 -0.9508
  897MOL0     H21059   3.290   0.583   2.585  1.5693  1.4512 -1.0374
  897MOL0     H21060   3.260   0.760   2.602  1.0754  1.2405  1.7904
  897MOL0     H21061   3.332   0.731   2.847 -0.6915  2.0091 -1.5345
  897MOL0     H21062   3.343   0.553   2.817 -0.6928  1.2115  0.9721
  897MOL0     H21063   3.554   0.606   2.663  2.3516  1.4133  0.1235
  897MOL0     H21064   3.523   0.768   2.703 -1.2347  0.6535 -0.6476
  897MOL0     H21065   3.532   0.583   2.930 -1.9074  0.5561 -0.1903
  897MOL0     H21066   3.559   0.757   2.923  1.3402  0.2832 -0.5626
  897MOL0     H21067   3.738   0.733   2.766 -1.0585 -0.6748 -1.9424
  897MOL0     H21068   3.753   0.564   2.824  2.0888  0.1069  0.3841
  897MOL0     H21069   3.736   0.765   3.042 -0.1729  1.5195 -0.0515
  897MOL0     H21070   3.805   0.602   3.037 -1.1041 -1.4626 -2.1516
  897MOL0     H21071   3.916   0.859   2.903 -1.6497 -0.2282  0.1026
  897MOL0     H21072   4.002   0.698   2.912 -1.7500 -2.0927 -0.2119
  897MOL0     H21073   3.931   0.867   3.154 -0.4137  1.1082  0.7564
  897MOL0     H21074   3.981   0.696   3.150  2.7933 -0.0875 -0.2300
  897MOL0     H21075   2.892   0.687   2.707 -1.1655 -1.0680  0.5440
  897MOL0     H21076   2.696   0.604   2.595  0.2304 -3.7656  2.1175
  897MOL0     H21077   2.333   0.525   2.315  0.8832  0.3382  1.0609
  897MOL0     H21078   2.157   0.386   2.203  1.4481  2.2966  2.2856
  897MOL0     H21079   1.053   0.441   2.511  0.2408  0.0757  0.0791
  897MOL0     H21080   0.867   0.496   2.661 -3.1857  4.5691 -0.4949
  897MOL0     H21081   0.666   0.817   2.923  2.0804  0.3282  0.8707
  897MOL0     H21082   0.474   0.851   3.051 -1.1224 -0.5853  2.1587
  897MOL0     H21083   0.283   0.544   3.147  0.7247 -0.3704  2.1597
  897MOL0     H21084   0.270   0.700   3.064  3.4381  3.1603  1.9710
  897MOL0     H21085   0.043   0.667   3.152  1.1654  1.1647 -0.9620
  897MOL0     H21086   0.130   0.785   3.260  0.0220  0.2382 -1.5108
  897MOL0     H21087   0.201   0.571   3.393 -1.7015 -1.4606  1.8436
  897MOL0     H21088   0.094   0.478   3.301  2.2083  0.5458 -2.3623
  897MOL0     H21089   0.007   0.526   3.520  0.0631  3.1797  1.9083
  897MOL0     H21090   0.006   0.688   3.508  1.3240  2.2617 -1.9632
  897MOL0     H21091  -0.355   0.636   3.304  0.4950  3.9227  0.8972
  897MOL0     H21092   0.563   0.520   3.304  0.1108 -0.0786  0.9830
  897MOL0     H21093   0.766   0.363   3.093 -0.8993 -2.4650  1.5451
  897MOL0     H21094   0.874   0.453   3.218  0.7025 -0.9313 -1.2685
  897MOL0     H21095   0.720   0.373   3.259 -0.2120 -1.4869 -1.9685
  898MOL0     O21096   1.889   2.263   0.140  0.1203  0.1938  0.0451
  898MOL0     C21097   1.845   2.332   0.225 -0.9304 -0.0570  0.0643
  898MOL0     O21098   1.834   2.290   0.356 -0.1052  0.2416 -0.5893
  898MOL0     C21099   1.858   2.160   0.392 -1.0056 -0.4217  0.0857
  898MOL0     C21100   1.979   2.118   0.448 -1.0820  0.2977 -0.2517
  898MOL0     C21101   1.996   1.987   0.487 -0.8782 -0.2255  0.6777
  898MOL0     C21102   1.882   1.897   0.479 -0.3535 -0.6592  0.3766
  898MOL0     O21103   1.900   1.771   0.527  0.4720  0.3203  0.4185
  898MOL0     C21104   1.803   1.674   0.488 -0.3554 -1.0792 -0.3803
  898MOL0     C21105   1.862   1.537   0.534 -0.0423 -0.0761  0.3059
  898MOL0     C21106   2.014   1.525   0.485  0.5955  0.5909  0.0385
  898MOL0     C21107   2.074   1.385   0.506 -0.1616  0.1046  0.3635
  898MOL0     C21108   2.229   1.374   0.471  0.5476  0.7613  0.2525
  898MOL0     C21109   2.317   1.465   0.553 -0.4928 -0.5915 -0.1080
  898MOL0     C21110   2.466   1.443   0.516  0.0907 -1.0998 -0.1629
  898MOL0     C21111   2.530   1.318   0.566  0.2425  1.7496  0.2580
  898MOL0     N21112   2.506   1.290   0.709 -0.3072  0.2335 -0.2186
  898MOL0     C21113   2.411   1.219   0.766  0.7529 -0.5604  0.2939
  898MOL0     C21114   2.439   1.217   0.898 -0.2455 -0.0094  0.1724
  898MOL0     C21115   2.353   1.165   1.010 -0.0872 -0.2887  0.3066
  898MOL0     C21116   2.263   1.279   1.060  0.3673 -0.0906  0.8341
  898MOL0     C21117   2.184   1.357   0.956 -0.3539  0.2018 -0.5229
  898MOL0     C21118   2.063   1.429   1.018  0.7073 -0.1758 -0.5966
  898MOL0     O21119   1.996   1.512   0.916 -0.4994  0.2406 -0.2548
  898MOL0     C21120   1.893   1.593   0.967 -0.4567 -0.5866  0.1074
  898MOL0     C21121   1.847   1.593   1.097  0.0678  0.6416 -0.0086
  898MOL0     C21122   1.750   1.686   1.138 -0.8258 -0.1635 -0.3021
  898MOL0     C21123   1.693   1.770   1.044 -0.3232 -0.0984 -0.4118
  898MOL0     C21124   1.589   1.867   1.078  0.3256  0.1950 -0.6868
  898MOL0     O21125   1.554   1.970   0.992 -0.5252 -0.1940 -0.3980
  898MOL0     C21126   1.508   2.081   1.059  0.8989 -0.3443  0.0903
  898MOL0     C21127   1.378   2.120   1.033 -0.4760  0.1591  0.4884
  898MOL0     C21128   1.316   2.228   1.103 -1.2974  0.4393 -0.1362
  898MOL0     C21129   1.397   2.300   1.201 -0.0553  0.9703 -0.0260
  898MOL0     O21130   1.334   2.394   1.286 -1.0294  0.4192 -0.0458
  898MOL0     C21131   1.404   2.456   1.393 -0.2723 -0.0017 -0.5211
  898MOL0     C21132   1.301   2.524   1.483  0.1361 -0.0784  0.7547
  898MOL0     C21133   1.231   2.648   1.421  0.4091 -0.6051 -1.0802
  898MOL0     C21134   1.164   2.727   1.533 -0.1301 -0.1720 -0.0334
  898MOL0     C21135   1.095   2.849   1.464  0.2780  0.2621 -0.2707
  898MOL0     C21136   1.190   2.942   1.390  0.3654 -0.8842 -0.2938
  898MOL0     C21137   1.104   3.063   1.336  0.1255  1.2007 -0.5579
  898MOL0     C21138   1.177   3.150   1.241 -0.5612 -0.2986 -0.7369
  898MOL0    Cl21139   1.190   3.315   1.320  0.3568  0.7279 -0.1231
  898MOL0     C21140   1.533   2.265   1.212 -0.4523 -0.2324 -0.0154
  898MOL0     C21141   1.587   2.156   1.139  0.6908  0.2900 -0.0530
  898MOL0     O21142   1.548   1.852   1.198  0.2309  0.4249  0.0027
  898MOL0     C21143   1.735   1.758   0.909  0.7715 -0.0982 -0.6249
  898MOL0     C21144   1.834   1.674   0.874  0.4054  1.1178  0.7774
  898MOL0     N21145   2.554   1.290   0.929 -1.3745  0.3506  0.5838
  898MOL0     N21146   2.586   1.332   0.808  0.0579  0.0710 -0.3022
  898MOL0     C21147   1.771   1.943   0.404 -0.0999  0.8493  0.4203
  898MOL0     C21148   1.761   2.070   0.355 -0.8779  0.8272 -0.9464
  898MOL0     C21149   1.801   2.464   0.189  0.0591 -0.6000  0.4330
  898MOL0     C21150   1.800   2.502   0.048 -0.4573 -0.8419  0.1191
  898MOL0     C21151   1.759   2.632   0.003 -0.9452 -0.1704  0.5439
  898MOL0     C21152   1.718   2.731   0.091  0.7928 -0.4865 -0.2617
  898MOL0     O21153   1.678   2.846   0.036  0.5451 -0.9653  0.6396
  898MOL0     C21154   1.593   2.922   0.126  0.2346  0.3234 -0.8636
  898MOL0     C21155   1.652   3.037   0.196 -1.0046 -0.3389 -0.4655
  898MOL0     C21156   1.687   3.003   0.336  0.6504  0.1979 -0.3607
  898MOL0     C21157   1.695   3.133   0.433 -0.6115  0.2959 -0.1887
  898MOL0     C21158   1.790   3.234   0.372  1.3105 -0.0945 -0.2037
  898MOL0     C21159   1.873   3.306   0.321 -0.4563 -0.3080  0.6788
  898MOL0     C21160   1.726   2.691   0.228  0.1103 -0.1443 -0.2278
  898MOL0     C21161   1.758   2.565   0.276 -0.1328 -0.0407  0.6436
  898MOL0     C21162   1.750   2.559   0.428 -0.1129  0.1019  0.3485
  898MOL0     H21163   2.050   2.195   0.474 -1.1712  0.8297 -1.5484
  898MOL0     H21164   2.085   1.965   0.545 -0.3053 -0.5888 -0.3122
  898MOL0     H21165   1.711   1.692   0.544 -0.6494  2.1557 -1.6712
  898MOL0     H21166   1.788   1.677   0.380 -0.3015  0.1352 -0.3725
  898MOL0     H21167   1.814   1.449   0.489  3.8360 -1.4340 -1.6039
  898MOL0     H21168   1.863   1.514   0.640  4.9552 -0.4416  0.4076
  898MOL0     H21169   2.077   1.592   0.545  0.8062 -0.9000  1.5495
  898MOL0     H21170   2.028   1.558   0.382 -0.1613  0.3205 -0.1507
  898MOL0     H21171   2.051   1.356   0.608 -2.4939 -3.2736 -0.9565
  898MOL0     H21172   2.025   1.311   0.442  0.1551 -0.5394  0.8559
  898MOL0     H21173   2.251   1.271   0.498 -1.7579  0.8338  2.8996
  898MOL0     H21174   2.238   1.397   0.365 -2.7588 -3.0659 -1.1196
  898MOL0     H21175   2.293   1.566   0.520 -0.0280  0.1544  1.6986
  898MOL0     H21176   2.293   1.480   0.659 -2.1581 -4.3758  0.2216
  898MOL0     H21177   2.511   1.526   0.571 -2.7742  0.9306 -0.7144
  898MOL0     H21178   2.475   1.453   0.408  2.3093  1.2098  0.1525
  898MOL0     H21179   2.486   1.236   0.509 -1.0981  2.0260  0.8596
  898MOL0     H21180   2.639   1.324   0.554  0.7267 -3.0437  0.6351
  898MOL0     H21181   2.333   1.164   0.714  1.7156 -2.3789  0.6745
  898MOL0     H21182   2.299   1.076   0.976 -1.0478 -0.0490  1.1409
  898MOL0     H21183   2.423   1.129   1.086 -2.0063  2.0654  3.4403
  898MOL0     H21184   2.186   1.239   1.127 -2.3029  4.9163  1.2493
  898MOL0     H21185   2.326   1.354   1.110  0.7741 -0.2703  0.5928
  898MOL0     H21186   2.155   1.291   0.874  1.3495  2.0000 -2.7202
  898MOL0     H21187   2.259   1.422   0.909  0.5655 -0.3436  0.1709
  898MOL0     H21188   2.084   1.500   1.098 -0.4841 -0.9544  0.4557
  898MOL0     H21189   1.997   1.353   1.062  1.2742  0.6743  1.8790
  898MOL0     H21190   1.874   1.523   1.174  2.2972  0.3232 -1.0002
  898MOL0     H21191   1.705   1.678   1.236 -2.9416  0.6208 -1.1404
  898MOL0     H21192   1.319   2.057   0.969 -0.4534  2.0746 -1.5388
  898MOL0     H21193   1.210   2.247   1.091 -0.8851  1.8207 -1.9313
  898MOL0     H21194   1.457   2.386   1.458 -1.0167  1.6894  2.0634
  898MOL0     H21195   1.481   2.523   1.353  3.3437 -1.3358  3.4811
  898MOL0     H21196   1.228   2.444   1.497 -1.9820  0.6360 -4.0299
  898MOL0     H21197   1.345   2.556   1.578 -2.2893  1.5358  1.4314
  898MOL0     H21198   1.313   2.705   1.376  0.1762  3.2106  2.7601
  898MOL0     H21199   1.159   2.613   1.346 -1.2029 -1.3771  0.7678
  898MOL0     H21200   1.228   2.773   1.609  1.6289  0.1983 -1.6636
  898MOL0     H21201   1.087   2.672   1.588 -2.7248  0.1257 -3.0494
  898MOL0     H21202   1.042   2.900   1.544  0.4750 -0.6352  0.4431
  898MOL0     H21203   1.017   2.817   1.394 -0.1792  0.0313  0.3451
  898MOL0     H21204   1.263   2.975   1.464  1.6937 -2.8162 -0.6806
  898MOL0     H21205   1.235   2.887   1.306  2.5012 -1.2005  0.9932
  898MOL0     H21206   1.057   3.110   1.423 -0.8247  1.4541 -1.2016
  898MOL0     H21207   1.017   3.025   1.282  0.0278  3.0287 -1.7819
  898MOL0     H21208   1.279   3.113   1.232 -0.2805  0.4098 -0.5175
  898MOL0     H21209   1.129   3.160   1.143 -0.4149  2.3849 -0.6248
  898MOL0     H21210   1.603   2.311   1.281 -1.1270 -3.3549  3.0565
  898MOL0     H21211   1.694   2.138   1.146  0.6278 -0.6505 -1.1882
  898MOL0     H21212   1.687   1.825   0.838  3.7991  3.7310  0.5347
  898MOL0     H21213   1.868   1.670   0.771 -1.6891 -2.7295  0.0260
  898MOL0     H21214   1.680   1.885   0.398  0.6605 -0.2132 -2.0729
  898MOL0     H21215   1.673   2.110   0.306 -1.0376  2.5719  0.6387
  898MOL0     H21216   1.822   2.428  -0.028 -1.8594 -3.1505  1.8072
  898MOL0     H21217   1.756   2.656  -0.103  1.2866 -0.3446  0.4115
  898MOL0     H21218   1.544   2.854   0.196  1.2433  0.0418 -0.4062
  898MOL0     H21219   1.516   2.970   0.065 -1.1460  2.3859  2.2840
  898MOL0     H21220   1.584   3.123   0.197 -0.1633  0.3321  0.2760
  898MOL0     H21221   1.740   3.070   0.140  1.4305 -1.7289  2.2733
  898MOL0     H21222   1.781   2.946   0.340  0.8651  0.5074 -0.8269
  898MOL0     H21223   1.606   2.941   0.375  1.0681 -0.0601  0.1092
  898MOL0     H21224   1.600   3.177   0.462  0.4945  3.4171 -0.9227
  898MOL0     H21225   1.728   3.088   0.527  0.2988  0.5844 -0.3531
  898MOL0     H21226   1.943   3.368   0.271  1.1146  1.4432  4.6272
  898MOL0     H21227   1.694   2.766   0.300 -0.8710 -0.0696 -0.7249
  898MOL0     H21228   1.662   2.598   0.480  0.4291 -1.0377  2.2063
  898MOL0     H21229   1.754   2.456   0.465  2.4394 -0.1961 -0.5344
  898MOL0     H21230   1.840   2.609   0.465  0.0207  3.0969 -3.4241
  899MOL0     O21231   1.650   9.853   8.419  0.4616 -0.2502  0.3568
  899MOL0     C21232   1.592   9.927   8.344  0.5690  0.1712  0.5142
  899MOL0     O21233   1.620  10.053   8.318 -0.4665 -0.2134  0.5386
  899MOL0     C21234   1.723  10.120   8.372  0.4713  0.5079 -0.8959
  899MOL0     C21235   1.855  10.070   8.374 -0.6553  1.3423 -0.1752
  899MOL0     C21236   1.951  10.147   8.436 -0.4987 -0.4228 -0.7106
  899MOL0     C21237   1.923  10.266   8.499 -0.2711 -0.8093 -0.2857
  899MOL0     O21238   2.012  10.351   8.565 -0.5536 -0.1148  0.1275
  899MOL0     C21239   2.155  10.341   8.581  0.1128  0.6385  0.2090
  899MOL0     C21240   2.212  10.481   8.619  0.2639 -0.7948 -0.5276
  899MOL0     C21241   2.158  10.593   8.530  0.2457 -0.5429 -0.0558
  899MOL0     C21242   2.261  10.703   8.521 -0.5665 -0.4774  1.0657
  899MOL0     C21243   2.208  10.818   8.429  0.3849  0.4244  0.0877
  899MOL0     C21244   2.283  10.949   8.420 -0.7239 -0.1092 -0.0985
  899MOL0     C21245   2.233  11.046   8.315  0.3313 -0.0336 -0.0454
  899MOL0     C21246   2.327  11.168   8.310 -0.0457  0.9183  1.0996
  899MOL0     N21247   2.248  11.273   8.238  0.1831  0.3467  0.1963
  899MOL0     C21248   2.173  11.370   8.303 -0.4633 -0.3042  0.2819
  899MOL0     C21249   2.119  11.439   8.205  0.1407 -0.8176  0.4137
  899MOL0     C21250   2.027  11.565   8.226  0.3324  0.1059 -0.5811
  899MOL0     C21251   2.028  11.686   8.125  0.3529  0.9651 -0.0804
  899MOL0     C21252   1.902  11.770   8.146 -0.0819  0.0049  0.0312
  899MOL0     C21253   1.901  11.892   8.053 -0.1074  1.2373  0.2239
  899MOL0     O21254   1.764  11.917   8.025 -0.2640 -0.2570 -0.5260
  899MOL0     C21255   1.699  11.857   7.921 -0.2824  0.3762  0.7782
  899MOL0     C21256   1.570  11.898   7.901  0.3555 -0.6654  0.6731
  899MOL0     C21257   1.495  11.861   7.783 -0.0650  0.1231 -1.2729
  899MOL0     C21258   1.556  11.776   7.683  0.5035  0.5015 -0.5071
  899MOL0     C21259   1.487  11.748   7.558 -0.2839 -0.4842 -0.6299
  899MOL0     O21260   1.555  11.685   7.464  0.6057 -0.0492  0.3318
  899MOL0     C21261   1.473  11.615   7.383  0.3115 -0.5315  0.1286
  899MOL0     C21262   1.459  11.662   7.257 -0.4169 -0.0776 -0.0422
  899MOL0     C21263   1.373  11.600   7.167  0.0037 -0.3214  0.0088
  899MOL0     C21264   1.307  11.475   7.205  0.8210 -0.7536 -0.7203
  899MOL0     O21265   1.216  11.409   7.129 -0.1432 -0.7272  0.2692
  899MOL0     C21266   1.178  11.445   6.995 -0.2629  0.3501 -0.1675
  899MOL0     C21267   1.275  11.391   6.886  0.8738  0.4690  0.6289
  899MOL0     C21268   1.279  11.487   6.774 -0.1949 -1.0356  0.4470
  899MOL0     C21269   1.387  11.451   6.661 -0.0859 -0.0763 -0.4448
  899MOL0     C21270   1.522  11.496   6.708 -0.4859  0.4477  0.4542
  899MOL0     C21271   1.629  11.456   6.604  0.2850 -0.0708  0.1261
  899MOL0     C21272   1.767  11.486   6.655  0.5159  0.2098  0.5209
  899MOL0     C21273   1.813  11.633   6.632 -0.1013  0.2546  0.0663
  899MOL0    Cl21274   1.984  11.661   6.679 -0.1216  0.2897  0.0618
  899MOL0     C21275   1.331  11.424   7.334  0.1877 -0.2687  0.7038
  899MOL0     C21276   1.421  11.488   7.424  0.4873 -0.1532  0.1863
  899MOL0     O21277   1.368  11.780   7.558 -0.0416  0.0945  0.3336
  899MOL0     C21278   1.686  11.735   7.712  0.5717 -0.3191  0.2673
  899MOL0     C21279   1.752  11.766   7.829 -0.4725  0.2559  0.8636
  899MOL0     N21280   2.144  11.386   8.079 -0.4991  0.7474 -0.6400
  899MOL0     N21281   2.225  11.286   8.107 -0.5507 -0.3290  0.7503
  899MOL0     C21282   1.788  10.315   8.500 -0.4118 -0.4365 -0.1048
  899MOL0     C21283   1.694  10.247   8.426  0.6396  0.4483 -0.9935
  899MOL0     C21284   1.494   9.881   8.252 -0.2322  0.2933  0.5724
  899MOL0     C21285   1.365   9.950   8.249  0.2472 -0.5463  0.1688
  899MOL0     C21286   1.260   9.887   8.179  0.2867  0.2673 -0.3741
  899MOL0     C21287   1.278   9.774   8.104 -1.6287 -0.4789  0.0834
  899MOL0     O21288   1.181   9.728   8.022 -0.4610  0.3166  0.3743
  899MOL0     C21289   1.053   9.801   8.022 -0.8176  0.9852  0.0080
  899MOL0     C21290   0.971   9.747   7.911  0.4267  0.0494 -1.3402
  899MOL0     C21291   0.931   9.847   7.806 -0.6455 -0.7603  0.5753
  899MOL0     C21292   0.849   9.791   7.697 -0.2636 -0.2184  0.5895
  899MOL0     C21293   0.733   9.714   7.758  0.9977 -0.3006  0.0983
  899MOL0     C21294   0.635   9.661   7.815 -0.6622 -1.2562  0.0400
  899MOL0     C21295   1.402   9.710   8.103 -0.0105 -0.3618  0.0541
  899MOL0     C21296   1.511   9.761   8.175 -0.0776 -0.4300 -0.8015
  899MOL0     C21297   1.640   9.686   8.178  0.4835  0.3456 -0.2542
  899MOL0     H21298   1.878   9.972   8.334  1.9245  2.1927 -0.9624
  899MOL0     H21299   2.056  10.122   8.426 -0.2558  1.3529 -4.7020
  899MOL0     H21300   2.173  10.269   8.662  0.0654  0.1027 -0.2490
  899MOL0     H21301   2.208  10.300   8.494  1.1596 -2.5077  2.1497
  899MOL0     H21302   2.319  10.470   8.604  0.0674 -0.8309 -2.0644
  899MOL0     H21303   2.197  10.512   8.723  0.3389 -0.4573 -0.6144
  899MOL0     H21304   2.060  10.627   8.564  0.2376 -0.6687  0.0491
  899MOL0     H21305   2.148  10.568   8.424  0.1982 -1.3026  0.1248
  899MOL0     H21306   2.304  10.744   8.613 -0.3418 -0.0609  0.7781
  899MOL0     H21307   2.350  10.667   8.468  0.1348  0.6472  1.4438
  899MOL0     H21308   2.194  10.770   8.331  2.5717  2.5950 -1.4373
  899MOL0     H21309   2.105  10.842   8.453  0.2230 -2.1041  2.4102
  899MOL0     H21310   2.283  11.010   8.511  0.3691  1.1105 -0.8790
  899MOL0     H21311   2.390  10.930   8.411 -0.8523 -2.0412  1.7654
  899MOL0     H21312   2.131  11.079   8.339  1.6681  3.0063  1.9913
  899MOL0     H21313   2.235  10.992   8.220  3.0598  1.0557 -0.6800
  899MOL0     H21314   2.346  11.206   8.410 -0.8596  1.4142  1.0828
  899MOL0     H21315   2.417  11.133   8.260 -0.5815  1.6655 -0.4665
  899MOL0     H21316   2.177  11.388   8.410  3.9454  1.4354  0.0443
  899MOL0     H21317   1.925  11.529   8.240  0.7680 -0.9087  0.1103
  899MOL0     H21318   2.051  11.592   8.329 -0.7979  1.0525 -0.5530
  899MOL0     H21319   2.121  11.739   8.146  1.4023 -1.1964  1.0838
  899MOL0     H21320   2.027  11.651   8.022  1.8384  0.2786  0.1153
  899MOL0     H21321   1.882  11.808   8.247 -1.3038 -1.4250  0.3525
  899MOL0     H21322   1.813  11.711   8.122 -1.3996  0.9023  2.4289
  899MOL0     H21323   1.962  11.888   7.962 -0.2228 -1.0907  0.1899
  899MOL0     H21324   1.939  11.981   8.104  3.4976  0.3414 -0.6301
  899MOL0     H21325   1.528  11.958   7.982  1.7825 -0.0676  1.0016
  899MOL0     H21326   1.397  11.904   7.764  0.2964  1.1243 -0.9376
  899MOL0     H21327   1.526  11.739   7.221 -0.6941  0.4664  0.5973
  899MOL0     H21328   1.367  11.629   7.063 -0.3310  0.9373  0.3645
  899MOL0     H21329   1.079  11.404   6.974 -0.1416 -0.6071  1.0507
  899MOL0     H21330   1.166  11.554   6.992 -0.8999  0.3228  0.8725
  899MOL0     H21331   1.377  11.378   6.924  1.4877  2.2140 -0.3081
  899MOL0     H21332   1.237  11.293   6.857  1.3622  1.1478 -2.7190
  899MOL0     H21333   1.189  11.496   6.713  2.3671  0.1846 -3.6032
  899MOL0     H21334   1.309  11.589   6.800  3.0875 -1.7512 -0.0369
  899MOL0     H21335   1.359  11.505   6.569  0.4254  2.1181  0.6181
  899MOL0     H21336   1.397  11.344   6.640  0.2237 -0.2802  0.7227
  899MOL0     H21337   1.541  11.449   6.805 -1.1497 -1.2018 -0.1835
  899MOL0     H21338   1.514  11.604   6.722 -0.9839  0.6037 -0.9178
  899MOL0     H21339   1.619  11.353   6.569 -1.7032  0.3117 -0.5750
  899MOL0     H21340   1.609  11.514   6.514 -1.0547 -1.9969 -0.8964
  899MOL0     H21341   1.829  11.413   6.602  0.0598  0.9657 -1.1130
  899MOL0     H21342   1.783  11.478   6.763  4.5129  3.0938  0.3378
  899MOL0     H21343   1.808  11.646   6.524  0.3533 -3.4168 -0.5193
  899MOL0     H21344   1.749  11.704   6.684 -0.8903  2.4544 -3.5424
  899MOL0     H21345   1.289  11.327   7.358  1.1855 -0.8717  0.0777
  899MOL0     H21346   1.460  11.452   7.518  2.1507  1.3281  0.1218
  899MOL0     H21347   1.734  11.664   7.646  1.4082 -0.4706  1.0252
  899MOL0     H21348   1.851  11.722   7.825 -0.4865  0.2471 -2.9579
  899MOL0     H21349   1.763  10.410   8.546  0.0370 -0.5403  0.3621
  899MOL0     H21350   1.593  10.287   8.417  0.0720 -0.8333 -0.5788
  899MOL0     H21351   1.321  10.039   8.294 -2.3278 -1.3050 -0.6571
  899MOL0     H21352   1.165   9.935   8.197 -0.0393 -0.8545  1.1020
  899MOL0     H21353   1.065   9.909   8.016 -1.8002  1.3410  2.9154
  899MOL0     H21354   1.001   9.783   8.117  0.0131 -0.0062  0.2956
  899MOL0     H21355   0.884   9.696   7.954  0.6037 -1.6039 -2.7969
  899MOL0     H21356   1.031   9.669   7.863 -0.2987 -0.1581 -1.9367
  899MOL0     H21357   1.023   9.892   7.765 -0.7538 -0.2741  0.8528
  899MOL0     H21358   0.876   9.933   7.847  1.0325  0.7509 -0.1670
  899MOL0     H21359   0.796   9.863   7.633 -1.7480  0.6138  2.6535
  899MOL0     H21360   0.904   9.717   7.637 -0.3062 -1.5283  2.1139
  899MOL0     H21361   0.544   9.618   7.853 -1.5137 -0.2638 -0.7809
  899MOL0     H21362   1.412   9.613   8.054  1.8573 -1.8834  3.1234
  899MOL0     H21363   1.634   9.635   8.275  4.4411  0.9041  0.4321
  899MOL0     H21364   1.648   9.612   8.097  1.9743 -1.0283  1.0868
  899MOL0     H21365   1.732   9.745   8.176  3.1774 -3.4850 -1.5457
  900MOL0     O21366   5.010   3.352   0.777 -0.0144  0.6465  1.0207
  900MOL0     C21367   4.905   3.319   0.838  0.5134 -0.9139  0.6560
  900MOL0     O21368   4.900   3.248   0.955  0.2927  1.0666  0.1958
  900MOL0     C21369   5.015   3.201   1.008  0.0315  0.8234  1.1508
  900MOL0     C21370   5.050   3.229   1.142 -0.3602  0.3675  0.4234
  900MOL0     C21371   5.164   3.181   1.202  0.0311  0.0684  0.0341
  900MOL0     C21372   5.237   3.078   1.140 -0.4336 -0.8145 -0.2612
  900MOL0     O21373   5.349   3.023   1.204  0.3320  0.9145 -0.0571
  900MOL0     C21374   5.341   2.878   1.227  0.2034 -0.0303  1.6381
  900MOL0     C21375   5.220   2.850   1.319  0.4261 -0.6766 -0.1968
  900MOL0     C21376   5.257   2.881   1.463  0.0100 -1.4828 -0.6570
  900MOL0     C21377   5.128   2.896   1.550 -0.9840 -0.1081  0.0816
  900MOL0     C21378   5.101   2.770   1.633  0.6512  0.6193 -0.1560
  900MOL0     C21379   5.104   2.633   1.576  0.4450  0.4028  0.5183
  900MOL0     C21380   4.966   2.588   1.525  0.1802 -0.0388 -0.2258
  900MOL0     C21381   4.917   2.663   1.396 -0.0439 -1.0144 -0.9746
  900MOL0     N21382   4.788   2.613   1.357  0.3509  0.3498  1.3011
  900MOL0     C21383   4.670   2.658   1.412  0.2063  0.3386  0.4874
  900MOL0     C21384   4.579   2.570   1.363  0.1801 -0.2162  0.4891
  900MOL0     C21385   4.426   2.556   1.396 -0.0690 -0.0412 -0.0619
  900MOL0     C21386   4.387   2.403   1.399 -0.0982 -0.9087  0.2420
  900MOL0     C21387   4.237   2.383   1.449  0.0227 -0.0683  0.0147
  900MOL0     C21388   4.141   2.388   1.334  0.3268 -0.3806 -0.7016
  900MOL0     O21389   4.013   2.346   1.380 -0.4632 -0.2987  0.2298
  900MOL0     C21390   3.928   2.433   1.438  1.5310  1.3437 -0.0066
  900MOL0     C21391   3.949   2.562   1.475 -0.3326  0.5823 -0.1886
  900MOL0     C21392   3.848   2.643   1.526  0.2869  0.3954 -0.4137
  900MOL0     C21393   3.722   2.594   1.557 -0.0676  0.2465  0.9753
  900MOL0     C21394   3.614   2.670   1.621 -0.1125  0.3065  0.5346
  900MOL0     O21395   3.517   2.601   1.685  0.2245 -0.5761  0.1392
  900MOL0     C21396   3.435   2.680   1.752  0.4523 -0.2869  0.2884
  900MOL0     C21397   3.456   2.700   1.887  0.2571 -0.5648  0.5746
  900MOL0     C21398   3.363   2.782   1.966 -0.7491 -0.7181 -0.1207
  900MOL0     C21399   3.246   2.829   1.911 -0.0651  0.5795  0.1134
  900MOL0     O21400   3.149   2.885   1.994 -0.5625  0.2983  0.2352
  900MOL0     C21401   3.044   2.970   1.946 -0.4541 -0.0854  0.5400
  900MOL0     C21402   2.917   2.918   1.886  1.0420  0.5441  0.1328
  900MOL0     C21403   2.809   2.881   1.997  0.8372  0.1148 -0.0518
  900MOL0     C21404   2.688   2.858   1.910  0.1572 -0.0394  0.5623
  900MOL0     C21405   2.579   2.806   2.000  0.4533 -0.2955 -0.7374
  900MOL0     C21406   2.436   2.791   1.943  0.0062 -0.8771  0.2122
  900MOL0     C21407   2.371   2.930   1.890 -0.8976  0.2588 -1.2056
  900MOL0     C21408   2.220   2.923   1.847  0.0755  0.7047  0.3850
  900MOL0    Cl21409   2.104   2.892   1.974  0.2508  0.4270 -0.0857
  900MOL0     C21410   3.224   2.804   1.772  0.0773  0.0925  0.1389
  900MOL0     C21411   3.323   2.731   1.693  0.4394 -0.0784 -0.4224
  900MOL0     O21412   3.624   2.793   1.615 -0.0223  0.2567  0.3819
  900MOL0     C21413   3.700   2.455   1.521  0.2416  0.8073  0.5262
  900MOL0     C21414   3.801   2.373   1.459  0.3912 -0.6209  0.0729
  900MOL0     N21415   4.646   2.468   1.294 -0.1126  0.3748  0.3217
  900MOL0     N21416   4.769   2.500   1.288 -0.1928  0.2352 -0.1875
  900MOL0     C21417   5.201   3.053   1.003 -0.4646  0.3729  0.7188
  900MOL0     C21418   5.100   3.112   0.935 -0.5873  0.5307  0.1045
  900MOL0     C21419   4.784   3.385   0.797  1.0748 -0.3306  0.4912
  900MOL0     C21420   4.662   3.335   0.846 -0.3773 -0.1533 -0.2918
  900MOL0     C21421   4.543   3.378   0.790  0.1374  0.5952  0.0875
  900MOL0     C21422   4.538   3.469   0.687  0.1078 -1.1174  1.1285
  900MOL0     O21423   4.407   3.511   0.654 -0.2259 -0.3187  0.0166
  900MOL0     C21424   4.364   3.550   0.522  0.7062 -0.4510 -0.4002
  900MOL0     C21425   4.320   3.695   0.517 -0.2716  0.4650 -0.6026
  900MOL0     C21426   4.430   3.805   0.525  0.8447 -0.1168  0.3977
  900MOL0     C21427   4.367   3.951   0.544 -0.6943 -0.3691  0.1820
  900MOL0     C21428   4.284   4.000   0.442 -0.3318 -0.1328 -0.5914
  900MOL0     C21429   4.198   4.011   0.353  0.0403 -0.3803  0.1812
  900MOL0     C21430   4.652   3.527   0.640  0.2465 -0.0488  0.2267
  900MOL0     C21431   4.768   3.488   0.699  0.7398 -0.3527  0.0152
  900MOL0     C21432   4.883   3.569   0.645  0.3925  0.2994  0.1284
  900MOL0     H21433   4.986   3.298   1.196  2.4774  3.8995 -0.3898
  900MOL0     H21434   5.188   3.194   1.307  1.1020 -3.5486  0.3956
  900MOL0     H21435   5.324   2.845   1.125  1.5048  0.8562  1.1097
  900MOL0     H21436   5.436   2.837   1.262  2.1722  3.5487  0.9520
  900MOL0     H21437   5.194   2.744   1.313  0.5286 -0.9721  2.8790
  900MOL0     H21438   5.131   2.901   1.283  0.0670 -0.9992  0.2285
  900MOL0     H21439   5.291   2.985   1.451 -0.9626 -1.1404 -0.4932
  900MOL0     H21440   5.336   2.815   1.500 -2.4118 -3.9777  0.3347
  900MOL0     H21441   5.142   2.986   1.611 -1.5632 -0.2893  0.4847
  900MOL0     H21442   5.045   2.922   1.484  1.4044  0.2567 -3.0266
  900MOL0     H21443   5.176   2.774   1.712  2.8301 -1.7533 -1.9195
  900MOL0     H21444   5.000   2.779   1.675  1.0175  0.5978  0.7405
  900MOL0     H21445   5.171   2.627   1.489 -2.3113  2.2981 -1.9367
  900MOL0     H21446   5.146   2.561   1.646  1.4640 -0.6060 -1.0680
  900MOL0     H21447   4.889   2.591   1.603  1.4973 -0.8758  1.1812
  900MOL0     H21448   4.961   2.484   1.491 -0.2968  1.1862 -4.3350
  900MOL0     H21449   4.910   2.770   1.417  2.8469 -0.4640 -2.3526
  900MOL0     H21450   4.996   2.653   1.321  2.0972 -2.1179  1.2807
  900MOL0     H21451   4.652   2.741   1.480 -0.9782  0.0419  0.5621
  900MOL0     H21452   4.411   2.601   1.495  0.1373 -0.1862  0.0371
  900MOL0     H21453   4.370   2.614   1.322 -1.0861  0.3505  0.9846
  900MOL0     H21454   4.406   2.369   1.296  4.3907 -0.8806  0.8875
  900MOL0     H21455   4.463   2.348   1.455  0.7949 -0.2247 -0.2731
  900MOL0     H21456   4.212   2.468   1.513  1.0091  1.3437 -1.4269
  900MOL0     H21457   4.229   2.294   1.513 -1.0447  2.0460  3.0956
  900MOL0     H21458   4.166   2.319   1.253 -2.4816 -0.4388 -1.6087
  900MOL0     H21459   4.148   2.490   1.297  1.4478 -0.2363 -0.1474
  900MOL0     H21460   4.044   2.612   1.461 -1.1231  2.1270 -0.3132
  900MOL0     H21461   3.876   2.742   1.560  0.1492  0.7077 -1.1919
  900MOL0     H21462   3.542   2.660   1.939  1.6212  1.7004  0.2167
  900MOL0     H21463   3.393   2.783   2.070 -0.0190  1.8908 -0.2699
  900MOL0     H21464   3.012   3.018   2.039 -1.2840  0.1462  0.1316
  900MOL0     H21465   3.095   3.045   1.885  0.5085  0.7485  2.2807
  900MOL0     H21466   2.879   2.999   1.823 -0.8508 -0.1083  0.3784
  900MOL0     H21467   2.939   2.838   1.814 -0.2906  1.2522 -1.1203
  900MOL0     H21468   2.845   2.797   2.057  0.8810 -1.3268 -1.9889
  900MOL0     H21469   2.799   2.970   2.059 -0.4437  0.0819 -0.2029
  900MOL0     H21470   2.714   2.792   1.827  0.8218 -0.9017  1.4338
  900MOL0     H21471   2.662   2.953   1.864  0.9945 -0.1504 -0.1736
  900MOL0     H21472   2.576   2.865   2.092  0.7783 -1.0145 -0.2605
  900MOL0     H21473   2.615   2.707   2.026  0.2540  0.0562  0.9636
  900MOL0     H21474   2.445   2.730   1.852 -0.9491  2.8987 -2.6487
  900MOL0     H21475   2.368   2.740   2.013 -0.6482 -0.7724 -0.3356
  900MOL0     H21476   2.428   2.972   1.806  0.8445  0.1930 -0.1066
  900MOL0     H21477   2.377   3.003   1.971 -1.9900  2.1544 -2.7229
  900MOL0     H21478   2.195   3.027   1.825  2.0992  0.9854 -0.7975
  900MOL0     H21479   2.202   2.855   1.763 -2.5166  1.4116  0.2717
  900MOL0     H21480   3.140   2.852   1.723 -1.3716  0.0953  2.4483
  900MOL0     H21481   3.308   2.721   1.586  0.8714 -3.4129 -0.2672
  900MOL0     H21482   3.604   2.409   1.538 -0.3442  1.4121 -0.9416
  900MOL0     H21483   3.784   2.271   1.425  0.1633 -0.0503 -1.6214
  900MOL0     H21484   5.269   2.995   0.941 -0.3776  2.5486 -1.3419
  900MOL0     H21485   5.074   3.098   0.831  0.9200  1.8681 -0.4934
  900MOL0     H21486   4.661   3.275   0.937 -0.7597  1.6827  0.9704
  900MOL0     H21487   4.447   3.334   0.817  0.0643  0.9987  0.5037
  900MOL0     H21488   4.285   3.480   0.492  1.7064 -3.1530  2.6765
  900MOL0     H21489   4.444   3.538   0.448 -0.1722  3.6524 -2.2795
  900MOL0     H21490   4.254   3.709   0.604  2.4461 -0.6329  1.7847
  900MOL0     H21491   4.260   3.716   0.428 -0.1520  0.4388 -0.6883
  900MOL0     H21492   4.488   3.794   0.433 -1.0378 -0.1581 -0.8329
  900MOL0     H21493   4.493   3.780   0.611  0.8771 -1.2089  0.0736
  900MOL0     H21494   4.311   3.961   0.637  1.4952 -0.2734  1.5703
  900MOL0     H21495   4.460   4.008   0.548  0.2000 -1.6349 -1.3828
  900MOL0     H21496   4.127   4.041   0.278 -0.3876  1.5843  1.3119
  900MOL0     H21497   4.651   3.608   0.567  1.7785  0.8695  1.1695
  900MOL0     H21498   4.926   3.519   0.558 -0.9773 -2.3436  0.8656
  900MOL0     H21499   4.852   3.669   0.613 -3.6064 -1.2178 -1.3997
  900MOL0     H21500   4.963   3.567   0.720 -0.7884 -1.2225  1.3943
  901MOL0     O21501   6.804   6.034   3.397 -0.5478 -0.7233  0.2792
  901MOL0     C21502   6.884   6.128   3.361  0.0978 -1.2454  0.2148
  901MOL0     O21503   6.851   6.262   3.355 -0.1424  0.2438  0.0106
  901MOL0     C21504   6.751   6.322   3.437 -0.1030  0.2501 -0.3703
  901MOL0     C21505   6.785   6.408   3.544  0.2020  1.2367 -0.1430
  901MOL0     C21506   6.687   6.464   3.625 -0.9277 -0.1958 -0.3233
  901MOL0     C21507   6.555   6.436   3.600  0.5193  0.2309 -1.0359
  901MOL0     O21508   6.450   6.506   3.661  0.5337 -0.1684 -0.1977
  901MOL0     C21509   6.460   6.506   3.806 -0.2400 -0.5631  0.2915
  901MOL0     C21510   6.317   6.460   3.851  0.6224 -0.4575 -0.1953
  901MOL0     C21511   6.299   6.302   3.846  0.3145  0.4549  0.0069
  901MOL0     C21512   6.146   6.280   3.814  0.1734 -0.2453  0.0261
  901MOL0     C21513   6.105   6.134   3.817  0.4037 -0.6066 -0.3325
  901MOL0     C21514   5.952   6.143   3.795 -0.3359  0.5527 -0.5189
  901MOL0     C21515   5.883   6.019   3.836  0.3530 -0.0650  0.0595
  901MOL0     C21516   5.882   5.899   3.744 -0.0415  0.1376  0.3895
  901MOL0     N21517   5.787   5.797   3.799 -0.1156 -0.6196  0.0758
  901MOL0     C21518   5.817   5.671   3.867 -0.2866 -0.4585  0.2904
  901MOL0     C21519   5.699   5.604   3.888 -0.6228  0.0435  0.8172
  901MOL0     C21520   5.686   5.467   3.932 -1.0633  0.3737 -0.3596
  901MOL0     C21521   5.783   5.416   4.035 -0.6309  0.1272 -0.2142
  901MOL0     C21522   5.796   5.259   4.030  0.2715  0.5330  0.0010
  901MOL0     C21523   5.672   5.190   4.066  0.3648 -0.6249  0.5120
  901MOL0     O21524   5.628   5.259   4.183  0.4717  0.4806 -0.2774
  901MOL0     C21525   5.511   5.214   4.232  0.1684 -0.4010 -0.1025
  901MOL0     C21526   5.420   5.124   4.167 -0.3149 -0.0764  0.1938
  901MOL0     C21527   5.290   5.109   4.211  0.1237 -0.5576 -0.0964
  901MOL0     C21528   5.241   5.177   4.329  0.0004  0.8056 -0.3946
  901MOL0     C21529   5.104   5.157   4.367 -0.0721  0.5579 -0.1920
  901MOL0     O21530   5.018   5.091   4.282  0.4255  0.2569 -0.9678
  901MOL0     C21531   4.901   5.048   4.336 -0.3082  0.2533 -0.5431
  901MOL0     C21532   4.866   4.920   4.313 -0.4416  0.6986  1.0378
  901MOL0     C21533   4.739   4.871   4.348 -0.1591  0.1329 -0.2279
  901MOL0     C21534   4.649   4.950   4.422  0.2024  1.1844 -0.8045
  901MOL0     O21535   4.520   4.907   4.420 -0.1602 -0.1522 -0.5801
  901MOL0     C21536   4.453   4.904   4.546 -0.1113 -0.5601  0.5816
  901MOL0     C21537   4.314   4.840   4.540 -0.0059  0.3736  0.1811
  901MOL0     C21538   4.210   4.933   4.484  0.4874 -0.3071 -0.2124
  901MOL0     C21539   4.069   4.884   4.502 -0.2031  0.3462  0.3473
  901MOL0     C21540   4.001   4.840   4.377  1.1409 -0.7165  0.2193
  901MOL0     C21541   4.049   4.704   4.318  0.1749 -0.2906 -0.4192
  901MOL0     C21542   4.011   4.584   4.403 -0.9625  0.8851  0.2424
  901MOL0     C21543   4.111   4.461   4.382 -0.9501  0.1058 -0.1103
  901MOL0    Cl21544   4.027   4.317   4.430 -0.3668  0.0325 -0.1801
  901MOL0     C21545   4.689   5.085   4.433  0.4198  0.0451 -0.4498
  901MOL0     C21546   4.805   5.137   4.382  0.3599  0.5563  0.1167
  901MOL0     O21547   5.076   5.201   4.474  0.0705 -0.3512  0.4900
  901MOL0     C21548   5.334   5.255   4.393 -0.2571  0.1998  0.4957
  901MOL0     C21549   5.467   5.269   4.349 -0.0998 -0.3047 -0.8318
  901MOL0     N21550   5.597   5.692   3.837  0.2530 -0.0093  0.1985
  901MOL0     N21551   5.648   5.798   3.790 -0.4985 -0.0162 -0.6252
  901MOL0     C21552   6.516   6.342   3.513 -0.0743  0.3902  0.3630
  901MOL0     C21553   6.615   6.285   3.428 -0.3350  0.2422  0.2740
  901MOL0     C21554   7.000   6.092   3.263  0.5824  0.5913  0.3352
  901MOL0     C21555   7.023   5.955   3.243 -0.1455 -0.1065 -0.0197
  901MOL0     C21556   7.130   5.902   3.163 -0.3202 -0.2731 -0.1258
  901MOL0     C21557   7.212   5.990   3.091 -0.2174 -0.5189 -0.3190
  901MOL0     O21558   7.310   5.941   3.006  0.1404  0.7710  0.4954
  901MOL0     C21559   7.395   6.037   2.937  0.8902 -0.0365  0.1502
  901MOL0     C21560   7.483   5.963   2.840  0.3164 -0.0118  0.1654
  901MOL0     C21561   7.583   6.055   2.791 -0.7169  0.1731  0.2756
  901MOL0     C21562   7.711   5.988   2.737 -0.0673 -0.2656  0.0205
  901MOL0     C21563   7.798   5.951   2.854  0.9651  0.2316 -0.7215
  901MOL0     C21564   7.861   5.891   2.937 -0.6748  0.0395  0.5287
  901MOL0     C21565   7.183   6.124   3.110  0.9291 -1.0326 -0.3911
  901MOL0     C21566   7.087   6.176   3.198  0.5784 -0.4375  1.1910
  901MOL0     C21567   7.075   6.325   3.199  0.5322  0.9096  0.3156
  901MOL0     H21568   6.890   6.433   3.559  0.5745 -0.8456  1.0693
  901MOL0     H21569   6.729   6.542   3.689 -2.5693  0.2916  0.2010
  901MOL0     H21570   6.536   6.436   3.843  1.1074  0.9501  0.4797
  901MOL0     H21571   6.468   6.609   3.840  0.1740 -0.8781  1.1719
  901MOL0     H21572   6.242   6.503   3.783 -0.8643  0.3663  1.8677
  901MOL0     H21573   6.286   6.509   3.943  2.4799 -2.0875  1.3721
  901MOL0     H21574   6.334   6.268   3.944 -0.2623 -0.1885 -0.0099
  901MOL0     H21575   6.359   6.256   3.767 -0.2460  0.2427 -0.3010
  901MOL0     H21576   6.092   6.334   3.892 -1.1657  1.5668 -2.0727
  901MOL0     H21577   6.123   6.322   3.716 -0.9716  1.4787  0.9845
  901MOL0     H21578   6.157   6.087   3.733  2.3929  3.6689 -1.7991
  901MOL0     H21579   6.140   6.090   3.911 -0.7190  1.0883  0.9562
  901MOL0     H21580   5.904   6.220   3.856  2.3533  1.7391  0.2489
  901MOL0     H21581   5.926   6.167   3.691 -0.8081 -0.5178 -0.6583
  901MOL0     H21582   5.778   6.049   3.830  0.6326  0.8834 -0.2244
  901MOL0     H21583   5.902   5.986   3.938  0.6108 -1.1646 -0.3340
  901MOL0     H21584   5.858   5.932   3.643  3.0635 -0.5700 -0.7156
  901MOL0     H21585   5.979   5.848   3.738  0.1734  0.7044 -2.5757
  901MOL0     H21586   5.918   5.635   3.885 -0.1440  0.4412  1.3833
  901MOL0     H21587   5.583   5.452   3.965 -0.5314 -0.3414  1.0620
  901MOL0     H21588   5.693   5.415   3.837 -3.6603 -1.6925  0.4664
  901MOL0     H21589   5.886   5.448   4.017 -0.4272 -1.5962 -2.7735
  901MOL0     H21590   5.771   5.458   4.135 -1.1612 -2.6985  1.0324
  901MOL0     H21591   5.874   5.230   4.101  2.6570  4.8749 -0.5126
  901MOL0     H21592   5.840   5.232   3.934  0.1495 -2.1814  0.6021
  901MOL0     H21593   5.688   5.082   4.069 -0.6673 -0.8002  0.1001
  901MOL0     H21594   5.610   5.208   3.978  2.7315 -1.5037 -1.4431
  901MOL0     H21595   5.451   5.077   4.075  0.4465 -2.0665  1.4166
  901MOL0     H21596   5.217   5.053   4.155 -0.7783  0.0455  0.4553
  901MOL0     H21597   4.938   4.856   4.264 -1.0585  1.3429 -0.7864
  901MOL0     H21598   4.710   4.774   4.309 -2.7734  1.2390 -1.2942
  901MOL0     H21599   4.517   4.843   4.612  2.0162 -1.3227 -2.0270
  901MOL0     H21600   4.455   4.996   4.605 -4.1724 -0.3608  0.6992
  901MOL0     H21601   4.330   4.752   4.476  0.9661  0.9375 -0.3631
  901MOL0     H21602   4.291   4.803   4.640 -2.8491 -3.4019 -1.5845
  901MOL0     H21603   4.216   5.034   4.527  0.6232  0.2798 -1.5706
  901MOL0     H21604   4.234   4.948   4.379  2.3424  0.7884  0.3148
  901MOL0     H21605   4.014   4.960   4.557  1.1416  0.9139  0.9345
  901MOL0     H21606   4.059   4.794   4.564 -1.3990 -2.0351 -2.9652
  901MOL0     H21607   4.023   4.916   4.301  2.5164 -2.5395 -1.2881
  901MOL0     H21608   3.893   4.841   4.391  1.0530  1.9117 -0.1374
  901MOL0     H21609   4.002   4.699   4.219 -1.8965  0.3170  0.4775
  901MOL0     H21610   4.155   4.708   4.291 -0.1675 -0.2135 -1.8316
  901MOL0     H21611   3.914   4.556   4.360  1.0489 -2.0322 -2.8832
  901MOL0     H21612   4.007   4.598   4.511  0.6358 -1.0593  0.6209
  901MOL0     H21613   4.135   4.447   4.276 -2.2303 -2.7117 -0.1148
  901MOL0     H21614   4.199   4.483   4.443  0.0814 -0.4337 -1.3543
  901MOL0     H21615   4.604   5.148   4.456  0.4377 -0.0480 -0.1338
  901MOL0     H21616   4.827   5.243   4.396 -0.7062  0.7907  0.0965
  901MOL0     H21617   5.311   5.316   4.479  0.7016 -0.5706  1.3265
  901MOL0     H21618   5.522   5.336   4.414 -1.9227  0.1626  0.2952
  901MOL0     H21619   6.413   6.308   3.515  0.3159 -0.9369 -0.6198
  901MOL0     H21620   6.567   6.208   3.370 -3.5485 -0.0270  3.0116
  901MOL0     H21621   6.952   5.885   3.286 -1.1148 -0.4603 -2.1032
  901MOL0     H21622   7.147   5.795   3.160  0.8221 -0.0708 -1.7102
  901MOL0     H21623   7.444   6.108   3.004  3.1933 -0.5124 -0.9141
  901MOL0     H21624   7.326   6.085   2.866 -1.2879 -1.7301  0.9967
  901MOL0     H21625   7.433   5.917   2.754  1.9683 -1.2974 -0.1597
  901MOL0     H21626   7.525   5.876   2.892  0.6102 -0.6273 -1.0777
  901MOL0     H21627   7.613   6.124   2.870  0.0044  0.5956 -0.3625
  901MOL0     H21628   7.530   6.108   2.712 -1.4161  1.8695  1.8070
  901MOL0     H21629   7.688   5.908   2.666  0.5763  0.7015 -1.3198
  901MOL0     H21630   7.769   6.056   2.673 -1.0293 -0.1028 -0.6962
  901MOL0     H21631   7.930   5.872   3.016  0.4781  2.2772  0.1465
  901MOL0     H21632   7.234   6.192   3.044 -0.8928 -0.2179 -1.0203
  901MOL0     H21633   6.978   6.355   3.157  0.7154 -0.0967 -0.8927
  901MOL0     H21634   7.106   6.368   3.295  0.1031  4.8074 -1.1273
  901MOL0     H21635   7.147   6.376   3.134  0.5086  2.8844  1.7464
  902MOL0     O21636   1.043   6.736  10.754  0.1549 -0.0804 -0.1775
  902MOL0     C21637   1.009   6.761  10.643 -0.1401 -0.0856 -0.5075
  902MOL0     O21638   1.088   6.752  10.534  0.1828  0.0788  0.2488
  902MOL0     C21639   1.171   6.647  10.522  0.3513  0.0835 -0.6537
  902MOL0     C21640   1.135   6.514  10.555 -0.3779  0.6018 -0.9790
  902MOL0     C21641   1.240   6.427  10.545  0.5346  0.9028 -0.2852
  902MOL0     C21642   1.365   6.450  10.502  1.2577  0.1368 -0.3713
  902MOL0     O21643   1.455   6.347  10.490  0.2406  0.2114 -0.5792
  902MOL0     C21644   1.553   6.347  10.383 -0.3077 -0.3719 -0.0253
  902MOL0     C21645   1.692   6.372  10.446 -0.2909  0.2577  0.6524
  902MOL0     C21646   1.809   6.389  10.350 -0.4400  0.2656 -0.0323
  902MOL0     C21647   1.938   6.431  10.413  0.4822 -0.1978  0.0268
  902MOL0     C21648   2.037   6.503  10.324 -0.3415 -0.2166 -0.4464
  902MOL0     C21649   1.993   6.641  10.278 -0.3505  0.4037 -0.8771
  902MOL0     C21650   2.117   6.717  10.218  0.0592  0.2046 -0.3837
  902MOL0     C21651   2.078   6.811  10.099 -0.7142 -1.0358  0.3666
  902MOL0     N21652   2.107   6.760   9.960 -0.2653  0.0859 -0.4878
  902MOL0     C21653   2.090   6.843   9.849 -0.3224  0.9437 -0.0431
  902MOL0     C21654   2.063   6.758   9.745 -0.2745 -0.2411  0.2866
  902MOL0     C21655   2.013   6.799   9.604 -0.4767 -0.2036 -0.4463
  902MOL0     C21656   1.862   6.764   9.590  0.7422 -0.1336  0.9954
  902MOL0     C21657   1.813   6.854   9.474 -0.5929 -0.9007 -0.3677
  902MOL0     C21658   1.861   6.826   9.342  0.2322  0.1066 -0.3817
  902MOL0     O21659   1.808   6.927   9.251 -0.7149 -1.0539 -0.2247
  902MOL0     C21660   1.911   6.992   9.187 -0.3638  0.2596 -0.2610
  902MOL0     C21661   1.992   7.086   9.255 -0.2283 -0.7294 -0.2615
  902MOL0     C21662   2.104   7.130   9.184 -0.7055  0.2786 -0.2248
  902MOL0     C21663   2.137   7.083   9.054  0.1315 -0.0006 -0.8738
  902MOL0     C21664   2.267   7.120   8.992  0.2961 -0.1490  0.3409
  902MOL0     O21665   2.363   7.159   9.072 -0.3348 -0.5439  0.2046
  902MOL0     C21666   2.478   7.224   9.017 -0.6002 -0.6369 -0.2205
  902MOL0     C21667   2.602   7.206   9.082  1.0498  0.4962  0.5623
  902MOL0     C21668   2.717   7.260   9.038 -0.7613 -0.0653  0.5215
  902MOL0     C21669   2.723   7.348   8.929 -0.5345  0.6482  0.0771
  902MOL0     O21670   2.837   7.422   8.921  0.7746 -0.3201 -0.5909
  902MOL0     C21671   2.847   7.518   8.809  0.1867 -0.0356 -0.3673
  902MOL0     C21672   2.977   7.596   8.831  0.7660 -1.0153 -0.8914
  902MOL0     C21673   3.100   7.513   8.824  0.7892  0.4398 -0.2440
  902MOL0     C21674   3.231   7.581   8.803  0.1254  0.1708  0.0296
  902MOL0     C21675   3.264   7.606   8.646  0.1077  0.1143 -1.4098
  902MOL0     C21676   3.291   7.476   8.572  0.1065  0.2567 -0.2747
  902MOL0     C21677   3.369   7.498   8.441  0.2175 -0.0750 -0.4528
  902MOL0     C21678   3.469   7.386   8.414 -0.0025  0.6287  0.3963
  902MOL0    Cl21679   3.389   7.223   8.397 -0.2129 -0.3345 -0.1205
  902MOL0     C21680   2.601   7.374   8.872 -0.1326  0.4257  0.2723
  902MOL0     C21681   2.481   7.314   8.915 -0.7648 -0.3564  0.4242
  902MOL0     O21682   2.273   7.114   8.870  0.5306 -0.5292  0.0899
  902MOL0     C21683   2.052   7.006   8.985 -0.6581 -0.3434 -0.4543
  902MOL0     C21684   1.945   6.951   9.060  0.0720  0.4530 -0.4663
  902MOL0     N21685   2.074   6.628   9.792 -0.0676  1.0386  0.0475
  902MOL0     N21686   2.095   6.634   9.914  0.1940 -0.1706  0.5627
  902MOL0     C21687   1.396   6.579  10.474 -0.9800  0.1276 -1.1458
  902MOL0     C21688   1.304   6.682  10.496 -0.7562 -0.0813  0.6721
  902MOL0     C21689   0.872   6.824  10.639 -1.0117 -0.4255  0.1287
  902MOL0     C21690   0.776   6.778  10.728 -0.0457  0.4490  0.4133
  902MOL0     C21691   0.655   6.844  10.739  0.0226 -0.3684  0.4456
  902MOL0     C21692   0.611   6.940  10.643  0.3908 -0.1451  0.5615
  902MOL0     O21693   0.490   6.997  10.628  0.7523 -0.1168 -0.3396
  902MOL0     C21694   0.370   6.958  10.704  0.0093 -0.2122 -0.4687
  902MOL0     C21695   0.375   7.026  10.847 -0.7405  0.4958 -0.1864
  902MOL0     C21696   0.402   7.179  10.843 -1.3466 -0.0206  0.5526
  902MOL0     C21697   0.287   7.249  10.769 -0.7911 -1.0959  0.2465
  902MOL0     C21698   0.277   7.393  10.783  0.2739 -0.7726  0.2332
  902MOL0     C21699   0.269   7.511  10.797  0.4876 -0.2207  0.5382
  902MOL0     C21700   0.703   6.977  10.549  0.0800 -0.1477  0.5487
  902MOL0     C21701   0.835   6.934  10.552  0.4182  0.8070  0.2852
  902MOL0     C21702   0.945   6.996  10.466 -0.3274  0.8727  0.3805
  902MOL0     H21703   1.035   6.486  10.585  0.2290  0.3990  1.0235
  902MOL0     H21704   1.208   6.323  10.556 -3.2157  1.9578  0.2986
  902MOL0     H21705   1.547   6.253  10.327  0.2407 -0.8390  0.6815
  902MOL0     H21706   1.535   6.420  10.304  2.0029 -0.4072 -0.6441
  902MOL0     H21707   1.717   6.304  10.528  0.3290 -2.3937 -1.5708
  902MOL0     H21708   1.683   6.465  10.503 -0.2922  0.5740  0.1425
  902MOL0     H21709   1.772   6.465  10.280 -1.8234 -0.4823 -0.1345
  902MOL0     H21710   1.832   6.298  10.294  1.5397  1.1527 -0.7679
  902MOL0     H21711   1.908   6.493  10.497 -1.5238 -0.3698 -0.5135
  902MOL0     H21712   1.987   6.344  10.457 -0.6157  0.2806  2.3555
  902MOL0     H21713   2.129   6.509  10.382 -2.1637  1.1704  2.5300
  902MOL0     H21714   2.051   6.436  10.239  0.0148  1.3713 -1.6810
  902MOL0     H21715   1.915   6.615  10.205 -2.3280  2.3412  0.4293
  902MOL0     H21716   1.938   6.695  10.355 -2.8549 -1.8188 -0.9385
  902MOL0     H21717   2.197   6.649  10.185 -0.5620 -0.9708  0.4329
  902MOL0     H21718   2.171   6.773  10.294 -1.0110 -2.5552  2.6695
  902MOL0     H21719   1.970   6.826  10.107 -0.4592  0.5678  1.4320
  902MOL0     H21720   2.113   6.911  10.127 -2.4306 -1.0044  2.7931
  902MOL0     H21721   2.087   6.951   9.863 -0.5564  0.6810  2.2964
  902MOL0     H21722   2.019   6.908   9.590 -0.1268  0.0478  1.3747
  902MOL0     H21723   2.072   6.748   9.528 -0.9003 -1.4451  0.0294
  902MOL0     H21724   1.845   6.658   9.573  2.2552 -0.1186 -0.9547
  902MOL0     H21725   1.804   6.779   9.681 -2.5066 -1.6674 -0.6467
  902MOL0     H21726   1.838   6.959   9.490 -2.8862 -0.0972 -1.6824
  902MOL0     H21727   1.705   6.837   9.474 -0.5494 -1.1987 -0.0039
  902MOL0     H21728   1.822   6.725   9.324  1.4176 -0.6394  0.9393
  902MOL0     H21729   1.970   6.821   9.334  0.3915  0.4034  1.2833
  902MOL0     H21730   1.976   7.126   9.354  3.2831  1.3322 -0.3771
  902MOL0     H21731   2.158   7.210   9.234  0.4201 -0.7024  0.2000
  902MOL0     H21732   2.618   7.154   9.176  0.4495 -0.0855  0.3553
  902MOL0     H21733   2.808   7.247   9.095  0.1397  1.3282 -0.5280
  902MOL0     H21734   2.857   7.462   8.716  1.5049 -0.7174  0.1565
  902MOL0     H21735   2.757   7.580   8.804 -1.4601 -2.3443 -1.2677
  902MOL0     H21736   2.979   7.669   8.749 -4.0123 -0.0092 -0.4193
  902MOL0     H21737   2.974   7.653   8.924 -0.1056 -2.2675 -0.1157
  902MOL0     H21738   3.094   7.471   8.925  1.3678 -0.4777 -0.5807
  902MOL0     H21739   3.083   7.430   8.755 -1.8264  1.3651 -0.8157
  902MOL0     H21740   3.312   7.518   8.841  0.0893 -0.6338 -1.1655
  902MOL0     H21741   3.235   7.669   8.868 -1.0817 -0.3186  0.7922
  902MOL0     H21742   3.348   7.675   8.631  1.0924 -1.4292 -3.8673
  902MOL0     H21743   3.182   7.660   8.598 -1.7295 -0.1768  1.2178
  902MOL0     H21744   3.337   7.402   8.638 -1.9259  1.0454  2.2376
  902MOL0     H21745   3.191   7.434   8.555  0.8742 -1.5936 -0.4404
  902MOL0     H21746   3.425   7.591   8.448 -0.8609  0.5222  0.6484
  902MOL0     H21747   3.302   7.507   8.355 -0.5532  2.2766  0.3236
  902MOL0     H21748   3.533   7.412   8.329 -1.5343  3.2490 -0.0722
  902MOL0     H21749   3.534   7.394   8.502 -0.9982  1.8956  1.0480
  902MOL0     H21750   2.606   7.432   8.780  3.7905 -1.0238 -0.5745
  902MOL0     H21751   2.395   7.342   8.855  1.8499  0.5680 -3.3013
  902MOL0     H21752   2.074   6.961   8.889  1.4461 -3.3726  1.2819
  902MOL0     H21753   1.893   6.873   9.004  3.0408 -0.6283 -1.8935
  902MOL0     H21754   1.501   6.596  10.457 -0.7017  0.3570  0.5685
  902MOL0     H21755   1.320   6.786  10.469 -1.4683  0.7786  3.2747
  902MOL0     H21756   0.799   6.697  10.796 -0.4501  0.6119  0.7491
  902MOL0     H21757   0.576   6.831  10.812 -0.6878  0.7044 -0.1081
  902MOL0     H21758   0.370   6.850  10.719  2.2690 -0.1638  0.1396
  902MOL0     H21759   0.276   6.987  10.656  0.0198 -0.0064 -0.3667
  902MOL0     H21760   0.451   6.992  10.919 -1.7846  1.4495  1.4450
  902MOL0     H21761   0.274   7.012  10.887 -0.6653  1.7550  0.4965
  902MOL0     H21762   0.494   7.200  10.788 -1.9796  2.4310  0.3030
  902MOL0     H21763   0.414   7.210  10.947  1.0393 -0.0575  0.3558
  902MOL0     H21764   0.291   7.235  10.661 -1.5105  4.6202 -0.8548
  902MOL0     H21765   0.197   7.199  10.805 -0.3548 -1.3656  0.9730
  902MOL0     H21766   0.253   7.616  10.812  1.6732 -0.1960  1.7932
  902MOL0     H21767   0.673   7.051  10.476  3.4153 -1.0230 -1.9637
  902MOL0     H21768   0.976   6.922  10.391  4.4025  3.0320 -0.1882
  902MOL0     H21769   0.902   7.085  10.420 -0.0209  0.4673 -0.7253
  902MOL0     H21770   1.032   7.028  10.525  1.6346 -0.0364 -1.8600
  903MOL0     O21771   6.524   1.447  10.629  0.0839 -0.1114 -0.7898
  903MOL0     C21772   6.617   1.367  10.647  0.2493  0.8117 -0.2864
  903MOL0     O21773   6.599   1.229  10.653 -0.6973 -0.4705 -0.5107
  903MOL0     C21774   6.471   1.177  10.647  0.6423 -0.6443  0.0209
  903MOL0     C21775   6.408   1.150  10.526  0.5833 -0.2310  0.5311
  903MOL0     C21776   6.277   1.107  10.531  0.2389 -0.9927  0.5977
  903MOL0     C21777   6.201   1.099  10.656  0.8785  1.4352  0.1603
  903MOL0     O21778   6.074   1.048  10.637  0.5447  1.1031  0.0784
  903MOL0     C21779   5.972   1.061  10.748 -0.0241  0.3231  0.2834
  903MOL0     C21780   5.846   0.975  10.730  0.3465  0.0527  1.2429
  903MOL0     C21781   5.737   1.054  10.647  0.2817  0.0811 -0.1592
  903MOL0     C21782   5.606   0.974  10.640 -0.6796  0.6170  0.4765
  903MOL0     C21783   5.483   1.033  10.568  0.5759  1.1942 -0.1770
  903MOL0     C21784   5.378   0.914  10.551 -0.1842 -1.0192 -0.8722
  903MOL0     C21785   5.256   0.951  10.474  0.4661 -0.3698  0.4828
  903MOL0     C21786   5.293   0.956  10.330 -0.3055 -0.4357 -0.0282
  903MOL0     N21787   5.186   1.018  10.242  0.0388  0.6022 -0.2362
  903MOL0     C21788   5.158   1.156  10.233  1.2000  0.1902  0.2414
  903MOL0     C21789   5.037   1.154  10.165 -0.1013  0.9386  0.1105
  903MOL0     C21790   4.936   1.273  10.147  0.4452  0.2048  0.8730
  903MOL0     C21791   4.790   1.231  10.190  0.1076  0.7501 -0.7197
  903MOL0     C21792   4.695   1.334  10.129 -0.0627  0.0430 -0.6492
  903MOL0     C21793   4.548   1.305  10.159  0.7244 -0.0208  0.1840
  903MOL0     O21794   4.470   1.388  10.075  0.5020 -0.1190  0.2863
  903MOL0     C21795   4.336   1.389  10.093 -0.7993  0.8457  0.2112
  903MOL0     C21796   4.285   1.482  10.178 -1.1739 -1.6053  0.6128
  903MOL0     C21797   4.148   1.512  10.185 -0.3365  0.0916  0.4987
  903MOL0     C21798   4.064   1.426  10.108 -0.2201  0.4570 -0.3089
  903MOL0     C21799   3.918   1.450  10.108  0.0428 -0.4450 -0.1448
  903MOL0     O21800   3.843   1.350  10.047 -0.4480 -0.7453  0.2514
  903MOL0     C21801   3.706   1.361  10.036  0.3088  0.0913  0.8155
  903MOL0     C21802   3.652   1.372   9.913  0.1434  0.5261 -0.6972
  903MOL0     C21803   3.517   1.392   9.900  1.4977 -0.0671  0.1766
  903MOL0     C21804   3.438   1.395  10.008 -0.0824 -1.1202  0.0167
  903MOL0     O21805   3.296   1.401  10.013 -0.0165 -0.1239  0.8341
  903MOL0     C21806   3.234   1.456   9.903 -0.2474  1.0223  1.1612
  903MOL0     C21807   3.212   1.345   9.798 -0.0785 -0.2877  0.2238
  903MOL0     C21808   3.156   1.377   9.658  0.0022 -0.3812 -0.0571
  903MOL0     C21809   3.004   1.412   9.670  0.3781  1.2093  1.2162
  903MOL0     C21810   2.954   1.476   9.551 -0.5273  0.7098  0.2321
  903MOL0     C21811   2.949   1.397   9.425  0.2801  0.1566  1.1622
  903MOL0     C21812   2.817   1.311   9.412 -0.4427  0.5310 -0.6530
  903MOL0     C21813   2.729   1.346   9.288 -0.7655  0.1673 -0.5106
  903MOL0    Cl21814   2.829   1.317   9.141  0.0390 -0.1223  0.6417
  903MOL0     C21815   3.488   1.353  10.138  0.9150 -0.2033 -0.2952
  903MOL0     C21816   3.623   1.352  10.146 -0.4668 -0.0879  0.0472
  903MOL0     O21817   3.870   1.550  10.165 -0.2182 -0.6290  0.6195
  903MOL0     C21818   4.115   1.327  10.014 -0.6648 -0.0755  0.2471
  903MOL0     C21819   4.255   1.307  10.010  0.0520 -0.0294  0.0082
  903MOL0     N21820   4.999   1.024  10.144  0.2037  0.1550 -0.6449
  903MOL0     N21821   5.091   0.941  10.178 -0.5566 -0.5711  0.9044
  903MOL0     C21822   6.262   1.130  10.775  0.0269 -0.1541  1.0299
  903MOL0     C21823   6.396   1.169  10.771  0.1447  0.9910  0.2587
  903MOL0     C21824   6.761   1.403  10.650  0.3033 -1.0976 -0.9189
  903MOL0     C21825   6.855   1.311  10.625 -0.4963 -0.3143 -0.4531
  903MOL0     C21826   6.993   1.343  10.620  0.0351 -1.1273 -0.1332
  903MOL0     C21827   7.022   1.476  10.635 -0.5276 -0.4113  1.3641
  903MOL0     O21828   7.148   1.514  10.609  1.0927 -0.2257  0.3362
  903MOL0     C21829   7.246   1.445  10.687 -1.2053 -0.5917 -0.7301
  903MOL0     C21830   7.346   1.549  10.754 -0.3643 -0.2390 -0.0300
  903MOL0     C21831   7.460   1.489  10.843  0.1610 -0.2046  0.5548
  903MOL0     C21832   7.505   1.590  10.940  0.4648  0.0961  0.8070
  903MOL0     C21833   7.410   1.610  11.042 -0.4429 -0.1684 -0.8224
  903MOL0     C21834   7.326   1.611  11.131  0.7020 -0.4692 -0.5790
  903MOL0     C21835   6.935   1.573  10.674  0.2225  0.4365  0.6796
  903MOL0     C21836   6.802   1.538  10.671  0.4320 -0.1097 -1.2762
  903MOL0     C21837   6.710   1.657  10.708 -0.1557 -0.3422 -0.4521
  903MOL0     H21838   6.468   1.156  10.436  0.1988  1.1535  0.3387
  903MOL0     H21839   6.227   1.085  10.438  0.9552 -7.9877  1.3898
  903MOL0     H21840   6.016   1.026  10.841 -2.0435 -0.6630  0.9126
  903MOL0     H21841   5.936   1.163  10.766  1.5026  1.8227 -3.9386
  903MOL0     H21842   5.805   0.954  10.829  0.2798  2.4731  1.8007
  903MOL0     H21843   5.864   0.880  10.678  0.2153  0.6038  0.1676
  903MOL0     H21844   5.771   1.064  10.543  1.0093 -4.0275 -0.4901
  903MOL0     H21845   5.714   1.149  10.696 -2.5025 -1.2218  1.3080
  903MOL0     H21846   5.639   0.886  10.584  1.2056  2.0193 -0.7304
  903MOL0     H21847   5.570   0.937  10.736  0.0136 -4.4361 -0.9230
  903MOL0     H21848   5.435   1.118  10.617 -0.2842  0.1528  0.8603
  903MOL0     H21849   5.530   1.065  10.474  1.0107  1.3970  0.1078
  903MOL0     H21850   5.430   0.830  10.506  1.9246  0.4356 -1.3059
  903MOL0     H21851   5.340   0.889  10.651  4.7254 -0.0805  1.5269
  903MOL0     H21852   5.202   1.039  10.511  0.0887 -0.8810  1.1709
  903MOL0     H21853   5.181   0.872  10.487 -0.0641 -1.1962 -5.0292
  903MOL0     H21854   5.384   1.016  10.324 -1.7410  1.8156 -0.8619
  903MOL0     H21855   5.324   0.861  10.286  0.9110 -1.2270  2.3870
  903MOL0     H21856   5.202   1.241  10.284  2.1719  0.4957 -1.0542
  903MOL0     H21857   4.977   1.356  10.205  2.3789 -1.0087  1.3483
  903MOL0     H21858   4.928   1.301  10.041  0.4305 -2.8177 -0.0414
  903MOL0     H21859   4.755   1.134  10.152 -0.0233  0.5550 -0.1181
  903MOL0     H21860   4.788   1.229  10.299 -2.7809  1.5069 -0.6886
  903MOL0     H21861   4.711   1.341  10.021  2.5663  1.3680 -0.2519
  903MOL0     H21862   4.713   1.425  10.186  0.0479  0.5277 -1.4489
  903MOL0     H21863   4.514   1.311  10.263 -0.6602  0.4778 -0.2687
  903MOL0     H21864   4.529   1.199  10.137 -0.6089  0.6442 -2.3189
  903MOL0     H21865   4.348   1.544  10.240 -3.0518  0.9655  0.1433
  903MOL0     H21866   4.116   1.600  10.241  1.6470  1.1003  0.1497
  903MOL0     H21867   3.713   1.373   9.823  1.7582  0.4089  0.3458
  903MOL0     H21868   3.477   1.407   9.800  0.9128 -2.2569  0.0373
  903MOL0     H21869   3.141   1.493   9.946 -0.0075 -0.3177  2.9628
  903MOL0     H21870   3.288   1.540   9.858  2.2638 -0.1137  1.8578
  903MOL0     H21871   3.297   1.283   9.771 -2.5639 -2.3422 -3.8846
  903MOL0     H21872   3.141   1.274   9.843 -0.4321 -0.3573 -0.4371
  903MOL0     H21873   3.209   1.460   9.609  0.1850  0.5279  1.6105
  903MOL0     H21874   3.171   1.291   9.593  1.9266 -0.0149 -0.1711
  903MOL0     H21875   2.966   1.480   9.747 -0.5936 -0.0722  1.9147
  903MOL0     H21876   2.957   1.315   9.689  2.0108  0.0473 -0.3229
  903MOL0     H21877   3.029   1.550   9.520 -1.2148  2.1261  1.7788
  903MOL0     H21878   2.858   1.525   9.567 -1.8437 -1.9090  0.8838
  903MOL0     H21879   2.955   1.472   9.345  1.2518  2.2366  3.1041
  903MOL0     H21880   3.026   1.320   9.428 -1.0005 -1.3752 -1.3883
  903MOL0     H21881   2.746   1.321   9.495  0.5384 -3.4256  0.9079
  903MOL0     H21882   2.833   1.204   9.428  0.5747  0.8453  0.5786
  903MOL0     H21883   2.647   1.275   9.279 -1.1418  0.3011  1.3730
  903MOL0     H21884   2.700   1.450   9.298  1.2420  0.7377 -0.1345
  903MOL0     H21885   3.424   1.332  10.223  1.6033 -2.8291 -0.3402
  903MOL0     H21886   3.668   1.345  10.245 -0.4206 -0.8942 -0.0265
  903MOL0     H21887   4.052   1.270   9.947  3.7347 -1.9533 -2.7605
  903MOL0     H21888   4.300   1.230   9.948 -0.0467  1.6726 -2.3376
  903MOL0     H21889   6.191   1.143  10.856 -0.7649  0.4890  0.2519
  903MOL0     H21890   6.447   1.206  10.859  4.0067 -0.6272 -1.0983
  903MOL0     H21891   6.827   1.206  10.619  0.9953 -0.8924  1.3739
  903MOL0     H21892   7.069   1.269  10.597 -0.5352 -2.1610  1.1151
  903MOL0     H21893   7.312   1.381  10.627  2.0545  0.9122  1.0384
  903MOL0     H21894   7.203   1.388  10.769  0.6687  1.7578  2.0549
  903MOL0     H21895   7.280   1.613  10.814 -0.3079 -1.1154  0.9919
  903MOL0     H21896   7.380   1.622  10.680  4.2650 -1.4823  0.5498
  903MOL0     H21897   7.544   1.470  10.775 -1.5124  1.1454 -2.0524
  903MOL0     H21898   7.426   1.399  10.896 -1.5251  0.8000  1.2548
  903MOL0     H21899   7.585   1.536  10.991 -1.1755 -1.1747  2.1133
  903MOL0     H21900   7.548   1.681  10.896 -0.1708  0.8840  1.7739
  903MOL0     H21901   7.245   1.610  11.201  2.3014  2.0296  1.4388
  903MOL0     H21902   6.962   1.678  10.677  1.1933  0.2929 -1.6252
  903MOL0     H21903   6.764   1.746  10.739 -0.0252  0.2908 -2.3805
  903MOL0     H21904   6.645   1.698  10.630  0.5932  1.7094 -0.0436
  903MOL0     H21905   6.645   1.618  10.788 -0.4097 -2.2738 -1.5329
  904MOL0     O21906   6.558   9.880   0.409  0.7167  0.1957  0.6636
  904MOL0     C21907   6.465   9.815   0.455  0.4920 -0.4692 -0.5573
  904MOL0     O21908   6.462   9.776   0.587  0.0550  0.2769  0.7059
  904MOL0     C21909   6.572   9.793   0.668 -0.6346 -0.1843  0.1455
  904MOL0     C21910   6.670   9.702   0.691  0.1856  1.5039 -0.3377
  904MOL0     C21911   6.778   9.737   0.786  0.0389  0.0397  0.6132
  904MOL0     C21912   6.783   9.862   0.846 -0.3638  0.1399  0.3895
  904MOL0     O21913   6.888   9.893   0.935  0.5324 -0.4740  0.4874
  904MOL0     C21914   6.885   9.829   1.062 -0.0996 -0.2941 -0.0435
  904MOL0     C21915   6.971   9.917   1.162 -0.3073  0.0395  0.5091
  904MOL0     C21916   6.957   9.866   1.308  0.3172 -0.8548  0.5189
  904MOL0     C21917   7.024   9.978   1.393  0.0365 -0.4694 -0.5360
  904MOL0     C21918   6.990   9.984   1.542  0.6535  0.1961  0.0283
  904MOL0     C21919   7.020   9.863   1.626  0.3748 -0.9442 -0.2348
  904MOL0     C21920   6.982   9.880   1.774  0.9048  0.5783 -0.5502
  904MOL0     C21921   6.831   9.843   1.792  0.1802 -0.4337 -0.5576
  904MOL0     N21922   6.797   9.857   1.930  0.8412 -0.6155 -0.4475
  904MOL0     C21923   6.878   9.827   2.040 -0.2838  1.4240  0.4647
  904MOL0     C21924   6.821   9.884   2.144  0.7345 -0.1974  0.4155
  904MOL0     C21925   6.858   9.852   2.288  0.5613 -0.2603  0.2098
  904MOL0     C21926   6.799   9.716   2.325 -0.1860  0.1269  0.2039
  904MOL0     C21927   6.748   9.690   2.467 -0.6058  0.2033  0.5905
  904MOL0     C21928   6.712   9.538   2.464 -0.1006  0.3935  0.4200
  904MOL0     O21929   6.664   9.494   2.587  0.4604 -0.3298  0.0524
  904MOL0     C21930   6.578   9.383   2.586 -1.0116 -0.7306 -0.2838
  904MOL0     C21931   6.551   9.336   2.714  0.2707  0.3448 -0.3260
  904MOL0     C21932   6.470   9.225   2.743  0.1288  0.4569  0.3503
  904MOL0     C21933   6.403   9.158   2.636  0.6452  0.0085 -0.7801
  904MOL0     C21934   6.314   9.042   2.657  0.2314 -0.7025  0.1149
  904MOL0     O21935   6.263   8.983   2.545 -0.2179  0.3091 -0.3059
  904MOL0     C21936   6.179   8.867   2.546 -0.3208  0.3753 -0.4041
  904MOL0     C21937   6.090   8.847   2.440 -0.4742  0.8317  0.5767
  904MOL0     C21938   6.029   8.720   2.432 -0.6916 -0.0731 -0.6058
  904MOL0     C21939   6.044   8.623   2.530 -0.1124 -0.1180  0.0528
  904MOL0     O21940   5.971   8.509   2.505 -0.6985 -0.6701  0.5411
  904MOL0     C21941   5.927   8.430   2.619 -0.1086  0.9866  0.8482
  904MOL0     C21942   5.776   8.430   2.619  0.4933  0.1267  0.3025
  904MOL0     C21943   5.725   8.289   2.584 -0.6511 -0.3579  0.1911
  904MOL0     C21944   5.728   8.267   2.434 -0.6047  0.1593 -1.8355
  904MOL0     C21945   5.653   8.143   2.382 -0.8772  0.6689 -0.8402
  904MOL0     C21946   5.696   8.018   2.465  0.2645  0.3029  1.2936
  904MOL0     C21947   5.628   7.895   2.412 -0.0923  0.8425  0.4208
  904MOL0     C21948   5.473   7.902   2.402  1.1721  0.2837 -0.5375
  904MOL0    Cl21949   5.392   7.953   2.551 -0.0975  0.1620  0.2377
  904MOL0     C21950   6.120   8.654   2.644 -0.4387 -0.4024  0.0145
  904MOL0     C21951   6.178   8.773   2.649 -0.4072 -1.6256 -0.7341
  904MOL0     O21952   6.290   9.011   2.773 -0.0919  0.4103 -0.3275
  904MOL0     C21953   6.437   9.206   2.511  0.1406  0.5650  0.2490
  904MOL0     C21954   6.513   9.317   2.481  0.0350 -0.5675  0.7402
  904MOL0     N21955   6.712   9.965   2.101 -1.2873 -0.3605 -0.4162
  904MOL0     N21956   6.688   9.934   1.972 -0.0171  0.4782 -0.7097
  904MOL0     C21957   6.689   9.954   0.806 -0.8447  0.1740  0.3545
  904MOL0     C21958   6.583   9.919   0.720  0.0507 -0.5483  0.3563
  904MOL0     C21959   6.340   9.770   0.383 -0.5703  0.0748 -0.5336
  904MOL0     C21960   6.256   9.662   0.433 -0.5078  0.1533  0.2217
  904MOL0     C21961   6.148   9.620   0.363 -0.4466  0.4423 -0.3869
  904MOL0     C21962   6.121   9.670   0.239  0.0230  0.3241  0.4374
  904MOL0     O21963   6.024   9.616   0.161  0.2444  0.1161  0.2333
  904MOL0     C21964   5.929   9.525   0.215 -0.7582  0.6778 -0.5985
  904MOL0     C21965   5.855   9.452   0.100 -0.0551  0.7598 -0.5276
  904MOL0     C21966   5.967   9.373   0.038  1.1718  0.5304  0.2758
  904MOL0     C21967   6.019   9.244   0.111 -0.5988  0.1019 -0.1402
  904MOL0     C21968   5.921   9.139   0.135  0.1396 -0.5219 -0.1364
  904MOL0     C21969   5.830   9.057   0.143 -0.6455 -0.0441  0.4953
  904MOL0     C21970   6.211   9.758   0.183 -0.5405  0.4360  0.1529
  904MOL0     C21971   6.310   9.815   0.254 -0.3649 -0.8187 -0.6241
  904MOL0     C21972   6.382   9.931   0.194 -0.0524 -1.5506 -0.8033
  904MOL0     H21973   6.666   9.603   0.648  0.4189  0.2606  2.3400
  904MOL0     H21974   6.860   9.667   0.804  0.1572  0.1257  0.4176
  904MOL0     H21975   6.784   9.820   1.103 -0.2580  0.8546 -0.1353
  904MOL0     H21976   6.921   9.726   1.063  1.1809  0.1193 -0.5580
  904MOL0     H21977   6.944  10.023   1.154 -1.3607 -0.2179  0.5589
  904MOL0     H21978   7.077   9.908   1.137 -0.3972  1.4204 -0.4262
  904MOL0     H21979   7.015   9.776   1.332  0.2018 -0.0593  4.4271
  904MOL0     H21980   6.852   9.865   1.340  0.6833  0.6525  1.8620
  904MOL0     H21981   7.133   9.968   1.388  0.1307  0.2267 -0.1624
  904MOL0     H21982   6.996  10.076   1.352  0.5020 -0.5694 -1.1026
  904MOL0     H21983   7.046  10.069   1.581  2.2028 -1.7154  2.2686
  904MOL0     H21984   6.882  10.002   1.553  0.5560 -1.2694  2.1838
  904MOL0     H21985   6.970   9.781   1.573  0.6493 -0.1865 -1.7406
  904MOL0     H21986   7.126   9.841   1.612  0.5879 -0.7741  1.0497
  904MOL0     H21987   7.013   9.980   1.805 -0.3937  0.6929  0.4636
  904MOL0     H21988   7.034   9.811   1.841 -1.2990 -0.7465 -0.1081
  904MOL0     H21989   6.767   9.910   1.734  2.4317  3.7607  1.2757
  904MOL0     H21990   6.816   9.737   1.771 -0.5637 -1.6530  4.7431
  904MOL0     H21991   6.963   9.759   2.035 -1.8926 -0.5667 -2.5709
  904MOL0     H21992   6.966   9.868   2.297  0.8524 -1.3702 -1.0078
  904MOL0     H21993   6.802   9.928   2.344 -2.8970  0.2756 -3.5587
  904MOL0     H21994   6.712   9.694   2.263  0.5251  1.3769 -1.3122
  904MOL0     H21995   6.879   9.645   2.304 -1.7779 -2.3640  2.0023
  904MOL0     H21996   6.659   9.751   2.485 -0.4835  0.2707  0.9909
  904MOL0     H21997   6.821   9.701   2.548  0.2997 -2.5613  0.2576
  904MOL0     H21998   6.797   9.473   2.443  0.2573 -0.7104  4.4556
  904MOL0     H21999   6.633   9.527   2.389 -1.1156 -1.5559  1.6793
  904MOL0     H22000   6.598   9.405   2.784  2.5459  0.3143 -1.7143
  904MOL0     H22001   6.444   9.210   2.847  2.8968 -3.2422  0.6953
  904MOL0     H22002   6.078   8.930   2.372  2.4143 -0.8062 -2.1846
  904MOL0     H22003   5.968   8.694   2.345 -1.5041 -2.2181  0.5408
  904MOL0     H22004   5.963   8.327   2.610  0.1417  1.1847 -0.5866
  904MOL0     H22005   5.973   8.467   2.712  1.0815  2.0777 -0.1345
  904MOL0     H22006   5.728   8.448   2.715 -2.0791 -1.1394 -0.6592
  904MOL0     H22007   5.732   8.507   2.555 -0.1259 -1.7498 -1.6298
  904MOL0     H22008   5.784   8.211   2.633  3.6048  1.7045 -1.2002
  904MOL0     H22009   5.623   8.279   2.623 -0.1028 -1.6253  1.3913
  904MOL0     H22010   5.829   8.245   2.398 -0.4812 -1.3959 -0.6558
  904MOL0     H22011   5.686   8.354   2.383 -0.9009  0.0096 -1.8466
  904MOL0     H22012   5.660   8.122   2.275  0.6965 -1.8709 -0.3208
  904MOL0     H22013   5.548   8.172   2.391 -1.6547 -1.4623 -2.2321
  904MOL0     H22014   5.805   8.014   2.475  0.2864 -0.5478  0.7592
  904MOL0     H22015   5.669   8.031   2.570  2.7279 -2.6958  2.4414
  904MOL0     H22016   5.666   7.811   2.471  0.6538  1.0053  0.1773
  904MOL0     H22017   5.665   7.867   2.314 -0.2743 -0.7802  0.7909
  904MOL0     H22018   5.456   7.979   2.325  2.9378  1.1409 -0.1359
  904MOL0     H22019   5.435   7.804   2.374 -0.8776  0.5933  0.9521
  904MOL0     H22020   6.133   8.582   2.724 -0.9286 -1.4420 -0.8066
  904MOL0     H22021   6.225   8.788   2.746  0.0741 -3.4030 -0.6587
  904MOL0     H22022   6.394   9.167   2.419  1.5523 -0.3807 -0.0430
  904MOL0     H22023   6.521   9.357   2.381  0.1393  2.8166  1.9503
  904MOL0     H22024   6.705  10.057   0.838 -0.8364 -0.0554  1.1186
  904MOL0     H22025   6.507   9.996   0.718 -0.6864 -1.2786 -0.5623
  904MOL0     H22026   6.289   9.603   0.518  0.7933  0.2294 -0.2033
  904MOL0     H22027   6.091   9.544   0.416 -1.0941  1.2585  0.1090
  904MOL0     H22028   5.863   9.574   0.288  1.4259  4.5202 -0.9459
  904MOL0     H22029   5.980   9.444   0.268 -2.7243 -1.6990 -2.1138
  904MOL0     H22030   5.806   9.513   0.023 -0.7514 -1.7174 -2.1582
  904MOL0     H22031   5.770   9.397   0.142 -0.0384  1.2191  0.1318
  904MOL0     H22032   6.051   9.442   0.026  3.3719 -1.8492  1.0048
  904MOL0     H22033   5.919   9.352  -0.058  0.7168  0.0954  0.5914
  904MOL0     H22034   6.087   9.200   0.037 -1.4634 -2.2801  0.3711
  904MOL0     H22035   6.081   9.275   0.195 -0.6313 -2.0866  0.7771
  904MOL0     H22036   5.751   8.984   0.151 -2.2190  1.8074  3.6246
  904MOL0     H22037   6.208   9.796   0.081  0.9596 -0.7130 -0.3518
  904MOL0     H22038   6.371  10.027   0.245  0.3706 -1.2933 -1.1829
  904MOL0     H22039   6.486   9.898   0.181  0.8026  1.0452 -1.3938
  904MOL0     H22040   6.345   9.948   0.092  0.9539 -3.9225 -1.6201
  905MOL0     O22041   8.791   8.708   1.864  0.1155 -0.1480 -0.3693
  905MOL0     C22042   8.883   8.653   1.938 -0.9165 -0.1850  0.5532
  905MOL0     O22043   8.859   8.594   2.065 -0.5953  1.0445 -0.2050
  905MOL0     C22044   8.738   8.593   2.118  0.2381  0.5056 -0.3697
  905MOL0     C22045   8.648   8.493   2.082  0.6251  0.5516 -0.9801
  905MOL0     C22046   8.519   8.490   2.137  0.4894 -0.2502  0.0506
  905MOL0     C22047   8.476   8.570   2.243 -0.5466  0.7414  1.0692
  905MOL0     O22048   8.357   8.581   2.297 -0.0091  0.3132 -0.4186
  905MOL0     C22049   8.240   8.537   2.233 -0.0685 -0.2844  1.3407
  905MOL0     C22050   8.111   8.572   2.298 -0.1732  0.6599 -0.3373
  905MOL0     C22051   8.046   8.695   2.228  0.7089 -0.3685  1.0639
  905MOL0     C22052   7.972   8.641   2.098 -0.0254 -0.5742  0.8131
  905MOL0     C22053   7.914   8.754   2.018 -0.5543  0.0237  0.0368
  905MOL0     C22054   7.850   8.721   1.880 -0.2066  0.8131  0.5309
  905MOL0     C22055   7.962   8.674   1.782  0.2137 -0.2515 -1.2383
  905MOL0     C22056   7.923   8.695   1.636  0.2807 -0.2759  0.9165
  905MOL0     N22057   7.798   8.615   1.606  0.1349 -0.4003  0.6383
  905MOL0     C22058   7.666   8.663   1.626 -0.1672  0.5202 -0.0670
  905MOL0     C22059   7.591   8.549   1.625  0.3747  0.3412 -0.1912
  905MOL0     C22060   7.446   8.542   1.655 -0.8879 -0.1336 -0.3042
  905MOL0     C22061   7.375   8.480   1.530  0.0723 -0.0201 -0.2979
  905MOL0     C22062   7.363   8.579   1.409  1.1794  0.0517 -0.3368
  905MOL0     C22063   7.299   8.503   1.289  0.7291 -0.0606 -0.6187
  905MOL0     O22064   7.160   8.475   1.317 -0.4822  0.0658 -0.3031
  905MOL0     C22065   7.083   8.444   1.213 -0.1501  0.0005 -0.1044
  905MOL0     C22066   7.145   8.406   1.085  0.2941 -0.0276 -0.1469
  905MOL0     C22067   7.067   8.351   0.984 -0.3209  0.3148  0.4489
  905MOL0     C22068   6.926   8.340   1.004  0.2216  0.0091  0.4582
  905MOL0     C22069   6.848   8.289   0.895 -0.9068  0.8232  0.0716
  905MOL0     O22070   6.752   8.218   0.950 -0.4112  0.1625  0.7166
  905MOL0     C22071   6.678   8.147   0.867  0.7665 -0.0134 -0.2491
  905MOL0     C22072   6.731   8.039   0.785  0.1610 -0.8324  0.8962
  905MOL0     C22073   6.646   7.964   0.700 -0.5435 -0.1756  0.8814
  905MOL0     C22074   6.505   7.991   0.693 -0.5235 -0.0239 -0.4644
  905MOL0     O22075   6.439   7.910   0.605  0.6624 -0.1763  0.1495
  905MOL0     C22076   6.293   7.924   0.589 -0.1641 -0.5573  0.2963
  905MOL0     C22077   6.201   7.871   0.702  0.8409 -0.5670 -0.0897
  905MOL0     C22078   6.052   7.862   0.642 -0.6384  0.0098 -0.7341
  905MOL0     C22079   5.953   7.878   0.763  0.4853  0.1884  0.5856
  905MOL0     C22080   5.811   7.824   0.737  0.5894  1.2971 -0.8057
  905MOL0     C22081   5.715   7.930   0.656  0.6341  0.2209 -0.4422
  905MOL0     C22082   5.587   7.859   0.636  0.5702 -0.3270  0.4349
  905MOL0     C22083   5.485   7.932   0.545 -0.5866 -0.7610  0.1775
  905MOL0    Cl22084   5.429   8.089   0.608 -0.0818 -0.0484 -0.0703
  905MOL0     C22085   6.458   8.105   0.767 -0.3012  0.6073  0.2727
  905MOL0     C22086   6.537   8.174   0.861 -0.5089  0.7885 -0.3348
  905MOL0     O22087   6.872   8.304   0.775  0.3079 -0.1957 -0.0056
  905MOL0     C22088   6.871   8.380   1.125  1.6938  0.3867 -0.1720
  905MOL0     C22089   6.946   8.435   1.230  0.4638 -0.4604  1.0468
  905MOL0     N22090   7.673   8.435   1.603  0.4026  0.2168  0.2429
  905MOL0     N22091   7.790   8.478   1.603  0.3947  0.2927 -0.3180
  905MOL0     C22092   8.570   8.664   2.283  0.5121 -0.1716 -0.0702
  905MOL0     C22093   8.695   8.680   2.224 -0.7423 -0.4004  0.1269
  905MOL0     C22094   9.021   8.628   1.871  0.6211 -0.0267 -0.4613
  905MOL0     C22095   9.105   8.554   1.960 -0.0933  0.6313  0.2183
  905MOL0     C22096   9.233   8.534   1.921 -0.6833  0.7024 -0.4946
  905MOL0     C22097   9.294   8.577   1.801  0.1687 -0.0739  0.8223
  905MOL0     O22098   9.434   8.548   1.793 -0.6085  0.5906  0.0332
  905MOL0     C22099   9.521   8.601   1.690 -0.3004  1.1998 -0.2133
  905MOL0     C22100   9.673   8.569   1.702 -0.4001 -0.5818 -0.3905
  905MOL0     C22101   9.708   8.424   1.673 -0.3117 -0.7940  0.0984
  905MOL0     C22102   9.705   8.407   1.522 -0.7248  0.5398  0.2059
  905MOL0     C22103   9.576   8.353   1.475 -0.1515 -0.0962  1.3588
  905MOL0     C22104   9.480   8.308   1.425  0.1152 -0.6461 -0.6186
  905MOL0     C22105   9.212   8.651   1.721 -0.2511  0.1908 -0.0110
  905MOL0     C22106   9.075   8.682   1.751 -0.4318  0.7283  0.0149
  905MOL0     C22107   9.001   8.777   1.660  0.3046 -0.4745 -0.8156
  905MOL0     H22108   8.646   8.421   2.000 -0.1364  0.5212 -0.9399
  905MOL0     H22109   8.464   8.398   2.117  2.9130 -2.5937  3.1034
  905MOL0     H22110   8.241   8.571   2.129  3.0160  0.1965  1.4286
  905MOL0     H22111   8.253   8.428   2.223 -0.4702 -0.1920 -0.7162
  905MOL0     H22112   8.128   8.589   2.405 -0.3795  2.9296 -0.6214
  905MOL0     H22113   8.040   8.489   2.297  0.9631 -0.4530  2.0219
  905MOL0     H22114   8.118   8.775   2.210  1.9383 -1.0757  2.5876
  905MOL0     H22115   7.973   8.747   2.292  0.0418 -0.4334  0.3644
  905MOL0     H22116   8.051   8.602   2.034  0.9374  0.0459  1.5694
  905MOL0     H22117   7.890   8.575   2.127  0.8076 -1.8261  0.4118
  905MOL0     H22118   7.829   8.792   2.076 -1.5708 -2.0165 -0.0048
  905MOL0     H22119   7.985   8.836   2.005 -0.7054  0.5830  2.3278
  905MOL0     H22120   7.780   8.637   1.888  1.2323 -0.6928 -1.5517
  905MOL0     H22121   7.792   8.805   1.841 -0.7734  0.7475  1.2215
  905MOL0     H22122   7.992   8.570   1.798 -1.1086 -0.5132 -0.3345
  905MOL0     H22123   8.041   8.744   1.812 -1.7136  2.1632 -1.5440
  905MOL0     H22124   7.918   8.799   1.602 -0.3182 -1.0560 -1.6379
  905MOL0     H22125   8.001   8.663   1.566  2.2700  0.6300  2.6254
  905MOL0     H22126   7.649   8.766   1.656  1.4290  1.0983 -1.0638
  905MOL0     H22127   7.423   8.487   1.747 -1.6926  3.1733  1.6697
  905MOL0     H22128   7.408   8.641   1.683 -2.0505 -0.8225  0.7114
  905MOL0     H22129   7.442   8.402   1.491 -0.7364  0.0401 -1.9062
  905MOL0     H22130   7.279   8.436   1.559 -1.0246  1.4806 -1.4675
  905MOL0     H22131   7.460   8.622   1.382  0.5261  2.1685  0.5375
  905MOL0     H22132   7.298   8.665   1.428  0.3755 -0.5989 -0.0601
  905MOL0     H22133   7.361   8.414   1.272 -0.2361 -0.1704 -4.6633
  905MOL0     H22134   7.308   8.569   1.202 -1.3643 -0.3802 -1.1299
  905MOL0     H22135   7.252   8.399   1.077  0.7045  2.0008  2.1453
  905MOL0     H22136   7.118   8.317   0.895 -1.5611  1.1834 -0.6297
  905MOL0     H22137   6.838   8.020   0.793  0.6362  1.4919  0.7761
  905MOL0     H22138   6.678   7.882   0.636  0.0945 -1.8241  3.2010
  905MOL0     H22139   6.272   8.026   0.553 -0.2094 -0.6018  0.1965
  905MOL0     H22140   6.268   7.866   0.500  1.6809 -1.5635  0.4029
  905MOL0     H22141   6.230   7.768   0.724 -1.5989 -2.6053 -4.9210
  905MOL0     H22142   6.208   7.931   0.794  0.4941 -0.0454 -0.3926
  905MOL0     H22143   6.030   7.938   0.568 -4.3172 -3.3281 -3.4959
  905MOL0     H22144   6.037   7.765   0.593  1.7945 -1.5608  1.3301
  905MOL0     H22145   5.938   7.982   0.793 -1.7508 -0.1204  0.7245
  905MOL0     H22146   5.994   7.824   0.848 -1.5891  0.3238  1.7282
  905MOL0     H22147   5.759   7.805   0.831  0.8208 -1.2924 -1.1193
  905MOL0     H22148   5.813   7.726   0.687 -2.1201  0.4802  0.5009
  905MOL0     H22149   5.692   8.017   0.719  2.0013 -1.7763  3.1284
  905MOL0     H22150   5.770   7.953   0.565  1.1292  3.2359  0.4950
  905MOL0     H22151   5.533   7.847   0.730  1.1522  1.9249  1.1122
  905MOL0     H22152   5.613   7.765   0.585 -1.0579  0.7390 -2.6280
  905MOL0     H22153   5.523   7.940   0.443  1.4117 -1.6062  0.8001
  905MOL0     H22154   5.393   7.875   0.536 -1.7011  0.8532  0.9799
  905MOL0     H22155   6.355   8.141   0.764 -0.1052  1.3081  1.4212
  905MOL0     H22156   6.502   8.260   0.916 -0.0073  2.4743 -2.4950
  905MOL0     H22157   6.763   8.374   1.134  1.5778 -2.4711 -2.1440
  905MOL0     H22158   6.898   8.452   1.326 -5.0469 -2.0374 -1.0353
  905MOL0     H22159   8.540   8.730   2.365  0.0716 -0.2641 -0.1534
  905MOL0     H22160   8.756   8.764   2.257 -2.5055  1.9742 -2.1571
  905MOL0     H22161   9.071   8.499   2.047  0.5920 -0.9824 -0.4812
  905MOL0     H22162   9.290   8.468   1.986  0.3323  0.0968 -1.9302
  905MOL0     H22163   9.508   8.709   1.698  2.6721  1.5209  2.1262
  905MOL0     H22164   9.478   8.565   1.596 -0.9899 -1.0025  0.8558
  905MOL0     H22165   9.709   8.606   1.799 -0.7311 -3.3344  0.8749
  905MOL0     H22166   9.729   8.640   1.642 -1.0796  0.4988  0.2172
  905MOL0     H22167   9.630   8.363   1.721 -0.2942  1.3150  3.0305
  905MOL0     H22168   9.810   8.394   1.700  0.1066 -0.7074 -1.2831
  905MOL0     H22169   9.716   8.503   1.470 -1.5959 -0.5418 -2.1466
  905MOL0     H22170   9.778   8.339   1.477 -2.8694 -0.4477 -2.0217
  905MOL0     H22171   9.390   8.267   1.383 -2.3881  1.0979  2.6715
  905MOL0     H22172   9.252   8.694   1.630 -1.8657  0.3351 -0.7014
  905MOL0     H22173   8.997   8.871   1.716 -0.5370 -0.5386 -0.7638
  905MOL0     H22174   9.053   8.786   1.564 -1.5340 -0.2018 -1.8351
  905MOL0     H22175   8.902   8.732   1.650 -0.3547  0.3180  1.4752
  906MOL0     O22176   8.116   5.520   9.780 -0.3168  0.0864 -0.5177
  906MOL0     C22177   8.109   5.486   9.659  0.9115  0.1604 -0.2523
  906MOL0     O22178   8.216   5.487   9.576 -0.6839 -0.5495 -0.3783
  906MOL0     C22179   8.341   5.475   9.634 -0.5345 -0.2766  0.2623
  906MOL0     C22180   8.440   5.576   9.615 -0.1840  0.5853  0.0259
  906MOL0     C22181   8.573   5.546   9.664 -0.0346 -0.5390  0.2564
  906MOL0     C22182   8.611   5.431   9.712  0.1478  0.8205 -0.2167
  906MOL0     O22183   8.744   5.421   9.744 -0.7137  0.8058 -0.0601
  906MOL0     C22184   8.797   5.327   9.846  0.2731  0.2889 -0.1860
  906MOL0     C22185   8.956   5.330   9.853 -1.1269  0.8527  1.1091
  906MOL0     C22186   9.029   5.201   9.901 -0.0148  0.4056 -0.5977
  906MOL0     C22187   9.004   5.071   9.821  0.0812  0.6966 -0.4482
  906MOL0     C22188   9.050   4.951   9.921 -0.3456  0.5609 -0.2569
  906MOL0     C22189   9.003   4.823   9.840  0.0156  0.9563 -0.7611
  906MOL0     C22190   9.059   4.691   9.886  0.9694 -0.5430 -0.8248
  906MOL0     C22191   9.005   4.661  10.024  0.2525 -0.1708 -0.9151
  906MOL0     N22192   9.053   4.541  10.079 -0.0880  0.1783  0.2379
  906MOL0     C22193   9.030   4.420  10.020  0.9152  0.4446 -0.3528
  906MOL0     C22194   9.093   4.331  10.107 -0.0209 -0.5639 -0.5539
  906MOL0     C22195   9.082   4.178  10.096  0.8446 -1.1534  0.5426
  906MOL0     C22196   9.223   4.111  10.089 -0.0068  0.5348  0.1305
  906MOL0     C22197   9.245   4.009  10.198  0.5089  0.2600 -0.7877
  906MOL0     C22198   9.382   3.947  10.207 -1.0985  0.3943 -0.6091
  906MOL0     O22199   9.478   4.056  10.197 -0.1189  1.0921 -0.2467
  906MOL0     C22200   9.612   4.023  10.217  0.0978 -0.1459 -0.2769
  906MOL0     C22201   9.691   4.130  10.220  0.6960 -0.5466 -0.0320
  906MOL0     C22202   9.833   4.128  10.226  0.3287 -0.0181 -0.7990
  906MOL0     C22203   9.892   4.002  10.245  0.3122 -0.4546  0.2030
  906MOL0     C22204  10.043   3.990  10.268  0.6944 -0.2219 -0.3625
  906MOL0     O22205  10.101   3.884  10.221  0.3718 -0.1994  0.6885
  906MOL0     C22206  10.234   3.866  10.251 -0.2003  0.2451 -0.3490
  906MOL0     C22207  10.268   3.770  10.344 -0.1744 -0.3980  0.0586
  906MOL0     C22208  10.401   3.746  10.378 -0.0209  0.6094 -0.2923
  906MOL0     C22209  10.499   3.815  10.305 -0.4066 -0.1606  0.0444
  906MOL0     O22210  10.638   3.789  10.321 -0.4077 -0.2676 -0.0400
  906MOL0     C22211  10.689   3.741  10.447 -0.8806 -0.2680 -0.2103
  906MOL0     C22212  10.796   3.638  10.417  0.1156 -0.0764 -0.3830
  906MOL0     C22213  10.753   3.512  10.342  0.6710  0.4462  0.2994
  906MOL0     C22214  10.656   3.419  10.427  0.7193 -0.5601 -0.3274
  906MOL0     C22215  10.598   3.301  10.349  0.4472  0.5564  0.0119
  906MOL0     C22216  10.489   3.320  10.247 -0.9641 -0.2740  0.3394
  906MOL0     C22217  10.352   3.333  10.308  0.1715  0.0029 -0.0107
  906MOL0     C22218  10.266   3.423  10.226 -0.8762 -0.2946  0.1858
  906MOL0    Cl22219  10.250   3.340  10.071  0.1097  0.2501  0.0898
  906MOL0     C22220  10.466   3.910  10.208 -0.4416 -1.1279  0.8836
  906MOL0     C22221  10.330   3.931  10.176  0.1368 -0.3109  0.5628
  906MOL0     O22222  10.100   4.095  10.308 -0.2931  0.9458 -0.2974
  906MOL0     C22223   9.807   3.887  10.231 -0.3013  0.1900  0.2696
  906MOL0     C22224   9.668   3.898  10.219  0.2521  0.8747  0.2745
  906MOL0     N22225   9.141   4.403  10.212 -0.1831 -0.1937 -0.6419
  906MOL0     N22226   9.121   4.534  10.197  0.3985 -0.2438  0.1274
  906MOL0     C22227   8.514   5.334   9.732 -1.1757 -0.7034  0.4308
  906MOL0     C22228   8.382   5.355   9.688  0.0889 -0.0310 -0.6459
  906MOL0     C22229   7.982   5.453   9.587  0.6785 -0.3986 -0.6150
  906MOL0     C22230   7.874   5.485   9.665  0.3339 -0.3052  0.5750
  906MOL0     C22231   7.742   5.479   9.620 -0.0480  0.4681  0.7583
  906MOL0     C22232   7.717   5.425   9.494  0.4882 -1.1072  0.0212
  906MOL0     O22233   7.588   5.410   9.459 -0.0763  0.5168  0.3525
  906MOL0     C22234   7.538   5.278   9.466  0.1187  0.3721 -0.5288
  906MOL0     C22235   7.394   5.262   9.405  1.1499  0.0603  0.7328
  906MOL0     C22236   7.277   5.332   9.471 -0.3520  0.0656 -0.3770
  906MOL0     C22237   7.250   5.287   9.616  0.2668 -0.5358 -0.8627
  906MOL0     C22238   7.219   5.142   9.642 -0.3412 -0.1548 -1.0789
  906MOL0     C22239   7.199   5.025   9.675 -0.3340 -0.3635  0.7153
  906MOL0     C22240   7.821   5.407   9.405  0.1861  0.3656 -0.6243
  906MOL0     C22241   7.954   5.416   9.451 -0.5400 -0.1518  0.3253
  906MOL0     C22242   8.072   5.397   9.354  0.0529 -0.3168  0.3591
  906MOL0     H22243   8.414   5.672   9.571 -1.9256  1.2639  2.3879
  906MOL0     H22244   8.652   5.620   9.652  1.9691 -2.5733  0.1377
  906MOL0     H22245   8.757   5.351   9.945  0.1581 -3.6182  0.8835
  906MOL0     H22246   8.768   5.224   9.825  1.3200 -0.1324  0.3608
  906MOL0     H22247   8.983   5.406   9.927  2.3994  0.4328  0.4349
  906MOL0     H22248   8.996   5.369   9.759 -2.1819  1.0888  0.7463
  906MOL0     H22249   8.991   5.194  10.004  0.8898 -0.7427 -0.3292
  906MOL0     H22250   9.136   5.223   9.904  0.2010 -0.3163  3.4200
  906MOL0     H22251   8.898   5.054   9.801  0.1197 -0.5374  0.2642
  906MOL0     H22252   9.073   5.068   9.737  4.1922  3.1675  2.4680
  906MOL0     H22253   9.158   4.951   9.933 -0.1373 -0.7796 -1.7359
  906MOL0     H22254   9.013   4.972  10.021 -1.8222 -0.1339 -0.6178
  906MOL0     H22255   8.894   4.817   9.845  0.0417  0.6012 -0.5450
  906MOL0     H22256   9.038   4.838   9.738  2.5852 -1.7616 -0.4133
  906MOL0     H22257   9.168   4.676   9.888  0.7727 -2.1948 -0.6202
  906MOL0     H22258   9.024   4.614   9.816  0.5204 -0.8720 -0.2453
  906MOL0     H22259   9.019   4.737  10.101  1.7304 -1.6450  0.3559
  906MOL0     H22260   8.898   4.642  10.009  0.6724 -1.9076 -1.9943
  906MOL0     H22261   8.984   4.391   9.925  2.7572  0.4831 -1.2965
  906MOL0     H22262   9.025   4.131  10.176  0.1539 -0.1065  0.6871
  906MOL0     H22263   9.025   4.168  10.003  1.3548  1.1976 -0.1004
  906MOL0     H22264   9.243   4.068   9.990  1.3873 -0.0752  0.6455
  906MOL0     H22265   9.300   4.188  10.098 -0.1624  0.6806  0.2093
  906MOL0     H22266   9.175   3.932  10.163  0.3619  2.3040 -6.0448
  906MOL0     H22267   9.206   4.050  10.291  1.5025  0.4055 -0.4228
  906MOL0     H22268   9.375   3.886  10.117 -0.0940 -0.3470 -0.2044
  906MOL0     H22269   9.399   3.886  10.297 -0.0181  0.7970 -0.5240
  906MOL0     H22270   9.644   4.226  10.200  0.9679 -0.5194 -0.5413
  906MOL0     H22271   9.893   4.218  10.229  0.3920 -0.0674  1.7002
  906MOL0     H22272  10.191   3.719  10.400 -0.6313  0.3293  0.1145
  906MOL0     H22273  10.418   3.670  10.453 -3.8285 -0.1035  0.0614
  906MOL0     H22274  10.732   3.821  10.508  0.4515 -1.8403  1.0010
  906MOL0     H22275  10.613   3.697  10.511 -0.2467 -0.9891  0.0588
  906MOL0     H22276  10.878   3.687  10.364 -0.0168  1.1487  0.4929
  906MOL0     H22277  10.844   3.604  10.509  0.5008 -0.4267 -0.7102
  906MOL0     H22278  10.705   3.540  10.248 -1.2651 -1.2410  0.6985
  906MOL0     H22279  10.844   3.456  10.319  0.6391  0.0697  1.0520
  906MOL0     H22280  10.566   3.475  10.456  1.0639  0.1041 -0.5017
  906MOL0     H22281  10.704   3.382  10.518  0.9037 -2.1812 -1.0640
  906MOL0     H22282  10.553   3.244  10.430  3.3924 -2.1522 -0.0521
  906MOL0     H22283  10.680   3.249  10.299  1.1803  1.4599  0.2456
  906MOL0     H22284  10.511   3.410  10.188 -3.7983  1.4159  1.6546
  906MOL0     H22285  10.483   3.233  10.180  2.2737 -2.2661  2.3943
  906MOL0     H22286  10.360   3.365  10.412  0.5999  1.5479 -0.4908
  906MOL0     H22287  10.308   3.233  10.309 -0.7175  0.2839 -2.7613
  906MOL0     H22288  10.174   3.415  10.284  0.1230 -1.4173  1.6975
  906MOL0     H22289  10.296   3.529  10.222 -0.6740 -0.3496  0.2045
  906MOL0     H22290  10.547   3.962  10.158 -2.0184  0.4080 -0.1816
  906MOL0     H22291  10.285   3.997  10.102 -1.2678 -4.1206 -2.3516
  906MOL0     H22292   9.855   3.790  10.236 -1.3393 -0.4110 -0.9939
  906MOL0     H22293   9.607   3.811  10.196  0.7304  0.4922  0.4228
  906MOL0     H22294   8.541   5.256   9.802  0.0105  2.3481  3.6927
  906MOL0     H22295   8.307   5.276   9.696 -1.0148  0.9853 -0.8086
  906MOL0     H22296   7.880   5.517   9.768 -2.8585 -0.3644  0.8682
  906MOL0     H22297   7.656   5.518   9.674 -2.6067 -1.0599 -1.8903
  906MOL0     H22298   7.537   5.235   9.567 -0.4360 -0.9473 -1.0595
  906MOL0     H22299   7.611   5.215   9.415 -1.2476 -1.9749  0.2565
  906MOL0     H22300   7.380   5.153   9.401  1.1092  0.1072 -1.2649
  906MOL0     H22301   7.399   5.306   9.306  1.4155 -1.0136  0.2582
  906MOL0     H22302   7.183   5.316   9.417 -0.7264  0.4343  0.1513
  906MOL0     H22303   7.289   5.441   9.469 -3.2209  0.4702 -0.3719
  906MOL0     H22304   7.328   5.324   9.684  1.0812 -0.8136 -1.6195
  906MOL0     H22305   7.157   5.343   9.629  0.0775 -0.8128 -1.0241
  906MOL0     H22306   7.190   4.932   9.727  1.2007  0.8858  3.4145
  906MOL0     H22307   7.800   5.366   9.306  0.2426  2.3725 -1.5202
  906MOL0     H22308   8.135   5.487   9.360  3.3868 -2.4126 -0.2136
  906MOL0     H22309   8.138   5.319   9.394  3.2367  1.7107 -0.5580
  906MOL0     H22310   8.030   5.374   9.256  1.4074  0.8942 -0.5532
  907MOL0     O22311   9.784   4.802   9.700  0.2564  0.6473  0.3778
  907MOL0     C22312   9.835   4.748   9.795 -0.5597  0.6341  0.8511
  907MOL0     O22313   9.869   4.815   9.914  0.0396 -0.0733 -0.2268
  907MOL0     C22314   9.851   4.957   9.920 -0.4921  0.4808  0.0740
  907MOL0     C22315   9.918   5.045   9.846 -0.0039 -0.5472  0.7614
  907MOL0     C22316   9.917   5.186   9.871 -0.0214 -0.5816  0.5605
  907MOL0     C22317   9.837   5.237   9.971  0.6540  1.0067 -0.8830
  907MOL0     O22318   9.828   5.373   9.982 -0.4326  0.5622 -0.2617
  907MOL0     C22319   9.713   5.427  10.046 -0.6060  0.4012 -0.4860
  907MOL0     C22320   9.582   5.411   9.975  0.4218  0.6649 -1.0536
  907MOL0     C22321   9.607   5.419   9.827 -0.5460 -0.3560  0.3496
  907MOL0     C22322   9.475   5.445   9.746 -0.2177  0.0240 -0.0337
  907MOL0     C22323   9.516   5.541   9.629  1.1797 -0.4192  0.3897
  907MOL0     C22324   9.391   5.603   9.557  0.3043 -0.1996 -0.1374
  907MOL0     C22325   9.442   5.674   9.430  0.2807 -0.0537  0.1465
  907MOL0     C22326   9.451   5.818   9.446 -0.4068 -0.4500  0.9684
  907MOL0     N22327   9.536   5.870   9.341 -0.6909  0.0158 -0.0900
  907MOL0     C22328   9.501   5.948   9.241 -0.1028 -0.4357  0.9513
  907MOL0     C22329   9.608   5.971   9.171 -0.3184 -1.1287 -0.3978
  907MOL0     C22330   9.611   6.050   9.038 -0.2167  0.1523 -0.1326
  907MOL0     C22331   9.655   6.194   9.062 -0.1836  0.8563 -0.0275
  907MOL0     C22332   9.807   6.209   9.099  0.4834  0.6672  0.5432
  907MOL0     C22333   9.866   6.347   9.085  0.3758 -0.6243  0.8227
  907MOL0     O22334  10.008   6.339   9.103 -0.3133  0.3951 -0.1060
  907MOL0     C22335  10.079   6.459   9.091 -0.0398 -0.1904 -0.0860
  907MOL0     C22336  10.212   6.452   9.142 -0.4534 -0.3530 -0.5242
  907MOL0     C22337  10.294   6.563   9.130  0.9500  0.2402 -0.4375
  907MOL0     C22338  10.241   6.682   9.068  0.5719  0.2767  0.0429
  907MOL0     C22339  10.325   6.814   9.065 -0.1169  0.8634 -0.5211
  907MOL0     O22340  10.454   6.808   9.104 -0.2024 -0.1937 -0.2942
  907MOL0     C22341  10.534   6.915   9.065 -0.5608  0.4698 -0.7991
  907MOL0     C22342  10.515   7.054   9.115  0.5476 -0.2579 -0.2921
  907MOL0     C22343  10.593   7.159   9.063 -0.6546 -0.7051 -0.0475
  907MOL0     C22344  10.679   7.136   8.958 -0.0551 -0.1714 -0.6160
  907MOL0     O22345  10.758   7.238   8.907 -0.2086 -0.6980 -0.2972
  907MOL0     C22346  10.705   7.373   8.884 -0.0562  0.1851 -0.3129
  907MOL0     C22347  10.830   7.439   8.806  0.9089  0.8089 -0.0397
  907MOL0     C22348  10.795   7.579   8.750  0.6363  0.1329 -0.0016
  907MOL0     C22349  10.926   7.639   8.683 -0.0809 -0.2971  1.2580
  907MOL0     C22350  10.914   7.780   8.622 -0.3486 -0.2469  0.4398
  907MOL0     C22351  10.817   7.778   8.495 -0.1439 -0.0381 -0.8786
  907MOL0     C22352  10.804   7.922   8.444  0.2040  0.0794  1.4526
  907MOL0     C22353  10.723   7.935   8.310 -0.5774 -0.1511  0.0022
  907MOL0    Cl22354  10.787   7.843   8.185  0.1458  0.5231 -0.4587
  907MOL0     C22355  10.684   7.017   8.901  0.4728 -0.2386  0.4114
  907MOL0     C22356  10.616   6.903   8.948 -0.3850 -0.1172  0.4962
  907MOL0     O22357  10.275   6.913   9.024  0.4928 -0.6268 -0.0588
  907MOL0     C22358  10.106   6.684   9.027  0.3201  0.8074  0.1422
  907MOL0     C22359  10.019   6.577   9.046  0.2299  0.4482 -0.2522
  907MOL0     N22360   9.716   5.919   9.236  0.4994 -0.6200 -0.3910
  907MOL0     N22361   9.673   5.856   9.342  0.3383 -0.7028  0.4159
  907MOL0     C22362   9.772   5.136  10.056  0.0265 -0.8248  0.7833
  907MOL0     C22363   9.783   5.004  10.025  0.0939  0.6447 -0.6526
  907MOL0     C22364   9.855   4.604   9.784 -0.0817  0.1767 -0.7655
  907MOL0     C22365   9.959   4.548   9.858  0.6929 -0.3043  0.0951
  907MOL0     C22366   9.978   4.415   9.871 -0.3645 -0.0336 -0.0908
  907MOL0     C22367   9.909   4.330   9.782  0.1729  0.7177  0.5254
  907MOL0     O22368   9.907   4.192   9.791 -0.0677 -0.6996 -0.2454
  907MOL0     C22369  10.019   4.138   9.864 -0.1317 -0.1904 -0.5786
  907MOL0     C22370  10.019   3.987   9.855 -0.3483 -0.2990  0.2162
  907MOL0     C22371  10.028   3.941   9.714 -0.2174  0.5402  0.3284
  907MOL0     C22372   9.984   3.795   9.686  1.2931 -0.3287  0.2243
  907MOL0     C22373  10.047   3.687   9.758 -0.3345 -0.0369  0.9751
  907MOL0     C22374  10.085   3.603   9.832 -0.8339 -0.1311 -0.4986
  907MOL0     C22375   9.820   4.392   9.698  0.3535 -0.1358  0.8868
  907MOL0     C22376   9.777   4.529   9.702  0.6578  0.1576  0.1370
  907MOL0     C22377   9.654   4.569   9.618 -0.5039 -0.4137  0.6769
  907MOL0     H22378   9.981   5.007   9.767 -0.3448 -0.5005  0.4660
  907MOL0     H22379   9.965   5.245   9.793  1.2341 -0.9515  1.0394
  907MOL0     H22380   9.712   5.377  10.143 -0.0288 -1.2736 -1.2906
  907MOL0     H22381   9.733   5.531  10.072  1.6636  0.6912 -2.9665
  907MOL0     H22382   9.505   5.473  10.022 -2.4927 -2.1196 -1.7734
  907MOL0     H22383   9.552   5.311  10.006  3.5849  0.3595  1.5764
  907MOL0     H22384   9.660   5.329   9.794  1.5795  0.7970  0.3785
  907MOL0     H22385   9.681   5.499   9.815  0.7722 -1.6665 -0.6755
  907MOL0     H22386   9.440   5.351   9.701 -1.8511  0.6218 -0.0536
  907MOL0     H22387   9.401   5.499   9.805 -0.7925 -1.5363  0.7277
  907MOL0     H22388   9.568   5.623   9.679  2.7658 -1.2149  0.0992
  907MOL0     H22389   9.577   5.491   9.554 -1.3796 -0.8635 -1.5580
  907MOL0     H22390   9.321   5.524   9.529  0.1846  0.3630 -1.5072
  907MOL0     H22391   9.341   5.675   9.622  2.7119  0.3598  1.1994
  907MOL0     H22392   9.374   5.657   9.345 -1.5205  1.8252  1.1184
  907MOL0     H22393   9.537   5.634   9.393 -0.7110 -2.5017  0.0702
  907MOL0     H22394   9.354   5.867   9.435  0.5141  1.3495  0.3847
  907MOL0     H22395   9.493   5.845   9.543 -2.7326 -0.5262  2.0587
  907MOL0     H22396   9.399   5.982   9.226 -0.2119 -0.1848  2.1435
  907MOL0     H22397   9.669   5.992   8.965 -1.2706 -0.7778 -0.2703
  907MOL0     H22398   9.512   6.048   8.990 -0.3719  1.4166  0.1061
  907MOL0     H22399   9.629   6.262   8.981 -3.1270  2.4886  2.0890
  907MOL0     H22400   9.598   6.239   9.144 -1.4601  0.6390 -0.7570
  907MOL0     H22401   9.858   6.136   9.036 -0.8869  1.6412 -1.8155
  907MOL0     H22402   9.821   6.178   9.203  2.7413 -0.1578  0.0473
  907MOL0     H22403   9.816   6.417   9.153 -0.1088  1.8022 -1.8101
  907MOL0     H22404   9.851   6.395   8.988  3.9527  0.6724  0.7629
  907MOL0     H22405  10.241   6.361   9.194 -0.8586  0.3335  0.9588
  907MOL0     H22406  10.394   6.564   9.172  1.5781 -1.5994 -1.7378
  907MOL0     H22407  10.444   7.067   9.196  0.0600  0.9075 -0.8888
  907MOL0     H22408  10.582   7.261   9.100  1.0572  0.5258 -2.6190
  907MOL0     H22409  10.621   7.367   8.814 -0.1825  0.6161 -0.2015
  907MOL0     H22410  10.681   7.426   8.976  1.9550 -2.0856  1.6538
  907MOL0     H22411  10.912   7.448   8.878 -0.7833 -0.7434  2.2419
  907MOL0     H22412  10.867   7.372   8.728  1.7274 -0.4677  1.3708
  907MOL0     H22413  10.712   7.560   8.682  0.1837 -1.3458  0.8970
  907MOL0     H22414  10.769   7.650   8.829  0.3535 -0.5443  0.5214
  907MOL0     H22415  10.946   7.572   8.600 -0.7335 -1.6465  2.1525
  907MOL0     H22416  11.019   7.648   8.740  1.9515 -1.5566 -1.6338
  907MOL0     H22417  11.014   7.805   8.585 -0.5559  0.0721  0.0901
  907MOL0     H22418  10.893   7.852   8.701  1.8573  1.0747 -0.1049
  907MOL0     H22419  10.860   7.710   8.421  2.4395  1.1023 -0.5319
  907MOL0     H22420  10.712   7.759   8.517 -0.2346  1.4045  0.0825
  907MOL0     H22421  10.906   7.950   8.417 -0.1678 -1.2944 -1.8647
  907MOL0     H22422  10.767   7.986   8.524 -2.5591 -0.2753  0.5797
  907MOL0     H22423  10.621   7.896   8.314 -0.0531 -1.7449 -1.0715
  907MOL0     H22424  10.719   8.042   8.287 -2.7317 -0.3898 -0.8947
  907MOL0     H22425  10.749   7.013   8.814  2.5965 -1.3412  1.9618
  907MOL0     H22426  10.611   6.818   8.880 -2.8891 -0.0044  0.4292
  907MOL0     H22427  10.065   6.782   9.003 -0.0950  0.8487  0.9975
  907MOL0     H22428   9.922   6.598   9.001 -0.2223  1.3901  1.1184
  907MOL0     H22429   9.715   5.176  10.139  4.9867  1.2522  3.6431
  907MOL0     H22430   9.743   4.933  10.096  0.6782  0.5103 -0.4470
  907MOL0     H22431  10.014   4.601   9.935 -0.5119  1.4085 -0.1610
  907MOL0     H22432  10.049   4.381   9.945 -1.2005 -3.0008 -0.5129
  907MOL0     H22433  10.012   4.153   9.972 -0.8167 -0.1594 -0.6246
  907MOL0     H22434  10.117   4.182   9.839 -0.4192  0.6731 -0.2224
  907MOL0     H22435   9.915   3.961   9.877 -0.5341 -1.2704 -1.6205
  907MOL0     H22436  10.086   3.933   9.922 -1.5202 -3.1486 -0.7236
  907MOL0     H22437  10.133   3.941   9.684 -0.8226 -0.8254 -2.0146
  907MOL0     H22438   9.964   4.007   9.655 -1.7349 -1.1566 -0.0049
  907MOL0     H22439   9.878   3.774   9.705  1.8376 -4.3547 -0.2166
  907MOL0     H22440   9.993   3.771   9.580  2.3683  0.7495  0.0467
  907MOL0     H22441  10.136   3.537   9.899 -0.8223 -1.8766 -2.1239
  907MOL0     H22442   9.772   4.325   9.628 -0.0977  0.7073  0.3707
  907MOL0     H22443   9.583   4.618   9.686 -0.8108 -0.6735  0.5453
  907MOL0     H22444   9.673   4.630   9.529  2.2932  0.4738  1.7773
  907MOL0     H22445   9.608   4.478   9.578  1.1316 -0.9875  0.0004
  908MOL0     O22446   3.637   8.486   6.607 -0.4820  0.4527  0.3156
  908MOL0     C22447   3.518   8.515   6.607 -1.3953 -0.6621  0.0625
  908MOL0     O22448   3.463   8.616   6.541 -0.0388  0.1555  0.0138
  908MOL0     C22449   3.534   8.672   6.440  0.5982 -0.5033 -0.0016
  908MOL0     C22450   3.588   8.593   6.338  0.0140  0.3545  0.0186
  908MOL0     C22451   3.665   8.657   6.238  0.3886  0.3403  0.8693
  908MOL0     C22452   3.675   8.797   6.236 -0.8095 -0.6252  0.3842
  908MOL0     O22453   3.732   8.867   6.130  0.2849 -0.4570 -0.6246
  908MOL0     C22454   3.720   8.813   6.000 -1.1537  0.4275 -0.4506
  908MOL0     C22455   3.729   8.920   5.899  0.1292  0.4600  0.3070
  908MOL0     C22456   3.594   8.999   5.880 -0.0532 -0.3127  0.3538
  908MOL0     C22457   3.602   9.094   5.757  0.0110 -0.4405  0.3462
  908MOL0     C22458   3.564   9.035   5.619  0.6897  0.7675 -0.1605
  908MOL0     C22459   3.564   9.142   5.518 -0.1270  0.6801  0.5958
  908MOL0     C22460   3.505   9.088   5.385 -1.0649  0.1811 -0.5313
  908MOL0     C22461   3.489   9.188   5.267  0.1591  0.1967  0.9023
  908MOL0     N22462   3.617   9.251   5.227  0.7617 -0.2554  0.3504
  908MOL0     C22463   3.671   9.363   5.285 -0.6492 -0.0778  0.4207
  908MOL0     C22464   3.793   9.379   5.225  0.7844 -0.1006  0.4143
  908MOL0     C22465   3.895   9.478   5.268  0.7022 -0.5526 -0.4947
  908MOL0     C22466   4.033   9.402   5.307 -0.1123 -0.6779  0.2741
  908MOL0     C22467   4.003   9.323   5.428  0.3879  0.9450  1.0763
  908MOL0     C22468   4.122   9.332   5.531 -0.1363  0.1942 -0.6161
  908MOL0     O22469   4.239   9.270   5.475  0.1643  0.5071  0.5362
  908MOL0     C22470   4.360   9.297   5.541 -0.0188  0.1402  0.3519
  908MOL0     C22471   4.426   9.191   5.599 -0.8798  0.0450  0.2876
  908MOL0     C22472   4.561   9.209   5.636 -0.1557  0.7486 -1.1591
  908MOL0     C22473   4.625   9.339   5.630 -0.0323  0.0330 -0.8552
  908MOL0     C22474   4.767   9.352   5.673  0.1457 -0.7134 -0.3885
  908MOL0     O22475   4.806   9.478   5.692 -0.2615  0.0446 -0.4276
  908MOL0     C22476   4.932   9.515   5.716 -0.3558  0.3677  0.7092
  908MOL0     C22477   4.991   9.610   5.625 -0.0450  0.1287  0.1604
  908MOL0     C22478   5.124   9.632   5.632 -0.3027 -0.7682  0.3139
  908MOL0     C22479   5.208   9.572   5.729  1.1398  0.0977  0.5256
  908MOL0     O22480   5.337   9.605   5.741 -0.7840 -0.2063 -0.5843
  908MOL0     C22481   5.420   9.658   5.639 -0.3105 -0.4440  0.1165
  908MOL0     C22482   5.551   9.701   5.706 -0.4618 -0.0491  0.2089
  908MOL0     C22483   5.551   9.842   5.750 -0.9264  0.3190 -0.3411
  908MOL0     C22484   5.693   9.890   5.784  1.0433  0.0234 -0.0265
  908MOL0     C22485   5.700  10.040   5.816 -0.2073  0.5425 -0.4045
  908MOL0     C22486   5.838  10.106   5.814  0.3311  0.1643 -1.0352
  908MOL0     C22487   5.842  10.253   5.840 -0.1982 -0.4384 -0.4817
  908MOL0     C22488   5.985  10.314   5.823  0.9646 -0.5501 -0.2226
  908MOL0    Cl22489   6.039  10.438   5.932 -0.1013 -0.0465 -0.1580
  908MOL0     C22490   5.153   9.485   5.824  0.9467  0.2941 -1.7290
  908MOL0     C22491   5.014   9.450   5.804 -0.1795 -0.1556 -0.2579
  908MOL0     O22492   4.830   9.254   5.708  0.2978 -0.2759  0.3803
  908MOL0     C22493   4.541   9.445   5.591 -0.5845  0.0262 -0.0254
  908MOL0     C22494   4.418   9.428   5.539  0.6910 -0.5854  0.4130
  908MOL0     N22495   3.807   9.275   5.137  0.1978 -0.1696  0.1334
  908MOL0     N22496   3.704   9.202   5.138  0.2746 -0.5413 -0.0565
  908MOL0     C22497   3.621   8.861   6.347 -0.8012 -0.6125 -0.5949
  908MOL0     C22498   3.555   8.800   6.451 -0.5743 -0.4299  0.5156
  908MOL0     C22499   3.442   8.425   6.704  0.0891 -0.2545  0.6060
  908MOL0     C22500   3.518   8.325   6.775  1.0347  0.1399  0.3476
  908MOL0     C22501   3.451   8.245   6.869  0.1245  0.3746  0.3678
  908MOL0     C22502   3.310   8.254   6.890 -0.7091 -0.3821  0.0210
  908MOL0     O22503   3.256   8.179   6.990  0.4631 -0.2049 -1.1096
  908MOL0     C22504   3.169   8.079   6.943 -0.5972  0.1775  0.4210
  908MOL0     C22505   3.213   7.946   6.983 -0.9973 -0.0659  0.3355
  908MOL0     C22506   3.342   7.902   6.926 -0.7747 -0.1722  0.1905
  908MOL0     C22507   3.364   7.745   6.912 -0.1457 -1.3448  0.3728
  908MOL0     C22508   3.321   7.680   7.036  0.6710 -0.2232  0.2648
  908MOL0     C22509   3.273   7.638   7.137 -0.7323 -0.1662 -0.4790
  908MOL0     C22510   3.234   8.348   6.816 -0.5879 -0.1527 -0.0763
  908MOL0     C22511   3.303   8.440   6.734 -0.0200 -0.0063  0.4340
  908MOL0     C22512   3.213   8.537   6.669 -0.1327  0.1970 -0.9498
  908MOL0     H22513   3.591   8.484   6.336  2.6346  0.3689 -0.3814
  908MOL0     H22514   3.728   8.593   6.177 -0.3966 -0.0198  0.4130
  908MOL0     H22515   3.796   8.735   5.987 -0.0352  1.1121  1.4168
  908MOL0     H22516   3.618   8.777   5.984 -0.6676 -0.4198 -1.7704
  908MOL0     H22517   3.745   8.855   5.812  0.4493  0.8032  0.1105
  908MOL0     H22518   3.815   8.985   5.917  1.8003 -1.7409  0.6420
  908MOL0     H22519   3.578   9.046   5.978 -1.9853  0.2064 -0.1706
  908MOL0     H22520   3.508   8.933   5.872 -0.9847  0.2317  4.0330
  908MOL0     H22521   3.542   9.184   5.775 -1.6750 -0.2592 -4.4686
  908MOL0     H22522   3.702   9.136   5.747  0.9398 -2.8474 -1.6439
  908MOL0     H22523   3.627   8.949   5.594 -1.2278 -0.5220 -0.8186
  908MOL0     H22524   3.464   8.990   5.624  0.2427  1.6873 -0.5419
  908MOL0     H22525   3.525   9.237   5.554  1.2461  2.4563 -2.1937
  908MOL0     H22526   3.671   9.156   5.500 -0.0287 -0.3538  0.2937
  908MOL0     H22527   3.408   9.042   5.405 -0.8480 -0.5843 -1.1494
  908MOL0     H22528   3.573   9.009   5.351  1.1231  1.5925  0.3189
  908MOL0     H22529   3.457   9.150   5.170 -1.6592  1.4718  0.9555
  908MOL0     H22530   3.418   9.266   5.293 -0.5221 -0.8034  2.1964
  908MOL0     H22531   3.612   9.421   5.355 -1.7779 -4.1199  3.1670
  908MOL0     H22532   3.913   9.550   5.187 -0.2159  0.3070  0.0420
  908MOL0     H22533   3.856   9.529   5.356 -0.1366  0.8526 -1.6349
  908MOL0     H22534   4.089   9.345   5.231  1.6315  0.2058  0.8275
  908MOL0     H22535   4.109   9.479   5.324  1.6354 -1.6135 -2.5932
  908MOL0     H22536   3.968   9.223   5.403  1.2014  1.3964 -2.3255
  908MOL0     H22537   3.925   9.368   5.490 -3.0613 -0.6950 -1.7081
  908MOL0     H22538   4.094   9.277   5.621  2.0476 -0.1259 -0.0789
  908MOL0     H22539   4.147   9.434   5.562  0.4919 -0.7219  2.2029
  908MOL0     H22540   4.383   9.092   5.611  2.1921 -1.2962  1.2999
  908MOL0     H22541   4.614   9.122   5.673 -0.4188 -0.1276 -2.7246
  908MOL0     H22542   4.931   9.662   5.551  0.7394  0.5001 -0.2188
  908MOL0     H22543   5.176   9.700   5.564  1.6159 -2.1196  0.3506
  908MOL0     H22544   5.444   9.577   5.570  0.6556 -1.6746  1.8168
  908MOL0     H22545   5.370   9.740   5.587 -1.3358 -0.8590  0.4270
  908MOL0     H22546   5.592   9.640   5.787  0.6485  0.5273  0.1026
  908MOL0     H22547   5.627   9.693   5.628  0.0585 -1.1472  0.8021
  908MOL0     H22548   5.513   9.906   5.670 -3.2925  0.1207  0.5420
  908MOL0     H22549   5.490   9.850   5.840  2.0501 -0.1889  1.8876
  908MOL0     H22550   5.769   9.867   5.709  2.0698 -0.3069  1.0619
  908MOL0     H22551   5.731   9.841   5.875  0.5751 -2.5608 -1.1512
  908MOL0     H22552   5.656  10.049   5.916  0.7249  0.2145  0.0428
  908MOL0     H22553   5.644  10.103   5.746  1.9469  4.1376  0.8518
  908MOL0     H22554   5.900  10.055   5.888  0.4902 -1.1948 -2.0645
  908MOL0     H22555   5.886  10.080   5.719 -0.1776 -0.0420 -1.2381
  908MOL0     H22556   5.807  10.260   5.943 -2.8775  2.0404 -1.4236
  908MOL0     H22557   5.768  10.309   5.783 -0.1961  0.5188  0.4354
  908MOL0     H22558   6.053  10.232   5.847 -2.2823 -3.3933  0.0557
  908MOL0     H22559   6.013  10.350   5.723  0.2749  0.3828 -0.0982
  908MOL0     H22560   5.221   9.435   5.892 -0.5805 -2.1844 -1.8879
  908MOL0     H22561   4.966   9.374   5.865 -0.3265 -0.2433 -0.4849
  908MOL0     H22562   4.582   9.545   5.577 -2.2520  0.7736  0.1829
  908MOL0     H22563   4.371   9.513   5.491  3.0902 -0.4096 -1.8695
  908MOL0     H22564   3.636   8.969   6.353  1.8591 -0.8612 -1.3670
  908MOL0     H22565   3.510   8.849   6.537  0.2720 -0.6900  1.1293
  908MOL0     H22566   3.626   8.321   6.770  1.1364  1.6580  0.9356
  908MOL0     H22567   3.510   8.181   6.934  2.8907  1.0248 -1.3140
  908MOL0     H22568   3.182   8.078   6.834 -0.6941  1.3939  0.3906
  908MOL0     H22569   3.066   8.086   6.981 -0.2591  0.7364  1.2367
  908MOL0     H22570   3.131   7.877   6.959  0.5471 -2.2460  1.0546
  908MOL0     H22571   3.225   7.943   7.092 -1.0276 -2.4232  0.3233
  908MOL0     H22572   3.421   7.953   6.982 -2.2269 -0.3285  2.5273
  908MOL0     H22573   3.366   7.943   6.827  1.7188 -1.5940  0.1155
  908MOL0     H22574   3.316   7.699   6.826 -2.1055  0.2979  0.5040
  908MOL0     H22575   3.472   7.728   6.903 -0.4438 -2.7782 -0.8569
  908MOL0     H22576   3.221   7.604   7.224 -0.2403  2.2010  0.8222
  908MOL0     H22577   3.128   8.357   6.835 -0.2908 -0.3549  1.8091
  908MOL0     H22578   3.105   8.526   6.684 -0.3907  0.6049 -2.3559
  908MOL0     H22579   3.247   8.632   6.711 -0.2274  0.5457 -1.6331
  908MOL0     H22580   3.237   8.537   6.562 -2.4300  0.5123 -1.5271
  909MOL0     O22581   9.013   7.718   6.914 -0.0267  0.3052  0.1451
  909MOL0     C22582   9.072   7.611   6.899 -1.4732  0.1075 -0.3932
  909MOL0     O22583   9.186   7.574   6.972 -0.3159 -0.1355  0.6667
  909MOL0     C22584   9.244   7.676   7.051 -0.6434  0.3812 -0.8486
  909MOL0     C22585   9.183   7.759   7.143  0.0929  0.3518 -0.2697
  909MOL0     C22586   9.254   7.842   7.233  0.1068 -0.2179  0.9413
  909MOL0     C22587   9.394   7.857   7.216  0.1671 -0.4183  0.4198
  909MOL0     O22588   9.470   7.938   7.296 -0.7390  0.6307  0.5215
  909MOL0     C22589   9.415   8.021   7.392  0.4012 -0.2396 -0.0275
  909MOL0     C22590   9.526   8.100   7.456  1.0712 -0.3752 -0.9562
  909MOL0     C22591   9.596   8.037   7.578  0.4318 -1.2391  0.2485
  909MOL0     C22592   9.701   8.136   7.624 -0.1603  1.0702  0.5734
  909MOL0     C22593   9.789   8.075   7.740  0.1813  0.4009  0.1724
  909MOL0     C22594   9.845   7.936   7.719  0.2394 -0.3079 -0.3767
  909MOL0     C22595   9.928   7.876   7.836  0.1140  0.2912  1.0578
  909MOL0     C22596  10.025   7.977   7.887 -0.0734 -0.4156 -0.6756
  909MOL0     N22597  10.110   7.915   7.994 -0.6299  0.9373  1.0227
  909MOL0     C22598  10.209   7.827   7.962  1.3395  0.5951  0.2218
  909MOL0     C22599  10.264   7.789   8.075  0.7701  0.3473  0.9133
  909MOL0     C22600  10.370   7.684   8.095  0.0128 -0.1115 -0.4685
  909MOL0     C22601  10.312   7.544   8.084 -1.0790 -0.5914  0.7496
  909MOL0     C22602  10.222   7.519   8.209 -0.1990 -0.7533  0.5520
  909MOL0     C22603  10.175   7.370   8.209  0.0815 -1.3796  0.0746
  909MOL0     O22604  10.048   7.352   8.275 -0.1905  0.2632 -0.7138
  909MOL0     C22605   9.937   7.335   8.192  0.2504 -0.5275  0.8306
  909MOL0     C22606   9.925   7.405   8.075 -0.5183 -0.3407  0.4404
  909MOL0     C22607   9.819   7.374   7.986  0.9142 -0.3507 -0.2147
  909MOL0     C22608   9.713   7.283   8.021 -0.1976 -1.1122 -0.1116
  909MOL0     C22609   9.603   7.266   7.926  0.2665  0.0543 -0.3758
  909MOL0     O22610   9.500   7.195   7.966 -1.2117 -0.2501  0.3934
  909MOL0     C22611   9.386   7.182   7.893 -0.7453 -0.0910 -0.4651
  909MOL0     C22612   9.367   7.067   7.821  0.0143 -0.2715 -0.4880
  909MOL0     C22613   9.242   7.058   7.756  0.8038 -0.9075 -0.6554
  909MOL0     C22614   9.144   7.160   7.753  0.4049  0.4819 -0.7378
  909MOL0     O22615   9.029   7.143   7.682  1.0079 -0.4261 -0.0678
  909MOL0     C22616   8.965   7.015   7.680  0.1811  0.9482  1.1064
  909MOL0     C22617   8.986   6.972   7.525  0.7691  0.0010 -0.0349
  909MOL0     C22618   8.891   6.861   7.495  0.0735  0.1895 -0.3707
  909MOL0     C22619   8.930   6.779   7.370 -0.6845  0.4057 -1.0726
  909MOL0     C22620   8.854   6.650   7.387  0.3194  1.5941  0.1961
  909MOL0     C22621   8.708   6.660   7.358  1.2244 -0.1174  0.0280
  909MOL0     C22622   8.659   6.600   7.236  0.1243 -0.3001 -0.0512
  909MOL0     C22623   8.656   6.451   7.261  0.4345 -0.0660  0.0103
  909MOL0    Cl22624   8.522   6.400   7.370 -0.0013  0.2853  0.4615
  909MOL0     C22625   9.176   7.279   7.824 -0.3390  0.2692  0.9463
  909MOL0     C22626   9.297   7.295   7.890 -0.2248  0.1079 -0.1843
  909MOL0     O22627   9.601   7.336   7.827  0.0125 -0.2259 -0.0518
  909MOL0     C22628   9.719   7.229   8.151  0.6400 -0.0922 -0.1658
  909MOL0     C22629   9.839   7.247   8.226 -0.0742 -0.3009 -0.2261
  909MOL0     N22630  10.212   7.869   8.181 -0.8111 -0.0576 -0.0469
  909MOL0     N22631  10.125   7.949   8.123  0.1438  0.1914 -0.8297
  909MOL0     C22632   9.462   7.772   7.125  0.4726  0.5540 -0.3319
  909MOL0     C22633   9.385   7.681   7.052 -0.4228 -0.2106 -0.4527
  909MOL0     C22634   9.024   7.517   6.793 -0.6064  0.4533  0.0371
  909MOL0     C22635   8.893   7.464   6.804 -0.3893  0.8415 -0.1034
  909MOL0     C22636   8.842   7.375   6.704  0.1515 -0.2126 -0.3170
  909MOL0     C22637   8.921   7.332   6.601 -0.6707 -1.0841 -0.2937
  909MOL0     O22638   8.866   7.257   6.507  1.4494  0.3171 -0.3175
  909MOL0     C22639   8.789   7.143   6.558  0.2062  0.3451  0.4295
  909MOL0     C22640   8.818   7.011   6.484 -0.2246  0.0000  0.9178
  909MOL0     C22641   8.798   7.026   6.327  0.4263  0.5354 -0.4547
  909MOL0     C22642   8.829   6.902   6.237 -0.0211  0.6479 -0.6309
  909MOL0     C22643   8.944   6.820   6.291  0.6329 -1.1343  0.6651
  909MOL0     C22644   9.045   6.768   6.328 -0.4531  0.4319  1.1385
  909MOL0     C22645   9.053   7.388   6.590  0.8297  0.7567  0.3143
  909MOL0     C22646   9.103   7.475   6.685  0.8794 -0.6555 -0.7911
  909MOL0     C22647   9.245   7.533   6.666  1.1268 -0.4962  0.4438
  909MOL0     H22648   9.077   7.745   7.159  0.2562  0.2730  0.8152
  909MOL0     H22649   9.189   7.888   7.308 -1.0772 -0.9347  0.3901
  909MOL0     H22650   9.346   8.096   7.351  1.1120  1.1225  1.1762
  909MOL0     H22651   9.367   7.975   7.479 -0.6497  1.5618  0.4002
  909MOL0     H22652   9.509   8.206   7.478 -0.9829 -0.2447 -2.8170
  909MOL0     H22653   9.601   8.121   7.378  1.8368 -0.5575 -0.2800
  909MOL0     H22654   9.636   7.946   7.535  1.3131  0.0502 -1.7994
  909MOL0     H22655   9.516   8.007   7.646 -0.9123  1.9185  0.2708
  909MOL0     H22656   9.762   8.159   7.536 -4.0218  4.8313 -1.4697
  909MOL0     H22657   9.643   8.222   7.657  0.8698  1.2620  1.9300
  909MOL0     H22658   9.879   8.138   7.735 -0.8674  1.8602 -2.0149
  909MOL0     H22659   9.746   8.095   7.838  0.7988  1.0239  0.3294
  909MOL0     H22660   9.772   7.857   7.697  1.3994 -1.7381  0.6773
  909MOL0     H22661   9.909   7.942   7.630  1.2813 -2.2630  0.1735
  909MOL0     H22662   9.977   7.787   7.794 -3.0402 -0.9772 -0.2366
  909MOL0     H22663   9.855   7.841   7.909 -0.6136 -1.4989 -0.4611
  909MOL0     H22664  10.088   8.015   7.806  1.1863  2.4549  1.4561
  909MOL0     H22665   9.971   8.065   7.924 -0.8941 -0.3769 -1.9405
  909MOL0     H22666  10.221   7.775   7.868  1.9237  0.7810  0.1907
  909MOL0     H22667  10.450   7.707   8.024  2.5283  1.2224  2.5402
  909MOL0     H22668  10.412   7.697   8.195  1.3322  1.9361 -1.2352
  909MOL0     H22669  10.255   7.526   7.992  0.0575  0.8431 -0.2794
  909MOL0     H22670  10.397   7.476   8.082 -3.0812 -3.2530 -0.1445
  909MOL0     H22671  10.142   7.592   8.221  1.8035  1.3951  1.7693
  909MOL0     H22672  10.280   7.529   8.302  2.1114 -1.3901 -0.7396
  909MOL0     H22673  10.240   7.305   8.267 -1.7707 -1.0204  2.7585
  909MOL0     H22674  10.163   7.337   8.106 -0.4333 -0.6102 -0.1184
  909MOL0     H22675   9.995   7.483   8.046  0.4525 -1.7256 -1.0748
  909MOL0     H22676   9.813   7.426   7.891  0.1618  1.3805  0.7180
  909MOL0     H22677   9.436   6.983   7.825 -1.0130 -1.0846  0.6873
  909MOL0     H22678   9.213   6.977   7.689 -1.1196  0.4953 -1.6079
  909MOL0     H22679   9.006   6.951   7.758  0.5494 -0.8758 -0.4937
  909MOL0     H22680   8.857   7.018   7.701 -0.5646  1.7525 -2.1733
  909MOL0     H22681   8.951   7.046   7.452 -0.6330  0.0711  0.6871
  909MOL0     H22682   9.093   6.961   7.504  0.5921 -1.3198 -0.3293
  909MOL0     H22683   8.889   6.794   7.581 -0.0119  2.1675  1.2490
  909MOL0     H22684   8.792   6.905   7.478  0.5758  1.3147 -0.4347
  909MOL0     H22685   9.036   6.753   7.381 -1.4164 -2.2672  0.6642
  909MOL0     H22686   8.916   6.831   7.275  1.2082  1.2298 -0.9560
  909MOL0     H22687   8.867   6.615   7.490 -0.9591  1.2589  0.2620
  909MOL0     H22688   8.900   6.589   7.309 -0.3024  1.6589 -0.2341
  909MOL0     H22689   8.665   6.613   7.447  0.9881 -0.5547 -0.3163
  909MOL0     H22690   8.670   6.763   7.350 -0.5667 -0.8871 -2.3722
  909MOL0     H22691   8.733   6.629   7.161  1.3317 -0.3540  1.0863
  909MOL0     H22692   8.558   6.634   7.209 -1.1723 -4.8398 -1.8026
  909MOL0     H22693   8.637   6.408   7.162 -1.4983  1.5461 -0.3733
  909MOL0     H22694   8.750   6.409   7.300  1.1898  1.6678  0.1867
  909MOL0     H22695   9.098   7.355   7.832  0.7582  1.2493  3.3233
  909MOL0     H22696   9.311   7.382   7.954 -1.9381 -1.3664  2.3904
  909MOL0     H22697   9.642   7.160   8.183 -0.6044  0.8883 -0.9566
  909MOL0     H22698   9.844   7.193   8.320 -0.8965 -1.8447 -1.0233
  909MOL0     H22699   9.570   7.765   7.119  0.3142 -2.1191 -1.1066
  909MOL0     H22700   9.450   7.632   6.981 -0.3066 -0.4795 -0.1656
  909MOL0     H22701   8.825   7.482   6.886  1.3086  1.2661  1.2686
  909MOL0     H22702   8.737   7.350   6.713 -0.0365  0.6151 -0.1032
  909MOL0     H22703   8.682   7.157   6.546  0.1660 -1.4172 -2.1262
  909MOL0     H22704   8.819   7.119   6.661  0.3360 -3.8099 -0.4074
  909MOL0     H22705   8.753   6.935   6.527 -0.5798 -1.4069 -1.8381
  909MOL0     H22706   8.924   6.989   6.500  0.0715  0.1232 -0.6938
  909MOL0     H22707   8.858   7.110   6.290  3.3370 -2.1351 -2.3292
  909MOL0     H22708   8.692   7.038   6.303 -0.5561 -2.8961  1.4790
  909MOL0     H22709   8.742   6.838   6.252  0.6925  0.0036  0.8869
  909MOL0     H22710   8.844   6.937   6.134 -3.3283  2.2261 -0.7228
  909MOL0     H22711   9.136   6.715   6.348  0.7840  1.2062 -1.7994
  909MOL0     H22712   9.110   7.368   6.499 -2.0240 -4.1497 -0.7494
  909MOL0     H22713   9.318   7.506   6.742  2.7219 -1.8663 -1.4631
  909MOL0     H22714   9.283   7.507   6.567  0.9572 -1.0760  0.5293
  909MOL0     H22715   9.225   7.640   6.658 -1.4888 -0.9414 -0.0128
  910MOL0     O22716   7.344   5.444   6.302  0.5493 -0.5056 -0.0823
  910MOL0     C22717   7.254   5.534   6.329 -0.3702 -0.2305  0.3311
  910MOL0     O22718   7.258   5.660   6.276 -0.0155  0.6945  0.3285
  910MOL0     C22719   7.356   5.675   6.188  0.1116 -1.1895  0.0451
  910MOL0     C22720   7.346   5.637   6.053 -0.0654  0.1674  0.0616
  910MOL0     C22721   7.452   5.650   5.966 -0.3530 -0.4478  1.9453
  910MOL0     C22722   7.574   5.695   6.010 -0.2248 -0.2383  0.0207
  910MOL0     O22723   7.682   5.682   5.922  0.3344 -0.7155  0.5912
  910MOL0     C22724   7.819   5.697   5.977  0.7971  0.1254  0.1040
  910MOL0     C22725   7.919   5.675   5.860 -0.4536 -0.8425  1.0748
  910MOL0     C22726   7.932   5.820   5.791 -0.8277  0.3380 -0.2071
  910MOL0     C22727   8.035   5.814   5.678  0.4227 -0.8780  0.7691
  910MOL0     C22728   8.048   5.949   5.598  0.0012 -1.3442  0.4812
  910MOL0     C22729   8.165   5.966   5.507  0.6384 -0.2827 -0.7954
  910MOL0     C22730   8.156   5.873   5.389  0.1031  0.3029 -0.7516
  910MOL0     C22731   8.274   5.899   5.283  0.1306 -0.4984  0.6717
  910MOL0     N22732   8.409   5.846   5.321 -0.2610 -0.5657 -0.6421
  910MOL0     C22733   8.425   5.727   5.383  0.3429 -0.5272 -0.2243
  910MOL0     C22734   8.543   5.744   5.445 -0.3762  0.8674  0.1433
  910MOL0     C22735   8.620   5.654   5.537 -0.1862 -0.7079  0.5058
  910MOL0     C22736   8.562   5.637   5.683 -0.0704 -0.0256  0.7465
  910MOL0     C22737   8.405   5.619   5.679 -0.1560  0.2025  0.5780
  910MOL0     C22738   8.353   5.566   5.812 -0.1362 -0.5162 -0.1923
  910MOL0     O22739   8.423   5.624   5.918  0.2369 -0.0052 -0.2003
  910MOL0     C22740   8.392   5.605   6.048 -0.1040 -0.2771 -0.5468
  910MOL0     C22741   8.308   5.504   6.100  0.2969 -0.5481  0.8097
  910MOL0     C22742   8.297   5.484   6.231  1.5455  0.6183 -0.3640
  910MOL0     C22743   8.356   5.568   6.327 -0.7640  0.0117  0.2978
  910MOL0     C22744   8.320   5.566   6.471 -0.4038 -0.4567  0.3661
  910MOL0     O22745   8.202   5.503   6.497 -0.5788 -0.3303 -1.1990
  910MOL0     C22746   8.143   5.495   6.624  0.5337 -0.0628 -0.6329
  910MOL0     C22747   8.106   5.370   6.678 -0.9074 -1.6402  0.7811
  910MOL0     C22748   8.040   5.359   6.800  0.1524  0.3225  1.0346
  910MOL0     C22749   8.012   5.472   6.873  0.3624 -0.0567 -0.0034
  910MOL0     O22750   7.945   5.454   6.989 -0.0069  0.3619  0.4710
  910MOL0     C22751   7.940   5.565   7.092 -0.0829  0.5135 -0.4121
  910MOL0     C22752   7.830   5.656   7.067 -0.3307 -1.0306 -0.1696
  910MOL0     C22753   7.855   5.792   7.127 -0.8848 -0.3707 -0.0294
  910MOL0     C22754   7.902   5.799   7.278  0.2470  0.9868 -0.2153
  910MOL0     C22755   7.873   5.945   7.334 -0.1171 -0.2309  1.0934
  910MOL0     C22756   7.726   5.963   7.370 -0.0375  0.3558  0.3526
  910MOL0     C22757   7.708   6.109   7.433  0.0005 -0.7404 -0.3253
  910MOL0     C22758   7.796   6.146   7.560 -0.4402  0.0451  0.0959
  910MOL0    Cl22759   7.728   6.287   7.645 -0.2206 -0.0322  0.0762
  910MOL0     C22760   8.044   5.595   6.817  0.5362 -0.6149 -1.0698
  910MOL0     C22761   8.110   5.610   6.692 -0.3028  0.1482 -0.4423
  910MOL0     O22762   8.398   5.618   6.555 -0.1927  0.0744 -0.0903
  910MOL0     C22763   8.453   5.659   6.273 -1.0153  0.3591  0.0611
  910MOL0     C22764   8.466   5.676   6.141 -0.0462  1.0369  0.3627
  910MOL0     N22765   8.589   5.873   5.426  0.1633 -0.1665 -0.1498
  910MOL0     N22766   8.505   5.932   5.358  0.3185 -0.5275 -0.5459
  910MOL0     C22767   7.589   5.722   6.147  0.1787  0.2200 -0.0069
  910MOL0     C22768   7.481   5.714   6.231  0.5696 -0.0624 -0.6545
  910MOL0     C22769   7.142   5.510   6.425 -0.8702 -0.3842 -0.5284
  910MOL0     C22770   7.030   5.596   6.438 -0.0856 -0.8588 -0.8584
  910MOL0     C22771   6.923   5.562   6.519  0.3514 -0.6483  0.8648
  910MOL0     C22772   6.927   5.456   6.596 -0.1637 -0.0059 -0.7346
  910MOL0     O22773   6.815   5.451   6.677  0.6103 -0.1925  0.4195
  910MOL0     C22774   6.795   5.342   6.772 -0.1115 -0.4661  0.9100
  910MOL0     C22775   6.654   5.337   6.830 -0.4273  0.2826  0.4789
  910MOL0     C22776   6.613   5.480   6.882  0.1468 -0.4101 -0.3102
  910MOL0     C22777   6.536   5.466   7.015  0.2871 -0.2018  0.2792
  910MOL0     C22778   6.627   5.496   7.123  0.2915  0.5555 -0.2574
  910MOL0     C22779   6.718   5.520   7.209  0.7552 -0.2401 -0.5712
  910MOL0     C22780   7.038   5.377   6.615  0.2129  0.8084 -0.1787
  910MOL0     C22781   7.145   5.395   6.518 -0.6858 -0.0239  0.0661
  910MOL0     C22782   7.265   5.306   6.520 -1.0784  0.4079 -0.6113
  910MOL0     H22783   7.253   5.593   6.018  0.1030  2.2587 -3.3875
  910MOL0     H22784   7.448   5.613   5.864 -1.5628  0.7500  1.5345
  910MOL0     H22785   7.838   5.796   6.020  0.9484  1.4761 -2.8216
  910MOL0     H22786   7.835   5.618   6.050 -1.7091  0.9266  1.6175
  910MOL0     H22787   7.889   5.601   5.786  3.1703 -0.9920 -0.4264
  910MOL0     H22788   8.014   5.649   5.908 -0.9277  0.9148  3.1826
  910MOL0     H22789   7.976   5.899   5.853 -1.8044  1.1622 -0.5289
  910MOL0     H22790   7.833   5.859   5.768 -0.8680  1.0095  1.0178
  910MOL0     H22791   8.133   5.796   5.723  1.0808  3.1948  1.3746
  910MOL0     H22792   8.009   5.727   5.616 -3.4945  0.7270 -0.1147
  910MOL0     H22793   7.957   5.957   5.538  1.5645 -0.4415 -1.9154
  910MOL0     H22794   8.050   6.042   5.656  2.8880 -2.2075  1.9342
  910MOL0     H22795   8.146   6.066   5.467  3.3373  0.7370  0.2950
  910MOL0     H22796   8.258   5.965   5.564  0.2593  2.5005  0.0027
  910MOL0     H22797   8.062   5.897   5.339  0.3061  0.7948 -0.9070
  910MOL0     H22798   8.146   5.770   5.423  1.3032  1.5686  4.2635
  910MOL0     H22799   8.252   5.850   5.188 -0.8011  0.4431  0.3830
  910MOL0     H22800   8.267   6.006   5.262 -1.4449 -0.8008 -0.5394
  910MOL0     H22801   8.358   5.642   5.382 -0.5511 -0.0080  3.0173
  910MOL0     H22802   8.626   5.555   5.490 -1.7410  0.1202 -1.6392
  910MOL0     H22803   8.723   5.686   5.549 -0.7165  0.9595  0.8111
  910MOL0     H22804   8.621   5.553   5.723  0.5507 -0.8812 -1.8157
  910MOL0     H22805   8.577   5.723   5.749 -0.6704 -0.4670  1.4825
  910MOL0     H22806   8.375   5.553   5.597  0.8798 -0.7241  0.9121
  910MOL0     H22807   8.352   5.714   5.664  0.7461  0.8194  1.1798
  910MOL0     H22808   8.373   5.458   5.818 -0.9723 -0.7362 -1.1300
  910MOL0     H22809   8.244   5.579   5.814  0.1126  2.1081 -0.0194
  910MOL0     H22810   8.243   5.451   6.030  0.8394  0.3500 -0.4135
  910MOL0     H22811   8.217   5.413   6.248  0.9096  1.0763 -1.3568
  910MOL0     H22812   8.130   5.288   6.610  0.7453 -0.5922  0.0402
  910MOL0     H22813   8.006   5.265   6.843  4.4621 -0.1535  4.0773
  910MOL0     H22814   7.922   5.531   7.195 -3.1274  1.9003 -0.3862
  910MOL0     H22815   8.037   5.616   7.092 -0.2659  0.8629 -0.7123
  910MOL0     H22816   7.813   5.655   6.959 -0.9088 -1.8850 -0.0794
  910MOL0     H22817   7.736   5.622   7.112 -0.2495 -1.4679 -0.3284
  910MOL0     H22818   7.938   5.834   7.069 -0.4606  0.9237  1.4667
  910MOL0     H22819   7.771   5.854   7.095  1.9125  2.1285 -3.3555
  910MOL0     H22820   8.010   5.782   7.291 -0.0775 -0.7290  0.6350
  910MOL0     H22821   7.852   5.723   7.339 -1.0253  2.1535  0.2312
  910MOL0     H22822   7.909   6.018   7.261  0.4746 -0.9254  0.6742
  910MOL0     H22823   7.928   5.955   7.428 -0.1062 -0.2160  1.0855
  910MOL0     H22824   7.659   5.946   7.285  0.3397 -0.3375  0.1881
  910MOL0     H22825   7.704   5.887   7.446 -2.9439  1.3145  0.5905
  910MOL0     H22826   7.605   6.120   7.467  0.0681  2.6648 -0.8486
  910MOL0     H22827   7.725   6.188   7.359 -2.3550  1.6347  1.5110
  910MOL0     H22828   7.802   6.061   7.628  0.1608 -1.4737 -1.7983
  910MOL0     H22829   7.892   6.173   7.515 -2.0296  1.3392 -2.8099
  910MOL0     H22830   8.013   5.678   6.879  0.5989 -1.2125 -0.2148
  910MOL0     H22831   8.143   5.706   6.653  1.7081  0.1526  1.1107
  910MOL0     H22832   8.511   5.719   6.342 -3.4335  2.0726  0.7102
  910MOL0     H22833   8.545   5.733   6.093 -2.4539  2.3370 -2.3560
  910MOL0     H22834   7.686   5.758   6.179  0.2594 -1.6067  2.0353
  910MOL0     H22835   7.483   5.729   6.339  3.8738 -1.2977 -0.4152
  910MOL0     H22836   7.022   5.693   6.392 -1.2466  2.9620  5.9841
  910MOL0     H22837   6.839   5.631   6.528 -0.9566 -1.7683 -1.7279
  910MOL0     H22838   6.869   5.342   6.852 -0.4483  2.4486  1.3231
  910MOL0     H22839   6.804   5.249   6.715 -1.5047 -1.4948  2.2758
  910MOL0     H22840   6.657   5.267   6.914 -0.3385  2.7390  2.6341
  910MOL0     H22841   6.592   5.308   6.745  1.0570 -2.0621  0.0921
  910MOL0     H22842   6.546   5.525   6.808  1.3845 -1.2394 -2.0203
  910MOL0     H22843   6.696   5.551   6.886 -1.9872  2.2176  2.7718
  910MOL0     H22844   6.454   5.539   7.020 -0.8155 -1.3924  6.0317
  910MOL0     H22845   6.503   5.365   7.038  3.1470 -1.1528  0.6584
  910MOL0     H22846   6.789   5.513   7.288  2.4733 -1.4501 -2.1466
  910MOL0     H22847   7.043   5.298   6.689 -0.3167 -1.2782 -2.2201
  910MOL0     H22848   7.358   5.355   6.550  0.5811 -2.1785 -1.1834
  910MOL0     H22849   7.239   5.224   6.588 -2.2373  1.9254  0.8729
  910MOL0     H22850   7.294   5.245   6.434 -2.3717 -0.1045 -0.7121
  911MOL0     O22851   6.897   3.135   2.468  0.2190 -0.5407  0.0160
  911MOL0     C22852   6.906   3.202   2.564 -0.5190 -0.6258 -0.2623
  911MOL0     O22853   7.029   3.257   2.608 -0.5830  0.1228 -1.0579
  911MOL0     C22854   7.144   3.194   2.574 -0.3467  0.3580  1.2194
  911MOL0     C22855   7.158   3.053   2.557  0.8578 -0.4343  0.1035
  911MOL0     C22856   7.279   2.995   2.519  0.2410  0.2564  0.4472
  911MOL0     C22857   7.391   3.068   2.508  0.1881 -0.1217  0.8335
  911MOL0     O22858   7.502   3.000   2.483  0.5479 -0.4000  0.4656
  911MOL0     C22859   7.627   3.047   2.547  0.6870  0.0004  0.9012
  911MOL0     C22860   7.733   2.951   2.541 -0.0249 -0.2695 -0.8235
  911MOL0     C22861   7.776   2.922   2.389 -0.5619 -0.2896 -0.4815
  911MOL0     C22862   7.893   2.813   2.412  0.0986 -0.1841  0.3461
  911MOL0     C22863   7.908   2.738   2.275 -0.7012  0.1357 -0.1617
  911MOL0     C22864   7.998   2.811   2.177 -0.2856 -0.7777  0.6210
  911MOL0     C22865   7.997   2.730   2.053 -0.2558  0.6758  0.8662
  911MOL0     C22866   8.125   2.762   1.970  0.4734 -0.0066 -0.7812
  911MOL0     N22867   8.127   2.718   1.832 -0.3476 -0.2644  0.2781
  911MOL0     C22868   8.068   2.603   1.780 -0.5057  0.4906  0.6165
  911MOL0     C22869   8.072   2.618   1.642 -0.7254 -0.0255 -0.3878
  911MOL0     C22870   8.032   2.507   1.547 -0.2239  0.4882  0.8229
  911MOL0     C22871   8.113   2.516   1.417 -0.2735  0.1574 -0.1561
  911MOL0     C22872   8.114   2.371   1.358  0.7599 -0.4945  0.6100
  911MOL0     C22873   8.184   2.366   1.219 -0.2124 -0.3635 -0.2920
  911MOL0     O22874   8.322   2.389   1.235 -0.0722 -0.0560 -0.0834
  911MOL0     C22875   8.412   2.291   1.272  0.3591 -0.2326  0.6214
  911MOL0     C22876   8.381   2.154   1.277 -0.3204 -0.4106 -0.1630
  911MOL0     C22877   8.481   2.063   1.311  0.0766  0.3775  0.3721
  911MOL0     C22878   8.612   2.102   1.346 -0.3285 -0.1502 -0.7968
  911MOL0     C22879   8.721   2.008   1.387 -0.1275  0.0625  0.6855
  911MOL0     O22880   8.842   2.058   1.437  0.4023  1.2204  0.0421
  911MOL0     C22881   8.934   1.985   1.504  1.2279  0.6280 -0.3965
  911MOL0     C22882   9.058   2.048   1.525  0.3304  0.9288 -0.0761
  911MOL0     C22883   9.162   1.983   1.586  0.0555  0.0167 -0.2689
  911MOL0     C22884   9.153   1.844   1.617  0.0696 -0.5954 -0.1573
  911MOL0     O22885   9.247   1.770   1.679  0.1414 -0.5429 -0.2790
  911MOL0     C22886   9.339   1.715   1.593 -0.4477 -0.3931 -0.3086
  911MOL0     C22887   9.307   1.567   1.569  0.2452 -0.6536 -0.1707
  911MOL0     C22888   9.318   1.491   1.684  0.1531  0.5972 -0.2747
  911MOL0     C22889   9.327   1.344   1.645  0.7101  0.0442 -0.1266
  911MOL0     C22890   9.351   1.236   1.741  0.0370  1.0602  0.1617
  911MOL0     C22891   9.494   1.216   1.790 -0.2074 -0.1947 -0.0540
  911MOL0     C22892   9.570   1.118   1.707 -1.4230 -1.0007 -0.1027
  911MOL0     C22893   9.707   1.102   1.767 -0.1578  0.3219 -0.2329
  911MOL0    Cl22894   9.790   0.942   1.711  0.2327  0.1446  0.0753
  911MOL0     C22895   9.032   1.778   1.597 -0.5452  0.7813  0.4042
  911MOL0     C22896   8.934   1.845   1.530  0.2530 -0.6555  0.5650
  911MOL0     O22897   8.689   1.896   1.367 -0.0870  0.4079  0.5533
  911MOL0     C22898   8.642   2.239   1.336  0.0955 -0.5411 -0.0264
  911MOL0     C22899   8.539   2.334   1.299 -0.2626  0.0824 -0.1462
  911MOL0     N22900   8.145   2.740   1.610  0.8622  0.5857  0.0739
  911MOL0     N22901   8.189   2.794   1.724  1.5619  0.2150  0.8008
  911MOL0     C22902   7.386   3.210   2.517 -0.6340 -0.6690  0.1426
  911MOL0     C22903   7.263   3.272   2.563 -0.4410 -0.6271  0.3071
  911MOL0     C22904   6.775   3.246   2.631  0.0185  0.2461 -0.2351
  911MOL0     C22905   6.797   3.323   2.749  0.2005 -0.8164 -0.0360
  911MOL0     C22906   6.685   3.354   2.824  0.3582 -0.2399 -0.4638
  911MOL0     C22907   6.552   3.334   2.787 -0.8822 -0.1861 -0.8169
  911MOL0     O22908   6.448   3.383   2.865  0.3904 -0.0587 -0.2409
  911MOL0     C22909   6.344   3.282   2.902 -0.6051  0.1719  0.2254
  911MOL0     C22910   6.275   3.325   3.036  0.2128  0.2385  0.0194
  911MOL0     C22911   6.188   3.211   3.099 -0.3496  0.9818 -0.5027
  911MOL0     C22912   6.241   3.168   3.236 -0.1106  0.3424  0.3449
  911MOL0     C22913   6.185   3.048   3.287  0.0981 -0.6258 -0.5341
  911MOL0     C22914   6.125   2.958   3.352  0.3149 -0.5804  0.1499
  911MOL0     C22915   6.536   3.273   2.663  0.0181  0.2758  1.0450
  911MOL0     C22916   6.639   3.218   2.587  0.3529 -0.1572  0.5945
  911MOL0     C22917   6.602   3.115   2.476 -0.2450  1.4993  0.2301
  911MOL0     H22918   7.073   2.989   2.579 -2.9412  3.0347 -2.9194
  911MOL0     H22919   7.269   2.887   2.521 -1.3232  0.3524 -0.4206
  911MOL0     H22920   7.659   3.138   2.495 -1.1316  0.8044  1.0984
  911MOL0     H22921   7.610   3.063   2.654 -1.4133 -1.5889  0.8796
  911MOL0     H22922   7.695   2.859   2.585  0.2651  0.4227  0.9354
  911MOL0     H22923   7.813   2.987   2.605 -1.5011 -1.3782  1.7758
  911MOL0     H22924   7.822   3.007   2.338  0.7266  2.2477  4.3707
  911MOL0     H22925   7.692   2.885   2.330 -2.4264 -1.7862  2.8332
  911MOL0     H22926   7.987   2.857   2.446 -0.8591  2.9339 -0.6691
  911MOL0     H22927   7.866   2.738   2.486  0.1536  2.6007  3.4188
  911MOL0     H22928   7.950   2.639   2.290 -1.8900 -0.0664  2.2389
  911MOL0     H22929   7.812   2.736   2.221 -0.6178  2.3851 -0.5075
  911MOL0     H22930   7.948   2.906   2.153 -2.6998 -0.9900  4.0594
  911MOL0     H22931   8.100   2.825   2.212 -0.3094 -0.6931  0.6567
  911MOL0     H22932   7.909   2.753   1.993  0.7224 -0.2038 -1.0102
  911MOL0     H22933   8.006   2.625   2.082 -1.2359  0.6205  1.0069
  911MOL0     H22934   8.119   2.871   1.964  0.0063 -0.0306 -0.7973
  911MOL0     H22935   8.226   2.747   2.007  0.8856  2.9311 -0.4706
  911MOL0     H22936   8.036   2.518   1.839  3.1540 -0.4394  1.5475
  911MOL0     H22937   8.046   2.416   1.606  1.4100  0.9111  1.1528
  911MOL0     H22938   7.927   2.521   1.518  0.5212  1.3671 -1.6617
  911MOL0     H22939   8.079   2.594   1.349  0.8969  1.0034  0.1864
  911MOL0     H22940   8.218   2.545   1.433  0.3216  0.3695 -3.6616
  911MOL0     H22941   8.009   2.344   1.342  0.7557 -0.3438  0.3756
  911MOL0     H22942   8.153   2.291   1.422  1.3011  0.0443  0.9648
  911MOL0     H22943   8.162   2.452   1.155  2.6713  1.5629  1.0940
  911MOL0     H22944   8.158   2.272   1.170  1.3273 -1.7005  1.3288
  911MOL0     H22945   8.280   2.138   1.241 -1.7105  3.3334  1.5862
  911MOL0     H22946   8.459   1.957   1.310  2.8194 -0.2490 -0.2933
  911MOL0     H22947   9.056   2.154   1.506 -2.5490  0.5702 -2.5580
  911MOL0     H22948   9.250   2.035   1.621 -0.6407 -0.2413  2.0399
  911MOL0     H22949   9.323   1.767   1.498 -2.7078  1.0360  0.7639
  911MOL0     H22950   9.441   1.736   1.626 -0.1802  2.2100 -2.4206
  911MOL0     H22951   9.208   1.551   1.526 -0.8940 -0.3916  2.1948
  911MOL0     H22952   9.382   1.530   1.498 -1.4533 -4.1290 -0.3600
  911MOL0     H22953   9.414   1.508   1.734  1.3312 -0.1907 -2.1505
  911MOL0     H22954   9.231   1.519   1.744 -0.7255 -2.0535 -0.2067
  911MOL0     H22955   9.392   1.323   1.559 -0.0520  0.5137 -0.8201
  911MOL0     H22956   9.227   1.321   1.607  1.2067 -2.4414 -0.1241
  911MOL0     H22957   9.311   1.144   1.698  1.0106  0.9573 -0.5626
  911MOL0     H22958   9.298   1.256   1.835 -0.4582  3.1000 -0.5163
  911MOL0     H22959   9.559   1.303   1.801 -1.1763  0.2005  4.3488
  911MOL0     H22960   9.492   1.185   1.894  3.3252  3.2304  1.2893
  911MOL0     H22961   9.592   1.159   1.608 -0.0684  1.6017  1.1605
  911MOL0     H22962   9.527   1.018   1.699  0.3036 -1.6664 -1.6059
  911MOL0     H22963   9.763   1.187   1.726 -1.2045  1.2344  0.1476
  911MOL0     H22964   9.712   1.109   1.876  2.3772  1.6899 -0.3518
  911MOL0     H22965   9.028   1.671   1.616  2.8859  0.6366  0.8880
  911MOL0     H22966   8.844   1.794   1.498 -0.2118 -0.3582  1.3903
  911MOL0     H22967   8.746   2.265   1.354 -0.0244 -1.6025  2.4914
  911MOL0     H22968   8.570   2.438   1.291  1.0071 -0.4072 -3.3751
  911MOL0     H22969   7.475   3.266   2.489 -2.2989  2.4321  0.5870
  911MOL0     H22970   7.264   3.379   2.580 -0.9082 -0.7920  1.4380
  911MOL0     H22971   6.897   3.356   2.775  1.0498  0.1941 -3.9815
  911MOL0     H22972   6.689   3.391   2.926 -1.1365 -2.1840  0.3712
  911MOL0     H22973   6.381   3.184   2.932  0.2833  0.9824  1.9311
  911MOL0     H22974   6.270   3.275   2.822 -2.0320 -0.0790  1.5109
  911MOL0     H22975   6.213   3.414   3.024  2.5456  1.8179 -1.0099
  911MOL0     H22976   6.347   3.359   3.110  0.1804  1.0508 -0.3104
  911MOL0     H22977   6.182   3.123   3.034  1.1340 -2.3227  3.4297
  911MOL0     H22978   6.084   3.241   3.115 -0.5665 -0.3911  0.8471
  911MOL0     H22979   6.350   3.161   3.232  0.0679  2.7188 -1.2182
  911MOL0     H22980   6.213   3.248   3.305  0.6905  0.4068  0.6025
  911MOL0     H22981   6.074   2.883   3.408  0.8763 -3.0546 -2.4307
  911MOL0     H22982   6.439   3.252   2.620  0.9286 -2.6018  0.1780
  911MOL0     H22983   6.678   3.036   2.476 -0.6359  1.0759 -1.8366
  911MOL0     H22984   6.502   3.072   2.486 -0.9231  3.1865  1.2167
  911MOL0     H22985   6.603   3.166   2.380  2.6532 -0.4600 -0.9348
  912MOL0     O22986   1.515   2.947   2.173  0.2038  0.3243  0.3149
  912MOL0     C22987   1.567   2.946   2.061 -0.6859  0.2549  0.2910
  912MOL0     O22988   1.537   2.859   1.961  0.1275  0.5315 -0.0847
  912MOL0     C22989   1.455   2.752   1.985  0.4579  0.0982  0.1121
  912MOL0     C22990   1.420   2.683   2.105 -0.8075  1.0289 -0.4625
  912MOL0     C22991   1.315   2.591   2.108  0.1631  0.2846  0.4842
  912MOL0     C22992   1.246   2.559   1.993 -0.7946  0.4287  0.3851
  912MOL0     O22993   1.149   2.462   1.981 -0.3695  0.5456  0.7334
  912MOL0     C22994   1.192   2.332   2.025  0.7460 -0.2533 -0.1453
  912MOL0     C22995   1.249   2.248   1.908 -0.3345 -0.5756  0.5196
  912MOL0     C22996   1.149   2.205   1.805  0.1627 -0.2309 -0.1141
  912MOL0     C22997   1.032   2.136   1.879 -0.1027  0.2783 -0.0853
  912MOL0     C22998   0.951   2.084   1.765 -0.1647  0.3827  0.2090
  912MOL0     C22999   0.830   1.987   1.827  0.1511 -0.1652  0.4329
  912MOL0     C23000   0.715   2.074   1.898 -0.6444  0.3621  0.6275
  912MOL0     C23001   0.576   2.005   1.905  0.2496 -0.0245  0.6059
  912MOL0     N23002   0.488   2.098   1.972  0.3191  0.3113 -0.6277
  912MOL0     C23003   0.470   2.105   2.111  0.2741  0.2545 -0.6528
  912MOL0     C23004   0.381   2.205   2.127  0.2190 -0.8080  0.8304
  912MOL0     C23005   0.319   2.242   2.261 -0.3128  0.0080 -0.5889
  912MOL0     C23006   0.377   2.377   2.319 -0.2161 -0.2991 -1.3758
  912MOL0     C23007   0.525   2.378   2.341  1.0605  0.1937 -0.5596
  912MOL0     C23008   0.571   2.321   2.476  0.6977  0.8282  0.0431
  912MOL0     O23009   0.514   2.385   2.596 -0.2509  0.2274 -0.3445
  912MOL0     C23010   0.581   2.481   2.659  0.2005 -0.5113 -0.5846
  912MOL0     C23011   0.527   2.507   2.783 -0.1547  0.8766  1.3733
  912MOL0     C23012   0.589   2.600   2.875 -0.3354  0.1601 -0.5402
  912MOL0     C23013   0.717   2.657   2.841  0.5849 -0.7318  0.4333
  912MOL0     C23014   0.787   2.743   2.933  0.3140 -0.3535  0.2370
  912MOL0     O23015   0.908   2.792   2.899  0.1627  0.3463 -0.4751
  912MOL0     C23016   0.991   2.866   2.990 -0.1927 -0.4962 -0.4003
  912MOL0     C23017   1.109   2.928   2.943 -0.4438 -0.2175 -0.1596
  912MOL0     C23018   1.199   2.996   3.028 -0.2613  0.6606 -0.0662
  912MOL0     C23019   1.182   2.998   3.169  0.8678  0.3422  0.1548
  912MOL0     O23020   1.261   3.044   3.263 -0.0616  0.1201  0.4911
  912MOL0     C23021   1.299   3.178   3.237 -0.2000  0.2707  0.2011
  912MOL0     C23022   1.440   3.193   3.286 -1.1444  0.0632  0.4536
  912MOL0     C23023   1.484   3.341   3.258  0.7406  0.0885  0.1675
  912MOL0     C23024   1.555   3.419   3.376 -0.5619 -0.8712 -0.1673
  912MOL0     C23025   1.627   3.546   3.326 -0.4521 -1.2281 -0.0059
  912MOL0     C23026   1.779   3.517   3.294 -0.0825 -0.1259 -0.1176
  912MOL0     C23027   1.849   3.642   3.248  0.0890 -0.5136  0.4203
  912MOL0     C23028   1.884   3.745   3.351 -0.3195 -0.0119  0.4629
  912MOL0    Cl23029   1.995   3.869   3.282  0.2727  0.0881  0.6133
  912MOL0     C23030   1.061   2.949   3.215  0.1390  0.4832 -0.0366
  912MOL0     C23031   0.973   2.878   3.130 -1.0665  0.5584  0.3651
  912MOL0     O23032   0.717   2.785   3.024 -0.1395 -0.6266  0.6199
  912MOL0     C23033   0.761   2.638   2.707  0.2366 -0.2832 -0.1553
  912MOL0     C23034   0.700   2.555   2.618 -0.0245 -0.7120 -0.4233
  912MOL0     N23035   0.351   2.262   2.001 -0.7121 -0.7254  0.7307
  912MOL0     N23036   0.430   2.204   1.914 -0.0866  0.5400 -0.4791
  912MOL0     C23037   1.292   2.618   1.868 -0.7381  0.7645 -0.4806
  912MOL0     C23038   1.396   2.706   1.871 -0.4372 -0.1095  0.3399
  912MOL0     C23039   1.685   3.038   2.015 -0.6859 -0.8102 -0.0399
  912MOL0     C23040   1.755   3.016   1.896  0.5109  0.0656  0.0515
  912MOL0     C23041   1.860   3.093   1.859  0.0347  0.0249 -0.1084
  912MOL0     C23042   1.910   3.193   1.951 -0.3098  0.4936  0.3162
  912MOL0     O23043   2.011   3.262   1.899 -0.0327 -0.2044 -0.8598
  912MOL0     C23044   2.080   3.352   1.987 -1.0218 -0.1234 -0.6200
  912MOL0     C23045   2.197   3.413   1.916  0.2393  0.4201  0.4622
  912MOL0     C23046   2.283   3.319   1.826 -0.9093  1.3413 -0.0095
  912MOL0     C23047   2.376   3.396   1.733 -0.2126  0.2847 -0.5310
  912MOL0     C23048   2.453   3.498   1.807  0.0337  0.0538  0.1685
  912MOL0     C23049   2.502   3.587   1.870 -0.8919  0.0745 -0.4134
  912MOL0     C23050   1.832   3.217   2.063  0.2787 -0.5227  0.6344
  912MOL0     C23051   1.721   3.145   2.100  0.2376 -0.4828  0.2676
  912MOL0     C23052   1.661   3.177   2.236  0.0416 -0.0600  0.4401
  912MOL0     H23053   1.473   2.698   2.199 -1.4574 -1.8300  0.4704
  912MOL0     H23054   1.288   2.534   2.196 -0.2485  0.7661  0.6670
  912MOL0     H23055   1.282   2.344   2.086  1.8141 -0.8828 -1.5236
  912MOL0     H23056   1.118   2.285   2.090  0.7807 -0.9800 -0.6202
  912MOL0     H23057   1.284   2.157   1.958 -1.5660  0.1066  2.7614
  912MOL0     H23058   1.333   2.298   1.858  0.1650 -1.1532  0.7687
  912MOL0     H23059   1.193   2.146   1.724  0.2207  2.9670 -2.6658
  912MOL0     H23060   1.100   2.288   1.752 -0.8579 -0.3262  0.6488
  912MOL0     H23061   1.062   2.047   1.936 -2.0564 -0.2373  0.2263
  912MOL0     H23062   0.980   2.216   1.931  1.6511  0.5768  1.3144
  912MOL0     H23063   0.912   2.170   1.710 -0.5741 -0.9236 -1.6513
  912MOL0     H23064   1.021   2.031   1.700 -1.3845  0.0506 -0.8550
  912MOL0     H23065   0.797   1.923   1.745 -1.1918  2.5095 -1.2314
  912MOL0     H23066   0.883   1.933   1.906  1.3273 -0.5818 -0.6058
  912MOL0     H23067   0.706   2.165   1.839  2.2280  2.3001  2.9089
  912MOL0     H23068   0.744   2.104   1.999 -0.6326 -1.7492  1.3133
  912MOL0     H23069   0.549   1.989   1.800  1.7648  0.2904  0.1498
  912MOL0     H23070   0.571   1.910   1.960  0.5800 -1.3235 -1.5006
  912MOL0     H23071   0.524   2.045   2.183 -1.3775 -2.5154 -1.5637
  912MOL0     H23072   0.210   2.253   2.251 -0.9185 -0.3865  3.7645
  912MOL0     H23073   0.346   2.171   2.339  1.5204  1.9126  0.6059
  912MOL0     H23074   0.350   2.457   2.251  2.9976  1.5247 -0.7448
  912MOL0     H23075   0.331   2.401   2.415 -0.3239 -1.6672 -1.0672
  912MOL0     H23076   0.557   2.483   2.347 -2.7351  1.4262  1.1124
  912MOL0     H23077   0.574   2.325   2.259  4.2982 -1.5808  2.2667
  912MOL0     H23078   0.680   2.331   2.474  0.9767 -0.7619 -4.7000
  912MOL0     H23079   0.553   2.213   2.480 -2.0777  1.2584  1.9060
  912MOL0     H23080   0.432   2.457   2.799 -0.7190  1.8220  1.0522
  912MOL0     H23081   0.543   2.602   2.973 -2.8782  0.2164 -1.6696
  912MOL0     H23082   1.129   2.919   2.837 -1.0791 -2.5579 -0.1227
  912MOL0     H23083   1.297   3.021   2.989 -0.0011 -0.8408 -0.4750
  912MOL0     H23084   1.286   3.206   3.132  3.2734  2.1639  0.1431
  912MOL0     H23085   1.229   3.236   3.298  2.0384  0.9280  2.2769
  912MOL0     H23086   1.441   3.159   3.390  0.9253 -3.0912 -0.4506
  912MOL0     H23087   1.523   3.135   3.244 -0.3195  2.1123 -0.9025
  912MOL0     H23088   1.547   3.347   3.169  1.5763 -0.6144  0.6993
  912MOL0     H23089   1.391   3.394   3.236  0.1977 -0.3862  1.2472
  912MOL0     H23090   1.611   3.334   3.416 -0.3497 -0.6623 -0.0208
  912MOL0     H23091   1.485   3.449   3.454  1.9320 -0.5509  2.0911
  912MOL0     H23092   1.621   3.617   3.409 -1.2137 -1.6842  0.3437
  912MOL0     H23093   1.576   3.588   3.238  0.7206 -0.1833 -0.2146
  912MOL0     H23094   1.817   3.473   3.386  0.5551  1.1135  0.2374
  912MOL0     H23095   1.784   3.440   3.216  0.3747 -0.4632  0.2425
  912MOL0     H23096   1.794   3.696   3.171  1.5497  0.7583  0.2244
  912MOL0     H23097   1.945   3.602   3.212 -0.5028 -0.8047 -0.8647
  912MOL0     H23098   1.796   3.791   3.395 -1.2126 -2.4480  1.4085
  912MOL0     H23099   1.950   3.693   3.421  2.9367  1.7072 -1.0716
  912MOL0     H23100   1.033   2.958   3.319 -2.0686  0.3514 -0.5700
  912MOL0     H23101   0.885   2.850   3.188 -1.4256  2.7015  0.9738
  912MOL0     H23102   0.850   2.694   2.679  1.2214 -0.6594  2.0262
  912MOL0     H23103   0.733   2.547   2.515 -1.3229  1.1140 -1.0448
  912MOL0     H23104   1.248   2.572   1.780  0.6782  0.1878 -0.9137
  912MOL0     H23105   1.435   2.750   1.779  1.0409 -0.3890  0.8073
  912MOL0     H23106   1.723   2.939   1.826 -0.4963 -0.0095  0.5653
  912MOL0     H23107   1.927   3.083   1.774  0.3669 -1.0694  0.2756
  912MOL0     H23108   2.125   3.293   2.068  0.3693 -2.1387 -2.7190
  912MOL0     H23109   2.013   3.434   2.012 -3.3724 -1.3224 -2.5702
  912MOL0     H23110   2.252   3.475   1.987  1.1964  0.0996  0.0114
  912MOL0     H23111   2.149   3.496   1.863  1.1650  2.1495  2.2100
  912MOL0     H23112   2.220   3.254   1.764 -1.5607  1.3071  0.6725
  912MOL0     H23113   2.344   3.255   1.889 -1.5365  0.5337 -0.2011
  912MOL0     H23114   2.453   3.339   1.680  2.7529 -0.1017  3.6980
  912MOL0     H23115   2.327   3.459   1.659  0.6668  1.2325 -0.3222
  912MOL0     H23116   2.548   3.661   1.932  1.1929 -0.2364 -1.4862
  912MOL0     H23117   1.855   3.301   2.128  1.4712  1.5244 -2.2432
  912MOL0     H23118   1.715   3.258   2.284 -1.2141  1.2181 -0.2334
  912MOL0     H23119   1.567   3.213   2.193  1.5639  1.7426 -1.6347
  912MOL0     H23120   1.641   3.098   2.308 -2.5400  0.4130  0.3362
  913MOL0     O23121   0.969   8.482   2.621  1.0573 -0.2009  0.9357
  913MOL0     C23122   1.014   8.585   2.571 -0.2184 -0.0559  0.0292
  913MOL0     O23123   1.113   8.588   2.476 -0.3377  0.6627  0.5702
  913MOL0     C23124   1.151   8.466   2.428 -0.0763  1.5890 -0.0803
  913MOL0     C23125   1.257   8.387   2.481  0.4499 -0.3599 -0.6564
  913MOL0     C23126   1.290   8.266   2.420 -0.1338  0.8011 -0.5047
  913MOL0     C23127   1.227   8.233   2.297 -1.4022 -0.0984 -0.4708
  913MOL0     O23128   1.270   8.129   2.213  0.0250 -0.2748  0.2173
  913MOL0     C23129   1.410   8.107   2.201  0.2068 -0.2055 -0.6152
  913MOL0     C23130   1.442   7.988   2.122 -0.6620  0.0282 -0.7198
  913MOL0     C23131   1.593   7.956   2.098 -0.1418 -0.2120  0.5635
  913MOL0     C23132   1.621   7.870   1.968  0.3243  0.2125  0.2247
  913MOL0     C23133   1.736   7.777   1.977  0.6879 -0.3877 -0.0697
  913MOL0     C23134   1.737   7.671   1.864 -0.3688 -0.0506 -0.0126
  913MOL0     C23135   1.859   7.578   1.897 -1.2266  0.0878  0.1708
  913MOL0     C23136   1.847   7.445   1.816 -0.4039 -0.1475  0.0090
  913MOL0     N23137   1.911   7.481   1.689  0.7503 -0.0140 -1.2554
  913MOL0     C23138   2.046   7.433   1.658  0.0196 -0.2396  0.2933
  913MOL0     C23139   2.066   7.492   1.535 -0.0179  0.4965 -0.2888
  913MOL0     C23140   2.190   7.485   1.454 -0.4591  0.1811 -0.6655
  913MOL0     C23141   2.331   7.476   1.524  0.2550  0.5883 -0.9095
  913MOL0     C23142   2.448   7.443   1.439 -0.0851 -0.5083  0.5712
  913MOL0     C23143   2.480   7.560   1.339 -0.9414 -0.6764 -0.0628
  913MOL0     O23144   2.529   7.677   1.410 -0.1146 -0.7766  0.8747
  913MOL0     C23145   2.658   7.697   1.449 -1.1063 -0.1829  0.1884
  913MOL0     C23146   2.763   7.607   1.420 -0.3457  0.0164 -1.6066
  913MOL0     C23147   2.889   7.615   1.483 -0.1836 -0.4318  1.0504
  913MOL0     C23148   2.909   7.727   1.565 -0.3086  0.2348  0.4777
  913MOL0     C23149   3.048   7.757   1.615  0.2808 -0.6505  0.5318
  913MOL0     O23150   3.157   7.696   1.567  0.4140  0.3383 -0.1144
  913MOL0     C23151   3.268   7.667   1.649 -0.1138 -0.5502  0.0996
  913MOL0     C23152   3.335   7.547   1.627 -0.5805  0.4562 -0.0742
  913MOL0     C23153   3.450   7.514   1.707  0.3081  0.1528 -0.2933
  913MOL0     C23154   3.496   7.601   1.804 -0.1807 -1.4292 -0.1615
  913MOL0     O23155   3.603   7.575   1.884 -0.5023 -0.2032  0.0406
  913MOL0     C23156   3.721   7.663   1.869  0.3763  0.6325  0.3831
  913MOL0     C23157   3.827   7.636   1.973 -0.2290 -0.7664  0.5929
  913MOL0     C23158   3.959   7.698   1.920  0.2018  0.2744  0.8651
  913MOL0     C23159   4.062   7.688   2.035 -0.6076 -0.2735  0.0677
  913MOL0     C23160   4.128   7.558   2.036 -0.7279  1.2967  1.0116
  913MOL0     C23161   4.241   7.564   2.140  0.4590 -0.6543 -0.4869
  913MOL0     C23162   4.331   7.443   2.140  0.9245  0.2069  0.0123
  913MOL0     C23163   4.264   7.309   2.177 -0.3081  0.2887  0.0883
  913MOL0    Cl23164   4.392   7.195   2.150  0.0289 -0.2225  0.2881
  913MOL0     C23165   3.434   7.728   1.811 -0.4751 -0.2118 -0.7688
  913MOL0     C23166   3.332   7.764   1.735 -0.1500 -0.7243  0.3278
  913MOL0     O23167   3.047   7.843   1.707 -0.0974  0.2919 -0.3913
  913MOL0     C23168   2.810   7.824   1.590  0.7866  0.8535 -0.2044
  913MOL0     C23169   2.686   7.809   1.529  0.8564 -0.3879 -0.4697
  913MOL0     N23170   1.956   7.576   1.497  0.2918 -0.8872 -0.3554
  913MOL0     N23171   1.869   7.568   1.592  0.0532  0.2016  1.3241
  913MOL0     C23172   1.124   8.315   2.249 -0.5563  0.7569 -0.2580
  913MOL0     C23173   1.080   8.421   2.314  0.3987 -0.3837 -0.0906
  913MOL0     C23174   0.955   8.707   2.631  0.8085 -0.0972 -0.5537
  913MOL0     C23175   0.817   8.727   2.641 -0.3716  0.1203  0.7153
  913MOL0     C23176   0.756   8.844   2.680  0.8403  0.7057  1.1558
  913MOL0     C23177   0.836   8.956   2.708  0.5063 -1.1756  0.0066
  913MOL0     O23178   0.798   9.087   2.745 -0.9623  0.8155 -0.8605
  913MOL0     C23179   0.661   9.123   2.748 -0.2252  0.3906  0.2965
  913MOL0     C23180   0.582   9.063   2.877 -1.2860 -0.6072  0.1006
  913MOL0     C23181   0.657   9.060   3.018  0.4208 -0.0793 -0.6399
  913MOL0     C23182   0.575   9.097   3.139  0.1289  0.7989 -0.7943
  913MOL0     C23183   0.481   8.985   3.174 -0.1310  0.4331  0.6154
  913MOL0     C23184   0.420   8.877   3.183 -0.0435 -0.7176 -0.0513
  913MOL0     C23185   0.972   8.945   2.699 -0.3953 -0.7126  0.3075
  913MOL0     C23186   1.035   8.820   2.674 -0.5563 -0.2016 -0.3290
  913MOL0     C23187   1.188   8.830   2.673 -0.8458 -0.1257  0.3573
  913MOL0     H23188   1.310   8.434   2.563  0.3807  2.9863 -2.3345
  913MOL0     H23189   1.359   8.194   2.462  1.4394 -0.4093 -4.7180
  913MOL0     H23190   1.460   8.196   2.161  1.5258 -0.9805 -0.7540
  913MOL0     H23191   1.450   8.080   2.299  3.4142  1.9811 -1.1530
  913MOL0     H23192   1.386   8.001   2.028 -1.9452  1.5113  0.1863
  913MOL0     H23193   1.406   7.892   2.159  1.9099 -1.4598 -1.8558
  913MOL0     H23194   1.633   7.920   2.193  1.1263  0.4682  0.3110
  913MOL0     H23195   1.632   8.052   2.062 -0.2905  0.0986  1.2189
  913MOL0     H23196   1.531   7.809   1.961 -0.9015  1.9068  0.5195
  913MOL0     H23197   1.624   7.941   1.885 -2.0844  2.1752  1.6643
  913MOL0     H23198   1.821   7.844   1.961 -0.6767  1.3879 -0.0932
  913MOL0     H23199   1.751   7.721   2.069 -1.2014 -1.6967 -0.5055
  913MOL0     H23200   1.639   7.622   1.866 -1.3812  1.9006  0.1692
  913MOL0     H23201   1.752   7.723   1.770 -2.2425  0.3967 -0.0973
  913MOL0     H23202   1.854   7.548   2.002  2.3794  1.0362  0.7232
  913MOL0     H23203   1.953   7.633   1.887 -0.2256 -1.2756  1.5882
  913MOL0     H23204   1.891   7.367   1.879 -3.6194 -0.5282  2.0566
  913MOL0     H23205   1.743   7.410   1.813  0.2901 -2.7461  2.0752
  913MOL0     H23206   2.102   7.361   1.716 -1.2341 -1.1783  0.3916
  913MOL0     H23207   2.189   7.382   1.416 -0.3159 -1.7774  3.9198
  913MOL0     H23208   2.183   7.564   1.379 -0.0364  1.0379  0.1841
  913MOL0     H23209   2.354   7.568   1.579  1.5524 -1.0597  1.4726
  913MOL0     H23210   2.324   7.388   1.589 -0.1929 -0.2256 -2.0267
  913MOL0     H23211   2.418   7.355   1.382 -0.7997  1.4582 -2.2739
  913MOL0     H23212   2.538   7.423   1.499  1.7285 -0.1613 -1.8967
  913MOL0     H23213   2.386   7.585   1.287 -0.0120 -1.4220 -2.2069
  913MOL0     H23214   2.553   7.537   1.261  1.9530  3.8818  0.9207
  913MOL0     H23215   2.753   7.530   1.344 -2.6546 -1.4271  0.0359
  913MOL0     H23216   2.967   7.546   1.452  0.6341  0.9316  0.0170
  913MOL0     H23217   3.287   7.478   1.558 -1.1936  0.7675  0.0278
  913MOL0     H23218   3.515   7.428   1.695  1.9979  1.2010  0.8563
  913MOL0     H23219   3.766   7.641   1.772  0.3048  0.4042  0.4019
  913MOL0     H23220   3.692   7.768   1.873 -0.0084  0.5030  1.4806
  913MOL0     H23221   3.803   7.685   2.068  2.2549  1.6641  0.1012
  913MOL0     H23222   3.851   7.530   1.990 -0.1430 -0.6232  1.4153
  913MOL0     H23223   3.996   7.636   1.839  0.9533  0.4351  1.0818
  913MOL0     H23224   3.938   7.801   1.891  0.0459 -0.0792 -0.3213
  913MOL0     H23225   4.021   7.696   2.136 -0.8489 -4.8357  0.5469
  913MOL0     H23226   4.140   7.762   2.012 -1.6399  0.7016 -0.4332
  913MOL0     H23227   4.177   7.538   1.940 -2.3689  1.3625  0.1257
  913MOL0     H23228   4.057   7.476   2.049  0.0253 -0.5042 -3.8881
  913MOL0     H23229   4.296   7.656   2.117 -1.4579 -0.1420 -3.6368
  913MOL0     H23230   4.191   7.573   2.238 -2.3915 -1.8963 -1.7031
  913MOL0     H23231   4.405   7.458   2.219 -0.2708 -0.1239  1.2335
  913MOL0     H23232   4.374   7.443   2.039  3.1213  2.9851  0.8100
  913MOL0     H23233   4.228   7.314   2.280 -1.0388 -0.5639 -0.1042
  913MOL0     H23234   4.179   7.283   2.114  0.9889 -1.0094 -1.2183
  913MOL0     H23235   3.472   7.799   1.885 -0.3079 -1.3472  0.2659
  913MOL0     H23236   3.286   7.862   1.737  0.2917 -0.5221  1.8178
  913MOL0     H23237   2.827   7.897   1.668  1.8108 -0.1608  0.5638
  913MOL0     H23238   2.606   7.872   1.566  0.4597 -0.1362 -1.7116
  913MOL0     H23239   1.078   8.301   2.152 -3.4829 -0.5530  1.1810
  913MOL0     H23240   0.997   8.471   2.264 -0.5799 -0.3010  1.5613
  913MOL0     H23241   0.750   8.650   2.603 -2.2616  2.0155  0.0067
  913MOL0     H23242   0.648   8.842   2.690  0.8831 -0.3032  1.5261
  913MOL0     H23243   0.614   9.090   2.655  0.9458  3.1505 -1.3927
  913MOL0     H23244   0.661   9.232   2.750  1.1634  0.4066  0.3016
  913MOL0     H23245   0.566   8.958   2.852  1.2714 -1.4645  1.7510
  913MOL0     H23246   0.490   9.121   2.887 -1.4357 -0.7077 -0.6064
  913MOL0     H23247   0.737   9.134   3.003  0.6075 -0.2436 -0.4637
  913MOL0     H23248   0.694   8.961   3.044 -1.4226 -0.1032  2.4347
  913MOL0     H23249   0.642   9.095   3.225  2.1176  1.2206 -2.2550
  913MOL0     H23250   0.523   9.193   3.131 -0.5042  0.8548  2.6077
  913MOL0     H23251   0.379   8.778   3.184 -0.7559 -0.4347  1.4221
  913MOL0     H23252   1.030   9.032   2.728  1.8189 -1.4459 -1.5953
  913MOL0     H23253   1.238   8.742   2.633  1.1074 -0.2570  2.8659
  913MOL0     H23254   1.237   8.918   2.630 -0.1125 -0.7600 -0.1254
  913MOL0     H23255   1.228   8.825   2.775  1.5366 -0.3150 -0.5442
  914MOL0     O23256   6.917   8.153   8.539 -0.6033 -0.1138 -0.0496
  914MOL0     C23257   6.934   8.026   8.533  0.2733 -0.2654 -0.1735
  914MOL0     O23258   6.871   7.933   8.617 -0.4100  0.3965  0.5112
  914MOL0     C23259   6.771   7.971   8.696 -0.2289 -0.1294 -0.1483
  914MOL0     C23260   6.636   7.988   8.659  0.2560 -0.6447  0.2582
  914MOL0     C23261   6.538   8.005   8.762 -0.2288  0.4749 -0.5423
  914MOL0     C23262   6.574   7.995   8.898 -0.0082 -0.0685 -0.1256
  914MOL0     O23263   6.488   7.995   9.010  0.3515  0.0952 -0.4843
  914MOL0     C23264   6.350   8.036   8.990 -0.7704 -0.0276 -0.1834
  914MOL0     C23265   6.262   8.009   9.118 -0.8489  0.0303  1.2259
  914MOL0     C23266   6.307   7.876   9.184 -0.1563  1.0042 -0.6989
  914MOL0     C23267   6.227   7.832   9.306  0.7609 -0.3381  0.0245
  914MOL0     C23268   6.262   7.694   9.342 -0.5126 -0.0409  0.3085
  914MOL0     C23269   6.221   7.659   9.481 -0.5723 -0.0283 -0.0263
  914MOL0     C23270   6.249   7.508   9.522 -0.3610  0.5233 -0.6002
  914MOL0     C23271   6.215   7.475   9.665  0.2971  0.2433 -0.0293
  914MOL0     N23272   6.305   7.550   9.752  0.4038 -0.0541 -0.2487
  914MOL0     C23273   6.438   7.532   9.758 -0.2300  0.5625  0.7109
  914MOL0     C23274   6.482   7.621   9.850 -0.4519  0.7827 -1.3279
  914MOL0     C23275   6.615   7.655   9.906 -0.2752 -0.2401 -0.3282
  914MOL0     C23276   6.728   7.652   9.806  0.0488  0.0013 -0.6349
  914MOL0     C23277   6.718   7.766   9.714 -0.9778 -0.0881  0.5381
  914MOL0     C23278   6.808   7.747   9.582  0.9634  0.2813  0.6381
  914MOL0     O23279   6.935   7.707   9.612  0.1391 -1.0397 -0.2056
  914MOL0     C23280   7.025   7.683   9.506  0.4887 -0.0681 -0.3790
  914MOL0     C23281   7.156   7.656   9.533 -0.5725  0.6700 -1.5535
  914MOL0     C23282   7.252   7.614   9.445  0.3500  0.6394 -0.1955
  914MOL0     C23283   7.215   7.604   9.307 -0.3986  0.7205 -0.1330
  914MOL0     C23284   7.311   7.560   9.205  0.1389 -0.2966  0.2583
  914MOL0     O23285   7.402   7.467   9.247  0.9385 -0.5327  0.3161
  914MOL0     C23286   7.521   7.440   9.189  0.2202  0.0234  0.1684
  914MOL0     C23287   7.584   7.535   9.109 -0.6352 -0.3892  0.2769
  914MOL0     C23288   7.719   7.511   9.080 -0.2403  0.5285  0.1943
  914MOL0     C23289   7.790   7.388   9.110 -0.0489 -0.8181  0.5454
  914MOL0     O23290   7.920   7.369   9.080 -0.8498 -0.2202  0.0772
  914MOL0     C23291   7.967   7.244   9.054 -0.0788 -0.6153 -0.0487
  914MOL0     C23292   8.096   7.237   8.970  0.0894 -0.0831  0.4434
  914MOL0     C23293   8.217   7.308   9.039 -0.4517  0.2223  0.6964
  914MOL0     C23294   8.358   7.282   8.981  0.2387  0.1477  0.3409
  914MOL0     C23295   8.477   7.330   9.062  0.3683 -0.1740 -0.5968
  914MOL0     C23296   8.483   7.231   9.181 -1.0043  0.7579  0.2603
  914MOL0     C23297   8.599   7.252   9.279 -1.1363 -0.1917  0.0536
  914MOL0     C23298   8.689   7.127   9.278  0.3628 -0.1395 -0.0773
  914MOL0    Cl23299   8.838   7.182   9.359  0.0769  0.4577 -0.1334
  914MOL0     C23300   7.713   7.288   9.175 -0.5472 -0.4102 -0.0856
  914MOL0     C23301   7.579   7.317   9.216 -0.9346 -0.6300  0.1454
  914MOL0     O23302   7.284   7.591   9.091 -0.7343  0.0068  0.0555
  914MOL0     C23303   7.086   7.642   9.276  0.1466 -0.0592  0.7848
  914MOL0     C23304   6.989   7.683   9.369 -0.7365  0.8189 -1.0520
  914MOL0     N23305   6.372   7.671   9.911 -0.4612  0.3304 -0.1381
  914MOL0     N23306   6.264   7.628   9.852  0.1651  0.1028 -0.6069
  914MOL0     C23307   6.708   7.967   8.929 -0.1376 -0.8418  0.0640
  914MOL0     C23308   6.807   7.964   8.837 -0.1267 -0.1126  0.9004
  914MOL0     C23309   7.031   7.974   8.429 -0.4610  0.3071 -0.1877
  914MOL0     C23310   7.133   7.888   8.475 -0.1299 -0.4042 -0.9720
  914MOL0     C23311   7.246   7.844   8.400  1.0373 -0.3209  1.2147
  914MOL0     C23312   7.253   7.883   8.263  0.4352 -0.3530  0.3001
  914MOL0     O23313   7.360   7.845   8.187 -0.5926 -0.2194 -1.2186
  914MOL0     C23314   7.487   7.809   8.251  0.1286  1.0070  0.8785
  914MOL0     C23315   7.588   7.793   8.130  0.0186 -0.0240  0.3722
  914MOL0     C23316   7.728   7.760   8.178 -0.4841 -0.4490 -0.8437
  914MOL0     C23317   7.831   7.776   8.071 -0.5988  0.9919  0.9259
  914MOL0     C23318   7.970   7.748   8.134  1.4212 -0.9784  0.0942
  914MOL0     C23319   8.079   7.732   8.176  0.1410 -0.2567  0.4024
  914MOL0     C23320   7.152   7.970   8.213 -0.6215 -0.4950 -0.3156
  914MOL0     C23321   7.042   8.016   8.298  0.1132  0.4228 -0.3708
  914MOL0     C23322   6.937   8.109   8.239  0.4344 -0.4288 -0.3935
  914MOL0     H23323   6.595   7.989   8.559 -2.0914  1.3341  1.1419
  914MOL0     H23324   6.438   8.020   8.724 -0.4053 -0.0127 -0.2742
  914MOL0     H23325   6.342   8.143   8.969 -0.7487 -0.5384 -3.2122
  914MOL0     H23326   6.311   7.974   8.909 -0.9042  1.9557 -1.6944
  914MOL0     H23327   6.157   8.009   9.089 -1.1650  1.8525  2.1983
  914MOL0     H23328   6.276   8.091   9.189 -0.1629 -0.4864  1.7030
  914MOL0     H23329   6.411   7.877   9.220 -0.7398 -1.1893  1.3401
  914MOL0     H23330   6.304   7.796   9.110  1.4157  1.3077 -1.1293
  914MOL0     H23331   6.262   7.895   9.389  0.5524 -1.8599  1.3125
  914MOL0     H23332   6.124   7.851   9.277  1.4135 -0.4579 -2.6785
  914MOL0     H23333   6.209   7.633   9.268  1.4661  0.1629 -1.3826
  914MOL0     H23334   6.368   7.666   9.331 -0.0450  1.5578  0.4411
  914MOL0     H23335   6.278   7.731   9.541 -1.2993  2.3098 -1.9949
  914MOL0     H23336   6.113   7.668   9.496 -0.4874 -1.9384  2.3880
  914MOL0     H23337   6.352   7.477   9.507  0.1439  0.5581  2.3089
  914MOL0     H23338   6.192   7.445   9.452  2.0260 -0.5053 -1.7339
  914MOL0     H23339   6.109   7.495   9.688  0.8997  1.4705  1.8860
  914MOL0     H23340   6.230   7.370   9.688 -1.7817 -0.1007 -0.0543
  914MOL0     H23341   6.501   7.460   9.706  0.2415  0.7793  0.9744
  914MOL0     H23342   6.599   7.752   9.954  2.5733 -0.0996  0.5246
  914MOL0     H23343   6.648   7.594   9.990 -2.1087  0.5832  1.0878
  914MOL0     H23344   6.823   7.659   9.860  0.3612  0.3921 -1.2264
  914MOL0     H23345   6.725   7.552   9.761  1.2124 -1.7492  2.7716
  914MOL0     H23346   6.759   7.856   9.761  1.4481 -1.1223  0.5251
  914MOL0     H23347   6.612   7.786   9.697 -0.1580  3.8818 -0.9002
  914MOL0     H23348   6.785   7.831   9.515  0.9359 -0.4802 -0.3356
  914MOL0     H23349   6.762   7.664   9.526 -1.8793  1.9588  0.2516
  914MOL0     H23350   7.187   7.695   9.629  0.0744 -0.5982 -1.2253
  914MOL0     H23351   7.354   7.599   9.476 -0.2221 -0.8269  1.1016
  914MOL0     H23352   7.545   7.628   9.070 -0.5322 -0.3473  0.2745
  914MOL0     H23353   7.774   7.591   9.032 -0.1575  0.0865 -0.4687
  914MOL0     H23354   7.998   7.206   9.151 -1.1619  0.5482  0.7765
  914MOL0     H23355   7.883   7.179   9.029 -2.2306  1.3984  1.6137
  914MOL0     H23356   8.123   7.132   8.953  2.5052  0.7125 -0.9942
  914MOL0     H23357   8.080   7.280   8.871  1.3218  1.5314  0.9142
  914MOL0     H23358   8.215   7.417   9.046  0.3909  0.1832  1.9645
  914MOL0     H23359   8.208   7.274   9.142 -1.5038  0.8935  0.8396
  914MOL0     H23360   8.358   7.354   8.898  1.0950  0.8647  0.9513
  914MOL0     H23361   8.378   7.185   8.934  1.2616  0.9345 -0.9426
  914MOL0     H23362   8.469   7.431   9.103  1.4219  0.1859 -1.2423
  914MOL0     H23363   8.577   7.329   9.018  1.1268 -4.6846  0.7743
  914MOL0     H23364   8.393   7.242   9.241  1.2383  1.6253  3.7139
  914MOL0     H23365   8.479   7.127   9.146 -0.1832  0.4268  1.1263
  914MOL0     H23366   8.563   7.284   9.377 -0.5820  2.4090 -0.5069
  914MOL0     H23367   8.650   7.345   9.251 -2.4940  0.8606  0.9415
  914MOL0     H23368   8.651   7.052   9.347  0.5736 -0.4707 -0.3162
  914MOL0     H23369   8.713   7.083   9.180  0.9012  1.6199 -0.7781
  914MOL0     H23370   7.758   7.197   9.213  2.3686  2.1797  3.4457
  914MOL0     H23371   7.517   7.239   9.259 -1.3701 -1.0658 -1.1884
  914MOL0     H23372   7.051   7.637   9.173 -1.2573  2.8495  1.0107
  914MOL0     H23373   6.889   7.709   9.335 -0.9040  0.4674 -0.8383
  914MOL0     H23374   6.736   7.944   9.032 -0.6280 -3.1147 -0.2475
  914MOL0     H23375   6.914   7.953   8.852  0.3524  1.4454 -0.9730
  914MOL0     H23376   7.152   7.863   8.579  3.1184  2.7015 -0.6344
  914MOL0     H23377   7.322   7.779   8.443  0.2117 -2.6168 -0.5899
  914MOL0     H23378   7.471   7.713   8.302  0.2692 -0.2870 -1.4030
  914MOL0     H23379   7.512   7.890   8.321  1.0872  0.7414  0.8626
  914MOL0     H23380   7.592   7.890   8.081 -3.6860  1.1277  2.0604
  914MOL0     H23381   7.543   7.717   8.065  0.4018  0.8751 -0.9744
  914MOL0     H23382   7.722   7.653   8.201 -2.3933 -0.3335 -0.6344
  914MOL0     H23383   7.751   7.826   8.261  2.4974 -3.4042  0.9278
  914MOL0     H23384   7.806   7.715   7.984  1.0450 -2.0932  2.4537
  914MOL0     H23385   7.823   7.879   8.037 -2.4677  0.4887 -0.2799
  914MOL0     H23386   8.183   7.720   8.200  0.1444 -0.7970  0.1445
  914MOL0     H23387   7.165   8.015   8.115  5.1549  0.7903  0.6733
  914MOL0     H23388   6.935   8.193   8.310 -1.2716  0.0029 -0.9131
  914MOL0     H23389   6.945   8.129   8.132  1.3795 -0.0637 -0.2648
  914MOL0     H23390   6.840   8.065   8.262 -0.9080  1.0167 -2.8817
  915MOL0     O23391   2.440   8.610   3.850 -0.4598  0.1750  0.0839
  915MOL0     C23392   2.408   8.706   3.915  0.4156 -0.9527 -0.4400
  915MOL0     O23393   2.462   8.732   4.041  0.1263 -0.1106  0.0624
  915MOL0     C23394   2.529   8.636   4.108  0.0107  0.6998  0.3635
  915MOL0     C23395   2.463   8.532   4.171 -0.7870  0.2520  0.2505
  915MOL0     C23396   2.531   8.435   4.242 -0.0484 -0.2435  0.1254
  915MOL0     C23397   2.663   8.451   4.273  0.2499  0.5289 -0.1694
  915MOL0     O23398   2.726   8.357   4.352 -1.2682  0.2757 -0.0755
  915MOL0     C23399   2.869   8.346   4.359  0.2249  0.4329 -0.4422
  915MOL0     C23400   2.928   8.420   4.471 -0.1861 -0.6456  0.4326
  915MOL0     C23401   2.904   8.358   4.608 -0.0613 -0.2777 -0.1801
  915MOL0     C23402   2.968   8.453   4.707  0.2030  0.0229  0.3589
  915MOL0     C23403   2.987   8.382   4.839 -0.2660  0.2955  0.6248
  915MOL0     C23404   3.048   8.472   4.947 -0.7510 -0.7630 -0.2490
  915MOL0     C23405   3.035   8.432   5.089 -0.3160  0.4504 -0.4937
  915MOL0     C23406   3.088   8.300   5.112  0.5900 -0.0942  0.5597
  915MOL0     N23407   3.086   8.274   5.255  0.8752  0.8802  0.9499
  915MOL0     C23408   2.972   8.271   5.327  0.8166 -0.6353  0.8859
  915MOL0     C23409   3.005   8.251   5.455  0.0114 -0.4394 -0.1412
  915MOL0     C23410   2.925   8.225   5.583  0.6945  0.3599 -0.8093
  915MOL0     C23411   2.880   8.078   5.584  0.3405  0.3948 -0.0282
  915MOL0     C23412   3.000   7.975   5.605 -0.2813 -0.5132  0.2582
  915MOL0     C23413   3.042   7.968   5.744 -0.4484 -1.5515  0.0274
  915MOL0     O23414   2.965   7.869   5.809  0.1064 -0.0759  0.4088
  915MOL0     C23415   3.001   7.837   5.941 -0.5241 -0.0558 -0.3020
  915MOL0     C23416   3.103   7.899   6.019 -0.3069 -0.4042  0.3374
  915MOL0     C23417   3.135   7.851   6.146  0.7479 -1.0820  0.7924
  915MOL0     C23418   3.057   7.742   6.195 -0.8341  0.1247  0.2303
  915MOL0     C23419   3.084   7.675   6.328  0.8547  0.4131  0.9583
  915MOL0     O23420   2.981   7.612   6.386 -0.5050  0.9649  0.2160
  915MOL0     C23421   2.977   7.571   6.522 -0.5511  0.3057  0.5751
  915MOL0     C23422   2.886   7.465   6.543  0.4362 -0.9946 -0.0029
  915MOL0     C23423   2.877   7.399   6.666 -0.6107  0.4491 -0.0752
  915MOL0     C23424   2.959   7.445   6.773 -0.1194 -0.2184  0.0807
  915MOL0     O23425   2.961   7.371   6.885 -0.7060  0.2032 -0.0549
  915MOL0     C23426   3.067   7.389   6.983  0.2574  0.7582  0.2419
  915MOL0     C23427   3.044   7.302   7.104  0.5720 -0.1136 -1.0000
  915MOL0     C23428   2.998   7.369   7.235  0.8634 -0.0460  0.2970
  915MOL0     C23429   3.001   7.256   7.338 -0.8555 -0.6209 -0.7460
  915MOL0     C23430   2.873   7.176   7.372  0.9991  0.2656 -0.8656
  915MOL0     C23431   2.739   7.268   7.370 -0.0742 -0.9044 -1.3425
  915MOL0     C23432   2.765   7.382   7.476  0.5927  0.4465 -0.2424
  915MOL0     C23433   2.632   7.433   7.541 -0.1406 -0.6045  0.3170
  915MOL0    Cl23434   2.531   7.461   7.398  0.4213  0.1729  0.1365
  915MOL0     C23435   3.045   7.559   6.762 -0.2377  0.4290  0.1846
  915MOL0     C23436   3.045   7.624   6.632  0.3992 -0.2474 -0.7191
  915MOL0     O23437   3.191   7.693   6.379 -0.6218 -0.2508  0.2727
  915MOL0     C23438   2.954   7.687   6.112  1.1895  0.3908 -0.8090
  915MOL0     C23439   2.931   7.734   5.993 -0.6477  0.2897 -0.1504
  915MOL0     N23440   3.142   8.229   5.450 -0.2532 -0.7908  0.1514
  915MOL0     N23441   3.194   8.260   5.333  0.4855  0.8949  0.6888
  915MOL0     C23442   2.730   8.550   4.211 -0.1115  0.7151  0.4466
  915MOL0     C23443   2.662   8.640   4.128  0.0244  0.1838  1.0031
  915MOL0     C23444   2.326   8.815   3.849  0.2817  0.5845 -0.2883
  915MOL0     C23445   2.355   8.954   3.887  0.3826  0.4157  0.3013
  915MOL0     C23446   2.272   9.055   3.831 -0.1096  0.1170 -0.4929
  915MOL0     C23447   2.146   9.024   3.777 -0.0309 -0.8964 -0.2635
  915MOL0     O23448   2.044   9.114   3.752 -0.2865 -0.1488  0.3680
  915MOL0     C23449   2.086   9.251   3.720  0.0969 -0.5006 -0.2747
  915MOL0     C23450   1.953   9.307   3.669  0.6554 -0.0566 -0.2804
  915MOL0     C23451   1.961   9.434   3.588 -0.7764 -1.4393 -0.3415
  915MOL0     C23452   1.979   9.568   3.673 -0.3517  0.9299  0.0122
  915MOL0     C23453   1.865   9.648   3.654  0.4831 -0.9581 -0.2615
  915MOL0     C23454   1.762   9.711   3.637 -0.1306  0.6625 -0.3539
  915MOL0     C23455   2.128   8.886   3.743 -0.2099 -0.1813  0.1380
  915MOL0     C23456   2.213   8.781   3.771 -0.1770  0.2573 -0.5246
  915MOL0     C23457   2.162   8.639   3.738 -0.6490 -0.4791 -0.0071
  915MOL0     H23458   2.356   8.513   4.166 -0.5517 -0.8434 -2.9901
  915MOL0     H23459   2.471   8.355   4.284  0.4242  0.3626  2.0734
  915MOL0     H23460   2.904   8.242   4.364  2.5726  1.1877  0.0161
  915MOL0     H23461   2.922   8.379   4.269  1.5767  0.5031  0.3590
  915MOL0     H23462   2.882   8.519   4.464 -0.1045 -0.6950 -1.2696
  915MOL0     H23463   3.035   8.430   4.448 -0.9240  4.7640 -2.2671
  915MOL0     H23464   2.954   8.261   4.607 -1.3496 -0.9463 -0.7703
  915MOL0     H23465   2.797   8.363   4.628 -0.0482 -0.2352 -0.1212
  915MOL0     H23466   3.064   8.498   4.680  0.8392 -0.4860  1.6954
  915MOL0     H23467   2.890   8.527   4.728 -0.0159  0.1315 -0.7621
  915MOL0     H23468   2.892   8.333   4.864  1.0553 -2.4536  0.6636
  915MOL0     H23469   3.060   8.301   4.830  0.8878  1.3486  0.2231
  915MOL0     H23470   3.156   8.479   4.939 -0.3794  1.6074  3.9753
  915MOL0     H23471   3.012   8.575   4.941  1.3448  0.0408  0.4098
  915MOL0     H23472   2.930   8.444   5.117  0.0192 -0.6062  1.3226
  915MOL0     H23473   3.087   8.505   5.151 -1.4999 -0.3051  1.4698
  915MOL0     H23474   3.022   8.232   5.056 -1.4262  1.8605  0.4154
  915MOL0     H23475   3.191   8.288   5.079  0.9639  1.2608  1.1682
  915MOL0     H23476   2.868   8.295   5.307  1.2884  4.1593  2.8789
  915MOL0     H23477   2.983   8.253   5.672  0.3605  2.9865 -1.3243
  915MOL0     H23478   2.834   8.285   5.588 -0.4940 -1.3733 -0.7595
  915MOL0     H23479   2.826   8.057   5.676 -0.3653 -2.7143 -1.0379
  915MOL0     H23480   2.828   8.048   5.492 -0.1436 -0.8614  0.6355
  915MOL0     H23481   3.089   8.003   5.549 -1.5709  0.6067 -1.3253
  915MOL0     H23482   2.967   7.878   5.567  1.4662  0.0607 -3.0679
  915MOL0     H23483   3.033   8.067   5.788 -0.7827 -2.5845  2.4553
  915MOL0     H23484   3.148   7.941   5.744 -0.6656 -2.5176  0.9780
  915MOL0     H23485   3.158   7.979   5.971  3.6177 -1.9778  1.8024
  915MOL0     H23486   3.219   7.893   6.200  2.1318 -2.3645 -0.2796
  915MOL0     H23487   2.835   7.419   6.458  0.5765  1.0179 -1.2386
  915MOL0     H23488   2.827   7.303   6.667  0.2610 -0.0203 -0.5872
  915MOL0     H23489   3.162   7.365   6.934  1.0933 -0.7417  2.4336
  915MOL0     H23490   3.085   7.495   7.005  0.7031  0.7958 -0.2844
  915MOL0     H23491   2.998   7.206   7.082  0.0436 -0.2353  0.5218
  915MOL0     H23492   3.147   7.273   7.127 -0.1752 -1.5631  0.7376
  915MOL0     H23493   3.059   7.456   7.261 -0.4251  0.6302  1.1777
  915MOL0     H23494   2.894   7.405   7.231  1.3058  1.6495  2.4977
  915MOL0     H23495   3.021   7.306   7.434 -2.3681 -0.3259 -0.5533
  915MOL0     H23496   3.075   7.180   7.315  0.5351  0.5723 -0.3440
  915MOL0     H23497   2.885   7.125   7.468  0.9618  0.0828 -0.9582
  915MOL0     H23498   2.856   7.097   7.299  0.0107 -2.9797  2.5742
  915MOL0     H23499   2.715   7.310   7.272 -2.5207 -1.0716 -0.8762
  915MOL0     H23500   2.657   7.205   7.405  0.5331 -0.0416  1.9881
  915MOL0     H23501   2.804   7.467   7.421 -2.6592  0.4764 -2.7653
  915MOL0     H23502   2.834   7.345   7.553 -0.3796 -1.4716 -0.2366
  915MOL0     H23503   2.577   7.353   7.592 -2.9359  2.8112  3.1321
  915MOL0     H23504   2.634   7.522   7.604 -3.3588  0.1692 -0.5240
  915MOL0     H23505   3.110   7.604   6.835 -0.4438  0.0649  0.5960
  915MOL0     H23506   3.117   7.702   6.609 -0.5199  0.3745 -1.6046
  915MOL0     H23507   2.905   7.597   6.150  1.7716  0.7367  0.8599
  915MOL0     H23508   2.858   7.680   5.934 -1.2009  0.2725  0.5321
  915MOL0     H23509   2.835   8.571   4.228 -0.2119 -0.9584  3.9236
  915MOL0     H23510   2.719   8.705   4.063  0.0581 -2.1858 -1.5523
  915MOL0     H23511   2.445   8.973   3.944  1.6755  0.7604 -1.7536
  915MOL0     H23512   2.304   9.159   3.839 -1.0996  0.4007 -0.0713
  915MOL0     H23513   2.170   9.257   3.650  2.7417 -1.6736  2.5874
  915MOL0     H23514   2.108   9.310   3.809 -0.0043 -0.6890 -0.1253
  915MOL0     H23515   1.897   9.333   3.759 -0.8975  2.8964 -1.9550
  915MOL0     H23516   1.908   9.220   3.618  0.0146 -0.1060  0.3571
  915MOL0     H23517   1.891   9.441   3.504 -0.8371 -1.3961 -0.2873
  915MOL0     H23518   2.059   9.425   3.539 -1.1157 -0.6892 -1.1967
  915MOL0     H23519   2.009   9.539   3.774 -1.0482  1.1968  0.2994
  915MOL0     H23520   2.059   9.633   3.638 -0.7250  2.0642  1.1769
  915MOL0     H23521   1.664   9.754   3.640 -0.1348  0.8100  3.6042
  915MOL0     H23522   2.039   8.856   3.689 -0.3131 -1.0483  0.7532
  915MOL0     H23523   2.110   8.583   3.816  0.6117  0.2523  1.4166
  915MOL0     H23524   2.096   8.656   3.653  1.6994 -0.8507 -2.0107
  915MOL0     H23525   2.251   8.584   3.705 -0.1866  1.0123 -1.3763
  916MOL0     O23526  10.825   8.313   2.824  0.1228 -0.2358 -0.2880
  916MOL0     C23527  10.832   8.191   2.823  0.1824 -0.0308 -0.3253
  916MOL0     O23528  10.905   8.116   2.918  0.7647  0.2662  0.4377
  916MOL0     C23529  10.964   8.167   3.031  0.6279 -0.8317  0.5641
  916MOL0     C23530  11.086   8.105   3.073 -0.5091  0.3399  0.1121
  916MOL0     C23531  11.134   8.144   3.199  0.1634 -0.2128 -0.1113
  916MOL0     C23532  11.073   8.249   3.274 -0.3423  0.8993  0.0646
  916MOL0     O23533  11.114   8.272   3.402 -0.2363  0.3593  0.6762
  916MOL0     C23534  11.246   8.321   3.413 -0.5081  0.1396 -0.2952
  916MOL0     C23535  11.254   8.403   3.539  0.1378 -0.7197 -0.1672
  916MOL0     C23536  11.176   8.536   3.525 -0.3166  1.1420  0.0327
  916MOL0     C23537  11.218   8.623   3.645 -0.1090 -0.3682 -0.3243
  916MOL0     C23538  11.154   8.765   3.659  0.2497  0.6354 -0.2228
  916MOL0     C23539  11.222   8.861   3.752  0.9846 -0.2649 -0.3638
  916MOL0     C23540  11.133   8.977   3.778 -0.3469 -0.8760 -0.3021
  916MOL0     C23541  11.149   9.078   3.669 -0.2261 -0.9563  0.2080
  916MOL0     N23542  11.043   9.186   3.689  1.0295 -0.5055  1.1441
  916MOL0     C23543  11.062   9.322   3.693 -0.5488  0.0939 -0.3344
  916MOL0     C23544  10.944   9.389   3.684  0.6853  0.9827 -1.3299
  916MOL0     C23545  10.921   9.537   3.667  0.2037 -0.7220  0.5081
  916MOL0     C23546  10.781   9.582   3.699  0.6950  0.0087  0.4396
  916MOL0     C23547  10.769   9.738   3.710 -0.1035 -1.0590 -0.4297
  916MOL0     C23548  10.628   9.806   3.697 -0.9715 -0.4566 -1.0495
  916MOL0     O23549  10.613   9.935   3.781  0.3071  0.0478  0.6014
  916MOL0     C23550  10.715  10.034   3.765 -0.1775  0.5550 -0.6160
  916MOL0     C23551  10.733  10.103   3.639  0.3128 -0.0035  0.3893
  916MOL0     C23552  10.819  10.215   3.621 -0.3610  0.4802  0.1324
  916MOL0     C23553  10.900  10.255   3.726 -0.3221  0.3032 -0.2510
  916MOL0     C23554  10.990  10.369   3.711  0.2856 -0.2986  0.1267
  916MOL0     O23555  11.053  10.401   3.831  0.0871 -0.3981 -0.5959
  916MOL0     C23556  11.101  10.525   3.848 -0.0458 -0.5524 -0.3856
  916MOL0     C23557  11.239  10.542   3.866 -0.5323  0.1937  0.2866
  916MOL0     C23558  11.297  10.661   3.900 -0.3442  0.0725  0.9975
  916MOL0     C23559  11.224  10.773   3.907  0.0276  1.6217 -0.5063
  916MOL0     O23560  11.300  10.882   3.943  0.6705  0.6072 -0.2373
  916MOL0     C23561  11.228  11.012   3.942  0.3193  0.8845  0.3831
  916MOL0     C23562  11.332  11.122   3.969 -0.3910 -0.2606  0.3780
  916MOL0     C23563  11.429  11.160   3.855 -0.3915  0.7876 -0.4832
  916MOL0     C23564  11.572  11.208   3.898  0.7156 -0.2511  0.5492
  916MOL0     C23565  11.565  11.339   3.976 -0.3241  0.8651  0.2274
  916MOL0     C23566  11.706  11.375   4.020  0.4670 -0.8793  0.5679
  916MOL0     C23567  11.701  11.496   4.105  0.5616 -0.5845 -0.1986
  916MOL0     C23568  11.838  11.555   4.124  0.6137 -0.5077  1.1103
  916MOL0    Cl23569  11.833  11.724   4.195 -0.0861 -0.0181 -0.4148
  916MOL0     C23570  11.081  10.763   3.891 -0.8168 -0.6771  0.8700
  916MOL0     C23571  11.025  10.637   3.866 -0.0692 -0.6783  0.1639
  916MOL0     O23572  10.997  10.435   3.605  0.2215  0.7722  0.1682
  916MOL0     C23573  10.900  10.182   3.853  0.6193  0.3257  0.1471
  916MOL0     C23574  10.805  10.075   3.867  0.5662  1.2301 -0.0651
  916MOL0     N23575  10.844   9.290   3.691  0.0006  0.3166  0.5762
  916MOL0     N23576  10.904   9.174   3.678 -0.8962 -0.1603  0.1912
  916MOL0     C23577  10.958   8.311   3.224  0.6369 -0.1402  0.1434
  916MOL0     C23578  10.898   8.268   3.100 -0.7826  0.4622 -0.5553
  916MOL0     C23579  10.770   8.109   2.718  0.6695  0.2659  0.1782
  916MOL0     C23580  10.810   7.974   2.705 -0.1583  0.4763 -0.1114
  916MOL0     C23581  10.753   7.885   2.610 -0.0514 -0.4667  0.0608
  916MOL0     C23582  10.678   7.941   2.504  0.5654 -0.0357 -0.0166
  916MOL0     O23583  10.623   7.872   2.404  0.2105 -0.9220  0.2566
  916MOL0     C23584  10.565   7.742   2.426 -0.7148  1.5494  0.6839
  916MOL0     C23585  10.466   7.717   2.312 -0.5956 -0.3970  0.4337
  916MOL0     C23586  10.401   7.577   2.324 -0.4594 -0.0081  0.6478
  916MOL0     C23587  10.268   7.579   2.241  0.1418  0.5774 -0.3404
  916MOL0     C23588  10.294   7.615   2.102  1.0092  0.2004  0.1659
  916MOL0     C23589  10.337   7.651   1.992  0.0602  0.1979  0.0911
  916MOL0     C23590  10.634   8.078   2.524 -0.1709 -0.6930 -0.0827
  916MOL0     C23591  10.684   8.161   2.626 -0.2312  0.5838 -0.1526
  916MOL0     C23592  10.611   8.295   2.643  0.7732 -0.5408  1.1313
  916MOL0     H23593  11.143   8.033   3.016  3.0716  1.6443  1.7025
  916MOL0     H23594  11.217   8.104   3.255 -1.1163  1.5537  3.3511
  916MOL0     H23595  11.317   8.238   3.423  0.4939  1.1017  0.8938
  916MOL0     H23596  11.270   8.382   3.326 -2.1373 -0.8084 -1.4737
  916MOL0     H23597  11.358   8.419   3.569 -0.8974  1.8980  2.5347
  916MOL0     H23598  11.203   8.350   3.620 -0.7862  1.7008  0.9458
  916MOL0     H23599  11.068   8.524   3.520 -0.0634 -1.0794 -3.7234
  916MOL0     H23600  11.209   8.580   3.431  1.1883 -1.5896 -0.8423
  916MOL0     H23601  11.224   8.570   3.741  2.1077 -0.1712 -0.2855
  916MOL0     H23602  11.324   8.644   3.629  0.3823 -2.9437 -1.0383
  916MOL0     H23603  11.144   8.806   3.558  0.4271  2.2862  0.4023
  916MOL0     H23604  11.053   8.746   3.695 -1.9533  3.3116 -4.2042
  916MOL0     H23605  11.238   8.803   3.844 -2.1286  0.8488  0.9994
  916MOL0     H23606  11.324   8.891   3.727  1.8753 -1.2182  1.8854
  916MOL0     H23607  11.185   9.018   3.865  0.3246  1.6393 -1.7954
  916MOL0     H23608  11.025   8.960   3.787 -1.0633  0.0676 -4.6818
  916MOL0     H23609  11.244   9.133   3.663 -1.8377  1.8903 -1.9542
  916MOL0     H23610  11.141   9.024   3.575 -3.3902 -0.6299  0.2017
  916MOL0     H23611  11.158   9.369   3.677  0.2515  0.0607  3.4368
  916MOL0     H23612  10.994   9.591   3.728 -0.8650  1.1197  0.2416
  916MOL0     H23613  10.948   9.564   3.564  0.9544  0.7488  1.0551
  916MOL0     H23614  10.720   9.551   3.614 -1.0760 -0.4434  1.8245
  916MOL0     H23615  10.732   9.530   3.782 -0.4113  0.7535  0.2698
  916MOL0     H23616  10.836   9.764   3.628  0.8812 -1.5648  0.1967
  916MOL0     H23617  10.811   9.783   3.801 -1.8611 -0.4794  0.1326
  916MOL0     H23618  10.567   9.725   3.736  0.7612 -1.2536  0.1288
  916MOL0     H23619  10.615   9.842   3.594 -0.2451  1.7597 -0.4344
  916MOL0     H23620  10.661  10.074   3.563  0.4115 -0.3720  0.4326
  916MOL0     H23621  10.830  10.257   3.522  0.5543 -0.8216 -0.3390
  916MOL0     H23622  11.297  10.453   3.844 -0.4790 -0.0970  1.5423
  916MOL0     H23623  11.405  10.670   3.910 -0.1488 -2.0660  1.2935
  916MOL0     H23624  11.185  11.018   3.842  1.1032  2.6853  0.1214
  916MOL0     H23625  11.151  11.013   4.020 -0.7555 -0.8899 -0.5893
  916MOL0     H23626  11.284  11.214   4.004  1.5834  0.4863  1.2657
  916MOL0     H23627  11.393  11.089   4.053 -1.8074  1.6737  2.2717
  916MOL0     H23628  11.441  11.065   3.802 -1.9044  1.4109 -2.0129
  916MOL0     H23629  11.389  11.227   3.778 -0.2969  1.9089  0.4116
  916MOL0     H23630  11.632  11.240   3.813 -0.3995  5.2427  1.4745
  916MOL0     H23631  11.623  11.128   3.953  1.9571  1.5948  2.2332
  916MOL0     H23632  11.506  11.328   4.067 -0.5076  0.9280  0.1170
  916MOL0     H23633  11.523  11.423   3.920 -0.4059  0.1811 -0.7777
  916MOL0     H23634  11.750  11.299   4.086  2.6732  0.9102  1.2835
  916MOL0     H23635  11.770  11.396   3.934  0.7006 -0.8470  0.7491
  916MOL0     H23636  11.659  11.467   4.202  0.7211  1.1207  0.4216
  916MOL0     H23637  11.637  11.581   4.079  0.0866 -1.1102 -0.8083
  916MOL0     H23638  11.905  11.493   4.185  3.2487  0.3841 -0.7079
  916MOL0     H23639  11.874  11.573   4.022 -0.3978  1.2969  1.0380
  916MOL0     H23640  11.010  10.844   3.904  2.5520  2.9805 -1.3621
  916MOL0     H23641  10.923  10.646   3.829  0.4611  2.3618 -0.7959
  916MOL0     H23642  10.955  10.203   3.944 -0.8323  1.4494  0.8136
  916MOL0     H23643  10.810  10.017   3.958  4.6633  0.4254 -0.5942
  916MOL0     H23644  10.903   8.376   3.291  1.2498 -1.0235  1.5297
  916MOL0     H23645  10.795   8.297   3.080 -1.8634 -0.8870  2.3765
  916MOL0     H23646  10.860   7.930   2.792 -1.8974  1.5466  1.5008
  916MOL0     H23647  10.771   7.778   2.613 -3.9634 -1.2700  0.1093
  916MOL0     H23648  10.503   7.756   2.516 -0.6656  2.1062  0.6373
  916MOL0     H23649  10.642   7.665   2.424 -0.2471  2.0176 -1.8760
  916MOL0     H23650  10.517   7.742   2.219 -1.2655  1.5123  0.5483
  916MOL0     H23651  10.397   7.799   2.334 -1.2556 -0.5220 -1.1093
  916MOL0     H23652  10.370   7.574   2.429 -2.1699  0.9668  0.2049
  916MOL0     H23653  10.476   7.501   2.299 -0.0648  0.1382  1.3432
  916MOL0     H23654  10.225   7.478   2.252  2.2194 -0.4151 -0.8125
  916MOL0     H23655  10.195   7.653   2.273  0.9745  1.3610 -0.2322
  916MOL0     H23656  10.393   7.686   1.907  0.8158  0.1437  0.5601
  916MOL0     H23657  10.579   8.112   2.437  3.0876  2.0269 -1.2825
  916MOL0     H23658  10.662   8.382   2.602 -1.6039 -0.0101 -0.9055
  916MOL0     H23659  10.520   8.293   2.583  2.8260  0.5832 -2.2720
  916MOL0     H23660  10.580   8.315   2.746  0.9309 -3.1116  1.7685
  917MOL0     O23661   5.847   2.016   8.908  0.1373 -0.1128 -0.4483
  917MOL0     C23662   5.895   1.977   9.012 -0.2711 -0.3911  0.0765
  917MOL0     O23663   6.007   1.903   9.017  0.4113  0.2391  0.5171
  917MOL0     C23664   6.074   1.888   8.901 -0.5768  0.6186  0.8136
  917MOL0     C23665   6.165   1.997   8.859 -0.0707  0.6729  0.5696
  917MOL0     C23666   6.244   1.971   8.745  0.1390 -0.4411  0.4411
  917MOL0     C23667   6.220   1.858   8.668  0.4830 -0.1803 -0.6701
  917MOL0     O23668   6.270   1.846   8.547  0.0071 -0.4926  0.2432
  917MOL0     C23669   6.412   1.818   8.533 -0.0078  0.0020 -0.2319
  917MOL0     C23670   6.432   1.663   8.524 -0.3384 -0.1752  0.3256
  917MOL0     C23671   6.576   1.619   8.496 -0.0321 -0.0499 -0.1491
  917MOL0     C23672   6.681   1.664   8.599 -0.1945 -0.2918  0.0880
  917MOL0     C23673   6.816   1.583   8.571  1.0360 -0.5143  0.5076
  917MOL0     C23674   6.892   1.549   8.713  0.4435  0.3724  0.6868
  917MOL0     C23675   6.940   1.670   8.787 -0.1403  0.2334 -0.2857
  917MOL0     C23676   7.085   1.697   8.768  0.0252  0.5845  0.5198
  917MOL0     N23677   7.133   1.730   8.635 -0.1341  0.4026  1.3606
  917MOL0     C23678   7.182   1.854   8.601  0.5696 -0.0703  0.0336
  917MOL0     C23679   7.232   1.840   8.479 -0.0314 -0.6039  0.0507
  917MOL0     C23680   7.290   1.938   8.383 -0.4463 -0.1393  0.0555
  917MOL0     C23681   7.439   1.963   8.394 -0.3213 -0.0230 -0.3037
  917MOL0     C23682   7.508   1.834   8.342 -1.4625 -0.2673 -0.6103
  917MOL0     C23683   7.665   1.856   8.336  0.0978 -0.4267 -0.6352
  917MOL0     O23684   7.723   1.927   8.452 -0.1338 -0.1926  0.6774
  917MOL0     C23685   7.847   1.981   8.435 -0.1581 -0.0203 -0.6019
  917MOL0     C23686   7.902   1.995   8.314 -0.3393 -0.8556 -0.1780
  917MOL0     C23687   8.029   2.058   8.309  0.5147 -0.0036  0.2061
  917MOL0     C23688   8.100   2.085   8.427 -0.4377 -0.1239  0.4955
  917MOL0     C23689   8.234   2.151   8.413  1.5951  0.4532 -0.1648
  917MOL0     O23690   8.269   2.172   8.293 -0.0433  0.2448 -0.1390
  917MOL0     C23691   8.389   2.237   8.275 -0.4765  0.9642  1.1591
  917MOL0     C23692   8.510   2.162   8.230 -0.4095 -0.0716  0.4375
  917MOL0     C23693   8.634   2.230   8.217  0.5150  0.4258 -0.2504
  917MOL0     C23694   8.646   2.364   8.258 -0.8306  0.1143  0.3390
  917MOL0     O23695   8.769   2.430   8.259 -0.8289  0.6216 -0.4199
  917MOL0     C23696   8.805   2.517   8.369  0.5018 -0.0473  0.1640
  917MOL0     C23697   8.930   2.589   8.332 -0.3396  0.2835  0.2057
  917MOL0     C23698   8.905   2.692   8.226 -0.3792 -0.3650  0.1422
  917MOL0     C23699   9.033   2.756   8.189  0.3110 -0.7690  0.3332
  917MOL0     C23700   9.025   2.866   8.080 -0.3463  1.3300 -0.2174
  917MOL0     C23701   8.939   2.987   8.115  0.1124  0.3381 -0.2936
  917MOL0     C23702   8.996   3.063   8.242  0.8261  1.3540 -0.6911
  917MOL0     C23703   8.916   3.186   8.267 -1.1852  0.5315  0.3349
  917MOL0    Cl23704   8.987   3.315   8.159  0.1134 -0.0768  0.1759
  917MOL0     C23705   8.531   2.429   8.306 -0.5553 -0.1809 -0.5171
  917MOL0     C23706   8.404   2.376   8.315  0.9773  0.5279  0.7647
  917MOL0     O23707   8.291   2.194   8.515  0.0114  0.4643 -0.2916
  917MOL0     C23708   8.053   2.050   8.553 -0.4580 -0.2885 -0.0181
  917MOL0     C23709   7.927   1.997   8.551  0.4147  0.4905  0.0669
  917MOL0     N23710   7.190   1.713   8.438 -0.7918 -0.5089  0.5416
  917MOL0     N23711   7.148   1.648   8.528  0.4497  0.7378 -0.2591
  917MOL0     C23712   6.122   1.769   8.704 -0.4732 -0.1522 -0.3825
  917MOL0     C23713   6.047   1.780   8.817 -0.1490  0.5749  0.4668
  917MOL0     C23714   5.828   2.019   9.135 -0.3684  0.0999 -0.6609
  917MOL0     C23715   5.731   2.121   9.117 -0.4742 -1.6303 -0.5311
  917MOL0     C23716   5.653   2.163   9.229 -0.5615  0.1977 -1.4566
  917MOL0     C23717   5.671   2.111   9.359  0.5708 -0.1434 -0.3215
  917MOL0     O23718   5.594   2.161   9.461  0.2429 -0.0059 -0.1891
  917MOL0     C23719   5.668   2.219   9.574  0.8222 -0.8353 -0.8058
  917MOL0     C23720   5.577   2.314   9.663  0.0021  0.4431  0.3739
  917MOL0     C23721   5.462   2.249   9.735 -0.0128  0.2588 -0.7158
  917MOL0     C23722   5.324   2.316   9.721  0.3131 -0.1237  0.3368
  917MOL0     C23723   5.256   2.327   9.850 -0.2468  0.1701  0.5031
  917MOL0     C23724   5.174   2.337   9.937  0.2076 -0.9707 -0.1254
  917MOL0     C23725   5.775   2.018   9.372  0.7625 -0.6320 -0.6525
  917MOL0     C23726   5.847   1.961   9.269 -0.1031  0.4562  0.0933
  917MOL0     C23727   5.943   1.853   9.317 -0.8439  0.0291  0.9348
  917MOL0     H23728   6.182   2.080   8.928  2.5891  1.8918 -1.3882
  917MOL0     H23729   6.322   2.044   8.724 -0.1690  1.1113  4.0863
  917MOL0     H23730   6.444   1.860   8.437  1.0705  0.4149  0.2932
  917MOL0     H23731   6.470   1.858   8.617 -0.2226 -2.5386  1.2411
  917MOL0     H23732   6.366   1.621   8.448 -1.2896  1.0866  0.4280
  917MOL0     H23733   6.388   1.610   8.609 -2.9346  1.6601  0.2504
  917MOL0     H23734   6.607   1.646   8.395 -1.0485  2.0837  0.0409
  917MOL0     H23735   6.570   1.510   8.499  2.2375 -0.2008  0.3904
  917MOL0     H23736   6.707   1.769   8.589  0.1119 -0.5093 -1.7726
  917MOL0     H23737   6.651   1.627   8.698  1.7913  0.0070  0.8537
  917MOL0     H23738   6.795   1.496   8.507  0.1674  2.3876 -3.5506
  917MOL0     H23739   6.882   1.637   8.503  0.6310 -0.4803  0.1381
  917MOL0     H23740   6.822   1.490   8.774  0.2274 -0.4314 -0.3106
  917MOL0     H23741   6.978   1.484   8.694  1.2231  0.5253  3.2609
  917MOL0     H23742   6.913   1.651   8.891  1.1536 -2.2941 -0.3303
  917MOL0     H23743   6.873   1.747   8.747  0.8475 -0.1874 -2.9631
  917MOL0     H23744   7.111   1.778   8.836  0.8781  1.2737 -0.5860
  917MOL0     H23745   7.142   1.613   8.808 -0.5478  0.4358  1.0435
  917MOL0     H23746   7.181   1.940   8.668  2.4171 -2.4848  3.5175
  917MOL0     H23747   7.266   1.915   8.279  0.1173 -2.3752  0.3875
  917MOL0     H23748   7.235   2.032   8.397 -2.3344 -1.2824  0.7067
  917MOL0     H23749   7.466   2.054   8.340  1.8773 -0.4544 -0.0248
  917MOL0     H23750   7.479   1.973   8.496  1.9534 -0.6605 -1.0873
  917MOL0     H23751   7.466   1.825   8.241 -3.4307  0.1516  0.1476
  917MOL0     H23752   7.484   1.740   8.391 -0.8842 -1.2090 -2.0647
  917MOL0     H23753   7.679   1.916   8.245  0.9827  0.0589 -0.1965
  917MOL0     H23754   7.708   1.756   8.326 -1.7708 -1.2857 -0.4990
  917MOL0     H23755   7.853   1.975   8.219  1.0580  2.2834 -1.7136
  917MOL0     H23756   8.076   2.078   8.213  0.7352 -3.0792 -0.4329
  917MOL0     H23757   8.499   2.061   8.192  1.5472 -0.3936  0.6321
  917MOL0     H23758   8.719   2.182   8.169  0.6024  1.7211 -1.4443
  917MOL0     H23759   8.726   2.585   8.402  0.8406  0.4908 -0.1121
  917MOL0     H23760   8.825   2.455   8.457 -1.3034 -1.3268 -0.2560
  917MOL0     H23761   8.971   2.651   8.413  3.7159  1.0549 -2.1890
  917MOL0     H23762   9.013   2.531   8.293 -0.5129  1.4549 -2.0507
  917MOL0     H23763   8.871   2.646   8.133 -0.7908  2.1638 -1.0176
  917MOL0     H23764   8.833   2.758   8.275  0.5568 -0.4134  1.6719
  917MOL0     H23765   9.107   2.680   8.162  0.6214 -0.4340  0.2331
  917MOL0     H23766   9.075   2.800   8.280  2.7499 -0.5447 -0.8247
  917MOL0     H23767   8.974   2.817   7.996 -1.7069  0.7365  0.9045
  917MOL0     H23768   9.126   2.892   8.048  0.0362  0.3549  0.1744
  917MOL0     H23769   8.925   3.061   8.035 -0.6356 -0.6918 -1.1374
  917MOL0     H23770   8.837   2.957   8.137 -1.0137  3.1299 -1.2002
  917MOL0     H23771   9.103   3.081   8.226  1.3363 -1.5474 -1.1863
  917MOL0     H23772   8.973   2.986   8.316 -4.3574  0.4329 -2.8538
  917MOL0     H23773   8.808   3.183   8.250 -1.6217  2.4459  2.3241
  917MOL0     H23774   8.926   3.220   8.371 -4.1911  0.7977  0.6286
  917MOL0     H23775   8.550   2.529   8.343  3.2123  0.7526 -4.2219
  917MOL0     H23776   8.324   2.423   8.372  2.4211  1.0806  2.4277
  917MOL0     H23777   8.111   2.073   8.642 -0.2725  0.7599 -0.4048
  917MOL0     H23778   7.876   1.961   8.640  0.4558 -3.3221 -1.2617
  917MOL0     H23779   6.111   1.688   8.632 -2.9599  1.6137 -2.1613
  917MOL0     H23780   5.988   1.695   8.849 -1.4106  1.4849  0.6451
  917MOL0     H23781   5.708   2.164   9.020 -0.2541 -0.9535 -0.2868
  917MOL0     H23782   5.574   2.235   9.209 -0.3052  1.2142  0.8758
  917MOL0     H23783   5.748   2.280   9.532 -0.5794  2.5419  1.0764
  917MOL0     H23784   5.702   2.136   9.637  1.7113  0.6006  0.6712
  917MOL0     H23785   5.539   2.382   9.587 -0.1593  0.0282  0.0800
  917MOL0     H23786   5.640   2.362   9.739 -0.4523  0.2480  0.8822
  917MOL0     H23787   5.486   2.233   9.840 -1.9802  0.3885 -0.2004
  917MOL0     H23788   5.451   2.146   9.698  1.0999 -0.9036  1.9673
  917MOL0     H23789   5.341   2.414   9.675  0.4328  0.7325  2.1213
  917MOL0     H23790   5.266   2.253   9.653 -0.6683 -2.6210  3.2624
  917MOL0     H23791   5.110   2.339  10.024  0.8538  2.8622  0.4172
  917MOL0     H23792   5.798   1.984   9.473 -0.1824 -0.7217 -0.4526
  917MOL0     H23793   5.929   1.808   9.416 -2.4551  3.7411  2.5848
  917MOL0     H23794   5.940   1.770   9.245 -1.0398 -1.5354  2.6715
  917MOL0     H23795   6.045   1.890   9.334 -0.0350 -1.3902 -0.5164
  918MOL0     O23796   1.106   3.182   4.005  0.1235  0.1446  0.4847
  918MOL0     C23797   1.042   3.240   4.102 -0.4976  0.3832  1.0162
  918MOL0     O23798   0.919   3.206   4.150  0.0760  0.8735  0.8035
  918MOL0     C23799   0.851   3.116   4.073  0.0564  1.4823  0.1275
  918MOL0     C23800   0.754   3.159   3.982 -0.0910  0.7715  0.1465
  918MOL0     C23801   0.685   3.068   3.904 -0.2533 -0.2634  0.6563
  918MOL0     C23802   0.714   2.927   3.915 -0.9129 -0.7361 -0.4321
  918MOL0     O23803   0.658   2.835   3.821 -0.3846 -0.3688 -0.6590
  918MOL0     C23804   0.731   2.718   3.777 -0.6610 -0.6320 -0.0627
  918MOL0     C23805   0.662   2.603   3.830 -0.8154  0.9842  0.5433
  918MOL0     C23806   0.692   2.465   3.765 -0.5295 -0.2679 -0.9002
  918MOL0     C23807   0.622   2.357   3.851  0.5111 -0.0978 -0.6010
  918MOL0     C23808   0.656   2.218   3.803 -0.6476  0.2676  0.7255
  918MOL0     C23809   0.555   2.107   3.824  0.4629  0.3166  0.2587
  918MOL0     C23810   0.590   1.966   3.770  1.1401 -0.2821 -0.6153
  918MOL0     C23811   0.722   1.907   3.825  0.0201  0.1914  0.4015
  918MOL0     N23812   0.711   1.768   3.864 -0.3584  0.5888 -0.4929
  918MOL0     C23813   0.688   1.653   3.789 -0.3834  0.0211 -1.0281
  918MOL0     C23814   0.694   1.549   3.877  0.1249 -0.3712 -0.5930
  918MOL0     C23815   0.681   1.400   3.853 -0.0201 -0.3995 -0.9009
  918MOL0     C23816   0.778   1.349   3.747  0.6593 -0.3434 -0.4455
  918MOL0     C23817   0.846   1.228   3.808  0.0945  0.1873 -0.1444
  918MOL0     C23818   0.951   1.261   3.925  0.1155 -0.1408 -0.7416
  918MOL0     O23819   0.988   1.395   3.954  0.9161  0.6244 -1.1340
  918MOL0     C23820   1.092   1.422   4.035  0.0461 -0.1865 -0.5195
  918MOL0     C23821   1.107   1.554   4.077 -0.4688  1.7627  0.9291
  918MOL0     C23822   1.205   1.587   4.167  0.5610  1.0882  0.2399
  918MOL0     C23823   1.298   1.498   4.215 -1.7091  0.7437 -0.0835
  918MOL0     C23824   1.394   1.543   4.313 -0.5188 -0.1276 -0.5252
  918MOL0     O23825   1.502   1.461   4.331  0.5518  0.1101 -0.1907
  918MOL0     C23826   1.578   1.481   4.443 -0.4601  0.0084  0.4137
  918MOL0     C23827   1.713   1.462   4.432  1.1934 -0.2119  0.6625
  918MOL0     C23828   1.802   1.485   4.535  0.0393  0.4348 -0.1800
  918MOL0     C23829   1.755   1.531   4.651  0.6815 -1.2362  0.6297
  918MOL0     O23830   1.844   1.553   4.753  0.4088 -0.1523  0.0001
  918MOL0     C23831   1.822   1.455   4.855 -0.3877 -0.6707 -0.2531
  918MOL0     C23832   1.943   1.464   4.959  0.0416 -0.2985 -0.4903
  918MOL0     C23833   2.058   1.365   4.916  0.3114 -0.0991 -0.1613
  918MOL0     C23834   2.174   1.381   5.008 -0.1711 -0.0801 -0.7675
  918MOL0     C23835   2.293   1.305   4.954 -0.8912  0.8024  0.0897
  918MOL0     C23836   2.434   1.342   5.005 -0.9150  0.3472  0.1311
  918MOL0     C23837   2.467   1.237   5.117 -0.0985 -0.8588  0.4431
  918MOL0     C23838   2.607   1.240   5.145 -0.5839 -0.8419  0.0472
  918MOL0    Cl23839   2.640   1.401   5.219 -0.4000  0.2091  0.2261
  918MOL0     C23840   1.621   1.544   4.674  0.1901 -0.6424 -0.2579
  918MOL0     C23841   1.527   1.528   4.572  0.1954 -0.2512  0.1708
  918MOL0     O23842   1.372   1.650   4.374 -0.0693  0.4068  0.1342
  918MOL0     C23843   1.279   1.364   4.179  0.6882  0.6511 -0.5377
  918MOL0     C23844   1.180   1.324   4.090  0.9858 -0.4015  0.7044
  918MOL0     N23845   0.712   1.605   4.007  0.5199 -0.9203  0.1040
  918MOL0     N23846   0.733   1.731   3.995  0.2790 -0.2924  0.6838
  918MOL0     C23847   0.814   2.891   4.009 -0.6401  0.3054 -0.0315
  918MOL0     C23848   0.879   2.984   4.094  0.2247 -0.4041  0.1874
  918MOL0     C23849   1.111   3.362   4.154 -0.8945  0.3280  0.5737
  918MOL0     C23850   1.258   3.388   4.140  0.7507 -1.2949  1.2702
  918MOL0     C23851   1.316   3.496   4.202  0.0460 -0.8231 -0.5214
  918MOL0     C23852   1.240   3.586   4.272 -0.0943  0.6745  0.0792
  918MOL0     O23853   1.307   3.692   4.328 -0.6966  0.2229 -1.4034
  918MOL0     C23854   1.255   3.786   4.430 -0.0037 -0.0146  0.4752
  918MOL0     C23855   1.186   3.910   4.372  0.4740 -0.0639 -1.2441
  918MOL0     C23856   1.249   4.048   4.417  0.3219  0.7803 -0.2763
  918MOL0     C23857   1.154   4.142   4.363 -0.2716  0.1068 -0.2575
  918MOL0     C23858   1.085   4.209   4.471 -0.1952 -0.2961 -0.2131
  918MOL0     C23859   1.043   4.253   4.581  0.4583 -0.4660 -0.1297
  918MOL0     C23860   1.104   3.568   4.292 -0.0285  0.1960 -0.2036
  918MOL0     C23861   1.038   3.457   4.233  0.3720 -0.4929  0.7820
  918MOL0     C23862   0.881   3.457   4.262  0.5765  0.5880  0.4192
  918MOL0     H23863   0.721   3.263   3.987 -2.2443  0.0748  2.2139
  918MOL0     H23864   0.601   3.093   3.839 -1.0156 -3.5293  0.2290
  918MOL0     H23865   0.720   2.707   3.668 -1.5216 -1.6324  0.1037
  918MOL0     H23866   0.835   2.726   3.810 -0.0998  0.5331 -1.9411
  918MOL0     H23867   0.556   2.625   3.814 -0.6773  0.1442 -2.0544
  918MOL0     H23868   0.694   2.593   3.934  4.8052  1.4426 -0.7758
  918MOL0     H23869   0.797   2.435   3.759 -0.7972 -1.2617 -0.6512
  918MOL0     H23870   0.648   2.469   3.665 -1.6576  2.6804 -0.3850
  918MOL0     H23871   0.657   2.374   3.953  1.5305  0.4953 -1.0338
  918MOL0     H23872   0.514   2.372   3.847  0.4758 -0.3226 -0.5151
  918MOL0     H23873   0.693   2.214   3.700  1.1456 -2.1468  1.3660
  918MOL0     H23874   0.739   2.188   3.869 -0.3393 -0.8912 -0.1496
  918MOL0     H23875   0.548   2.104   3.933  1.1974 -2.1584  0.3125
  918MOL0     H23876   0.455   2.135   3.790  0.8682  0.6363 -0.6837
  918MOL0     H23877   0.602   1.969   3.661  3.9601 -0.5755 -0.4021
  918MOL0     H23878   0.508   1.896   3.786  0.4248  0.9356  1.5085
  918MOL0     H23879   0.804   1.929   3.755 -0.9478  1.1785 -0.4696
  918MOL0     H23880   0.751   1.964   3.913 -1.0572 -3.2576  3.2388
  918MOL0     H23881   0.664   1.635   3.685 -0.5385 -0.3800 -0.9257
  918MOL0     H23882   0.705   1.347   3.946 -0.4832  2.1805  0.7894
  918MOL0     H23883   0.581   1.382   3.814 -0.4455  1.7322 -0.8985
  918MOL0     H23884   0.722   1.320   3.657  3.9410  0.4030 -2.9450
  918MOL0     H23885   0.855   1.417   3.710  1.5851 -0.5367  1.0594
  918MOL0     H23886   0.918   1.205   3.729 -2.0168 -0.3212 -2.0108
  918MOL0     H23887   0.786   1.139   3.830 -0.0059  0.7607  2.1096
  918MOL0     H23888   1.041   1.212   3.887 -0.2687 -2.0095  0.6020
  918MOL0     H23889   0.934   1.205   4.018 -3.5352  2.1907  0.2176
  918MOL0     H23890   1.041   1.632   4.040 -4.5266  0.5962  4.9490
  918MOL0     H23891   1.222   1.692   4.189  2.8715  0.7425  0.3321
  918MOL0     H23892   1.737   1.408   4.340 -1.2206  1.1243 -0.8671
  918MOL0     H23893   1.909   1.479   4.517  0.1497  2.3287 -0.3101
  918MOL0     H23894   1.730   1.462   4.913  0.9699 -0.3108  1.9613
  918MOL0     H23895   1.815   1.354   4.811 -2.4998 -0.5759 -0.2188
  918MOL0     H23896   1.984   1.563   4.979  0.2934 -0.6052  0.5532
  918MOL0     H23897   1.899   1.415   5.047 -1.0155 -1.3261 -1.5396
  918MOL0     H23898   2.023   1.262   4.926  0.0923 -0.2046 -1.6620
  918MOL0     H23899   2.086   1.372   4.810 -1.4534 -0.7848 -0.7175
  918MOL0     H23900   2.148   1.354   5.111  1.5428  0.7287 -0.0962
  918MOL0     H23901   2.216   1.481   5.017  0.4221 -0.4414  0.9441
  918MOL0     H23902   2.297   1.325   4.847  1.3268 -3.0899 -0.7343
  918MOL0     H23903   2.268   1.199   4.965 -4.9336  1.7091  1.6746
  918MOL0     H23904   2.516   1.333   4.934 -0.8560 -1.4643  0.3942
  918MOL0     H23905   2.433   1.439   5.055 -0.1498  0.0788  0.6745
  918MOL0     H23906   2.444   1.132   5.096 -1.3821 -0.3810 -0.6795
  918MOL0     H23907   2.405   1.262   5.203 -0.7059 -0.1111 -0.1939
  918MOL0     H23908   2.630   1.160   5.216  0.4322 -0.6433 -0.0333
  918MOL0     H23909   2.657   1.225   5.049  0.5567 -3.8415  0.9969
  918MOL0     H23910   1.582   1.576   4.770  2.3115  0.9305  0.1476
  918MOL0     H23911   1.430   1.575   4.579  0.6397  0.4327  2.2562
  918MOL0     H23912   1.333   1.275   4.210 -0.1370 -0.4310 -2.1112
  918MOL0     H23913   1.167   1.218   4.073  2.5505 -0.0994 -3.6639
  918MOL0     H23914   0.847   2.788   4.000 -3.6020 -0.7187 -0.2697
  918MOL0     H23915   0.947   2.952   4.172  1.8727  1.2886 -0.5110
  918MOL0     H23916   1.326   3.325   4.084  1.8630  2.7692 -2.4866
  918MOL0     H23917   1.424   3.495   4.203  0.3386  3.3940  3.4553
  918MOL0     H23918   1.337   3.831   4.487  1.5280 -0.7551 -1.0632
  918MOL0     H23919   1.182   3.739   4.496 -2.0855  1.7569 -0.4391
  918MOL0     H23920   1.083   3.909   4.407  0.9864  0.7314  0.3727
  918MOL0     H23921   1.178   3.896   4.264 -5.1561 -1.1659 -1.0145
  918MOL0     H23922   1.348   4.064   4.373 -0.2331  0.4612 -1.7056
  918MOL0     H23923   1.260   4.060   4.525 -1.2994 -0.3703  0.0578
  918MOL0     H23924   1.208   4.213   4.300  2.2483  0.7413  2.3971
  918MOL0     H23925   1.077   4.096   4.301  1.7188 -3.3539 -0.4249
  918MOL0     H23926   1.008   4.297   4.673 -0.2443  1.2791 -1.1726
  918MOL0     H23927   1.047   3.633   4.358 -3.0746 -2.3804 -0.0380
  918MOL0     H23928   0.832   3.545   4.304  0.0983 -0.0607  1.2392
  918MOL0     H23929   0.831   3.438   4.166  1.5025 -0.9199  0.1949
  918MOL0     H23930   0.855   3.377   4.332  1.1225 -2.3063 -2.4155
  919MOL0     O23931   2.612  10.844   7.877 -0.4248 -0.2965  0.1184
  919MOL0     C23932   2.547  10.948   7.879  0.6249  0.1893  1.0935
  919MOL0     O23933   2.525  11.020   7.985 -0.4744  0.0371 -0.0852
  919MOL0     C23934   2.580  10.973   8.107  0.0792 -0.1542  0.8484
  919MOL0     C23935   2.513  10.866   8.167 -0.5259  0.4477 -0.2031
  919MOL0     C23936   2.579  10.809   8.285  0.2755  0.1118  0.0120
  919MOL0     C23937   2.698  10.859   8.331 -0.2908  0.5444  0.1900
  919MOL0     O23938   2.756  10.813   8.449 -0.7920 -0.2863  0.7934
  919MOL0     C23939   2.864  10.887   8.512  0.4995 -0.0512 -0.1136
  919MOL0     C23940   3.003  10.829   8.481 -0.0061  0.0036  0.2559
  919MOL0     C23941   3.109  10.932   8.503  0.1427  0.9454 -0.2026
  919MOL0     C23942   3.247  10.861   8.475  0.2526 -0.4224  0.3598
  919MOL0     C23943   3.364  10.949   8.471  0.2164 -1.0491 -0.4129
  919MOL0     C23944   3.380  11.041   8.600  0.0988  0.3222  0.6848
  919MOL0     C23945   3.389  10.985   8.739  0.8755  0.0737 -0.7134
  919MOL0     C23946   3.421  11.097   8.843 -0.6220 -0.0488 -0.7134
  919MOL0     N23947   3.449  11.030   8.975 -0.6460 -0.0637  0.0031
  919MOL0     C23948   3.362  10.970   9.065  0.6648 -0.8809  1.1262
  919MOL0     C23949   3.436  10.920   9.166  1.1050 -0.5082 -0.6551
  919MOL0     C23950   3.378  10.872   9.291  0.0841  0.1549  0.3063
  919MOL0     C23951   3.365  10.713   9.295  0.5027  0.2233 -0.9650
  919MOL0     C23952   3.498  10.653   9.273  0.0104  0.5635 -0.5733
  919MOL0     C23953   3.605  10.696   9.362  0.3070 -0.7210  1.2843
  919MOL0     O23954   3.560  10.705   9.489 -0.3727 -0.1066  0.6271
  919MOL0     C23955   3.635  10.709   9.601 -0.7681  1.4014  0.0472
  919MOL0     C23956   3.771  10.687   9.601 -0.4554 -0.2328  0.8641
  919MOL0     C23957   3.847  10.677   9.720 -0.0902 -0.1081 -0.5888
  919MOL0     C23958   3.777  10.697   9.844  0.3090 -0.6538 -0.1483
  919MOL0     C23959   3.844  10.674   9.974  0.2516 -0.9503  0.2140
  919MOL0     O23960   3.786  10.607  10.085 -1.6967  0.3930  0.2603
  919MOL0     C23961   3.853  10.584  10.204 -0.4286  0.4999  0.4165
  919MOL0     C23962   3.928  10.673  10.276 -0.6272  0.7463  0.2256
  919MOL0     C23963   3.970  10.644  10.402 -0.6019 -0.4404  0.8052
  919MOL0     C23964   3.948  10.525  10.469 -0.2745 -0.2991  0.7810
  919MOL0     O23965   3.983  10.525  10.596  0.4227 -0.0436 -0.3493
  919MOL0     C23966   3.972  10.408  10.671 -0.6142 -0.5538 -1.1441
  919MOL0     C23967   3.997  10.455  10.817 -0.1002  0.2793  0.2557
  919MOL0     C23968   4.144  10.504  10.850  0.5372 -0.2979  0.2416
  919MOL0     C23969   4.145  10.659  10.863 -0.0323 -0.3364  0.4807
  919MOL0     C23970   4.064  10.730  10.966 -0.0665  0.0670 -0.7020
  919MOL0     C23971   4.098  10.669  11.101 -0.4957  0.0420  0.0406
  919MOL0     C23972   4.020  10.742  11.205 -0.0484 -0.6840 -0.7430
  919MOL0     C23973   4.055  10.693  11.345 -0.2985 -0.1882 -0.6155
  919MOL0    Cl23974   3.929  10.739  11.471  0.2982  0.0899  0.0104
  919MOL0     C23975   3.869  10.425  10.394  0.5218 -0.6109  0.4493
  919MOL0     C23976   3.827  10.454  10.261 -1.0451 -0.2907  0.6158
  919MOL0     O23977   3.952  10.736   9.984 -0.2846  0.0594 -0.4759
  919MOL0     C23978   3.635  10.719   9.837 -0.8498 -0.6620 -0.4931
  919MOL0     C23979   3.572  10.729   9.720  0.0363  0.6304  0.8432
  919MOL0     N23980   3.561  10.970   9.147 -0.1378 -0.7679  0.3271
  919MOL0     N23981   3.571  11.036   9.035 -0.6205  0.1448  0.0762
  919MOL0     C23982   2.763  10.950   8.253  0.3722  0.0825 -0.1518
  919MOL0     C23983   2.700  11.018   8.149  0.1429  0.1669 -0.0940
  919MOL0     C23984   2.469  10.983   7.755 -0.3999  0.0791 -0.1447
  919MOL0     C23985   2.377  11.090   7.756  0.1889 -0.9075  0.1386
  919MOL0     C23986   2.313  11.143   7.648  0.1918  0.6217  0.2995
  919MOL0     C23987   2.343  11.086   7.522 -0.0127  0.7488  0.1847
  919MOL0     O23988   2.281  11.126   7.399 -0.2697 -0.2461 -0.5365
  919MOL0     C23989   2.178  11.231   7.398 -0.3198 -0.4238 -0.0749
  919MOL0     C23990   2.239  11.376   7.404  0.5141 -0.1745 -0.2369
  919MOL0     C23991   2.334  11.398   7.288 -0.0367 -0.2640 -0.2965
  919MOL0     C23992   2.284  11.324   7.158  0.1556  0.1249 -0.2258
  919MOL0     C23993   2.362  11.388   7.045 -0.6916 -1.4086  0.1241
  919MOL0     C23994   2.425  11.451   6.957  0.1280  0.1486 -0.2968
  919MOL0     C23995   2.444  10.987   7.515 -1.4096 -0.4800 -0.5863
  919MOL0     C23996   2.495  10.925   7.631  0.0422 -0.1665 -0.5785
  919MOL0     C23997   2.594  10.815   7.601 -0.0440 -0.0118 -0.3915
  919MOL0     H23998   2.420  10.829   8.126  0.1250  0.4214 -1.6964
  919MOL0     H23999   2.535  10.726   8.339 -0.3215 -1.7972 -3.2132
  919MOL0     H24000   2.867  10.993   8.488 -0.0189  0.0271  0.1447
  919MOL0     H24001   2.854  10.878   8.620 -1.9467 -4.0626 -0.4475
  919MOL0     H24002   3.003  10.800   8.375  2.7041  0.2154  0.1380
  919MOL0     H24003   3.023  10.748   8.551 -0.2020 -1.1851 -1.0113
  919MOL0     H24004   3.111  10.960   8.609  0.5180 -1.6936  0.5526
  919MOL0     H24005   3.112  11.021   8.439  2.3099  1.0367 -0.0550
  919MOL0     H24006   3.253  10.791   8.559  2.6535 -1.0279 -0.2280
  919MOL0     H24007   3.235  10.811   8.379  0.0594 -1.2170  0.7901
  919MOL0     H24008   3.457  10.895   8.451  0.7587  0.6487 -2.8912
  919MOL0     H24009   3.362  11.012   8.382  4.6963 -0.8303 -0.6073
  919MOL0     H24010   3.464  11.109   8.584  2.4460 -2.3964  0.6703
  919MOL0     H24011   3.293  11.107   8.601  1.2345  1.8733  1.7010
  919MOL0     H24012   3.462  10.904   8.745 -0.1392 -0.8398 -0.3626
  919MOL0     H24013   3.293  10.939   8.764  0.6651  0.6033 -0.5272
  919MOL0     H24014   3.513  11.150   8.815  0.6170 -1.3570  0.6723
  919MOL0     H24015   3.340  11.168   8.858  0.2167  1.1744 -1.8175
  919MOL0     H24016   3.256  10.949   9.053  1.1355 -2.5246 -0.7040
  919MOL0     H24017   3.438  10.909   9.375  0.7363  1.2197 -0.5805
  919MOL0     H24018   3.284  10.926   9.299  0.3105  1.1450 -2.5245
  919MOL0     H24019   3.310  10.678   9.384  1.2918  2.5660  0.5533
  919MOL0     H24020   3.310  10.687   9.204 -0.5854  0.3727 -0.3768
  919MOL0     H24021   3.529  10.673   9.169  0.4337 -0.3810 -0.6310
  919MOL0     H24022   3.482  10.546   9.281 -1.0306  0.5617 -2.2749
  919MOL0     H24023   3.641  10.796   9.337 -0.6969 -1.0186 -1.8671
  919MOL0     H24024   3.692  10.632   9.343  1.9529  2.1637 -1.9141
  919MOL0     H24025   3.818  10.674   9.504 -1.0372 -3.9957  0.9287
  919MOL0     H24026   3.952  10.655   9.703 -0.7671 -2.5593 -2.1819
  919MOL0     H24027   3.939  10.774  10.238  1.0640  0.1991 -0.8401
  919MOL0     H24028   4.029  10.727  10.439 -1.3914  0.2759  0.4711
  919MOL0     H24029   3.882  10.350  10.648 -0.5633 -0.6424 -1.1197
  919MOL0     H24030   4.060  10.348  10.647  1.2801  2.2185 -1.6236
  919MOL0     H24031   3.916  10.521  10.847 -0.2262 -0.6835  2.1866
  919MOL0     H24032   3.991  10.359  10.870  3.6429  0.2562  0.9122
  919MOL0     H24033   4.174  10.474  10.950  0.0962  0.8682  0.7394
  919MOL0     H24034   4.214  10.482  10.769  0.2777 -1.4457  0.3125
  919MOL0     H24035   4.098  10.699  10.773 -2.6723  0.0663  1.9607
  919MOL0     H24036   4.250  10.688  10.877 -0.2329 -0.0322  1.4581
  919MOL0     H24037   3.957  10.730  10.942 -0.3109 -0.2067  0.3468
  919MOL0     H24038   4.087  10.836  10.983 -2.1005  0.0480  3.2156
  919MOL0     H24039   4.077  10.562  11.115  2.3165 -0.6521 -0.4660
  919MOL0     H24040   4.203  10.683  11.128 -0.6133 -1.9295  1.7689
  919MOL0     H24041   3.916  10.736  11.172 -0.5752  1.9776  0.1176
  919MOL0     H24042   4.044  10.849  11.198 -0.3559 -0.6125 -0.7176
  919MOL0     H24043   4.065  10.584  11.353 -6.0744 -0.9028  1.3437
  919MOL0     H24044   4.154  10.733  11.365  0.4369 -2.3239  0.3039
  919MOL0     H24045   3.818  10.342  10.441 -1.6021  0.0821 -0.5144
  919MOL0     H24046   3.772  10.382  10.202 -1.5431  0.3204  0.3242
  919MOL0     H24047   3.592  10.751   9.931  1.3453  1.3597 -0.0991
  919MOL0     H24048   3.464  10.743   9.724 -0.4156 -1.5222 -1.1490
  919MOL0     H24049   2.864  10.980   8.278  0.4934 -1.7183  1.8131
  919MOL0     H24050   2.744  11.091   8.082 -0.3463 -1.0204 -1.7798
  919MOL0     H24051   2.350  11.147   7.844  1.7715  0.5182 -0.2509
  919MOL0     H24052   2.235  11.212   7.676 -0.7958 -0.4042  0.1556
  919MOL0     H24053   2.092  11.212   7.463  0.3480 -2.0360  0.3876
  919MOL0     H24054   2.129  11.220   7.301  1.1501 -2.3524 -0.6488
  919MOL0     H24055   2.264  11.399   7.508  1.2657  1.0587 -0.6662
  919MOL0     H24056   2.159  11.439   7.365  0.8920  0.5766  0.1891
  919MOL0     H24057   2.439  11.378   7.310  0.2340  1.8402  0.5123
  919MOL0     H24058   2.323  11.505   7.266  0.7009  0.0801  0.9091
  919MOL0     H24059   2.310  11.218   7.155 -1.0981 -0.1750 -1.2118
  919MOL0     H24060   2.180  11.340   7.130 -0.1189 -2.1657 -0.7583
  919MOL0     H24061   2.483  11.498   6.880  3.0944 -0.2750  1.5049
  919MOL0     H24062   2.477  10.960   7.415 -3.6077  0.1247 -1.5413
  919MOL0     H24063   2.571  10.719   7.648 -1.6683 -1.3026 -3.5232
  919MOL0     H24064   2.627  10.806   7.497  2.7498  2.7533  0.1094
  919MOL0     H24065   2.689  10.840   7.649 -0.3408 -1.4807  1.0816
  920MOL0     O24066   3.555   9.562   2.595 -0.3739  0.1842 -0.2116
  920MOL0     C24067   3.677   9.554   2.568 -0.1387  0.1822 -0.2125
  920MOL0     O24068   3.734   9.465   2.475  0.6883 -0.1558 -0.4301
  920MOL0     C24069   3.654   9.378   2.421  0.7174  0.2983  0.7581
  920MOL0     C24070   3.697   9.243   2.412 -0.3618 -0.1668  0.3694
  920MOL0     C24071   3.623   9.150   2.352 -0.6688  0.5662  0.3619
  920MOL0     C24072   3.507   9.179   2.294 -0.1159 -0.0942  0.0555
  920MOL0     O24073   3.438   9.072   2.237 -0.3712 -0.9852 -1.2790
  920MOL0     C24074   3.311   9.084   2.170  0.5387  0.1712  0.1916
  920MOL0     C24075   3.339   9.151   2.040 -0.5295  0.4612  0.4425
  920MOL0     C24076   3.402   9.072   1.928  0.1171  0.2637 -0.2291
  920MOL0     C24077   3.444   9.163   1.814 -0.7261 -0.1641  0.1222
  920MOL0     C24078   3.549   9.106   1.718 -0.4041 -0.5247  1.4584
  920MOL0     C24079   3.487   9.013   1.612 -0.0039 -0.2969  0.7134
  920MOL0     C24080   3.590   8.963   1.506 -0.1927 -0.5240  0.5249
  920MOL0     C24081   3.520   8.874   1.398  0.5343  0.7675 -0.5776
  920MOL0     N24082   3.423   8.925   1.304 -1.0042  0.0353  0.0396
  920MOL0     C24083   3.278   8.912   1.317 -1.5572 -0.0755  0.6844
  920MOL0     C24084   3.232   8.972   1.211 -0.0397 -0.2610  0.2391
  920MOL0     C24085   3.081   8.990   1.176 -0.1731 -0.2251 -0.2201
  920MOL0     C24086   3.015   9.110   1.236  0.1764 -0.6027 -1.0641
  920MOL0     C24087   3.021   9.109   1.383 -1.3698  0.4587  0.3560
  920MOL0     C24088   2.923   9.206   1.438  0.0768 -0.1521 -0.7514
  920MOL0     O24089   2.931   9.183   1.587  1.0004 -0.2592 -0.5861
  920MOL0     C24090   3.010   9.263   1.661  0.4070  0.1554 -0.0468
  920MOL0     C24091   3.112   9.342   1.613  0.1285 -1.2048  0.0939
  920MOL0     C24092   3.182   9.430   1.700  0.1174  0.0400  1.1160
  920MOL0     C24093   3.161   9.418   1.842  0.2708 -0.0725  0.1017
  920MOL0     C24094   3.220   9.513   1.933  0.6160  0.1935  0.5549
  920MOL0     O24095   3.323   9.583   1.883 -0.0710 -0.2000 -0.0638
  920MOL0     C24096   3.345   9.702   1.937  0.2545 -0.1277  0.0466
  920MOL0     C24097   3.256   9.812   1.920 -0.0853 -0.3490  0.8477
  920MOL0     C24098   3.293   9.944   1.959  1.0526  0.2353  0.0328
  920MOL0     C24099   3.413   9.969   2.021  0.9267  0.2481 -0.0149
  920MOL0     O24100   3.464  10.095   2.047  0.6194 -0.6191 -0.4206
  920MOL0     C24101   3.428  10.199   1.958  0.3498 -0.7938  0.7933
  920MOL0     C24102   3.441  10.171   1.798 -0.3795 -0.7155  0.3394
  920MOL0     C24103   3.437  10.306   1.716  0.7586  0.3341 -0.4040
  920MOL0     C24104   3.288  10.359   1.735 -1.1186  0.7233  0.2205
  920MOL0     C24105   3.258  10.484   1.658 -0.9087 -0.1129  0.2367
  920MOL0     C24106   3.254  10.465   1.504 -0.5974  0.5277  0.0981
  920MOL0     C24107   3.216  10.597   1.433 -0.0759 -0.7553 -0.1626
  920MOL0     C24108   3.223  10.576   1.279 -0.4182  0.1631 -0.5865
  920MOL0    Cl24109   3.392  10.617   1.229  0.0434  0.0676  0.1226
  920MOL0     C24110   3.490   9.862   2.059  1.0599 -0.0205 -0.0425
  920MOL0     C24111   3.462   9.734   2.016  0.2376  0.2912  0.9025
  920MOL0     O24112   3.177   9.510   2.049  0.3982  0.4849  0.3698
  920MOL0     C24113   3.080   9.326   1.890  0.6217  0.7530  0.4543
  920MOL0     C24114   3.001   9.247   1.802 -0.1783 -0.8820 -0.1577
  920MOL0     N24115   3.334   9.035   1.142  0.6416 -0.1173 -0.6460
  920MOL0     N24116   3.451   9.007   1.200  0.5217  0.5455 -0.0934
  920MOL0     C24117   3.471   9.322   2.288 -1.0069  1.2292  0.4875
  920MOL0     C24118   3.545   9.418   2.356  0.7696 -0.1154  0.0706
  920MOL0     C24119   3.769   9.644   2.647 -0.1267  0.1362 -0.2589
  920MOL0     C24120   3.891   9.688   2.588  0.9852  0.5437  1.0547
  920MOL0     C24121   3.953   9.788   2.648 -0.0379  0.1135 -0.4165
  920MOL0     C24122   3.917   9.848   2.771 -0.0195  0.4241 -0.1265
  920MOL0     O24123   3.984   9.953   2.833  0.0339  0.7033 -0.4082
  920MOL0     C24124   4.122   9.991   2.794 -0.2936  0.2210 -0.2967
  920MOL0     C24125   4.226   9.898   2.871  0.4704  0.0157  0.6628
  920MOL0     C24126   4.226   9.914   3.023  0.3505  0.4105  0.3133
  920MOL0     C24127   4.328   9.812   3.076  0.1998 -0.1398 -0.5480
  920MOL0     C24128   4.452   9.874   3.090  0.4650 -0.4693  0.9347
  920MOL0     C24129   4.552   9.935   3.100 -0.0552  0.6997 -0.1071
  920MOL0     C24130   3.808   9.792   2.840 -0.0976 -0.0781 -0.6155
  920MOL0     C24131   3.730   9.694   2.781 -0.1507  0.7746  0.4664
  920MOL0     C24132   3.612   9.632   2.860  0.5521  0.0527  0.3248
  920MOL0     H24133   3.784   9.205   2.465  1.2268  2.3274 -0.2337
  920MOL0     H24134   3.660   9.048   2.351 -0.8810  0.4385  2.0536
  920MOL0     H24135   3.280   8.981   2.155  1.8125 -0.3437  0.9750
  920MOL0     H24136   3.233   9.137   2.227 -2.0258 -1.8317 -1.2442
  920MOL0     H24137   3.393   9.245   2.058  0.7440 -0.3637  1.0400
  920MOL0     H24138   3.240   9.183   2.006 -0.2801  0.4397 -0.3252
  920MOL0     H24139   3.329   8.998   1.893 -1.6052  1.9659 -0.3825
  920MOL0     H24140   3.492   9.018   1.958 -0.6187 -1.5474 -1.0985
  920MOL0     H24141   3.353   9.192   1.759 -0.4229  0.0221 -0.2897
  920MOL0     H24142   3.477   9.257   1.858  0.5471 -1.7161  2.6761
  920MOL0     H24143   3.590   9.193   1.665  1.5905 -0.7122  2.6139
  920MOL0     H24144   3.629   9.056   1.773 -0.3593  0.1214  1.9917
  920MOL0     H24145   3.442   8.926   1.661  0.4367 -3.5516 -4.0436
  920MOL0     H24146   3.406   9.060   1.555 -0.7553 -1.3946  0.8502
  920MOL0     H24147   3.660   8.900   1.561 -0.3112 -1.4781 -0.3989
  920MOL0     H24148   3.650   9.042   1.460 -0.4263 -0.1651  0.8232
  920MOL0     H24149   3.590   8.813   1.338 -0.3408 -0.3779 -0.4657
  920MOL0     H24150   3.466   8.804   1.462 -1.6663  1.0295 -2.0567
  920MOL0     H24151   3.235   8.858   1.400  0.9563  0.3291  2.3703
  920MOL0     H24152   3.069   9.002   1.068 -1.3019  2.6267  0.1243
  920MOL0     H24153   3.022   8.906   1.214 -1.5204  0.8012  0.0395
  920MOL0     H24154   3.055   9.200   1.189  0.3655  0.0619  0.3199
  920MOL0     H24155   2.908   9.110   1.213 -0.2515 -1.0527  0.7644
  920MOL0     H24156   3.123   9.134   1.411 -1.3356  2.1680 -1.1312
  920MOL0     H24157   2.999   9.011   1.428  3.4677 -1.1225 -0.2156
  920MOL0     H24158   2.825   9.178   1.398  1.2461 -0.6239 -3.5419
  920MOL0     H24159   2.936   9.313   1.417  2.0861 -0.3899 -0.9316
  920MOL0     H24160   3.141   9.350   1.509 -1.4824  1.6619 -0.2547
  920MOL0     H24161   3.255   9.496   1.654  1.0843 -2.1285 -0.6147
  920MOL0     H24162   3.160   9.807   1.870  0.1881  1.7493  0.0209
  920MOL0     H24163   3.236  10.035   1.945  0.9423  0.2267  0.4123
  920MOL0     H24164   3.324  10.228   1.977  1.1794  2.3054  1.1820
  920MOL0     H24165   3.494  10.284   1.976  1.7537 -1.9835  1.5102
  920MOL0     H24166   3.540  10.138   1.767 -0.6590 -1.6099  0.3715
  920MOL0     H24167   3.358  10.107   1.768 -0.6942  1.3552 -3.8329
  920MOL0     H24168   3.500  10.385   1.759  0.8975  0.7392 -1.3194
  920MOL0     H24169   3.473  10.273   1.618 -0.3539 -2.6840  0.1191
  920MOL0     H24170   3.265  10.390   1.837 -0.0735  1.7747  0.1561
  920MOL0     H24171   3.214  10.283   1.707 -0.3685  0.0125  0.1084
  920MOL0     H24172   3.326  10.569   1.667 -1.8936  0.7651 -0.2285
  920MOL0     H24173   3.158  10.520   1.685 -0.5810  2.3151 -1.4554
  920MOL0     H24174   3.356  10.450   1.468 -0.7783 -0.5667  0.0076
  920MOL0     H24175   3.188  10.382   1.475  1.4753 -1.0031 -0.4530
  920MOL0     H24176   3.284  10.677   1.462  0.5234 -0.7624 -1.4652
  920MOL0     H24177   3.115  10.614   1.470 -0.1857 -1.2786 -0.2189
  920MOL0     H24178   3.206  10.470   1.257 -1.7406  0.5942 -1.7959
  920MOL0     H24179   3.146  10.644   1.241 -1.3526  0.6620  1.9906
  920MOL0     H24180   3.589   9.865   2.105  0.1263  0.4059  2.0616
  920MOL0     H24181   3.535   9.654   2.025  2.2264  0.8634 -5.4415
  920MOL0     H24182   3.047   9.313   1.992  1.7039  1.0358  0.8540
  920MOL0     H24183   2.955   9.156   1.840  0.9612 -2.7096 -2.8353
  920MOL0     H24184   3.376   9.347   2.243 -1.6000  1.0754  1.6200
  920MOL0     H24185   3.502   9.518   2.368  0.6580 -0.1998  0.4043
  920MOL0     H24186   3.911   9.665   2.484 -3.5021  1.1463 -0.1394
  920MOL0     H24187   4.029   9.843   2.593 -0.8779  2.4523  0.5983
  920MOL0     H24188   4.133  10.092   2.835  1.0087 -0.2701  0.6377
  920MOL0     H24189   4.146   9.999   2.688  1.9948  0.6542  0.1897
  920MOL0     H24190   4.324   9.933   2.837 -0.8890  2.9175 -0.6917
  920MOL0     H24191   4.184   9.801   2.844  2.7126  0.0358 -3.9769
  920MOL0     H24192   4.127   9.897   3.065 -0.5415 -0.6200 -2.0456
  920MOL0     H24193   4.240  10.019   3.052 -2.9521  0.9713  0.2847
  920MOL0     H24194   4.294   9.770   3.171  0.5620 -3.5260 -1.7625
  920MOL0     H24195   4.344   9.731   3.004 -0.9122 -0.6588 -0.2285
  920MOL0     H24196   4.644   9.974   3.138 -0.9033  1.0361  1.7323
  920MOL0     H24197   3.779   9.838   2.934  1.2801  1.7826 -1.0363
  920MOL0     H24198   3.610   9.524   2.842  0.7986 -0.4437  2.9041
  920MOL0     H24199   3.630   9.659   2.964 -2.7641  3.0164  0.3183
  920MOL0     H24200   3.517   9.681   2.838  0.3066  0.3041  1.8688
  921MOL0     O24201   7.948   9.149   8.853 -0.2167  0.1405  0.3102
  921MOL0     C24202   7.887   9.152   8.960 -0.3775 -0.0415  0.4542
  921MOL0     O24203   7.925   9.226   9.064  0.1072  0.1829 -0.9889
  921MOL0     C24204   8.021   9.330   9.046  0.4431  0.6981  0.6295
  921MOL0     C24205   8.139   9.316   9.126  0.0252  1.4020  0.8928
  921MOL0     C24206   8.225   9.430   9.135 -0.0064  0.1680 -0.8889
  921MOL0     C24207   8.193   9.552   9.069  1.1566  0.1145  0.3649
  921MOL0     O24208   8.284   9.653   9.069  0.0921 -0.5096 -0.3675
  921MOL0     C24209   8.367   9.665   8.953 -0.5733  0.2468 -0.5361
  921MOL0     C24210   8.469   9.547   8.920  0.2461 -0.2355  0.1294
  921MOL0     C24211   8.584   9.543   9.016 -0.7511 -0.1822 -0.3529
  921MOL0     C24212   8.684   9.423   9.009  0.3959 -0.7685 -0.9654
  921MOL0     C24213   8.801   9.412   9.108  0.2131 -0.7924 -0.8019
  921MOL0     C24214   8.872   9.545   9.149  0.2460  0.2895  0.0091
  921MOL0     C24215   8.937   9.603   9.023  0.2294  0.0735 -0.8508
  921MOL0     C24216   9.065   9.529   8.981 -0.0378 -0.2590  0.7762
  921MOL0     N24217   9.193   9.604   9.004  0.1127  0.4035 -0.3806
  921MOL0     C24218   9.304   9.587   8.922  0.9470  0.0666 -1.1333
  921MOL0     C24219   9.401   9.642   8.992 -0.4701  0.4806  0.3862
  921MOL0     C24220   9.547   9.665   8.965 -0.8326 -0.2648  0.5185
  921MOL0     C24221   9.643   9.549   9.013  0.3015 -0.1406 -0.1063
  921MOL0     C24222   9.775   9.542   8.943  0.6405 -0.0790 -0.4351
  921MOL0     C24223   9.862   9.422   8.999 -0.5488  0.7509 -1.0073
  921MOL0     O24224   9.933   9.462   9.120  0.2052  0.0416  0.2858
  921MOL0     C24225   9.994   9.375   9.201 -0.4989 -0.2022 -1.3719
  921MOL0     C24226  10.067   9.422   9.309  1.0219 -0.7153  1.2841
  921MOL0     C24227  10.153   9.345   9.392  0.1183  0.0920 -0.3180
  921MOL0     C24228  10.170   9.209   9.361 -0.3158 -0.4190  0.9267
  921MOL0     C24229  10.247   9.122   9.440 -0.7180 -1.3188  0.9645
  921MOL0     O24230  10.299   9.179   9.547  0.2239  0.3086 -0.1213
  921MOL0     C24231  10.348   9.089   9.642  1.1495 -0.2255  0.1732
  921MOL0     C24232  10.484   9.057   9.640  0.2819  0.2606 -0.4908
  921MOL0     C24233  10.528   8.960   9.726 -0.6070  0.3755 -0.2056
  921MOL0     C24234  10.438   8.896   9.820 -0.1360 -0.0339  0.2203
  921MOL0     O24235  10.512   8.806   9.897  0.5611 -0.3625  0.4071
  921MOL0     C24236  10.437   8.685   9.932 -0.0208 -0.0865  0.8094
  921MOL0     C24237  10.510   8.615  10.042 -0.8697 -0.1311 -1.4190
  921MOL0     C24238  10.648   8.571   9.997  0.0385 -0.5709 -0.3074
  921MOL0     C24239  10.713   8.463  10.084  0.3001 -1.2544  0.1720
  921MOL0     C24240  10.838   8.402  10.027  0.1050  0.3624  0.3376
  921MOL0     C24241  10.819   8.311   9.901  0.3191  0.0554  0.9975
  921MOL0     C24242  10.951   8.306   9.820 -0.1468  0.9049 -0.2257
  921MOL0     C24243  10.942   8.236   9.694 -0.1095 -0.6745 -0.0324
  921MOL0    Cl24244  10.934   8.066   9.724  0.0832  0.2963  0.0177
  921MOL0     C24245  10.306   8.946   9.834 -0.4505  0.9717 -0.5344
  921MOL0     C24246  10.263   9.045   9.741 -0.2176 -0.7145 -0.0167
  921MOL0     O24247  10.254   9.001   9.414  0.2876 -0.2071 -0.3347
  921MOL0     C24248  10.097   9.160   9.251 -0.0915  0.1546  0.2621
  921MOL0     C24249  10.006   9.233   9.166  0.1261 -0.9345 -0.0151
  921MOL0     N24250   9.343   9.691   9.115 -0.1620 -0.5055 -0.0379
  921MOL0     N24251   9.220   9.679   9.114 -0.2798  0.1363  0.4076
  921MOL0     C24252   8.080   9.553   8.978 -0.2857 -0.3047  0.7330
  921MOL0     C24253   7.994   9.446   8.972  0.6323 -0.1429  0.4311
  921MOL0     C24254   7.762   9.063   8.980  0.1707 -0.4012 -0.9013
  921MOL0     C24255   7.670   9.113   9.065  0.2111  0.1959 -0.1371
  921MOL0     C24256   7.555   9.039   9.101  0.5906 -0.0727  0.4195
  921MOL0     C24257   7.529   8.909   9.048 -0.4955 -0.2460 -0.0126
  921MOL0     O24258   7.422   8.837   9.086  0.2336  0.5651  0.1273
  921MOL0     C24259   7.377   8.837   9.224  0.3744  0.2937 -0.1361
  921MOL0     C24260   7.472   8.765   9.331 -0.6058 -0.3829 -0.5279
  921MOL0     C24261   7.607   8.842   9.354  0.2401 -0.0975  0.7206
  921MOL0     C24262   7.658   8.805   9.494 -0.7847 -0.1524 -0.3127
  921MOL0     C24263   7.781   8.719   9.484 -0.4868 -0.1472 -0.1122
  921MOL0     C24264   7.872   8.635   9.468 -0.1076  1.5533 -0.4813
  921MOL0     C24265   7.610   8.873   8.942  0.0376 -0.8006  0.0493
  921MOL0     C24266   7.720   8.949   8.907 -0.0732 -0.3044  0.0464
  921MOL0     C24267   7.795   8.895   8.794 -0.7256 -0.1512  0.2315
  921MOL0     H24268   8.162   9.236   9.196 -1.8390  0.7655  0.8289
  921MOL0     H24269   8.294   9.448   9.217 -1.3397  0.9390  0.1191
  921MOL0     H24270   8.301   9.691   8.869 -0.3643  0.2219 -0.7105
  921MOL0     H24271   8.434   9.750   8.969  0.3734 -0.4937 -0.4555
  921MOL0     H24272   8.509   9.571   8.821 -1.0324 -4.6952 -1.7087
  921MOL0     H24273   8.427   9.447   8.906 -2.3321  0.8320 -0.3760
  921MOL0     H24274   8.548   9.554   9.119  1.7364 -1.0543  0.6865
  921MOL0     H24275   8.643   9.634   8.999 -3.9433  1.9108 -1.2785
  921MOL0     H24276   8.614   9.340   9.020  0.5091 -0.5996  1.5430
  921MOL0     H24277   8.719   9.403   8.908  3.2514  1.2954 -0.5054
  921MOL0     H24278   8.769   9.362   9.200 -0.8372  1.5878  0.2189
  921MOL0     H24279   8.871   9.348   9.054  1.1773 -0.6402  0.2211
  921MOL0     H24280   8.798   9.614   9.190 -2.3180 -2.3690  0.1541
  921MOL0     H24281   8.946   9.508   9.220  0.8882 -0.2111 -0.9047
  921MOL0     H24282   8.969   9.707   9.034 -0.2118 -0.0388  2.4830
  921MOL0     H24283   8.861   9.603   8.944 -2.6236  1.4686  1.6757
  921MOL0     H24284   9.073   9.441   9.045  0.9754 -2.0477 -1.6691
  921MOL0     H24285   9.070   9.487   8.880  1.8391  2.7372 -0.5368
  921MOL0     H24286   9.306   9.531   8.829 -0.8495  0.3113 -1.3713
  921MOL0     H24287   9.560   9.683   8.858  2.6090 -0.3729  0.8072
  921MOL0     H24288   9.579   9.759   9.012 -0.5568 -0.7158  1.2445
  921MOL0     H24289   9.643   9.549   9.122 -1.1454  1.1092 -0.0666
  921MOL0     H24290   9.587   9.462   8.979  1.6651 -0.4717 -1.6609
  921MOL0     H24291   9.824   9.638   8.960  0.6664 -0.4719  1.9196
  921MOL0     H24292   9.762   9.530   8.835  2.8234  2.0979 -1.0255
  921MOL0     H24293   9.941   9.400   8.926  0.2594  2.0055 -0.5375
  921MOL0     H24294   9.798   9.338   9.028  0.4985  0.7520  1.5377
  921MOL0     H24295  10.050   9.527   9.331 -1.1603 -0.3762 -1.5513
  921MOL0     H24296  10.214   9.390   9.470 -1.5629 -2.7954  2.9416
  921MOL0     H24297  10.548   9.098   9.563 -0.6899  0.5294 -1.1695
  921MOL0     H24298  10.635   8.941   9.734 -0.6245  0.2474 -0.2818
  921MOL0     H24299  10.339   8.713   9.973  0.2562  0.9401  0.8124
  921MOL0     H24300  10.436   8.609   9.854  1.8615 -2.3975  2.8993
  921MOL0     H24301  10.512   8.676  10.133 -1.7091 -0.2850 -1.2940
  921MOL0     H24302  10.458   8.521  10.062 -0.8213  0.0719 -0.2334
  921MOL0     H24303  10.633   8.524   9.900  0.1418  0.0490 -0.6250
  921MOL0     H24304  10.719   8.653   9.984  0.6657 -0.9466  0.6151
  921MOL0     H24305  10.647   8.377  10.096  1.8790 -2.2313  2.6103
  921MOL0     H24306  10.741   8.497  10.184  2.5761  0.1752 -0.8579
  921MOL0     H24307  10.885   8.344  10.106  1.8474  2.5906  1.0460
  921MOL0     H24308  10.902   8.481   9.987 -0.3231 -0.7516 -2.8017
  921MOL0     H24309  10.792   8.211   9.935 -0.9723  0.3923  1.0243
  921MOL0     H24310  10.734   8.353   9.845  1.4530 -0.0467 -0.9024
  921MOL0     H24311  11.030   8.263   9.882 -1.3723 -0.3551  0.5084
  921MOL0     H24312  10.979   8.412   9.813  1.1216  0.6371  0.4938
  921MOL0     H24313  10.868   8.281   9.627 -1.3111 -0.3733  1.4727
  921MOL0     H24314  11.040   8.247   9.646  0.1300 -2.5959 -0.0738
  921MOL0     H24315  10.238   8.907   9.910  3.9568 -0.4041  3.1525
  921MOL0     H24316  10.162   9.084   9.742  0.1825  0.4584  2.4772
  921MOL0     H24317  10.110   9.058   9.217  0.0323  0.9562 -2.2947
  921MOL0     H24318   9.954   9.186   9.083 -4.5789 -1.9241  3.1082
  921MOL0     H24319   8.064   9.638   8.913 -1.0074 -0.7464  0.3228
  921MOL0     H24320   7.917   9.444   8.896  1.6851  1.1439 -0.7052
  921MOL0     H24321   7.693   9.205   9.118 -0.7418  0.3412  0.0514
  921MOL0     H24322   7.484   9.078   9.173  0.3828 -0.1049  0.2312
  921MOL0     H24323   7.275   8.797   9.227 -0.7753  3.0261  3.4336
  921MOL0     H24324   7.355   8.936   9.265 -3.6510 -1.1744  1.7286
  921MOL0     H24325   7.500   8.661   9.317 -0.4543 -0.8151  2.4197
  921MOL0     H24326   7.421   8.781   9.426 -1.8495 -2.0681 -0.8832
  921MOL0     H24327   7.589   8.950   9.350  2.9179  0.3922 -1.1998
  921MOL0     H24328   7.679   8.812   9.277 -0.1095 -3.6673  1.5961
  921MOL0     H24329   7.671   8.899   9.549  0.6130  0.1981 -1.1775
  921MOL0     H24330   7.589   8.739   9.546 -0.2998  0.6830  1.4805
  921MOL0     H24331   7.941   8.556   9.450 -2.2358 -0.6968  0.6181
  921MOL0     H24332   7.583   8.791   8.877 -0.6895  0.3098 -1.1062
  921MOL0     H24333   7.803   8.970   8.715 -2.6078 -0.5408 -0.3921
  921MOL0     H24334   7.892   8.863   8.833  0.3979 -2.2702 -3.7834
  921MOL0     H24335   7.741   8.810   8.752 -1.4409 -0.0064  0.8330
  922MOL0     O24336   4.874   1.406   7.644  0.1896 -1.0822 -0.1758
  922MOL0     C24337   4.791   1.350   7.578  0.2985  0.4112  0.5778
  922MOL0     O24338   4.828   1.283   7.471  0.3861  0.7350  0.6729
  922MOL0     C24339   4.964   1.278   7.442  0.1470 -0.9468 -0.0544
  922MOL0     C24340   5.046   1.382   7.397  1.3924 -0.2286 -0.0095
  922MOL0     C24341   5.182   1.365   7.394 -0.2712  0.0968 -0.3235
  922MOL0     C24342   5.243   1.249   7.427  0.9391  0.4966 -1.0082
  922MOL0     O24343   5.376   1.232   7.437 -0.2675  0.5176 -0.3006
  922MOL0     C24344   5.444   1.342   7.495 -0.3600 -0.5478 -0.5183
  922MOL0     C24345   5.562   1.286   7.576 -0.5508 -0.8174 -0.5236
  922MOL0     C24346   5.662   1.381   7.647  0.6856  0.3078  0.9840
  922MOL0     C24347   5.585   1.492   7.729 -0.4146 -0.1693 -0.5967
  922MOL0     C24348   5.699   1.561   7.808 -0.2613 -0.7037  0.1261
  922MOL0     C24349   5.729   1.491   7.944  0.0645  0.7319  1.1618
  922MOL0     C24350   5.820   1.571   8.027  0.3242 -0.2759  0.4177
  922MOL0     C24351   5.783   1.720   8.050 -0.0736 -0.3939  0.4990
  922MOL0     N24352   5.647   1.752   8.084  0.1336 -0.5097 -0.2665
  922MOL0     C24353   5.597   1.711   8.204 -0.3209  0.5750  0.5966
  922MOL0     C24354   5.475   1.761   8.212 -0.7343 -0.7222 -0.3150
  922MOL0     C24355   5.397   1.756   8.338 -0.8738  0.2200 -0.0524
  922MOL0     C24356   5.282   1.656   8.319  0.6523 -0.0737  0.7037
  922MOL0     C24357   5.309   1.521   8.393  0.3748  0.2176  1.1201
  922MOL0     C24358   5.397   1.424   8.321  0.1381  0.0518  0.6786
  922MOL0     O24359   5.335   1.377   8.197  0.0560  0.1405  0.0535
  922MOL0     C24360   5.390   1.274   8.131 -0.7148  1.0369  0.0798
  922MOL0     C24361   5.319   1.202   8.041  0.0765  0.4309 -0.3108
  922MOL0     C24362   5.360   1.106   7.948 -1.8369  0.1517 -0.6436
  922MOL0     C24363   5.490   1.062   7.972  0.8043  0.0851  0.0742
  922MOL0     C24364   5.540   0.938   7.905 -0.3586  0.1771 -0.5799
  922MOL0     O24365   5.478   0.905   7.785 -0.0447  0.1287  0.1957
  922MOL0     C24366   5.507   0.776   7.736 -0.3309  0.0755 -0.1323
  922MOL0     C24367   5.493   0.757   7.600 -0.3420 -0.6957  0.5143
  922MOL0     C24368   5.522   0.628   7.554  0.0966  0.5105  0.1739
  922MOL0     C24369   5.549   0.521   7.635  0.1945  0.6005  0.4721
  922MOL0     O24370   5.573   0.402   7.566 -0.6790  0.6445 -0.3851
  922MOL0     C24371   5.557   0.281   7.644 -0.3415  0.4501  0.2688
  922MOL0     C24372   5.544   0.163   7.555  0.5904  0.4168  0.1980
  922MOL0     C24373   5.644   0.154   7.444  0.1585  0.3987  0.6828
  922MOL0     C24374   5.655   0.020   7.378 -0.4460  0.1270  0.0156
  922MOL0     C24375   5.758  -0.065   7.451  0.2508  0.1171 -1.1128
  922MOL0     C24376   5.807  -0.180   7.358 -0.3293  0.5958  0.0332
  922MOL0     C24377   5.905  -0.267   7.432  0.4106  0.7265  0.0572
  922MOL0     C24378   5.928  -0.395   7.350  0.4002 -0.1950 -0.1244
  922MOL0    Cl24379   6.027  -0.369   7.203 -0.0858  0.0735  0.0446
  922MOL0     C24380   5.548   0.543   7.776 -0.8967 -0.2842 -0.0877
  922MOL0     C24381   5.518   0.674   7.826 -1.0589  0.6556  0.0585
  922MOL0     O24382   5.643   0.894   7.954  0.1392 -0.2254  0.2638
  922MOL0     C24383   5.575   1.127   8.064 -0.3003  0.2551 -0.9684
  922MOL0     C24384   5.524   1.234   8.150 -0.0256  0.2267  0.1625
  922MOL0     N24385   5.452   1.828   8.091  0.5979  0.3380 -0.5478
  922MOL0     N24386   5.555   1.827   8.013  0.7925  0.2381  0.5345
  922MOL0     C24387   5.161   1.137   7.446 -0.7078 -0.4849  0.1807
  922MOL0     C24388   5.026   1.150   7.452 -0.3001  0.7829 -0.2889
  922MOL0     C24389   4.648   1.369   7.617  0.2735 -0.2764  0.0283
  922MOL0     C24390   4.616   1.457   7.721 -0.7141  0.3020  0.6248
  922MOL0     C24391   4.486   1.451   7.775  0.1310 -0.8398  0.5211
  922MOL0     C24392   4.378   1.394   7.717 -0.5004  0.7850  0.2460
  922MOL0     O24393   4.250   1.390   7.758 -0.9286 -0.1507  0.7374
  922MOL0     C24394   4.239   1.371   7.896  0.3606  0.0342  0.5553
  922MOL0     C24395   4.123   1.441   7.958  0.4767  0.8053  0.7271
  922MOL0     C24396   4.084   1.408   8.107 -0.7201 -0.6173 -0.1115
  922MOL0     C24397   3.963   1.487   8.156  0.4355  0.0113 -1.0811
  922MOL0     C24398   3.976   1.636   8.135  0.5510 -0.1187  0.1794
  922MOL0     C24399   3.990   1.755   8.118  1.6649  0.1381 -1.0629
  922MOL0     C24400   4.409   1.333   7.599  0.4278 -0.0020  0.1946
  922MOL0     C24401   4.539   1.308   7.550 -0.0816 -0.4156 -0.7561
  922MOL0     C24402   4.553   1.243   7.411  0.0710  0.5336  0.0093
  922MOL0     H24403   5.008   1.479   7.369 -1.2798 -1.6941 -1.9545
  922MOL0     H24404   5.235   1.459   7.380 -1.1154  0.9194  1.7204
  922MOL0     H24405   5.467   1.413   7.416 -1.2593  0.9930  0.5684
  922MOL0     H24406   5.375   1.385   7.568  0.0700 -2.6041  1.2213
  922MOL0     H24407   5.609   1.211   7.513 -1.7062 -3.0000  1.0866
  922MOL0     H24408   5.512   1.231   7.656  3.7234 -1.4008  2.0426
  922MOL0     H24409   5.727   1.425   7.570 -0.0306  1.6902  1.1297
  922MOL0     H24410   5.728   1.321   7.710  5.6353  1.5835 -2.3569
  922MOL0     H24411   5.539   1.557   7.653  1.4923  0.0283 -1.6528
  922MOL0     H24412   5.501   1.447   7.782 -0.8161 -0.1607 -1.2103
  922MOL0     H24413   5.789   1.568   7.747 -0.7780 -0.8710 -0.6640
  922MOL0     H24414   5.680   1.668   7.824 -1.0821 -0.9489  0.9225
  922MOL0     H24415   5.642   1.467   8.006 -1.5900 -2.0249 -1.9137
  922MOL0     H24416   5.776   1.397   7.913 -2.2992  0.1490 -0.9942
  922MOL0     H24417   5.924   1.556   7.996  0.2920  0.7626 -0.2397
  922MOL0     H24418   5.832   1.524   8.125  3.9229 -1.8545 -0.6139
  922MOL0     H24419   5.850   1.775   8.115  1.3017  1.3268 -2.1886
  922MOL0     H24420   5.794   1.780   7.959  1.6375 -0.7665  0.4245
  922MOL0     H24421   5.654   1.663   8.282 -1.3835 -3.8553 -1.0547
  922MOL0     H24422   5.466   1.741   8.422  0.1354  4.4664  0.1153
  922MOL0     H24423   5.355   1.855   8.355  1.1686  0.9128  1.4896
  922MOL0     H24424   5.196   1.691   8.378  0.5563  0.5617  0.1859
  922MOL0     H24425   5.259   1.635   8.214 -0.0684  1.0231  0.6299
  922MOL0     H24426   5.218   1.460   8.394  1.1674 -1.2925 -2.7754
  922MOL0     H24427   5.334   1.536   8.498  0.3589  0.1116  1.1389
  922MOL0     H24428   5.427   1.346   8.392  4.7755  2.0367  1.2377
  922MOL0     H24429   5.493   1.466   8.290  0.0077 -1.2562 -1.6925
  922MOL0     H24430   5.221   1.238   8.014  0.5420  2.5550  0.6798
  922MOL0     H24431   5.301   1.067   7.866 -0.9060 -0.3235 -1.1024
  922MOL0     H24432   5.496   0.846   7.539  0.8234 -0.8331  0.3484
  922MOL0     H24433   5.525   0.607   7.447  2.3205 -2.3983  0.6691
  922MOL0     H24434   5.643   0.274   7.711 -0.3085  1.6183  0.3669
  922MOL0     H24435   5.470   0.276   7.710 -0.9123 -0.3247 -0.5020
  922MOL0     H24436   5.565   0.085   7.629 -0.2727  0.1330  0.1588
  922MOL0     H24437   5.438   0.154   7.529  0.4356  1.7978  0.2342
  922MOL0     H24438   5.613   0.223   7.365 -2.1869 -0.8667  0.3817
  922MOL0     H24439   5.742   0.186   7.479  0.2995  1.9918 -1.0482
  922MOL0     H24440   5.698   0.034   7.278 -0.0666  0.7752  0.2579
  922MOL0     H24441   5.561  -0.036   7.375 -0.8048  0.7482 -0.8894
  922MOL0     H24442   5.718  -0.109   7.543 -3.6494 -0.1952 -2.7631
  922MOL0     H24443   5.848  -0.004   7.462  1.0238 -1.1323 -0.1705
  922MOL0     H24444   5.711  -0.227   7.331 -0.7207  0.3249  1.7619
  922MOL0     H24445   5.857  -0.140   7.270 -2.0555  0.4655 -1.0544
  922MOL0     H24446   5.855  -0.295   7.526 -1.1639  2.2053 -0.2789
  922MOL0     H24447   5.995  -0.211   7.458 -0.6730  2.9367 -0.6638
  922MOL0     H24448   5.980  -0.466   7.415  2.2364  2.6438  1.7667
  922MOL0     H24449   5.834  -0.446   7.326  0.0889 -0.4797  1.5566
  922MOL0     H24450   5.543   0.458   7.843  1.2560  0.0109  0.5166
  922MOL0     H24451   5.524   0.693   7.933 -4.1210 -0.5780  0.5529
  922MOL0     H24452   5.675   1.086   8.073 -0.3458 -0.4907 -3.0923
  922MOL0     H24453   5.595   1.271   8.223 -1.5278  2.2405  0.6889
  922MOL0     H24454   5.220   1.048   7.462 -0.3285 -0.0195  1.5117
  922MOL0     H24455   4.977   1.054   7.457  2.8720 -0.9371  0.9857
  922MOL0     H24456   4.702   1.511   7.761 -0.5198  0.3968  0.0829
  922MOL0     H24457   4.479   1.509   7.867  1.9155 -2.3805  1.7015
  922MOL0     H24458   4.329   1.406   7.948 -0.4427 -0.1063  2.0889
  922MOL0     H24459   4.232   1.263   7.906 -2.1663  0.2210  1.3346
  922MOL0     H24460   4.038   1.417   7.892  1.1159 -0.8947  0.4756
  922MOL0     H24461   4.147   1.548   7.948 -2.3308  1.8322  3.4975
  922MOL0     H24462   4.165   1.453   8.166 -0.1982  0.8105 -1.8190
  922MOL0     H24463   4.081   1.306   8.146  0.1467 -1.2014 -1.4827
  922MOL0     H24464   3.881   1.450   8.093  1.6815  0.7924 -3.2690
  922MOL0     H24465   3.933   1.464   8.259  0.2977  1.0459 -0.8874
  922MOL0     H24466   3.983   1.860   8.099 -0.3976  0.5387  1.2687
  922MOL0     H24467   4.323   1.297   7.544 -0.8490  1.4843  1.1443
  922MOL0     H24468   4.466   1.192   7.369  2.0276 -0.2310 -3.5606
  922MOL0     H24469   4.567   1.324   7.339 -0.1574  2.0198  1.5715
  922MOL0     H24470   4.628   1.164   7.424 -1.2024 -0.5477  1.0886
  923MOL0     O24471   3.863   3.541   7.264 -0.3652 -0.3415 -0.4792
  923MOL0     C24472   3.891   3.616   7.360  0.8517  1.3166  1.3312
  923MOL0     O24473   4.024   3.662   7.382 -0.3055  0.2506  0.1266
  923MOL0     C24474   4.129   3.590   7.322  0.1174 -0.5084  0.4461
  923MOL0     C24475   4.128   3.448   7.326  0.5181  0.0732 -0.5224
  923MOL0     C24476   4.239   3.377   7.278 -0.0096 -0.4187 -0.9006
  923MOL0     C24477   4.357   3.436   7.256 -0.4801 -0.8920  0.7722
  923MOL0     O24478   4.459   3.342   7.229 -0.5943 -0.2742  0.4257
  923MOL0     C24479   4.592   3.375   7.271 -0.0683  0.4387  0.5083
  923MOL0     C24480   4.692   3.257   7.268  0.4709  0.6904  0.2824
  923MOL0     C24481   4.645   3.130   7.329  0.5161  0.6261 -0.6804
  923MOL0     C24482   4.750   3.017   7.340 -0.7457 -0.8134 -0.1503
  923MOL0     C24483   4.676   2.896   7.295  0.0316 -0.4034  0.3082
  923MOL0     C24484   4.745   2.768   7.346 -0.1929 -0.0150 -0.2867
  923MOL0     C24485   4.894   2.755   7.298  0.5614  0.3754  0.6710
  923MOL0     C24486   4.951   2.609   7.309  0.0800 -0.1229  0.6558
  923MOL0     N24487   5.044   2.598   7.418  0.0036  0.4573 -0.5829
  923MOL0     C24488   5.171   2.545   7.423  0.5179 -0.4492 -0.2061
  923MOL0     C24489   5.196   2.533   7.551 -0.6384  0.2514 -0.2254
  923MOL0     C24490   5.305   2.445   7.610 -0.2563 -0.6558 -0.3422
  923MOL0     C24491   5.446   2.497   7.580  0.1298  0.8944  0.0257
  923MOL0     C24492   5.459   2.649   7.610 -0.7825  0.3656  0.2591
  923MOL0     C24493   5.604   2.700   7.587 -1.2315  0.2695 -0.2435
  923MOL0     O24494   5.689   2.613   7.669  0.4357  0.0160  0.3230
  923MOL0     C24495   5.821   2.602   7.646 -0.1461 -0.1918 -0.0547
  923MOL0     C24496   5.882   2.479   7.637 -0.7660 -0.0035  0.2009
  923MOL0     C24497   6.016   2.464   7.617  0.4727  1.6397  0.1974
  923MOL0     C24498   6.098   2.569   7.618 -0.4388 -0.2092  0.9069
  923MOL0     C24499   6.242   2.551   7.592 -0.2319  0.1235  0.3755
  923MOL0     O24500   6.302   2.432   7.633 -0.1379  0.0372  0.7592
  923MOL0     C24501   6.439   2.410   7.622 -0.2984  0.8737  0.8106
  923MOL0     C24502   6.536   2.511   7.631  0.3448  0.8212  0.5215
  923MOL0     C24503   6.669   2.481   7.602  1.2200  0.1119  0.0224
  923MOL0     C24504   6.714   2.351   7.565  0.6982 -0.0558 -0.2432
  923MOL0     O24505   6.845   2.339   7.523 -0.1030 -0.0769 -1.2088
  923MOL0     C24506   6.913   2.211   7.522  1.0373 -0.2120 -0.2354
  923MOL0     C24507   7.052   2.220   7.462  0.6725 -0.0481  0.3609
  923MOL0     C24508   7.043   2.281   7.319  0.3127  0.4854 -0.8515
  923MOL0     C24509   7.167   2.251   7.246 -0.2923 -0.2449 -0.5475
  923MOL0     C24510   7.196   2.326   7.117  0.3930 -0.0823 -0.1182
  923MOL0     C24511   7.334   2.294   7.064 -0.9623 -0.5592  0.2566
  923MOL0     C24512   7.411   2.410   6.988 -0.0148  0.3867  0.2375
  923MOL0     C24513   7.353   2.438   6.853  0.2514  1.1497 -0.6108
  923MOL0    Cl24514   7.193   2.532   6.883 -0.2738 -0.0196 -0.1967
  923MOL0     C24515   6.609   2.249   7.561  1.9378 -0.0364  0.6777
  923MOL0     C24516   6.478   2.283   7.600  0.9619 -0.3846  0.9415
  923MOL0     O24517   6.306   2.636   7.529 -0.1233 -0.4842 -0.1262
  923MOL0     C24518   6.040   2.696   7.614  0.1439  1.0841 -0.8877
  923MOL0     C24519   5.903   2.717   7.632 -0.4280 -0.7422 -0.5112
  923MOL0     N24520   5.091   2.587   7.631  0.2426 -0.1083 -0.3171
  923MOL0     N24521   5.004   2.634   7.543 -0.0431  0.1346 -0.5481
  923MOL0     C24522   4.366   3.571   7.258  0.9012 -0.6369 -0.0589
  923MOL0     C24523   4.248   3.655   7.286  0.5110  0.7009  0.3825
  923MOL0     C24524   3.773   3.666   7.432 -0.3978  0.4645 -0.6353
  923MOL0     C24525   3.655   3.683   7.359  0.0581  0.7273  0.0133
  923MOL0     C24526   3.538   3.747   7.409  0.5614 -0.8104 -1.2265
  923MOL0     C24527   3.545   3.792   7.546 -0.8067 -0.1969  0.1754
  923MOL0     O24528   3.435   3.858   7.599 -0.1332  0.0249 -0.9351
  923MOL0     C24529   3.461   3.998   7.604 -0.8385  0.4190  0.5975
  923MOL0     C24530   3.333   4.076   7.622 -0.1369 -0.0368 -0.2186
  923MOL0     C24531   3.271   4.030   7.755 -0.2972 -0.1834 -0.2971
  923MOL0     C24532   3.162   4.126   7.797 -1.3474  0.2684  0.6833
  923MOL0     C24533   3.221   4.246   7.851 -0.0639  0.9323 -0.6325
  923MOL0     C24534   3.284   4.328   7.912  0.1449  1.5468 -0.8154
  923MOL0     C24535   3.664   3.768   7.620 -0.5885  0.1240  0.0601
  923MOL0     C24536   3.779   3.710   7.562  0.1750 -0.0933 -0.4689
  923MOL0     C24537   3.905   3.692   7.651  0.3330  0.2116 -0.0279
  923MOL0     H24538   4.048   3.394   7.376  0.8831  2.2615  2.7210
  923MOL0     H24539   4.251   3.271   7.295 -0.2010 -0.5183 -1.3574
  923MOL0     H24540   4.629   3.458   7.210 -4.5876  2.5261  0.1944
  923MOL0     H24541   4.590   3.405   7.376 -2.6019  0.2578  0.5750
  923MOL0     H24542   4.786   3.291   7.313  1.5308 -0.3841 -1.0534
  923MOL0     H24543   4.723   3.242   7.165  0.4132  1.2747  0.1767
  923MOL0     H24544   4.554   3.097   7.280 -0.7685  0.5196  1.6279
  923MOL0     H24545   4.622   3.152   7.434  0.4306 -0.8769 -0.3636
  923MOL0     H24546   4.832   3.038   7.271  1.0313  0.1126  2.1239
  923MOL0     H24547   4.784   3.014   7.444 -0.6276 -1.6088 -0.2017
  923MOL0     H24548   4.575   2.893   7.338  0.8639 -1.9029  2.3300
  923MOL0     H24549   4.670   2.903   7.186  0.5315 -0.0172  0.3024
  923MOL0     H24550   4.757   2.758   7.454  1.8754 -3.3353 -0.7061
  923MOL0     H24551   4.680   2.685   7.318  0.5346 -1.9126  3.1163
  923MOL0     H24552   4.950   2.833   7.351 -0.6708  2.1282 -0.5073
  923MOL0     H24553   4.901   2.779   7.192  1.2381 -1.7635  0.2019
  923MOL0     H24554   4.865   2.545   7.330 -0.8730  0.8565 -0.1418
  923MOL0     H24555   5.004   2.591   7.215 -0.6428  3.7236 -0.6663
  923MOL0     H24556   5.236   2.525   7.338  0.7395 -2.2949  0.3535
  923MOL0     H24557   5.281   2.440   7.717 -0.9711  0.1360 -0.4566
  923MOL0     H24558   5.303   2.351   7.555  2.9447 -0.8671 -0.2722
  923MOL0     H24559   5.521   2.441   7.638  1.6663 -0.8821 -3.4250
  923MOL0     H24560   5.462   2.476   7.474  0.4424 -4.2816  0.8266
  923MOL0     H24561   5.424   2.669   7.712  1.3162  1.1466  0.8792
  923MOL0     H24562   5.386   2.703   7.548 -2.5089  1.3682  2.9917
  923MOL0     H24563   5.607   2.796   7.638 -0.8311 -0.5214  1.2572
  923MOL0     H24564   5.640   2.693   7.484 -1.3082 -1.2711 -0.1934
  923MOL0     H24565   5.833   2.381   7.635 -0.2718 -0.2894 -2.4368
  923MOL0     H24566   6.070   2.371   7.605 -0.5001  1.2211 -1.0717
  923MOL0     H24567   6.511   2.614   7.657 -1.6135  0.3256  0.7243
  923MOL0     H24568   6.741   2.559   7.621  1.3221 -0.2013  0.9926
  923MOL0     H24569   6.929   2.178   7.625  1.0737  0.0763 -0.1484
  923MOL0     H24570   6.849   2.144   7.463 -0.9770  1.7486 -0.4198
  923MOL0     H24571   7.124   2.276   7.523  1.4287 -2.3216  1.6634
  923MOL0     H24572   7.093   2.119   7.460  1.8486  0.3586  1.8562
  923MOL0     H24573   6.952   2.247   7.269  0.1704 -2.4274  1.1569
  923MOL0     H24574   7.034   2.389   7.334  0.7990  0.5207 -0.7926
  923MOL0     H24575   7.201   2.147   7.243 -0.0861 -0.2130  0.4026
  923MOL0     H24576   7.250   2.290   7.304  1.1885  0.4354 -2.9889
  923MOL0     H24577   7.184   2.433   7.135 -0.2526  0.1121 -1.5518
  923MOL0     H24578   7.126   2.304   7.036  2.2434 -2.0158 -1.2871
  923MOL0     H24579   7.402   2.256   7.140 -0.3730  0.4636  0.2539
  923MOL0     H24580   7.327   2.215   6.988  1.9884  0.1883 -0.9263
  923MOL0     H24581   7.513   2.384   6.960  0.1139  1.6216 -0.5094
  923MOL0     H24582   7.413   2.502   7.048 -0.0593  2.2014 -2.3573
  923MOL0     H24583   7.414   2.512   6.800 -0.6046  2.1334 -0.2697
  923MOL0     H24584   7.340   2.354   6.784 -4.1568  0.5675  0.5886
  923MOL0     H24585   6.616   2.141   7.548  1.3158 -0.1220  0.9934
  923MOL0     H24586   6.399   2.209   7.597 -1.6886  2.1433  2.6852
  923MOL0     H24587   6.098   2.788   7.615 -1.5628  2.3515  3.2109
  923MOL0     H24588   5.869   2.820   7.631 -1.2726 -1.0139 -0.6785
  923MOL0     H24589   4.462   3.613   7.232  0.9043 -1.7410 -2.0361
  923MOL0     H24590   4.272   3.760   7.298  2.0709  0.5705 -1.2503
  923MOL0     H24591   3.658   3.651   7.256  2.8074 -2.3355  0.8847
  923MOL0     H24592   3.446   3.768   7.356  0.6717  3.2284 -0.1970
  923MOL0     H24593   3.512   4.031   7.513 -0.3800  3.6477  1.8923
  923MOL0     H24594   3.530   4.022   7.685  1.5311 -3.4860 -0.0361
  923MOL0     H24595   3.255   4.073   7.545 -1.6908  1.1579  1.2451
  923MOL0     H24596   3.356   4.183   7.627 -0.6116 -0.0049  2.2617
  923MOL0     H24597   3.351   4.044   7.829 -0.3818 -1.5792  0.0905
  923MOL0     H24598   3.234   3.927   7.759  0.7524 -0.6483 -1.7089
  923MOL0     H24599   3.095   4.154   7.715 -0.2734 -2.5981 -1.3302
  923MOL0     H24600   3.108   4.084   7.882 -2.1133  0.7430  0.4474
  923MOL0     H24601   3.329   4.407   7.970  1.1065 -0.1137  0.7990
  923MOL0     H24602   3.678   3.785   7.726 -0.6642 -0.3439  0.1462
  923MOL0     H24603   3.868   3.662   7.750 -0.1038  1.9026  0.3419
  923MOL0     H24604   3.968   3.611   7.612  2.8207  2.1277 -0.2399
  923MOL0     H24605   3.968   3.781   7.657  1.6037 -0.7434  2.5032
  924MOL0     O24606   7.357   9.444  10.735  0.5686 -0.6787 -0.0521
  924MOL0     C24607   7.278   9.358  10.679 -0.2850 -0.1555 -0.7364
  924MOL0     O24608   7.157   9.385  10.629 -0.2244  0.6228 -0.3895
  924MOL0     C24609   7.095   9.510  10.625 -0.5228 -0.2985 -0.7193
  924MOL0     C24610   6.991   9.530  10.528  0.0127  0.8546  0.4100
  924MOL0     C24611   6.926   9.658  10.522  0.3749 -0.0197 -0.0020
  924MOL0     C24612   6.946   9.765  10.613 -0.3359 -0.0319  0.7228
  924MOL0     O24613   6.881   9.889  10.622 -0.6412  0.5354 -0.4021
  924MOL0     C24614   6.807   9.928  10.509  0.0312  0.2047  0.2381
  924MOL0     C24615   6.905   9.995  10.413  0.5971 -0.0924  0.2196
  924MOL0     C24616   6.828  10.061  10.294 -0.7237 -0.1553  0.0536
  924MOL0     C24617   6.776   9.944  10.199 -0.1931  0.3638 -0.1047
  924MOL0     C24618   6.680  10.001  10.089  0.3453 -0.3486 -0.7851
  924MOL0     C24619   6.624   9.907   9.984 -0.4345  1.1412 -0.2002
  924MOL0     C24620   6.541   9.980   9.877 -0.7496 -0.1232 -0.0670
  924MOL0     C24621   6.455   9.874   9.801  0.5068  0.7218  0.6493
  924MOL0     N24622   6.378   9.922   9.683  0.9125 -0.3669  0.2062
  924MOL0     C24623   6.246   9.965   9.690  0.5120 -0.0517  0.6551
  924MOL0     C24624   6.220  10.015   9.566  0.1643 -0.9939 -0.1546
  924MOL0     C24625   6.091  10.078   9.518  0.2374 -0.0495 -0.1658
  924MOL0     C24626   6.105  10.228   9.474  0.2766  1.2077 -0.0626
  924MOL0     C24627   6.133  10.323   9.583 -0.1998 -1.1015  0.5288
  924MOL0     C24628   6.278  10.304   9.630  0.0768  0.4054  0.4301
  924MOL0     O24629   6.327  10.419   9.700  0.7765  0.0597 -0.4011
  924MOL0     C24630   6.451  10.418   9.760 -0.5401 -1.2451  0.8150
  924MOL0     C24631   6.467  10.516   9.858  0.7281 -0.9035  0.3453
  924MOL0     C24632   6.586  10.531   9.931  0.0834  1.1658  0.8512
  924MOL0     C24633   6.691  10.444   9.908  0.0745 -0.0955  0.0081
  924MOL0     C24634   6.814  10.463   9.985  0.3379  0.5700 -1.0888
  924MOL0     O24635   6.809  10.536  10.101  0.0415  0.3250 -0.3002
  924MOL0     C24636   6.931  10.540  10.167  0.5954 -0.2652  0.3818
  924MOL0     C24637   6.944  10.453  10.274  0.7613 -0.0450 -0.2923
  924MOL0     C24638   7.073  10.438  10.329 -1.0634  0.1589  0.0932
  924MOL0     C24639   7.182  10.503  10.262 -0.0893  0.6132  0.9054
  924MOL0     O24640   7.301  10.485  10.320  0.3974  0.2319  0.2449
  924MOL0     C24641   7.379  10.593  10.364  0.7196  0.0303  0.2807
  924MOL0     C24642   7.507  10.538  10.428  0.5727  0.2493 -0.0523
  924MOL0     C24643   7.625  10.501  10.332  0.6054 -0.2635  0.3152
  924MOL0     C24644   7.753  10.470  10.416  0.1394  0.6298  0.4018
  924MOL0     C24645   7.891  10.498  10.353  0.3674 -0.8097  0.5073
  924MOL0     C24646   7.932  10.395  10.241 -0.7114 -0.1258 -1.4545
  924MOL0     C24647   8.068  10.412  10.189 -0.5942 -0.4170 -0.5387
  924MOL0     C24648   8.093  10.539  10.095  0.3691 -0.0668 -0.8520
  924MOL0    Cl24649   7.954  10.546   9.972 -0.0845 -0.3697 -0.5172
  924MOL0     C24650   7.157  10.593  10.155 -0.4580  0.4295  0.0151
  924MOL0     C24651   7.035  10.622  10.116  0.6315 -0.3309  0.9054
  924MOL0     O24652   6.909  10.399   9.949 -0.5221  0.4393 -0.4998
  924MOL0     C24653   6.675  10.334   9.809  0.3335  0.6058 -0.0216
  924MOL0     C24654   6.553  10.328   9.738 -0.5987 -0.4195 -0.4467
  924MOL0     N24655   6.312   9.977   9.477  0.4182 -0.6017 -0.4491
  924MOL0     N24656   6.412   9.928   9.550  0.3702 -0.2816  0.1487
  924MOL0     C24657   7.031   9.734  10.719  0.0353 -0.0099  0.7588
  924MOL0     C24658   7.109   9.617  10.724 -0.2421  0.9199 -0.3789
  924MOL0     C24659   7.318   9.215  10.675 -0.7687 -0.9143  0.2732
  924MOL0     C24660   7.214   9.127  10.643 -0.7509  0.7461  0.0658
  924MOL0     C24661   7.247   8.991  10.622  0.1743 -0.6411 -0.6275
  924MOL0     C24662   7.374   8.945  10.632  0.3648  0.1803 -0.6246
  924MOL0     O24663   7.399   8.807  10.608 -0.0147 -0.8008 -0.0110
  924MOL0     C24664   7.519   8.736  10.647  0.3356  1.0919  0.4195
  924MOL0     C24665   7.522   8.603  10.569 -0.5338  0.9979 -0.5860
  924MOL0     C24666   7.659   8.537  10.566 -0.9841  0.8904  0.1787
  924MOL0     C24667   7.649   8.402  10.484 -0.4732 -0.0475  1.2543
  924MOL0     C24668   7.665   8.413  10.338 -0.8161 -0.0797  0.8434
  924MOL0     C24669   7.667   8.443  10.215  0.2207  0.7307  0.5299
  924MOL0     C24670   7.471   9.025  10.678 -0.5018  0.1780  0.2080
  924MOL0     C24671   7.449   9.162  10.706  0.6107  1.1643  0.3489
  924MOL0     C24672   7.557   9.244  10.775 -0.4603  0.3765 -0.0621
  924MOL0     H24673   6.967   9.444  10.466  0.2104  2.5080 -2.1097
  924MOL0     H24674   6.858   9.664  10.437  1.2059  2.9916 -0.5537
  924MOL0     H24675   6.753   9.847  10.459  0.3431  2.1236 -3.5986
  924MOL0     H24676   6.732  10.002  10.539 -2.2135 -1.6638 -0.4786
  924MOL0     H24677   6.959   9.912  10.365 -3.3536 -2.9568  0.2753
  924MOL0     H24678   6.974  10.061  10.467 -1.6870  3.0778 -0.4499
  924MOL0     H24679   6.905  10.117  10.240 -0.9765 -2.6617 -3.2070
  924MOL0     H24680   6.742  10.121  10.327 -1.6788  0.1665 -2.7808
  924MOL0     H24681   6.861   9.904  10.144 -0.7082 -1.9784  0.6823
  924MOL0     H24682   6.730   9.865  10.258  2.5216 -1.1563  0.0953
  924MOL0     H24683   6.595  10.052  10.135 -0.2850 -1.5594 -0.5514
  924MOL0     H24684   6.730  10.079  10.031  1.9192  1.0417  2.2220
  924MOL0     H24685   6.715   9.873   9.933  0.4009  2.5014  0.3332
  924MOL0     H24686   6.562   9.827  10.027  0.7643 -0.6515 -1.6326
  924MOL0     H24687   6.613  10.035   9.815  2.3301 -4.5089 -0.8779
  924MOL0     H24688   6.476  10.058   9.917  2.6198  3.8159 -1.5209
  924MOL0     H24689   6.516   9.792   9.762 -1.5370 -0.3667 -0.4069
  924MOL0     H24690   6.381   9.840   9.873 -0.6358 -2.5910 -1.8284
  924MOL0     H24691   6.183   9.977   9.777 -0.2485 -0.1110  0.1165
  924MOL0     H24692   6.060  10.021   9.431 -1.1564 -0.1863  0.3999
  924MOL0     H24693   6.017  10.074   9.599  1.2753  0.4012  0.8353
  924MOL0     H24694   6.167  10.243   9.386  1.4846  2.8093  0.9988
  924MOL0     H24695   6.002  10.251   9.443  0.7378 -0.6872 -3.4479
  924MOL0     H24696   6.064  10.316   9.668 -0.2258  0.7100  0.6974
  924MOL0     H24697   6.135  10.425   9.545  2.8736 -0.8661  1.0924
  924MOL0     H24698   6.336  10.299   9.538  0.0072 -0.2170  0.4159
  924MOL0     H24699   6.297  10.218   9.694 -1.1293  0.1850  0.5121
  924MOL0     H24700   6.383  10.582   9.879  1.5947  0.5832 -0.7008
  924MOL0     H24701   6.591  10.608  10.007 -1.4281 -0.9018  3.1818
  924MOL0     H24702   6.857  10.405  10.318  1.1788 -0.7109 -0.1757
  924MOL0     H24703   7.082  10.380  10.420 -1.3385 -1.7984 -1.0625
  924MOL0     H24704   7.391  10.673  10.290  1.8985  1.5900  2.0655
  924MOL0     H24705   7.323  10.646  10.441  2.4354  1.9458  0.2838
  924MOL0     H24706   7.539  10.621  10.493 -1.6112 -0.0232  1.4888
  924MOL0     H24707   7.481  10.453  10.492  0.2992  0.9234  0.7512
  924MOL0     H24708   7.597  10.429  10.255  0.0861  0.1477  0.1134
  924MOL0     H24709   7.648  10.592  10.275  0.2021  1.3202  2.5308
  924MOL0     H24710   7.745  10.362  10.434 -2.0925  0.0906 -2.9171
  924MOL0     H24711   7.752  10.528  10.509  1.8559  2.7042 -0.7734
  924MOL0     H24712   7.966  10.501  10.433  2.0578 -0.9222 -1.0082
  924MOL0     H24713   7.889  10.598  10.308 -2.9596 -0.9898  0.0401
  924MOL0     H24714   7.916  10.292  10.272  0.3761  0.7047  2.5065
  924MOL0     H24715   7.857  10.424  10.167 -2.5970 -1.5991 -0.2211
  924MOL0     H24716   8.093  10.337  10.113  2.0027 -1.4905  1.2530
  924MOL0     H24717   8.144  10.415  10.267 -0.5061  3.0684 -0.6211
  924MOL0     H24718   8.097  10.632  10.153 -0.7301 -0.4014 -0.1994
  924MOL0     H24719   8.188  10.523  10.044 -0.2721 -0.2797 -2.0040
  924MOL0     H24720   7.240  10.651  10.116  1.3800 -1.1722  1.3195
  924MOL0     H24721   7.022  10.702  10.045 -1.6453 -1.2735  0.1678
  924MOL0     H24722   6.759  10.266   9.797 -0.2816  0.0659 -1.5048
  924MOL0     H24723   6.532  10.240   9.678  0.1175 -1.7903  1.2292
  924MOL0     H24724   7.038   9.811  10.796 -0.6294 -0.1271  0.9416
  924MOL0     H24725   7.179   9.600  10.805  0.4495 -0.5834 -1.2309
  924MOL0     H24726   7.110   9.157  10.641 -0.5455  1.8058  2.2234
  924MOL0     H24727   7.163   8.925  10.603  0.6367 -0.9034 -1.8519
  924MOL0     H24728   7.512   8.717  10.754  2.7415  0.5474  0.5130
  924MOL0     H24729   7.612   8.783  10.615  1.4929 -1.5732 -0.3791
  924MOL0     H24730   7.506   8.637  10.466 -0.2898  3.1138  0.0257
  924MOL0     H24731   7.446   8.536  10.611 -0.4638  1.7554  0.8125
  924MOL0     H24732   7.698   8.528  10.668  1.2469  0.8333 -0.6218
  924MOL0     H24733   7.725   8.595  10.501 -1.3066  0.7020 -0.3282
  924MOL0     H24734   7.724   8.332  10.523  0.5038  0.5750  0.5441
  924MOL0     H24735   7.551   8.356  10.497 -1.4031  0.8060 -1.8381
  924MOL0     H24736   7.688   8.479  10.116 -1.1741  2.6644  0.8917
  924MOL0     H24737   7.574   8.992  10.680 -0.1073  1.3781  2.1604
  924MOL0     H24738   7.521   9.286  10.870  0.4671  0.0446  0.4553
  924MOL0     H24739   7.639   9.178  10.805 -0.6743  0.7941  1.5393
  924MOL0     H24740   7.607   9.316  10.710 -0.4673  0.9085  0.5131
  925MOL0     O24741  10.266   9.878   6.651  0.2623 -0.1072 -0.2066
  925MOL0     C24742  10.192   9.810   6.574 -0.3324  0.0477 -0.2553
  925MOL0     O24743  10.108   9.860   6.477  0.6635 -0.8821  0.1207
  925MOL0     C24744  10.080   9.997   6.491  0.0653 -0.2363  0.4916
  925MOL0     C24745  10.097  10.082   6.386  0.0523 -0.7913  0.4269
  925MOL0     C24746  10.041  10.205   6.393  0.0963  0.6695  1.4237
  925MOL0     C24747   9.969  10.255   6.507 -0.1447 -0.7669  1.2505
  925MOL0     O24748   9.904  10.376   6.510  0.1127  0.2481  0.4641
  925MOL0     C24749   9.919  10.472   6.406  0.7636  0.1245 -0.6790
  925MOL0     C24750   9.997  10.589   6.459  0.7293 -0.2051  0.6901
  925MOL0     C24751  10.006  10.703   6.356 -0.1740  0.0569 -0.4316
  925MOL0     C24752  10.083  10.822   6.421 -1.5033 -1.0314  0.6860
  925MOL0     C24753  10.084  10.939   6.322 -1.0724  0.1399 -0.5456
  925MOL0     C24754  10.141  11.066   6.378 -0.1826 -0.8776  0.0358
  925MOL0     C24755  10.134  11.177   6.279 -0.3932  0.3634 -0.8735
  925MOL0     C24756  10.127  11.319   6.347 -0.1903  0.2231  0.2547
  925MOL0     N24757  10.243  11.351   6.427 -0.4531 -0.2262  0.5204
  925MOL0     C24758  10.335  11.449   6.405 -0.3927 -0.0562  0.2761
  925MOL0     C24759  10.435  11.426   6.490  0.0146 -0.1226 -0.2318
  925MOL0     C24760  10.563  11.509   6.499  0.7473  1.0403 -0.0174
  925MOL0     C24761  10.613  11.522   6.641  0.2935 -0.2341 -0.5313
  925MOL0     C24762  10.569  11.661   6.710 -0.0683  0.5668  0.8120
  925MOL0     C24763  10.416  11.668   6.733  0.4388  0.9961 -0.9994
  925MOL0     O24764  10.364  11.713   6.616 -0.1208 -0.2503  0.0038
  925MOL0     C24765  10.228  11.737   6.616 -0.0608  0.0189  0.4979
  925MOL0     C24766  10.135  11.627   6.622  0.0385 -0.1460  0.1659
  925MOL0     C24767   9.990  11.655   6.623 -0.6767  0.6788 -0.2919
  925MOL0     C24768   9.950  11.788   6.634 -0.5250  0.8250 -0.3130
  925MOL0     C24769   9.805  11.810   6.634  0.1293 -1.7348 -0.3009
  925MOL0     O24770   9.775  11.940   6.627  0.8021 -0.8040 -0.1988
  925MOL0     C24771   9.644  11.989   6.641 -0.1698 -0.3276 -0.6602
  925MOL0     C24772   9.573  12.045   6.534 -0.4505 -0.1046  0.0064
  925MOL0     C24773   9.453  12.120   6.554 -0.2635  0.3005 -0.6023
  925MOL0     C24774   9.393  12.123   6.683 -0.1093 -0.3583 -0.2782
  925MOL0     O24775   9.272  12.191   6.693 -0.6633 -0.6867 -0.3733
  925MOL0     C24776   9.193  12.193   6.817  0.2594 -0.2926  0.4139
  925MOL0     C24777   9.129  12.062   6.855 -0.1387  0.2613 -0.0549
  925MOL0     C24778   9.009  12.028   6.777  0.8854 -0.3831 -0.7209
  925MOL0     C24779   8.922  11.908   6.825  0.0361  0.5600  1.3403
  925MOL0     C24780   8.788  11.921   6.757 -0.2876 -0.1752 -0.0935
  925MOL0     C24781   8.696  11.794   6.770 -0.1097 -0.4559 -0.4722
  925MOL0     C24782   8.575  11.805   6.667  0.4533  0.3418  0.2552
  925MOL0     C24783   8.449  11.716   6.696  0.3508  0.1638 -0.7684
  925MOL0    Cl24784   8.495  11.535   6.682 -0.0388  0.0727 -0.1501
  925MOL0     C24785   9.461  12.062   6.788 -0.0692 -0.6953  0.8199
  925MOL0     C24786   9.579  11.994   6.771  0.2251 -0.7009  0.0090
  925MOL0     O24787   9.720  11.723   6.620 -0.5769  0.1886  0.2574
  925MOL0     C24788  10.045  11.895   6.625 -0.8709  0.4781 -0.2598
  925MOL0     C24789  10.184  11.869   6.609 -0.1936 -0.0252 -0.0996
  925MOL0     N24790  10.398  11.318   6.579 -0.3646 -0.2710  0.4935
  925MOL0     N24791  10.285  11.280   6.529  0.2864 -0.7344 -0.0246
  925MOL0     C24792   9.950  10.164   6.609  0.0758  0.1854 -0.2313
  925MOL0     C24793  10.005  10.035   6.600 -0.1738  0.6727  0.4063
  925MOL0     C24794  10.216   9.661   6.588 -0.9907  0.2272  0.2689
  925MOL0     C24795  10.235   9.605   6.717  0.3763  0.6974  0.5719
  925MOL0     C24796  10.275   9.474   6.724  0.0872 -0.1528 -0.2706
  925MOL0     C24797  10.316   9.405   6.610 -0.4314  0.0804  0.3685
  925MOL0     O24798  10.362   9.276   6.627 -0.9234  0.4080 -0.0759
  925MOL0     C24799  10.347   9.166   6.531  0.0872  1.0081  0.3317
  925MOL0     C24800  10.374   9.022   6.581 -1.3442  0.1824 -0.0829
  925MOL0     C24801  10.518   9.010   6.636 -0.2426  0.7029 -0.4071
  925MOL0     C24802  10.568   8.859   6.647  0.1938  0.0388 -0.3412
  925MOL0     C24803  10.710   8.851   6.688 -0.2802  0.2807  0.1252
  925MOL0     C24804  10.825   8.840   6.733  1.1941 -0.8468  0.3256
  925MOL0     C24805  10.291   9.456   6.485  0.3364  0.8728  0.2991
  925MOL0     C24806  10.244   9.580   6.477 -0.0612  0.2115  0.1486
  925MOL0     C24807  10.258   9.626   6.333  0.0416 -0.1922 -0.2482
  925MOL0     H24808  10.153  10.045   6.301  0.5473 -1.1618  0.9086
  925MOL0     H24809  10.054  10.259   6.299  0.4083 -2.4718 -0.4969
  925MOL0     H24810   9.968  10.432   6.317  0.6450  0.3860 -0.8638
  925MOL0     H24811   9.820  10.506   6.376  1.0320  2.9330  1.2422
  925MOL0     H24812  10.096  10.545   6.475  0.5057 -0.5141  1.2669
  925MOL0     H24813   9.955  10.631   6.551  0.2423  2.0958 -0.5109
  925MOL0     H24814   9.902  10.730   6.334 -0.4674 -0.4000  0.3783
  925MOL0     H24815  10.057  10.667   6.266 -0.3174  0.6011 -0.7422
  925MOL0     H24816  10.048  10.841   6.523 -0.2760 -1.0700  1.1390
  925MOL0     H24817  10.186  10.790   6.439 -1.8078 -2.4193  0.1170
  925MOL0     H24818  10.154  10.920   6.240  0.0533 -1.3445  0.6843
  925MOL0     H24819   9.980  10.957   6.293 -0.8555  1.2344 -0.6952
  925MOL0     H24820  10.081  11.099   6.463 -2.1348  0.8389 -1.8932
  925MOL0     H24821  10.245  11.054   6.411  0.4098  4.1523  0.8395
  925MOL0     H24822  10.047  11.158   6.215  0.8541 -0.6181 -2.3655
  925MOL0     H24823  10.228  11.180   6.222  1.7280  2.1120  2.3900
  925MOL0     H24824  10.116  11.401   6.275  0.2768  2.9649  3.1060
  925MOL0     H24825  10.041  11.319   6.416  0.4819  1.7546  1.1296
  925MOL0     H24826  10.334  11.529   6.331  1.6100  1.3117  1.6329
  925MOL0     H24827  10.637  11.443   6.454 -3.5212 -3.0644 -1.9557
  925MOL0     H24828  10.551  11.605   6.448 -0.1149  1.1702  0.4038
  925MOL0     H24829  10.569  11.448   6.709  0.5397  0.5832  0.5299
  925MOL0     H24830  10.720  11.513   6.658  0.3483 -1.2171 -1.2880
  925MOL0     H24831  10.601  11.740   6.643 -0.2556  0.2203  0.3092
  925MOL0     H24832  10.613  11.684   6.808 -2.2507  1.6508  1.6179
  925MOL0     H24833  10.393  11.737   6.815 -1.0055 -0.5390 -0.0630
  925MOL0     H24834  10.377  11.570   6.760 -1.0932  1.3281 -1.9175
  925MOL0     H24835  10.165  11.523   6.616 -2.4867 -0.8744 -3.9727
  925MOL0     H24836   9.924  11.569   6.621  0.3389 -0.3876  3.4465
  925MOL0     H24837   9.611  12.050   6.432 -2.9401  1.4571 -0.9390
  925MOL0     H24838   9.397  12.166   6.474 -1.8852 -0.2853  0.1587
  925MOL0     H24839   9.258  12.220   6.901  2.1846 -0.9293 -0.7903
  925MOL0     H24840   9.115  12.269   6.815 -1.2671 -1.5134  4.1170
  925MOL0     H24841   9.194  11.975   6.863 -1.4255 -0.6919  0.2845
  925MOL0     H24842   9.097  12.084   6.957  0.8478 -0.3405  0.4048
  925MOL0     H24843   8.936  12.108   6.794  2.8533  1.2577  0.2797
  925MOL0     H24844   9.035  12.001   6.674  1.9819 -2.9526  0.1482
  925MOL0     H24845   8.895  11.909   6.931  1.6119 -2.1264  1.8450
  925MOL0     H24846   8.973  11.814   6.801 -1.5274 -0.2831  1.1860
  925MOL0     H24847   8.797  11.946   6.651 -0.2240  0.6457  0.1036
  925MOL0     H24848   8.733  12.006   6.798  1.2530  1.0912 -0.5568
  925MOL0     H24849   8.749  11.698   6.763  2.9797  0.8261  2.4063
  925MOL0     H24850   8.646  11.791   6.867  1.3605 -0.6025  0.3089
  925MOL0     H24851   8.620  11.790   6.569  4.0156  2.3051  1.4159
  925MOL0     H24852   8.543  11.910   6.663  0.7333  0.4475  0.7097
  925MOL0     H24853   8.409  11.736   6.795 -1.9349 -0.1593 -1.5749
  925MOL0     H24854   8.384  11.750   6.614  0.5984  1.5671 -0.4104
  925MOL0     H24855   9.435  12.065   6.894  2.0326 -0.4785  1.3635
  925MOL0     H24856   9.620  11.936   6.854  0.2643 -1.4337 -0.5114
  925MOL0     H24857  10.011  11.998   6.626  1.6831  1.4157 -0.8969
  925MOL0     H24858  10.252  11.952   6.596  1.5764 -1.0640  1.9391
  925MOL0     H24859   9.885  10.179   6.695  0.8870 -1.9061  0.8216
  925MOL0     H24860   9.988   9.963   6.679 -1.2274 -0.5000 -0.8249
  925MOL0     H24861  10.200   9.667   6.799  2.7829  0.1962  2.0686
  925MOL0     H24862  10.280   9.430   6.824 -1.5793  2.2011  0.9593
  925MOL0     H24863  10.404   9.167   6.438  0.0029 -1.8703  0.1604
  925MOL0     H24864  10.242   9.167   6.500  0.6174  0.9653 -1.6272
  925MOL0     H24865  10.348   8.947   6.506  0.7331 -0.0821 -0.6082
  925MOL0     H24866  10.319   8.990   6.670  0.5165 -0.0292  1.0533
  925MOL0     H24867  10.520   9.054   6.737 -2.3600 -2.8324  1.3619
  925MOL0     H24868  10.588   9.072   6.579  4.1362 -1.3288  2.2018
  925MOL0     H24869  10.513   8.805   6.725  2.8894  1.0696  2.4540
  925MOL0     H24870  10.560   8.804   6.553 -1.8073  1.5742 -1.1475
  925MOL0     H24871  10.923   8.810   6.763  1.5629  0.5250  0.5524
  925MOL0     H24872  10.316   9.389   6.403 -2.0175  0.6576 -0.3251
  925MOL0     H24873  10.362   9.647   6.308 -0.2281  1.4221 -0.1664
  925MOL0     H24874  10.218   9.546   6.271  2.1520 -1.5528  0.0611
  925MOL0     H24875  10.207   9.720   6.310  0.0420 -0.4016 -1.1544
  926MOL0     O24876   9.769   3.596   4.789  0.8598 -0.9242  0.8688
  926MOL0     C24877   9.819   3.497   4.732  0.0018  0.3354  1.1669
  926MOL0     O24878   9.911   3.413   4.778  0.1014  0.0732  0.3405
  926MOL0     C24879   9.965   3.424   4.900 -0.3853  0.1649  0.5128
  926MOL0     C24880  10.027   3.540   4.954 -0.2825  0.8621  0.8773
  926MOL0     C24881  10.088   3.544   5.078 -0.3098 -0.2160 -0.2878
  926MOL0     C24882  10.088   3.425   5.154  0.4362 -0.3417 -0.3148
  926MOL0     O24883  10.153   3.414   5.281  0.0227 -0.8187  0.0607
  926MOL0     C24884  10.214   3.541   5.329 -0.5993 -0.8844 -0.4991
  926MOL0     C24885  10.278   3.502   5.464  0.0528  0.9865 -0.2908
  926MOL0     C24886  10.377   3.616   5.516 -0.1451  0.5441  0.1147
  926MOL0     C24887  10.315   3.760   5.542 -0.2938  0.1665  0.9292
  926MOL0     C24888  10.394   3.873   5.474 -0.0298 -0.0991  0.1395
  926MOL0     C24889  10.349   3.907   5.328  0.1070  0.7859 -0.3083
  926MOL0     C24890  10.459   3.986   5.254  0.0629  0.1073  0.7825
  926MOL0     C24891  10.396   4.059   5.136  0.0661 -0.3728 -0.2537
  926MOL0     N24892  10.492   4.158   5.087  0.5849 -0.5997  0.1429
  926MOL0     C24893  10.533   4.270   5.160 -0.1680 -0.4562 -0.4703
  926MOL0     C24894  10.612   4.335   5.071 -0.4534  0.0503  0.3336
  926MOL0     C24895  10.680   4.460   5.102 -0.9720 -0.8562 -0.6115
  926MOL0     C24896  10.751   4.517   4.988 -0.3969  0.3325  0.0052
  926MOL0     C24897  10.658   4.585   4.893  0.2476  0.0273 -0.4822
  926MOL0     C24898  10.748   4.656   4.798  0.0511  0.4562  0.5876
  926MOL0     O24899  10.681   4.732   4.702  0.4018  0.2296 -0.4782
  926MOL0     C24900  10.753   4.768   4.590 -0.3507 -0.0320 -1.0743
  926MOL0     C24901  10.889   4.784   4.569 -0.0367  0.5757  0.0122
  926MOL0     C24902  10.942   4.831   4.447 -0.3814 -0.3564 -0.6532
  926MOL0     C24903  10.869   4.861   4.336 -0.7212 -0.7255 -0.3789
  926MOL0     C24904  10.934   4.893   4.208 -0.6712 -0.4907 -0.2840
  926MOL0     O24905  10.859   4.864   4.101  0.4258  0.3173  1.0271
  926MOL0     C24906  10.891   4.924   3.978 -0.5180  0.2221  0.3945
  926MOL0     C24907  10.943   4.857   3.866 -0.2411  0.1382  0.6825
  926MOL0     C24908  10.946   4.914   3.745 -0.1264 -0.5937  0.1730
  926MOL0     C24909  10.918   5.051   3.732 -0.5361  0.4605  0.4686
  926MOL0     O24910  10.915   5.122   3.615  0.6208 -0.6685  0.3259
  926MOL0     C24911  10.864   5.063   3.487  0.6866 -0.0000  0.6197
  926MOL0     C24912  10.987   5.034   3.388  0.4927  0.3267 -0.5609
  926MOL0     C24913  11.035   5.157   3.314  0.2171 -0.3386  0.4699
  926MOL0     C24914  11.163   5.132   3.237  0.0065  0.4939  0.1756
  926MOL0     C24915  11.205   5.258   3.171 -0.5351 -0.2174 -0.2265
  926MOL0     C24916  11.135   5.286   3.041  0.6044  0.5884  0.7299
  926MOL0     C24917  11.219   5.394   2.958 -0.6324 -0.1657 -0.7114
  926MOL0     C24918  11.132   5.480   2.867  0.0370  0.1443 -0.1728
  926MOL0    Cl24919  11.239   5.582   2.771  0.0470 -0.2895 -0.1750
  926MOL0     C24920  10.889   5.121   3.843 -0.8445 -0.7289  0.1345
  926MOL0     C24921  10.874   5.062   3.969 -0.8953 -0.3051  0.3133
  926MOL0     O24922  11.046   4.945   4.209 -0.3701  0.2694  0.6183
  926MOL0     C24923  10.729   4.869   4.357 -0.2330  0.1774 -0.8170
  926MOL0     C24924  10.677   4.815   4.480 -0.4415  1.1282  0.0276
  926MOL0     N24925  10.610   4.266   4.950 -0.3358  0.0784  0.4436
  926MOL0     N24926  10.541   4.158   4.963  0.1554  0.0386  0.0679
  926MOL0     C24927  10.025   3.307   5.111  0.2416  0.5147  0.5367
  926MOL0     C24928   9.965   3.309   4.985 -0.6245  0.2227 -0.7610
  926MOL0     C24929   9.759   3.462   4.606  0.1427  0.0499  0.3086
  926MOL0     C24930   9.748   3.328   4.571 -0.1294 -0.5991  0.2554
  926MOL0     C24931   9.670   3.281   4.469  0.3676 -0.0415  0.9736
  926MOL0     C24932   9.614   3.369   4.378 -0.2359  0.7479 -0.5704
  926MOL0     O24933   9.555   3.328   4.255 -0.1619  0.5370  1.0121
  926MOL0     C24934   9.515   3.185   4.235  0.5452 -0.8430  0.3622
  926MOL0     C24935   9.396   3.139   4.315  0.2157  0.4013  0.1474
  926MOL0     C24936   9.267   3.223   4.268 -0.5616 -0.6107 -0.2924
  926MOL0     C24937   9.149   3.151   4.203  0.2418 -0.2116  0.2131
  926MOL0     C24938   9.183   3.104   4.066 -0.0540 -0.3635  1.0396
  926MOL0     C24939   9.210   3.059   3.956  0.3390 -0.0306  0.2282
  926MOL0     C24940   9.647   3.503   4.393  0.9907 -0.5384  0.6272
  926MOL0     C24941   9.702   3.555   4.510 -0.5413  0.1487  0.0434
  926MOL0     C24942   9.718   3.700   4.519 -0.4958  0.1170 -0.2276
  926MOL0     H24943  10.002   3.632   4.902  1.2848  1.7213  1.5815
  926MOL0     H24944  10.120   3.636   5.126  1.2128 -0.3322 -1.0235
  926MOL0     H24945  10.289   3.572   5.256 -0.7522 -0.3614 -0.4325
  926MOL0     H24946  10.143   3.622   5.344  1.9852  1.4151  0.2129
  926MOL0     H24947  10.340   3.413   5.450 -0.8984 -0.1354  2.1946
  926MOL0     H24948  10.194   3.473   5.528 -0.3665 -1.5394 -1.8217
  926MOL0     H24949  10.464   3.621   5.450  1.3891 -0.2979  1.9841
  926MOL0     H24950  10.420   3.583   5.611  2.2616 -0.2007 -1.1312
  926MOL0     H24951  10.214   3.753   5.502  0.0441 -0.9174  0.2286
  926MOL0     H24952  10.316   3.769   5.651 -3.6864  2.2539  0.9227
  926MOL0     H24953  10.407   3.959   5.540  3.8527 -0.2467 -0.1695
  926MOL0     H24954  10.499   3.843   5.462  0.5029  1.3607  0.9111
  926MOL0     H24955  10.313   3.823   5.267  0.5641  1.0294 -0.9222
  926MOL0     H24956  10.261   3.972   5.337  0.1174  0.9072 -1.0125
  926MOL0     H24957  10.540   3.923   5.216 -1.1474 -0.6654 -0.6228
  926MOL0     H24958  10.503   4.056   5.325  1.2449 -0.2848  0.4662
  926MOL0     H24959  10.369   3.987   5.058  0.2590  0.1474 -0.8105
  926MOL0     H24960  10.302   4.105   5.165  0.3188  1.0367 -1.5061
  926MOL0     H24961  10.514   4.293   5.264  0.2020  2.1009 -0.9082
  926MOL0     H24962  10.596   4.522   5.134 -0.7904 -0.7054 -0.4180
  926MOL0     H24963  10.753   4.435   5.180 -1.8375 -1.1455  0.1187
  926MOL0     H24964  10.826   4.580   5.038 -2.5043  2.0941  1.1335
  926MOL0     H24965  10.814   4.443   4.939  0.3025 -0.0506  1.4264
  926MOL0     H24966  10.607   4.659   4.956 -0.2809 -0.9651  0.2798
  926MOL0     H24967  10.589   4.514   4.847  1.8220 -2.4079  0.7384
  926MOL0     H24968  10.794   4.577   4.738 -0.7967 -0.0879  0.6240
  926MOL0     H24969  10.817   4.725   4.847  0.9576 -0.8113  1.1482
  926MOL0     H24970  10.963   4.764   4.646  1.4326 -1.9918 -1.9159
  926MOL0     H24971  11.051   4.835   4.443 -0.0232 -0.6141  4.0125
  926MOL0     H24972  10.954   4.750   3.877  1.6233  0.2493  0.1565
  926MOL0     H24973  10.969   4.841   3.668  2.5661  1.6727 -1.3910
  926MOL0     H24974  10.809   4.970   3.503 -0.5752  0.9385  1.9862
  926MOL0     H24975  10.790   5.129   3.441  1.1623  1.5669  2.0467
  926MOL0     H24976  11.069   4.996   3.449 -0.5236  2.5881  2.4205
  926MOL0     H24977  10.955   4.959   3.314  0.6588 -1.0526  0.7208
  926MOL0     H24978  10.955   5.188   3.245 -0.1708 -0.0664  1.0343
  926MOL0     H24979  11.038   5.237   3.388 -1.5872  1.4839 -1.2576
  926MOL0     H24980  11.136   5.051   3.169 -1.1831  1.3904 -0.4730
  926MOL0     H24981  11.240   5.102   3.308  0.1398 -2.3652 -1.0261
  926MOL0     H24982  11.311   5.236   3.161 -0.8393 -1.8718 -0.2365
  926MOL0     H24983  11.194   5.342   3.241  2.5090 -1.5099  2.0325
  926MOL0     H24984  11.117   5.203   2.972 -1.8561  0.5608  1.3148
  926MOL0     H24985  11.032   5.320   3.055 -0.6106 -3.0923  1.6309
  926MOL0     H24986  11.285   5.332   2.898  0.9095  0.1068  0.6334
  926MOL0     H24987  11.268   5.469   3.021 -3.6601  2.9606 -1.7111
  926MOL0     H24988  11.064   5.416   2.810 -1.0574 -0.1660  1.3797
  926MOL0     H24989  11.065   5.548   2.921 -1.2454 -1.9061  0.9874
  926MOL0     H24990  10.893   5.229   3.843 -0.7078 -0.7336 -0.0438
  926MOL0     H24991  10.857   5.131   4.052 -1.6157 -0.9703  0.7357
  926MOL0     H24992  10.676   4.896   4.266  0.1160 -0.3344 -1.1739
  926MOL0     H24993  10.569   4.805   4.483 -0.5405  1.2264 -1.9100
  926MOL0     H24994  10.028   3.222   5.178  5.0492  2.0740  2.7987
  926MOL0     H24995   9.906   3.223   4.954  0.4938 -1.2879  1.0959
  926MOL0     H24996   9.794   3.249   4.629  3.2574 -0.0305 -1.4339
  926MOL0     H24997   9.651   3.176   4.446 -1.1851 -0.1910  2.7319
  926MOL0     H24998   9.598   3.116   4.255 -0.0141 -1.6930 -0.2170
  926MOL0     H24999   9.484   3.189   4.131  1.1104 -0.2814  0.2052
  926MOL0     H25000   9.430   3.153   4.419  0.8640  0.0418 -0.0081
  926MOL0     H25001   9.379   3.035   4.285 -1.0765  0.4170  0.7803
  926MOL0     H25002   9.298   3.305   4.203  0.2291 -0.0987  0.6939
  926MOL0     H25003   9.230   3.268   4.361 -0.8467  0.7404 -1.0439
  926MOL0     H25004   9.123   3.064   4.264  2.0872 -1.6959 -0.9905
  926MOL0     H25005   9.056   3.207   4.193 -1.3496 -2.5210  1.0849
  926MOL0     H25006   9.242   3.037   3.856 -1.2102  0.9367 -0.5226
  926MOL0     H25007   9.602   3.560   4.312  0.0066 -2.4724 -0.2488
  926MOL0     H25008   9.804   3.729   4.580 -0.5573  1.2849 -0.6680
  926MOL0     H25009   9.734   3.746   4.421  3.3935 -2.4868 -1.0301
  926MOL0     H25010   9.624   3.731   4.566 -0.5257 -1.6571  0.9830
  927MOL0     O25011   8.068   1.889   6.803 -0.5924 -0.7103  0.1347
  927MOL0     C25012   8.176   1.915   6.854 -0.8150 -0.7328  0.1054
  927MOL0     O25013   8.194   1.912   6.992  0.8986  0.6026  0.5688
  927MOL0     C25014   8.085   1.934   7.073 -0.0532 -0.6132  0.1270
  927MOL0     C25015   8.093   2.044   7.161 -0.5862 -0.4925  0.8563
  927MOL0     C25016   7.996   2.070   7.257 -0.0388  0.2249 -0.4852
  927MOL0     C25017   7.888   1.976   7.278  0.0946  0.3343  0.0615
  927MOL0     O25018   7.784   2.002   7.364 -0.2073  0.2240  0.1225
  927MOL0     C25019   7.762   2.128   7.424  0.1603 -0.1721 -0.3288
  927MOL0     C25020   7.621   2.106   7.489 -0.1723 -0.4608 -0.6311
  927MOL0     C25021   7.555   2.232   7.554 -0.5017 -0.4636 -0.1100
  927MOL0     C25022   7.425   2.197   7.612  0.3528 -0.1657 -0.6398
  927MOL0     C25023   7.357   2.321   7.680 -0.4449  0.5050  0.4119
  927MOL0     C25024   7.367   2.450   7.589  0.7073  0.1679 -0.4160
  927MOL0     C25025   7.280   2.559   7.649  0.1580  0.1316 -0.1126
  927MOL0     C25026   7.130   2.524   7.652  0.6638 -0.0638  0.1766
  927MOL0     N25027   7.056   2.645   7.689  0.1638  0.3657  0.1484
  927MOL0     C25028   7.065   2.766   7.625  0.5555  0.0760  0.0715
  927MOL0     C25029   6.975   2.851   7.688 -0.6186  0.2597  0.4133
  927MOL0     C25030   6.959   3.010   7.663 -0.6970  1.2879 -0.1662
  927MOL0     C25031   6.834   3.048   7.573  0.6144 -0.3575  0.1100
  927MOL0     C25032   6.707   3.031   7.666 -0.7874 -0.4170 -0.0904
  927MOL0     C25033   6.595   2.960   7.583 -0.3993 -0.2577  0.3309
  927MOL0     O25034   6.470   2.975   7.650 -0.5404 -0.6629 -0.0798
  927MOL0     C25035   6.416   2.890   7.740 -0.3507 -0.8891  0.3748
  927MOL0     C25036   6.283   2.901   7.761  1.2772  0.0371  0.0273
  927MOL0     C25037   6.212   2.847   7.869 -0.4252 -0.0835 -0.2270
  927MOL0     C25038   6.284   2.759   7.958  0.2416 -0.4585  0.6177
  927MOL0     C25039   6.227   2.712   8.076 -0.0442  1.1704 -0.4547
  927MOL0     O25040   6.096   2.747   8.116  0.1180 -1.1892  0.0040
  927MOL0     C25041   6.054   2.717   8.247 -0.2068  0.2236 -0.0681
  927MOL0     C25042   5.961   2.617   8.265  1.0750  0.1979  0.0769
  927MOL0     C25043   5.919   2.589   8.397 -0.9990  0.5014  1.4607
  927MOL0     C25044   5.964   2.665   8.503  0.8807  0.4535 -0.7211
  927MOL0     O25045   5.917   2.626   8.627 -0.8842  0.0370  0.2148
  927MOL0     C25046   5.967   2.681   8.750  0.2149  0.2966  0.1661
  927MOL0     C25047   5.892   2.610   8.865 -0.1461 -0.1140  0.3955
  927MOL0     C25048   5.943   2.586   9.003  0.6695 -0.2525  0.4866
  927MOL0     C25049   6.028   2.710   9.043 -0.2280 -0.0318  1.3912
  927MOL0     C25050   6.079   2.691   9.190  0.4108  0.0546 -0.5021
  927MOL0     C25051   6.198   2.791   9.225 -0.1339  0.0633 -0.0521
  927MOL0     C25052   6.179   2.940   9.179 -0.6574  0.0863 -0.4239
  927MOL0     C25053   6.075   3.009   9.268  0.2462  0.0884  0.5750
  927MOL0    Cl25054   6.025   3.176   9.214 -0.4557  0.0334  0.2609
  927MOL0     C25055   6.056   2.765   8.485  0.4121 -0.2754  0.2654
  927MOL0     C25056   6.109   2.784   8.356 -0.4355 -0.6609 -0.8578
  927MOL0     O25057   6.304   2.656   8.155 -0.3470 -0.2594  0.4888
  927MOL0     C25058   6.426   2.742   7.930 -0.4702 -0.5029 -0.3811
  927MOL0     C25059   6.495   2.817   7.832 -0.0924 -0.0797 -0.1875
  927MOL0     N25060   6.918   2.768   7.798 -0.6782 -0.8414  0.4235
  927MOL0     N25061   6.971   2.651   7.793  0.1447  0.6728  0.4204
  927MOL0     C25062   7.888   1.859   7.193 -0.1046  0.8131 -0.0130
  927MOL0     C25063   7.976   1.842   7.089 -1.4571 -0.3738 -0.2608
  927MOL0     C25064   8.295   1.948   6.765  0.3388 -0.2388 -0.0906
  927MOL0     C25065   8.292   1.913   6.625 -0.1650  0.5157  0.3156
  927MOL0     C25066   8.393   1.962   6.536 -0.2019 -0.2577 -0.1894
  927MOL0     C25067   8.498   2.038   6.578 -0.3803  0.3499  0.7069
  927MOL0     O25068   8.602   2.075   6.490  0.4513  0.4737  0.5576
  927MOL0     C25069   8.669   2.198   6.506 -0.0819 -0.4197 -0.7540
  927MOL0     C25070   8.579   2.316   6.501 -0.2245  0.0116 -0.2527
  927MOL0     C25071   8.519   2.360   6.372  0.9681 -0.4621 -0.8173
  927MOL0     C25072   8.391   2.293   6.338  0.8485 -0.4127  1.0346
  927MOL0     C25073   8.283   2.320   6.436 -0.5695  0.6974 -1.0171
  927MOL0     C25074   8.209   2.362   6.523 -1.0847 -0.0794 -0.2062
  927MOL0     C25075   8.502   2.075   6.709 -0.2819 -0.9782 -0.5585
  927MOL0     C25076   8.402   2.031   6.803  1.0266  0.2136 -0.6955
  927MOL0     C25077   8.415   2.087   6.944  0.4428  0.3254  0.2597
  927MOL0     H25078   8.183   2.104   7.168 -1.0597  0.0725  2.5672
  927MOL0     H25079   7.992   2.168   7.302 -1.4162  1.0410 -2.2685
  927MOL0     H25080   7.840   2.137   7.500  0.2791 -1.9653 -0.1892
  927MOL0     H25081   7.764   2.204   7.346  0.6866  0.8713  0.6735
  927MOL0     H25082   7.628   2.028   7.566  0.4202 -0.7214 -0.9371
  927MOL0     H25083   7.560   2.070   7.406  1.9858  1.7335 -3.3806
  927MOL0     H25084   7.547   2.316   7.484 -0.6965 -0.6149 -0.2695
  927MOL0     H25085   7.619   2.264   7.636  0.9171  1.8156 -1.9795
  927MOL0     H25086   7.356   2.158   7.536  1.7747  1.5182 -2.9139
  927MOL0     H25087   7.437   2.121   7.690  0.3706  0.5588  0.0660
  927MOL0     H25088   7.258   2.280   7.704  0.8174 -3.4518 -0.3611
  927MOL0     H25089   7.416   2.339   7.770 -0.3995  1.5302  0.1909
  927MOL0     H25090   7.470   2.488   7.585  0.5305  0.8235  1.0297
  927MOL0     H25091   7.332   2.433   7.486 -0.0482  0.5552 -0.2295
  927MOL0     H25092   7.296   2.648   7.588 -2.1901  0.7891  0.1163
  927MOL0     H25093   7.304   2.583   7.753  0.6372 -0.4357 -0.0889
  927MOL0     H25094   7.099   2.491   7.553 -2.3392 -0.7206  1.2218
  927MOL0     H25095   7.110   2.441   7.721 -1.6637 -0.8621 -1.3579
  927MOL0     H25096   7.112   2.786   7.530 -0.7187 -0.7915 -0.7835
  927MOL0     H25097   6.949   3.055   7.762 -4.2657  1.3854 -0.4440
  927MOL0     H25098   7.052   3.047   7.619  0.5280  0.1135  1.3433
  927MOL0     H25099   6.843   3.157   7.563 -1.6296 -0.1463 -0.0161
  927MOL0     H25100   6.825   3.003   7.474 -0.4390 -3.3527  1.4592
  927MOL0     H25101   6.675   3.128   7.704  1.6354  0.5664 -0.3660
  927MOL0     H25102   6.734   2.970   7.753  0.1438 -1.3644 -1.0109
  927MOL0     H25103   6.620   2.853   7.583  2.3475  0.3322 -0.1719
  927MOL0     H25104   6.593   2.997   7.480  2.1538  2.1226  1.0422
  927MOL0     H25105   6.230   2.964   7.691 -1.3323 -3.5588 -1.5331
  927MOL0     H25106   6.107   2.868   7.887 -0.1679  0.0314  1.2677
  927MOL0     H25107   5.906   2.560   8.191  1.1503 -0.5263  0.5749
  927MOL0     H25108   5.857   2.500   8.402 -0.2660 -0.1264  0.0058
  927MOL0     H25109   6.076   2.676   8.750  0.1935 -0.2739 -0.2445
  927MOL0     H25110   5.946   2.788   8.760  0.8940  0.4151  0.3863
  927MOL0     H25111   5.808   2.677   8.886  1.8543  2.8359 -0.3211
  927MOL0     H25112   5.847   2.516   8.834  3.7690 -2.7902  2.0916
  927MOL0     H25113   5.862   2.569   9.074 -2.2289  0.5903 -2.3554
  927MOL0     H25114   6.014   2.503   9.000  1.9479  0.8045 -1.9163
  927MOL0     H25115   5.972   2.801   9.021  1.3091  0.2851 -1.7226
  927MOL0     H25116   6.115   2.718   8.977 -0.0102 -1.8074  1.4151
  927MOL0     H25117   6.100   2.584   9.192 -1.6127 -0.4305 -1.5164
  927MOL0     H25118   5.992   2.704   9.255  1.4449 -0.9761  1.1244
  927MOL0     H25119   6.221   2.799   9.332 -3.3620  3.9485  0.5891
  927MOL0     H25120   6.291   2.758   9.177  0.3001 -0.7280  1.2845
  927MOL0     H25121   6.140   2.942   9.077  0.0416 -1.1466 -0.7462
  927MOL0     H25122   6.276   2.991   9.182 -1.1315  1.0160 -0.7682
  927MOL0     H25123   5.987   2.946   9.281  1.0938 -0.5671  3.9257
  927MOL0     H25124   6.120   3.009   9.367  2.8267 -1.1366 -0.4836
  927MOL0     H25125   6.092   2.823   8.569 -1.7769  1.7236 -0.0668
  927MOL0     H25126   6.187   2.859   8.346 -1.6551  0.6395 -0.9018
  927MOL0     H25127   6.487   2.680   7.995  0.0405 -1.2857 -1.5729
  927MOL0     H25128   6.601   2.795   7.825 -0.4748 -2.0466 -0.2735
  927MOL0     H25129   7.796   1.802   7.196  0.3855  0.0272  3.2988
  927MOL0     H25130   7.954   1.759   7.022 -0.3930 -0.1302 -0.9353
  927MOL0     H25131   8.211   1.856   6.579  0.5470  0.5119 -0.9874
  927MOL0     H25132   8.401   1.933   6.432  0.5165  1.2222 -0.5748
  927MOL0     H25133   8.754   2.201   6.437 -1.0824 -3.7220 -2.3415
  927MOL0     H25134   8.712   2.205   6.606 -0.3128  1.9274 -0.7570
  927MOL0     H25135   8.640   2.399   6.539 -0.8833  1.5341 -2.3744
  927MOL0     H25136   8.496   2.320   6.573  1.3988  1.4884  1.6491
  927MOL0     H25137   8.591   2.334   6.293  1.3285  2.3972 -1.5742
  927MOL0     H25138   8.511   2.469   6.377  3.9787 -0.2203  2.4783
  927MOL0     H25139   8.354   2.347   6.250 -2.9282  0.8332  3.1251
  927MOL0     H25140   8.410   2.186   6.324  1.3939 -0.3884  1.5188
  927MOL0     H25141   8.126   2.399   6.580 -0.6100  1.0194 -0.1987
  927MOL0     H25142   8.587   2.118   6.760 -3.4101  4.2709  0.9739
  927MOL0     H25143   8.436   2.016   7.024  0.5257  1.5836  1.3899
  927MOL0     H25144   8.486   2.169   6.953 -0.8716  1.2483  4.2140
  927MOL0     H25145   8.315   2.125   6.968  0.2156  0.2138 -0.4820
  928MOL0     O25146   1.128   1.472   0.983 -0.5429 -0.1791 -0.1775
  928MOL0     C25147   1.040   1.550   0.939 -1.2917 -0.6937  0.1980
  928MOL0     O25148   1.003   1.565   0.811 -0.1663 -0.7787 -0.1287
  928MOL0     C25149   1.024   1.464   0.719 -0.1001  0.2184 -0.1684
  928MOL0     C25150   1.060   1.490   0.591  0.2455 -1.0337 -0.8237
  928MOL0     C25151   1.069   1.390   0.494  0.2423  0.0366 -0.2067
  928MOL0     C25152   1.039   1.252   0.528 -0.2394  0.2562  0.5526
  928MOL0     O25153   1.035   1.141   0.438  0.6156  0.5475 -1.0554
  928MOL0     C25154   1.060   1.162   0.292 -0.1815  0.3584  0.2480
  928MOL0     C25155   1.212   1.187   0.258  0.4064 -0.1063 -0.6524
  928MOL0     C25156   1.320   1.094   0.327 -0.4800  0.4167 -0.8824
  928MOL0     C25157   1.453   1.112   0.249 -0.0721 -0.4220  0.1727
  928MOL0     C25158   1.558   1.026   0.311 -0.0919 -0.0136  0.0263
  928MOL0     C25159   1.623   1.094   0.434 -0.5927 -1.0050  0.2148
  928MOL0     C25160   1.754   1.046   0.475 -0.5992  0.6478  0.2660
  928MOL0     C25161   1.788   1.080   0.613 -0.1027 -0.7377  0.0877
  928MOL0     N25162   1.910   1.010   0.669 -0.4912  0.3328 -0.4398
  928MOL0     C25163   1.922   0.880   0.700  0.9769  0.8217 -0.3759
  928MOL0     C25164   2.040   0.865   0.758  1.2255 -0.9747  0.6576
  928MOL0     C25165   2.093   0.738   0.803 -0.3913 -0.5375  0.1391
  928MOL0     C25166   2.113   0.740   0.954 -0.7839 -0.5800 -0.2561
  928MOL0     C25167   2.185   0.614   1.003 -1.3236 -0.3413 -0.3979
  928MOL0     C25168   2.334   0.615   0.953  0.5497 -0.0227 -0.0920
  928MOL0     O25169   2.429   0.538   1.024 -0.2552 -0.3645  0.4505
  928MOL0     C25170   2.508   0.591   1.123  0.9214 -0.0988  0.0559
  928MOL0     C25171   2.517   0.729   1.169 -0.5472  0.2483 -0.0532
  928MOL0     C25172   2.617   0.768   1.261 -0.0347 -0.7762  0.8321
  928MOL0     C25173   2.695   0.675   1.320 -0.3495 -0.0145  0.4580
  928MOL0     C25174   2.794   0.716   1.422 -0.2853  1.8827 -0.2700
  928MOL0     O25175   2.889   0.628   1.476  0.1790  0.8267  0.0661
  928MOL0     C25176   2.988   0.684   1.546  0.4895  0.8014  0.0778
  928MOL0     C25177   3.011   0.630   1.668 -0.3158 -0.3024  0.3141
  928MOL0     C25178   3.110   0.678   1.750 -0.5411  0.2885  0.3842
  928MOL0     C25179   3.179   0.790   1.717  0.4602 -0.4857  0.1558
  928MOL0     O25180   3.273   0.844   1.803 -0.2850  0.3494 -0.0370
  928MOL0     C25181   3.211   0.925   1.906  0.5510  0.1478 -1.1836
  928MOL0     C25182   3.290   1.048   1.937 -0.3335 -0.3488  0.1896
  928MOL0     C25183   3.432   1.003   1.989  0.1184  0.3798  0.1387
  928MOL0     C25184   3.526   1.122   1.999 -0.0987 -0.2077 -0.6008
  928MOL0     C25185   3.612   1.123   1.874  0.8577 -0.7222  0.9010
  928MOL0     C25186   3.705   1.234   1.862  0.4708 -0.2049 -0.2986
  928MOL0     C25187   3.782   1.211   1.728 -1.0512  0.2697  0.3717
  928MOL0     C25188   3.878   1.332   1.712  0.4604 -0.1449  0.4960
  928MOL0    Cl25189   3.786   1.477   1.667  0.2710 -0.2913 -0.1656
  928MOL0     C25190   3.150   0.861   1.599 -0.3874 -0.4722  1.4843
  928MOL0     C25191   3.062   0.796   1.505 -0.5662 -0.0086  0.9678
  928MOL0     O25192   2.777   0.829   1.465  0.2215 -0.3116 -0.4427
  928MOL0     C25193   2.675   0.545   1.284 -0.6353  0.8151  0.5258
  928MOL0     C25194   2.592   0.505   1.183  0.2510 -0.1209 -0.4524
  928MOL0     N25195   2.103   0.990   0.773 -0.8442 -0.1541  0.5100
  928MOL0     N25196   2.028   1.075   0.708 -0.1918 -0.3126 -0.6289
  928MOL0     C25197   1.009   1.229   0.659  0.4866  0.2834 -0.3441
  928MOL0     C25198   0.990   1.334   0.748 -0.4509 -0.0212 -0.4601
  928MOL0     C25199   1.001   1.660   1.034 -0.1732  1.0151 -0.7621
  928MOL0     C25200   0.940   1.780   0.982 -0.8292 -0.0869 -0.3589
  928MOL0     C25201   0.920   1.891   1.060  0.4711 -0.4086 -0.1270
  928MOL0     C25202   0.959   1.906   1.191  0.1950  0.3739 -0.1163
  928MOL0     O25203   0.937   2.027   1.257 -0.3705  0.5117 -0.0796
  928MOL0     C25204   0.921   2.028   1.411  0.0571 -0.1831  0.0559
  928MOL0     C25205   0.826   2.140   1.438  0.7971  0.5001 -0.3334
  928MOL0     C25206   0.881   2.284   1.419 -0.2091 -0.3868 -0.0958
  928MOL0     C25207   0.916   2.324   1.282 -0.4668  0.0380  0.0754
  928MOL0     C25208   0.923   2.472   1.262  0.0743 -0.2095  0.4289
  928MOL0     C25209   0.912   2.593   1.253  1.2772  0.3500  0.0930
  928MOL0     C25210   1.013   1.789   1.242  0.5127 -0.3628 -0.4797
  928MOL0     C25211   1.031   1.667   1.175  0.4724  0.0748  0.2941
  928MOL0     C25212   1.074   1.549   1.265 -0.3702  0.2388 -0.1394
  928MOL0     H25213   1.094   1.590   0.565  0.1307 -1.3449 -2.2854
  928MOL0     H25214   1.087   1.412   0.390  2.8444  2.1271  0.5800
  928MOL0     H25215   1.032   1.069   0.243  1.2580  0.3733 -0.6381
  928MOL0     H25216   0.992   1.238   0.251 -2.2444 -2.3550 -1.7596
  928MOL0     H25217   1.230   1.291   0.287  2.4112 -0.8416  0.9884
  928MOL0     H25218   1.226   1.179   0.150 -1.4485 -1.4479 -0.8294
  928MOL0     H25219   1.279   0.993   0.322 -1.6532  0.6768  1.6078
  928MOL0     H25220   1.329   1.129   0.431 -4.3997  0.1283 -0.2588
  928MOL0     H25221   1.446   1.078   0.145  1.8698 -1.2169  0.2484
  928MOL0     H25222   1.485   1.216   0.242 -0.6102 -0.1490  1.5146
  928MOL0     H25223   1.519   0.927   0.336  1.9248 -0.8760 -0.0239
  928MOL0     H25224   1.631   0.998   0.234  0.9868 -0.4115  1.1677
  928MOL0     H25225   1.638   1.199   0.408 -0.8468 -1.6046 -2.6881
  928MOL0     H25226   1.544   1.094   0.510 -0.0845  3.6018  1.0326
  928MOL0     H25227   1.837   1.065   0.406 -0.9582 -1.0716 -0.6967
  928MOL0     H25228   1.753   0.937   0.463  1.7335  0.6143  0.0308
  928MOL0     H25229   1.806   1.188   0.613 -0.5849 -0.6563 -0.0128
  928MOL0     H25230   1.702   1.045   0.670  0.8403 -2.7996  0.3406
  928MOL0     H25231   1.849   0.805   0.673 -2.6012  4.0432 -0.4855
  928MOL0     H25232   2.034   0.650   0.774  1.7089 -3.3663  3.6125
  928MOL0     H25233   2.187   0.736   0.746 -0.8863 -0.7884 -0.6967
  928MOL0     H25234   2.161   0.832   0.988  1.1057 -1.4287 -0.5264
  928MOL0     H25235   2.009   0.739   0.989 -1.6150 -3.1912 -2.4803
  928MOL0     H25236   2.131   0.523   0.975 -2.0370 -0.3193  0.8307
  928MOL0     H25237   2.194   0.635   1.110 -0.9167  1.8121 -0.8035
  928MOL0     H25238   2.377   0.715   0.964 -1.8678  0.7896  4.5528
  928MOL0     H25239   2.325   0.599   0.845  1.1252 -1.6369  0.0678
  928MOL0     H25240   2.452   0.800   1.118 -0.8863 -0.1996 -0.2495
  928MOL0     H25241   2.606   0.874   1.285 -0.9959  0.1213 -2.8991
  928MOL0     H25242   2.939   0.553   1.693 -2.6062  1.3311 -0.9283
  928MOL0     H25243   3.123   0.624   1.844  0.7348  4.1767  2.6694
  928MOL0     H25244   3.112   0.955   1.872  2.0028  2.0755 -4.1098
  928MOL0     H25245   3.202   0.875   2.003  2.5337  0.2858 -0.8741
  928MOL0     H25246   3.302   1.114   1.850 -0.1353 -0.9812 -0.2724
  928MOL0     H25247   3.244   1.100   2.021  0.2943 -1.4792  1.2723
  928MOL0     H25248   3.417   0.955   2.086  0.1039  1.4787  0.6892
  928MOL0     H25249   3.471   0.935   1.913  0.6328  0.9854 -0.1417
  928MOL0     H25250   3.594   1.088   2.077 -2.9439 -0.3533  1.9969
  928MOL0     H25251   3.473   1.213   2.031  2.0345  0.6614  0.6398
  928MOL0     H25252   3.546   1.131   1.788  0.3339 -0.0444  1.3526
  928MOL0     H25253   3.664   1.027   1.867  1.7561 -0.2212  0.5452
  928MOL0     H25254   3.646   1.325   1.871 -1.3205 -1.5103  6.5279
  928MOL0     H25255   3.783   1.234   1.938  3.3800  0.5659 -3.0577
  928MOL0     H25256   3.727   1.188   1.637  0.5822 -2.1576 -0.1174
  928MOL0     H25257   3.847   1.123   1.741  0.8925  1.9587  3.5526
  928MOL0     H25258   3.917   1.353   1.812  0.2953 -2.6401  1.1527
  928MOL0     H25259   3.960   1.305   1.644 -0.0920  3.2069 -1.7628
  928MOL0     H25260   3.199   0.955   1.575 -0.6668 -0.7620 -0.4285
  928MOL0     H25261   3.054   0.839   1.406  2.1073  2.7533  1.8060
  928MOL0     H25262   2.738   0.472   1.334 -0.2551  1.4174  0.9440
  928MOL0     H25263   2.597   0.399   1.160  1.8194  0.0660 -1.1433
  928MOL0     H25264   1.003   1.125   0.688  1.6999 -0.0509 -1.1704
  928MOL0     H25265   0.958   1.305   0.848  0.9838 -2.3486 -0.5926
  928MOL0     H25266   0.914   1.785   0.877 -2.6290 -1.0496 -0.0110
  928MOL0     H25267   0.871   1.978   1.017  0.2623 -0.1217  0.6639
  928MOL0     H25268   1.016   2.049   1.459  1.1709  0.2782 -2.1894
  928MOL0     H25269   0.873   1.933   1.438 -0.4497  0.6604  2.3273
  928MOL0     H25270   0.790   2.126   1.541  1.4524  1.6535  0.0598
  928MOL0     H25271   0.733   2.119   1.383 -0.3691  2.1684  0.9031
  928MOL0     H25272   0.964   2.295   1.489  1.1085  0.1052 -1.6717
  928MOL0     H25273   0.793   2.345   1.441  1.4030  3.2835 -2.7541
  928MOL0     H25274   1.004   2.275   1.238 -1.1681  0.1576 -1.5395
  928MOL0     H25275   0.840   2.282   1.216 -1.4157  2.6910 -0.6125
  928MOL0     H25276   0.905   2.699   1.264 -2.6168  0.3082 -0.7442
  928MOL0     H25277   1.013   1.795   1.350 -1.4704 -0.8270 -0.4255
  928MOL0     H25278   0.985   1.502   1.305 -0.7817  0.5470 -0.6693
  928MOL0     H25279   1.140   1.473   1.223 -1.1316  0.0004 -0.9286
  928MOL0     H25280   1.125   1.578   1.358 -0.6363 -0.8391  0.3483
  929MOL0     O25281   1.985   4.200   7.359  0.6745  0.9275  0.5532
  929MOL0     C25282   2.082   4.273   7.376 -0.3072 -0.0085 -0.3093
  929MOL0     O25283   2.129   4.368   7.285  0.4356  0.3848 -0.1920
  929MOL0     C25284   2.074   4.374   7.164  1.4197  0.9623  0.1825
  929MOL0     C25285   1.997   4.473   7.123 -0.1534 -0.1533 -1.1188
  929MOL0     C25286   1.922   4.474   7.007 -0.3996  0.8113  0.3420
  929MOL0     C25287   1.930   4.369   6.913  0.8088  0.9305  0.8063
  929MOL0     O25288   1.861   4.365   6.791  0.1242  0.3904 -0.2300
  929MOL0     C25289   1.732   4.428   6.771  0.5762 -0.1929 -0.5592
  929MOL0     C25290   1.716   4.460   6.627 -0.5433  0.4860 -1.0509
  929MOL0     C25291   1.821   4.572   6.586  0.5648  0.7146 -0.4237
  929MOL0     C25292   1.802   4.634   6.447 -0.2792 -0.3611 -0.1083
  929MOL0     C25293   1.921   4.706   6.391 -1.0340 -0.6754  0.2535
  929MOL0     C25294   2.019   4.620   6.320  0.1051  0.8690  0.0320
  929MOL0     C25295   2.163   4.684   6.315  0.7982  0.0110  0.3466
  929MOL0     C25296   2.255   4.580   6.241  0.5473  0.8905  0.6663
  929MOL0     N25297   2.377   4.646   6.195 -0.9030  0.0800  0.3606
  929MOL0     C25298   2.500   4.589   6.194  0.0091  0.5062  0.1656
  929MOL0     C25299   2.599   4.684   6.190  0.0847 -0.1118  0.1742
  929MOL0     C25300   2.749   4.688   6.176 -1.4836 -0.6507 -0.6496
  929MOL0     C25301   2.822   4.772   6.274 -0.2647 -0.6391 -0.3914
  929MOL0     C25302   2.791   4.718   6.417  0.6553 -0.5188 -0.5479
  929MOL0     C25303   2.843   4.576   6.466 -0.1201  0.1300  0.3366
  929MOL0     O25304   2.981   4.553   6.414  0.1145 -0.6634  0.3508
  929MOL0     C25305   3.080   4.638   6.443 -0.0301  0.5397  0.0888
  929MOL0     C25306   3.083   4.718   6.559 -0.1422 -1.1481 -0.1666
  929MOL0     C25307   3.190   4.794   6.588 -0.6092  0.1850  0.7688
  929MOL0     C25308   3.305   4.788   6.509  0.1532 -0.5177 -0.4526
  929MOL0     C25309   3.406   4.893   6.538  0.5502 -0.0321  0.3945
  929MOL0     O25310   3.387   4.983   6.642 -0.1138  0.1883 -0.0329
  929MOL0     C25311   3.457   5.094   6.656  0.0356  0.1467 -0.1084
  929MOL0     C25312   3.594   5.100   6.690  0.0684  0.1528  0.3476
  929MOL0     C25313   3.653   5.214   6.730 -0.2871  0.5400  0.4100
  929MOL0     C25314   3.590   5.333   6.717 -0.4072 -0.4519  0.1539
  929MOL0     O25315   3.662   5.449   6.729  0.3434 -0.6134  0.6036
  929MOL0     C25316   3.592   5.576   6.704 -0.1964  0.1455 -0.4585
  929MOL0     C25317   3.699   5.690   6.720  0.1829 -0.1766 -0.7134
  929MOL0     C25318   3.632   5.834   6.723 -0.6210  0.5526  0.1540
  929MOL0     C25319   3.648   5.912   6.583  0.7269  0.3940 -0.1862
  929MOL0     C25320   3.564   6.039   6.597 -0.2008  0.3081  0.0250
  929MOL0     C25321   3.574   6.125   6.477 -0.4016 -0.1426 -0.7231
  929MOL0     C25322   3.708   6.178   6.419  0.7566 -0.5090 -1.5207
  929MOL0     C25323   3.676   6.289   6.320  0.2934 -0.2241  0.6628
  929MOL0    Cl25324   3.803   6.265   6.199 -0.8166  0.3673 -0.7398
  929MOL0     C25325   3.456   5.328   6.687 -0.7832 -0.1814 -0.0204
  929MOL0     C25326   3.388   5.208   6.664  0.1746 -0.0915 -0.0943
  929MOL0     O25327   3.499   4.899   6.453  0.6317  0.2180  0.5495
  929MOL0     C25328   3.313   4.706   6.394  0.6179  0.9383 -0.1895
  929MOL0     C25329   3.190   4.635   6.362 -2.0032  0.6620  0.5777
  929MOL0     N25330   2.528   4.802   6.187 -0.5904  0.7798 -0.1193
  929MOL0     N25331   2.400   4.781   6.180  0.7271 -1.0920 -1.1002
  929MOL0     C25332   2.024   4.265   6.937  0.3127  0.1920 -0.2075
  929MOL0     C25333   2.092   4.266   7.069 -0.6803  0.6628  0.2441
  929MOL0     C25334   2.152   4.277   7.507  1.2026 -0.1766  0.4382
  929MOL0     C25335   2.270   4.351   7.511 -0.8613  0.1941 -0.1750
  929MOL0     C25336   2.345   4.349   7.625  0.1833 -0.5183  0.0183
  929MOL0     C25337   2.307   4.266   7.740 -0.8589 -0.5480  0.6355
  929MOL0     O25338   2.380   4.223   7.845  0.2740 -0.5698 -1.3744
  929MOL0     C25339   2.486   4.300   7.874 -0.0491 -0.6227 -0.7093
  929MOL0     C25340   2.569   4.233   7.981 -0.2646  0.4710  0.8181
  929MOL0     C25341   2.638   4.096   7.921 -0.1519 -0.5465  0.5709
  929MOL0     C25342   2.549   3.975   7.941 -0.1878 -0.5657 -0.9377
  929MOL0     C25343   2.622   3.856   7.903 -0.4583  0.3050  0.6026
  929MOL0     C25344   2.690   3.759   7.865  0.4656  0.1236  0.2004
  929MOL0     C25345   2.174   4.214   7.740 -0.9299  0.3042 -0.2582
  929MOL0     C25346   2.098   4.219   7.625 -0.0287 -1.2396  0.1962
  929MOL0     C25347   1.963   4.157   7.651  0.6613  0.4324 -0.5320
  929MOL0     H25348   1.977   4.561   7.184 -1.2996 -1.2572  0.1585
  929MOL0     H25349   1.852   4.554   6.984  0.7449  1.6585 -0.2844
  929MOL0     H25350   1.651   4.361   6.800  2.1309 -1.5781  0.7852
  929MOL0     H25351   1.726   4.524   6.823  0.5709  0.4679 -1.7293
  929MOL0     H25352   1.611   4.488   6.613 -0.9283 -0.9518 -1.2782
  929MOL0     H25353   1.719   4.364   6.573  0.5280  0.8320 -1.6187
  929MOL0     H25354   1.920   4.526   6.587  0.1243 -0.4215 -2.4790
  929MOL0     H25355   1.815   4.657   6.654 -2.3938 -1.0784  1.7967
  929MOL0     H25356   1.771   4.545   6.392  1.8201 -1.4953  0.4146
  929MOL0     H25357   1.717   4.702   6.442  0.2669  0.2827 -2.9036
  929MOL0     H25358   1.886   4.789   6.329 -2.1399 -2.2146 -1.2607
  929MOL0     H25359   1.972   4.748   6.478 -1.3806 -0.5491  0.3955
  929MOL0     H25360   2.022   4.526   6.374 -0.4832  0.4305 -0.6831
  929MOL0     H25361   1.990   4.603   6.216 -0.6196 -0.9179  0.4983
  929MOL0     H25362   2.197   4.711   6.416 -0.4095  3.2553  0.0145
  929MOL0     H25363   2.155   4.783   6.270 -0.8608  1.2468  3.0688
  929MOL0     H25364   2.280   4.497   6.308 -1.2483  0.4747  0.8969
  929MOL0     H25365   2.198   4.535   6.158  2.0149  1.0526 -0.4638
  929MOL0     H25366   2.519   4.482   6.190  2.6137  0.9194 -0.3891
  929MOL0     H25367   2.782   4.584   6.177 -1.0428 -0.5537 -2.0677
  929MOL0     H25368   2.769   4.729   6.076 -0.7077  1.3624  0.2777
  929MOL0     H25369   2.928   4.776   6.247 -0.4835  0.6714 -1.1603
  929MOL0     H25370   2.783   4.874   6.274 -0.5047 -0.7276  0.2257
  929MOL0     H25371   2.691   4.743   6.453  0.9144 -1.7927  1.2176
  929MOL0     H25372   2.846   4.786   6.484  0.2187 -2.0442  1.4668
  929MOL0     H25373   2.770   4.506   6.425 -2.4079  2.8753 -0.6708
  929MOL0     H25374   2.842   4.573   6.575 -0.9425 -0.2331  0.3223
  929MOL0     H25375   3.002   4.733   6.630  1.8613  1.7188  1.7411
  929MOL0     H25376   3.180   4.845   6.683  0.0732 -0.1962  1.0530
  929MOL0     H25377   3.657   5.014   6.711 -1.1618 -0.8660 -0.0449
  929MOL0     H25378   3.753   5.214   6.771  0.9982 -1.4131 -2.4264
  929MOL0     H25379   3.553   5.562   6.603 -1.6184 -0.6350  0.1676
  929MOL0     H25380   3.518   5.587   6.783 -0.3109 -1.5635 -0.2793
  929MOL0     H25381   3.735   5.685   6.823  0.9832 -3.3003 -1.0502
  929MOL0     H25382   3.788   5.682   6.657  2.0525  1.5146  1.5508
  929MOL0     H25383   3.530   5.808   6.751 -0.3187 -0.9639 -0.0686
  929MOL0     H25384   3.692   5.896   6.790  0.7994  2.0878 -2.3443
  929MOL0     H25385   3.610   5.848   6.504 -0.7885  0.5083  0.4128
  929MOL0     H25386   3.755   5.935   6.582  0.9835  1.5863  6.2078
  929MOL0     H25387   3.604   6.092   6.684 -0.5825  0.3615  0.1706
  929MOL0     H25388   3.461   6.007   6.614 -0.2147  0.3076 -0.0592
  929MOL0     H25389   3.514   6.079   6.398 -2.3019  0.6282  0.2146
  929MOL0     H25390   3.527   6.219   6.510  4.0795  0.9252  4.0466
  929MOL0     H25391   3.781   6.105   6.384  3.8520  0.7430  1.6854
  929MOL0     H25392   3.751   6.217   6.512 -6.0181  2.4441  1.0836
  929MOL0     H25393   3.574   6.285   6.281  1.3181  1.7250 -2.5729
  929MOL0     H25394   3.691   6.390   6.359 -1.0232  1.7693 -3.4227
  929MOL0     H25395   3.399   5.420   6.673 -2.5765 -1.0932  0.9040
  929MOL0     H25396   3.280   5.210   6.656 -0.0141 -2.6267  0.8847
  929MOL0     H25397   3.390   4.704   6.318  1.7073 -0.8241  0.8784
  929MOL0     H25398   3.193   4.577   6.271  1.2181  0.7775  0.5240
  929MOL0     H25399   2.054   4.184   6.871  0.6383 -1.3411  1.7058
  929MOL0     H25400   2.161   4.189   7.102 -2.6001 -1.5169 -0.5158
  929MOL0     H25401   2.312   4.401   7.424  0.3182 -2.0620 -1.0034
  929MOL0     H25402   2.444   4.389   7.610 -0.1322 -0.1932 -1.3069
  929MOL0     H25403   2.451   4.398   7.909  2.0812  0.1518 -0.5765
  929MOL0     H25404   2.550   4.322   7.788 -0.0709 -0.2094 -0.6201
  929MOL0     H25405   2.507   4.217   8.069 -1.9142  4.7136  0.6730
  929MOL0     H25406   2.653   4.296   8.011 -0.9130  2.0306 -0.4478
  929MOL0     H25407   2.733   4.080   7.974  1.9833 -2.1481 -3.3100
  929MOL0     H25408   2.648   4.101   7.812 -0.0473 -2.4894  0.4686
  929MOL0     H25409   2.514   3.963   8.044  3.2995 -1.3276  0.2980
  929MOL0     H25410   2.461   3.983   7.877 -1.3835 -3.4497  0.1960
  929MOL0     H25411   2.747   3.672   7.840  0.4982 -0.1237  1.0780
  929MOL0     H25412   2.139   4.145   7.816  1.4965 -0.3422  0.3553
  929MOL0     H25413   1.889   4.214   7.594  1.1547  1.8829  0.2106
  929MOL0     H25414   1.966   4.052   7.621 -2.0905 -0.0198  0.5114
  929MOL0     H25415   1.928   4.155   7.755  0.5408 -0.4584 -0.5898
  930MOL0     O25416   1.179   4.661   1.133  0.0609 -0.6483 -0.0999
  930MOL0     C25417   1.132   4.755   1.059 -0.1620 -0.1315 -0.4730
  930MOL0     O25418   1.174   4.887   1.070  0.3395 -0.2166 -0.2339
  930MOL0     C25419   1.265   4.915   1.167 -0.0888  0.3144  0.9663
  930MOL0     C25420   1.397   4.865   1.171  0.0115 -0.2621  0.3077
  930MOL0     C25421   1.480   4.913   1.278  0.0078 -0.5305 -0.1825
  930MOL0     C25422   1.441   5.006   1.370  1.0758  0.1365 -0.4628
  930MOL0     O25423   1.523   5.052   1.468 -0.3886 -0.1059  0.2394
  930MOL0     C25424   1.561   5.190   1.474 -0.8122 -0.9319 -0.3731
  930MOL0     C25425   1.612   5.244   1.347 -0.3347  0.0745  0.6405
  930MOL0     C25426   1.620   5.395   1.346  0.0217  0.5758  0.1185
  930MOL0     C25427   1.680   5.449   1.221  0.6978  0.7271  0.0246
  930MOL0     C25428   1.716   5.599   1.202 -0.4493  0.4779  0.6167
  930MOL0     C25429   1.751   5.671   1.332  0.5462 -0.1612  0.5706
  930MOL0     C25430   1.826   5.805   1.299 -0.1371 -0.6767 -0.1605
  930MOL0     C25431   1.853   5.898   1.429 -0.2236  0.8624 -0.5070
  930MOL0     N25432   1.730   5.904   1.517 -0.9700 -0.2476  0.4634
  930MOL0     C25433   1.706   5.842   1.630  0.1162  0.3615 -0.1840
  930MOL0     C25434   1.568   5.853   1.666  0.3945 -1.2029  0.3994
  930MOL0     C25435   1.494   5.796   1.790 -0.2532 -0.4831 -0.5343
  930MOL0     C25436   1.374   5.894   1.813  1.5844 -1.0072  0.3116
  930MOL0     C25437   1.282   5.839   1.927 -0.8110 -0.0923 -0.4595
  930MOL0     C25438   1.157   5.923   1.945  0.6459 -0.3398  0.5343
  930MOL0     O25439   1.185   6.062   1.916 -0.1212  0.6013 -0.0052
  930MOL0     C25440   1.099   6.154   1.958  0.5361 -1.3607 -0.3151
  930MOL0     C25441   0.963   6.139   1.978  0.1646  0.0648 -0.6502
  930MOL0     C25442   0.882   6.243   2.005 -0.0384 -0.2904 -0.2173
  930MOL0     C25443   0.932   6.377   2.009 -0.8785  0.3306 -0.7623
  930MOL0     C25444   0.844   6.488   2.036  0.8393  0.8613 -0.0381
  930MOL0     O25445   0.907   6.607   2.058 -0.2107 -0.3876 -0.0550
  930MOL0     C25446   0.841   6.724   2.062  0.0577  0.3825  0.5499
  930MOL0     C25447   0.887   6.833   1.991 -0.4251 -0.1223  1.0467
  930MOL0     C25448   0.815   6.950   1.975 -1.1370  0.7662 -0.4257
  930MOL0     C25449   0.703   6.979   2.051  0.2636 -0.1931 -0.1728
  930MOL0     O25450   0.639   7.104   2.039  0.2312  0.1804 -0.1413
  930MOL0     C25451   0.528   7.141   2.129 -0.5001 -0.3104 -0.9657
  930MOL0     C25452   0.475   7.279   2.085  0.3816  0.6704 -0.1597
  930MOL0     C25453   0.363   7.253   1.977  0.2948  0.5100  0.4778
  930MOL0     C25454   0.326   7.394   1.925  0.2874  0.7382  0.4961
  930MOL0     C25455   0.255   7.394   1.786 -0.2079 -0.4441  0.7342
  930MOL0     C25456   0.197   7.531   1.745 -0.0609  0.9059  0.2719
  930MOL0     C25457   0.075   7.580   1.820  0.2307 -0.0698 -0.4927
  930MOL0     C25458   0.077   7.733   1.838  0.9880 -0.2194 -0.0313
  930MOL0    Cl25459   0.206   7.776   1.953 -0.2478 -0.3668  0.4655
  930MOL0     C25460   0.661   6.871   2.138  0.6918  0.2144  0.0108
  930MOL0     C25461   0.734   6.751   2.142 -0.0166 -0.3258  0.4394
  930MOL0     O25462   0.721   6.472   2.023  0.3145 -1.0094 -0.1455
  930MOL0     C25463   1.072   6.389   2.003 -0.6018 -0.2770  0.8079
  930MOL0     C25464   1.154   6.278   1.985  0.3548 -0.4208  0.1581
  930MOL0     N25465   1.521   5.935   1.566 -0.7714 -0.3784  0.2325
  930MOL0     N25466   1.614   5.959   1.479 -0.2165 -0.2608  0.0770
  930MOL0     C25467   1.303   5.051   1.365  0.2423 -0.8916  0.2605
  930MOL0     C25468   1.220   5.003   1.263 -0.4230  0.0641  0.2790
  930MOL0     C25469   1.023   4.715   0.969  0.7268 -0.3274  0.2115
  930MOL0     C25470   1.006   4.573   0.937 -0.1217 -0.4064  0.6446
  930MOL0     C25471   0.897   4.521   0.862  0.1909 -0.4070 -0.3142
  930MOL0     C25472   0.800   4.612   0.823 -0.0059 -0.0364 -0.3015
  930MOL0     O25473   0.667   4.563   0.782 -0.1398 -0.4842 -0.1381
  930MOL0     C25474   0.650   4.424   0.784 -1.5619  0.0479 -0.4313
  930MOL0     C25475   0.497   4.401   0.754  0.4565  0.0992  0.4464
  930MOL0     C25476   0.484   4.247   0.753  0.8331  0.3239 -0.3111
  930MOL0     C25477   0.330   4.200   0.749 -0.5113 -0.2919  0.2070
  930MOL0     C25478   0.276   4.225   0.618 -0.7017  0.6156  0.0354
  930MOL0     C25479   0.243   4.237   0.500 -0.2080 -0.8551  0.1462
  930MOL0     C25480   0.811   4.751   0.862 -0.4263  0.3608  0.5822
  930MOL0     C25481   0.921   4.797   0.936 -0.4179 -0.4722 -0.9800
  930MOL0     C25482   0.923   4.943   0.974 -0.0108 -0.1587 -0.5307
  930MOL0     H25483   1.429   4.792   1.097 -2.3073  1.0588 -2.1762
  930MOL0     H25484   1.578   4.867   1.292  0.3881  0.5090  0.7130
  930MOL0     H25485   1.469   5.247   1.491  0.8440  2.7221 -2.5593
  930MOL0     H25486   1.640   5.210   1.547 -2.1354 -0.2684  0.9500
  930MOL0     H25487   1.558   5.205   1.261  0.7447  0.5487 -0.2795
  930MOL0     H25488   1.715   5.210   1.329 -0.3886  0.4079 -0.3605
  930MOL0     H25489   1.683   5.422   1.431 -0.8202  0.0557  0.9273
  930MOL0     H25490   1.525   5.447   1.362  0.6935  1.5590  1.0801
  930MOL0     H25491   1.770   5.387   1.217 -0.2601 -0.6978 -0.3131
  930MOL0     H25492   1.615   5.419   1.138  0.5461  0.8841  0.0859
  930MOL0     H25493   1.804   5.603   1.137  0.0121  2.5974  1.3099
  930MOL0     H25494   1.631   5.654   1.162 -0.2711  0.4371  0.1682
  930MOL0     H25495   1.662   5.690   1.393  1.8613 -2.3966  3.4623
  930MOL0     H25496   1.833   5.616   1.379  2.7746  1.3698 -1.2805
  930MOL0     H25497   1.762   5.850   1.222 -0.8334 -1.9680 -0.3695
  930MOL0     H25498   1.923   5.777   1.257 -0.4313 -1.5989 -0.2463
  930MOL0     H25499   1.932   5.857   1.493  0.1282  2.9913  0.5341
  930MOL0     H25500   1.890   5.994   1.392  3.4512 -0.2654 -0.1866
  930MOL0     H25501   1.782   5.790   1.688 -0.0343  0.7867  0.3990
  930MOL0     H25502   1.449   5.697   1.777 -2.5812 -0.5389  5.0863
  930MOL0     H25503   1.559   5.780   1.876 -1.0936  0.2428  0.2550
  930MOL0     H25504   1.403   5.997   1.836 -0.7525  0.0629 -1.1603
  930MOL0     H25505   1.312   5.904   1.724 -0.9953  4.0357  2.2588
  930MOL0     H25506   1.341   5.862   2.017 -1.1797  0.0274 -0.2439
  930MOL0     H25507   1.269   5.733   1.906 -2.4987  0.5078 -2.8245
  930MOL0     H25508   1.111   5.912   2.044  0.5448  1.2812  0.7005
  930MOL0     H25509   1.092   5.876   1.869  0.9617 -0.2660  0.2162
  930MOL0     H25510   0.921   6.039   1.969  1.2377 -0.7537  2.3046
  930MOL0     H25511   0.777   6.226   2.023 -0.1783  0.8600  0.0815
  930MOL0     H25512   0.971   6.830   1.922  1.1991  3.5491  2.5564
  930MOL0     H25513   0.853   7.027   1.909  1.6434  0.0091  0.1702
  930MOL0     H25514   0.460   7.055   2.133 -0.0571 -0.6243  0.0953
  930MOL0     H25515   0.564   7.162   2.230 -2.0185  1.9767 -0.8276
  930MOL0     H25516   0.433   7.334   2.169 -1.4572  0.0894 -0.6469
  930MOL0     H25517   0.563   7.333   2.051  0.0037  0.6129 -1.2679
  930MOL0     H25518   0.399   7.185   1.899 -2.7757 -1.8278  0.9134
  930MOL0     H25519   0.276   7.197   2.011  0.6418  0.0800  0.6768
  930MOL0     H25520   0.420   7.450   1.922  0.6166  0.1859 -1.6496
  930MOL0     H25521   0.266   7.445   2.000  0.3618 -1.2551  2.0133
  930MOL0     H25522   0.174   7.320   1.788 -1.2953  0.7077  0.6848
  930MOL0     H25523   0.323   7.359   1.707 -1.8282  0.6193 -1.2459
  930MOL0     H25524   0.275   7.606   1.760  0.7615 -0.0122  0.6850
  930MOL0     H25525   0.156   7.511   1.645 -2.4394  0.8182  1.1979
  930MOL0     H25526   0.090   7.533   1.918  1.0113  1.7939  0.3424
  930MOL0     H25527  -0.014   7.562   1.759 -1.2144  2.2058  0.7752
  930MOL0     H25528   0.083   7.770   1.735 -0.1080 -1.6905 -0.6670
  930MOL0     H25529  -0.023   7.770   1.866  0.1934  1.3718 -4.2066
  930MOL0     H25530   0.580   6.880   2.209  1.5429  0.4917  0.9724
  930MOL0     H25531   0.702   6.682   2.219 -1.2144  1.0967  1.2520
  930MOL0     H25532   1.127   6.482   2.003  0.1284 -0.6790 -0.0845
  930MOL0     H25533   1.262   6.285   1.986  0.2528  1.9587  1.8368
  930MOL0     H25534   1.271   5.121   1.442  2.4522 -0.7828  1.1680
  930MOL0     H25535   1.117   5.036   1.277 -0.1434  2.1590 -1.9202
  930MOL0     H25536   1.075   4.497   0.971 -3.1915 -2.6589  2.2978
  930MOL0     H25537   0.909   4.417   0.832  0.7956  0.1522 -2.0826
  930MOL0     H25538   0.675   4.393   0.886 -0.0930  1.0118 -0.4715
  930MOL0     H25539   0.717   4.375   0.713 -3.6432 -1.4360 -1.4683
  930MOL0     H25540   0.461   4.439   0.658 -1.7739 -0.1169  1.1540
  930MOL0     H25541   0.435   4.446   0.832 -1.8036  0.3568 -1.4011
  930MOL0     H25542   0.528   4.203   0.842  1.2846  1.9769  0.3200
  930MOL0     H25543   0.541   4.204   0.670  0.5466 -1.4962  0.4061
  930MOL0     H25544   0.320   4.092   0.765 -0.8400 -0.3659 -0.4598
  930MOL0     H25545   0.264   4.258   0.814 -1.3979 -0.9819 -0.0644
  930MOL0     H25546   0.220   4.245   0.396 -0.8227  2.1551  0.4133
  930MOL0     H25547   0.726   4.816   0.846  0.0461  1.0457  0.7890
  930MOL0     H25548   1.006   4.991   0.921 -0.1799  3.1357  1.8761
  930MOL0     H25549   0.831   4.993   0.943  1.0312  4.3747  2.6554
  930MOL0     H25550   0.941   4.971   1.078 -1.1460 -0.1268 -0.3316
  931MOL0     O25551   5.196   1.413   4.253  2.2454 -0.5470 -0.1892
  931MOL0     C25552   5.269   1.508   4.268  0.0000 -0.2493 -0.1501
  931MOL0     O25553   5.234   1.641   4.283 -0.4767 -0.3310  0.5608
  931MOL0     C25554   5.101   1.670   4.259  0.5293 -0.7425  1.1943
  931MOL0     C25555   5.062   1.714   4.132  0.5886 -0.0949  1.0031
  931MOL0     C25556   4.927   1.744   4.095 -0.2843  0.6404 -1.3094
  931MOL0     C25557   4.824   1.724   4.184  0.4138 -0.1261  0.9565
  931MOL0     O25558   4.700   1.746   4.142  0.2701  0.2716 -0.6547
  931MOL0     C25559   4.586   1.723   4.230 -0.3002 -0.3162  0.3613
  931MOL0     C25560   4.460   1.790   4.165 -0.3049 -0.4315  0.5251
  931MOL0     C25561   4.320   1.759   4.225  0.1034 -0.7052 -1.0066
  931MOL0     C25562   4.327   1.714   4.376  0.6979  0.4525 -1.1073
  931MOL0     C25563   4.185   1.662   4.427 -0.9388  0.3211 -0.1433
  931MOL0     C25564   4.075   1.766   4.442 -0.2356  0.5417  1.0907
  931MOL0     C25565   3.947   1.706   4.505 -0.9897  0.0676  0.1478
  931MOL0     C25566   3.955   1.635   4.642  0.2893 -0.2674  0.0509
  931MOL0     N25567   3.830   1.569   4.674 -0.4993  0.0304 -0.0678
  931MOL0     C25568   3.790   1.453   4.622 -0.6020 -0.4214 -0.6017
  931MOL0     C25569   3.680   1.419   4.695  0.4899  0.3163  0.5238
  931MOL0     C25570   3.598   1.294   4.682 -0.4235  0.0092  0.3795
  931MOL0     C25571   3.642   1.187   4.778  0.2025 -0.7668  1.1999
  931MOL0     C25572   3.529   1.125   4.869 -0.8192 -0.0614 -0.0270
  931MOL0     C25573   3.405   1.072   4.816 -0.1875 -0.0958  0.0217
  931MOL0     O25574   3.434   0.976   4.716 -0.2387 -0.7188 -0.9659
  931MOL0     C25575   3.344   0.960   4.620  0.0796  0.0580 -0.3820
  931MOL0     C25576   3.233   0.885   4.645 -0.3224  0.6709  0.7281
  931MOL0     C25577   3.142   0.854   4.537 -0.8400  0.2091  0.2127
  931MOL0     C25578   3.158   0.915   4.405 -0.3248 -0.1405 -0.2423
  931MOL0     C25579   3.060   0.898   4.296  0.0399  0.6682 -0.1407
  931MOL0     O25580   2.956   0.807   4.319  0.3241  0.0264 -0.6197
  931MOL0     C25581   2.839   0.808   4.248  0.2786 -0.4211 -0.4176
  931MOL0     C25582   2.767   0.920   4.250  0.0935 -0.7294  0.1707
  931MOL0     C25583   2.643   0.923   4.191  0.8935  0.1531 -0.6614
  931MOL0     C25584   2.597   0.816   4.126 -0.6141  0.3406 -0.1774
  931MOL0     O25585   2.473   0.829   4.078 -0.1087  0.1406  0.3195
  931MOL0     C25586   2.429   0.764   3.952  0.7069 -0.3868 -0.0941
  931MOL0     C25587   2.294   0.819   3.919  0.2966 -0.4794 -0.4621
  931MOL0     C25588   2.299   0.974   3.885 -0.2555  0.3491  0.2700
  931MOL0     C25589   2.157   1.024   3.854  0.6105 -0.0498 -0.4547
  931MOL0     C25590   2.136   1.179   3.856  0.0815 -0.6717  0.1156
  931MOL0     C25591   2.021   1.218   3.769  0.5613 -0.3052  1.1313
  931MOL0     C25592   1.880   1.153   3.807  0.3809  0.0468  0.0589
  931MOL0     C25593   1.768   1.232   3.739  0.3521  0.1064 -0.6084
  931MOL0    Cl25594   1.784   1.243   3.556  0.1681 -0.0586 -0.2636
  931MOL0     C25595   2.668   0.694   4.122  0.4464 -0.7003 -0.6962
  931MOL0     C25596   2.798   0.689   4.190  0.3879 -0.2131 -0.3110
  931MOL0     O25597   3.076   0.953   4.190 -0.4545 -0.4168 -0.5047
  931MOL0     C25598   3.266   0.999   4.390 -0.2630  1.4545  0.5669
  931MOL0     C25599   3.361   1.014   4.493  0.0778 -0.3939  0.4112
  931MOL0     N25600   3.651   1.508   4.793  0.1065 -0.1614  0.0577
  931MOL0     N25601   3.741   1.600   4.773 -0.7935 -0.3716 -0.7388
  931MOL0     C25602   4.860   1.682   4.310  0.4953  1.0470 -0.4743
  931MOL0     C25603   4.998   1.657   4.348  0.6007 -0.5641  0.6247
  931MOL0     C25604   5.411   1.487   4.291 -0.5833  0.4987 -0.4735
  931MOL0     C25605   5.479   1.430   4.189 -0.2927  1.0522  0.9634
  931MOL0     C25606   5.616   1.408   4.189  0.0666  0.0876 -0.3536
  931MOL0     C25607   5.694   1.461   4.290  0.2848  0.7052 -1.0727
  931MOL0     O25608   5.828   1.461   4.294 -0.3308 -0.1144 -0.9042
  931MOL0     C25609   5.914   1.377   4.220 -0.6447 -0.1435  0.1220
  931MOL0     C25610   6.056   1.421   4.255  0.3043 -0.5283 -0.0712
  931MOL0     C25611   6.161   1.313   4.210 -0.6934 -0.0481 -0.2378
  931MOL0     C25612   6.311   1.346   4.248 -0.4740 -0.2469  0.2794
  931MOL0     C25613   6.389   1.238   4.189  0.1035  0.6237 -0.0564
  931MOL0     C25614   6.470   1.162   4.147  0.6336  0.2019 -0.0626
  931MOL0     C25615   5.631   1.529   4.398  0.6547  0.3406  0.0714
  931MOL0     C25616   5.486   1.535   4.407  0.1792  0.1310  0.0132
  931MOL0     C25617   5.414   1.605   4.510  0.3936  0.2239  0.3462
  931MOL0     H25618   5.137   1.726   4.054 -0.0644 -1.3872  0.1540
  931MOL0     H25619   4.908   1.781   3.995  1.6953  0.9735 -1.6080
  931MOL0     H25620   4.561   1.618   4.245  1.0851 -0.7357 -0.0926
  931MOL0     H25621   4.611   1.769   4.326  0.6340  2.6599 -1.1739
  931MOL0     H25622   4.453   1.780   4.056 -1.0287  2.1880  0.2636
  931MOL0     H25623   4.492   1.894   4.165  2.1055 -1.1088 -0.2009
  931MOL0     H25624   4.283   1.676   4.164  0.4124  0.0431 -2.2338
  931MOL0     H25625   4.253   1.844   4.212  1.6066  0.9445  1.2393
  931MOL0     H25626   4.387   1.623   4.372  2.0324  1.2907 -4.8471
  931MOL0     H25627   4.364   1.785   4.450  0.0780  0.8833 -1.2044
  931MOL0     H25628   4.145   1.584   4.362 -1.6566 -0.0467  0.7027
  931MOL0     H25629   4.213   1.611   4.520  2.0579 -0.6818 -1.4590
  931MOL0     H25630   4.109   1.852   4.501  0.6653  0.1020  1.2181
  931MOL0     H25631   4.039   1.811   4.348 -0.2083  2.1643  1.8143
  931MOL0     H25632   3.920   1.631   4.430  1.5813  0.6664 -1.5369
  931MOL0     H25633   3.868   1.782   4.502 -1.7327 -0.6876 -2.3478
  931MOL0     H25634   4.034   1.561   4.628 -1.0088 -1.8373  0.6615
  931MOL0     H25635   3.975   1.707   4.721 -1.7584  1.2559 -0.7089
  931MOL0     H25636   3.833   1.400   4.538 -2.7431 -3.0679 -0.1862
  931MOL0     H25637   3.493   1.323   4.694 -0.7029 -0.6505 -0.3817
  931MOL0     H25638   3.608   1.263   4.578 -2.3473 -0.9106  0.4240
  931MOL0     H25639   3.693   1.114   4.714 -0.4221  1.8602 -2.6464
  931MOL0     H25640   3.714   1.232   4.846 -0.2649 -0.2280  1.3432
  931MOL0     H25641   3.507   1.211   4.933 -0.2542  0.0157  0.0675
  931MOL0     H25642   3.579   1.049   4.930 -1.5940 -1.6647 -1.3038
  931MOL0     H25643   3.360   1.162   4.772  1.1131 -0.0698 -1.3470
  931MOL0     H25644   3.344   1.030   4.896  2.0938 -0.0953  1.8662
  931MOL0     H25645   3.205   0.833   4.737  2.8165 -0.1758  1.3357
  931MOL0     H25646   3.058   0.787   4.548  0.0786 -0.7743  1.5520
  931MOL0     H25647   2.812   1.005   4.301 -3.5867  0.7157  1.4086
  931MOL0     H25648   2.583   1.012   4.187 -0.4080 -0.4996  2.1072
  931MOL0     H25649   2.503   0.780   3.872  0.8677  0.9041  0.2859
  931MOL0     H25650   2.417   0.656   3.963  3.5870 -0.5418  3.8911
  931MOL0     H25651   2.250   0.767   3.834  1.5367  1.9755 -2.7715
  931MOL0     H25652   2.237   0.812   4.012 -0.9033  0.4285 -1.1082
  931MOL0     H25653   2.329   1.036   3.970 -2.2700  1.3488  0.3294
  931MOL0     H25654   2.360   0.988   3.796  0.2568 -1.5116  0.2792
  931MOL0     H25655   2.092   0.978   3.929 -0.0491  0.0180 -0.9687
  931MOL0     H25656   2.110   0.997   3.758 -2.5572 -0.2275  1.0163
  931MOL0     H25657   2.220   1.230   3.808 -1.0671  0.4935 -0.6862
  931MOL0     H25658   2.114   1.207   3.959 -3.2853  0.0637 -0.7056
  931MOL0     H25659   2.012   1.327   3.755  3.3488 -0.2615 -1.2625
  931MOL0     H25660   2.055   1.179   3.672 -2.4330 -1.8446  0.5828
  931MOL0     H25661   1.864   1.153   3.915 -1.6634  1.4389 -0.2064
  931MOL0     H25662   1.884   1.047   3.777  0.6605  0.2802 -0.7693
  931MOL0     H25663   1.672   1.178   3.745 -1.1656  2.6085 -0.9284
  931MOL0     H25664   1.761   1.329   3.787  1.0034  0.7082 -1.6964
  931MOL0     H25665   2.637   0.598   4.081  3.8597 -1.5344 -1.6238
  931MOL0     H25666   2.871   0.610   4.186  2.1507  1.2698  0.6427
  931MOL0     H25667   3.281   1.046   4.293  1.5744 -0.1138  0.0308
  931MOL0     H25668   3.456   1.061   4.470 -0.1936 -0.3413 -0.6474
  931MOL0     H25669   4.785   1.664   4.386  0.1672 -2.4925 -1.4687
  931MOL0     H25670   5.007   1.634   4.453  1.7849 -1.7520  0.2871
  931MOL0     H25671   5.428   1.395   4.100  2.2961 -0.4698 -0.0152
  931MOL0     H25672   5.662   1.351   4.109  1.4489  2.2062 -1.1579
  931MOL0     H25673   5.886   1.377   4.115  2.0252  0.4862 -0.6660
  931MOL0     H25674   5.903   1.277   4.262  1.1117  0.5927  2.5946
  931MOL0     H25675   6.064   1.436   4.363 -0.9960  1.6238 -0.2024
  931MOL0     H25676   6.074   1.520   4.210  0.4566 -0.2013  0.6917
  931MOL0     H25677   6.159   1.297   4.102 -2.2182 -2.3062  0.0670
  931MOL0     H25678   6.135   1.217   4.255 -1.5293  0.5063  0.4941
  931MOL0     H25679   6.353   1.427   4.187  3.8744 -0.7829  2.2000
  931MOL0     H25680   6.334   1.364   4.353 -4.9174 -2.1854  1.8430
  931MOL0     H25681   6.543   1.102   4.098 -0.9057 -0.8871 -1.1263
  931MOL0     H25682   5.679   1.565   4.488 -1.5229 -0.7250  1.7559
  931MOL0     H25683   5.391   1.706   4.474  1.1977 -0.0400 -0.9544
  931MOL0     H25684   5.315   1.561   4.527 -0.5649  1.0838 -2.4772
  931MOL0     H25685   5.477   1.599   4.599  0.8021 -2.1054 -0.0409
  932MOL0     O25686   0.530   9.494   8.308  0.1042  0.2906 -0.0515
  932MOL0     C25687   0.510   9.557   8.205 -0.7816 -0.1971 -0.1350
  932MOL0     O25688   0.443   9.520   8.095  0.1058  0.2819 -0.1343
  932MOL0     C25689   0.413   9.390   8.086  0.4059 -0.8307 -0.8863
  932MOL0     C25690   0.449   9.337   7.970  0.4458 -0.2698  0.2819
  932MOL0     C25691   0.429   9.203   7.941  0.6228 -0.6816  0.3769
  932MOL0     C25692   0.342   9.125   8.020  1.4288 -0.4848  0.5171
  932MOL0     O25693   0.307   9.005   7.964 -0.0360 -0.0267  0.2438
  932MOL0     C25694   0.254   8.911   8.060 -0.6426  0.0667 -0.6088
  932MOL0     C25695   0.257   8.772   7.985 -0.4404 -0.2786 -0.5521
  932MOL0     C25696   0.138   8.757   7.892 -0.1491  0.8423  0.4481
  932MOL0     C25697   0.125   8.611   7.838  0.0949  0.7094  0.1856
  932MOL0     C25698  -0.011   8.585   7.757 -0.4388 -0.1284  0.1877
  932MOL0     C25699  -0.047   8.698   7.658 -0.7338  0.0216 -0.2503
  932MOL0     C25700   0.042   8.724   7.542  1.5543  0.0939 -0.0356
  932MOL0     C25701  -0.010   8.844   7.470  0.5873 -0.4571 -0.0602
  932MOL0     N25702   0.078   8.877   7.360 -0.2365  0.2288  0.0688
  932MOL0     C25703   0.168   8.985   7.356  0.2689 -0.8479  0.3735
  932MOL0     C25704   0.232   8.948   7.243  0.1214 -0.8283 -1.2045
  932MOL0     C25705   0.348   9.017   7.171 -0.2021 -0.3705 -0.2297
  932MOL0     C25706   0.290   9.093   7.051  0.5470 -0.4882 -0.3336
  932MOL0     C25707   0.395   9.184   6.983 -0.0432  0.3727 -0.9341
  932MOL0     C25708   0.458   9.298   7.071  0.5040  0.2599 -0.3014
  932MOL0     O25709   0.594   9.266   7.103 -0.1167  0.2675  0.5412
  932MOL0     C25710   0.665   9.370   7.147 -0.2973  0.4551 -0.3147
  932MOL0     C25711   0.804   9.350   7.137  0.0661  0.5319  0.2933
  932MOL0     C25712   0.889   9.455   7.172 -0.2727  0.7610 -0.3628
  932MOL0     C25713   0.847   9.567   7.250 -0.2044 -0.1381 -0.0576
  932MOL0     C25714   0.949   9.658   7.319  0.5040  0.0342  0.1122
  932MOL0     O25715   1.065   9.599   7.353  0.0943 -0.7351  0.5535
  932MOL0     C25716   1.149   9.682   7.424 -0.3553 -2.0053  0.2142
  932MOL0     C25717   1.148   9.661   7.562 -1.1925  0.4285  0.5463
  932MOL0     C25718   1.247   9.723   7.641  0.5866  0.0510  0.5196
  932MOL0     C25719   1.339   9.816   7.587 -0.5019  0.4311  0.5657
  932MOL0     O25720   1.437   9.889   7.663  0.4793  0.8492  0.3329
  932MOL0     C25721   1.455   9.863   7.802  0.1743 -0.5160  0.3131
  932MOL0     C25722   1.590   9.932   7.837 -0.3356 -0.2955 -0.8338
  932MOL0     C25723   1.594  10.082   7.836  0.0859  0.3744 -0.5260
  932MOL0     C25724   1.599  10.136   7.975 -0.0817  0.1769  0.0586
  932MOL0     C25725   1.528  10.270   8.001 -0.7555  0.6710 -0.1529
  932MOL0     C25726   1.619  10.388   7.982 -0.1658 -0.1340 -0.1446
  932MOL0     C25727   1.546  10.519   8.048  0.1745  0.4321  0.1783
  932MOL0     C25728   1.636  10.637   8.092 -0.0934 -0.2932 -0.1127
  932MOL0    Cl25729   1.731  10.690   7.960 -0.1705 -0.1869 -0.0990
  932MOL0     C25730   1.344   9.824   7.444  0.5815 -0.3091  0.5215
  932MOL0     C25731   1.249   9.761   7.362  0.7662  0.5032 -0.1396
  932MOL0     O25732   0.909   9.768   7.352  0.2892 -1.2686  0.9593
  932MOL0     C25733   0.706   9.584   7.258 -0.0178  0.9733  0.1394
  932MOL0     C25734   0.615   9.490   7.207  0.7271 -0.8885  0.5672
  932MOL0     N25735   0.167   8.843   7.175  0.0583  0.0899 -0.3090
  932MOL0     N25736   0.064   8.800   7.244  0.2806 -0.5180  0.9664
  932MOL0     C25737   0.288   9.183   8.142  0.4966  0.6604 -0.2843
  932MOL0     C25738   0.339   9.306   8.178 -0.3543 -0.0805  0.1160
  932MOL0     C25739   0.575   9.689   8.200  0.9274 -1.2941 -0.3417
  932MOL0     C25740   0.500   9.789   8.132  0.0484  0.6180  0.0620
  932MOL0     C25741   0.549   9.920   8.117  0.1585 -0.5856  0.1481
  932MOL0     C25742   0.667   9.948   8.169 -0.2686  0.2240  0.2238
  932MOL0     O25743   0.711  10.074   8.145 -0.4801  0.4703  0.6630
  932MOL0     C25744   0.801  10.130   8.247 -0.7197  0.3980 -0.0827
  932MOL0     C25745   0.815  10.286   8.223 -0.5993 -0.4029  1.0942
  932MOL0     C25746   0.937  10.354   8.294  0.1160 -0.5492  0.0867
  932MOL0     C25747   1.059  10.261   8.311  0.4916 -0.2132  0.8056
  932MOL0     C25748   1.125  10.229   8.179  0.1023  0.8061  0.8571
  932MOL0     C25749   1.193  10.214   8.078 -0.4199 -0.3896  0.7598
  932MOL0     C25750   0.743   9.853   8.238 -0.0082 -0.9485 -0.4921
  932MOL0     C25751   0.696   9.725   8.269 -0.5988  0.1140  0.3278
  932MOL0     C25752   0.784   9.629   8.347 -0.6989 -1.0981  0.3664
  932MOL0     H25753   0.493   9.395   7.889 -1.1102 -1.3498 -1.4369
  932MOL0     H25754   0.483   9.170   7.853 -1.9811  3.7964 -3.3696
  932MOL0     H25755   0.314   8.902   8.150  1.1467  2.0068 -1.5243
  932MOL0     H25756   0.155   8.943   8.094 -0.8213 -2.5528  1.7384
  932MOL0     H25757   0.253   8.700   8.066  2.7004  1.0500  0.9638
  932MOL0     H25758   0.348   8.774   7.924 -0.6378  3.3354 -0.9526
  932MOL0     H25759   0.143   8.820   7.802  1.3418  0.1649  0.0370
  932MOL0     H25760   0.046   8.781   7.946 -0.2578  1.8219 -0.1477
  932MOL0     H25761   0.213   8.597   7.775 -1.7212 -0.6638 -2.2260
  932MOL0     H25762   0.131   8.534   7.917  0.0982  1.4062  0.8792
  932MOL0     H25763  -0.001   8.499   7.689  2.9990  0.5325 -0.3614
  932MOL0     H25764  -0.088   8.572   7.833  0.7862  1.4348  1.7863
  932MOL0     H25765  -0.143   8.673   7.610 -0.3859  1.7585 -1.9521
  932MOL0     H25766  -0.049   8.789   7.718 -1.0699 -0.3103  0.2495
  932MOL0     H25767   0.052   8.639   7.473 -1.3466 -0.5492  0.2114
  932MOL0     H25768   0.139   8.751   7.584  1.5443 -0.2638  0.2219
  932MOL0     H25769  -0.104   8.822   7.420 -0.2579  2.1337  0.2348
  932MOL0     H25770  -0.037   8.933   7.527 -1.0453 -0.6641 -0.4764
  932MOL0     H25771   0.190   9.068   7.423  3.2849  0.5814 -2.1243
  932MOL0     H25772   0.404   9.083   7.238  3.8436 -3.2177 -0.4706
  932MOL0     H25773   0.423   8.944   7.140  5.7492  3.9186  2.1343
  932MOL0     H25774   0.251   9.022   6.978  2.0602 -2.5511  0.7536
  932MOL0     H25775   0.206   9.156   7.081 -1.5209 -2.2915 -2.0937
  932MOL0     H25776   0.341   9.231   6.900 -0.5967  0.7233 -0.3884
  932MOL0     H25777   0.463   9.108   6.942  0.1534 -1.0764  1.8399
  932MOL0     H25778   0.402   9.324   7.161  2.8347  0.9608  1.0298
  932MOL0     H25779   0.459   9.388   7.009 -1.7098  0.3760 -0.2355
  932MOL0     H25780   0.849   9.261   7.095 -2.8551 -1.2118  0.6134
  932MOL0     H25781   0.993   9.455   7.141 -0.4332  3.4433 -1.1787
  932MOL0     H25782   1.082   9.596   7.620  0.7145 -1.5619  0.6525
  932MOL0     H25783   1.259   9.700   7.746  1.4704 -1.7644  0.0622
  932MOL0     H25784   1.363   9.896   7.852 -0.1064 -1.4126  0.4069
  932MOL0     H25785   1.467   9.755   7.807  0.9506 -0.5883 -1.8909
  932MOL0     H25786   1.628   9.908   7.937 -2.5554  2.0913  0.7091
  932MOL0     H25787   1.673   9.896   7.776  0.6557  1.4549 -0.5776
  932MOL0     H25788   1.679  10.119   7.778  0.2124 -1.3443 -1.5055
  932MOL0     H25789   1.501  10.118   7.791 -0.0675 -0.1889 -0.6717
  932MOL0     H25790   1.703  10.143   8.009  0.0693 -1.1753 -0.0530
  932MOL0     H25791   1.553  10.073   8.052 -0.6137 -1.5382 -1.5739
  932MOL0     H25792   1.494  10.268   8.105 -1.0202 -0.6062 -0.2496
  932MOL0     H25793   1.444  10.296   7.937 -1.4941 -2.3657 -0.5681
  932MOL0     H25794   1.706  10.361   8.043  0.9433  0.7101 -1.3006
  932MOL0     H25795   1.661  10.394   7.881  0.0221 -0.0560 -0.0629
  932MOL0     H25796   1.495  10.490   8.141  2.5070 -1.5151  0.9370
  932MOL0     H25797   1.469  10.559   7.981 -1.7749 -0.1351  1.9582
  932MOL0     H25798   1.572  10.711   8.142  1.0431  1.4248 -1.1165
  932MOL0     H25799   1.707  10.607   8.170 -1.6602 -1.1619  1.0508
  932MOL0     H25800   1.428   9.885   7.412 -0.0044 -0.0424 -0.5452
  932MOL0     H25801   1.263   9.768   7.255 -1.2448  0.7818 -0.4261
  932MOL0     H25802   0.671   9.676   7.303 -2.0915  1.3916 -2.1440
  932MOL0     H25803   0.509   9.512   7.214  0.3302 -3.0149  2.4791
  932MOL0     H25804   0.218   9.133   8.208 -0.4243 -1.6326 -2.8018
  932MOL0     H25805   0.301   9.342   8.273 -1.4218 -0.7064 -0.0455
  932MOL0     H25806   0.399   9.767   8.099 -0.3671  2.3680  0.0638
  932MOL0     H25807   0.492   9.997   8.065  1.0665  1.8882  2.6084
  932MOL0     H25808   0.894  10.075   8.233 -0.7751  0.6544 -1.6378
  932MOL0     H25809   0.763  10.126   8.349  0.7058  0.1901  0.4570
  932MOL0     H25810   0.714  10.325   8.244 -1.6012 -0.6781 -2.4946
  932MOL0     H25811   0.830  10.301   8.116 -1.0237  1.7714  1.2954
  932MOL0     H25812   0.890  10.391   8.386 -3.0535 -1.0516 -1.1869
  932MOL0     H25813   0.967  10.445   8.241  0.7716 -0.4544  0.6071
  932MOL0     H25814   1.127  10.319   8.375 -1.7169  1.7475  1.4935
  932MOL0     H25815   1.026  10.173   8.366 -2.3562  1.9482  2.8584
  932MOL0     H25816   1.250  10.204   7.988  0.9954  4.0889  0.8889
  932MOL0     H25817   0.838   9.880   8.283 -0.5604  2.8663 -1.3546
  932MOL0     H25818   0.736   9.538   8.386  2.1637 -1.6504  3.0283
  932MOL0     H25819   0.863   9.587   8.284 -1.0761  0.1455 -0.9690
  932MOL0     H25820   0.826   9.679   8.435 -0.4284 -0.5488 -0.0660
  933MOL0     O25821   7.095   0.101   8.459 -0.1301 -0.5212 -0.5903
  933MOL0     C25822   7.200   0.043   8.494  0.0539 -0.6751 -0.1438
  933MOL0     O25823   7.207  -0.009   8.617 -0.2860 -0.1636 -0.0415
  933MOL0     C25824   7.126   0.006   8.714  0.3564  0.4984 -0.7545
  933MOL0     C25825   7.007  -0.061   8.724  0.3846  0.2951 -0.0522
  933MOL0     C25826   6.921  -0.035   8.828 -0.1686  0.3405 -0.2883
  933MOL0     C25827   6.951   0.057   8.928  0.1519  0.0388 -0.2365
  933MOL0     O25828   6.854   0.066   9.031 -0.9209  0.4178 -0.0374
  933MOL0     C25829   6.871   0.176   9.119 -0.0923  0.3920  0.6515
  933MOL0     C25830   6.756   0.172   9.219  0.1596 -0.2373  0.1933
  933MOL0     C25831   6.622   0.164   9.158 -0.1914  0.4615 -0.4366
  933MOL0     C25832   6.514   0.185   9.262  0.1913  0.3781  0.0706
  933MOL0     C25833   6.380   0.172   9.189 -0.1617 -0.0087  0.2134
  933MOL0     C25834   6.258   0.192   9.287  0.8916 -0.2279  0.7092
  933MOL0     C25835   6.238   0.338   9.335 -0.3527  0.6966 -0.7178
  933MOL0     C25836   6.099   0.384   9.362 -0.4674 -0.2898  0.7853
  933MOL0     N25837   6.047   0.322   9.478  1.2169 -0.1571 -0.1294
  933MOL0     C25838   6.075   0.370   9.603  1.0796  0.2377  0.1229
  933MOL0     C25839   6.024   0.277   9.686  0.0420  0.9193  0.7107
  933MOL0     C25840   6.045   0.274   9.845  0.8281  0.4113  0.1090
  933MOL0     C25841   6.019   0.425   9.900  0.5109 -0.2623  0.3885
  933MOL0     C25842   6.015   0.421  10.055  0.0539 -0.5830  1.0126
  933MOL0     C25843   6.148   0.398  10.127  0.0876  0.8572  0.8466
  933MOL0     O25844   6.247   0.489  10.070 -0.2431  0.5537 -0.0197
  933MOL0     C25845   6.371   0.441  10.050 -0.3330  0.4325  0.2534
  933MOL0     C25846   6.399   0.299  10.014  0.1992 -0.0999 -0.0287
  933MOL0     C25847   6.534   0.267  10.002 -0.2152  0.1786  0.5157
  933MOL0     C25848   6.643   0.368  10.007  0.3653  0.7913 -0.5855
  933MOL0     C25849   6.785   0.333  10.025  0.3035  0.0312  0.1981
  933MOL0     O25850   6.869   0.438  10.028 -0.4197  0.1267  0.0397
  933MOL0     C25851   6.995   0.428  10.091  0.8802 -0.2624  0.2896
  933MOL0     C25852   7.012   0.386  10.219  0.9786  1.0081 -0.4060
  933MOL0     C25853   7.135   0.402  10.286  0.0485 -0.6607 -0.7736
  933MOL0     C25854   7.245   0.470  10.228 -0.3693 -0.6200 -0.0436
  933MOL0     O25855   7.356   0.488  10.295 -0.2458  0.0602 -0.0083
  933MOL0     C25856   7.403   0.375  10.371  0.5790  0.0736  0.2669
  933MOL0     C25857   7.439   0.414  10.515  0.1818  0.0094  0.7676
  933MOL0     C25858   7.325   0.479  10.607 -0.2051  0.4510  0.6510
  933MOL0     C25859   7.249   0.368  10.669 -0.0518 -0.3133 -0.7837
  933MOL0     C25860   7.146   0.428  10.773  0.7730 -0.5557 -0.5500
  933MOL0     C25861   7.047   0.326  10.826 -0.1961  0.6326  0.0593
  933MOL0     C25862   6.953   0.260  10.722  0.3903 -1.0881  0.2291
  933MOL0     C25863   6.804   0.288  10.727  0.4550 -0.4233  0.0642
  933MOL0    Cl25864   6.779   0.471  10.719 -0.1164 -0.6946  0.0966
  933MOL0     C25865   7.216   0.531  10.102 -0.1636  0.1943 -0.2238
  933MOL0     C25866   7.093   0.509  10.037  0.1620 -0.1576 -0.0719
  933MOL0     O25867   6.811   0.213  10.045  0.2920  0.2507 -0.8841
  933MOL0     C25868   6.611   0.500  10.027 -0.1007 -0.4685 -0.0053
  933MOL0     C25869   6.479   0.532  10.044  0.4992  0.6511 -1.0857
  933MOL0     N25870   5.966   0.180   9.604  0.6584  0.0960  0.0630
  933MOL0     N25871   5.987   0.202   9.483 -0.8033  0.2969  1.0701
  933MOL0     C25872   7.078   0.126   8.918  0.6669 -0.9147  1.0624
  933MOL0     C25873   7.161   0.101   8.810 -0.6135 -0.2233 -0.0591
  933MOL0     C25874   7.331   0.044   8.419 -0.3122  0.1978 -0.3026
  933MOL0     C25875   7.448  -0.003   8.487  0.7817  0.4726 -0.5710
  933MOL0     C25876   7.571  -0.017   8.426  0.2949  0.1774  0.0577
  933MOL0     C25877   7.575   0.020   8.295 -0.0902  0.4764 -0.0655
  933MOL0     O25878   7.681  -0.000   8.209 -0.3699 -0.4627  0.5295
  933MOL0     C25879   7.789  -0.093   8.242  0.3316 -0.7994 -0.0001
  933MOL0     C25880   7.750  -0.239   8.217  0.2575  0.2527  0.6011
  933MOL0     C25881   7.859  -0.340   8.169  0.1883  0.4180 -0.2804
  933MOL0     C25882   7.801  -0.479   8.159 -0.4243 -0.0584  0.0869
  933MOL0     C25883   7.728  -0.507   8.036  0.3974 -0.1962 -0.3314
  933MOL0     C25884   7.668  -0.531   7.937  0.8538  0.8635 -0.6209
  933MOL0     C25885   7.466   0.077   8.227  0.4594 -0.0521  0.2959
  933MOL0     C25886   7.341   0.088   8.287  0.3305 -1.2624  0.0439
  933MOL0     C25887   7.231   0.130   8.196 -0.0072  0.6907 -0.0552
  933MOL0     H25888   6.982  -0.130   8.644 -5.2722  1.1162  0.5866
  933MOL0     H25889   6.824  -0.083   8.831  0.2304 -0.9345 -3.6379
  933MOL0     H25890   6.973   0.185   9.158  1.3304 -0.4592 -2.5532
  933MOL0     H25891   6.855   0.269   9.064  0.5936  0.5880  0.7759
  933MOL0     H25892   6.760   0.271   9.265  0.6319  0.0490 -0.4491
  933MOL0     H25893   6.773   0.088   9.288 -0.3335 -2.3202 -2.0697
  933MOL0     H25894   6.618   0.061   9.122  3.2366  0.4842 -1.2623
  933MOL0     H25895   6.618   0.234   9.074 -1.1775 -1.2648 -1.8911
  933MOL0     H25896   6.515   0.109   9.341 -1.0645 -0.7936 -0.9795
  933MOL0     H25897   6.523   0.289   9.292 -0.5465  0.7697 -1.0269
  933MOL0     H25898   6.366   0.239   9.104 -1.7265  0.1494  0.5611
  933MOL0     H25899   6.363   0.069   9.154  0.4729 -1.2130  3.1662
  933MOL0     H25900   6.171   0.162   9.228  1.5585  0.8362 -0.8811
  933MOL0     H25901   6.268   0.123   9.371  0.8424  0.9171  1.6832
  933MOL0     H25902   6.284   0.405   9.262  3.5411  1.2732  1.9109
  933MOL0     H25903   6.300   0.345   9.426 -1.5653  5.6779  0.0631
  933MOL0     H25904   6.116   0.489   9.389 -0.2295 -0.5315  1.6124
  933MOL0     H25905   6.046   0.374   9.267  3.0119 -1.2396 -1.2199
  933MOL0     H25906   6.129   0.458   9.636 -0.4943 -0.2065  4.6493
  933MOL0     H25907   5.990   0.193   9.893  2.9124 -1.0001  0.2430
  933MOL0     H25908   6.150   0.253   9.869  0.4663 -0.1468  1.2784
  933MOL0     H25909   6.082   0.509   9.870  1.0788 -0.4454  1.0503
  933MOL0     H25910   5.918   0.447   9.866  0.3015  0.8595  1.6928
  933MOL0     H25911   5.936   0.350  10.081 -2.4776  0.9379 -1.9151
  933MOL0     H25912   5.983   0.517  10.096  0.6598 -0.2792  0.7880
  933MOL0     H25913   6.170   0.295  10.098 -1.6317  1.2438 -2.2653
  933MOL0     H25914   6.118   0.412  10.231 -0.5238 -0.7294  0.9052
  933MOL0     H25915   6.337   0.210  10.006  1.3226 -0.7113 -3.3669
  933MOL0     H25916   6.572   0.166   9.987  2.1147  0.7550  2.0069
  933MOL0     H25917   6.934   0.334  10.274  0.7492  3.7166  2.0370
  933MOL0     H25918   7.139   0.368  10.389  0.1778  0.2248 -0.4709
  933MOL0     H25919   7.342   0.284  10.375  0.5864 -0.0057 -1.0766
  933MOL0     H25920   7.495   0.332  10.332 -0.4247 -1.0159 -1.0121
  933MOL0     H25921   7.475   0.319  10.554  2.7471 -0.2059 -1.7575
  933MOL0     H25922   7.532   0.472  10.526  1.0613 -1.4989  1.5561
  933MOL0     H25923   7.371   0.534  10.690 -1.6455  0.4520  1.4805
  933MOL0     H25924   7.255   0.534  10.543  1.8499  1.6356 -0.6722
  933MOL0     H25925   7.315   0.301  10.725 -0.4025 -0.8794 -1.0319
  933MOL0     H25926   7.196   0.309  10.594  0.3477 -0.4981 -0.9243
  933MOL0     H25927   7.093   0.507  10.720  1.1349 -0.9086 -1.4550
  933MOL0     H25928   7.208   0.462  10.857  3.6249  1.1232 -3.1361
  933MOL0     H25929   7.101   0.245  10.876  0.3062  1.7006  1.3166
  933MOL0     H25930   6.989   0.366  10.911  1.0758  0.9381  0.8088
  933MOL0     H25931   6.970   0.152  10.728  0.2108 -1.0631  1.4589
  933MOL0     H25932   6.986   0.291  10.623 -1.4552 -2.5110 -0.9104
  933MOL0     H25933   6.758   0.239  10.640  0.2762 -1.0386  0.4964
  933MOL0     H25934   6.755   0.241  10.812 -1.4530  0.8250 -0.2728
  933MOL0     H25935   7.283   0.596  10.047  0.8565 -1.3654 -0.9112
  933MOL0     H25936   7.071   0.546   9.937 -0.0532  2.6695  0.9290
  933MOL0     H25937   6.684   0.580  10.038  0.0798 -0.5240 -0.7330
  933MOL0     H25938   6.457   0.635  10.070  0.2761 -0.0377  1.8286
  933MOL0     H25939   7.109   0.206   8.985  0.0743 -1.6575  2.2689
  933MOL0     H25940   7.254   0.156   8.805 -1.5632  1.3422 -1.9810
  933MOL0     H25941   7.445  -0.034   8.591 -0.1769  1.2506 -0.3473
  933MOL0     H25942   7.658  -0.058   8.477 -0.3092  0.0829  1.0358
  933MOL0     H25943   7.830  -0.081   8.343  0.4656 -2.6236  0.1861
  933MOL0     H25944   7.873  -0.068   8.177 -0.6658  1.3764 -0.5413
  933MOL0     H25945   7.672  -0.235   8.141  0.9192  3.3308 -0.0446
  933MOL0     H25946   7.706  -0.272   8.312 -2.4444 -0.9171 -0.9513
  933MOL0     H25947   7.949  -0.339   8.232 -1.5120 -0.2693  2.3105
  933MOL0     H25948   7.894  -0.301   8.073  0.1515  2.5955  0.5124
  933MOL0     H25949   7.891  -0.537   8.138  0.3874  1.7796 -2.0191
  933MOL0     H25950   7.742  -0.508   8.246 -0.6005  0.2524  0.0737
  933MOL0     H25951   7.623  -0.561   7.844  1.1591  0.2916 -0.5931
  933MOL0     H25952   7.468   0.095   8.120  0.7263 -2.4835 -0.1794
  933MOL0     H25953   7.274   0.165   8.102  2.4998  2.4565  1.6234
  933MOL0     H25954   7.173   0.039   8.181  0.8371 -0.1331  1.4722
  933MOL0     H25955   7.180   0.219   8.233 -2.0944  0.4285 -2.0823
  934MOL0     O25956   5.374   2.663   9.292 -0.0952  0.1091 -0.1393
  934MOL0     C25957   5.336   2.717   9.189 -0.4327  0.2079  0.0805
  934MOL0     O25958   5.367   2.842   9.140 -0.5306  0.5112 -1.4971
  934MOL0     C25959   5.450   2.926   9.210  0.5519  0.4619  0.0649
  934MOL0     C25960   5.407   3.024   9.296 -0.3299 -0.8195 -1.1793
  934MOL0     C25961   5.497   3.102   9.370 -0.4391  0.4377 -0.8478
  934MOL0     C25962   5.631   3.087   9.360  1.3907 -0.1899  0.6226
  934MOL0     O25963   5.719   3.155   9.431  0.1842 -0.1890  0.0681
  934MOL0     C25964   5.744   3.296   9.389 -0.2488  0.1217 -0.3135
  934MOL0     C25965   5.871   3.345   9.466  0.2997  0.6802 -0.5703
  934MOL0     C25966   5.918   3.471   9.401  0.3354  0.7276  0.3312
  934MOL0     C25967   6.056   3.526   9.435  0.2261 -0.4678  0.0005
  934MOL0     C25968   6.077   3.544   9.581 -0.2481  0.1322  0.1702
  934MOL0     C25969   6.225   3.532   9.619 -0.5744  0.1743  0.9237
  934MOL0     C25970   6.231   3.552   9.774  0.5165  0.6206  0.7788
  934MOL0     C25971   6.371   3.540   9.824  0.1632 -0.4734  0.0140
  934MOL0     N25972   6.463   3.628   9.747  0.1792 -0.2529 -0.0052
  934MOL0     C25973   6.548   3.581   9.653 -0.3777 -0.4373 -0.1624
  934MOL0     C25974   6.597   3.697   9.601  0.1683 -0.6175 -0.0311
  934MOL0     C25975   6.699   3.707   9.495  0.0197  0.1647  0.2878
  934MOL0     C25976   6.625   3.690   9.369  0.4988  0.9179  0.3444
  934MOL0     C25977   6.712   3.609   9.278  0.1311 -1.2412 -0.3568
  934MOL0     C25978   6.658   3.607   9.136  0.5283  0.4069  0.3813
  934MOL0     O25979   6.725   3.520   9.044  0.0643 -0.4428 -0.3795
  934MOL0     C25980   6.845   3.538   8.977 -0.3828 -0.5032 -0.5593
  934MOL0     C25981   6.921   3.655   8.979  1.1069  0.1768  1.1840
  934MOL0     C25982   7.045   3.647   8.913  0.0696  0.0741 -0.2658
  934MOL0     C25983   7.096   3.535   8.859  0.0021  0.2623 -0.2421
  934MOL0     C25984   7.235   3.538   8.807  0.2202  0.5066  0.4101
  934MOL0     O25985   7.305   3.421   8.812  0.1485  0.1294  0.0924
  934MOL0     C25986   7.409   3.407   8.723  0.0890 -0.1561  0.2799
  934MOL0     C25987   7.544   3.455   8.752 -0.3583  0.0350 -0.0883
  934MOL0     C25988   7.654   3.430   8.665  0.9506  0.6380  0.3163
  934MOL0     C25989   7.630   3.357   8.544  0.1450 -0.0529  0.5102
  934MOL0     O25990   7.737   3.335   8.463  0.4236  0.5353  0.1999
  934MOL0     C25991   7.712   3.356   8.327  0.0913  0.4356 -0.4901
  934MOL0     C25992   7.725   3.498   8.283 -0.9090 -0.4716 -0.4756
  934MOL0     C25993   7.842   3.571   8.347 -0.5773 -0.6048  0.9078
  934MOL0     C25994   7.857   3.712   8.281  0.0835  0.8016 -0.5438
  934MOL0     C25995   7.951   3.813   8.360  0.4202  0.1739  0.3596
  934MOL0     C25996   8.103   3.778   8.357 -0.6700  0.8739 -0.0673
  934MOL0     C25997   8.179   3.901   8.394 -0.1044  0.6974 -0.1262
  934MOL0     C25998   8.336   3.887   8.390 -0.0517  0.6785  0.4219
  934MOL0    Cl25999   8.410   4.028   8.475 -0.3359  0.2706 -0.0523
  934MOL0     C26000   7.496   3.318   8.513  1.0655  0.0313 -0.5909
  934MOL0     C26001   7.388   3.344   8.600 -0.4132 -0.3197 -0.4256
  934MOL0     O26002   7.281   3.638   8.754 -0.2985 -1.0003 -0.9570
  934MOL0     C26003   7.015   3.422   8.856 -0.3087  0.4648 -0.5778
  934MOL0     C26004   6.894   3.416   8.921 -0.3354 -0.7732 -0.2671
  934MOL0     N26005   6.535   3.808   9.661  0.4542 -0.3599  0.4739
  934MOL0     N26006   6.457   3.762   9.754 -0.0749 -0.8637 -0.5027
  934MOL0     C26007   5.676   2.989   9.277 -0.1052  0.1544  0.9549
  934MOL0     C26008   5.585   2.909   9.209 -0.5198 -0.6822  0.6124
  934MOL0     C26009   5.237   2.639   9.108 -0.2411 -0.9342 -0.2260
  934MOL0     C26010   5.191   2.710   9.001  0.2822  0.7016  0.2212
  934MOL0     C26011   5.110   2.657   8.902  0.6563 -0.1876 -0.1892
  934MOL0     C26012   5.052   2.529   8.922  0.1205 -0.4241 -0.1199
  934MOL0     O26013   4.982   2.457   8.835 -0.3472 -0.5345  0.1131
  934MOL0     C26014   5.001   2.494   8.692  1.1109 -0.5945 -0.1455
  934MOL0     C26015   4.949   2.389   8.601 -0.4481 -0.0605 -1.4301
  934MOL0     C26016   5.007   2.248   8.629 -0.0084  0.4822 -0.2310
  934MOL0     C26017   4.979   2.145   8.504 -0.3990  0.4558 -0.7790
  934MOL0     C26018   5.047   2.019   8.536 -0.2295 -0.4110  1.0378
  934MOL0     C26019   5.105   1.919   8.554  0.1241 -0.2129  0.3324
  934MOL0     C26020   5.100   2.459   9.036 -0.3238  0.1876 -0.1461
  934MOL0     C26021   5.194   2.506   9.133 -0.3927 -1.0465  1.0769
  934MOL0     C26022   5.234   2.416   9.245  0.1959  0.6788  0.2314
  934MOL0     H26023   5.303   3.053   9.287  0.2401  0.8283 -3.0911
  934MOL0     H26024   5.457   3.179   9.436 -1.4662 -1.0704  0.3508
  934MOL0     H26025   5.765   3.303   9.282 -0.5121 -1.9087 -0.5424
  934MOL0     H26026   5.662   3.356   9.431  0.3103 -1.3063  3.1644
  934MOL0     H26027   5.944   3.264   9.478  0.1922  0.7187  0.4784
  934MOL0     H26028   5.831   3.350   9.568 -1.3130  2.5265 -1.2161
  934MOL0     H26029   5.842   3.546   9.427 -0.1470  0.5430 -0.5060
  934MOL0     H26030   5.911   3.458   9.293 -2.1014  0.4056  0.4789
  934MOL0     H26031   6.129   3.459   9.388  1.6896  0.7059  0.5358
  934MOL0     H26032   6.060   3.622   9.384  0.9073  0.5699  1.9057
  934MOL0     H26033   6.020   3.628   9.624 -2.5547 -1.7770  1.0279
  934MOL0     H26034   6.019   3.465   9.628 -1.5387  1.2460  0.5320
  934MOL0     H26035   6.267   3.442   9.574 -0.5861 -0.0265  1.3081
  934MOL0     H26036   6.274   3.619   9.574 -1.5544  0.6149  0.6839
  934MOL0     H26037   6.167   3.481   9.827  1.4867 -0.0283  1.1025
  934MOL0     H26038   6.174   3.642   9.797 -0.9408 -0.8103  3.2224
  934MOL0     H26039   6.369   3.559   9.931 -0.7783  0.0285 -0.0863
  934MOL0     H26040   6.405   3.436   9.817  0.7337 -0.3867  1.2002
  934MOL0     H26041   6.588   3.480   9.649 -0.3018 -0.4092 -0.1008
  934MOL0     H26042   6.745   3.806   9.506  0.8539 -0.2910  1.0777
  934MOL0     H26043   6.777   3.631   9.505 -1.6096 -2.0825 -2.4514
  934MOL0     H26044   6.536   3.627   9.379  1.9446 -1.0364  1.6808
  934MOL0     H26045   6.594   3.788   9.332 -0.8267  0.3628 -0.0821
  934MOL0     H26046   6.722   3.508   9.320  1.4226 -0.4973  1.2372
  934MOL0     H26047   6.809   3.661   9.276 -1.4488  1.9838  0.2581
  934MOL0     H26048   6.645   3.707   9.095 -0.8960  0.4520  0.9129
  934MOL0     H26049   6.560   3.560   9.147 -0.0267  1.9089  2.1910
  934MOL0     H26050   6.877   3.738   9.032  1.5032  0.5826  0.8846
  934MOL0     H26051   7.092   3.745   8.905 -2.9506  1.5059 -3.2477
  934MOL0     H26052   7.581   3.503   8.842  0.2614  0.0505 -0.3386
  934MOL0     H26053   7.755   3.449   8.700  1.3255  0.3425 -0.5794
  934MOL0     H26054   7.791   3.300   8.274  1.2127 -0.8309  2.3206
  934MOL0     H26055   7.614   3.317   8.299 -0.9463  1.9536  0.8864
  934MOL0     H26056   7.725   3.498   8.174 -1.1942 -1.8893 -0.4970
  934MOL0     H26057   7.636   3.550   8.320  1.3211  2.3099  1.4899
  934MOL0     H26058   7.827   3.579   8.455  2.6498  0.8916  1.3717
  934MOL0     H26059   7.932   3.512   8.330 -2.6999 -3.2992 -2.4287
  934MOL0     H26060   7.758   3.756   8.265 -0.3180 -0.1683 -0.7847
  934MOL0     H26061   7.910   3.694   8.187  0.5858 -2.6710  0.2426
  934MOL0     H26062   7.928   3.818   8.467  2.3951 -0.6706  0.8678
  934MOL0     H26063   7.944   3.908   8.307 -0.6859  0.0262  0.2002
  934MOL0     H26064   8.119   3.702   8.434  1.7601 -0.9337 -2.2106
  934MOL0     H26065   8.135   3.748   8.257  0.4091 -0.3452  0.6186
  934MOL0     H26066   8.142   3.948   8.486 -0.4279  1.0961 -0.4509
  934MOL0     H26067   8.167   3.975   8.314 -0.1432  1.9869  1.0379
  934MOL0     H26068   8.362   3.795   8.443  2.8007 -0.0994 -2.0521
  934MOL0     H26069   8.380   3.871   8.291  1.7295 -0.3074  1.3206
  934MOL0     H26070   7.469   3.246   8.437  1.9420 -0.1826 -0.7184
  934MOL0     H26071   7.282   3.321   8.591 -0.1461 -1.2090 -1.5677
  934MOL0     H26072   7.061   3.343   8.796  4.1429  1.1947  1.4258
  934MOL0     H26073   6.831   3.329   8.927 -2.2550  0.6575  2.2877
  934MOL0     H26074   5.783   2.967   9.277  0.4339  2.4522 -0.1689
  934MOL0     H26075   5.624   2.823   9.156  0.8269  1.1467 -1.5290
  934MOL0     H26076   5.226   2.807   8.967  1.5504  0.2066  0.0864
  934MOL0     H26077   5.068   2.708   8.816 -0.4173  1.9524  1.5084
  934MOL0     H26078   5.105   2.518   8.670  0.8206 -0.5744 -1.6282
  934MOL0     H26079   4.945   2.585   8.668  0.2625 -1.5956 -2.2384
  934MOL0     H26080   4.963   2.417   8.496 -0.0415 -2.3515 -2.0500
  934MOL0     H26081   4.844   2.373   8.627  0.4356 -1.1752  1.9722
  934MOL0     H26082   4.956   2.208   8.717  1.1792 -3.4985 -1.1279
  934MOL0     H26083   5.114   2.269   8.639 -0.1556  1.2278 -0.1560
  934MOL0     H26084   4.871   2.143   8.485 -0.4121 -0.6508 -0.6581
  934MOL0     H26085   5.023   2.185   8.412 -0.1711  0.2203 -0.7725
  934MOL0     H26086   5.160   1.828   8.562 -2.2186 -1.7508 -0.2327
  934MOL0     H26087   5.058   2.361   9.057  2.0492 -0.8919 -0.1836
  934MOL0     H26088   5.205   2.456   9.343  0.3571  0.0820  0.5216
  934MOL0     H26089   5.184   2.320   9.233 -0.0846  1.0236 -1.7716
  934MOL0     H26090   5.342   2.403   9.246  0.5762  2.9599 -1.5741
  935MOL0     O26091   0.314   9.605   4.655  0.2304  0.4824  0.8891
  935MOL0     C26092   0.326   9.541   4.757  0.1648 -0.0115 -0.2917
  935MOL0     O26093   0.308   9.594   4.881 -0.2022  1.4697 -0.2005
  935MOL0     C26094   0.313   9.729   4.894 -0.0628  0.0856  0.0545
  935MOL0     C26095   0.408   9.781   4.991  0.0882  0.5352  0.7903
  935MOL0     C26096   0.410   9.916   5.006 -0.3328 -0.3116 -0.4244
  935MOL0     C26097   0.318  10.011   4.953 -1.2944 -0.3740 -0.0204
  935MOL0     O26098   0.336  10.146   4.958 -0.2195 -0.0001 -0.2206
  935MOL0     C26099   0.361  10.207   5.083  0.2787  0.1975  0.0208
  935MOL0     C26100   0.505  10.265   5.092  0.6636 -0.0844  1.0251
  935MOL0     C26101   0.569  10.312   4.957  0.4669  0.0826 -0.1289
  935MOL0     C26102   0.717  10.335   4.973  0.3402  0.7985 -0.4208
  935MOL0     C26103   0.763  10.457   4.907 -0.5814 -0.1980 -0.0017
  935MOL0     C26104   0.921  10.490   4.930  1.1165  0.3447 -0.2053
  935MOL0     C26105   0.961  10.610   4.850 -0.1156 -0.4456  0.6538
  935MOL0     C26106   1.102  10.673   4.881 -0.0474  0.0642 -0.4653
  935MOL0     N26107   1.213  10.579   4.859 -0.3142 -0.5125  0.1278
  935MOL0     C26108   1.240  10.541   4.737  0.1433 -1.0269  0.6395
  935MOL0     C26109   1.371  10.496   4.744 -0.1786  0.9201 -0.2524
  935MOL0     C26110   1.465  10.438   4.636 -0.5910 -0.0524  0.8212
  935MOL0     C26111   1.545  10.308   4.671  0.0100  0.0170 -0.0394
  935MOL0     C26112   1.466  10.177   4.667 -0.1781 -0.4795  0.2008
  935MOL0     C26113   1.344  10.182   4.757  0.9045 -0.1936  0.6026
  935MOL0     O26114   1.281  10.055   4.775  0.8368  0.3070 -0.4246
  935MOL0     C26115   1.172  10.036   4.859  0.5055 -0.6030  1.0372
  935MOL0     C26116   1.112   9.912   4.861  0.1970  0.6376 -0.3643
  935MOL0     C26117   1.006   9.890   4.946 -0.3104 -0.6171  0.8186
  935MOL0     C26118   0.956   9.987   5.034 -0.2027 -0.1178 -0.4827
  935MOL0     C26119   0.831   9.963   5.115  0.4018 -0.0811 -0.6423
  935MOL0     O26120   0.804  10.072   5.196 -0.0499  0.1108 -0.4179
  935MOL0     C26121   0.732  10.059   5.319 -1.0402 -0.5443  0.2819
  935MOL0     C26122   0.691   9.947   5.382  0.0273  0.6912  0.4382
  935MOL0     C26123   0.610   9.968   5.493  0.2182 -0.3256 -0.1403
  935MOL0     C26124   0.579  10.092   5.550  0.8273 -0.6650  0.0519
  935MOL0     O26125   0.504  10.097   5.667  0.4933 -0.2617  0.2520
  935MOL0     C26126   0.548  10.174   5.778  0.0829 -0.5270  0.4550
  935MOL0     C26127   0.437  10.178   5.877  0.3288 -0.0653  0.6004
  935MOL0     C26128   0.312  10.242   5.817 -0.1871  0.9748 -0.7292
  935MOL0     C26129   0.204  10.231   5.927  1.0433  0.1935 -0.0693
  935MOL0     C26130   0.088  10.315   5.873 -0.3872  0.7767 -0.0048
  935MOL0     C26131  -0.041  10.320   5.963  0.2957  0.7295  0.4678
  935MOL0     C26132  -0.123  10.188   5.984 -0.5993 -0.5023 -0.2136
  935MOL0     C26133  -0.114  10.137   6.126  0.2623  0.1113 -0.0238
  935MOL0    Cl26134  -0.204  10.244   6.238 -0.0561  0.2014 -0.3174
  935MOL0     C26135   0.630  10.207   5.478  0.6374  0.1233 -0.1233
  935MOL0     C26136   0.700  10.186   5.364 -0.0977 -0.9321 -1.0668
  935MOL0     O26137   0.765   9.862   5.101  0.4801  0.5717  0.8293
  935MOL0     C26138   1.025  10.112   5.031  0.3469  0.1315 -0.0391
  935MOL0     C26139   1.115  10.137   4.935  0.3390 -0.3569 -0.0331
  935MOL0     N26140   1.414  10.510   4.871  0.1299 -0.1180 -0.4206
  935MOL0     N26141   1.325  10.566   4.939  0.8642  0.9000  0.0690
  935MOL0     C26142   0.222   9.959   4.869 -0.9011  0.7003 -0.3845
  935MOL0     C26143   0.225   9.822   4.835  0.4731 -0.2793 -0.6479
  935MOL0     C26144   0.354   9.396   4.746  0.0617  0.3054 -0.1033
  935MOL0     C26145   0.338   9.310   4.862  0.0896 -0.4086  0.8279
  935MOL0     C26146   0.350   9.175   4.848 -0.3411  1.2228  0.6522
  935MOL0     C26147   0.402   9.109   4.733  0.4548 -1.3017 -0.1079
  935MOL0     O26148   0.437   8.981   4.723 -0.4990  0.1414  0.9482
  935MOL0     C26149   0.389   8.878   4.811  0.3437 -0.6951 -0.6179
  935MOL0     C26150   0.419   8.733   4.776  0.2081  0.6029 -0.6719
  935MOL0     C26151   0.558   8.703   4.730  1.7034 -0.0253  0.1143
  935MOL0     C26152   0.605   8.563   4.753  0.3074 -0.2875  0.1931
  935MOL0     C26153   0.729   8.534   4.675  0.2125  0.0054 -1.0889
  935MOL0     C26154   0.828   8.545   4.613  1.0942  0.2574  0.5467
  935MOL0     C26155   0.410   9.192   4.613  0.1730 -0.2702 -0.3774
  935MOL0     C26156   0.397   9.334   4.621 -0.0105  0.3720 -0.3052
  935MOL0     C26157   0.437   9.401   4.493 -0.7331 -0.0177 -0.0165
  935MOL0     H26158   0.479   9.711   5.034 -2.2899 -2.6117 -0.0195
  935MOL0     H26159   0.490   9.958   5.067 -0.1710  0.4230 -1.1133
  935MOL0     H26160   0.307  10.302   5.091  1.1377  0.6144  1.3023
  935MOL0     H26161   0.327  10.151   5.171 -0.8051 -0.7060 -0.9469
  935MOL0     H26162   0.573  10.192   5.138  0.3724  0.7333  2.8152
  935MOL0     H26163   0.510  10.342   5.170  0.6703 -1.9566  2.9811
  935MOL0     H26164   0.520  10.399   4.913 -2.3524 -1.4203 -0.1516
  935MOL0     H26165   0.550  10.230   4.887 -4.3848 -1.4631  2.5158
  935MOL0     H26166   0.748  10.329   5.077 -4.1640  1.1438  1.1466
  935MOL0     H26167   0.757  10.249   4.920  2.1802  1.2778  0.1329
  935MOL0     H26168   0.742  10.467   4.800  2.1397  0.0234 -0.5856
  935MOL0     H26169   0.710  10.542   4.951 -0.4910 -0.5989  0.9120
  935MOL0     H26170   0.940  10.505   5.037 -0.1909  3.0435 -0.2871
  935MOL0     H26171   0.972  10.399   4.898  0.8718 -0.6917  2.0922
  935MOL0     H26172   0.890  10.693   4.861  2.5239  2.2822 -1.1393
  935MOL0     H26173   0.970  10.594   4.742  2.9624  0.4697  0.6564
  935MOL0     H26174   1.134  10.760   4.823  3.3725 -0.8998 -0.2845
  935MOL0     H26175   1.102  10.712   4.983 -1.4749  1.4782 -0.9739
  935MOL0     H26176   1.162  10.539   4.662 -1.7716 -0.3409  2.4909
  935MOL0     H26177   1.403  10.423   4.547 -1.8000 -0.4749  1.7018
  935MOL0     H26178   1.533  10.522   4.626  0.5046 -0.7307  2.2775
  935MOL0     H26179   1.634  10.295   4.609  1.3169 -2.2570  2.0953
  935MOL0     H26180   1.585  10.328   4.771 -1.4792 -3.5241  1.4703
  935MOL0     H26181   1.532  10.102   4.713  0.1132  0.9272  2.2251
  935MOL0     H26182   1.442  10.145   4.565 -1.4452  1.0756 -0.0115
  935MOL0     H26183   1.260  10.236   4.714  0.4720 -0.4730  1.0884
  935MOL0     H26184   1.376  10.227   4.852  0.4345 -2.3837  1.8572
  935MOL0     H26185   1.148   9.828   4.802  1.4046  0.4466  0.5963
  935MOL0     H26186   0.957   9.794   4.930 -1.0711 -0.3726  1.5942
  935MOL0     H26187   0.729   9.849   5.353  0.1668  0.7928  0.2780
  935MOL0     H26188   0.571   9.879   5.541  2.0932 -0.5543  1.0791
  935MOL0     H26189   0.627  10.127   5.838  1.7122  1.3791 -0.0875
  935MOL0     H26190   0.590  10.273   5.756 -3.4238  0.7063 -1.3832
  935MOL0     H26191   0.410  10.076   5.905  0.7088 -1.1601 -2.5364
  935MOL0     H26192   0.465  10.222   5.973  1.2889 -0.4693  0.5166
  935MOL0     H26193   0.336  10.343   5.781  0.4018  1.0191 -0.2192
  935MOL0     H26194   0.290  10.182   5.728  0.3509 -0.2846 -0.0371
  935MOL0     H26195   0.232  10.258   6.029  2.1405  0.5762 -0.4550
  935MOL0     H26196   0.163  10.130   5.926  0.8103  0.2880 -0.0833
  935MOL0     H26197   0.060  10.280   5.773 -0.6812  0.2817  0.2438
  935MOL0     H26198   0.119  10.420   5.868 -1.5011  1.2233  1.6068
  935MOL0     H26199  -0.005  10.363   6.057  2.7206 -0.9775  0.3990
  935MOL0     H26200  -0.121  10.389   5.934 -1.0906 -1.0641 -0.1992
  935MOL0     H26201  -0.089  10.116   5.909 -0.9052 -1.1557  0.2624
  935MOL0     H26202  -0.230  10.203   5.967 -0.5547  1.4926  0.9572
  935MOL0     H26203  -0.158  10.037   6.125 -2.8126  1.3305 -2.6571
  935MOL0     H26204  -0.009  10.119   6.151 -0.2312 -1.7528  0.8136
  935MOL0     H26205   0.602  10.303   5.519 -3.6261 -1.3755  1.1024
  935MOL0     H26206   0.730  10.271   5.304  4.0183 -0.8803  0.6991
  935MOL0     H26207   0.988  10.195   5.091  0.1305 -0.3934  0.5620
  935MOL0     H26208   1.158  10.237   4.935 -2.2431  0.8651 -1.1633
  935MOL0     H26209   0.148  10.016   4.813 -1.0755 -1.6947 -2.7909
  935MOL0     H26210   0.159   9.793   4.754 -1.8175  1.1169  0.5963
  935MOL0     H26211   0.300   9.356   4.953 -4.5528 -1.3791 -0.3935
  935MOL0     H26212   0.322   9.112   4.932  0.8411 -0.3923 -0.1249
  935MOL0     H26213   0.281   8.892   4.819  0.1630 -1.7971 -0.9571
  935MOL0     H26214   0.443   8.902   4.903  0.1020 -2.0375 -0.1094
  935MOL0     H26215   0.348   8.693   4.703 -3.6153 -0.6270  3.2955
  935MOL0     H26216   0.398   8.677   4.867  1.5667  1.2876  0.0963
  935MOL0     H26217   0.630   8.770   4.778  0.7240 -0.8513  2.9025
  935MOL0     H26218   0.562   8.738   4.626 -0.5951 -0.8897 -0.3169
  935MOL0     H26219   0.617   8.549   4.861 -0.8497  0.5228  0.4412
  935MOL0     H26220   0.523   8.496   4.723  0.5940  0.3900 -2.3165
  935MOL0     H26221   0.919   8.546   4.556  0.2770 -0.8794 -0.8695
  935MOL0     H26222   0.439   9.150   4.517  1.7275  0.2327 -0.1508
  935MOL0     H26223   0.506   9.484   4.508  0.1734 -0.7340 -0.1209
  935MOL0     H26224   0.499   9.330   4.437  3.0089  1.1039  2.3737
  935MOL0     H26225   0.356   9.424   4.423  0.6530 -0.3415 -1.7874
  936MOL0     O26226   6.678   1.242   3.908 -0.2273 -0.4295  0.0072
  936MOL0     C26227   6.678   1.262   3.787 -0.4714  0.1961  0.1950
  936MOL0     O26228   6.699   1.170   3.689  0.1319 -0.2524 -0.5778
  936MOL0     C26229   6.747   1.048   3.729  0.3826 -0.8029 -0.2097
  936MOL0     C26230   6.871   1.002   3.698 -1.7579  0.0119 -0.0836
  936MOL0     C26231   6.910   0.875   3.729  0.2624 -0.4331 -0.0391
  936MOL0     C26232   6.828   0.796   3.802  0.4201 -0.3568  0.1045
  936MOL0     O26233   6.864   0.668   3.835 -0.1321  0.1200  0.2606
  936MOL0     C26234   6.961   0.665   3.939  0.6671  0.8536  0.1022
  936MOL0     C26235   6.876   0.592   4.050 -0.0599  0.1142  0.4362
  936MOL0     C26236   6.750   0.663   4.110 -0.3440 -0.9975 -1.3489
  936MOL0     C26237   6.713   0.587   4.238 -0.4428  0.1501 -0.6875
  936MOL0     C26238   6.585   0.633   4.301 -0.5279  0.0532 -0.2312
  936MOL0     C26239   6.581   0.777   4.352 -1.1157 -0.1121 -0.2958
  936MOL0     C26240   6.440   0.842   4.325  0.0113  0.6448  1.4574
  936MOL0     C26241   6.328   0.792   4.415  0.5151  0.2881  0.7568
  936MOL0     N26242   6.349   0.815   4.554 -0.3519  0.4479  0.3812
  936MOL0     C26243   6.391   0.722   4.647  0.7681  0.7886  0.8506
  936MOL0     C26244   6.426   0.795   4.758 -0.0256  0.2409  1.3455
  936MOL0     C26245   6.461   0.737   4.902  0.2669 -0.4879 -0.0528
  936MOL0     C26246   6.601   0.683   4.924  0.5136 -0.6330  0.0857
  936MOL0     C26247   6.621   0.570   4.817  0.9588 -0.7824 -0.2425
  936MOL0     C26248   6.760   0.511   4.845 -0.6689  0.5141 -0.5962
  936MOL0     O26249   6.863   0.607   4.804  0.1770  0.1518  0.6869
  936MOL0     C26250   6.957   0.588   4.697 -0.5845  0.7484 -0.1627
  936MOL0     C26251   7.014   0.466   4.672  0.5865 -0.4444  0.1382
  936MOL0     C26252   7.117   0.450   4.574  0.2419  0.3320  0.9789
  936MOL0     C26253   7.163   0.567   4.498 -0.0696  0.8384  0.4962
  936MOL0     C26254   7.273   0.557   4.399  0.1747  0.3528 -0.3100
  936MOL0     O26255   7.341   0.439   4.385 -0.6450  0.3610  0.4197
  936MOL0     C26256   7.454   0.436   4.304 -0.5446 -0.5637  0.3987
  936MOL0     C26257   7.486   0.317   4.252 -0.1658  0.3260  0.5278
  936MOL0     C26258   7.605   0.290   4.189 -1.0969 -0.8026  0.7270
  936MOL0     C26259   7.693   0.392   4.158 -0.8659 -0.4042  0.5563
  936MOL0     O26260   7.806   0.368   4.085  0.3689  0.1452 -0.5779
  936MOL0     C26261   7.879   0.475   4.038  0.2641  0.2274  0.7201
  936MOL0     C26262   7.989   0.406   3.947 -1.0316 -0.1312 -0.3318
  936MOL0     C26263   7.923   0.354   3.825  0.1489 -0.5819  0.1014
  936MOL0     C26264   7.930   0.454   3.697  0.1403  0.6378 -0.7076
  936MOL0     C26265   7.876   0.400   3.556 -1.2790 -0.5034 -0.0856
  936MOL0     C26266   7.731   0.348   3.573  0.4253 -0.2519  0.1300
  936MOL0     C26267   7.688   0.255   3.459  0.1740 -0.3708  0.1169
  936MOL0     C26268   7.561   0.176   3.494 -0.2455  0.7083  0.4145
  936MOL0    Cl26269   7.417   0.276   3.513 -0.3075  0.0295 -0.1112
  936MOL0     C26270   7.658   0.523   4.206 -0.6658 -0.2657  0.3125
  936MOL0     C26271   7.544   0.544   4.284  1.0912  0.8512 -0.9955
  936MOL0     O26272   7.284   0.663   4.333  0.8816  0.1127  0.5546
  936MOL0     C26273   7.095   0.690   4.524 -0.2751 -1.0348  0.3460
  936MOL0     C26274   6.999   0.701   4.627  0.7108 -1.3913 -0.0915
  936MOL0     N26275   6.416   0.932   4.730  0.1912  0.3914 -0.4354
  936MOL0     N26276   6.356   0.935   4.619  0.0923 -0.3302 -0.2325
  936MOL0     C26277   6.694   0.841   3.821  0.2844  0.2799  0.3831
  936MOL0     C26278   6.653   0.969   3.786  0.6547  0.2827 -1.1674
  936MOL0     C26279   6.648   1.407   3.743 -0.4970  0.5479 -0.4078
  936MOL0     C26280   6.724   1.453   3.634  0.3508 -0.4198  0.5233
  936MOL0     C26281   6.702   1.589   3.602 -0.0222  0.4838 -0.3376
  936MOL0     C26282   6.611   1.681   3.663 -0.1427  0.4542 -0.3499
  936MOL0     O26283   6.612   1.813   3.626  0.1342 -0.4181  0.1541
  936MOL0     C26284   6.554   1.915   3.714 -0.1131  0.2161 -0.0567
  936MOL0     C26285   6.421   1.965   3.663 -0.1807  0.4769  0.3206
  936MOL0     C26286   6.445   2.068   3.549 -0.3004 -1.0951 -0.0395
  936MOL0     C26287   6.320   2.071   3.462  0.3403  0.2835  0.6068
  936MOL0     C26288   6.329   2.183   3.371 -0.1952 -0.5096 -0.1431
  936MOL0     C26289   6.347   2.268   3.286 -0.3479  0.6254 -0.3893
  936MOL0     C26290   6.540   1.626   3.768  0.4449 -0.1236 -0.1518
  936MOL0     C26291   6.555   1.497   3.807  0.4337 -0.8372 -0.5893
  936MOL0     C26292   6.465   1.447   3.917  0.5767 -0.3846 -0.0361
  936MOL0     H26293   6.932   1.080   3.653  0.5328 -0.7262  1.5487
  936MOL0     H26294   7.014   0.848   3.713  0.1464 -0.2296 -1.1911
  936MOL0     H26295   7.046   0.610   3.899 -2.1079 -3.4964 -0.4248
  936MOL0     H26296   7.010   0.755   3.979  3.0619 -0.0659 -0.6423
  936MOL0     H26297   6.949   0.569   4.127 -2.1157  0.1746  2.5123
  936MOL0     H26298   6.841   0.497   4.007  3.7763  0.3726 -4.1129
  936MOL0     H26299   6.664   0.658   4.043 -1.5000  0.4475 -0.0484
  936MOL0     H26300   6.777   0.767   4.130 -0.7772 -1.0573 -0.3966
  936MOL0     H26301   6.707   0.486   4.196 -0.9001  0.0636 -0.4294
  936MOL0     H26302   6.788   0.583   4.317 -1.6533  2.8982  0.7656
  936MOL0     H26303   6.516   0.616   4.217 -3.3397  0.4031  1.8603
  936MOL0     H26304   6.545   0.567   4.378 -4.2186 -0.1837 -2.1002
  936MOL0     H26305   6.608   0.778   4.458  1.4914  1.8678 -0.8574
  936MOL0     H26306   6.661   0.834   4.304 -1.3618 -0.3295 -0.9649
  936MOL0     H26307   6.418   0.803   4.225  0.0967 -2.2434  2.4598
  936MOL0     H26308   6.447   0.950   4.313 -1.2074  0.5073 -0.8810
  936MOL0     H26309   6.244   0.856   4.386 -0.5051 -2.1513 -2.3633
  936MOL0     H26310   6.305   0.685   4.404  1.3959 -0.0002  1.6190
  936MOL0     H26311   6.388   0.615   4.627  1.9863  0.5428  1.8618
  936MOL0     H26312   6.453   0.822   4.970 -0.2911 -1.6225  1.3394
  936MOL0     H26313   6.376   0.671   4.922 -0.2323 -0.3627 -1.6216
  936MOL0     H26314   6.683   0.755   4.914  1.0817 -1.0718  1.3968
  936MOL0     H26315   6.619   0.633   5.019  3.8371  1.8618  0.9361
  936MOL0     H26316   6.615   0.610   4.716 -1.2102 -0.2475  0.0648
  936MOL0     H26317   6.545   0.493   4.831 -1.3028  1.3131 -0.2697
  936MOL0     H26318   6.761   0.416   4.790  0.1709 -1.2483  2.2639
  936MOL0     H26319   6.769   0.481   4.949 -3.3660 -2.3008 -1.0336
  936MOL0     H26320   6.987   0.375   4.725 -2.0119 -0.9075 -1.8308
  936MOL0     H26321   7.158   0.352   4.549  1.7637  1.5604 -1.7901
  936MOL0     H26322   7.418   0.236   4.276 -1.7287  1.4081 -0.0886
  936MOL0     H26323   7.629   0.193   4.147 -2.5713 -1.0706  0.4411
  936MOL0     H26324   7.819   0.540   3.974  0.1800 -0.1401  0.4201
  936MOL0     H26325   7.927   0.533   4.117  0.3894  0.5120  0.4395
  936MOL0     H26326   8.066   0.479   3.919 -0.0593 -0.1718  1.9737
  936MOL0     H26327   8.031   0.319   4.000  0.7263  1.8331  1.7072
  936MOL0     H26328   7.976   0.263   3.796  2.9568  0.6432  1.0248
  936MOL0     H26329   7.818   0.329   3.844  0.4873 -0.9330  1.6569
  936MOL0     H26330   8.036   0.478   3.690  0.3046 -0.0706 -0.7392
  936MOL0     H26331   7.870   0.540   3.728 -1.5241  0.2462 -2.5970
  936MOL0     H26332   7.942   0.318   3.526  1.9679  1.3510  1.4849
  936MOL0     H26333   7.873   0.482   3.484 -3.1176  2.3762  2.9952
  936MOL0     H26334   7.737   0.288   3.664  0.2093  0.7036  0.7874
  936MOL0     H26335   7.663   0.429   3.602  2.5684  1.7028 -0.0289
  936MOL0     H26336   7.755   0.178   3.419 -1.9296 -1.6333 -1.2262
  936MOL0     H26337   7.668   0.323   3.376  2.0101  2.4818  1.8448
  936MOL0     H26338   7.541   0.098   3.419  3.0305 -1.6563  1.7361
  936MOL0     H26339   7.585   0.110   3.578  0.2482 -0.0050 -0.2699
  936MOL0     H26340   7.717   0.614   4.197  0.5919 -1.1848 -1.3369
  936MOL0     H26341   7.515   0.646   4.311  1.0832  0.3889  0.9047
  936MOL0     H26342   7.129   0.783   4.479  3.2971 -1.4234  1.8964
  936MOL0     H26343   6.940   0.792   4.638  2.5219 -0.3499  2.3204
  936MOL0     H26344   6.620   0.775   3.866 -0.1540 -0.0147 -0.7451
  936MOL0     H26345   6.550   0.991   3.811  1.1609  2.9553 -1.1264
  936MOL0     H26346   6.781   1.394   3.564 -0.0928  1.6690 -1.7150
  936MOL0     H26347   6.745   1.640   3.517 -0.4289 -0.0616 -0.8808
  936MOL0     H26348   6.629   1.995   3.715  0.1648 -0.0013 -1.5280
  936MOL0     H26349   6.546   1.888   3.820 -0.9597  2.1163  0.3949
  936MOL0     H26350   6.361   2.008   3.745 -3.5628  0.1123 -1.7555
  936MOL0     H26351   6.373   1.877   3.620  1.9956 -0.8699  0.5530
  936MOL0     H26352   6.536   2.046   3.493 -0.4726 -1.8812 -0.0215
  936MOL0     H26353   6.471   2.168   3.584 -0.0261 -1.2856  0.3073
  936MOL0     H26354   6.301   1.980   3.405 -0.4153 -0.2888  1.7512
  936MOL0     H26355   6.235   2.085   3.528 -0.2688  1.0185 -0.3052
  936MOL0     H26356   6.376   2.314   3.194 -1.3002 -0.0062 -1.0244
  936MOL0     H26357   6.465   1.687   3.818  1.0015  1.0083 -0.6793
  936MOL0     H26358   6.368   1.434   3.867 -0.8555  0.0046  2.4593
  936MOL0     H26359   6.483   1.352   3.968 -4.9112 -1.3303  0.8055
  936MOL0     H26360   6.471   1.521   3.997 -0.6631  0.5178 -0.7257
  937MOL0     O26361   8.329   5.996   6.311  0.1969 -0.5609 -0.2988
  937MOL0     C26362   8.294   5.991   6.190 -0.2959  0.4121  0.3226
  937MOL0     O26363   8.169   5.992   6.143 -0.4493 -0.1903 -0.0365
  937MOL0     C26364   8.062   5.959   6.233  0.0540 -0.2559  0.0102
  937MOL0     C26365   7.963   6.053   6.254  0.2823  0.1775  0.6209
  937MOL0     C26366   7.854   6.014   6.331  0.5215  0.1643 -0.4894
  937MOL0     C26367   7.835   5.880   6.375  0.8815 -0.4909  0.3405
  937MOL0     O26368   7.722   5.840   6.446  0.6832  0.1540  0.0448
  937MOL0     C26369   7.670   5.928   6.551 -0.1644 -0.0127 -0.6941
  937MOL0     C26370   7.547   5.871   6.615  0.4256  0.6542  0.4115
  937MOL0     C26371   7.577   5.759   6.716 -0.2942 -0.5116  0.2813
  937MOL0     C26372   7.447   5.699   6.780 -0.7469 -0.1415 -1.2047
  937MOL0     C26373   7.494   5.574   6.867  0.6799  1.7386 -0.8888
  937MOL0     C26374   7.377   5.478   6.904  1.1571  0.2596  0.0688
  937MOL0     C26375   7.419   5.382   7.018  0.6729 -0.2340  0.4246
  937MOL0     C26376   7.294   5.296   7.049 -0.6683 -0.1511 -0.1977
  937MOL0     N26377   7.302   5.181   7.134  0.5191 -0.2238  1.0203
  937MOL0     C26378   7.358   5.173   7.265  0.4507 -0.6471 -0.1035
  937MOL0     C26379   7.342   5.036   7.282 -1.0670  0.1844 -0.3015
  937MOL0     C26380   7.375   4.963   7.406 -0.0966  0.3377 -0.6753
  937MOL0     C26381   7.523   4.936   7.412 -0.3122 -0.6629  0.0386
  937MOL0     C26382   7.597   5.051   7.496 -0.5838 -0.5258 -0.0546
  937MOL0     C26383   7.744   5.005   7.532 -0.6384  0.2630  0.7038
  937MOL0     O26384   7.827   4.977   7.412  0.3134 -0.1393 -0.1397
  937MOL0     C26385   7.925   5.065   7.373  0.1912  0.0856 -0.1725
  937MOL0     C26386   7.923   5.200   7.399 -0.6463 -0.1835 -0.0743
  937MOL0     C26387   8.016   5.285   7.322 -0.0785  0.3232  0.2937
  937MOL0     C26388   8.114   5.231   7.237  0.3652  0.2230  0.7047
  937MOL0     C26389   8.207   5.326   7.176 -0.5830 -0.0467 -0.0827
  937MOL0     O26390   8.295   5.275   7.079 -0.1314  0.1548  0.6070
  937MOL0     C26391   8.400   5.353   7.046 -0.3092  0.0591  0.2833
  937MOL0     C26392   8.401   5.416   6.926  0.8683  0.4696  1.2480
  937MOL0     C26393   8.480   5.520   6.904  0.3562  0.5591 -0.4785
  937MOL0     C26394   8.591   5.539   6.984  0.0334  0.6450 -0.1593
  937MOL0     O26395   8.697   5.612   6.943 -0.2697  0.0118 -0.1892
  937MOL0     C26396   8.789   5.552   6.852  0.0272  0.2021 -0.3962
  937MOL0     C26397   8.749   5.587   6.715  0.7369  0.3021  0.1682
  937MOL0     C26398   8.804   5.486   6.619  0.1211 -0.1277 -0.0618
  937MOL0     C26399   8.760   5.505   6.469 -0.3138 -1.0053  1.0631
  937MOL0     C26400   8.795   5.386   6.381 -0.2378 -1.5756 -0.4183
  937MOL0     C26401   8.704   5.396   6.255 -0.6533 -0.5320 -0.3547
  937MOL0     C26402   8.712   5.261   6.169 -1.2534  0.2602 -0.0067
  937MOL0     C26403   8.636   5.284   6.039 -0.1262  0.2190 -0.9073
  937MOL0    Cl26404   8.713   5.422   5.961  0.2265  0.3889  0.3232
  937MOL0     C26405   8.608   5.464   7.101  0.0453 -0.5926 -0.2791
  937MOL0     C26406   8.508   5.379   7.135  0.0920 -0.2372 -0.2120
  937MOL0     O26407   8.195   5.441   7.205 -0.1653 -1.0434  0.2119
  937MOL0     C26408   8.105   5.092   7.200  0.5187 -0.3702 -0.6425
  937MOL0     C26409   8.012   5.014   7.273 -0.8646 -0.9093 -0.4586
  937MOL0     N26410   7.288   4.972   7.172 -0.4651 -0.5310  0.1554
  937MOL0     N26411   7.258   5.061   7.090  0.1823 -0.7766  0.9223
  937MOL0     C26412   7.933   5.787   6.345 -0.0511 -1.2721 -0.7918
  937MOL0     C26413   8.050   5.828   6.276 -0.2993  0.6794  0.1393
  937MOL0     C26414   8.402   6.029   6.096  0.3404  0.8261 -0.5081
  937MOL0     C26415   8.521   6.080   6.156  0.0623  0.1902  0.2365
  937MOL0     C26416   8.627   6.119   6.072  0.3974 -0.0458  0.1217
  937MOL0     C26417   8.624   6.115   5.931  0.7237  0.3246 -0.0308
  937MOL0     O26418   8.737   6.163   5.861  0.2512  0.3259  0.2046
  937MOL0     C26419   8.742   6.163   5.721 -0.1101 -0.0318  1.3960
  937MOL0     C26420   8.879   6.227   5.668  0.4103  0.7507 -0.1244
  937MOL0     C26421   8.874   6.277   5.523 -0.2250  0.0882  0.1505
  937MOL0     C26422   8.826   6.416   5.520  0.4166  0.8758  1.0513
  937MOL0     C26423   8.851   6.481   5.386  0.4435  0.2373  1.0569
  937MOL0     C26424   8.849   6.530   5.277 -0.1822 -1.1616  0.0792
  937MOL0     C26425   8.508   6.057   5.872  0.0205  0.3645  0.4224
  937MOL0     C26426   8.399   6.013   5.952 -0.7307  0.0270 -0.5965
  937MOL0     C26427   8.291   5.940   5.878 -0.8036 -0.0719  0.2078
  937MOL0     H26428   7.972   6.147   6.201  0.7804 -0.6407 -0.7962
  937MOL0     H26429   7.778   6.090   6.345  0.5517  0.0909  0.0821
  937MOL0     H26430   7.739   5.947   6.634  1.5563  1.8359 -2.4348
  937MOL0     H26431   7.647   6.030   6.519 -3.9017 -0.0924  1.2163
  937MOL0     H26432   7.485   5.844   6.529 -0.6066  1.6626  0.8096
  937MOL0     H26433   7.502   5.956   6.667 -0.2510 -0.3585  1.5300
  937MOL0     H26434   7.641   5.792   6.798 -0.1543  0.1278 -0.0763
  937MOL0     H26435   7.632   5.680   6.663 -0.8432  1.2600 -3.2357
  937MOL0     H26436   7.398   5.772   6.845  0.7432  2.7926 -3.1629
  937MOL0     H26437   7.368   5.670   6.711  0.6663 -0.7882 -2.6233
  937MOL0     H26438   7.559   5.516   6.801 -0.5434  2.0625 -2.4312
  937MOL0     H26439   7.544   5.601   6.961 -4.7798  0.4533  2.8664
  937MOL0     H26440   7.288   5.537   6.926 -2.3483 -4.6304  0.8516
  937MOL0     H26441   7.346   5.404   6.830 -3.5427  0.0351  1.8947
  937MOL0     H26442   7.447   5.442   7.105 -0.5839  1.0413 -0.0132
  937MOL0     H26443   7.502   5.322   6.979  0.2914 -0.3698 -0.1877
  937MOL0     H26444   7.222   5.363   7.098 -0.7808  0.4348 -1.1423
  937MOL0     H26445   7.250   5.252   6.959 -0.1349 -1.9814  0.3989
  937MOL0     H26446   7.391   5.255   7.328 -1.7360  0.4105 -0.2159
  937MOL0     H26447   7.350   5.024   7.493 -0.3315 -2.7666  1.6157
  937MOL0     H26448   7.312   4.873   7.413 -0.6676  0.8536  1.6257
  937MOL0     H26449   7.539   4.841   7.464  1.1447 -1.2894 -1.4645
  937MOL0     H26450   7.556   4.927   7.309 -0.3769  2.9619 -0.4241
  937MOL0     H26451   7.534   5.090   7.576  0.3387  0.4768  0.1897
  937MOL0     H26452   7.613   5.139   7.434  2.3195 -1.1776 -0.3726
  937MOL0     H26453   7.749   4.914   7.593 -1.8202 -0.0342  0.3855
  937MOL0     H26454   7.800   5.080   7.588  0.2631  0.7656 -0.8292
  937MOL0     H26455   7.852   5.243   7.468  0.8153 -0.7817  1.9014
  937MOL0     H26456   8.025   5.388   7.355 -1.8157  2.2409 -4.3856
  937MOL0     H26457   8.320   5.403   6.855  1.1253  4.2206  0.0823
  937MOL0     H26458   8.460   5.576   6.813 -2.8943  0.8270  0.2519
  937MOL0     H26459   8.888   5.590   6.878  0.5716 -2.5011  1.8877
  937MOL0     H26460   8.804   5.446   6.871 -1.1387  0.0961 -0.0156
  937MOL0     H26461   8.642   5.566   6.703  0.5414  2.1426 -2.4435
  937MOL0     H26462   8.783   5.689   6.695  2.5427 -0.3325 -0.2036
  937MOL0     H26463   8.913   5.496   6.624  0.2557 -0.9499 -1.0144
  937MOL0     H26464   8.781   5.387   6.659  0.4508  0.0771  0.6572
  937MOL0     H26465   8.810   5.595   6.434  1.7265 -2.3987  0.2392
  937MOL0     H26466   8.651   5.521   6.464 -0.2091 -0.6691 -1.0224
  937MOL0     H26467   8.767   5.298   6.438 -1.1585 -1.0924 -0.1056
  937MOL0     H26468   8.901   5.374   6.357 -0.0031 -1.9723  0.7608
  937MOL0     H26469   8.601   5.409   6.289 -0.7546 -0.6623 -0.6105
  937MOL0     H26470   8.737   5.491   6.212 -1.4621  1.7254  3.5303
  937MOL0     H26471   8.660   5.185   6.229  1.5692 -2.4416 -0.7322
  937MOL0     H26472   8.817   5.236   6.156 -1.0267  1.1850  0.0278
  937MOL0     H26473   8.647   5.202   5.967  1.4393  0.8177 -1.3873
  937MOL0     H26474   8.533   5.314   6.060 -0.2746 -2.1744  2.6488
  937MOL0     H26475   8.691   5.490   7.166 -1.0231 -0.0493  0.9167
  937MOL0     H26476   8.506   5.327   7.230 -2.5959 -1.3773 -0.8069
  937MOL0     H26477   8.161   5.045   7.120 -0.1061 -3.1351  0.4476
  937MOL0     H26478   8.006   4.906   7.261 -2.7694 -0.7099 -1.6344
  937MOL0     H26479   7.918   5.685   6.381 -0.5956 -0.9786 -0.1789
  937MOL0     H26480   8.126   5.751   6.268 -0.8965  0.1781 -0.8786
  937MOL0     H26481   8.534   6.097   6.262 -1.5763  2.1555  0.1875
  937MOL0     H26482   8.721   6.138   6.122  2.2560 -2.8878 -2.0114
  937MOL0     H26483   8.667   6.239   5.695  1.3872  1.2534  0.6480
  937MOL0     H26484   8.727   6.065   5.676 -0.5157  0.3316  0.7235
  937MOL0     H26485   8.953   6.147   5.664 -0.4165  0.0202 -2.7984
  937MOL0     H26486   8.894   6.302   5.747  0.4896  0.7491 -0.1388
  937MOL0     H26487   8.812   6.207   5.466 -2.4592 -0.0750  2.5854
  937MOL0     H26488   8.978   6.275   5.491 -0.3753  1.4513 -0.4999
  937MOL0     H26489   8.719   6.413   5.540 -0.4465  3.3798 -2.3876
  937MOL0     H26490   8.870   6.474   5.602  0.5597  1.1891  0.7576
  937MOL0     H26491   8.832   6.578   5.183 -0.3947 -1.3218  0.0354
  937MOL0     H26492   8.500   6.046   5.765  0.6330 -0.7375  0.4795
  937MOL0     H26493   8.258   5.854   5.937  0.5244 -1.1629 -0.5724
  937MOL0     H26494   8.209   6.007   5.850  0.4313  1.2441 -0.3526
  937MOL0     H26495   8.327   5.897   5.784  0.4173 -3.6775  2.1268
  938MOL0     O26496   8.020   5.398   4.655 -0.4026 -0.2559 -0.2477
  938MOL0     C26497   8.038   5.300   4.584 -0.5364 -0.5119  0.4065
  938MOL0     O26498   8.156   5.256   4.534 -0.2927 -0.1313  0.1915
  938MOL0     C26499   8.276   5.329   4.548  0.5032  0.2076 -0.3675
  938MOL0     C26500   8.300   5.423   4.649  0.5400  0.6922 -0.3510
  938MOL0     C26501   8.402   5.515   4.642 -0.4150 -0.5051  0.9056
  938MOL0     C26502   8.491   5.519   4.525 -0.1359 -0.6265 -0.1237
  938MOL0     O26503   8.589   5.622   4.534  0.3154  0.1854  0.2984
  938MOL0     C26504   8.678   5.630   4.420  0.1718  0.0752 -0.4830
  938MOL0     C26505   8.770   5.749   4.427  0.4992 -0.2566 -0.5906
  938MOL0     C26506   8.691   5.876   4.421  0.2296  0.1906 -0.2020
  938MOL0     C26507   8.674   5.943   4.557  0.1175  0.5053 -0.7941
  938MOL0     C26508   8.555   6.042   4.549 -0.3606  0.4485 -0.1755
  938MOL0     C26509   8.520   6.103   4.687 -0.0115 -0.5432  0.3705
  938MOL0     C26510   8.464   6.243   4.672 -0.9232 -0.1117  0.4425
  938MOL0     C26511   8.324   6.258   4.598 -0.0437  0.0776 -0.2327
  938MOL0     N26512   8.275   6.400   4.595  0.6160  0.4866 -0.0210
  938MOL0     C26513   8.311   6.501   4.513  0.0248  0.4084  0.1124
  938MOL0     C26514   8.228   6.603   4.540 -0.3071 -0.4444 -0.6569
  938MOL0     C26515   8.217   6.738   4.466 -0.5084 -0.5687 -0.1128
  938MOL0     C26516   8.082   6.805   4.491 -0.8478 -0.0353  0.0617
  938MOL0     C26517   8.088   6.954   4.446 -0.0015  0.1494  0.4202
  938MOL0     C26518   7.943   7.017   4.455  0.0772  0.0539  0.0288
  938MOL0     O26519   7.960   7.156   4.454  0.0760 -0.5003  0.6268
  938MOL0     C26520   7.854   7.233   4.404 -1.1953 -0.2213  0.1684
  938MOL0     C26521   7.774   7.295   4.500  0.2440 -1.5357  0.6555
  938MOL0     C26522   7.653   7.368   4.461  0.5209  0.0407 -1.1093
  938MOL0     C26523   7.617   7.376   4.324 -0.4874  0.0459 -0.1491
  938MOL0     C26524   7.498   7.462   4.281 -0.6363  0.0932 -0.4623
  938MOL0     O26525   7.439   7.541   4.375 -0.5555 -0.4614  0.4752
  938MOL0     C26526   7.345   7.630   4.319 -0.3998  0.2530  1.2167
  938MOL0     C26527   7.376   7.736   4.230  0.1435  0.8663  0.1428
  938MOL0     C26528   7.276   7.830   4.191  0.1904 -0.4561 -0.6283
  938MOL0     C26529   7.143   7.810   4.232 -0.4234  0.5206  0.2039
  938MOL0     O26530   7.060   7.907   4.187 -0.3127  0.2253 -0.3193
  938MOL0     C26531   6.924   7.903   4.224  0.1653  0.6771 -0.7119
  938MOL0     C26532   6.843   8.019   4.171  0.3348 -0.0416  1.4575
  938MOL0     C26533   6.700   8.019   4.219 -0.1896  0.4092 -0.1166
  938MOL0     C26534   6.602   8.110   4.148  0.3767 -0.4681  0.7894
  938MOL0     C26535   6.447   8.105   4.186 -1.1747 -0.6409  0.3944
  938MOL0     C26536   6.385   7.964   4.178  0.9669 -0.1817  0.1652
  938MOL0     C26537   6.412   7.879   4.052  0.1857 -1.2553 -0.8803
  938MOL0     C26538   6.328   7.939   3.933  0.5880  1.0173 -0.4276
  938MOL0    Cl26539   6.354   7.834   3.795  0.6379  0.2842  0.6640
  938MOL0     C26540   7.118   7.705   4.316 -0.2520 -0.1208  1.2280
  938MOL0     C26541   7.215   7.616   4.357 -0.0833  0.6341 -0.4911
  938MOL0     O26542   7.464   7.449   4.162  0.2507  0.3215  0.4065
  938MOL0     C26543   7.706   7.318   4.230  0.4279 -0.3151  0.4639
  938MOL0     C26544   7.822   7.247   4.270  0.1283 -0.0568  0.7754
  938MOL0     N26545   8.144   6.563   4.643 -0.9620  0.2421  0.4057
  938MOL0     N26546   8.187   6.448   4.683 -0.2840  0.6145  0.0184
  938MOL0     C26547   8.465   5.426   4.423  0.7059  0.1526  0.7654
  938MOL0     C26548   8.358   5.333   4.434 -0.7689  0.1574 -0.3703
  938MOL0     C26549   7.927   5.207   4.562  0.3143 -0.8207 -1.1683
  938MOL0     C26550   7.948   5.083   4.496 -0.7482 -1.1434 -0.5821
  938MOL0     C26551   7.853   4.992   4.473  0.3406  1.2592  0.0431
  938MOL0     C26552   7.724   5.017   4.521  0.1396  0.4148 -0.0009
  938MOL0     O26553   7.616   4.933   4.512  0.8066  0.9889 -0.0407
  938MOL0     C26554   7.630   4.796   4.468  0.0212  0.4073  0.4766
  938MOL0     C26555   7.503   4.712   4.511  0.4084  0.6520 -0.5846
  938MOL0     C26556   7.499   4.589   4.412  0.3312  0.1245 -0.2200
  938MOL0     C26557   7.611   4.489   4.460 -0.3288  0.2106 -0.8464
  938MOL0     C26558   7.568   4.350   4.417  0.6484  0.6217 -0.2923
  938MOL0     C26559   7.532   4.244   4.364 -0.1894 -0.1574  0.4457
  938MOL0     C26560   7.700   5.137   4.579 -0.8266 -1.0099 -0.5574
  938MOL0     C26561   7.793   5.240   4.600  0.5485 -1.1868 -0.5564
  938MOL0     C26562   7.737   5.367   4.667 -0.1415 -0.0447  0.8971
  938MOL0     H26563   8.247   5.422   4.743 -0.0243 -0.4540 -0.6591
  938MOL0     H26564   8.422   5.575   4.731 -0.1436  2.1724 -0.8488
  938MOL0     H26565   8.733   5.535   4.414 -0.0795 -0.1919  0.9968
  938MOL0     H26566   8.613   5.628   4.332  0.3947  1.7868 -0.7073
  938MOL0     H26567   8.828   5.746   4.334  4.0963 -0.9484  1.4842
  938MOL0     H26568   8.847   5.752   4.505 -0.1793  0.6239  0.0563
  938MOL0     H26569   8.591   5.848   4.387  0.4362  0.3326 -0.9389
  938MOL0     H26570   8.735   5.937   4.341  0.4213 -2.0395 -1.8845
  938MOL0     H26571   8.645   5.870   4.634 -1.5864  2.9646  1.0559
  938MOL0     H26572   8.767   5.990   4.592  0.7616 -0.9868 -0.4176
  938MOL0     H26573   8.568   6.119   4.472 -3.0147 -1.0252 -2.2870
  938MOL0     H26574   8.468   5.989   4.509 -0.1660  0.2529 -0.3449
  938MOL0     H26575   8.443   6.035   4.724 -2.6941  2.5662  0.9702
  938MOL0     H26576   8.608   6.102   4.752  1.4354 -4.5955 -1.3388
  938MOL0     H26577   8.544   6.298   4.621  0.4982 -2.2281  0.2697
  938MOL0     H26578   8.447   6.290   4.769 -2.9185  1.0774 -0.4164
  938MOL0     H26579   8.331   6.221   4.495  1.8671  0.9870 -0.4729
  938MOL0     H26580   8.257   6.201   4.662 -0.0381  3.5122  3.1419
  938MOL0     H26581   8.389   6.498   4.438  1.2960  3.8238  1.1063
  938MOL0     H26582   8.307   6.793   4.494  0.5837 -2.6036  0.5717
  938MOL0     H26583   8.222   6.728   4.358 -1.8143 -1.7071 -0.0959
  938MOL0     H26584   8.011   6.751   4.426  0.1074 -0.0958 -0.9576
  938MOL0     H26585   8.049   6.799   4.595  0.4803  0.5767  0.5392
  938MOL0     H26586   8.127   6.972   4.345 -2.0761 -1.6401 -0.7622
  938MOL0     H26587   8.154   7.009   4.514 -0.9647 -1.0726  2.4457
  938MOL0     H26588   7.898   6.975   4.545  0.0928 -3.1300 -1.3376
  938MOL0     H26589   7.873   6.985   4.377  1.7378 -1.6541 -0.8352
  938MOL0     H26590   7.810   7.294   4.602  1.6937 -0.1853  0.2021
  938MOL0     H26591   7.591   7.405   4.542  0.6949  0.6887 -1.2719
  938MOL0     H26592   7.469   7.749   4.177  0.6097  2.8982  1.3138
  938MOL0     H26593   7.299   7.923   4.140 -0.2601 -0.4255 -0.7833
  938MOL0     H26594   6.873   7.810   4.196 -1.1017  2.1683 -3.8359
  938MOL0     H26595   6.925   7.901   4.333  0.7724  0.8031 -0.7113
  938MOL0     H26596   6.883   8.112   4.212  0.8640  0.6111 -0.4703
  938MOL0     H26597   6.851   8.024   4.062  2.9428  3.5120  1.6267
  938MOL0     H26598   6.660   7.918   4.212 -1.0934  0.6178  1.5039
  938MOL0     H26599   6.693   8.056   4.322  1.8795  0.5731 -0.0046
  938MOL0     H26600   6.610   8.098   4.039 -0.8133  5.3832 -0.3090
  938MOL0     H26601   6.629   8.213   4.174  0.5912 -1.5093  5.6194
  938MOL0     H26602   6.398   8.173   4.115  3.0954 -0.5493 -2.8447
  938MOL0     H26603   6.432   8.139   4.289 -4.1795  2.1982 -0.7682
  938MOL0     H26604   6.420   7.907   4.265  0.1967  0.7042  1.0864
  938MOL0     H26605   6.277   7.984   4.184  1.3730  1.7196  2.4712
  938MOL0     H26606   6.380   7.777   4.076 -0.2918 -0.4838  2.2425
  938MOL0     H26607   6.516   7.873   4.019 -0.8099  0.7093 -5.0487
  938MOL0     H26608   6.220   7.932   3.949  0.5832 -0.5967 -0.9979
  938MOL0     H26609   6.351   8.045   3.920 -4.1806  2.6047  1.8348
  938MOL0     H26610   7.020   7.693   4.361 -0.7385  1.2789  0.5784
  938MOL0     H26611   7.193   7.547   4.438 -3.2574  2.1236  0.0737
  938MOL0     H26612   7.682   7.352   4.130 -2.1085  0.7175  1.3437
  938MOL0     H26613   7.884   7.203   4.193  0.5495  1.6352  0.0914
  938MOL0     H26614   8.524   5.429   4.332  2.2519 -1.7234  1.6254
  938MOL0     H26615   8.338   5.272   4.346  0.4824 -0.5079 -0.2260
  938MOL0     H26616   8.050   5.052   4.472 -0.3282 -1.1149  1.0703
  938MOL0     H26617   7.884   4.900   4.424  0.3545  0.4444  1.5357
  938MOL0     H26618   7.722   4.744   4.496 -0.0080 -2.1132 -3.4079
  938MOL0     H26619   7.631   4.807   4.359 -0.7800  0.0415  0.4293
  938MOL0     H26620   7.408   4.765   4.504 -0.1209  0.0314  1.2905
  938MOL0     H26621   7.507   4.679   4.615  2.0747 -0.2016 -0.8794
  938MOL0     H26622   7.523   4.619   4.309  0.5798 -0.8567 -0.4572
  938MOL0     H26623   7.401   4.541   4.408 -0.1719  1.2040 -1.7368
  938MOL0     H26624   7.709   4.511   4.416 -0.1335  0.4460 -0.3134
  938MOL0     H26625   7.634   4.488   4.567  1.4994 -1.6752 -1.1958
  938MOL0     H26626   7.489   4.157   4.319  4.1018 -2.0594 -0.4673
  938MOL0     H26627   7.602   5.153   4.621  0.9727  0.1656  3.7119
  938MOL0     H26628   7.731   5.442   4.588  0.5074 -1.8244 -0.9381
  938MOL0     H26629   7.641   5.336   4.709  0.4268 -3.0781  0.2530
  938MOL0     H26630   7.794   5.409   4.750 -0.0190  3.0440 -0.6216
  939MOL0     O26631   2.007   6.205   8.439 -0.3785 -0.1371 -0.1699
  939MOL0     C26632   2.002   6.083   8.439 -0.0383  0.1394  0.1419
  939MOL0     O26633   1.920   6.014   8.370  0.1538 -0.4358  0.5018
  939MOL0     C26634   1.846   6.068   8.261 -0.3691  1.0330 -0.2360
  939MOL0     C26635   1.896   6.162   8.171  0.2384  0.1003  0.1116
  939MOL0     C26636   1.812   6.220   8.071 -0.0898  0.3390  0.6465
  939MOL0     C26637   1.672   6.205   8.076 -1.1079 -0.3767  0.7116
  939MOL0     O26638   1.574   6.274   8.004 -0.5537 -0.2161  0.8425
  939MOL0     C26639   1.611   6.350   7.893  0.2292 -0.2290  0.2723
  939MOL0     C26640   1.484   6.398   7.818  0.1218 -0.4131  0.0587
  939MOL0     C26641   1.440   6.277   7.739  0.4494 -0.3642 -0.5773
  939MOL0     C26642   1.334   6.314   7.637 -0.0156  0.6805  0.6196
  939MOL0     C26643   1.270   6.184   7.571 -0.3863 -0.1292  1.4735
  939MOL0     C26644   1.186   6.202   7.451 -0.6483 -0.5164 -0.0269
  939MOL0     C26645   1.096   6.328   7.466 -0.6881 -0.0286 -0.9317
  939MOL0     C26646   0.993   6.319   7.358  0.4981  0.2497 -0.1809
  939MOL0     N26647   0.952   6.450   7.313  0.0480  0.5360  0.2134
  939MOL0     C26648   0.980   6.503   7.186 -0.1100  0.1856  0.1965
  939MOL0     C26649   0.897   6.612   7.170 -1.8644 -0.3484 -0.0522
  939MOL0     C26650   0.868   6.677   7.048  0.1721 -0.1516  0.4898
  939MOL0     C26651   0.877   6.826   7.048  0.5952  0.2803  0.4184
  939MOL0     C26652   0.895   6.876   6.902  0.0077 -0.1157 -0.2802
  939MOL0     C26653   0.904   7.025   6.875 -0.0565  0.1749 -0.0181
  939MOL0     O26654   1.010   7.087   6.957  0.0504 -0.1885 -0.9299
  939MOL0     C26655   1.040   7.219   6.950 -0.5004  0.2316  0.0264
  939MOL0     C26656   1.132   7.275   7.042  0.0664  0.7631 -0.0849
  939MOL0     C26657   1.185   7.404   7.035 -0.9679 -0.8626  0.3286
  939MOL0     C26658   1.130   7.495   6.933 -0.3577  0.2573 -0.7593
  939MOL0     C26659   1.181   7.628   6.910  0.5234  0.2466 -0.5461
  939MOL0     O26660   1.095   7.718   6.859  0.2185 -0.5032  0.3357
  939MOL0     C26661   1.144   7.831   6.794  0.0768  0.1637 -1.0930
  939MOL0     C26662   1.265   7.831   6.728  0.4822  0.0092  0.1250
  939MOL0     C26663   1.301   7.947   6.655 -1.3140  0.2783  0.2569
  939MOL0     C26664   1.223   8.059   6.655  0.4125  0.1281  0.5091
  939MOL0     O26665   1.245   8.183   6.596  0.0542  0.3357  0.7909
  939MOL0     C26666   1.358   8.200   6.507  0.1569 -0.0296 -0.7292
  939MOL0     C26667   1.357   8.343   6.454  0.1461 -0.3839  0.7381
  939MOL0     C26668   1.461   8.367   6.345 -0.1030  0.4008 -0.3641
  939MOL0     C26669   1.459   8.508   6.296  0.5372 -0.6266  0.3905
  939MOL0     C26670   1.338   8.537   6.208 -0.3065  0.4098 -0.9225
  939MOL0     C26671   1.333   8.468   6.078  1.1073  0.3114  0.0534
  939MOL0     C26672   1.214   8.504   5.984 -0.4304  0.0951  0.2407
  939MOL0     C26673   1.079   8.490   6.050  1.0195  0.6769 -0.8128
  939MOL0    Cl26674   1.036   8.644   6.131 -0.1340  0.4466 -0.0422
  939MOL0     C26675   1.102   8.062   6.722  0.1055 -0.8305  0.1047
  939MOL0     C26676   1.061   7.944   6.797 -0.5105  0.6555 -0.6153
  939MOL0     O26677   1.294   7.644   6.950 -0.1277 -0.7562 -0.0060
  939MOL0     C26678   1.045   7.438   6.837  0.5097 -0.3492 -0.6239
  939MOL0     C26679   0.994   7.311   6.848 -0.4965  0.3467 -0.3517
  939MOL0     N26680   0.816   6.621   7.285 -0.6944 -0.4550  0.0561
  939MOL0     N26681   0.844   6.525   7.365  0.2647  0.1067 -0.5461
  939MOL0     C26682   1.623   6.114   8.161  0.0551 -0.2679 -0.3404
  939MOL0     C26683   1.707   6.045   8.252  0.1542  0.6029 -0.0834
  939MOL0     C26684   2.096   6.009   8.526  0.6861 -0.8659 -0.1496
  939MOL0     C26685   2.069   5.872   8.553  0.1672  0.0528  0.7989
  939MOL0     C26686   2.135   5.798   8.642  0.6045 -0.3219 -0.1052
  939MOL0     C26687   2.242   5.855   8.717  0.1900  1.1513 -0.5753
  939MOL0     O26688   2.310   5.781   8.812  0.7457  0.0532  0.7285
  939MOL0     C26689   2.443   5.744   8.783 -0.4120  0.1739 -0.9085
  939MOL0     C26690   2.489   5.627   8.872 -0.7733 -0.7739 -0.2790
  939MOL0     C26691   2.596   5.682   8.977  0.3614  0.5937  0.3470
  939MOL0     C26692   2.558   5.614   9.114  0.1560  0.1765  0.0690
  939MOL0     C26693   2.676   5.628   9.198 -0.5795  0.5505  0.4810
  939MOL0     C26694   2.785   5.631   9.258  0.8760  0.1024 -0.1803
  939MOL0     C26695   2.279   5.982   8.685  0.0033  0.1478 -0.4297
  939MOL0     C26696   2.218   6.057   8.579 -0.5129 -0.6026  0.4924
  939MOL0     C26697   2.289   6.190   8.546 -0.6211  0.5607  1.1891
  939MOL0     H26698   1.999   6.189   8.154  0.4870 -1.2596 -0.7183
  939MOL0     H26699   1.853   6.287   7.997 -0.3125 -3.0538 -2.8718
  939MOL0     H26700   1.658   6.438   7.937 -0.7067  0.3974  0.0437
  939MOL0     H26701   1.689   6.305   7.832 -0.6881 -2.4312  0.6103
  939MOL0     H26702   1.496   6.483   7.750 -1.0722 -0.2919 -0.0290
  939MOL0     H26703   1.412   6.421   7.897 -1.1243  1.5055 -1.5384
  939MOL0     H26704   1.392   6.220   7.819  1.4568  1.8342  1.7213
  939MOL0     H26705   1.525   6.223   7.696  1.3492  0.3439  0.2965
  939MOL0     H26706   1.255   6.382   7.671 -1.7116  0.7002 -2.9255
  939MOL0     H26707   1.399   6.373   7.571 -0.3518 -0.5116 -0.8241
  939MOL0     H26708   1.344   6.112   7.536 -2.3465 -1.1987 -0.6760
  939MOL0     H26709   1.212   6.129   7.646 -1.3975 -1.9839 -0.5658
  939MOL0     H26710   1.248   6.215   7.363  0.0091 -0.0948  0.4904
  939MOL0     H26711   1.134   6.110   7.425 -1.9428  0.9857 -3.3809
  939MOL0     H26712   1.158   6.417   7.451  0.9523 -1.1502 -1.0572
  939MOL0     H26713   1.057   6.331   7.568 -0.8437  0.0908 -0.9944
  939MOL0     H26714   1.036   6.275   7.267  1.3385  0.3693  0.1445
  939MOL0     H26715   0.897   6.271   7.379  0.0967  0.5123 -1.3688
  939MOL0     H26716   1.054   6.459   7.120 -1.2262 -0.9230 -0.3736
  939MOL0     H26717   0.925   6.637   6.963 -2.3157  0.6524 -1.6668
  939MOL0     H26718   0.766   6.657   7.015  0.7011 -0.1383 -1.2522
  939MOL0     H26719   0.795   6.876   7.101 -0.9913 -1.1939 -0.5257
  939MOL0     H26720   0.967   6.854   7.103 -0.8215 -0.1265  3.0877
  939MOL0     H26721   0.797   6.853   6.858 -1.2792  1.4576  1.6417
  939MOL0     H26722   0.978   6.826   6.850 -1.4938 -1.2290 -1.7468
  939MOL0     H26723   0.808   7.075   6.893  0.5567  1.2238  0.4116
  939MOL0     H26724   0.927   7.039   6.769 -1.1920 -0.3213 -0.3481
  939MOL0     H26725   1.174   7.207   7.115 -0.4862 -1.6676 -1.8901
  939MOL0     H26726   1.251   7.431   7.117 -0.2917  0.6266 -0.6591
  939MOL0     H26727   1.338   7.750   6.724 -2.2053 -2.7462  2.4964
  939MOL0     H26728   1.401   7.951   6.613  0.8556 -0.3923  4.7652
  939MOL0     H26729   1.440   8.194   6.578 -0.4449  0.2624  0.0100
  939MOL0     H26730   1.363   8.116   6.437  0.0512 -0.9000  0.2824
  939MOL0     H26731   1.262   8.367   6.405  0.7492 -0.9094 -0.7440
  939MOL0     H26732   1.371   8.413   6.537  0.6392  0.1379  0.2240
  939MOL0     H26733   1.564   8.344   6.375 -0.7028 -0.6743  0.9563
  939MOL0     H26734   1.441   8.296   6.264  1.1535 -0.8738  0.3777
  939MOL0     H26735   1.554   8.530   6.245  0.9661  0.4064  1.5841
  939MOL0     H26736   1.455   8.578   6.380  2.2737  0.9552 -0.7515
  939MOL0     H26737   1.322   8.645   6.201 -0.5141  0.7505  2.7388
  939MOL0     H26738   1.249   8.516   6.268  0.6312  0.2106  0.4425
  939MOL0     H26739   1.430   8.485   6.030  0.8026  0.5389 -0.4865
  939MOL0     H26740   1.334   8.359   6.091 -0.8210  0.3333  0.7361
  939MOL0     H26741   1.217   8.429   5.905  0.9227 -0.9317  1.2139
  939MOL0     H26742   1.227   8.599   5.932 -0.9695 -0.8769 -1.7754
  939MOL0     H26743   1.005   8.467   5.973 -0.9330 -0.4348  1.2884
  939MOL0     H26744   1.082   8.413   6.127 -0.0859  2.4163  1.0470
  939MOL0     H26745   1.037   8.149   6.716 -3.0258 -3.0783 -0.6742
  939MOL0     H26746   0.973   7.933   6.859  0.3476 -1.2712  0.3537
  939MOL0     H26747   1.007   7.501   6.757  0.8887  1.1616  0.3523
  939MOL0     H26748   0.903   7.273   6.805  0.6111 -1.0889 -1.5523
  939MOL0     H26749   1.519   6.097   8.187 -0.1770  0.6414 -0.6697
  939MOL0     H26750   1.660   5.983   8.326 -0.3661 -0.6394 -1.4108
  939MOL0     H26751   1.979   5.823   8.518  0.9562 -0.6907 -0.2069
  939MOL0     H26752   2.108   5.693   8.653  2.5061 -0.9603 -1.1395
  939MOL0     H26753   2.504   5.834   8.796 -1.7418  1.1446 -1.1567
  939MOL0     H26754   2.454   5.707   8.681  1.0986 -0.7790 -0.4329
  939MOL0     H26755   2.535   5.550   8.811  0.1742  0.6795 -1.4790
  939MOL0     H26756   2.407   5.584   8.930 -2.0889  1.9519  0.0433
  939MOL0     H26757   2.590   5.791   8.991 -0.1706  1.0929 -3.0438
  939MOL0     H26758   2.700   5.658   8.953  0.9273  3.0063  0.1320
  939MOL0     H26759   2.469   5.660   9.159  1.9312  4.9312 -0.7538
  939MOL0     H26760   2.552   5.505   9.109  1.7272 -0.0871  2.4562
  939MOL0     H26761   2.866   5.636   9.329 -2.1847  2.8477  3.5531
  939MOL0     H26762   2.369   6.012   8.737 -1.3425 -1.6663  3.3702
  939MOL0     H26763   2.398   6.184   8.557 -0.6730  0.2159  1.5346
  939MOL0     H26764   2.267   6.221   8.443  2.3683  1.5855  0.7494
  939MOL0     H26765   2.256   6.274   8.607 -0.8631  0.3645  1.3315
  940MOL0     O26766   5.073   6.532   3.021 -0.0518 -0.0310  0.3360
  940MOL0     C26767   4.983   6.556   2.938 -1.1175  0.1159 -0.3703
  940MOL0     O26768   4.993   6.647   2.836  1.3625  0.1085 -0.8335
  940MOL0     C26769   5.102   6.725   2.811 -0.5288 -0.0527 -0.4007
  940MOL0     C26770   5.150   6.729   2.681 -0.0050  1.0517  0.2025
  940MOL0     C26771   5.258   6.812   2.656 -1.1925 -0.1153 -0.2470
  940MOL0     C26772   5.320   6.893   2.763  1.1509 -0.1129 -0.6835
  940MOL0     O26773   5.431   6.960   2.728  0.7142 -0.9709  0.2017
  940MOL0     C26774   5.546   6.903   2.770  0.6226  0.9539  0.0449
  940MOL0     C26775   5.665   6.980   2.716 -0.0080 -0.4425  0.6367
  940MOL0     C26776   5.661   6.996   2.559 -0.8618 -0.0371  0.3551
  940MOL0     C26777   5.792   7.074   2.509  0.4826  0.4818 -0.8859
  940MOL0     C26778   5.795   7.083   2.354  0.2863 -0.0983 -0.9357
  940MOL0     C26779   5.716   7.204   2.305 -0.5537  0.1371 -0.0423
  940MOL0     C26780   5.763   7.235   2.170 -0.1319 -0.1952 -1.4033
  940MOL0     C26781   5.649   7.303   2.098 -0.2604 -0.3947  1.9422
  940MOL0     N26782   5.702   7.369   1.973  0.3371 -0.6228  0.1112
  940MOL0     C26783   5.667   7.344   1.851 -0.6139 -0.4629  0.5951
  940MOL0     C26784   5.742   7.432   1.775 -0.0712  0.1827  0.3933
  940MOL0     C26785   5.745   7.451   1.627 -0.1218  0.4857 -0.4819
  940MOL0     C26786   5.894   7.425   1.579 -0.7344 -0.9513  0.4799
  940MOL0     C26787   5.922   7.273   1.592 -0.1676  0.9780 -0.0051
  940MOL0     C26788   6.034   7.220   1.496 -0.4072  0.3899 -0.1078
  940MOL0     O26789   6.151   7.257   1.574 -0.6236 -0.3162 -0.0855
  940MOL0     C26790   6.278   7.260   1.515  0.4164 -0.5052 -0.6655
  940MOL0     C26791   6.346   7.145   1.494 -0.9055  0.8509 -0.3412
  940MOL0     C26792   6.469   7.155   1.434  0.7092 -0.3942 -0.2129
  940MOL0     C26793   6.530   7.275   1.378  0.0745  0.1921  0.0179
  940MOL0     C26794   6.669   7.278   1.325 -0.4977 -0.6249 -0.2238
  940MOL0     O26795   6.710   7.408   1.291  0.2407  1.0783 -0.2572
  940MOL0     C26796   6.844   7.426   1.275  0.0113 -0.0528 -0.1300
  940MOL0     C26797   6.911   7.390   1.163 -0.3792 -0.0652  0.0987
  940MOL0     C26798   7.043   7.426   1.135 -0.1118  0.5405  0.1733
  940MOL0     C26799   7.111   7.503   1.238  0.1711 -0.4680 -0.4508
  940MOL0     O26800   7.245   7.530   1.217  1.2069  0.2556  0.8409
  940MOL0     C26801   7.342   7.553   1.318  0.3003  0.6545  0.7394
  940MOL0     C26802   7.489   7.491   1.293 -0.3349 -0.1696 -0.2518
  940MOL0     C26803   7.572   7.588   1.203 -0.0911  0.2283  0.3039
  940MOL0     C26804   7.711   7.533   1.155 -0.3301 -0.8813  0.6790
  940MOL0     C26805   7.828   7.620   1.199  0.3787 -0.1619  0.2583
  940MOL0     C26806   7.968   7.560   1.168  0.4217  0.4851  0.2705
  940MOL0     C26807   7.995   7.545   1.017 -0.1175  0.5281 -0.3381
  940MOL0     C26808   8.124   7.458   1.008 -0.2461 -0.3492 -0.4331
  940MOL0    Cl26809   8.177   7.441   0.841  0.0458 -0.2375  0.2117
  940MOL0     C26810   7.047   7.532   1.362 -0.2628 -0.5936  0.1936
  940MOL0     C26811   6.914   7.494   1.378  0.4736  0.1592 -0.2553
  940MOL0     O26812   6.745   7.184   1.334  0.2801  0.0674 -0.0472
  940MOL0     C26813   6.456   7.390   1.400  0.5162  0.1205 -0.9958
  940MOL0     C26814   6.338   7.386   1.474  0.3393  0.4402 -0.1595
  940MOL0     N26815   5.828   7.494   1.860 -0.5380 -0.0502 -0.0420
  940MOL0     N26816   5.807   7.455   1.978 -0.2923  0.4690  0.8809
  940MOL0     C26817   5.282   6.875   2.895  0.4360  0.3324 -0.0902
  940MOL0     C26818   5.167   6.789   2.915 -0.5556 -0.3926 -0.1222
  940MOL0     C26819   4.849   6.488   2.961 -1.0609 -0.7353  0.4588
  940MOL0     C26820   4.742   6.575   2.934 -0.0342  0.2253 -0.3591
  940MOL0     C26821   4.615   6.542   2.951  0.7581  0.0789 -0.6422
  940MOL0     C26822   4.586   6.418   3.004 -0.1962 -0.0757  0.0573
  940MOL0     O26823   4.456   6.368   2.999 -0.2191 -0.3115 -0.5448
  940MOL0     C26824   4.409   6.296   3.112 -0.2018  0.0041  0.5356
  940MOL0     C26825   4.261   6.322   3.098  0.4149  0.2556 -0.3112
  940MOL0     C26826   4.192   6.253   3.223 -0.3611 -0.0959 -0.5545
  940MOL0     C26827   4.049   6.313   3.220 -0.0566 -0.0264 -0.2844
  940MOL0     C26828   3.974   6.286   3.099 -0.1987  0.7624  0.6314
  940MOL0     C26829   3.901   6.256   3.000  0.0281  0.6371 -0.3484
  940MOL0     C26830   4.690   6.337   3.052  0.3772 -0.1886  0.0898
  940MOL0     C26831   4.819   6.372   3.027 -0.6576 -0.4633 -0.0352
  940MOL0     C26832   4.919   6.277   3.086  0.5834  0.3053  0.6196
  940MOL0     H26833   5.103   6.665   2.608 -0.2782 -1.5836  2.4948
  940MOL0     H26834   5.304   6.796   2.559 -2.1882 -0.3539 -0.6900
  940MOL0     H26835   5.540   6.885   2.878 -2.2319 -3.4935 -0.5823
  940MOL0     H26836   5.553   6.800   2.735  1.4928  1.0707 -0.1570
  940MOL0     H26837   5.761   6.938   2.745  0.7044  1.0248  0.4745
  940MOL0     H26838   5.663   7.077   2.767  3.5739 -0.7025  1.5197
  940MOL0     H26839   5.572   7.046   2.519  0.1606 -1.0774 -3.7703
  940MOL0     H26840   5.654   6.900   2.508 -0.5954  1.7285 -3.3888
  940MOL0     H26841   5.805   7.173   2.555  2.6352 -1.3955  3.0687
  940MOL0     H26842   5.878   7.014   2.541 -0.1851 -0.9110 -1.6018
  940MOL0     H26843   5.901   7.087   2.326  1.4366 -1.8615  2.5482
  940MOL0     H26844   5.751   6.986   2.328  1.6272 -1.2928  0.9067
  940MOL0     H26845   5.610   7.177   2.300  0.0174 -2.3368  0.0769
  940MOL0     H26846   5.735   7.294   2.364 -0.1725 -0.5997  0.9850
  940MOL0     H26847   5.782   7.142   2.116  0.1543  1.1878 -3.8265
  940MOL0     H26848   5.849   7.302   2.181 -0.9071  0.5862  0.3224
  940MOL0     H26849   5.581   7.222   2.072  0.9843 -0.7914 -0.3681
  940MOL0     H26850   5.597   7.383   2.151 -5.0439 -1.9997  0.2297
  940MOL0     H26851   5.595   7.266   1.828  1.4206 -2.6430  1.2285
  940MOL0     H26852   5.677   7.380   1.579 -0.5250  1.1997 -0.9689
  940MOL0     H26853   5.721   7.554   1.600  3.4954  1.4887 -0.3080
  940MOL0     H26854   5.896   7.448   1.472 -0.3196 -0.7931  0.5221
  940MOL0     H26855   5.968   7.488   1.628  0.4187 -3.0343  1.5450
  940MOL0     H26856   5.834   7.213   1.565  2.9206 -2.3901 -3.8619
  940MOL0     H26857   5.952   7.228   1.688 -1.6014  1.7572  0.8359
  940MOL0     H26858   6.033   7.263   1.396  0.0826  0.3656 -0.1222
  940MOL0     H26859   6.030   7.110   1.497 -3.5536  0.3943  1.5501
  940MOL0     H26860   6.317   7.042   1.510 -0.8095  0.5198 -2.0915
  940MOL0     H26861   6.522   7.062   1.421 -0.4489 -0.9539 -1.0589
  940MOL0     H26862   6.860   7.335   1.084 -1.0023  1.3003 -0.4850
  940MOL0     H26863   7.105   7.389   1.055 -0.5368 -1.6610  0.7835
  940MOL0     H26864   7.356   7.658   1.346 -0.5330  0.4598  1.9614
  940MOL0     H26865   7.316   7.501   1.411  2.2622 -0.2398  0.8431
  940MOL0     H26866   7.553   7.486   1.381  1.0915 -3.0054 -1.3009
  940MOL0     H26867   7.480   7.389   1.253  0.0647 -0.1345 -0.4378
  940MOL0     H26868   7.509   7.619   1.119 -1.0492  2.0729  1.6260
  940MOL0     H26869   7.576   7.684   1.255 -4.1739  0.9975 -0.4270
  940MOL0     H26870   7.716   7.515   1.047  1.8469 -0.1473  0.5978
  940MOL0     H26871   7.731   7.436   1.200 -1.1240 -1.0063  0.7633
  940MOL0     H26872   7.808   7.624   1.307 -2.0727 -0.2934 -0.1191
  940MOL0     H26873   7.812   7.722   1.162 -0.6859  0.5154  2.4007
  940MOL0     H26874   8.050   7.621   1.206  1.5456  1.0519 -2.8115
  940MOL0     H26875   7.982   7.466   1.223 -0.6722  0.8409  1.1891
  940MOL0     H26876   8.000   7.640   0.963 -1.5212  1.2525  0.7496
  940MOL0     H26877   7.906   7.498   0.971 -1.3462  1.5858  0.8794
  940MOL0     H26878   8.209   7.496   1.066  1.1057 -0.6483 -2.1559
  940MOL0     H26879   8.103   7.358   1.048  0.0695 -0.2601 -0.0352
  940MOL0     H26880   7.098   7.575   1.447  0.0187  0.0024 -0.2677
  940MOL0     H26881   6.866   7.535   1.467  0.3466 -1.0970  0.2734
  940MOL0     H26882   6.500   7.483   1.365 -0.2116  1.0780  0.5136
  940MOL0     H26883   6.281   7.476   1.494 -0.9547 -0.4673  0.3438
  940MOL0     H26884   5.329   6.927   2.979 -0.2446  0.6423  0.1036
  940MOL0     H26885   5.121   6.766   3.011 -1.1606  0.4453 -0.1972
  940MOL0     H26886   4.759   6.669   2.882 -4.0574  1.6142  0.4688
  940MOL0     H26887   4.530   6.596   2.909 -2.9653 -2.5482  2.7210
  940MOL0     H26888   4.445   6.350   3.201  0.4529  0.1647  0.1792
  940MOL0     H26889   4.443   6.192   3.119  0.1159 -0.0182 -1.0631
  940MOL0     H26890   4.234   6.262   3.010 -0.9696 -1.5303  1.2423
  940MOL0     H26891   4.232   6.425   3.078 -4.8748 -0.9169 -0.0167
  940MOL0     H26892   4.245   6.285   3.313  2.3971  1.5495 -2.6207
  940MOL0     H26893   4.191   6.143   3.220  1.5875 -0.2134  0.9520
  940MOL0     H26894   3.981   6.274   3.297 -1.7773  0.4590 -1.4875
  940MOL0     H26895   4.061   6.421   3.237 -3.1616  0.4545 -0.3971
  940MOL0     H26896   3.844   6.201   2.928  0.7568 -0.4011 -0.1437
  940MOL0     H26897   4.669   6.242   3.100 -0.4754 -1.2215 -2.1933
  940MOL0     H26898   4.874   6.189   3.133  2.6992  0.2254  2.6617
  940MOL0     H26899   4.986   6.252   3.004  3.7251 -0.5533  3.2251
  940MOL0     H26900   4.977   6.324   3.166 -0.8647  1.1617  1.2084
  941MOL0     O26901   9.475   6.934   8.849  0.0560  0.2730 -0.0376
  941MOL0     C26902   9.463   7.051   8.876 -0.5686  0.6960  0.3612
  941MOL0     O26903   9.466   7.102   9.000 -0.1637 -0.6506  0.3038
  941MOL0     C26904   9.503   7.031   9.105  0.3467  0.2950  0.2653
  941MOL0     C26905   9.413   7.012   9.204 -0.2202  0.0889 -0.7369
  941MOL0     C26906   9.448   6.940   9.318  0.8702  0.6280  0.2865
  941MOL0     C26907   9.576   6.888   9.331 -0.7351  0.6294 -0.3424
  941MOL0     O26908   9.600   6.815   9.449  0.0803  0.0952 -0.3217
  941MOL0     C26909   9.734   6.772   9.488 -0.0135  0.9806  0.1225
  941MOL0     C26910   9.784   6.650   9.400 -0.4043  0.7537 -0.2639
  941MOL0     C26911   9.931   6.605   9.420  0.9763  0.1994  0.2495
  941MOL0     C26912   9.956   6.565   9.568  0.3379  0.0400  0.2767
  941MOL0     C26913  10.102   6.553   9.579  0.0021 -0.3362  0.5145
  941MOL0     C26914  10.163   6.524   9.712  0.4161 -0.4660  0.3448
  941MOL0     C26915  10.313   6.565   9.712  0.1523  0.0787 -1.4059
  941MOL0     C26916  10.409   6.535   9.594 -0.1965 -0.5097  0.0625
  941MOL0     N26917  10.553   6.523   9.635 -0.4337  0.4194  0.2698
  941MOL0     C26918  10.622   6.623   9.701 -0.6877 -0.4071  0.4368
  941MOL0     C26919  10.746   6.567   9.728  0.8745  0.6521  0.1342
  941MOL0     C26920  10.854   6.645   9.794 -0.5602 -0.3226  0.4916
  941MOL0     C26921  10.944   6.709   9.697 -0.0365 -0.9802 -0.1033
  941MOL0     C26922  11.080   6.723   9.757 -0.3331 -0.6521  0.7670
  941MOL0     C26923  11.165   6.808   9.658 -0.3444  0.4776 -0.1341
  941MOL0     O26924  11.185   6.937   9.715  0.2760 -0.5091 -0.3729
  941MOL0     C26925  11.184   7.041   9.625 -0.9350  0.2831  1.4085
  941MOL0     C26926  11.102   7.150   9.634 -0.6896  0.5853  0.5883
  941MOL0     C26927  11.114   7.265   9.547 -0.7461 -0.3309 -0.5824
  941MOL0     C26928  11.210   7.274   9.443  0.1441 -0.0203 -0.2358
  941MOL0     C26929  11.214   7.377   9.353 -0.4631 -0.4195 -0.2629
  941MOL0     O26930  11.142   7.488   9.377 -0.6312  0.0486 -0.0257
  941MOL0     C26931  11.134   7.581   9.279  0.6901  0.6505 -0.6298
  941MOL0     C26932  11.010   7.586   9.213 -0.1533 -0.5633  0.2406
  941MOL0     C26933  10.996   7.680   9.113 -0.3743 -0.9238 -0.3251
  941MOL0     C26934  11.101   7.768   9.081  0.1184  0.1993  0.9755
  941MOL0     O26935  11.075   7.874   8.989  0.6667  0.4963  0.6545
  941MOL0     C26936  11.177   7.927   8.897 -0.4687  0.7660 -0.3289
  941MOL0     C26937  11.109   8.051   8.834 -1.1334 -0.1381  1.3520
  941MOL0     C26938  11.202   8.106   8.722  0.3825 -0.7587 -1.2257
  941MOL0     C26939  11.146   8.231   8.653  0.3982  0.0185  0.3100
  941MOL0     C26940  11.026   8.199   8.560 -0.2888 -0.5623 -0.2518
  941MOL0     C26941  11.015   8.308   8.454  0.5725  0.3046 -0.3003
  941MOL0     C26942  10.878   8.279   8.390 -1.4345 -0.6504 -0.0769
  941MOL0     C26943  10.845   8.396   8.297  0.6804 -0.5830  0.4178
  941MOL0    Cl26944  10.689   8.331   8.204 -0.5607 -0.4770 -0.5603
  941MOL0     C26945  11.213   7.772   9.152  0.5859 -1.2206 -0.0685
  941MOL0     C26946  11.228   7.686   9.266  0.9793 -0.3576  0.0965
  941MOL0     O26947  11.293   7.364   9.261 -0.6918 -0.0751  0.7263
  941MOL0     C26948  11.283   7.153   9.424 -0.2278 -0.1887 -0.3638
  941MOL0     C26949  11.269   7.048   9.518  0.1846 -0.2215  0.1081
  941MOL0     N26950  10.742   6.433   9.690 -0.8956  0.5105  0.7820
  941MOL0     N26951  10.626   6.406   9.640 -0.5652 -0.2580 -0.4223
  941MOL0     C26952   9.672   6.900   9.230 -0.4668 -0.8093 -0.1261
  941MOL0     C26953   9.626   6.969   9.114  0.0628 -0.2693 -0.7671
  941MOL0     C26954   9.428   7.148   8.775  0.1684  0.0993  0.4403
  941MOL0     C26955   9.384   7.274   8.818 -0.1856  0.4451 -0.5238
  941MOL0     C26956   9.363   7.372   8.719 -0.6161  0.3035 -0.4664
  941MOL0     C26957   9.374   7.348   8.580 -0.4815 -0.0143  0.9018
  941MOL0     O26958   9.350   7.442   8.483  0.0230  0.0598 -0.1229
  941MOL0     C26959   9.307   7.567   8.520 -0.8948 -0.9102  0.0741
  941MOL0     C26960   9.301   7.668   8.405 -0.4521 -1.1987  0.1309
  941MOL0     C26961   9.195   7.626   8.309  0.0084  0.2670 -0.9442
  941MOL0     C26962   9.227   7.522   8.207 -0.0907 -0.4766 -0.0110
  941MOL0     C26963   9.116   7.479   8.135  0.6607  0.0470  0.1488
  941MOL0     C26964   9.023   7.424   8.072 -0.4316  0.0278 -0.1728
  941MOL0     C26965   9.412   7.223   8.544  0.4051 -0.1982 -0.3992
  941MOL0     C26966   9.446   7.120   8.635 -0.5941  0.2818  0.1655
  941MOL0     C26967   9.505   6.997   8.573  0.3601 -0.0508 -0.4990
  941MOL0     H26968   9.317   7.060   9.191  0.0928  0.5106 -1.5270
  941MOL0     H26969   9.378   6.929   9.400 -2.8591 -2.2056 -2.8758
  941MOL0     H26970   9.800   6.856   9.465 -0.9223  0.7726 -4.0659
  941MOL0     H26971   9.732   6.742   9.593  1.9190  0.1761 -0.0323
  941MOL0     H26972   9.779   6.664   9.291 -1.7981 -0.2928 -0.3567
  941MOL0     H26973   9.719   6.564   9.421 -0.2819  0.1497 -2.1550
  941MOL0     H26974   9.979   6.699   9.388  0.2410  0.1115 -1.2105
  941MOL0     H26975   9.959   6.524   9.351 -0.9592  1.3427 -2.0454
  941MOL0     H26976   9.906   6.634   9.636 -0.2498  2.1186 -2.1480
  941MOL0     H26977   9.922   6.462   9.586  0.7486 -0.7640 -3.0163
  941MOL0     H26978  10.149   6.485   9.508 -1.0948  0.7442 -1.3552
  941MOL0     H26979  10.148   6.650   9.556 -0.5721 -0.2647 -0.4193
  941MOL0     H26980  10.119   6.575   9.798  1.5737 -0.2984  0.8520
  941MOL0     H26981  10.174   6.417   9.730 -1.5970 -0.7263  0.2109
  941MOL0     H26982  10.365   6.515   9.794  0.5145  2.3845 -0.1265
  941MOL0     H26983  10.311   6.674   9.725 -0.3449 -0.1629  0.9394
  941MOL0     H26984  10.385   6.438   9.551  0.6439 -0.3061 -0.9155
  941MOL0     H26985  10.391   6.601   9.508  1.3796 -1.0001 -0.6817
  941MOL0     H26986  10.596   6.720   9.743  1.0630 -0.9368  3.0234
  941MOL0     H26987  10.821   6.726   9.860  0.3539  0.6397 -0.1962
  941MOL0     H26988  10.918   6.573   9.845  1.3926  1.1670  0.2688
  941MOL0     H26989  10.956   6.664   9.598  1.5351 -0.3120 -0.2603
  941MOL0     H26990  10.910   6.813   9.691  1.3282 -0.5043 -0.1412
  941MOL0     H26991  11.129   6.625   9.759  1.7025  0.2366 -1.4259
  941MOL0     H26992  11.074   6.776   9.853 -1.5246  1.4842 -0.4244
  941MOL0     H26993  11.136   6.810   9.552  1.9004 -1.4762 -0.8535
  941MOL0     H26994  11.262   6.759   9.647  0.2701  1.5953  0.1246
  941MOL0     H26995  11.033   7.166   9.716 -2.6395 -0.3374 -0.7689
  941MOL0     H26996  11.056   7.355   9.566 -0.5204  0.1298 -1.9165
  941MOL0     H26997  10.931   7.514   9.231 -1.1229  0.4827  0.2970
  941MOL0     H26998  10.900   7.694   9.064 -2.0096  0.3903  2.8915
  941MOL0     H26999  11.263   7.964   8.953 -2.3861  4.3543  0.5766
  941MOL0     H27000  11.201   7.847   8.827 -1.4384  0.9405 -0.8767
  941MOL0     H27001  11.010   8.026   8.796 -1.4164 -1.1814  2.7118
  941MOL0     H27002  11.099   8.133   8.905  0.5548 -0.5535  2.1168
  941MOL0     H27003  11.299   8.119   8.770 -1.1645 -2.2749  2.7360
  941MOL0     H27004  11.209   8.029   8.644  1.7280 -2.3845  0.4302
  941MOL0     H27005  11.223   8.257   8.580  0.0830  0.7228  0.2126
  941MOL0     H27006  11.127   8.315   8.721  1.2670  0.7572 -0.3325
  941MOL0     H27007  10.935   8.190   8.621  0.0747  2.9768  1.0761
  941MOL0     H27008  11.042   8.100   8.518  0.6138 -0.9983  1.0499
  941MOL0     H27009  11.018   8.410   8.495  1.9741 -0.5150  1.8228
  941MOL0     H27010  11.098   8.293   8.385 -1.3258 -1.7647 -2.2739
  941MOL0     H27011  10.809   8.266   8.474 -0.3686 -1.9410  0.6238
  941MOL0     H27012  10.882   8.181   8.344  1.0780 -1.9060  2.4973
  941MOL0     H27013  10.818   8.484   8.357  0.6574 -1.0319  1.0694
  941MOL0     H27014  10.918   8.427   8.222  1.9012 -4.2443 -0.1013
  941MOL0     H27015  11.264   7.867   9.139 -1.7212 -0.0036 -0.6426
  941MOL0     H27016  11.318   7.679   9.327  1.3131 -1.0608 -0.4579
  941MOL0     H27017  11.358   7.141   9.346  3.1779 -2.2350  2.8926
  941MOL0     H27018  11.336   6.965   9.499  1.1826  1.0671 -2.6023
  941MOL0     H27019   9.774   6.865   9.225 -0.0016  0.5461 -0.8513
  941MOL0     H27020   9.692   6.985   9.029 -0.5549  1.4778 -0.9647
  941MOL0     H27021   9.375   7.304   8.922 -1.0306 -0.7117 -0.2358
  941MOL0     H27022   9.349   7.472   8.757  1.3887  0.6664 -0.5789
  941MOL0     H27023   9.377   7.619   8.587 -2.5590  2.7165 -0.7311
  941MOL0     H27024   9.211   7.560   8.571 -0.7356 -0.3287  0.4686
  941MOL0     H27025   9.396   7.666   8.351 -0.1021 -4.6153  0.6260
  941MOL0     H27026   9.277   7.767   8.444  2.5519 -1.0741  2.0930
  941MOL0     H27027   9.170   7.717   8.255 -0.6400 -0.1314 -1.3269
  941MOL0     H27028   9.107   7.592   8.364  0.9742  1.5279  1.4924
  941MOL0     H27029   9.288   7.561   8.124 -2.0432 -1.1672 -1.8602
  941MOL0     H27030   9.271   7.432   8.251  0.5849 -1.0613 -1.7979
  941MOL0     H27031   8.947   7.367   8.022  3.2667 -4.1464 -1.7042
  941MOL0     H27032   9.411   7.202   8.438 -0.3027 -2.3221 -0.0259
  941MOL0     H27033   9.548   7.022   8.475  1.5624  1.4213  0.3550
  941MOL0     H27034   9.588   6.964   8.636  1.7852  0.1065 -2.2245
  941MOL0     H27035   9.434   6.914   8.568  0.4601 -0.0794 -3.6685
  942MOL0     O27036   5.075  10.107   7.741  0.9303  0.9476 -0.5275
  942MOL0     C27037   4.966  10.138   7.686  1.2889 -0.4111 -0.2649
  942MOL0     O27038   4.939  10.242   7.613  0.3842  0.1604 -0.6214
  942MOL0     C27039   5.039  10.341   7.617  0.2015 -0.7639 -0.8950
  942MOL0     C27040   5.084  10.406   7.737 -0.6673  0.3052 -0.0110
  942MOL0     C27041   5.188  10.504   7.735 -0.4435 -0.0432  0.7734
  942MOL0     C27042   5.245  10.544   7.615  0.4150  0.4318  0.5179
  942MOL0     O27043   5.338  10.637   7.602 -0.1344  0.4476 -0.5426
  942MOL0     C27044   5.470  10.594   7.638  0.1349 -0.6660  0.5222
  942MOL0     C27045   5.544  10.607   7.510 -0.8021  0.4136 -0.3210
  942MOL0     C27046   5.688  10.565   7.527 -0.1427 -1.1178 -0.3877
  942MOL0     C27047   5.750  10.569   7.390 -0.1912  0.3006 -0.6204
  942MOL0     C27048   5.888  10.518   7.382 -0.0621  0.0756 -0.4452
  942MOL0     C27049   5.996  10.630   7.392  0.7841  0.0714 -0.9467
  942MOL0     C27050   6.046  10.644   7.543  0.4749  0.4960  0.8685
  942MOL0     C27051   6.147  10.760   7.570 -0.3651  0.7798 -0.1420
  942MOL0     N27052   6.279  10.719   7.517 -0.1573 -0.5914  0.0903
  942MOL0     C27053   6.369  10.637   7.578 -0.1502  0.7589  0.1515
  942MOL0     C27054   6.467  10.611   7.491 -0.6588  0.3103 -0.2128
  942MOL0     C27055   6.600  10.545   7.510  0.2657  0.2569  0.2007
  942MOL0     C27056   6.659  10.557   7.659 -0.0271  0.5670 -0.3744
  942MOL0     C27057   6.707  10.693   7.688 -0.0941  0.0082  0.0375
  942MOL0     C27058   6.746  10.697   7.845 -0.1040  0.2595 -0.4631
  942MOL0     O27059   6.839  10.597   7.884 -0.1919  0.2495  0.0397
  942MOL0     C27060   6.974  10.621   7.874 -0.4352  0.2806 -0.4713
  942MOL0     C27061   7.058  10.514   7.896  0.2328 -0.4663 -0.1687
  942MOL0     C27062   7.199  10.528   7.900  0.6226  0.2839 -0.0817
  942MOL0     C27063   7.253  10.652   7.855 -0.2677 -0.2381  0.1278
  942MOL0     C27064   7.397  10.665   7.824 -0.7108 -0.6934  0.4171
  942MOL0     O27065   7.465  10.572   7.884 -0.5096 -0.7284 -0.4551
  942MOL0     C27066   7.596  10.554   7.833  0.2405  0.0985  0.0585
  942MOL0     C27067   7.622  10.517   7.699 -0.3928  0.7485 -0.9903
  942MOL0     C27068   7.753  10.524   7.646 -0.5643 -0.0257  0.3866
  942MOL0     C27069   7.864  10.563   7.728  0.1802  0.2857 -0.6380
  942MOL0     O27070   7.979  10.572   7.658  0.3544  0.4210 -0.4563
  942MOL0     C27071   8.093  10.623   7.726 -0.0867 -0.1294 -0.3583
  942MOL0     C27072   8.216  10.604   7.641 -0.4395 -1.2626  0.6272
  942MOL0     C27073   8.268  10.462   7.644  0.1348  0.2406  0.6493
  942MOL0     C27074   8.333  10.434   7.504 -0.3561 -0.5599 -0.7008
  942MOL0     C27075   8.412  10.305   7.497  0.8458 -0.0835 -0.0111
  942MOL0     C27076   8.476  10.274   7.366 -0.4321  0.5333  0.4202
  942MOL0     C27077   8.535  10.125   7.355  1.1074  0.0426 -0.3944
  942MOL0     C27078   8.571  10.100   7.203 -0.7527  0.7105  0.5413
  942MOL0    Cl27079   8.700   9.968   7.190  0.3827  0.4184  0.0782
  942MOL0     C27080   7.840  10.586   7.866  0.0515 -0.7266  0.2380
  942MOL0     C27081   7.707  10.582   7.917  0.4683  0.0545  0.1298
  942MOL0     O27082   7.433  10.746   7.740 -0.0698 -0.3360  0.1870
  942MOL0     C27083   7.162  10.758   7.816 -0.0286  1.0203 -0.1357
  942MOL0     C27084   7.021  10.739   7.826 -0.1362  0.5622  0.9590
  942MOL0     N27085   6.427  10.673   7.367 -0.7654 -0.1652  0.4009
  942MOL0     N27086   6.316  10.737   7.385 -0.3192 -0.2973  0.6931
  942MOL0     C27087   5.189  10.479   7.500 -0.1139 -0.0489 -0.8558
  942MOL0     C27088   5.089  10.380   7.501 -0.4495  0.5732  0.1512
  942MOL0     C27089   4.859  10.032   7.691 -0.0688 -0.2451  0.5347
  942MOL0     C27090   4.763  10.045   7.593 -0.1058  0.0289 -0.0459
  942MOL0     C27091   4.665   9.944   7.575  0.2844 -0.3178 -0.1567
  942MOL0     C27092   4.664   9.826   7.657  1.1404  1.6663  0.8992
  942MOL0     O27093   4.575   9.726   7.632  0.4669  0.0110 -0.3088
  942MOL0     C27094   4.626   9.592   7.642  0.2271  0.7088  0.0664
  942MOL0     C27095   4.527   9.499   7.574 -0.3205  0.8762 -0.8711
  942MOL0     C27096   4.519   9.362   7.657  0.3788 -0.6126  0.5019
  942MOL0     C27097   4.647   9.275   7.642 -0.0546  1.3577  0.4012
  942MOL0     C27098   4.648   9.164   7.742  0.0425 -1.4381 -0.2483
  942MOL0     C27099   4.634   9.102   7.847 -0.0041  0.2047 -0.1204
  942MOL0     C27100   4.756   9.827   7.760 -0.2666 -0.2033 -0.1729
  942MOL0     C27101   4.848   9.932   7.780  0.5829  0.1601  0.2046
  942MOL0     C27102   4.944   9.905   7.895  0.1586 -0.0530  0.7214
  942MOL0     H27103   5.038  10.374   7.830 -3.7718  5.5598  0.6771
  942MOL0     H27104   5.231  10.540   7.828  0.6445 -3.4446  1.7265
  942MOL0     H27105   5.521  10.653   7.715  0.0657  0.1717 -0.0694
  942MOL0     H27106   5.472  10.493   7.680 -0.8704 -1.4250 -1.1507
  942MOL0     H27107   5.533  10.706   7.466  1.2282  1.4838  1.4158
  942MOL0     H27108   5.498  10.537   7.439 -0.4956 -1.7757  1.5171
  942MOL0     H27109   5.698  10.466   7.572  2.4599 -0.8304 -0.1881
  942MOL0     H27110   5.742  10.639   7.589 -1.3551 -1.4571  1.1453
  942MOL0     H27111   5.700  10.511   7.312  2.1977 -1.8349 -0.7064
  942MOL0     H27112   5.745  10.673   7.356  3.3075  0.8479  0.1736
  942MOL0     H27113   5.909  10.454   7.468 -0.0720  1.6045  0.7467
  942MOL0     H27114   5.904  10.468   7.286 -1.9823  0.0221 -0.7663
  942MOL0     H27115   6.086  10.608   7.333  2.4741 -1.0346  1.8443
  942MOL0     H27116   5.964  10.730   7.362  0.4908  1.6140  3.7062
  942MOL0     H27117   6.080  10.549   7.585  1.0167 -0.0954 -0.8134
  942MOL0     H27118   5.961  10.682   7.601  0.3629 -1.6749  2.2446
  942MOL0     H27119   6.115  10.848   7.514 -1.9600 -1.0644 -2.3862
  942MOL0     H27120   6.143  10.772   7.678  0.0586 -1.9255  0.2459
  942MOL0     H27121   6.351  10.596   7.678  0.0207 -1.0289 -0.5051
  942MOL0     H27122   6.594  10.440   7.477 -1.7553  0.1707  0.6975
  942MOL0     H27123   6.665  10.583   7.431 -0.8054  0.0482 -0.8292
  942MOL0     H27124   6.571  10.525   7.715 -3.4792  4.0898 -3.1780
  942MOL0     H27125   6.748  10.494   7.659 -0.4076  0.0165 -0.4390
  942MOL0     H27126   6.628  10.765   7.665 -2.1136 -1.5049  1.8368
  942MOL0     H27127   6.792  10.710   7.622 -0.5780 -1.0249 -0.8806
  942MOL0     H27128   6.656  10.670   7.902  1.3957 -2.3348  0.8640
  942MOL0     H27129   6.776  10.800   7.867 -0.3162  1.3831 -4.6458
  942MOL0     H27130   7.007  10.422   7.926  1.8137 -1.0712  0.7861
  942MOL0     H27131   7.250  10.443   7.944  1.2233  0.4250 -0.4878
  942MOL0     H27132   7.541  10.502   7.628 -3.2111  2.3711  1.6400
  942MOL0     H27133   7.764  10.508   7.539 -3.1590  3.2460 -0.5286
  942MOL0     H27134   8.071  10.728   7.746 -1.5600 -0.4113 -0.3870
  942MOL0     H27135   8.112  10.574   7.821 -3.3513 -0.8211  0.0512
  942MOL0     H27136   8.195  10.628   7.537  2.2296 -2.2838 -0.2354
  942MOL0     H27137   8.293  10.673   7.679 -0.9142 -2.0550  3.2675
  942MOL0     H27138   8.340  10.455   7.726  1.8207 -1.6346 -0.9087
  942MOL0     H27139   8.186  10.392   7.663  0.0436  0.1840  0.0475
  942MOL0     H27140   8.402  10.516   7.483 -0.0949 -0.4936  0.3232
  942MOL0     H27141   8.266  10.443   7.419 -0.5814  1.4517 -0.3502
  942MOL0     H27142   8.327  10.238   7.508 -0.4819  1.0082 -2.6877
  942MOL0     H27143   8.473  10.290   7.587 -1.3329 -1.3011  1.3634
  942MOL0     H27144   8.405  10.284   7.284  2.2500  0.8199 -2.0609
  942MOL0     H27145   8.560  10.340   7.343  0.7059 -0.7847  0.5934
  942MOL0     H27146   8.456  10.059   7.392  2.5424 -1.8449 -0.5267
  942MOL0     H27147   8.622  10.110   7.420  1.5718  0.3506 -0.9306
  942MOL0     H27148   8.476  10.080   7.153  0.2832 -0.0062 -1.2493
  942MOL0     H27149   8.609  10.190   7.153 -2.4086  1.4644  0.5854
  942MOL0     H27150   7.933  10.591   7.921 -0.7064  2.2985  1.4714
  942MOL0     H27151   7.682  10.597   8.022  1.5009  0.6215  0.3111
  942MOL0     H27152   7.189  10.855   7.774  0.2032  1.2216  0.4700
  942MOL0     H27153   6.962  10.825   7.797 -0.1804  0.1675 -0.1409
  942MOL0     H27154   5.206  10.520   7.400  0.8285  0.5227 -0.4716
  942MOL0     H27155   5.053  10.330   7.412  1.3697  0.0908 -0.3640
  942MOL0     H27156   4.767  10.131   7.527  3.1983  0.7466  0.9139
  942MOL0     H27157   4.594   9.959   7.495 -2.1945  0.8235  2.1035
  942MOL0     H27158   4.653   9.567   7.745 -1.7443 -3.5986 -0.2718
  942MOL0     H27159   4.715   9.581   7.579 -0.4472 -1.4395 -0.5677
  942MOL0     H27160   4.540   9.486   7.466 -2.0840 -1.2460 -0.9166
  942MOL0     H27161   4.428   9.544   7.575  0.4249  2.6155 -1.7450
  942MOL0     H27162   4.429   9.311   7.620 -0.5435  2.2242 -1.5763
  942MOL0     H27163   4.504   9.392   7.762  1.1165  1.0381  0.1600
  942MOL0     H27164   4.649   9.239   7.538  2.8563  0.3815  0.7157
  942MOL0     H27165   4.740   9.331   7.655 -0.4520  1.4952  3.1185
  942MOL0     H27166   4.623   9.045   7.937 -4.0925 -1.1580 -1.2591
  942MOL0     H27167   4.768   9.749   7.834 -0.1794  3.5029  4.2254
  942MOL0     H27168   4.934   9.981   7.973 -1.3770 -1.8292  2.3596
  942MOL0     H27169   4.930   9.804   7.934  3.8519 -1.3701 -0.9603
  942MOL0     H27170   5.043   9.903   7.849 -1.3991 -2.2544 -3.0034
  943MOL0     O27171   9.961   9.833   8.212 -1.1439  0.0886 -0.8422
  943MOL0     C27172   9.998   9.715   8.181  0.6807 -0.7787  0.8282
  943MOL0     O27173  10.129   9.673   8.195  0.4544  0.6901  0.3581
  943MOL0     C27174  10.233   9.758   8.214 -0.4982  0.6901 -0.0502
  943MOL0     C27175  10.244   9.903   8.211  0.6721  0.0109 -0.5427
  943MOL0     C27176  10.354   9.967   8.273  0.3870 -0.2492 -0.5426
  943MOL0     C27177  10.456   9.902   8.326  0.2364 -0.3440  0.9575
  943MOL0     O27178  10.563   9.981   8.367 -0.1274  0.1083  0.1443
  943MOL0     C27179  10.621   9.936   8.491 -0.2994  0.2920 -0.6559
  943MOL0     C27180  10.744   9.848   8.469  0.8604  0.2728  0.6599
  943MOL0     C27181  10.855   9.915   8.391 -0.3432 -0.5638  0.4595
  943MOL0     C27182  10.981   9.816   8.399  0.2930  0.7039 -0.2880
  943MOL0     C27183  11.110   9.869   8.335 -1.1900 -0.1757 -0.1219
  943MOL0     C27184  11.218   9.899   8.448  0.4167  0.0972  0.2348
  943MOL0     C27185  11.337   9.986   8.391 -0.4240 -0.3545  0.2600
  943MOL0     C27186  11.429  10.007   8.511 -0.1294  0.7792  0.2499
  943MOL0     N27187  11.537  10.098   8.475  0.6428  0.1679 -0.9392
  943MOL0     C27188  11.646  10.082   8.383 -0.3327  0.2205 -0.3835
  943MOL0     C27189  11.708  10.210   8.375 -1.7029  0.5152  0.2475
  943MOL0     C27190  11.820  10.263   8.287 -0.4717 -0.0561  0.0886
  943MOL0     C27191  11.789  10.287   8.138 -0.0804 -0.8547 -0.5949
  943MOL0     C27192  11.651  10.364   8.129  0.1133 -0.5345  0.3347
  943MOL0     C27193  11.634  10.423   7.994  0.6013  0.3611  0.2951
  943MOL0     O27194  11.511  10.501   7.976 -0.1520 -0.3505 -0.1153
  943MOL0     C27195  11.385  10.452   7.991  0.2047 -0.4939  0.6420
  943MOL0     C27196  11.360  10.318   7.999  0.9623  0.3979 -0.1246
  943MOL0     C27197  11.236  10.263   8.031  0.2396 -0.6244  1.0563
  943MOL0     C27198  11.122  10.353   8.032 -0.1160  0.4824 -0.2205
  943MOL0     C27199  10.983  10.306   8.056  1.0384 -0.3037 -1.3755
  943MOL0     O27200  10.879  10.385   8.006  0.0438 -0.4111  0.7316
  943MOL0     C27201  10.742  10.359   8.016 -0.5445 -0.6755  0.0068
  943MOL0     C27202  10.657  10.468   7.987 -0.5104  0.2944 -0.2667
  943MOL0     C27203  10.521  10.450   7.991 -0.6432 -1.0337  0.5950
  943MOL0     C27204  10.463  10.338   8.039 -1.1710 -0.1457 -0.5640
  943MOL0     O27205  10.327  10.319   8.021 -0.1598 -0.8936 -0.5255
  943MOL0     C27206  10.279  10.238   7.915  0.4397  0.0884  0.4591
  943MOL0     C27207  10.131  10.197   7.929  0.6853  0.3473  0.3556
  943MOL0     C27208  10.085  10.104   7.819 -0.0245 -0.2082  0.2237
  943MOL0     C27209  10.097   9.951   7.850  0.8012 -0.1177  0.0156
  943MOL0     C27210   9.999   9.872   7.768 -1.1414 -0.1799 -0.5146
  943MOL0     C27211  10.012   9.723   7.786 -0.1462 -1.2160  0.3265
  943MOL0     C27212   9.889   9.656   7.742 -0.1894  0.0652  0.1189
  943MOL0     C27213   9.902   9.505   7.739 -0.6008 -0.3226  1.0766
  943MOL0    Cl27214  10.008   9.458   7.613 -0.3008 -0.0286  0.0259
  943MOL0     C27215  10.541  10.228   8.067  0.3418 -0.1635  1.2853
  943MOL0     C27216  10.681  10.232   8.052 -0.0966  0.2040  0.0010
  943MOL0     O27217  10.963  10.204   8.127 -0.3974 -0.4615 -0.7664
  943MOL0     C27218  11.149  10.495   8.021 -0.1526 -0.1287  0.4009
  943MOL0     C27219  11.277  10.536   7.996 -0.6844  0.2824  0.3088
  943MOL0     N27220  11.643  10.285   8.470 -0.2764 -0.4379 -0.3310
  943MOL0     N27221  11.555  10.220   8.535  0.4971 -0.2698 -0.1804
  943MOL0     C27222  10.449   9.761   8.326  0.2056 -1.2114  0.4766
  943MOL0     C27223  10.340   9.690   8.271 -0.3627  0.5319  0.0082
  943MOL0     C27224   9.888   9.622   8.144  0.1020  0.4060 -0.1898
  943MOL0     C27225   9.761   9.675   8.129 -0.1739 -0.0068 -0.1603
  943MOL0     C27226   9.649   9.598   8.091  0.8024  1.0658  0.3004
  943MOL0     C27227   9.665   9.458   8.061 -0.7880  0.1139  0.3983
  943MOL0     O27228   9.562   9.379   8.019  0.1716 -0.6502 -0.0601
  943MOL0     C27229   9.582   9.245   7.985  0.3119  0.6953 -0.2026
  943MOL0     C27230   9.482   9.192   7.889  0.2744 -0.3689  0.9353
  943MOL0     C27231   9.476   9.262   7.751 -0.5520  0.1446  0.6150
  943MOL0     C27232   9.577   9.204   7.653  0.2109  0.3809  0.6718
  943MOL0     C27233   9.567   9.286   7.528  0.0798  0.8440 -0.4711
  943MOL0     C27234   9.570   9.375   7.447 -0.3400 -0.6679 -0.5923
  943MOL0     C27235   9.798   9.408   8.074  0.2867  0.5431  0.2707
  943MOL0     C27236   9.908   9.486   8.105 -0.3094 -0.4461  0.2983
  943MOL0     C27237  10.041   9.424   8.122 -0.2739 -0.6453  0.1224
  943MOL0     H27238  10.157   9.961   8.182 -3.2400 -3.0890  3.5057
  943MOL0     H27239  10.352  10.075   8.273 -2.7250 -0.2351 -0.6993
  943MOL0     H27240  10.647  10.029   8.543  1.0437 -0.9413  0.9787
  943MOL0     H27241  10.551   9.880   8.554 -0.9243  0.1381 -1.4672
  943MOL0     H27242  10.716   9.756   8.416  1.0192 -0.4963  1.8789
  943MOL0     H27243  10.779   9.822   8.569 -1.0346  0.4749  1.4285
  943MOL0     H27244  10.883  10.009   8.439 -1.1418  0.9381 -1.8765
  943MOL0     H27245  10.826   9.932   8.287 -1.6738  1.5867  1.1325
  943MOL0     H27246  11.013   9.792   8.501 -0.9697  0.3716  0.0509
  943MOL0     H27247  10.951   9.718   8.358 -0.2577  0.6092  0.3291
  943MOL0     H27248  11.144   9.795   8.262  1.3840  0.6185  0.1720
  943MOL0     H27249  11.097   9.958   8.271  3.5063 -1.2843 -3.1635
  943MOL0     H27250  11.164   9.958   8.523  1.3207  2.3934 -0.8438
  943MOL0     H27251  11.248   9.804   8.492 -1.3828 -2.3643 -3.3211
  943MOL0     H27252  11.300  10.085   8.363  3.2874  1.2471  0.5247
  943MOL0     H27253  11.395   9.947   8.307  2.0045 -0.6129  1.9844
  943MOL0     H27254  11.385  10.046   8.604  1.1321 -1.8622  2.0778
  943MOL0     H27255  11.481   9.914   8.535 -1.8158 -0.1034  0.5762
  943MOL0     H27256  11.660   9.998   8.316 -1.3954 -2.1195  2.1308
  943MOL0     H27257  11.852  10.358   8.330  0.7230 -1.3562  2.2741
  943MOL0     H27258  11.913  10.209   8.307 -1.0503 -1.1655 -0.1515
  943MOL0     H27259  11.864  10.344   8.083 -0.0340 -1.3469 -1.0432
  943MOL0     H27260  11.787  10.185   8.099  1.2525 -0.5122 -1.6235
  943MOL0     H27261  11.645  10.450   8.197 -2.3061  1.0715 -1.7430
  943MOL0     H27262  11.564  10.303   8.153 -1.1841  0.5334 -1.3663
  943MOL0     H27263  11.636  10.344   7.919  1.0464  0.1990  0.4719
  943MOL0     H27264  11.714  10.493   7.967  0.3814 -0.1023 -1.6682
  943MOL0     H27265  11.436  10.241   8.010  0.5349  0.2764  2.8233
  943MOL0     H27266  11.231  10.155   8.038 -3.9171 -0.6964 -0.2445
  943MOL0     H27267  10.701  10.566   7.973  0.1373  0.1356  0.5988
  943MOL0     H27268  10.463  10.537   7.960  0.3978 -0.5197  0.0107
  943MOL0     H27269  10.295  10.281   7.816 -1.4723 -4.5116 -2.1973
  943MOL0     H27270  10.338  10.145   7.917 -1.0401 -0.8883  1.3805
  943MOL0     H27271  10.109  10.152   8.026 -0.4968 -1.8674 -0.8687
  943MOL0     H27272  10.081  10.295   7.931  1.9652  1.1013 -1.5278
  943MOL0     H27273   9.979  10.129   7.805 -1.0340 -2.5049  2.8810
  943MOL0     H27274  10.143  10.128   7.729  4.1009 -1.6403  2.2260
  943MOL0     H27275  10.053   9.954   7.950  1.8915  1.9494  0.4871
  943MOL0     H27276  10.186   9.887   7.853 -2.2902 -4.8481  0.2423
  943MOL0     H27277  10.028   9.902   7.667  4.1284  0.1846  0.8409
  943MOL0     H27278   9.897   9.902   7.793 -1.0010 -0.2607  0.1788
  943MOL0     H27279  10.103   9.689   7.736 -0.7885 -3.1757  0.3937
  943MOL0     H27280  10.022   9.707   7.894 -1.5755  2.3585  1.1236
  943MOL0     H27281   9.866   9.676   7.637  0.1346 -3.8660 -0.8329
  943MOL0     H27282   9.810   9.677   7.814  0.9600  1.0072  1.1657
  943MOL0     H27283   9.943   9.470   7.834  3.1286 -1.5545 -0.7950
  943MOL0     H27284   9.806   9.454   7.724 -0.2691 -0.3401 -1.4009
  943MOL0     H27285  10.481  10.142   8.091 -3.9985  2.2554  0.1317
  943MOL0     H27286  10.745  10.145   8.065 -0.5385 -0.2793 -0.9610
  943MOL0     H27287  11.069  10.567   8.033 -2.0195 -2.2679  1.6870
  943MOL0     H27288  11.290  10.644   7.988  3.3309  0.3850  4.3298
  943MOL0     H27289  10.517   9.698   8.383 -0.3328 -0.1284  2.3962
  943MOL0     H27290  10.341   9.581   8.281 -0.1421  0.5627  0.3602
  943MOL0     H27291   9.733   9.780   8.134  1.5322  0.6595 -2.6330
  943MOL0     H27292   9.555   9.652   8.087  1.1477  1.6231 -0.6399
  943MOL0     H27293   9.559   9.184   8.073  2.4018  0.1063  0.0084
  943MOL0     H27294   9.683   9.222   7.949 -0.3894 -1.5084 -0.8793
  943MOL0     H27295   9.382   9.187   7.934 -0.1058 -1.7046 -0.0085
  943MOL0     H27296   9.494   9.086   7.868 -1.5614 -0.3956 -0.1644
  943MOL0     H27297   9.483   9.370   7.766 -0.2997 -0.0441  1.9432
  943MOL0     H27298   9.372   9.249   7.720 -1.1014  3.7343  0.6282
  943MOL0     H27299   9.673   9.201   7.705 -1.0221 -1.5290  3.0680
  943MOL0     H27300   9.562   9.096   7.648 -1.0234  0.4251  2.2868
  943MOL0     H27301   9.571   9.446   7.367  3.7906 -0.9678 -0.9999
  943MOL0     H27302   9.829   9.304   8.073  0.3945  0.5587 -1.8687
  943MOL0     H27303  10.113   9.464   8.050  1.5141 -1.2370  1.4989
  943MOL0     H27304  10.082   9.446   8.221 -2.4015  1.0290  0.7157
  943MOL0     H27305  10.056   9.316   8.112  3.3136 -0.2124 -0.3159
  944MOL0     O27306   6.650  10.349   0.843 -0.6325 -0.0899  0.0380
  944MOL0     C27307   6.618  10.460   0.821  0.2210 -1.8254 -0.1302
  944MOL0     O27308   6.556  10.507   0.704 -0.0218  0.7700  0.1944
  944MOL0     C27309   6.567  10.452   0.580 -0.1523 -0.3874 -0.0117
  944MOL0     C27310   6.651  10.347   0.536  0.4574 -0.6850 -0.9946
  944MOL0     C27311   6.628  10.289   0.407  0.5312 -0.2886  0.1497
  944MOL0     C27312   6.523  10.334   0.326  0.1180 -0.3119 -0.3349
  944MOL0     O27313   6.521  10.279   0.202 -0.2695  1.1602  0.2339
  944MOL0     C27314   6.519  10.373   0.093  0.2021 -0.1870  0.0608
  944MOL0     C27315   6.586  10.302  -0.024 -0.4702  0.3610  0.0159
  944MOL0     C27316   6.739  10.302  -0.005  0.7718  0.2519 -0.4022
  944MOL0     C27317   6.805  10.230  -0.128  0.1513 -0.6138 -0.0568
  944MOL0     C27318   6.754  10.282  -0.264  0.4899  0.6932 -0.2254
  944MOL0     C27319   6.767  10.433  -0.301  1.2431 -0.0001 -0.2421
  944MOL0     C27320   6.913  10.462  -0.291  0.7553 -0.2122  0.3723
  944MOL0     C27321   6.953  10.611  -0.318  0.3112  0.2053  0.4542
  944MOL0     N27322   6.904  10.671  -0.443 -0.3159  0.2413 -0.3783
  944MOL0     C27323   6.965  10.661  -0.568 -0.5395 -0.5513 -0.5132
  944MOL0     C27324   6.900  10.756  -0.639  0.1040  0.3277  0.5929
  944MOL0     C27325   6.902  10.787  -0.782 -0.9305 -0.4561  0.5290
  944MOL0     C27326   7.040  10.754  -0.847  0.4225  0.2015  0.1606
  944MOL0     C27327   7.068  10.810  -0.986 -0.0353 -0.0516  0.0021
  944MOL0     C27328   7.092  10.951  -1.000  0.2357 -0.9646  0.5269
  944MOL0     O27329   7.164  11.018  -0.886 -0.3219  0.0783  0.5402
  944MOL0     C27330   7.301  11.003  -0.877 -0.7268 -0.4465 -0.0790
  944MOL0     C27331   7.376  10.936  -0.972 -0.1857  0.3242 -0.5353
  944MOL0     C27332   7.515  10.901  -0.954  0.2893 -0.3741  0.1079
  944MOL0     C27333   7.585  10.949  -0.845  0.1847  0.1673 -0.7362
  944MOL0     C27334   7.725  10.911  -0.809  0.7583 -0.5773  1.3208
  944MOL0     O27335   7.782  10.820  -0.890  0.4020 -0.6489 -0.3216
  944MOL0     C27336   7.895  10.766  -0.842 -0.0567 -0.1016  0.7959
  944MOL0     C27337   7.891  10.664  -0.744 -0.5531 -0.4583  0.0947
  944MOL0     C27338   8.010  10.606  -0.686  0.8701  0.8358  0.1708
  944MOL0     C27339   8.136  10.637  -0.739 -0.0996  0.4863  1.5617
  944MOL0     O27340   8.245  10.582  -0.671  0.2885  0.6435  0.5984
  944MOL0     C27341   8.354  10.530  -0.750  0.4846  1.1958  1.3747
  944MOL0     C27342   8.310  10.393  -0.828  0.0566 -0.1740  0.2204
  944MOL0     C27343   8.421  10.332  -0.918  0.3674 -0.0838 -0.0255
  944MOL0     C27344   8.517  10.251  -0.834  0.3697  0.8021  0.3902
  944MOL0     C27345   8.602  10.159  -0.928  0.2457 -1.3789 -0.1109
  944MOL0     C27346   8.713  10.083  -0.867  0.7937  0.0682  0.3690
  944MOL0     C27347   8.826  10.032  -0.965 -0.1503  0.4640 -0.0005
  944MOL0     C27348   8.770   9.941  -1.074  0.1756  0.4396  0.5456
  944MOL0    Cl27349   8.699   9.793  -0.994 -0.0788  0.3113 -0.5809
  944MOL0     C27350   8.141  10.724  -0.848 -0.2901 -0.3036 -0.9802
  944MOL0     C27351   8.028  10.793  -0.895 -0.5501  0.3406  0.3891
  944MOL0     O27352   7.766  10.945  -0.703  0.3561  0.0053  0.1594
  944MOL0     C27353   7.518  11.025  -0.754 -0.4877 -0.2169  0.3515
  944MOL0     C27354   7.380  11.058  -0.770  0.7300 -0.0168  0.6237
  944MOL0     N27355   6.794  10.803  -0.563 -0.2457 -0.4437  0.3269
  944MOL0     N27356   6.806  10.760  -0.446  0.7744 -0.0016 -0.6210
  944MOL0     C27357   6.447  10.444   0.361  0.8208  0.0430 -0.8920
  944MOL0     C27358   6.464  10.501   0.488 -0.1477 -0.6161  0.3522
  944MOL0     C27359   6.650  10.562   0.926  0.7911 -0.1342 -0.1453
  944MOL0     C27360   6.783  10.572   0.958 -0.2102  0.2447  0.6578
  944MOL0     C27361   6.835  10.677   1.032 -1.1113  0.0524  0.4132
  944MOL0     C27362   6.751  10.764   1.098 -0.0802 -0.7662 -0.7126
  944MOL0     O27363   6.802  10.848   1.190  0.6831  0.2862  0.0084
  944MOL0     C27364   6.712  10.880   1.301  0.0793  0.1948 -0.0754
  944MOL0     C27365   6.807  10.939   1.402  0.4394 -0.1390  0.3665
  944MOL0     C27366   6.730  10.973   1.531  0.4719 -0.3042 -0.6782
  944MOL0     C27367   6.818  10.985   1.647 -0.0128 -0.1832  0.3860
  944MOL0     C27368   6.875  11.120   1.659  0.1440  0.8528  0.1845
  944MOL0     C27369   6.923  11.230   1.643 -0.1119  0.0385 -0.9738
  944MOL0     C27370   6.617  10.754   1.067 -0.5531 -0.0349  0.7144
  944MOL0     C27371   6.567  10.663   0.974 -0.0634 -0.2879  0.8321
  944MOL0     C27372   6.430  10.694   0.932 -0.1233  0.6288  0.2795
  944MOL0     H27373   6.718  10.296   0.605 -1.1954 -3.4482 -1.2703
  944MOL0     H27374   6.684  10.210   0.359 -1.4302 -0.2354 -2.4661
  944MOL0     H27375   6.416  10.402   0.069  1.0438  0.7711 -2.8153
  944MOL0     H27376   6.574  10.465   0.115 -1.8345  0.8526  1.1351
  944MOL0     H27377   6.559  10.356  -0.116 -0.1128 -1.8634 -1.4727
  944MOL0     H27378   6.540  10.205  -0.043 -2.4967  1.6655 -2.3188
  944MOL0     H27379   6.779  10.251   0.083 -1.3751 -4.2227 -1.7025
  944MOL0     H27380   6.770  10.406   0.005 -0.3510  0.4949  0.7303
  944MOL0     H27381   6.913  10.238  -0.121  0.5491 -3.9713 -0.8333
  944MOL0     H27382   6.793  10.121  -0.120  0.9467 -0.5810  2.9779
  944MOL0     H27383   6.809  10.221  -0.336  2.8544  2.8647 -0.3906
  944MOL0     H27384   6.647  10.257  -0.271  0.6546 -0.2667  0.5284
  944MOL0     H27385   6.717  10.461  -0.394 -3.5100  0.4563  2.1372
  944MOL0     H27386   6.705  10.487  -0.228 -2.3444 -1.8456 -1.6766
  944MOL0     H27387   6.959  10.392  -0.360  0.0492 -0.8003  0.4918
  944MOL0     H27388   6.957  10.432  -0.195  0.2547 -1.8378  0.1118
  944MOL0     H27389   6.931  10.668  -0.228  2.0134 -0.0321  1.0713
  944MOL0     H27390   7.062  10.624  -0.316  0.1500  1.7393  0.7170
  944MOL0     H27391   7.041  10.590  -0.600  1.4572  0.8509  0.8486
  944MOL0     H27392   6.829  10.724  -0.834 -2.4693  1.3088  0.4453
  944MOL0     H27393   6.884  10.894  -0.795  0.3479  0.0080  2.2138
  944MOL0     H27394   7.130  10.788  -0.794  2.2453 -0.1012 -2.5107
  944MOL0     H27395   7.056  10.646  -0.847  0.6236  0.2302 -0.1206
  944MOL0     H27396   6.990  10.776  -1.054  1.8572 -3.2868 -0.7342
  944MOL0     H27397   7.158  10.757  -1.018 -2.0338 -1.1376 -4.4908
  944MOL0     H27398   6.993  10.997  -1.000 -0.2257 -1.9300  0.7670
  944MOL0     H27399   7.135  10.973  -1.099 -1.8622 -4.6786 -1.4592
  944MOL0     H27400   7.327  10.901  -1.062  1.3966  1.4357 -1.8659
  944MOL0     H27401   7.566  10.851  -1.036  0.4862 -1.9728  1.1598
  944MOL0     H27402   7.796  10.633  -0.703 -1.5304 -0.2118 -1.8772
  944MOL0     H27403   8.002  10.544  -0.598  1.7932  2.0284  1.1391
  944MOL0     H27404   8.393  10.597  -0.827 -4.0207 -1.6488 -4.0797
  944MOL0     H27405   8.429  10.501  -0.675  0.4585 -2.2283  0.2586
  944MOL0     H27406   8.276  10.317  -0.757 -0.4098  0.5532  0.7773
  944MOL0     H27407   8.224  10.413  -0.893 -0.2711 -1.2535  0.3028
  944MOL0     H27408   8.374  10.274  -0.997  1.7781  1.7540 -2.3781
  944MOL0     H27409   8.478  10.408  -0.973  0.4437 -0.7595 -0.8947
  944MOL0     H27410   8.472  10.191  -0.755 -0.7876  2.6804  1.2281
  944MOL0     H27411   8.571  10.318  -0.767 -0.1550 -0.9923  2.7449
  944MOL0     H27412   8.655  10.220  -1.001  1.7261 -1.8316  0.5492
  944MOL0     H27413   8.530  10.097  -0.983 -1.3950  2.0845 -2.1696
  944MOL0     H27414   8.756  10.148  -0.790  2.0170  0.8717 -0.9455
  944MOL0     H27415   8.657  10.000  -0.822  1.1013 -1.8966 -2.5765
  944MOL0     H27416   8.899   9.972  -0.909 -0.7556  1.5896  2.1039
  944MOL0     H27417   8.880  10.116  -1.011  2.2989 -2.3811 -2.7226
  944MOL0     H27418   8.697   9.985  -1.142  0.5142 -1.0837 -0.8583
  944MOL0     H27419   8.856   9.915  -1.137 -0.2871 -0.5454  0.3041
  944MOL0     H27420   8.237  10.737  -0.898  0.5263 -1.6632  0.1470
  944MOL0     H27421   8.031  10.854  -0.985 -2.3098 -1.2996 -0.8684
  944MOL0     H27422   7.569  11.071  -0.670 -0.0441  0.7944 -0.4640
  944MOL0     H27423   7.338  11.132  -0.702  0.2679  1.8793 -1.5678
  944MOL0     H27424   6.372  10.480   0.291 -3.0964 -0.0005  2.8289
  944MOL0     H27425   6.413  10.593   0.515  2.0911  0.2754  1.8350
  944MOL0     H27426   6.853  10.495   0.925  1.9244  1.4276  2.1263
  944MOL0     H27427   6.936  10.668   1.072 -0.4265  2.5419 -0.5357
  944MOL0     H27428   6.663  10.790   1.338  1.0088 -0.7909 -1.1757
  944MOL0     H27429   6.641  10.959   1.272  0.5700  0.7406  0.1749
  944MOL0     H27430   6.842  11.032   1.356 -2.0575  0.9306  0.4396
  944MOL0     H27431   6.890  10.869   1.411  0.2620 -0.2165  1.6662
  944MOL0     H27432   6.662  10.892   1.559 -0.5371  0.8699  0.4333
  944MOL0     H27433   6.657  11.054   1.535  1.5785  0.6724  2.1721
  944MOL0     H27434   6.755  10.969   1.735  2.0538 -0.0361  1.9581
  944MOL0     H27435   6.891  10.905   1.638 -0.4378 -0.6647  1.1005
  944MOL0     H27436   6.961  11.324   1.609  0.6735 -1.1212 -3.6576
  944MOL0     H27437   6.548  10.828   1.105 -1.5116 -0.3188 -0.3923
  944MOL0     H27438   6.435  10.706   0.823 -1.4672 -1.3406 -0.0444
  944MOL0     H27439   6.369  10.607   0.957  1.7565 -0.6602  0.5734
  944MOL0     H27440   6.394  10.786   0.980 -0.5075 -0.1919  1.6050
  945MOL0     O27441   6.809   8.259  11.271 -0.2188  0.4907  0.1660
  945MOL0     C27442   6.713   8.302  11.337  1.2152  0.0405  0.1475
  945MOL0     O27443   6.697   8.297  11.476 -0.7987  1.2044  0.2862
  945MOL0     C27444   6.786   8.239  11.561  0.2203  0.7547 -0.8396
  945MOL0     C27445   6.738   8.212  11.695 -0.2249  0.7551 -0.1264
  945MOL0     C27446   6.821   8.157  11.792  0.2680  0.1638  0.4342
  945MOL0     C27447   6.957   8.136  11.762  0.3354  0.6792  0.2383
  945MOL0     O27448   7.050   8.079  11.846 -0.1601 -0.2269  0.1134
  945MOL0     C27449   7.014   8.049  11.983  0.4899 -0.0104 -0.0532
  945MOL0     C27450   7.139   7.983  12.054  0.4967 -0.9591 -0.0709
  945MOL0     C27451   7.226   8.104  12.096 -0.0039  0.3964  0.3345
  945MOL0     C27452   7.313   8.075  12.214 -0.0110 -0.5804 -0.1075
  945MOL0     C27453   7.405   8.188  12.257  0.9345  0.1982 -0.0692
  945MOL0     C27454   7.452   8.189  12.398  0.8840 -0.1541  0.3210
  945MOL0     C27455   7.575   8.088  12.411 -0.3419 -0.6991  0.1957
  945MOL0     C27456   7.619   8.082  12.561  0.6383 -0.3126 -0.1920
  945MOL0     N27457   7.680   8.210  12.604 -0.2748  0.4277 -0.2555
  945MOL0     C27458   7.812   8.245  12.594 -0.3758  0.3856 -0.4388
  945MOL0     C27459   7.806   8.385  12.623  0.2835  0.6539  0.1479
  945MOL0     C27460   7.942   8.455  12.631 -0.3370  0.5306  0.1147
  945MOL0     C27461   7.979   8.499  12.773  0.1304  1.7347 -0.4517
  945MOL0     C27462   8.024   8.384  12.865 -0.9945 -0.0167  0.1676
  945MOL0     C27463   8.165   8.335  12.850  0.1062 -0.7836  0.2206
  945MOL0     O27464   8.184   8.293  12.706  0.4046  0.2751 -1.1882
  945MOL0     C27465   8.323   8.296  12.687 -0.6101  1.2760  0.2478
  945MOL0     C27466   8.402   8.185  12.721  1.1319 -0.4382 -0.0981
  945MOL0     C27467   8.542   8.199  12.722  0.9768  0.6744  0.2692
  945MOL0     C27468   8.600   8.323  12.676 -0.2815  0.6004 -0.4490
  945MOL0     C27469   8.751   8.339  12.672  0.6428  0.2828  0.7898
  945MOL0     O27470   8.793   8.466  12.646 -0.2926  0.5232  0.0233
  945MOL0     C27471   8.920   8.500  12.616  0.0650 -0.6759 -0.2653
  945MOL0     C27472   8.985   8.471  12.491 -1.4931 -0.0014 -0.6430
  945MOL0     C27473   9.120   8.506  12.478 -0.4368 -0.2449  0.5386
  945MOL0     C27474   9.197   8.557  12.581 -0.1062  0.3229 -0.1629
  945MOL0     O27475   9.324   8.595  12.555  0.1977 -0.0103  0.4080
  945MOL0     C27476   9.423   8.593  12.655  0.5438  0.1899  0.2533
  945MOL0     C27477   9.554   8.647  12.592  1.2641  1.1934 -0.2727
  945MOL0     C27478   9.613   8.548  12.496 -0.2314  0.4453 -0.1342
  945MOL0     C27479   9.718   8.452  12.556  0.6029 -0.0477 -0.3736
  945MOL0     C27480   9.789   8.374  12.441  0.6641 -0.8385 -0.3776
  945MOL0     C27481   9.932   8.348  12.474 -0.3086 -0.3019  0.2041
  945MOL0     C27482  10.024   8.452  12.415 -0.6289  0.3724 -0.3537
  945MOL0     C27483  10.177   8.409  12.414 -0.1326 -0.5705  0.2165
  945MOL0    Cl27484  10.244   8.437  12.571 -0.4269  0.4232  0.0975
  945MOL0     C27485   9.128   8.596  12.698 -0.0908 -1.0854 -0.7192
  945MOL0     C27486   8.991   8.566  12.715 -0.4959  1.2760 -0.3951
  945MOL0     O27487   8.825   8.235  12.680 -0.2176 -0.2086  0.0197
  945MOL0     C27488   8.521   8.435  12.640 -0.0012  0.1984  0.3243
  945MOL0     C27489   8.384   8.417  12.638  0.3789  0.4904 -0.0933
  945MOL0     N27490   7.674   8.426  12.647 -0.0354 -0.0044 -0.7765
  945MOL0     N27491   7.608   8.313  12.652 -0.0776  0.1847 -0.3466
  945MOL0     C27492   7.007   8.157  11.639 -0.1759  0.4390 -0.2650
  945MOL0     C27493   6.926   8.210  11.537  0.7391 -0.0970  0.1311
  945MOL0     C27494   6.594   8.356  11.259 -0.1739 -0.7183 -0.0630
  945MOL0     C27495   6.624   8.419  11.133  0.1194  0.6584  0.4555
  945MOL0     C27496   6.519   8.471  11.059 -0.4708 -0.0578 -0.3926
  945MOL0     C27497   6.384   8.457  11.094 -0.2585  0.1716  0.2860
  945MOL0     O27498   6.291   8.495  11.001  0.1560  1.2482 -0.3076
  945MOL0     C27499   6.181   8.409  10.977 -0.2884 -0.3351 -0.1803
  945MOL0     C27500   6.229   8.293  10.886  0.9519  0.6454 -0.2142
  945MOL0     C27501   6.285   8.349  10.751  0.2051 -0.0424  0.6864
  945MOL0     C27502   6.336   8.231  10.662 -0.2476 -0.4080 -0.6661
  945MOL0     C27503   6.417   8.297  10.561  0.2566  0.0131 -0.4703
  945MOL0     C27504   6.455   8.350  10.460 -1.2372 -0.2035 -0.4263
  945MOL0     C27505   6.356   8.405  11.215 -0.2987 -0.0740  0.1770
  945MOL0     C27506   6.457   8.363  11.302  1.1142  0.7712  0.0713
  945MOL0     C27507   6.407   8.307  11.440 -0.4202  0.3404 -0.0940
  945MOL0     H27508   6.639   8.243  11.726 -1.1373 -0.4944 -1.6685
  945MOL0     H27509   6.785   8.139  11.892  1.0139 -1.6384  0.4134
  945MOL0     H27510   6.977   8.140  12.031 -0.1278  1.9468 -3.8320
  945MOL0     H27511   6.936   7.971  11.983  1.5980 -1.1940  1.5562
  945MOL0     H27512   7.209   7.938  11.982 -1.3672 -0.7560 -2.0982
  945MOL0     H27513   7.104   7.924  12.140 -2.6380  0.0947 -0.5103
  945MOL0     H27514   7.164   8.183  12.139 -1.2580 -0.9388  1.0744
  945MOL0     H27515   7.281   8.147  12.012 -0.4759 -2.3850 -1.5586
  945MOL0     H27516   7.243   8.066  12.298  1.8595  0.0566  1.5890
  945MOL0     H27517   7.367   7.980  12.202  1.1198  0.1070 -0.6687
  945MOL0     H27518   7.488   8.202  12.187 -0.9354 -0.7081 -2.6144
  945MOL0     H27519   7.364   8.286  12.229  0.7740  0.7546  1.8922
  945MOL0     H27520   7.475   8.293  12.419 -2.0968  0.7870 -0.5687
  945MOL0     H27521   7.370   8.169  12.468  0.1448 -2.1525 -1.0204
  945MOL0     H27522   7.654   8.110  12.338 -0.0099  2.0187  1.2712
  945MOL0     H27523   7.537   7.988  12.386 -0.4068 -0.7445  0.4702
  945MOL0     H27524   7.540   8.060  12.634  0.8179  2.4601  0.9603
  945MOL0     H27525   7.687   7.997  12.573 -1.5812 -2.1814  0.0135
  945MOL0     H27526   7.897   8.181  12.574  1.1048  2.7033 -2.0889
  945MOL0     H27527   8.024   8.407  12.576  1.0955 -0.5622  2.9901
  945MOL0     H27528   7.936   8.548  12.573 -1.4995 -0.3244 -1.1926
  945MOL0     H27529   8.049   8.584  12.774  2.3621  0.0056 -1.4569
  945MOL0     H27530   7.885   8.539  12.811 -0.4579  1.4759 -1.6271
  945MOL0     H27531   7.964   8.294  12.848 -2.8617  1.4988 -1.9373
  945MOL0     H27532   7.999   8.418  12.966 -1.4415  1.0939 -0.2968
  945MOL0     H27533   8.198   8.254  12.916  2.8894 -1.9802 -2.3792
  945MOL0     H27534   8.237   8.416  12.868  1.3781 -2.0854  1.1827
  945MOL0     H27535   8.362   8.088  12.749  0.0549  0.1858  0.5871
  945MOL0     H27536   8.601   8.114  12.755 -2.0430 -1.7960 -0.2996
  945MOL0     H27537   8.925   8.429  12.412 -1.2743  0.4134 -1.0364
  945MOL0     H27538   9.174   8.488  12.385 -0.9095 -2.3961  0.6176
  945MOL0     H27539   9.394   8.652  12.742 -0.1821  1.2639 -0.6942
  945MOL0     H27540   9.448   8.489  12.682  2.9206  0.3946 -0.8540
  945MOL0     H27541   9.525   8.734  12.533 -1.3954  0.7100  0.1683
  945MOL0     H27542   9.625   8.678  12.670  0.4732 -0.0124  0.9717
  945MOL0     H27543   9.539   8.476  12.457  2.4619 -3.5946  1.4834
  945MOL0     H27544   9.655   8.607  12.414  1.8519  1.0583  1.3124
  945MOL0     H27545   9.666   8.378  12.619 -0.7328  2.4569  1.6375
  945MOL0     H27546   9.796   8.512  12.603  0.0485  2.0474 -1.9841
  945MOL0     H27547   9.778   8.427  12.347 -1.4865 -0.4397  0.0551
  945MOL0     H27548   9.745   8.275  12.430  2.8533 -2.0322  0.8333
  945MOL0     H27549   9.949   8.353  12.582 -0.5354  1.9590  0.1672
  945MOL0     H27550   9.953   8.247  12.437  0.3992 -0.2478  0.4446
  945MOL0     H27551  10.002   8.547  12.466 -1.7146  0.3313 -0.7213
  945MOL0     H27552  10.004   8.458  12.308  2.4362 -1.2882 -1.1430
  945MOL0     H27553  10.182   8.305  12.381  1.8116 -1.4526  2.9687
  945MOL0     H27554  10.236   8.465  12.340 -0.3588  0.1664  0.5798
  945MOL0     H27555   9.181   8.656  12.772 -1.1749  1.0430 -1.5927
  945MOL0     H27556   8.951   8.611  12.805 -0.9037  1.0257 -0.4489
  945MOL0     H27557   8.552   8.532  12.603 -1.3407  0.7116  0.4995
  945MOL0     H27558   8.319   8.501  12.616  0.3588  0.3813 -0.4597
  945MOL0     H27559   7.109   8.120  11.628 -0.4294 -0.4578  0.3335
  945MOL0     H27560   6.971   8.210  11.438 -0.2276 -2.3776 -0.3526
  945MOL0     H27561   6.726   8.431  11.097  1.3276 -3.0693  2.1828
  945MOL0     H27562   6.559   8.517  10.969  1.6548  0.8256  0.9316
  945MOL0     H27563   6.099   8.469  10.935 -0.7831  0.3180  1.5929
  945MOL0     H27564   6.126   8.374  11.065 -1.3000 -2.0351 -1.4209
  945MOL0     H27565   6.156   8.213  10.870  0.4767 -0.1428  4.3850
  945MOL0     H27566   6.307   8.243  10.945 -1.4256 -0.8775  1.8510
  945MOL0     H27567   6.367   8.420  10.771  0.1104  0.1165  0.5178
  945MOL0     H27568   6.205   8.396  10.693  1.0818  0.1835 -0.3667
  945MOL0     H27569   6.398   8.157  10.713  0.4426 -1.9662 -3.5448
  945MOL0     H27570   6.250   8.184  10.613  0.7146 -1.0449 -1.8204
  945MOL0     H27571   6.490   8.384  10.364  0.0070 -1.9328 -0.6460
  945MOL0     H27572   6.254   8.401  11.252  0.7198 -0.5981  3.2724
  945MOL0     H27573   6.465   8.342  11.527 -2.8406  1.1615  1.2821
  945MOL0     H27574   6.305   8.347  11.448  0.1543  1.5501  2.1198
  945MOL0     H27575   6.396   8.200  11.458 -2.5523  0.4033 -0.7795
  946MOL0     O27576   6.119   0.646   3.855 -0.9823 -0.0171  0.0826
  946MOL0     C27577   6.153   0.752   3.912 -0.1790  0.4225 -0.5430
  946MOL0     O27578   6.115   0.779   4.039 -0.2793  0.0151 -0.3932
  946MOL0     C27579   6.098   0.683   4.131  0.3769  0.0311 -0.7157
  946MOL0     C27580   6.182   0.568   4.149 -0.2957  0.5630  0.7336
  946MOL0     C27581   6.161   0.479   4.260 -0.2479 -0.1376  1.5545
  946MOL0     C27582   6.055   0.507   4.347 -0.4064 -0.4428 -0.2363
  946MOL0     O27583   6.055   0.432   4.454  0.2745 -0.4913 -0.5023
  946MOL0     C27584   6.019   0.503   4.580 -0.9022  0.0434  0.0599
  946MOL0     C27585   6.094   0.434   4.698  0.2291  0.2443 -0.0201
  946MOL0     C27586   6.034   0.298   4.739 -0.1584 -0.7525  0.7703
  946MOL0     C27587   6.140   0.181   4.778  1.0597 -0.6004  0.4443
  946MOL0     C27588   6.064   0.069   4.849 -0.6074  0.1474  0.2911
  946MOL0     C27589   6.174  -0.029   4.888  0.2754 -0.2015 -0.4904
  946MOL0     C27590   6.124  -0.173   4.899 -0.8723 -0.1464  0.0240
  946MOL0     C27591   6.005  -0.187   5.000 -1.3528  0.7227  0.5614
  946MOL0     N27592   5.949  -0.319   5.026 -0.0136  0.5398  0.4341
  946MOL0     C27593   6.006  -0.438   4.992 -0.1817  0.4834  0.1074
  946MOL0     C27594   5.920  -0.535   5.040  0.2828 -0.1253  0.2461
  946MOL0     C27595   5.912  -0.683   5.011 -0.3214 -0.2185 -0.4240
  946MOL0     C27596   5.907  -0.701   4.857 -1.1536  0.1031 -1.0973
  946MOL0     C27597   5.928  -0.842   4.816 -0.3181 -0.3571 -0.7842
  946MOL0     C27598   6.078  -0.888   4.821 -0.3473  0.2339 -0.0422
  946MOL0     O27599   6.151  -0.856   4.700 -0.0090 -0.1676  0.2621
  946MOL0     C27600   6.137  -0.940   4.598 -1.0309 -0.2494  0.6977
  946MOL0     C27601   6.220  -0.919   4.482  0.1888 -0.6291 -0.9980
  946MOL0     C27602   6.218  -1.008   4.375 -0.3817  1.0995 -0.2480
  946MOL0     C27603   6.136  -1.123   4.375  0.4173  0.2936 -0.1107
  946MOL0     C27604   6.138  -1.225   4.271 -0.0710 -0.8810  0.2433
  946MOL0     O27605   6.209  -1.188   4.155  0.2563 -0.5161 -0.4329
  946MOL0     C27606   6.191  -1.275   4.047 -0.6157 -0.2618  0.3121
  946MOL0     C27607   6.296  -1.362   4.011 -0.5774  0.3462  0.1289
  946MOL0     C27608   6.292  -1.450   3.900 -0.3938  0.1088 -0.4365
  946MOL0     C27609   6.183  -1.437   3.815  0.9188 -0.0908  0.8129
  946MOL0     O27610   6.170  -1.524   3.709 -0.4869 -1.0267  0.3626
  946MOL0     C27611   6.119  -1.448   3.588  0.2467  0.4971 -0.9797
  946MOL0     C27612   6.144  -1.537   3.465  0.0689 -0.7702 -0.5187
  946MOL0     C27613   6.038  -1.518   3.359 -0.1109 -0.2226  0.2894
  946MOL0     C27614   6.040  -1.633   3.251  1.0035  0.2326 -0.0137
  946MOL0     C27615   5.930  -1.596   3.148  0.6304  0.5440 -0.5936
  946MOL0     C27616   5.789  -1.629   3.191  0.1392  1.0121  0.5454
  946MOL0     C27617   5.694  -1.626   3.066  0.7233  0.8411  0.5876
  946MOL0     C27618   5.550  -1.589   3.112  1.5964 -0.0818 -1.1498
  946MOL0    Cl27619   5.443  -1.607   2.973  0.4649  0.2494 -0.3495
  946MOL0     C27620   6.078  -1.360   3.863  0.3354  0.3725 -0.1462
  946MOL0     C27621   6.079  -1.277   3.969  0.4403 -1.2857 -0.2187
  946MOL0     O27622   6.067  -1.325   4.277 -0.2282 -0.3593  0.6727
  946MOL0     C27623   6.048  -1.144   4.480 -0.2836  0.0878 -0.2706
  946MOL0     C27624   6.039  -1.043   4.579  0.4712  0.1577 -1.1305
  946MOL0     N27625   5.818  -0.468   5.110 -1.3370 -0.6779 -0.5740
  946MOL0     N27626   5.848  -0.340   5.108  0.5692  0.4405 -0.0482
  946MOL0     C27627   5.971   0.613   4.323  0.5865 -0.5044  0.2279
  946MOL0     C27628   5.989   0.700   4.228 -0.4445 -0.6577  0.0313
  946MOL0     C27629   6.223   0.852   3.837  0.2942  0.2348 -0.5833
  946MOL0     C27630   6.230   0.987   3.886  0.1233  0.0387 -0.9878
  946MOL0     C27631   6.286   1.087   3.818 -0.0923  0.0152 -0.0896
  946MOL0     C27632   6.347   1.066   3.698 -0.5853 -0.2373 -0.7172
  946MOL0     O27633   6.393   1.173   3.633 -0.1102 -0.3072 -0.1446
  946MOL0     C27634   6.381   1.184   3.490  0.3569 -0.7605  0.4208
  946MOL0     C27635   6.366   1.331   3.441 -0.6825 -0.1425  0.1423
  946MOL0     C27636   6.293   1.409   3.556  0.4035 -0.2179 -0.0974
  946MOL0     C27637   6.271   1.556   3.520 -0.0850  0.5806 -1.5328
  946MOL0     C27638   6.222   1.638   3.642  0.4255 -0.0847 -0.8964
  946MOL0     C27639   6.174   1.729   3.712  0.0842  0.0999 -0.7562
  946MOL0     C27640   6.355   0.940   3.650  0.0425  0.8131 -0.0216
  946MOL0     C27641   6.292   0.829   3.717  0.2901 -0.1257 -0.1533
  946MOL0     C27642   6.318   0.696   3.651  0.7473  0.8466 -1.2400
  946MOL0     H27643   6.253   0.542   4.072  0.1710  2.8030  0.3286
  946MOL0     H27644   6.230   0.399   4.284  1.2214  0.7588  0.5302
  946MOL0     H27645   6.057   0.605   4.565  0.0954 -0.6771 -3.4035
  946MOL0     H27646   5.912   0.499   4.599 -0.9338 -0.7650 -0.2675
  946MOL0     H27647   6.082   0.493   4.789  2.1644 -3.3101  2.7634
  946MOL0     H27648   6.200   0.441   4.674 -0.1281 -1.6937 -2.5671
  946MOL0     H27649   5.966   0.257   4.663 -1.6393 -0.2189  1.7700
  946MOL0     H27650   5.969   0.319   4.824 -1.1166 -1.5423  0.2592
  946MOL0     H27651   6.193   0.135   4.695  1.0503 -0.8619  0.5838
  946MOL0     H27652   6.223   0.223   4.836  2.3134  0.1193 -1.7397
  946MOL0     H27653   6.017   0.104   4.942 -1.4786 -0.9709  0.3102
  946MOL0     H27654   5.988   0.019   4.787  0.1815 -0.3153 -0.3134
  946MOL0     H27655   6.259  -0.036   4.819 -0.8177  2.1623 -2.2320
  946MOL0     H27656   6.210   0.003   4.986 -3.3594  4.4304 -0.2906
  946MOL0     H27657   6.202  -0.239   4.938 -0.2827 -0.4585 -1.6047
  946MOL0     H27658   6.101  -0.212   4.800 -1.8177  2.5393 -0.9110
  946MOL0     H27659   6.032  -0.150   5.099 -0.7702  0.2744  0.5759
  946MOL0     H27660   5.926  -0.118   4.969  2.0415  4.3932 -0.7494
  946MOL0     H27661   6.091  -0.449   4.926  1.2652  0.4870  1.9167
  946MOL0     H27662   5.993  -0.746   5.050 -0.2249  1.4397  2.2785
  946MOL0     H27663   5.821  -0.718   5.059 -1.3878  0.3364 -1.9650
  946MOL0     H27664   5.805  -0.675   4.827 -2.3064 -1.2964  1.3755
  946MOL0     H27665   5.979  -0.629   4.816 -0.7398 -0.2051 -0.9222
  946MOL0     H27666   5.882  -0.848   4.717  0.9310  0.4659 -1.4399
  946MOL0     H27667   5.864  -0.901   4.882 -0.7154  0.7489 -0.1690
  946MOL0     H27668   6.077  -0.997   4.833 -2.4606  0.3969  1.8488
  946MOL0     H27669   6.132  -0.843   4.905 -0.2725  0.4901 -0.2256
  946MOL0     H27670   6.280  -0.829   4.490 -1.1041  0.1691  0.2305
  946MOL0     H27671   6.271  -0.979   4.285  1.6886 -2.8514 -0.5108
  946MOL0     H27672   6.379  -1.368   4.082 -0.3703  0.8780 -0.0599
  946MOL0     H27673   6.375  -1.518   3.883 -0.2049 -0.9951  3.8423
  946MOL0     H27674   6.014  -1.416   3.590  0.4652  1.2308 -0.6644
  946MOL0     H27675   6.171  -1.354   3.566 -1.4876  2.2445  1.7074
  946MOL0     H27676   6.238  -1.521   3.413 -0.5685  0.2832 -1.3846
  946MOL0     H27677   6.152  -1.644   3.486  2.3300 -0.5754 -0.1782
  946MOL0     H27678   5.936  -1.504   3.395  0.6414  2.0297  1.7643
  946MOL0     H27679   6.056  -1.425   3.303  0.3545 -0.7456 -0.4621
  946MOL0     H27680   6.011  -1.731   3.289 -0.5056 -0.5458 -2.9404
  946MOL0     H27681   6.131  -1.642   3.192 -0.4478  1.3922 -2.5693
  946MOL0     H27682   5.962  -1.664   3.068  1.5577  1.4241 -0.9989
  946MOL0     H27683   5.944  -1.494   3.111 -0.9360  1.0137  0.0711
  946MOL0     H27684   5.785  -1.716   3.257  1.0065  0.0130 -0.6861
  946MOL0     H27685   5.749  -1.548   3.253  0.1645  1.4673 -0.0235
  946MOL0     H27686   5.692  -1.722   3.012 -0.3306  0.7569  0.7413
  946MOL0     H27687   5.728  -1.542   3.005 -0.8627  3.0254  2.5157
  946MOL0     H27688   5.525  -1.663   3.189  3.2238  0.8144  0.3114
  946MOL0     H27689   5.552  -1.488   3.153 -2.2747 -0.3319  0.0718
  946MOL0     H27690   5.981  -1.362   3.814  0.0597 -0.9934  0.4030
  946MOL0     H27691   5.990  -1.229   4.010  1.4436  0.5157 -0.0182
  946MOL0     H27692   5.974  -1.223   4.486  0.5356 -0.6733  0.1104
  946MOL0     H27693   5.974  -1.069   4.663 -1.6735  1.6686 -2.2222
  946MOL0     H27694   5.890   0.637   4.391 -1.5349  0.7620 -2.5262
  946MOL0     H27695   5.917   0.780   4.221  1.1543  0.8633  0.4240
  946MOL0     H27696   6.175   1.013   3.976  2.8680  2.1363  0.2551
  946MOL0     H27697   6.299   1.178   3.877  0.2899  0.1997 -0.4462
  946MOL0     H27698   6.287   1.141   3.454 -1.0738  2.8591 -0.5312
  946MOL0     H27699   6.474   1.144   3.448  1.0360  3.1722 -2.3575
  946MOL0     H27700   6.317   1.344   3.345 -0.5821  2.9274  0.4086
  946MOL0     H27701   6.465   1.371   3.417 -0.4742 -1.0896 -0.6577
  946MOL0     H27702   6.349   1.402   3.650 -3.4476 -1.7210  2.3489
  946MOL0     H27703   6.195   1.368   3.582 -0.4594  3.2728  3.2107
  946MOL0     H27704   6.367   1.588   3.479  0.9916 -1.8604 -1.1258
  946MOL0     H27705   6.200   1.553   3.437 -1.1401  3.6319 -0.8656
  946MOL0     H27706   6.113   1.790   3.776  0.3303 -0.3847 -0.0530
  946MOL0     H27707   6.422   0.934   3.565 -2.8587 -1.8557 -2.3322
  946MOL0     H27708   6.393   0.643   3.710  0.4965  0.2831 -1.4221
  946MOL0     H27709   6.234   0.626   3.642  0.9606  0.6250 -1.5624
  946MOL0     H27710   6.367   0.711   3.554  1.1001  0.9777 -1.0400
  947MOL0     O27711   9.688   0.957  11.412  0.5375 -0.0006  0.1906
  947MOL0     C27712   9.808   0.987  11.399 -0.2398  0.0574  1.1051
  947MOL0     O27713   9.871   1.020  11.278  0.6813 -0.2301  0.6018
  947MOL0     C27714   9.791   1.060  11.180 -0.5728 -0.8599  1.2027
  947MOL0     C27715   9.744   1.199  11.175  0.1591  0.2804 -0.1989
  947MOL0     C27716   9.667   1.239  11.069  1.1828 -0.0426 -0.1321
  947MOL0     C27717   9.628   1.145  10.974  0.1322 -0.0701 -0.3290
  947MOL0     O27718   9.542   1.182  10.873  0.8745 -0.7115  0.6933
  947MOL0     C27719   9.476   1.311  10.884 -0.0628 -0.3869  0.3138
  947MOL0     C27720   9.363   1.311  10.774  0.2011 -0.4511 -0.0609
  947MOL0     C27721   9.413   1.302  10.627  0.3998  0.3984 -0.3553
  947MOL0     C27722   9.467   1.159  10.580  0.4067  0.7747  0.1044
  947MOL0     C27723   9.536   1.165  10.435  0.2949  0.0214  0.4232
  947MOL0     C27724   9.573   1.020  10.382  0.1444 -0.0932 -0.3570
  947MOL0     C27725   9.596   0.998  10.232 -0.6005 -0.1900  0.0131
  947MOL0     C27726   9.711   1.084  10.178  0.2870 -0.7095  0.2947
  947MOL0     N27727   9.837   1.091  10.243 -1.0476 -0.1503 -0.2611
  947MOL0     C27728   9.907   1.196  10.282  0.6981 -0.0535 -0.0313
  947MOL0     C27729  10.038   1.152  10.284 -0.5817 -0.1628  0.4207
  947MOL0     C27730  10.164   1.229  10.314  0.6186  0.3059  0.2862
  947MOL0     C27731  10.285   1.198  10.222  0.3816  0.0103  0.2590
  947MOL0     C27732  10.261   1.227  10.067 -0.3014  0.4810 -0.0415
  947MOL0     C27733  10.198   1.368  10.042 -0.2387 -0.1847 -0.5162
  947MOL0     O27734  10.187   1.399   9.905 -0.1046  0.0808  0.1010
  947MOL0     C27735  10.304   1.408   9.833  0.6397  0.0987 -0.4788
  947MOL0     C27736  10.431   1.407   9.885 -0.1344 -0.6635 -0.3680
  947MOL0     C27737  10.531   1.423   9.794  0.1945  0.5583 -0.0839
  947MOL0     C27738  10.508   1.434   9.652  0.1045 -0.2987  0.7109
  947MOL0     C27739  10.625   1.461   9.565  0.9794 -0.2030  0.0104
  947MOL0     O27740  10.612   1.445   9.430  0.0833  0.5626 -0.2080
  947MOL0     C27741  10.719   1.449   9.349 -1.5326  0.0574  1.3539
  947MOL0     C27742  10.847   1.414   9.384  0.4332  0.2814 -1.1440
  947MOL0     C27743  10.943   1.408   9.276 -0.6397  0.0172  0.3677
  947MOL0     C27744  10.919   1.459   9.146 -0.0607  0.7267 -0.5269
  947MOL0     O27745  11.019   1.476   9.048 -0.2789 -0.5592  0.1401
  947MOL0     C27746  11.161   1.434   9.059  0.0499  0.7949  0.4776
  947MOL0     C27747  11.225   1.442   8.916  0.0104  0.6909  0.1861
  947MOL0     C27748  11.160   1.341   8.822 -0.5236  0.7839  0.6615
  947MOL0     C27749  11.233   1.332   8.691 -0.6436  0.4009  0.6753
  947MOL0     C27750  11.187   1.445   8.593 -0.5658  0.7577 -0.0447
  947MOL0     C27751  11.253   1.423   8.457 -0.0074 -0.3785  0.4088
  947MOL0     C27752  11.207   1.528   8.351 -0.1944 -0.7753 -0.0125
  947MOL0     C27753  11.244   1.483   8.209 -0.3392  0.6615  0.4957
  947MOL0    Cl27754  11.192   1.609   8.111  0.1697  0.0191  0.7970
  947MOL0     C27755  10.790   1.506   9.120 -0.0051  0.3325  0.1036
  947MOL0     C27756  10.698   1.505   9.222  0.1193 -0.3716  0.3535
  947MOL0     O27757  10.714   1.530   9.618  0.4253 -0.2259  0.2052
  947MOL0     C27758  10.378   1.424   9.598 -0.5375  0.0954 -0.6312
  947MOL0     C27759  10.277   1.409   9.696  0.7372 -0.2652  0.2580
  947MOL0     N27760  10.040   1.023  10.234 -0.3671 -0.3721 -0.0951
  947MOL0     N27761   9.923   0.987  10.226  0.1347 -0.1711 -0.4931
  947MOL0     C27762   9.689   1.021  10.966 -0.0597  0.5655 -1.0437
  947MOL0     C27763   9.760   0.980  11.073 -0.0870  0.4052 -0.1643
  947MOL0     C27764   9.886   0.968  11.519  0.5478 -0.2750  1.3609
  947MOL0     C27765   9.819   0.915  11.640 -0.1475  0.4674 -1.0014
  947MOL0     C27766   9.893   0.906  11.763 -0.4431 -1.0305 -0.0495
  947MOL0     C27767  10.027   0.963  11.770  0.4994  0.6512  0.4666
  947MOL0     O27768  10.095   0.961  11.891 -0.2828  0.2346  0.6416
  947MOL0     C27769  10.156   0.843  11.934 -0.6117  0.5162  0.4636
  947MOL0     C27770  10.283   0.811  11.852 -0.3431 -0.3741  0.2320
  947MOL0     C27771  10.375   0.705  11.898 -0.4413  1.1048 -0.1893
  947MOL0     C27772  10.319   0.560  11.907  0.4387  0.5971 -0.1920
  947MOL0     C27773  10.414   0.476  11.975  0.3378  0.1693  0.2856
  947MOL0     C27774  10.493   0.395  12.029  0.3081 -0.7058  0.5171
  947MOL0     C27775  10.081   1.021  11.660  0.1583  0.5498  0.1171
  947MOL0     C27776  10.021   1.015  11.530 -0.0330  0.0416 -0.9621
  947MOL0     C27777  10.105   1.056  11.413 -0.2721  0.3303 -0.3424
  947MOL0     H27778   9.750   1.272  11.255 -1.8043 -1.2428  1.4509
  947MOL0     H27779   9.646   1.345  11.063  0.4343 -0.1161  0.9187
  947MOL0     H27780   9.416   1.321  10.975 -0.5001 -1.0356  0.1018
  947MOL0     H27781   9.560   1.381  10.874  0.3766 -0.9763 -0.2600
  947MOL0     H27782   9.311   1.407  10.783 -0.5825 -1.0357  2.2863
  947MOL0     H27783   9.308   1.219  10.796 -2.0009  0.2928 -2.1019
  947MOL0     H27784   9.498   1.370  10.618 -0.3471  1.6601  1.5653
  947MOL0     H27785   9.329   1.328  10.562 -0.3642 -1.5743 -0.2134
  947MOL0     H27786   9.546   1.125  10.648  0.1344  2.9397  1.6256
  947MOL0     H27787   9.382   1.091  10.576  1.2824 -0.5648  2.2771
  947MOL0     H27788   9.475   1.216  10.361  1.7995 -0.9708 -1.5904
  947MOL0     H27789   9.635   1.212  10.436 -0.6284  2.1417  2.0193
  947MOL0     H27790   9.662   0.989  10.439 -1.7358  0.6116  3.3100
  947MOL0     H27791   9.498   0.951  10.422  0.1602  1.3099  2.3333
  947MOL0     H27792   9.509   1.008  10.167 -1.1985 -0.1258  0.8094
  947MOL0     H27793   9.633   0.895  10.227 -2.0748 -0.7375 -0.2375
  947MOL0     H27794   9.738   1.039  10.082 -2.0040 -0.4528 -0.5287
  947MOL0     H27795   9.683   1.187  10.153  1.7783  0.3095  2.5663
  947MOL0     H27796   9.873   1.290  10.324  1.9953 -0.9410  3.3381
  947MOL0     H27797  10.138   1.335  10.325  1.8063  0.4057  3.0737
  947MOL0     H27798  10.193   1.197  10.415  2.4750  0.5971 -0.1099
  947MOL0     H27799  10.380   1.236  10.259  1.0800 -1.9471  0.6340
  947MOL0     H27800  10.308   1.091  10.216  0.0049 -0.0044 -1.3918
  947MOL0     H27801  10.199   1.151  10.020  0.5446  1.2563 -2.5358
  947MOL0     H27802  10.359   1.222  10.019 -0.9152 -1.6759 -1.1655
  947MOL0     H27803  10.246   1.453  10.092  1.1763 -1.1168 -0.2240
  947MOL0     H27804  10.094   1.364  10.076  0.1218 -0.3423  0.5896
  947MOL0     H27805  10.460   1.403   9.989 -2.3165 -0.5218  0.2915
  947MOL0     H27806  10.635   1.437   9.820 -0.5778  1.0431  3.3512
  947MOL0     H27807  10.859   1.370   9.483 -0.2850  1.1335 -0.6699
  947MOL0     H27808  11.040   1.361   9.290 -1.3198 -1.1473  1.3813
  947MOL0     H27809  11.213   1.505   9.123 -1.8443  2.0483  0.7299
  947MOL0     H27810  11.179   1.329   9.084  1.5482  0.8205 -0.3432
  947MOL0     H27811  11.215   1.541   8.870 -1.8636  1.2181  1.5802
  947MOL0     H27812  11.330   1.421   8.934  0.1067 -0.9882 -2.0776
  947MOL0     H27813  11.158   1.244   8.871 -1.4883 -0.3284 -1.4289
  947MOL0     H27814  11.058   1.378   8.802 -0.2798 -0.6697 -4.8181
  947MOL0     H27815  11.205   1.236   8.647 -2.1265  1.7737 -1.5515
  947MOL0     H27816  11.342   1.330   8.686 -0.7117 -0.4418 -1.2446
  947MOL0     H27817  11.223   1.542   8.630  3.0138 -0.9257  1.3519
  947MOL0     H27818  11.078   1.450   8.584 -0.6032 -1.4685 -1.4862
  947MOL0     H27819  11.361   1.411   8.465 -0.1129 -2.0652 -0.2913
  947MOL0     H27820  11.217   1.328   8.417  0.7006 -1.2404  1.7345
  947MOL0     H27821  11.251   1.627   8.370  1.6780 -0.6949 -3.7524
  947MOL0     H27822  11.100   1.549   8.342 -0.1511 -0.0520  1.0696
  947MOL0     H27823  11.351   1.466   8.193 -0.9215 -0.3414 -3.7829
  947MOL0     H27824  11.201   1.385   8.185  0.3912  0.3754  0.3113
  947MOL0     H27825  10.768   1.560   9.028 -0.1161  0.9888  0.5121
  947MOL0     H27826  10.601   1.543   9.194  0.4027  1.3925  1.5669
  947MOL0     H27827  10.365   1.431   9.491 -1.2149 -1.0089 -0.6372
  947MOL0     H27828  10.176   1.393   9.661  1.1122 -0.3139 -0.8481
  947MOL0     H27829   9.663   0.967  10.875  2.9284 -0.1676 -1.5511
  947MOL0     H27830   9.794   0.877  11.080 -3.7766 -1.0587 -1.5145
  947MOL0     H27831   9.716   0.880  11.640 -0.3767  0.8366  2.1261
  947MOL0     H27832   9.857   0.860  11.854  1.0204 -2.3515 -0.0913
  947MOL0     H27833  10.096   0.753  11.945  1.3592 -0.9410 -0.1647
  947MOL0     H27834  10.203   0.862  12.030  1.6859  2.5112 -0.9354
  947MOL0     H27835  10.337   0.905  11.844 -1.1852  0.1589  0.6958
  947MOL0     H27836  10.256   0.790  11.748 -4.0823  0.2344  0.9301
  947MOL0     H27837  10.409   0.737  11.997 -1.3396  0.9610  0.1654
  947MOL0     H27838  10.463   0.682  11.836 -0.5433 -0.4360  0.1959
  947MOL0     H27839  10.224   0.560  11.962 -2.5491  0.4753 -4.7941
  947MOL0     H27840  10.307   0.508  11.811  3.1981  0.6838 -0.6560
  947MOL0     H27841  10.548   0.323  12.085 -0.8677  0.9733  4.1848
  947MOL0     H27842  10.180   1.063  11.674 -0.5430  2.2126  0.3165
  947MOL0     H27843  10.076   1.159  11.389 -3.0445 -0.3087 -0.1731
  947MOL0     H27844  10.212   1.051  11.434 -0.4005 -3.1856  0.0155
  947MOL0     H27845  10.099   0.986  11.329  0.7193  0.2501 -0.3505
  948MOL0     O27846  10.635   1.648  10.577  0.1098 -0.1060  0.9238
  948MOL0     C27847  10.514   1.640  10.566 -0.0310 -0.2224 -0.6748
  948MOL0     O27848  10.439   1.540  10.607  1.1273 -0.2372  0.1273
  948MOL0     C27849  10.499   1.426  10.649  0.6976 -0.5320 -0.6939
  948MOL0     C27850  10.581   1.429  10.767  0.3223  0.1198  0.1246
  948MOL0     C27851  10.648   1.312  10.807  0.4482  0.3098  0.6706
  948MOL0     C27852  10.621   1.189  10.747  0.3507 -1.2333 -0.0963
  948MOL0     O27853  10.677   1.076  10.788  0.5231 -0.3673 -0.1329
  948MOL0     C27854  10.629   1.010  10.906 -0.2037 -0.3169  0.3595
  948MOL0     C27855  10.745   0.923  10.946 -0.1192  0.2139  0.1761
  948MOL0     C27856  10.740   0.864  11.090 -0.5284 -0.4123  0.4889
  948MOL0     C27857  10.874   0.792  11.115  0.3557 -0.7349 -0.0061
  948MOL0     C27858  10.887   0.708  11.233 -0.6988  0.3171  0.6584
  948MOL0     C27859  10.798   0.586  11.235 -0.5320  1.1879 -0.7993
  948MOL0     C27860  10.807   0.512  11.375 -0.1780  0.0432  0.2659
  948MOL0     C27861  10.936   0.427  11.389  0.1428 -0.4278  0.2364
  948MOL0     N27862  10.948   0.324  11.290 -0.5881  0.1640 -1.1312
  948MOL0     C27863  11.015   0.322  11.172  0.6825 -0.6826  0.5955
  948MOL0     C27864  11.026   0.195  11.134 -0.7141  0.0606 -0.1932
  948MOL0     C27865  11.115   0.127  11.030  0.1498  0.0792 -0.8525
  948MOL0     C27866  11.217   0.030  11.101 -0.1949 -0.1816 -0.2218
  948MOL0     C27867  11.325   0.107  11.173 -0.3519 -0.7407  0.4057
  948MOL0     C27868  11.432   0.002  11.219  0.4477  0.1555 -0.2693
  948MOL0     O27869  11.529   0.067  11.300  0.2328  0.5510  0.4634
  948MOL0     C27870  11.660   0.025  11.291 -0.9226  0.3294 -0.0540
  948MOL0     C27871  11.756   0.118  11.274 -0.7563 -0.6897 -0.7807
  948MOL0     C27872  11.880   0.076  11.237 -0.1926 -0.0635  0.1789
  948MOL0     C27873  11.919  -0.060  11.227  0.2235 -0.2217 -0.6516
  948MOL0     C27874  12.062  -0.090  11.207 -0.3086  0.4961  0.9794
  948MOL0     O27875  12.157   0.015  11.198 -0.1452  0.5247  0.1859
  948MOL0     C27876  12.289  -0.022  11.190  0.5493 -0.2484 -0.1886
  948MOL0     C27877  12.368   0.027  11.088  0.4622 -0.2059  0.3789
  948MOL0     C27878  12.501  -0.014  11.066  0.3693  0.0112 -0.2555
  948MOL0     C27879  12.561  -0.090  11.163 -0.2221 -0.2360 -0.2902
  948MOL0     O27880  12.697  -0.114  11.137  0.3840 -0.0288  0.2147
  948MOL0     C27881  12.791  -0.100  11.241  0.6791 -0.2593  1.4642
  948MOL0     C27882  12.923  -0.150  11.185 -0.1127 -0.2994  0.1451
  948MOL0     C27883  13.063  -0.088  11.238 -0.3291  1.1823  0.9120
  948MOL0     C27884  13.188  -0.125  11.154 -0.0298 -0.0467  0.3490
  948MOL0     C27885  13.298  -0.024  11.163  0.3789 -0.3133  0.4297
  948MOL0     C27886  13.435  -0.073  11.106  0.6516  0.0093  0.2944
  948MOL0     C27887  13.525   0.032  11.058  0.1098 -0.0296  0.3891
  948MOL0     C27888  13.660  -0.021  11.012  0.2448  0.4194 -0.8367
  948MOL0    Cl27889  13.767   0.119  10.983  0.3511  0.4141 -0.1458
  948MOL0     C27890  12.487  -0.140  11.281  0.5145  0.4553  0.1858
  948MOL0     C27891  12.347  -0.097  11.287 -0.0961  0.2701  0.2824
  948MOL0     O27892  12.089  -0.207  11.194  0.6380 -0.1933 -0.3372
  948MOL0     C27893  11.820  -0.155  11.249  0.1691  0.0991  0.4661
  948MOL0     C27894  11.688  -0.109  11.270 -1.1322 -0.1228 -0.3031
  948MOL0     N27895  10.948   0.125  11.223 -0.7132 -0.2979 -0.3310
  948MOL0     N27896  10.901   0.197  11.319 -0.3257  0.1258 -0.3550
  948MOL0     C27897  10.534   1.186  10.639  0.2130  0.1254 -0.0840
  948MOL0     C27898  10.477   1.300  10.594  0.1086 -0.2155 -0.2143
  948MOL0     C27899  10.433   1.758  10.511 -0.1192 -0.0548 -0.0847
  948MOL0     C27900  10.446   1.890  10.564  0.2918  0.6700 -0.3555
  948MOL0     C27901  10.358   1.982  10.517  0.2374 -0.8923  0.6492
  948MOL0     C27902  10.269   1.965  10.410  0.8024 -0.2869 -0.0064
  948MOL0     O27903  10.181   2.062  10.375 -0.6726 -0.0713  0.1743
  948MOL0     C27904  10.176   2.092  10.236  0.3892  0.4473 -0.3435
  948MOL0     C27905  10.300   2.155  10.181 -0.1884 -0.2483 -0.7139
  948MOL0     C27906  10.338   2.291  10.256  0.3172  0.9300 -0.7764
  948MOL0     C27907  10.331   2.412  10.160 -0.0636 -0.3858  0.1694
  948MOL0     C27908  10.203   2.424  10.106  0.7582  1.1979  0.1501
  948MOL0     C27909  10.091   2.438  10.062 -0.1535 -0.8325  0.0085
  948MOL0     C27910  10.256   1.832  10.364  0.8255  0.0463  0.1302
  948MOL0     C27911  10.346   1.730  10.405  0.2579  0.1426 -0.3976
  948MOL0     C27912  10.345   1.599  10.329 -0.4860 -0.1283  0.1190
  948MOL0     H27913  10.588   1.520  10.824  0.5299  0.9992 -1.2580
  948MOL0     H27914  10.731   1.302  10.876 -0.5812  0.4024  1.9422
  948MOL0     H27915  10.607   1.083  10.984  1.4722 -0.4330  0.9826
  948MOL0     H27916  10.536   0.964  10.870  1.8272 -1.0597 -4.8809
  948MOL0     H27917  10.837   0.980  10.935  1.7549 -1.4758  4.6606
  948MOL0     H27918  10.767   0.843  10.874 -0.3742 -2.0393  2.4431
  948MOL0     H27919  10.655   0.797  11.107 -1.8794  1.1770  0.3060
  948MOL0     H27920  10.724   0.952  11.152 -1.3231  0.8036 -1.3425
  948MOL0     H27921  10.909   0.731  11.031 -0.3960 -1.1306 -0.0476
  948MOL0     H27922  10.942   0.877  11.114 -0.1906 -0.2516  1.7007
  948MOL0     H27923  10.990   0.669  11.239 -0.3270  1.5035  3.7518
  948MOL0     H27924  10.876   0.764  11.326 -0.7614  0.7776  0.3783
  948MOL0     H27925  10.694   0.618  11.225 -0.3000  2.4788  0.6710
  948MOL0     H27926  10.811   0.511  11.156  3.0195  0.7196  0.0839
  948MOL0     H27927  10.718   0.448  11.381 -0.2138 -0.4127 -3.1767
  948MOL0     H27928  10.798   0.584  11.457  0.0151 -1.4822  1.6733
  948MOL0     H27929  11.025   0.490  11.387 -1.8693  2.7228  1.4429
  948MOL0     H27930  10.939   0.367  11.480  0.2174  0.9864  1.1826
  948MOL0     H27931  11.065   0.409  11.130  1.1753 -1.8089 -1.2593
  948MOL0     H27932  11.054   0.054  10.976 -1.5137 -0.5235  1.6773
  948MOL0     H27933  11.172   0.200  10.971 -0.5253  0.3070 -1.2294
  948MOL0     H27934  11.161  -0.033  11.170  0.3190  0.6174  0.9499
  948MOL0     H27935  11.259  -0.028  11.018  0.8133  0.5933 -0.2678
  948MOL0     H27936  11.271   0.152  11.256  0.5811 -0.3357  0.8069
  948MOL0     H27937  11.361   0.189  11.109  0.0689 -0.2402  1.2766
  948MOL0     H27938  11.475  -0.035  11.125 -1.3659 -0.6419 -0.8327
  948MOL0     H27939  11.388  -0.073  11.285  1.5135 -2.5505 -2.4104
  948MOL0     H27940  11.739   0.225  11.273 -0.0677 -0.5512  0.3309
  948MOL0     H27941  11.959   0.151  11.233 -0.1771 -0.1215 -1.4151
  948MOL0     H27942  12.321   0.079  11.005  2.0445 -0.8528 -0.9802
  948MOL0     H27943  12.551   0.010  10.973  0.7451  1.3743  0.2650
  948MOL0     H27944  12.802   0.001  11.281 -2.1939  0.5708  0.3928
  948MOL0     H27945  12.761  -0.154  11.331 -1.0764 -0.6491  0.6817
  948MOL0     H27946  12.923  -0.257  11.205 -1.1467 -0.0265  1.7577
  948MOL0     H27947  12.934  -0.126  11.079  0.1396  2.0844  0.6517
  948MOL0     H27948  13.036   0.018  11.241 -2.2717  0.9015 -2.2144
  948MOL0     H27949  13.091  -0.120  11.339 -1.1340  0.9263  1.0588
  948MOL0     H27950  13.162  -0.127  11.048  4.5674 -2.0360 -0.9624
  948MOL0     H27951  13.229  -0.223  11.181 -2.5998 -1.9215 -1.9519
  948MOL0     H27952  13.323   0.004  11.265 -1.3846 -1.7101  1.3061
  948MOL0     H27953  13.258   0.065  11.115  1.1690  0.8835  1.9253
  948MOL0     H27954  13.489  -0.133  11.179  3.0692 -3.1472 -3.6414
  948MOL0     H27955  13.404  -0.133  11.019 -0.0522  0.1624  0.4278
  948MOL0     H27956  13.526   0.102  11.141 -1.0079  0.6903 -0.1824
  948MOL0     H27957  13.483   0.088  10.974  0.1394  1.2694  1.2255
  948MOL0     H27958  13.701  -0.093  11.083 -2.4064  0.2245  0.6393
  948MOL0     H27959  13.634  -0.073  10.920  0.7341 -1.1250 -0.1347
  948MOL0     H27960  12.532  -0.213  11.348  1.1051  0.3264 -0.3436
  948MOL0     H27961  12.279  -0.140  11.360 -0.8838  1.9599  0.6029
  948MOL0     H27962  11.822  -0.263  11.248 -1.5302  0.0392  0.4778
  948MOL0     H27963  11.609  -0.182  11.286 -1.4621  0.3446  0.2275
  948MOL0     H27964  10.508   1.092  10.592 -0.2779 -0.0427  0.5183
  948MOL0     H27965  10.396   1.291  10.523 -1.4188  0.4864  1.3537
  948MOL0     H27966  10.515   1.922  10.641  0.5363 -0.9661  0.1393
  948MOL0     H27967  10.357   2.083  10.557 -0.0084 -0.7201  0.2226
  948MOL0     H27968  10.092   2.161  10.221 -0.6269 -1.0251 -1.7510
  948MOL0     H27969  10.148   2.003  10.179 -0.5808  0.5386 -0.0221
  948MOL0     H27970  10.276   2.168  10.076  2.6818 -0.1579 -1.4578
  948MOL0     H27971  10.387   2.089  10.192  2.0119  2.6796  0.8270
  948MOL0     H27972  10.438   2.278  10.300 -0.8670  0.5893  1.9897
  948MOL0     H27973  10.271   2.310  10.340 -0.6035 -0.7748 -1.0774
  948MOL0     H27974  10.369   2.490  10.226 -0.1460 -0.3199  0.1404
  948MOL0     H27975  10.410   2.418  10.084  0.0468 -0.1730  0.3004
  948MOL0     H27976   9.996   2.445  10.013  0.1205  1.8840 -0.3317
  948MOL0     H27977  10.192   1.803  10.281  2.6570 -1.4316 -0.8169
  948MOL0     H27978  10.246   1.553  10.342 -1.8855  2.7694  0.4206
  948MOL0     H27979  10.378   1.610  10.225  0.6535  0.7747  0.5601
  948MOL0     H27980  10.416   1.525  10.367 -1.8388 -1.5845 -0.0554
  949MOL0     O27981   1.763   6.449   0.301  0.3990 -0.7841 -0.3876
  949MOL0     C27982   1.846   6.543   0.280  0.3067  0.1517 -0.3747
  949MOL0     O27983   1.927   6.606   0.365  0.1042 -0.5695 -0.1695
  949MOL0     C27984   1.971   6.528   0.474  0.3889 -0.0399 -0.8966
  949MOL0     C27985   1.899   6.516   0.597  0.3691 -0.2185  0.0451
  949MOL0     C27986   1.944   6.420   0.690 -0.0866 -0.3066  0.0625
  949MOL0     C27987   2.059   6.335   0.659 -0.3602  0.0730 -0.6778
  949MOL0     O27988   2.114   6.244   0.740 -0.4343  0.2482  0.2221
  949MOL0     C27989   2.038   6.193   0.848 -0.0761  0.6610  0.8103
  949MOL0     C27990   2.117   6.088   0.917 -0.4212  0.2341  0.7201
  949MOL0     C27991   2.105   5.948   0.850 -0.4643 -0.1809 -0.6390
  949MOL0     C27992   2.154   5.929   0.704 -0.2609 -1.0173 -0.2554
  949MOL0     C27993   2.300   5.963   0.682  0.0936 -0.5095 -0.5734
  949MOL0     C27994   2.396   5.866   0.756  0.3745 -0.2945 -1.4701
  949MOL0     C27995   2.545   5.872   0.718 -0.3235  0.0269  0.6415
  949MOL0     C27996   2.578   5.839   0.571 -0.8819  0.1989  0.4916
  949MOL0     N27997   2.540   5.699   0.538 -0.3738 -0.1891 -0.2676
  949MOL0     C27998   2.629   5.602   0.558  0.3799  0.0818  0.6055
  949MOL0     C27999   2.552   5.487   0.532 -0.2231  0.4108 -0.0469
  949MOL0     C28000   2.605   5.343   0.543 -0.1274  0.0237  0.3637
  949MOL0     C28001   2.516   5.234   0.628 -0.0018 -0.5177 -0.1002
  949MOL0     C28002   2.428   5.146   0.528 -0.1913  0.0903 -0.5045
  949MOL0     C28003   2.285   5.195   0.533  0.0778  0.5284  0.3371
  949MOL0     O28004   2.225   5.192   0.660  0.7292  1.4262 -0.5111
  949MOL0     C28005   2.117   5.265   0.679 -0.0336 -0.2921 -0.1326
  949MOL0     C28006   2.129   5.409   0.687 -0.5145  0.1127  0.3068
  949MOL0     C28007   2.018   5.485   0.725  0.0901  0.4907  0.6251
  949MOL0     C28008   1.896   5.431   0.760  0.3953 -0.4808  0.0001
  949MOL0     C28009   1.781   5.517   0.801  0.0808  0.3365 -0.3676
  949MOL0     O28010   1.768   5.645   0.766  0.0514 -0.3455 -0.6803
  949MOL0     C28011   1.683   5.736   0.822 -0.2282 -1.4945  0.0947
  949MOL0     C28012   1.575   5.721   0.904 -0.0327 -0.0294 -0.5266
  949MOL0     C28013   1.504   5.826   0.952 -0.7450  0.4361 -1.0421
  949MOL0     C28014   1.514   5.952   0.908 -0.1892  0.0734  0.4349
  949MOL0     O28015   1.441   6.059   0.955  0.5447 -0.3095  0.0093
  949MOL0     C28016   1.493   6.191   0.968 -0.1686  0.2149 -0.4705
  949MOL0     C28017   1.585   6.204   1.096  0.3524  0.2335 -0.2073
  949MOL0     C28018   1.589   6.349   1.136 -0.2651 -0.0301  0.1231
  949MOL0     C28019   1.668   6.441   1.036  0.5321 -0.0774 -0.0569
  949MOL0     C28020   1.701   6.580   1.107 -0.4898  0.0287 -0.9788
  949MOL0     C28021   1.811   6.652   1.027 -0.5077  0.0578 -0.7970
  949MOL0     C28022   1.837   6.781   1.088 -0.6318  0.4404 -1.0232
  949MOL0     C28023   1.948   6.847   1.006  0.3912  0.5923  0.6769
  949MOL0    Cl28024   1.965   7.017   1.040  0.0023 -0.4627 -0.1545
  949MOL0     C28025   1.615   5.973   0.804  0.1589  0.4363 -0.5939
  949MOL0     C28026   1.700   5.869   0.772  0.2123  1.2341 -0.3150
  949MOL0     O28027   1.690   5.447   0.852  0.3076 -0.5340  0.9498
  949MOL0     C28028   1.885   5.283   0.764 -0.0318 -0.3604  0.3698
  949MOL0     C28029   1.994   5.212   0.738 -0.4011  0.4564  1.2445
  949MOL0     N28030   2.420   5.522   0.506 -0.9583 -1.1712  1.0237
  949MOL0     N28031   2.418   5.653   0.500 -0.1898  0.1958  1.1550
  949MOL0     C28032   2.133   6.356   0.546  0.5393 -0.1555  1.1443
  949MOL0     C28033   2.091   6.458   0.456  0.6048  0.3686  0.7468
  949MOL0     C28034   1.849   6.621   0.147 -0.4748 -0.0627  1.1882
  949MOL0     C28035   1.849   6.760   0.152 -0.2601  0.0032  0.2598
  949MOL0     C28036   1.851   6.833   0.036 -0.6081 -1.0497 -0.2924
  949MOL0     C28037   1.850   6.768  -0.089 -0.2755  0.1963 -0.3890
  949MOL0     O28038   1.857   6.832  -0.212 -0.0538 -0.1811  0.2693
  949MOL0     C28039   1.850   6.972  -0.210 -0.8729 -0.4927 -0.2383
  949MOL0     C28040   1.828   7.033  -0.340 -0.6867  0.4930 -0.4738
  949MOL0     C28041   1.691   6.998  -0.394  0.4531  0.0100 -0.7638
  949MOL0     C28042   1.649   7.094  -0.502 -0.2285 -0.3947 -1.2311
  949MOL0     C28043   1.629   7.236  -0.459  0.6126  0.3903 -0.4429
  949MOL0     C28044   1.615   7.350  -0.423  0.0209  0.1130  1.0625
  949MOL0     C28045   1.842   6.633  -0.090 -0.1999 -0.3644  0.0930
  949MOL0     C28046   1.831   6.551   0.019 -0.8296  0.2446 -0.3413
  949MOL0     C28047   1.845   6.399   0.016 -0.1017 -0.3940 -0.3239
  949MOL0     H28048   1.810   6.576   0.615 -0.0349 -0.5116 -0.9561
  949MOL0     H28049   1.876   6.411   0.774 -0.8657 -1.6973 -0.6798
  949MOL0     H28050   2.012   6.275   0.915 -5.3947  0.2120 -0.2462
  949MOL0     H28051   1.941   6.152   0.816 -1.1050  1.1628  3.0627
  949MOL0     H28052   2.069   6.063   1.011  0.4709 -1.0661  0.8463
  949MOL0     H28053   2.221   6.120   0.928  0.7610 -2.2907 -1.7711
  949MOL0     H28054   2.001   5.914   0.846 -0.9190  0.8488  1.3999
  949MOL0     H28055   2.165   5.872   0.901 -0.8126 -0.7944 -1.1269
  949MOL0     H28056   2.140   5.823   0.678 -1.6936 -0.5442 -1.5692
  949MOL0     H28057   2.094   5.992   0.638  2.4268 -0.0308 -1.9482
  949MOL0     H28058   2.327   5.959   0.576 -1.3111 -0.3804 -0.9556
  949MOL0     H28059   2.322   6.066   0.711  0.5444 -0.4506 -1.1117
  949MOL0     H28060   2.384   5.880   0.863  0.3523 -1.3996 -1.3203
  949MOL0     H28061   2.352   5.767   0.744 -0.4104  0.0678 -1.7323
  949MOL0     H28062   2.613   5.827   0.791  1.3579  2.4392  0.6659
  949MOL0     H28063   2.570   5.977   0.738  1.3291  0.3539 -2.5275
  949MOL0     H28064   2.530   5.902   0.496  2.0719  2.4233  0.2522
  949MOL0     H28065   2.686   5.851   0.559 -0.6533  0.4988  2.5432
  949MOL0     H28066   2.734   5.616   0.580  1.0692  0.4149 -2.4687
  949MOL0     H28067   2.634   5.294   0.450 -0.7949 -0.8702  0.6089
  949MOL0     H28068   2.701   5.355   0.594 -0.8846  0.9043  1.6285
  949MOL0     H28069   2.597   5.182   0.680  4.6404  6.4125  0.9707
  949MOL0     H28070   2.468   5.294   0.707  1.0524 -0.9109  0.8602
  949MOL0     H28071   2.421   5.043   0.564 -0.8486  1.1424  2.6708
  949MOL0     H28072   2.465   5.149   0.425 -0.2190  2.1521 -0.5052
  949MOL0     H28073   2.231   5.126   0.468 -0.3560  0.7823  0.4220
  949MOL0     H28074   2.290   5.295   0.489 -0.1563  0.2410 -0.3581
  949MOL0     H28075   2.227   5.454   0.674 -0.2486 -0.5649 -0.1138
  949MOL0     H28076   2.024   5.593   0.738 -0.2576  0.1643  5.0765
  949MOL0     H28077   1.548   5.621   0.938  1.7038 -0.0948  0.8315
  949MOL0     H28078   1.428   5.808   1.029 -1.0033  1.1722 -1.1187
  949MOL0     H28079   1.559   6.218   0.884  1.3137 -0.0488  0.5704
  949MOL0     H28080   1.411   6.263   0.973  0.2212  0.8027 -1.8635
  949MOL0     H28081   1.542   6.143   1.176  1.3960 -0.7649 -0.3985
  949MOL0     H28082   1.678   6.155   1.069 -1.4011 -2.5277 -1.7343
  949MOL0     H28083   1.491   6.388   1.164 -0.1401  0.2433  0.1775
  949MOL0     H28084   1.647   6.335   1.227 -0.6942 -0.0483  0.3940
  949MOL0     H28085   1.614   6.479   0.949  1.5156 -0.1237 -0.7059
  949MOL0     H28086   1.756   6.384   1.005  0.1230 -1.3021  0.9480
  949MOL0     H28087   1.737   6.564   1.209  1.3856 -0.1302 -1.6223
  949MOL0     H28088   1.610   6.639   1.122 -0.2889 -0.4294  3.2482
  949MOL0     H28089   1.901   6.591   1.037  0.3016  1.5981  5.4324
  949MOL0     H28090   1.772   6.664   0.925 -0.2638  2.2811 -0.6719
  949MOL0     H28091   1.869   6.773   1.193 -0.5512  1.9918 -0.8978
  949MOL0     H28092   1.739   6.830   1.086 -1.7952 -1.7294 -0.5069
  949MOL0     H28093   2.042   6.795   1.029 -0.9184 -3.2985 -1.8202
  949MOL0     H28094   1.929   6.826   0.901 -0.0536  1.4173  0.5914
  949MOL0     H28095   1.635   6.062   0.744 -0.4991  0.6947 -0.4394
  949MOL0     H28096   1.787   5.882   0.707  0.4153  3.4494  0.3090
  949MOL0     H28097   1.797   5.225   0.789 -0.3621 -0.3933 -0.8260
  949MOL0     H28098   1.967   5.108   0.752 -3.5909  1.1588  0.9299
  949MOL0     H28099   2.224   6.300   0.533  0.2438 -0.4235  0.1775
  949MOL0     H28100   2.144   6.476   0.363 -1.1151  2.4537  0.0915
  949MOL0     H28101   1.854   6.808   0.249  3.1386  2.1360 -0.7994
  949MOL0     H28102   1.874   6.939   0.046  1.2655 -1.4956  0.4811
  949MOL0     H28103   1.943   7.020  -0.177 -0.7292  1.4533 -3.0880
  949MOL0     H28104   1.770   7.003  -0.143  0.5004 -0.0015  1.2272
  949MOL0     H28105   1.900   7.003  -0.417 -0.4072 -1.7682  0.5911
  949MOL0     H28106   1.839   7.141  -0.324  0.7307  0.1418  1.2127
  949MOL0     H28107   1.613   6.997  -0.317  1.5870 -0.4049  0.4101
  949MOL0     H28108   1.694   6.900  -0.441  0.1146 -0.6055  0.4666
  949MOL0     H28109   1.725   7.093  -0.582  2.0023 -0.5452  0.7653
  949MOL0     H28110   1.559   7.058  -0.552 -0.0827 -0.5715 -1.3738
  949MOL0     H28111   1.598   7.449  -0.386 -1.9102  0.3514 -0.3520
  949MOL0     H28112   1.843   6.582  -0.185  3.0838 -3.6277  1.6018
  949MOL0     H28113   1.754   6.346   0.047  0.7088 -1.9627 -0.5315
  949MOL0     H28114   1.868   6.384  -0.089  0.1743  2.1075 -0.6788
  949MOL0     H28115   1.927   6.371   0.083 -0.1146 -2.4239 -1.0690
  950MOL0     O28116   4.607   5.083   0.594  0.2288  0.3990 -0.5702
  950MOL0     C28117   4.537   5.179   0.564  0.8959 -0.0658 -1.0075
  950MOL0     O28118   4.539   5.301   0.626 -0.4257  0.0245  0.3165
  950MOL0     C28119   4.630   5.330   0.724  0.4888  0.2160 -1.5170
  950MOL0     C28120   4.753   5.385   0.694 -1.2380 -0.2603 -0.3278
  950MOL0     C28121   4.851   5.405   0.792  0.2341  0.2252 -0.9747
  950MOL0     C28122   4.822   5.385   0.933  0.2844 -1.3792  0.4021
  950MOL0     O28123   4.908   5.408   1.042  0.9695 -0.2973 -0.0319
  950MOL0     C28124   5.040   5.462   1.023  0.3734 -0.9978 -1.4063
  950MOL0     C28125   5.152   5.345   1.019 -0.2547  0.6668  0.4961
  950MOL0     C28126   5.136   5.240   0.909  0.3615 -0.1864 -0.4015
  950MOL0     C28127   5.255   5.143   0.911 -0.0341 -0.4230 -0.8912
  950MOL0     C28128   5.239   5.031   0.806  0.6711  0.6871 -0.2783
  950MOL0     C28129   5.364   4.954   0.786 -0.1148  0.3966 -0.9537
  950MOL0     C28130   5.475   5.022   0.715  0.1299 -0.1188  0.3505
  950MOL0     C28131   5.601   4.946   0.722  1.2479 -1.0523  0.0893
  950MOL0     N28132   5.642   4.926   0.864 -0.2091 -0.8735 -0.0230
  950MOL0     C28133   5.676   5.022   0.959  0.8676  0.3927  0.2795
  950MOL0     C28134   5.681   4.952   1.076  0.3995 -0.8317 -0.2274
  950MOL0     C28135   5.698   5.016   1.216 -0.3907 -0.3018  0.4841
  950MOL0     C28136   5.674   4.917   1.335  0.3055  0.2585 -0.3146
  950MOL0     C28137   5.731   4.978   1.464  0.4524 -1.0728  0.3889
  950MOL0     C28138   5.880   4.967   1.480  0.0291  0.1961 -0.2300
  950MOL0     O28139   5.911   5.069   1.578 -0.1113  0.7549  0.1804
  950MOL0     C28140   6.041   5.078   1.633  0.0141 -0.4577  0.4077
  950MOL0     C28141   6.152   5.010   1.583  0.6339 -0.5325  0.5104
  950MOL0     C28142   6.278   5.034   1.638  0.4590 -0.7451 -0.4435
  950MOL0     C28143   6.291   5.111   1.751 -1.0682 -0.3892  0.6494
  950MOL0     C28144   6.428   5.126   1.817 -0.1491  1.2046 -0.6646
  950MOL0     O28145   6.437   5.210   1.933  1.0470  0.6315  1.3513
  950MOL0     C28146   6.557   5.240   1.991  0.6149 -0.1506 -0.5951
  950MOL0     C28147   6.661   5.292   1.917 -1.4331 -0.6815 -0.0609
  950MOL0     C28148   6.787   5.329   1.981 -0.4514 -0.4329 -0.3602
  950MOL0     C28149   6.799   5.305   2.113  0.4660 -0.0227  0.0926
  950MOL0     O28150   6.928   5.304   2.154  0.1023 -0.3140  0.7696
  950MOL0     C28151   6.955   5.344   2.285 -0.5232 -0.2143 -0.6146
  950MOL0     C28152   6.971   5.491   2.300  0.4510 -0.1081  0.1855
  950MOL0     C28153   7.106   5.551   2.273 -0.5720 -0.6677  0.2404
  950MOL0     C28154   7.209   5.522   2.392 -0.6207  0.0861  1.1885
  950MOL0     C28155   7.340   5.600   2.390 -0.6508  0.4071 -0.8765
  950MOL0     C28156   7.316   5.748   2.411  0.3496 -0.0327  0.5535
  950MOL0     C28157   7.447   5.830   2.433  0.6693 -0.1800 -0.6473
  950MOL0     C28158   7.429   5.981   2.428 -0.0223  0.2308  1.1301
  950MOL0    Cl28159   7.595   6.042   2.407 -0.1567 -0.3634  0.1064
  950MOL0     C28160   6.691   5.262   2.190 -0.4181  0.3794  0.1333
  950MOL0     C28161   6.574   5.242   2.129  0.5729 -0.5539  0.7388
  950MOL0     O28162   6.521   5.079   1.758  0.5139  0.7285  0.2996
  950MOL0     C28163   6.184   5.180   1.801  0.8615  0.5772  1.4661
  950MOL0     C28164   6.060   5.165   1.743  0.8498 -0.3878 -0.1757
  950MOL0     N28165   5.643   4.820   1.048 -0.1179 -0.4583 -0.4466
  950MOL0     N28166   5.635   4.806   0.923 -0.5097 -0.5468  0.6224
  950MOL0     C28167   4.705   5.322   0.961  0.3175 -0.6853  0.3071
  950MOL0     C28168   4.605   5.289   0.861 -0.3482 -0.3913 -0.3374
  950MOL0     C28169   4.463   5.174   0.432  0.4401  0.7816 -0.1977
  950MOL0     C28170   4.332   5.239   0.418 -1.2758 -0.5032 -0.7130
  950MOL0     C28171   4.265   5.238   0.297 -0.3966 -0.1612 -0.4300
  950MOL0     C28172   4.319   5.165   0.189  0.4818  0.3333 -0.5533
  950MOL0     O28173   4.255   5.155   0.074  0.2778 -0.1355  0.2976
  950MOL0     C28174   4.190   5.029   0.034 -0.0463 -0.2057 -0.4264
  950MOL0     C28175   4.132   5.046  -0.109  0.1680  0.7720  0.1227
  950MOL0     C28176   4.223   5.087  -0.222 -0.0191  0.9810  0.3786
  950MOL0     C28177   4.169   5.073  -0.366 -0.3822 -0.4266 -0.2416
  950MOL0     C28178   4.054   5.157  -0.380  0.3442 -0.5068 -0.7215
  950MOL0     C28179   3.957   5.233  -0.405 -0.2080 -0.4238 -0.0582
  950MOL0     C28180   4.445   5.099   0.201  1.0255  0.1403  0.3343
  950MOL0     C28181   4.520   5.105   0.323  0.6066  0.2103  0.7136
  950MOL0     C28182   4.642   5.026   0.329 -0.0147 -0.4961  0.1415
  950MOL0     H28183   4.761   5.433   0.597  1.6236  0.9319  0.4119
  950MOL0     H28184   4.946   5.450   0.763  0.7993  0.0448  0.5250
  950MOL0     H28185   5.052   5.526   0.935 -1.2025 -0.5227 -1.2930
  950MOL0     H28186   5.059   5.534   1.103  0.8349  0.1665 -2.5213
  950MOL0     H28187   5.158   5.297   1.117  3.3049 -2.0638 -0.8533
  950MOL0     H28188   5.239   5.409   0.998 -0.0059 -0.5744 -2.8880
  950MOL0     H28189   5.135   5.302   0.818 -1.2528  0.5526  0.0892
  950MOL0     H28190   5.039   5.189   0.905 -0.5936  1.6309 -2.9332
  950MOL0     H28191   5.342   5.206   0.891  2.4612 -0.7316  6.2280
  950MOL0     H28192   5.282   5.104   1.009  2.7798 -0.6741 -1.6935
  950MOL0     H28193   5.160   4.967   0.846  0.8652  1.4310  1.3859
  950MOL0     H28194   5.206   5.066   0.708  1.9670  0.5307 -0.7892
  950MOL0     H28195   5.396   4.937   0.889  1.4025  2.4053 -1.0355
  950MOL0     H28196   5.336   4.861   0.735  1.4777 -0.7508  0.1574
  950MOL0     H28197   5.491   5.117   0.767 -0.0492  0.2911 -0.3334
  950MOL0     H28198   5.444   5.028   0.611  3.5407  0.9586 -0.7182
  950MOL0     H28199   5.580   4.850   0.674  0.6936 -0.2652 -1.3097
  950MOL0     H28200   5.681   4.990   0.662 -0.1874 -0.0809 -1.1981
  950MOL0     H28201   5.683   5.129   0.939  0.7931 -0.0994 -2.9250
  950MOL0     H28202   5.799   5.059   1.219 -0.3224 -0.4788  0.8482
  950MOL0     H28203   5.633   5.104   1.223  2.0816  1.5618  2.1204
  950MOL0     H28204   5.571   4.881   1.339  0.3870 -0.2252 -2.0455
  950MOL0     H28205   5.729   4.823   1.326  0.2967  0.3837 -1.8754
  950MOL0     H28206   5.682   4.932   1.551 -0.1993  1.0568  1.2163
  950MOL0     H28207   5.691   5.079   1.453 -2.2520 -1.8793  1.8060
  950MOL0     H28208   5.924   4.982   1.381  1.8229  1.3425  0.6825
  950MOL0     H28209   5.899   4.864   1.509 -1.3514 -0.3503 -1.1251
  950MOL0     H28210   6.131   4.947   1.497 -2.2017  0.4279  0.3999
  950MOL0     H28211   6.366   4.988   1.594  3.2170  3.2169  0.3641
  950MOL0     H28212   6.655   5.294   1.809  0.3000  0.2309 -0.1819
  950MOL0     H28213   6.864   5.370   1.916  0.6914 -0.1499  1.1027
  950MOL0     H28214   6.870   5.323   2.351 -0.4310  0.0990 -0.3956
  950MOL0     H28215   7.041   5.285   2.317  1.3347  2.0042 -1.2218
  950MOL0     H28216   6.904   5.529   2.223  0.1998  0.6651  0.7712
  950MOL0     H28217   6.941   5.523   2.400  2.5695  0.1300  0.7949
  950MOL0     H28218   7.148   5.511   2.180  0.6195 -3.5049  1.8623
  950MOL0     H28219   7.104   5.660   2.266 -0.8660 -0.5909  1.3344
  950MOL0     H28220   7.232   5.415   2.387  1.1391  0.4562  1.0313
  950MOL0     H28221   7.155   5.540   2.486  0.2119 -1.4698  2.0090
  950MOL0     H28222   7.383   5.575   2.293  1.4429  1.7422 -0.3540
  950MOL0     H28223   7.400   5.559   2.472 -1.1221 -0.0067 -0.7309
  950MOL0     H28224   7.272   5.789   2.320  0.5841 -1.7435 -0.3846
  950MOL0     H28225   7.252   5.751   2.499 -0.1983 -4.9549  0.6250
  950MOL0     H28226   7.520   5.803   2.356  1.8992  0.6759  0.1867
  950MOL0     H28227   7.481   5.806   2.535 -1.5022  0.5874  0.3132
  950MOL0     H28228   7.371   6.008   2.339  0.6077 -0.5500  0.4711
  950MOL0     H28229   7.382   6.025   2.517 -2.0623 -0.9926  0.7377
  950MOL0     H28230   6.685   5.241   2.296 -1.0602 -1.6844 -0.2581
  950MOL0     H28231   6.492   5.207   2.192  1.3744 -2.0217  1.0095
  950MOL0     H28232   6.200   5.244   1.888 -2.3192  3.7100  0.0236
  950MOL0     H28233   5.992   5.244   1.774  3.5170  0.9321  2.9743
  950MOL0     H28234   4.666   5.288   1.057 -2.9890 -1.0024 -0.9990
  950MOL0     H28235   4.510   5.240   0.880 -0.4904 -0.5399 -1.3558
  950MOL0     H28236   4.281   5.283   0.502 -2.9933  0.5608 -2.2408
  950MOL0     H28237   4.177   5.300   0.287 -1.4919 -1.7792 -1.1831
  950MOL0     H28238   4.113   5.014   0.110  0.3825  1.0828  0.2990
  950MOL0     H28239   4.261   4.946   0.035  1.0206  0.6746 -0.9784
  950MOL0     H28240   4.043   5.109  -0.099 -0.4139  0.2300 -1.3118
  950MOL0     H28241   4.107   4.941  -0.127 -1.9524  1.2355  0.1060
  950MOL0     H28242   4.313   5.026  -0.212 -2.2686 -2.7076 -0.0500
  950MOL0     H28243   4.253   5.191  -0.205  1.0551  0.2435  3.9230
  950MOL0     H28244   4.252   5.100  -0.432  0.7149 -1.0221  0.8449
  950MOL0     H28245   4.125   4.976  -0.390 -0.4267 -0.4237 -0.1752
  950MOL0     H28246   3.867   5.286  -0.427 -0.7359 -1.3504 -0.1699
  950MOL0     H28247   4.485   5.041   0.118  1.0901 -0.1588  0.5742
  950MOL0     H28248   4.667   4.983   0.232 -0.8172  0.7938 -0.6713
  950MOL0     H28249   4.730   5.081   0.362 -0.5998  0.3453  0.3406
  950MOL0     H28250   4.621   4.948   0.402  1.9053 -0.3210  0.9432
  951MOL0     O28251   8.643   1.696   5.575  0.2632 -0.6131  0.2996
  951MOL0     C28252   8.750   1.647   5.534 -0.2495 -0.0968 -0.5397
  951MOL0     O28253   8.874   1.700   5.565  0.4361  0.5987 -0.2876
  951MOL0     C28254   8.892   1.831   5.597  0.7315  1.1130  0.6054
  951MOL0     C28255   9.010   1.865   5.662 -0.1960 -0.0513  0.7885
  951MOL0     C28256   9.043   1.996   5.688  0.3078 -0.2760 -0.3263
  951MOL0     C28257   8.945   2.103   5.660  0.8211  0.7213 -0.3761
  951MOL0     O28258   8.957   2.239   5.675 -0.4140  0.8516  0.3111
  951MOL0     C28259   9.064   2.271   5.771 -0.8025 -0.0959 -0.1976
  951MOL0     C28260   9.071   2.415   5.809 -0.6400 -1.0175 -0.9174
  951MOL0     C28261   9.086   2.525   5.702 -0.8677  0.4862 -0.8899
  951MOL0     C28262   9.033   2.664   5.759 -0.2240  0.2331  0.8271
  951MOL0     C28263   9.034   2.760   5.645  0.2037  0.3331  0.1131
  951MOL0     C28264   8.985   2.900   5.682 -0.0661 -0.5404  0.2545
  951MOL0     C28265   9.051   3.003   5.593  0.4806 -0.2610  0.3209
  951MOL0     C28266   8.999   3.146   5.639 -0.2379 -0.2197 -0.1132
  951MOL0     N28267   8.869   3.173   5.577  0.5846 -0.0624  0.2193
  951MOL0     C28268   8.843   3.187   5.442 -0.1449  0.0023 -0.2010
  951MOL0     C28269   8.713   3.218   5.438  0.4538 -0.1264 -0.3953
  951MOL0     C28270   8.636   3.239   5.310 -0.3748 -0.3905  0.5332
  951MOL0     C28271   8.674   3.379   5.266  0.0832  0.3886 -0.7326
  951MOL0     C28272   8.625   3.487   5.372 -0.0217  0.3864 -0.1884
  951MOL0     C28273   8.675   3.630   5.339  0.3045  0.1113  0.0882
  951MOL0     O28274   8.658   3.653   5.197 -0.4209 -0.3968  0.0983
  951MOL0     C28275   8.643   3.786   5.157 -1.5814  0.2901  0.6321
  951MOL0     C28276   8.572   3.811   5.040  0.8356 -1.2822  0.8515
  951MOL0     C28277   8.567   3.944   4.995  1.0443  0.6900 -0.2087
  951MOL0     C28278   8.649   4.050   5.040 -0.1565  0.7969 -0.5817
  951MOL0     C28279   8.661   4.176   4.972 -0.1323  0.0587  0.9488
  951MOL0     O28280   8.729   4.275   5.040  0.7788  0.0476  0.2939
  951MOL0     C28281   8.736   4.399   4.970  0.1132 -0.1544 -0.6043
  951MOL0     C28282   8.818   4.420   4.860  0.2912 -0.2891  0.3742
  951MOL0     C28283   8.813   4.554   4.800  0.3156 -0.9227 -0.8242
  951MOL0     C28284   8.717   4.652   4.846  0.0221  0.4679  0.4963
  951MOL0     O28285   8.685   4.764   4.780  0.4767 -0.1223 -0.3732
  951MOL0     C28286   8.772   4.816   4.678  0.0903 -0.1574 -0.1396
  951MOL0     C28287   8.694   4.930   4.618  0.1986 -0.0270  0.6757
  951MOL0     C28288   8.755   4.987   4.490  0.2502 -0.4491 -0.4907
  951MOL0     C28289   8.698   5.128   4.454 -0.0137 -0.5241  0.0340
  951MOL0     C28290   8.728   5.178   4.312  0.0352 -0.1337  0.1331
  951MOL0     C28291   8.858   5.248   4.298 -0.5422  0.5399 -0.2391
  951MOL0     C28292   8.852   5.335   4.177 -0.0980 -0.9514 -0.6741
  951MOL0     C28293   8.976   5.337   4.088 -0.2427 -0.3120 -0.5533
  951MOL0    Cl28294   8.993   5.171   4.023 -0.2245 -0.0048 -0.3937
  951MOL0     C28295   8.646   4.625   4.958  0.6514 -0.5328  0.5384
  951MOL0     C28296   8.662   4.504   5.024  0.4312  0.9029 -0.4480
  951MOL0     O28297   8.626   4.172   4.851 -0.6061 -0.5529 -0.4913
  951MOL0     C28298   8.718   4.022   5.154 -0.4044  0.3266 -0.2463
  951MOL0     C28299   8.720   3.888   5.213  0.1726  0.1905 -0.0584
  951MOL0     N28300   8.660   3.218   5.564  0.2610  0.2004  0.5409
  951MOL0     N28301   8.758   3.194   5.646 -0.4832 -0.1829 -0.2071
  951MOL0     C28302   8.823   2.067   5.604  0.3386  0.1429 -0.4133
  951MOL0     C28303   8.811   1.936   5.560 -0.7816 -0.1089 -0.8751
  951MOL0     C28304   8.753   1.505   5.475 -0.6707 -0.8133  0.1493
  951MOL0     C28305   8.880   1.446   5.453 -0.5310  0.7009  1.1715
  951MOL0     C28306   8.898   1.313   5.405  0.4041 -0.2709  0.4606
  951MOL0     C28307   8.785   1.242   5.368  0.2632  0.3068 -0.5596
  951MOL0     O28308   8.814   1.119   5.317 -0.1770 -0.5032 -0.9752
  951MOL0     C28309   8.732   1.057   5.223 -0.9321  0.5801 -0.5147
  951MOL0     C28310   8.825   0.987   5.125  0.1709 -0.0892  0.5071
  951MOL0     C28311   8.755   0.940   4.998  0.0830 -0.2877 -0.2804
  951MOL0     C28312   8.845   0.835   4.921 -0.4576  0.5931  0.0778
  951MOL0     C28313   8.779   0.794   4.795  1.5460  1.0959 -0.4977
  951MOL0     C28314   8.720   0.793   4.686 -0.6000 -0.3396  0.3402
  951MOL0     C28315   8.660   1.290   5.400 -0.1454 -0.7838 -0.1521
  951MOL0     C28316   8.634   1.424   5.452  0.7949 -0.3968  0.2059
  951MOL0     C28317   8.492   1.475   5.476 -0.2650 -0.7149 -0.1960
  951MOL0     H28318   9.088   1.792   5.679  0.8588  0.6081 -0.9866
  951MOL0     H28319   9.139   2.016   5.734 -0.4282  0.2156  1.0822
  951MOL0     H28320   9.053   2.213   5.863 -0.9740  1.7646  1.0239
  951MOL0     H28321   9.155   2.241   5.719  0.0111 -3.2837  2.6717
  951MOL0     H28322   9.142   2.437   5.889 -3.6689 -0.3475  1.8200
  951MOL0     H28323   8.978   2.441   5.862  0.3579  0.1477  0.3390
  951MOL0     H28324   9.028   2.506   5.611 -0.3662  0.5982 -1.2381
  951MOL0     H28325   9.193   2.544   5.685 -0.6567 -1.5584 -2.2541
  951MOL0     H28326   8.930   2.652   5.795 -0.3575  2.1563  1.1974
  951MOL0     H28327   9.102   2.693   5.838  1.4653  0.4508 -0.6694
  951MOL0     H28328   9.140   2.769   5.618  1.5591 -1.3117  4.1198
  951MOL0     H28329   8.985   2.718   5.556 -0.3340 -2.1106  1.4737
  951MOL0     H28330   8.876   2.900   5.672 -0.0303 -1.5565 -0.3006
  951MOL0     H28331   9.007   2.917   5.787  0.3930  3.6556 -0.3453
  951MOL0     H28332   9.034   2.983   5.487 -3.1911 -1.2826  0.9359
  951MOL0     H28333   9.154   2.997   5.627  0.0736 -3.1300  1.3218
  951MOL0     H28334   8.969   3.129   5.743 -2.5356  1.5639 -0.3965
  951MOL0     H28335   9.071   3.228   5.630 -4.2581  3.6475 -0.1378
  951MOL0     H28336   8.911   3.162   5.361  1.0927 -5.6551  2.0942
  951MOL0     H28337   8.675   3.169   5.235 -1.4468  1.1700 -1.5954
  951MOL0     H28338   8.529   3.225   5.331 -0.4445  0.4289  0.7600
  951MOL0     H28339   8.783   3.387   5.253 -0.1515  1.2139 -2.5411
  951MOL0     H28340   8.634   3.393   5.165  0.9165  1.8051 -0.8910
  951MOL0     H28341   8.643   3.463   5.477 -0.2927  1.5372  0.1356
  951MOL0     H28342   8.516   3.487   5.370 -0.2967 -2.0412  4.0446
  951MOL0     H28343   8.783   3.630   5.359 -0.0673  0.7904  2.4800
  951MOL0     H28344   8.629   3.710   5.399  1.4436 -0.1305  1.3376
  951MOL0     H28345   8.531   3.726   4.985 -0.5485  1.7195 -3.2658
  951MOL0     H28346   8.503   3.972   4.912  0.5379  5.3007  1.4433
  951MOL0     H28347   8.893   4.348   4.828  2.2344  0.6667  2.4527
  951MOL0     H28348   8.874   4.562   4.710  2.5667 -1.6876  0.5470
  951MOL0     H28349   8.865   4.861   4.715  0.3073 -0.4416 -0.3350
  951MOL0     H28350   8.801   4.732   4.614  0.7163 -0.5674  0.6583
  951MOL0     H28351   8.593   4.892   4.598  1.2081 -1.8377 -1.4060
  951MOL0     H28352   8.706   5.011   4.690  2.3957 -0.3259  0.7134
  951MOL0     H28353   8.864   4.996   4.495  0.1124  0.8549  0.6601
  951MOL0     H28354   8.740   4.914   4.410  1.3471 -0.2960 -0.8606
  951MOL0     H28355   8.736   5.201   4.527  0.3854 -1.6869  1.0137
  951MOL0     H28356   8.591   5.108   4.464 -0.1890 -2.0837 -3.4260
  951MOL0     H28357   8.651   5.242   4.267 -0.2548 -1.5877 -1.5802
  951MOL0     H28358   8.731   5.089   4.248  1.3687 -0.2922  0.3992
  951MOL0     H28359   8.876   5.307   4.389  1.6218 -1.4590  0.7574
  951MOL0     H28360   8.948   5.185   4.299  2.1983  4.0161 -3.1608
  951MOL0     H28361   8.835   5.436   4.215 -2.8449  0.1815 -4.3293
  951MOL0     H28362   8.768   5.310   4.111  0.6500  1.3534 -2.6439
  951MOL0     H28363   8.958   5.405   4.004 -0.7116  1.4832  0.9342
  951MOL0     H28364   9.073   5.358   4.134 -0.9105 -0.4924  1.0292
  951MOL0     H28365   8.565   4.687   4.996 -2.0327 -3.3440 -0.0880
  951MOL0     H28366   8.603   4.483   5.113 -0.1804  0.6040 -0.9122
  951MOL0     H28367   8.780   4.093   5.206  0.7275 -2.1231  1.9371
  951MOL0     H28368   8.781   3.882   5.303  2.3823 -3.0948 -1.5844
  951MOL0     H28369   8.733   2.127   5.609 -0.4446 -1.0967  2.0394
  951MOL0     H28370   8.709   1.931   5.524 -0.6885  1.4706 -1.4629
  951MOL0     H28371   8.968   1.508   5.471  0.5768 -0.3954 -0.2338
  951MOL0     H28372   9.000   1.278   5.393  0.6065  0.4159  0.0603
  951MOL0     H28373   8.656   1.123   5.180 -2.5114  0.3485  1.7013
  951MOL0     H28374   8.677   0.981   5.280  1.0511  0.7553  1.7556
  951MOL0     H28375   8.866   0.897   5.172  0.8586  0.4851  1.0331
  951MOL0     H28376   8.901   1.057   5.089 -0.4817  0.2259 -0.2792
  951MOL0     H28377   8.732   1.026   4.934 -1.3346  0.7234  1.4573
  951MOL0     H28378   8.659   0.902   5.032 -0.1877  0.9355  0.4060
  951MOL0     H28379   8.946   0.865   4.893  0.1598 -1.4398 -0.0606
  951MOL0     H28380   8.861   0.745   4.983 -0.4934  1.6821  1.7452
  951MOL0     H28381   8.670   0.816   4.594  2.5799 -0.3686 -1.5602
  951MOL0     H28382   8.578   1.219   5.391  0.9903 -1.9041 -4.0700
  951MOL0     H28383   8.429   1.405   5.420  0.5530 -2.0597  0.5010
  951MOL0     H28384   8.460   1.451   5.578  5.0569 -2.0802  1.4999
  951MOL0     H28385   8.467   1.573   5.436 -3.6946 -1.6257 -0.6312
  952MOL0     O28386   7.243   2.475  10.703  0.2338 -0.2596  0.8229
  952MOL0     C28387   7.237   2.585  10.647 -0.4477 -0.6466 -0.6929
  952MOL0     O28388   7.214   2.605  10.515 -0.3321 -0.1920 -0.3986
  952MOL0     C28389   7.211   2.490  10.435  0.1826 -0.1143  1.3695
  952MOL0     C28390   7.106   2.395  10.426  0.0340 -0.2806 -0.6132
  952MOL0     C28391   7.110   2.285  10.337  0.5259  0.4790 -0.1783
  952MOL0     C28392   7.224   2.275  10.257 -1.5120  0.1395  0.3869
  952MOL0     O28393   7.227   2.176  10.161 -0.5519 -1.0342 -0.4945
  952MOL0     C28394   7.355   2.134  10.109  0.2217 -1.0605 -0.7825
  952MOL0     C28395   7.389   2.215   9.978 -0.7429 -0.2047 -0.3035
  952MOL0     C28396   7.542   2.204   9.935 -0.0112  0.3567 -0.5120
  952MOL0     C28397   7.646   2.267  10.024 -0.4218 -0.4014  0.1323
  952MOL0     C28398   7.780   2.289   9.942  0.5537  0.1405  0.1611
  952MOL0     C28399   7.893   2.340  10.025 -0.3340  0.3233  0.5683
  952MOL0     C28400   7.936   2.225  10.113 -1.1256 -0.5159 -0.1325
  952MOL0     C28401   8.026   2.129  10.042  0.2636  0.4588  0.1447
  952MOL0     N28402   8.089   2.038  10.139 -0.4064  0.6151  0.1190
  952MOL0     C28403   8.054   1.908  10.146 -0.1797  0.1423  0.1966
  952MOL0     C28404   8.119   1.857  10.251 -0.1500  0.8124  0.0395
  952MOL0     C28405   8.107   1.714  10.295 -0.2089 -0.6736 -0.1518
  952MOL0     C28406   8.215   1.618  10.236  0.7059 -0.0030  0.2983
  952MOL0     C28407   8.358   1.678  10.251 -0.9812 -0.0399  0.2708
  952MOL0     C28408   8.462   1.568  10.243  0.4583 -0.1541 -0.9868
  952MOL0     O28409   8.594   1.638  10.233  0.0219  0.5780  0.3446
  952MOL0     C28410   8.698   1.562  10.180  0.3362 -0.8200  0.9284
  952MOL0     C28411   8.809   1.636  10.155 -1.0668  0.4277  0.0308
  952MOL0     C28412   8.924   1.574  10.101  0.9534 -0.0515 -0.5302
  952MOL0     C28413   8.924   1.435  10.075  0.3773  0.4414 -0.1512
  952MOL0     C28414   9.050   1.361  10.044 -0.2096  0.4520 -0.4520
  952MOL0     O28415   9.042   1.228  10.083 -0.4114 -0.2350 -0.0086
  952MOL0     C28416   9.125   1.134  10.034 -0.2560 -0.0303  0.8115
  952MOL0     C28417   9.143   1.025  10.107  0.4014 -0.0129  0.6981
  952MOL0     C28418   9.218   0.914  10.059  0.3462  0.4445  0.7036
  952MOL0     C28419   9.288   0.915   9.945 -0.3362  0.2103  0.6383
  952MOL0     O28420   9.354   0.796   9.913  0.1620 -0.4244  0.1801
  952MOL0     C28421   9.407   0.782   9.780  0.1012  0.1439 -0.2477
  952MOL0     C28422   9.400   0.632   9.734  0.1636  0.3476 -0.4780
  952MOL0     C28423   9.259   0.592   9.723  0.4190  0.1295  0.0917
  952MOL0     C28424   9.226   0.432   9.731  0.1738 -0.1777  0.7053
  952MOL0     C28425   9.074   0.389   9.736  0.6203 -0.7246 -0.7648
  952MOL0     C28426   9.054   0.242   9.738 -0.3179  0.0841 -0.0653
  952MOL0     C28427   8.914   0.192   9.716  0.3630 -0.1785  0.2222
  952MOL0     C28428   8.860   0.206   9.570  0.1546  0.4740  0.6612
  952MOL0    Cl28429   8.960   0.108   9.464  0.0500 -0.3165  0.4440
  952MOL0     C28430   9.266   1.023   9.864 -0.0992 -0.1406 -0.2362
  952MOL0     C28431   9.194   1.132   9.903 -0.7751  0.1562 -1.3003
  952MOL0     O28432   9.144   1.412   9.987  0.1177  0.4076  0.1016
  952MOL0     C28433   8.808   1.368  10.102  0.7709  0.1376  0.0969
  952MOL0     C28434   8.700   1.425  10.148  0.0737 -0.0637  0.8266
  952MOL0     N28435   8.182   1.964  10.312 -0.2085 -0.0322 -0.8893
  952MOL0     N28436   8.179   2.066  10.236 -0.0462 -1.0753 -0.1712
  952MOL0     C28437   7.326   2.367  10.273 -1.1874  0.0473  0.0806
  952MOL0     C28438   7.316   2.467  10.358 -0.0529 -0.2271 -0.7963
  952MOL0     C28439   7.253   2.705  10.735 -0.2656 -0.7306  0.4435
  952MOL0     C28440   7.320   2.691  10.853  0.1651 -0.3164 -0.0990
  952MOL0     C28441   7.347   2.795  10.941  0.4050 -0.1588 -0.1150
  952MOL0     C28442   7.311   2.931  10.909  0.2220  1.1453 -0.0148
  952MOL0     O28443   7.365   3.028  10.987  0.7338  0.0474 -0.6497
  952MOL0     C28444   7.363   3.164  10.940 -0.7811  0.0184  0.9577
  952MOL0     C28445   7.438   3.257  11.034  0.7857 -0.2765 -0.3810
  952MOL0     C28446   7.364   3.249  11.172 -0.8300 -0.0482  0.0001
  952MOL0     C28447   7.437   3.338  11.257  0.5730 -0.4274 -0.3942
  952MOL0     C28448   7.357   3.351  11.381  0.1777  0.1979  1.3703
  952MOL0     C28449   7.304   3.362  11.488 -0.5307  0.6771 -0.9041
  952MOL0     C28450   7.238   2.946  10.788  0.1280  0.2223 -0.2130
  952MOL0     C28451   7.200   2.839  10.704 -0.1628  0.9199  0.2549
  952MOL0     C28452   7.110   2.865  10.590  0.0523  0.3037 -0.3441
  952MOL0     H28453   7.017   2.403  10.487  0.3688  1.6795 -0.3237
  952MOL0     H28454   7.030   2.214  10.320  0.3997  0.2985  1.0932
  952MOL0     H28455   7.436   2.151  10.181 -1.5900  1.1659  0.8682
  952MOL0     H28456   7.344   2.028  10.086 -1.1144 -0.8706 -1.1003
  952MOL0     H28457   7.365   2.321   9.991  1.3247  0.1080  1.4379
  952MOL0     H28458   7.337   2.168   9.894  0.0444 -0.4935 -0.6383
  952MOL0     H28459   7.553   2.248   9.835 -0.1485  0.8874 -0.2993
  952MOL0     H28460   7.559   2.097   9.925 -2.2066 -0.1593  0.6625
  952MOL0     H28461   7.614   2.369  10.048  0.4999  0.4581 -1.9945
  952MOL0     H28462   7.652   2.207  10.115  0.9622 -0.4082  0.0548
  952MOL0     H28463   7.821   2.198   9.896  0.7055  0.4289 -0.2796
  952MOL0     H28464   7.754   2.359   9.863  0.9173  1.2478  1.0012
  952MOL0     H28465   7.978   2.375   9.965  1.8967 -1.4374  2.5103
  952MOL0     H28466   7.861   2.435  10.069  1.3315  0.8781  0.6463
  952MOL0     H28467   7.850   2.173  10.155 -1.8414  0.9822  0.3547
  952MOL0     H28468   7.987   2.266  10.201 -1.9585  1.6528 -0.5723
  952MOL0     H28469   7.986   2.078   9.955 -1.1342  0.1556  0.9376
  952MOL0     H28470   8.112   2.178   9.995  0.2977 -2.4714 -3.2222
  952MOL0     H28471   7.995   1.857  10.070 -1.3409 -0.5929  1.5334
  952MOL0     H28472   8.129   1.716  10.403  1.5795 -2.0191 -0.4458
  952MOL0     H28473   8.009   1.667  10.286 -1.7849  2.0686  1.1831
  952MOL0     H28474   8.214   1.519  10.283  1.6279 -0.6015 -0.8828
  952MOL0     H28475   8.202   1.603  10.129  0.3118  0.6563  0.2474
  952MOL0     H28476   8.371   1.731  10.346  1.6735 -0.6634  0.3205
  952MOL0     H28477   8.368   1.751  10.170  1.2340  0.4933  0.9646
  952MOL0     H28478   8.450   1.494  10.164 -0.0007 -2.8728  1.4803
  952MOL0     H28479   8.471   1.508  10.333  1.5384  0.6430 -0.5388
  952MOL0     H28480   8.815   1.743  10.174 -1.1035  0.7341 -1.5438
  952MOL0     H28481   9.010   1.638  10.087  1.3589  0.5483  3.4325
  952MOL0     H28482   9.103   1.036  10.207  0.1398  2.0085  0.4034
  952MOL0     H28483   9.217   0.828  10.125 -0.2330 -0.6622 -0.6774
  952MOL0     H28484   9.348   0.831   9.702 -0.8634 -1.3353 -0.4829
  952MOL0     H28485   9.514   0.802   9.784  0.1023  0.0251  3.3400
  952MOL0     H28486   9.456   0.624   9.640  0.9636  1.3133 -0.1046
  952MOL0     H28487   9.455   0.568   9.804 -0.1041 -2.3372 -2.5371
  952MOL0     H28488   9.203   0.655   9.792  1.0715  0.1769  0.5827
  952MOL0     H28489   9.223   0.614   9.621 -3.5918  0.3084  1.3740
  952MOL0     H28490   9.274   0.395   9.822 -1.2669 -0.7215  1.2718
  952MOL0     H28491   9.268   0.377   9.646 -1.8335  0.9216 -1.1047
  952MOL0     H28492   9.034   0.451   9.655 -1.0870  1.8812  1.8794
  952MOL0     H28493   9.028   0.439   9.821 -0.6094  0.5740 -2.1448
  952MOL0     H28494   9.126   0.206   9.664 -0.1257  0.5297 -0.0974
  952MOL0     H28495   9.075   0.199   9.836 -3.2589  0.3512  0.7960
  952MOL0     H28496   8.849   0.255   9.777 -1.7391 -2.1050  0.0814
  952MOL0     H28497   8.906   0.089   9.751 -1.1978  0.3991  1.7265
  952MOL0     H28498   8.753   0.189   9.560 -0.4192  2.7833  2.1457
  952MOL0     H28499   8.885   0.309   9.543  1.9700 -0.5441 -1.9661
  952MOL0     H28500   9.305   1.042   9.764  0.2047  1.7432  0.2046
  952MOL0     H28501   9.179   1.210   9.829  2.2225  0.2609 -1.9094
  952MOL0     H28502   8.820   1.261  10.088  3.0068  0.2485  0.6820
  952MOL0     H28503   8.611   1.370  10.179 -0.8023 -0.1602 -1.6360
  952MOL0     H28504   7.414   2.366  10.210 -1.3302 -0.8468 -0.1171
  952MOL0     H28505   7.396   2.541  10.351  0.6269 -1.0895 -2.5831
  952MOL0     H28506   7.362   2.593  10.874 -2.2125 -1.5810 -0.8089
  952MOL0     H28507   7.400   2.772  11.033  1.1749  1.3242 -0.1585
  952MOL0     H28508   7.261   3.205  10.936 -0.2383  1.2771 -0.9077
  952MOL0     H28509   7.399   3.167  10.837 -2.8570 -3.2565 -0.0137
  952MOL0     H28510   7.430   3.360  10.997 -1.0993  1.3167  3.8556
  952MOL0     H28511   7.544   3.229  11.029  0.7255 -0.2886 -2.7299
  952MOL0     H28512   7.353   3.149  11.215 -2.4515  1.7845  4.4502
  952MOL0     H28513   7.261   3.283  11.167 -0.3780  1.6972  1.4735
  952MOL0     H28514   7.535   3.305  11.293  1.4173 -0.5314 -2.6259
  952MOL0     H28515   7.445   3.429  11.197  1.8582 -2.8745 -4.3673
  952MOL0     H28516   7.257   3.382  11.582 -1.8764  1.7014 -1.7413
  952MOL0     H28517   7.199   3.044  10.760  3.9261  2.0258  0.1584
  952MOL0     H28518   7.026   2.796  10.596  0.2084  0.2573  2.6826
  952MOL0     H28519   7.062   2.964  10.598 -2.8028 -1.0670  1.2541
  952MOL0     H28520   7.153   2.865  10.489  0.9417  1.1838  0.0162
  953MOL0     O28521   1.647   4.280   2.875 -0.5345 -0.0525 -0.0442
  953MOL0     C28522   1.682   4.235   2.767 -0.4619  0.0219 -0.5493
  953MOL0     O28523   1.816   4.231   2.719 -0.0172  0.4295  0.0478
  953MOL0     C28524   1.918   4.240   2.813  0.6928 -0.4942  0.1398
  953MOL0     C28525   2.018   4.336   2.821 -0.3363 -1.0546  0.1202
  953MOL0     C28526   2.122   4.326   2.917 -0.1790 -0.5966  0.0131
  953MOL0     C28527   2.131   4.213   3.002  0.5972  0.4609  0.4930
  953MOL0     O28528   2.242   4.213   3.078  0.0723 -0.3831 -0.9427
  953MOL0     C28529   2.259   4.116   3.187  0.6809 -0.1511 -0.6439
  953MOL0     C28530   2.376   4.147   3.282  0.3382  0.2225  1.1368
  953MOL0     C28531   2.509   4.170   3.204 -0.0597 -0.4874 -0.1259
  953MOL0     C28532   2.598   4.282   3.262  0.9440 -0.1551  0.7738
  953MOL0     C28533   2.739   4.246   3.224 -0.2679 -0.0937 -0.6497
  953MOL0     C28534   2.756   4.219   3.073  1.1702 -0.6785  0.4372
  953MOL0     C28535   2.897   4.238   3.027 -0.1701  0.6646  0.0726
  953MOL0     C28536   2.914   4.274   2.873 -0.1272 -0.6220 -0.9162
  953MOL0     N28537   2.854   4.158   2.791  0.2292 -0.1900 -0.6619
  953MOL0     C28538   2.928   4.065   2.719 -1.2085 -0.3502 -0.0389
  953MOL0     C28539   2.847   4.002   2.634 -0.4790 -0.0171 -0.5045
  953MOL0     C28540   2.897   3.901   2.531 -0.1181  0.3710 -0.1496
  953MOL0     C28541   2.783   3.852   2.438 -0.1008 -0.6275  0.8653
  953MOL0     C28542   2.724   3.724   2.469  0.4246  0.9431 -0.2692
  953MOL0     C28543   2.657   3.727   2.609 -1.7025  0.2723 -0.1890
  953MOL0     O28544   2.582   3.608   2.637 -1.1877 -0.3737  0.4685
  953MOL0     C28545   2.457   3.597   2.585  1.2228 -0.1358  0.2781
  953MOL0     C28546   2.388   3.703   2.532  0.1772 -0.0426 -0.2541
  953MOL0     C28547   2.259   3.692   2.488 -0.5376 -0.9745 -0.1700
  953MOL0     C28548   2.195   3.564   2.498 -0.2823 -0.7007 -0.9134
  953MOL0     C28549   2.052   3.548   2.481  0.8610  0.4993  0.9260
  953MOL0     O28550   1.994   3.663   2.437  0.2826 -0.0842 -0.1831
  953MOL0     C28551   1.866   3.662   2.380 -1.2306  0.1376 -0.0869
  953MOL0     C28552   1.812   3.553   2.305 -0.0567  0.4697  0.5275
  953MOL0     C28553   1.686   3.564   2.241 -1.2134 -0.5400 -0.5782
  953MOL0     C28554   1.610   3.679   2.253  0.1032 -0.5310  0.9181
  953MOL0     O28555   1.497   3.693   2.174  0.2134 -0.3698  0.2536
  953MOL0     C28556   1.452   3.584   2.085  0.7509 -0.0616  0.2009
  953MOL0     C28557   1.317   3.636   2.050 -0.2901  0.8348 -0.2280
  953MOL0     C28558   1.236   3.535   1.963 -0.9709  0.8362  0.6267
  953MOL0     C28559   1.093   3.573   1.920  0.1544 -0.1146 -0.2887
  953MOL0     C28560   1.018   3.456   1.859 -1.0240  0.4011  0.5544
  953MOL0     C28561   1.051   3.427   1.709  1.4914  0.1870  0.4841
  953MOL0     C28562   0.950   3.326   1.642 -0.0158 -0.2928 -0.5916
  953MOL0     C28563   0.939   3.193   1.705  0.3188  1.0198 -0.0586
  953MOL0    Cl28564   0.800   3.104   1.641  0.2731 -0.0567 -0.4372
  953MOL0     C28565   1.664   3.780   2.325  0.7635 -0.2360 -1.1383
  953MOL0     C28566   1.789   3.775   2.385 -0.2381 -0.2789 -0.1758
  953MOL0     O28567   1.987   3.450   2.505 -0.0927  0.2151 -0.0596
  953MOL0     C28568   2.271   3.457   2.541 -0.0110 -0.4721  0.7157
  953MOL0     C28569   2.403   3.472   2.573  0.0639 -0.0955 -1.3542
  953MOL0     N28570   2.717   4.039   2.665 -0.7992 -0.0176 -0.8517
  953MOL0     N28571   2.721   4.138   2.754 -0.7310 -0.1463 -0.1264
  953MOL0     C28572   2.035   4.117   2.994  0.6103 -0.0402 -0.0501
  953MOL0     C28573   1.931   4.128   2.906 -0.4823 -1.0516  0.4513
  953MOL0     C28574   1.579   4.188   2.678 -0.7585 -0.4235 -1.1800
  953MOL0     C28575   1.615   4.183   2.542  0.2003 -0.3703 -0.2649
  953MOL0     C28576   1.522   4.147   2.434 -0.9117  0.6597  0.0218
  953MOL0     C28577   1.391   4.114   2.473  0.0358 -0.0214  0.4908
  953MOL0     O28578   1.300   4.085   2.371 -0.2145  0.2551 -0.5930
  953MOL0     C28579   1.158   4.086   2.394  0.8783  0.2575 -0.0182
  953MOL0     C28580   1.052   4.073   2.286 -0.8018  0.5034  0.1109
  953MOL0     C28581   1.066   3.938   2.213  0.8564  1.2783 -0.2213
  953MOL0     C28582   0.929   3.899   2.164  0.4257 -0.2011 -0.5667
  953MOL0     C28583   0.878   3.999   2.064 -0.4441  0.1438 -0.3966
  953MOL0     C28584   0.858   4.094   1.987 -0.6355  0.8343 -0.1214
  953MOL0     C28585   1.356   4.106   2.611 -0.2214 -0.6304  0.8728
  953MOL0     C28586   1.443   4.142   2.707 -0.9810  0.1654  0.3644
  953MOL0     C28587   1.392   4.131   2.844 -0.0869  0.4359 -0.7415
  953MOL0     H28588   2.011   4.424   2.758  1.7525  0.2836  1.6549
  953MOL0     H28589   2.207   4.393   2.907  2.6134 -3.9500 -0.7092
  953MOL0     H28590   2.176   4.101   3.256  1.4962  3.6169  1.4678
  953MOL0     H28591   2.281   4.026   3.129  0.2540  0.1844 -1.3440
  953MOL0     H28592   2.400   4.059   3.342  2.0102  1.6725  2.7177
  953MOL0     H28593   2.352   4.240   3.334  1.9441  2.7367 -2.2517
  953MOL0     H28594   2.480   4.207   3.105  0.7200  0.5396  0.0140
  953MOL0     H28595   2.561   4.074   3.197 -1.1753 -1.0082 -2.1732
  953MOL0     H28596   2.563   4.375   3.217  0.9027 -0.8063 -0.6357
  953MOL0     H28597   2.593   4.299   3.369  0.2330  0.7935  0.5963
  953MOL0     H28598   2.792   4.336   3.259 -1.0520  0.6048 -1.2051
  953MOL0     H28599   2.768   4.160   3.285  0.6529  1.5827  1.3947
  953MOL0     H28600   2.702   4.127   3.048 -3.8285  2.0509 -0.0486
  953MOL0     H28601   2.692   4.292   3.022  0.1676 -0.7981  1.4883
  953MOL0     H28602   2.959   4.151   3.050 -0.1843  1.5201  3.9780
  953MOL0     H28603   2.936   4.323   3.084 -0.8103  0.9667  0.0616
  953MOL0     H28604   2.869   4.371   2.851  0.6046  1.2343  4.3109
  953MOL0     H28605   3.020   4.268   2.845  0.1722  0.7227 -0.1541
  953MOL0     H28606   3.035   4.058   2.702 -1.1694  2.2557 -1.4112
  953MOL0     H28607   2.972   3.949   2.468  2.6349 -0.6098  2.1548
  953MOL0     H28608   2.950   3.818   2.579 -1.0809 -0.0422  0.2139
  953MOL0     H28609   2.703   3.925   2.419  0.0973 -0.1856  1.6855
  953MOL0     H28610   2.836   3.842   2.343  1.4223  1.4822  1.4103
  953MOL0     H28611   2.806   3.652   2.455 -0.3664 -0.0596  0.0872
  953MOL0     H28612   2.641   3.692   2.405  1.0947 -1.0231 -0.2154
  953MOL0     H28613   2.591   3.814   2.615 -4.8241 -1.9237 -0.6272
  953MOL0     H28614   2.736   3.739   2.684 -1.7218  1.5579 -0.3407
  953MOL0     H28615   2.419   3.807   2.537  1.7292 -0.5091  0.3377
  953MOL0     H28616   2.206   3.775   2.442 -1.7403 -0.8295  1.4157
  953MOL0     H28617   1.868   3.461   2.294 -0.7610  0.2907 -2.3539
  953MOL0     H28618   1.666   3.480   2.174  3.0195 -3.2852  1.1859
  953MOL0     H28619   1.510   3.590   1.993  2.0250  0.9184  1.0361
  953MOL0     H28620   1.447   3.485   2.131  1.2586 -0.7299 -1.1255
  953MOL0     H28621   1.259   3.646   2.142 -0.1078 -0.9062  0.1165
  953MOL0     H28622   1.325   3.735   2.004  1.1520  1.5762  1.4696
  953MOL0     H28623   1.299   3.528   1.874  0.3675  1.5852  1.4863
  953MOL0     H28624   1.234   3.440   2.017  2.2492  0.4208  0.1812
  953MOL0     H28625   1.098   3.653   1.846 -0.2875  0.1245 -0.0600
  953MOL0     H28626   1.027   3.609   2.000  0.3381  0.1603 -0.2594
  953MOL0     H28627   0.909   3.470   1.865 -1.1621 -0.4513  0.2467
  953MOL0     H28628   1.049   3.366   1.914  0.6167 -1.5809 -3.2703
  953MOL0     H28629   1.039   3.516   1.647 -0.1470 -1.0481 -1.1166
  953MOL0     H28630   1.147   3.382   1.682  0.1685 -1.9987 -1.0176
  953MOL0     H28631   0.981   3.305   1.539 -0.4978 -0.4823 -0.6995
  953MOL0     H28632   0.853   3.376   1.638 -0.7927 -1.8031 -2.4265
  953MOL0     H28633   1.023   3.136   1.666 -2.1405  0.2833 -5.0400
  953MOL0     H28634   0.928   3.196   1.814  1.3128 -1.3975  0.1763
  953MOL0     H28635   1.608   3.869   2.351  1.1068 -0.7590  1.7776
  953MOL0     H28636   1.824   3.863   2.439  1.4590 -2.2244  2.1068
  953MOL0     H28637   2.223   3.360   2.556 -2.6867  0.2632 -2.0369
  953MOL0     H28638   2.453   3.381   2.605 -2.1006  0.1240  3.5480
  953MOL0     H28639   2.040   4.028   3.057  0.5078  0.7518  1.1107
  953MOL0     H28640   1.867   4.044   2.886  0.0777 -0.6494 -4.5437
  953MOL0     H28641   1.713   4.213   2.508  0.5588 -1.1307  0.0689
  953MOL0     H28642   1.555   4.139   2.331 -1.4258 -3.7507 -0.0109
  953MOL0     H28643   1.136   4.182   2.442 -0.8998 -1.4491  2.9426
  953MOL0     H28644   1.126   4.012   2.469 -1.7605 -1.4009 -2.5482
  953MOL0     H28645   1.060   4.155   2.214 -0.5641  2.1801  1.9759
  953MOL0     H28646   0.955   4.082   2.334 -1.8146  1.7382 -2.0159
  953MOL0     H28647   1.099   3.866   2.288 -1.4179 -0.3285 -0.6728
  953MOL0     H28648   1.129   3.941   2.123  0.8460  0.4065 -0.2665
  953MOL0     H28649   0.921   3.798   2.123 -2.5794 -1.6721  3.0368
  953MOL0     H28650   0.863   3.896   2.251  1.4647 -0.2195  0.2504
  953MOL0     H28651   0.848   4.166   1.908  0.2486 -0.3367 -1.3329
  953MOL0     H28652   1.260   4.062   2.633 -0.4653 -0.1135  0.8353
  953MOL0     H28653   1.472   4.086   2.903 -0.7784  0.8150  0.5417
  953MOL0     H28654   1.361   4.232   2.875  0.7023  1.3547 -2.7835
  953MOL0     H28655   1.308   4.061   2.852  0.4347 -0.6762 -3.6641
  954MOL0     O28656   7.267   4.963   1.590  0.4336  0.9851 -0.7142
  954MOL0     C28657   7.157   4.973   1.540 -0.0095  0.1820 -0.5633
  954MOL0     O28658   7.071   5.072   1.567 -0.8760 -0.8483 -0.2373
  954MOL0     C28659   7.120   5.164   1.661  0.2569  0.0705 -0.7389
  954MOL0     C28660   7.162   5.290   1.610  0.7318 -0.8764 -0.2105
  954MOL0     C28661   7.196   5.395   1.700 -0.0286 -0.3230  0.4896
  954MOL0     C28662   7.193   5.368   1.836  0.0553 -1.3736 -1.0271
  954MOL0     O28663   7.225   5.456   1.939  0.6278 -0.8044  0.0428
  954MOL0     C28664   7.359   5.501   1.952 -0.7284  0.4264 -0.1001
  954MOL0     C28665   7.368   5.653   1.944  0.1911  0.6370  0.9655
  954MOL0     C28666   7.497   5.732   1.963 -0.3427 -0.3023 -0.2608
  954MOL0     C28667   7.494   5.881   1.970 -0.1078  0.5153  0.1137
  954MOL0     C28668   7.638   5.948   1.969 -0.2792  0.4298 -0.0581
  954MOL0     C28669   7.634   6.098   1.987 -0.8649  0.0338  0.5117
  954MOL0     C28670   7.784   6.141   2.011 -0.5196  0.7537 -0.3475
  954MOL0     C28671   7.816   6.292   2.035 -0.1250  0.8481 -0.0203
  954MOL0     N28672   7.705   6.356   2.104 -0.2854 -0.7426 -0.2984
  954MOL0     C28673   7.678   6.333   2.235 -0.5413  1.0170  0.1619
  954MOL0     C28674   7.578   6.417   2.266 -0.4448  0.9575 -0.8875
  954MOL0     C28675   7.496   6.402   2.389  0.2946  0.1470 -0.8494
  954MOL0     C28676   7.575   6.432   2.524  0.1364 -0.1928  0.2662
  954MOL0     C28677   7.670   6.559   2.534 -0.4415  0.5920 -0.6723
  954MOL0     C28678   7.625   6.692   2.496  0.5909  0.2210 -0.8192
  954MOL0     O28679   7.514   6.735   2.581 -0.4540  0.8496  0.2417
  954MOL0     C28680   7.535   6.834   2.677 -0.4016  0.1788  0.1745
  954MOL0     C28681   7.662   6.875   2.727 -0.0846 -1.1469  0.3554
  954MOL0     C28682   7.658   6.981   2.822  0.0727 -0.7595 -0.4230
  954MOL0     C28683   7.544   7.046   2.869  0.3412 -0.4729 -0.3655
  954MOL0     C28684   7.546   7.164   2.962  0.5677  0.5009 -0.2649
  954MOL0     O28685   7.663   7.226   2.982  0.4402 -0.2340  0.3840
  954MOL0     C28686   7.662   7.349   3.051  0.5034 -0.6919 -0.2508
  954MOL0     C28687   7.665   7.466   2.977  0.0314  1.0175  0.3561
  954MOL0     C28688   7.687   7.589   3.041 -0.5863  0.9467  0.1368
  954MOL0     C28689   7.708   7.593   3.182  0.3069  0.0031  0.6500
  954MOL0     O28690   7.733   7.706   3.253 -0.2498 -1.2170  0.2117
  954MOL0     C28691   7.804   7.805   3.179  0.1331 -1.0016  0.7554
  954MOL0     C28692   7.816   7.936   3.265 -0.6722 -0.2766 -0.0785
  954MOL0     C28693   7.888   7.912   3.396 -0.4479 -0.0413  0.4094
  954MOL0     C28694   8.039   7.926   3.380  0.3053  0.2430  0.0985
  954MOL0     C28695   8.121   7.876   3.511  0.0603  0.3639  0.6964
  954MOL0     C28696   8.271   7.901   3.484 -0.2171 -0.6113 -0.1886
  954MOL0     C28697   8.309   8.047   3.450 -0.4351 -0.3149  0.6712
  954MOL0     C28698   8.463   8.072   3.463 -0.9949  0.3880 -0.4625
  954MOL0    Cl28699   8.507   8.230   3.391  0.2571  0.0602  0.3013
  954MOL0     C28700   7.716   7.479   3.254  0.2355 -0.1468 -0.3750
  954MOL0     C28701   7.697   7.358   3.183  0.5759  0.8015 -0.3322
  954MOL0     O28702   7.436   7.195   3.008  0.4742  0.3608  0.4003
  954MOL0     C28703   7.417   7.005   2.811 -0.7313  0.4853 -0.3946
  954MOL0     C28704   7.423   6.899   2.722  0.4617 -0.6488  0.0139
  954MOL0     N28705   7.556   6.498   2.156  0.6565  0.9396  0.3103
  954MOL0     N28706   7.632   6.464   2.061  0.0303 -0.8117  0.0575
  954MOL0     C28707   7.160   5.246   1.885  0.4977  0.0937 -0.0183
  954MOL0     C28708   7.125   5.139   1.800  0.1065 -0.8396 -0.4877
  954MOL0     C28709   7.128   4.890   1.433  0.1038  0.6178  0.1531
  954MOL0     C28710   6.993   4.862   1.420  0.4203  0.3254 -0.1837
  954MOL0     C28711   6.950   4.763   1.327 -0.6344 -0.0345  0.1429
  954MOL0     C28712   7.041   4.709   1.232 -0.3581  0.4412  0.4118
  954MOL0     O28713   7.011   4.626   1.128  0.3076 -0.0041 -0.2350
  954MOL0     C28714   6.873   4.597   1.102  0.7467  0.5747 -0.3231
  954MOL0     C28715   6.860   4.496   0.989 -0.1879  0.3527  0.6902
  954MOL0     C28716   6.883   4.577   0.861 -0.7425 -0.2548  0.3813
  954MOL0     C28717   6.844   4.486   0.740  0.6299  0.0540 -0.0845
  954MOL0     C28718   6.861   4.551   0.608  0.4322  0.9307 -0.0154
  954MOL0     C28719   6.861   4.608   0.500  0.8183 -0.4677  0.4317
  954MOL0     C28720   7.181   4.751   1.243  0.0189  0.6671  0.0006
  954MOL0     C28721   7.225   4.839   1.342  0.2087 -0.5774  0.4468
  954MOL0     C28722   7.367   4.891   1.337  0.1542  0.9825 -0.4554
  954MOL0     H28723   7.152   5.317   1.505 -2.2338  0.8491  0.3829
  954MOL0     H28724   7.215   5.497   1.667 -0.9125 -0.7979 -1.6617
  954MOL0     H28725   7.389   5.477   2.055 -1.9472 -0.4701  0.0701
  954MOL0     H28726   7.420   5.442   1.883 -4.0316 -0.9936 -2.0312
  954MOL0     H28727   7.304   5.702   2.018 -0.0074  2.3370 -0.2757
  954MOL0     H28728   7.314   5.678   1.853 -2.0328  0.3378  2.1364
  954MOL0     H28729   7.558   5.699   1.878 -2.2817 -0.6542 -1.5662
  954MOL0     H28730   7.536   5.693   2.057  0.2200 -0.5883 -0.6035
  954MOL0     H28731   7.439   5.925   1.886 -0.2766  0.3594  0.1438
  954MOL0     H28732   7.432   5.913   2.054 -0.2804  0.3322  0.0562
  954MOL0     H28733   7.705   5.910   2.047  2.1575 -0.0931 -2.2905
  954MOL0     H28734   7.689   5.926   1.875  1.0923 -0.7631  0.9214
  954MOL0     H28735   7.593   6.135   1.893 -0.7971 -1.4410 -0.1323
  954MOL0     H28736   7.561   6.131   2.062  0.7933  1.8262  1.4359
  954MOL0     H28737   7.836   6.094   1.927 -2.1061  0.2574 -1.0861
  954MOL0     H28738   7.817   6.091   2.102  0.9117 -0.2654 -1.3834
  954MOL0     H28739   7.913   6.302   2.084  1.4762 -1.0015 -2.5157
  954MOL0     H28740   7.835   6.340   1.939  1.0885  2.1186  0.8213
  954MOL0     H28741   7.718   6.263   2.307 -3.2790  0.5521  1.3409
  954MOL0     H28742   7.407   6.466   2.391 -1.5079 -2.2345  0.1291
  954MOL0     H28743   7.457   6.300   2.386  1.1008 -0.4395  3.2120
  954MOL0     H28744   7.500   6.453   2.602 -1.2460  0.6119 -1.2193
  954MOL0     H28745   7.637   6.345   2.547  0.1017  0.3453  2.6733
  954MOL0     H28746   7.764   6.540   2.482  0.2673 -0.5692  0.9752
  954MOL0     H28747   7.698   6.572   2.639 -3.2862  2.5412 -0.0533
  954MOL0     H28748   7.585   6.686   2.394 -3.0811  1.8620  0.3881
  954MOL0     H28749   7.707   6.765   2.500  0.0589  0.7518  1.5643
  954MOL0     H28750   7.757   6.830   2.702  1.4477  2.5460 -1.1348
  954MOL0     H28751   7.754   7.016   2.857 -1.6805  2.0364  2.1546
  954MOL0     H28752   7.639   7.454   2.872 -2.7503  1.5085  0.8940
  954MOL0     H28753   7.717   7.670   2.975  2.0114 -2.1387 -2.8720
  954MOL0     H28754   7.904   7.774   3.146 -0.6181 -0.3742 -2.3773
  954MOL0     H28755   7.746   7.828   3.090  2.3393 -1.3058 -0.8450
  954MOL0     H28756   7.868   8.008   3.201 -0.1904  1.7832  2.4772
  954MOL0     H28757   7.712   7.962   3.286 -1.6988 -3.5604 -0.5593
  954MOL0     H28758   7.861   7.994   3.463 -1.0597 -1.7364  2.3625
  954MOL0     H28759   7.848   7.823   3.446 -2.5254  1.7216  2.0960
  954MOL0     H28760   8.055   8.033   3.365  0.3280  0.4624  1.5358
  954MOL0     H28761   8.077   7.877   3.290  1.5397  0.6137  0.4068
  954MOL0     H28762   8.095   7.770   3.520  2.0845 -0.5534 -2.4281
  954MOL0     H28763   8.100   7.930   3.603  0.1073  2.1297 -0.2786
  954MOL0     H28764   8.321   7.865   3.574  0.8958 -0.1873 -0.6182
  954MOL0     H28765   8.306   7.840   3.399  0.6413 -0.2339 -0.1203
  954MOL0     H28766   8.259   8.116   3.519  0.4064  0.3101  0.6700
  954MOL0     H28767   8.282   8.069   3.347  1.4344 -2.6750 -0.4214
  954MOL0     H28768   8.483   8.070   3.571 -1.7596  4.1788 -0.1302
  954MOL0     H28769   8.512   7.990   3.410 -1.1121  0.7808 -1.1821
  954MOL0     H28770   7.733   7.484   3.361 -2.6872 -0.1872  0.1795
  954MOL0     H28771   7.708   7.257   3.222 -0.0419  0.6398 -0.5548
  954MOL0     H28772   7.333   7.070   2.827  1.4881  3.5010 -0.0838
  954MOL0     H28773   7.325   6.865   2.691  0.0905 -1.2631  1.7386
  954MOL0     H28774   7.144   5.231   1.991 -1.0987  0.6617 -0.1464
  954MOL0     H28775   7.091   5.050   1.852 -0.1645 -1.1693 -1.2226
  954MOL0     H28776   6.931   4.934   1.473 -0.5080 -0.9583  0.5193
  954MOL0     H28777   6.843   4.745   1.320 -0.4899 -1.1586  0.6272
  954MOL0     H28778   6.816   4.686   1.077 -0.5490 -0.7669 -2.4572
  954MOL0     H28779   6.824   4.551   1.188 -1.9778  3.4163 -0.1862
  954MOL0     H28780   6.760   4.451   0.990 -0.1919  0.3332 -0.1673
  954MOL0     H28781   6.926   4.410   1.004 -0.3691 -0.4900 -2.6251
  954MOL0     H28782   6.991   4.594   0.850 -0.2792 -1.6285  2.3673
  954MOL0     H28783   6.821   4.667   0.868 -0.7860 -0.3071  0.6602
  954MOL0     H28784   6.919   4.407   0.740  0.8144  0.2111  1.0060
  954MOL0     H28785   6.746   4.437   0.740  0.3036  0.6839 -1.0656
  954MOL0     H28786   6.841   4.652   0.405  3.7779  1.7181  0.6860
  954MOL0     H28787   7.244   4.716   1.161  0.6400 -3.3492  1.9011
  954MOL0     H28788   7.428   4.840   1.262  0.2991  0.8541 -0.2512
  954MOL0     H28789   7.366   4.996   1.304  0.3471  0.4289 -2.3822
  954MOL0     H28790   7.422   4.890   1.431 -2.0341  2.8062  0.9534
  955MOL0     O28791   8.818  10.527   3.869 -0.1274  0.1671 -0.0625
  955MOL0     C28792   8.923  10.573   3.922  0.1643  0.5143 -0.5965
  955MOL0     O28793   8.948  10.701   3.945 -0.2597  0.9465  0.2829
  955MOL0     C28794   8.862  10.793   3.936  0.9076 -0.2910  0.2720
  955MOL0     C28795   8.884  10.877   3.826 -0.2939 -0.3480 -0.2709
  955MOL0     C28796   8.797  10.990   3.802 -0.1915  0.3232  0.4515
  955MOL0     C28797   8.686  11.000   3.879  0.7173 -0.3758 -0.2897
  955MOL0     O28798   8.585  11.094   3.859  0.2667  0.4175 -0.2442
  955MOL0     C28799   8.578  11.179   3.738  0.2691  0.0416 -0.5991
  955MOL0     C28800   8.525  11.093   3.618  0.5563  0.5939 -0.1680
  955MOL0     C28801   8.539  11.166   3.482 -0.0657  0.1994 -0.0947
  955MOL0     C28802   8.435  11.128   3.376  0.3382 -0.5903  0.0018
  955MOL0     C28803   8.439  10.977   3.346 -0.6338  0.3875 -0.0716
  955MOL0     C28804   8.586  10.932   3.318 -0.0870  0.1494  1.1386
  955MOL0     C28805   8.579  10.785   3.267  0.2051 -0.6914  0.8283
  955MOL0     C28806   8.538  10.680   3.373  0.4105  0.0741 -0.8637
  955MOL0     N28807   8.520  10.539   3.321 -0.6712 -0.0947  0.1678
  955MOL0     C28808   8.606  10.465   3.245 -0.1450  0.3266 -0.6364
  955MOL0     C28809   8.534  10.360   3.206  0.0063 -0.3129  0.3308
  955MOL0     C28810   8.584  10.249   3.119 -0.1504 -0.1828 -0.5822
  955MOL0     C28811   8.601  10.295   2.973 -0.0333  0.2010 -0.0330
  955MOL0     C28812   8.469  10.317   2.908 -0.8449 -0.5641  0.2550
  955MOL0     C28813   8.474  10.368   2.760 -0.0015  0.3987  0.6021
  955MOL0     O28814   8.533  10.267   2.675  0.7719 -0.1648  0.2569
  955MOL0     C28815   8.551  10.288   2.542  0.4848 -0.5294 -0.5817
  955MOL0     C28816   8.609  10.185   2.477  0.4678 -0.4108 -0.6809
  955MOL0     C28817   8.644  10.188   2.334  0.5996  0.3911  0.3995
  955MOL0     C28818   8.625  10.309   2.267 -0.6599  0.2156 -0.2691
  955MOL0     C28819   8.679  10.327   2.125  0.8672  0.5794  0.1580
  955MOL0     O28820   8.712  10.215   2.057 -0.0846 -0.0493 -0.3722
  955MOL0     C28821   8.790  10.220   1.942 -0.4792 -0.3394 -0.3131
  955MOL0     C28822   8.889  10.318   1.917 -0.7356 -0.0648  0.1023
  955MOL0     C28823   8.950  10.320   1.794  0.0243  0.5389  0.5438
  955MOL0     C28824   8.930  10.213   1.694 -0.6119  0.4533 -0.1659
  955MOL0     O28825   8.969  10.211   1.559  0.9091  0.7594  0.7652
  955MOL0     C28826   9.012  10.340   1.495  0.3522 -0.6509  0.2085
  955MOL0     C28827   9.042  10.326   1.344 -0.9016  0.5852  0.4487
  955MOL0     C28828   9.094  10.451   1.281 -0.4710  0.4387 -0.2886
  955MOL0     C28829   8.990  10.511   1.187  0.0437 -0.3834  0.0982
  955MOL0     C28830   9.054  10.603   1.092 -0.4845  0.1138  0.1038
  955MOL0     C28831   8.954  10.688   1.020  0.3747  0.4335  0.6464
  955MOL0     C28832   9.024  10.817   0.969 -0.0386 -0.1834  0.7886
  955MOL0     C28833   8.917  10.911   0.932 -0.5324 -0.9872 -0.9595
  955MOL0    Cl28834   8.999  11.060   0.888 -0.4204 -0.2229 -0.2628
  955MOL0     C28835   8.846  10.116   1.723 -0.1762  0.3591 -0.2503
  955MOL0     C28836   8.768  10.121   1.839 -0.6016 -0.2681  0.3284
  955MOL0     O28837   8.687  10.438   2.079 -0.6417  0.3175 -0.3920
  955MOL0     C28838   8.562  10.420   2.340 -0.1752 -0.6649 -0.0485
  955MOL0     C28839   8.534  10.409   2.478  0.2226 -0.1879 -0.7715
  955MOL0     N28840   8.404  10.370   3.251  0.1096  0.3680  0.3385
  955MOL0     N28841   8.400  10.483   3.320  0.4582  0.1159 -0.2458
  955MOL0     C28842   8.664  10.915   3.992  0.0807  0.8602  1.0008
  955MOL0     C28843   8.761  10.812   4.026  0.0707 -1.4467 -0.1442
  955MOL0     C28844   9.037  10.487   3.950 -0.4111 -0.9629  0.6419
  955MOL0     C28845   9.161  10.523   3.884  1.3545  0.6233  0.7481
  955MOL0     C28846   9.272  10.443   3.904 -0.5114  0.1462  0.6759
  955MOL0     C28847   9.270  10.332   3.979 -0.3495  0.5167  0.8355
  955MOL0     O28848   9.375  10.248   3.956  0.0799 -0.6577  0.2729
  955MOL0     C28849   9.371  10.102   3.953  0.8454 -0.9675 -0.9599
  955MOL0     C28850   9.517  10.054   3.929 -0.8269 -0.7478 -0.4894
  955MOL0     C28851   9.575  10.149   3.822 -0.3477 -0.2705  0.6668
  955MOL0     C28852   9.711  10.085   3.777 -0.2248 -0.1318 -0.7000
  955MOL0     C28853   9.782  10.150   3.670  0.3347 -0.0311 -0.5621
  955MOL0     C28854   9.827  10.214   3.574 -0.6740  0.1005  0.1684
  955MOL0     C28855   9.147  10.299   4.036  0.2467  0.3862 -0.4138
  955MOL0     C28856   9.034  10.374   4.034 -0.5638  0.4016 -0.4107
  955MOL0     C28857   8.908  10.329   4.092  0.0570 -0.1368  0.7990
  955MOL0     H28858   8.969  10.861   3.760  0.3048  1.5565 -0.0136
  955MOL0     H28859   8.822  11.056   3.719  3.3929  1.8129  2.4846
  955MOL0     H28860   8.507  11.259   3.760 -0.0029 -0.8123  2.0057
  955MOL0     H28861   8.671  11.233   3.720 -1.8189  3.8447 -1.0089
  955MOL0     H28862   8.418  11.080   3.634  0.5062 -3.8448 -2.4589
  955MOL0     H28863   8.573  10.995   3.619 -0.4545  0.0759  2.1337
  955MOL0     H28864   8.638  11.148   3.439 -0.5396 -2.1684 -0.3360
  955MOL0     H28865   8.523  11.274   3.477 -2.0931 -0.0860 -4.6296
  955MOL0     H28866   8.333  11.147   3.412  0.6466 -1.0791  1.1824
  955MOL0     H28867   8.456  11.192   3.290  0.4203 -0.5227  0.0725
  955MOL0     H28868   8.402  10.922   3.433 -1.4294 -1.4464 -1.5134
  955MOL0     H28869   8.375  10.949   3.262  0.5646  2.8272 -1.9335
  955MOL0     H28870   8.627  10.993   3.237 -4.5396  2.2842  0.1701
  955MOL0     H28871   8.651  10.928   3.406  3.2070  2.6183 -0.9268
  955MOL0     H28872   8.676  10.765   3.222  1.4809  1.8664  2.2298
  955MOL0     H28873   8.506  10.777   3.185  1.0655  1.8704 -0.3123
  955MOL0     H28874   8.619  10.673   3.445  0.4575  1.1466 -0.7998
  955MOL0     H28875   8.451  10.719   3.427  1.8282  2.0884  0.0663
  955MOL0     H28876   8.710  10.489   3.226  0.0024  0.5084  0.3418
  955MOL0     H28877   8.684  10.226   3.156  0.4207  2.1989 -0.5021
  955MOL0     H28878   8.515  10.164   3.114 -1.1547  0.6220 -0.7813
  955MOL0     H28879   8.661  10.386   2.975 -1.3784  1.1240  3.0399
  955MOL0     H28880   8.661  10.220   2.919 -0.8430  0.0325 -0.7252
  955MOL0     H28881   8.419  10.400   2.960 -0.0298  0.3249 -0.3395
  955MOL0     H28882   8.401  10.232   2.912 -1.3625 -0.2616 -1.3044
  955MOL0     H28883   8.538  10.456   2.746 -0.8042  0.5953 -2.8416
  955MOL0     H28884   8.371  10.396   2.738 -0.4077 -1.7207 -0.4118
  955MOL0     H28885   8.637  10.095   2.530  0.1096 -1.4243 -2.1546
  955MOL0     H28886   8.684  10.101   2.284  1.2394  1.5831 -1.2241
  955MOL0     H28887   8.922  10.383   1.997  1.7129 -1.7306  0.5627
  955MOL0     H28888   9.015  10.404   1.771  2.8121 -1.4698  0.5035
  955MOL0     H28889   8.933  10.413   1.509 -0.8082 -1.8995  0.3834
  955MOL0     H28890   9.104  10.362   1.551  0.6015 -0.1425 -0.3907
  955MOL0     H28891   9.125  10.256   1.333 -0.3773  1.2358  0.1519
  955MOL0     H28892   8.950  10.298   1.294 -1.1575  2.4755 -0.2353
  955MOL0     H28893   9.106  10.523   1.362 -1.7853  1.1348 -0.6844
  955MOL0     H28894   9.191  10.440   1.231  1.3962  1.7315  2.7710
  955MOL0     H28895   8.901  10.555   1.232 -1.3662 -2.6274 -0.3080
  955MOL0     H28896   8.935  10.434   1.131 -0.3330 -1.2816  1.6481
  955MOL0     H28897   9.116  10.546   1.023  3.5328  0.5853  2.9881
  955MOL0     H28898   9.115  10.675   1.148  1.6172 -0.6847 -1.0720
  955MOL0     H28899   8.905  10.620   0.949 -2.0008 -0.5305  3.0206
  955MOL0     H28900   8.874  10.729   1.082 -0.2928  2.0263 -1.1698
  955MOL0     H28901   9.086  10.807   0.880  1.2097 -0.0166  1.6077
  955MOL0     H28902   9.090  10.857   1.047 -0.4189 -0.8152  1.4416
  955MOL0     H28903   8.868  10.894   0.836 -0.7830  2.9296 -1.6876
  955MOL0     H28904   8.836  10.932   1.002 -0.4830 -0.6338 -1.0024
  955MOL0     H28905   8.820  10.037   1.653  1.2251 -0.4751  0.1325
  955MOL0     H28906   8.689  10.048   1.852 -1.8116  0.7638 -0.8584
  955MOL0     H28907   8.535  10.512   2.289 -1.1085 -2.6599 -3.5849
  955MOL0     H28908   8.512  10.494   2.542  8.2924  1.8288  0.3247
  955MOL0     H28909   8.569  10.925   4.044  0.0103  0.0239  1.0498
  955MOL0     H28910   8.747  10.743   4.108 -4.1214  2.9999  3.4524
  955MOL0     H28911   9.161  10.606   3.814  2.7034  1.3976  1.6129
  955MOL0     H28912   9.369  10.468   3.862 -0.4250  2.1255  1.9005
  955MOL0     H28913   9.304  10.068   3.874 -0.7666 -0.5368  0.1907
  955MOL0     H28914   9.333  10.058   4.045 -1.0537  2.5764  0.1481
  955MOL0     H28915   9.523   9.949   3.899  4.7585 -1.5548  2.1181
  955MOL0     H28916   9.570  10.058   4.025 -0.1988 -0.1617 -0.8553
  955MOL0     H28917   9.595  10.245   3.871  3.0850 -1.6216  2.2189
  955MOL0     H28918   9.515  10.157   3.730  1.8430  3.8954 -0.7072
  955MOL0     H28919   9.777  10.091   3.864 -1.0741  0.3563 -0.0786
  955MOL0     H28920   9.695   9.979   3.758 -2.3470 -0.0230  0.2325
  955MOL0     H28921   9.877  10.230   3.481  0.3178 -0.8139  0.5270
  955MOL0     H28922   9.137  10.202   4.084  2.7768  1.0335  1.6881
  955MOL0     H28923   8.899  10.222   4.115 -1.0065 -0.3099 -0.3588
  955MOL0     H28924   8.873  10.376   4.184  2.2594 -0.9247  2.1281
  955MOL0     H28925   8.830  10.333   4.016 -1.4496  1.2858  2.3514
  956MOL0     O28926   5.273   7.755   4.840 -1.1423  0.5469  0.1409
  956MOL0     C28927   5.257   7.851   4.766  0.0255 -0.4367 -0.4057
  956MOL0     O28928   5.342   7.962   4.767 -0.0273 -0.5251  0.3576
  956MOL0     C28929   5.460   7.949   4.831 -0.0171  0.6413  0.5017
  956MOL0     C28930   5.538   7.828   4.814  0.1689 -0.0469 -0.2363
  956MOL0     C28931   5.642   7.803   4.904 -0.1626  0.7195 -0.4867
  956MOL0     C28932   5.687   7.905   4.987 -0.2956  0.6478 -0.1463
  956MOL0     O28933   5.800   7.902   5.069 -0.0501  0.1031 -0.1018
  956MOL0     C28934   5.880   7.781   5.087  0.2736  0.2484  0.0320
  956MOL0     C28935   5.984   7.764   4.968  0.4573  1.1693  0.3329
  956MOL0     C28936   6.073   7.890   4.930 -0.2404 -0.0750  0.6096
  956MOL0     C28937   6.178   7.856   4.827  1.0261  0.2952 -0.5667
  956MOL0     C28938   6.293   7.949   4.838 -0.4636  0.4369  0.1021
  956MOL0     C28939   6.360   7.964   4.698  0.0685  0.7992 -0.1928
  956MOL0     C28940   6.465   8.076   4.711 -0.8562  0.2710  0.2566
  956MOL0     C28941   6.551   8.082   4.590 -0.1636  0.0403  0.2136
  956MOL0     N28942   6.663   7.983   4.588  0.0978 -0.4790 -0.4471
  956MOL0     C28943   6.764   7.995   4.678 -0.0316  0.2062 -1.0106
  956MOL0     C28944   6.830   7.874   4.659  0.2128  0.2737  0.5741
  956MOL0     C28945   6.975   7.828   4.708 -0.1837 -0.5451  0.1990
  956MOL0     C28946   6.976   7.724   4.819 -0.4045 -0.3766  0.3785
  956MOL0     C28947   6.912   7.774   4.948 -0.1374  0.1279  0.4247
  956MOL0     C28948   6.866   7.656   5.025  0.3652  0.6790  0.6341
  956MOL0     O28949   6.786   7.698   5.135  0.5496  0.3962 -0.1149
  956MOL0     C28950   6.850   7.780   5.224 -0.4752  0.1821 -0.4964
  956MOL0     C28951   6.987   7.777   5.255  0.5777 -0.0825  0.5551
  956MOL0     C28952   7.045   7.851   5.352 -0.3274 -0.0799 -0.1287
  956MOL0     C28953   6.971   7.926   5.448  0.3797 -0.1015  0.4616
  956MOL0     C28954   7.041   8.004   5.547 -0.1385 -0.8834  0.2756
  956MOL0     O28955   7.177   7.995   5.546  0.7250 -0.3439 -0.3737
  956MOL0     C28956   7.252   8.083   5.617 -0.2301  0.2205  0.3290
  956MOL0     C28957   7.325   8.055   5.734 -0.1017  0.1720 -0.1504
  956MOL0     C28958   7.406   8.141   5.791 -0.3135 -1.5435  0.0752
  956MOL0     C28959   7.413   8.276   5.750  0.1379  0.1093  0.2975
  956MOL0     O28960   7.492   8.382   5.803 -0.2523  0.3743 -1.4470
  956MOL0     C28961   7.589   8.341   5.897  0.0537 -0.2645  0.0099
  956MOL0     C28962   7.686   8.451   5.902  0.3384 -0.1795 -0.5801
  956MOL0     C28963   7.773   8.419   6.026  0.4733  0.3986 -0.0563
  956MOL0     C28964   7.863   8.292   6.009  0.7947 -0.6572  0.1846
  956MOL0     C28965   7.985   8.308   6.097  0.4653  1.0364 -0.1420
  956MOL0     C28966   7.940   8.323   6.247 -0.0425 -0.2014  0.7322
  956MOL0     C28967   8.017   8.226   6.342  0.4354 -0.2728  0.4256
  956MOL0     C28968   8.048   8.287   6.483 -0.0247  0.8899 -0.0719
  956MOL0    Cl28969   7.901   8.360   6.548  0.2790  0.6877  0.2255
  956MOL0     C28970   7.330   8.312   5.640  0.1769 -0.1828 -0.9972
  956MOL0     C28971   7.254   8.212   5.570  0.0471  0.8275 -0.7177
  956MOL0     O28972   6.973   8.079   5.621 -0.0151  0.9885 -0.3668
  956MOL0     C28973   6.833   7.936   5.420  0.1522  1.0444  0.7107
  956MOL0     C28974   6.775   7.866   5.312  0.2680  0.6256 -0.0843
  956MOL0     N28975   6.764   7.792   4.570  0.6529  0.2534  0.7668
  956MOL0     N28976   6.664   7.865   4.532  0.3251 -0.3295 -0.1455
  956MOL0     C28977   5.626   8.032   4.987 -0.0734 -0.0617  0.3307
  956MOL0     C28978   5.506   8.050   4.914 -0.1816  0.3752  0.5044
  956MOL0     C28979   5.124   7.863   4.703  0.5605 -1.1825  0.6692
  956MOL0     C28980   5.014   7.781   4.742  1.2468 -0.1425 -0.1986
  956MOL0     C28981   4.881   7.806   4.706 -0.7063  0.3105  0.7523
  956MOL0     C28982   4.852   7.914   4.629 -0.4126 -0.1175  0.1056
  956MOL0     O28983   4.714   7.924   4.607  0.1914 -0.7116 -0.4279
  956MOL0     C28984   4.674   8.010   4.505 -0.8805 -0.4352 -0.2940
  956MOL0     C28985   4.695   7.955   4.360 -0.6787 -0.0809  0.1104
  956MOL0     C28986   4.611   7.816   4.343  0.0035 -0.7919 -0.5819
  956MOL0     C28987   4.584   7.773   4.204  0.5542  0.4909 -0.5073
  956MOL0     C28988   4.462   7.688   4.197  0.1198  0.6839 -0.5877
  956MOL0     C28989   4.359   7.624   4.187 -0.1562  0.9070 -0.2658
  956MOL0     C28990   4.958   7.989   4.573  0.2096 -0.4555 -0.4788
  956MOL0     C28991   5.092   7.973   4.616  0.7010 -0.7745 -0.0861
  956MOL0     C28992   5.206   8.050   4.542 -0.0623  0.3376  0.1838
  956MOL0     H28993   5.508   7.738   4.761 -0.7527 -0.5689  1.1005
  956MOL0     H28994   5.683   7.703   4.912 -1.0650  0.2840 -1.0797
  956MOL0     H28995   5.945   7.782   5.175 -1.4376  2.2971  1.3836
  956MOL0     H28996   5.817   7.693   5.099  0.1657  0.5717  2.3976
  956MOL0     H28997   5.929   7.733   4.878 -0.1613  1.8057  0.4914
  956MOL0     H28998   6.043   7.678   5.002 -0.1431 -0.5900 -2.6903
  956MOL0     H28999   6.113   7.935   5.021  1.7323  2.1142 -1.1976
  956MOL0     H29000   6.012   7.970   4.887  1.3195  1.9107  1.8991
  956MOL0     H29001   6.208   7.754   4.849  1.8688  0.4759 -0.8555
  956MOL0     H29002   6.144   7.869   4.724 -0.0736  0.0821 -0.2518
  956MOL0     H29003   6.264   8.050   4.869  0.4443  1.0023 -0.8551
  956MOL0     H29004   6.362   7.916   4.915 -0.0849  0.4600 -0.2248
  956MOL0     H29005   6.407   7.866   4.688 -2.1999 -0.4339  0.4741
  956MOL0     H29006   6.295   7.988   4.613  1.9921  3.0327 -1.1509
  956MOL0     H29007   6.532   8.070   4.798  0.9448 -1.5470 -1.1764
  956MOL0     H29008   6.404   8.167   4.718  3.6673  3.5342  2.1576
  956MOL0     H29009   6.493   8.071   4.498  1.2416  0.0750 -0.7020
  956MOL0     H29010   6.601   8.179   4.580  1.0752 -0.8349 -6.1296
  956MOL0     H29011   6.792   8.085   4.733  3.5803 -0.3619 -1.7087
  956MOL0     H29012   7.017   7.777   4.620 -3.2518 -1.5810 -0.7924
  956MOL0     H29013   7.029   7.921   4.727  0.6047  0.1942 -4.3738
  956MOL0     H29014   6.916   7.637   4.789 -1.9392  1.0113 -0.7496
  956MOL0     H29015   7.076   7.685   4.841 -0.5264 -1.0338 -0.1952
  956MOL0     H29016   6.837   7.849   4.921  0.4982  0.5503 -0.2036
  956MOL0     H29017   6.985   7.826   5.010  0.3313 -1.7436  1.5099
  956MOL0     H29018   6.945   7.585   5.049 -0.3329 -0.3455 -0.0084
  956MOL0     H29019   6.800   7.596   4.963  2.1561 -1.5535  0.7658
  956MOL0     H29020   7.054   7.704   5.212  0.0801  0.0007 -0.3638
  956MOL0     H29021   7.151   7.841   5.374 -0.6212  1.1176  2.1067
  956MOL0     H29022   7.294   7.961   5.780 -0.3516 -0.1470 -0.9467
  956MOL0     H29023   7.467   8.108   5.875 -0.7699  0.4886  1.2817
  956MOL0     H29024   7.539   8.319   5.991  2.1554  0.5083  1.3694
  956MOL0     H29025   7.637   8.253   5.854  2.1067  1.3901 -1.2332
  956MOL0     H29026   7.750   8.471   5.815  2.9235 -0.3447  1.1762
  956MOL0     H29027   7.628   8.541   5.924 -1.4974 -0.7058 -2.8672
  956MOL0     H29028   7.842   8.502   6.046  0.5916  0.0997  0.8117
  956MOL0     H29029   7.715   8.408   6.118  0.3234  2.5397  0.1567
  956MOL0     H29030   7.896   8.294   5.904  0.9308 -1.6580  0.2003
  956MOL0     H29031   7.812   8.196   6.021  1.1245 -0.7430  0.9728
  956MOL0     H29032   8.058   8.382   6.061  2.2259 -1.4403 -2.0180
  956MOL0     H29033   8.037   8.213   6.085  0.5740  1.3443 -2.3782
  956MOL0     H29034   7.950   8.426   6.282  0.1824 -0.0366  0.1907
  956MOL0     H29035   7.833   8.307   6.265 -0.2067 -0.2119 -0.1946
  956MOL0     H29036   8.115   8.207   6.299  0.3199  1.4722 -0.7043
  956MOL0     H29037   7.953   8.137   6.336 -0.9348  0.7424 -4.3655
  956MOL0     H29038   8.086   8.207   6.547  2.5873  0.1405 -2.3670
  956MOL0     H29039   8.128   8.362   6.475 -0.4302  1.6675  2.3430
  956MOL0     H29040   7.332   8.415   5.608  1.8329 -0.5273 -2.1058
  956MOL0     H29041   7.202   8.252   5.484  0.1631 -2.6589 -2.5852
  956MOL0     H29042   6.765   7.996   5.479 -2.0050  3.1056 -3.4572
  956MOL0     H29043   6.668   7.853   5.305  0.5422 -4.0404  0.8876
  956MOL0     H29044   5.648   8.118   5.048 -2.5323  0.8601  0.0539
  956MOL0     H29045   5.456   8.146   4.915 -1.5394 -0.2396 -1.5948
  956MOL0     H29046   5.028   7.702   4.815 -1.7022 -0.9451 -0.3553
  956MOL0     H29047   4.805   7.730   4.726  0.1256 -1.3136 -1.7127
  956MOL0     H29048   4.730   8.104   4.501 -1.6782  0.1202  1.1877
  956MOL0     H29049   4.570   8.035   4.527 -0.1997  1.6717  0.7795
  956MOL0     H29050   4.801   7.934   4.343 -0.5617  0.4197  0.1945
  956MOL0     H29051   4.665   8.034   4.291 -2.7531  0.5032  1.5756
  956MOL0     H29052   4.515   7.840   4.391  1.1069  1.2918  0.7368
  956MOL0     H29053   4.660   7.733   4.395 -0.1474 -0.6038 -0.1265
  956MOL0     H29054   4.554   7.856   4.140 -4.1064 -1.6658 -1.5825
  956MOL0     H29055   4.673   7.722   4.167  0.0119  0.8452 -2.3932
  956MOL0     H29056   4.266   7.572   4.193  0.3156  0.2602  2.7154
  956MOL0     H29057   4.936   8.054   4.488 -0.8025 -0.8960 -0.5751
  956MOL0     H29058   5.291   7.981   4.536  2.5277  3.3255  0.4023
  956MOL0     H29059   5.172   8.085   4.444  2.7889  1.5150 -0.4707
  956MOL0     H29060   5.243   8.140   4.592  2.4449  0.0129 -0.9275
  957MOL0     O29061   4.455   0.198   7.226  1.0936  0.2303  0.6294
  957MOL0     C29062   4.403   0.134   7.130 -1.0251 -0.2297 -0.3792
  957MOL0     O29063   4.405   0.184   6.995 -0.0464 -0.4971 -0.7339
  957MOL0     C29064   4.470   0.291   6.954 -1.1830  0.4332 -0.1984
  957MOL0     C29065   4.409   0.387   6.874 -0.1585 -1.4776  0.7651
  957MOL0     C29066   4.470   0.509   6.835 -0.0379  0.0949  0.3464
  957MOL0     C29067   4.604   0.533   6.864 -0.0510  0.4111 -0.0217
  957MOL0     O29068   4.674   0.650   6.851  0.3716  0.0970  0.0499
  957MOL0     C29069   4.629   0.737   6.739 -0.4678 -0.3360  1.0283
  957MOL0     C29070   4.717   0.865   6.736 -0.4410 -0.0148  0.1178
  957MOL0     C29071   4.871   0.832   6.752 -0.2398  0.2004 -0.0124
  957MOL0     C29072   4.959   0.931   6.670  0.1074 -0.2906 -0.3822
  957MOL0     C29073   5.103   0.895   6.653  0.1952 -0.1920  0.7519
  957MOL0     C29074   5.184   0.988   6.569 -0.2633 -0.3421  0.9252
  957MOL0     C29075   5.329   0.953   6.596 -0.1151  0.6406  0.5187
  957MOL0     C29076   5.435   1.005   6.486  0.0850  0.5612 -0.6698
  957MOL0     N29077   5.548   1.079   6.545  0.2393  0.3253 -0.1064
  957MOL0     C29078   5.658   1.028   6.608  0.7704  1.0587 -0.1573
  957MOL0     C29079   5.726   1.127   6.653 -0.0450 -0.7585  0.4523
  957MOL0     C29080   5.840   1.112   6.739  0.6833  0.1661 -0.5875
  957MOL0     C29081   5.967   1.120   6.653  0.4114 -0.8674 -0.7850
  957MOL0     C29082   6.092   1.098   6.741 -0.4813  0.9251 -0.5273
  957MOL0     C29083   6.120   0.953   6.776 -0.6000  1.2578 -0.4015
  957MOL0     O29084   6.247   0.933   6.844  0.6240 -1.2173  0.4555
  957MOL0     C29085   6.331   0.870   6.762 -0.8728 -0.9333 -0.2436
  957MOL0     C29086   6.462   0.924   6.767 -0.2446 -0.0798  0.6223
  957MOL0     C29087   6.563   0.855   6.706  0.0273 -0.4407 -0.0110
  957MOL0     C29088   6.540   0.731   6.653 -1.2558 -0.4660 -0.2565
  957MOL0     C29089   6.641   0.654   6.581 -0.1158  0.0610 -0.4649
  957MOL0     O29090   6.620   0.519   6.558  0.2124  0.4594  0.8611
  957MOL0     C29091   6.695   0.451   6.462  0.0613 -0.7974  0.3840
  957MOL0     C29092   6.670   0.309   6.441 -0.7371  0.1719 -0.0277
  957MOL0     C29093   6.748   0.243   6.354  0.2243  0.3927  0.6110
  957MOL0     C29094   6.852   0.292   6.287  0.0788  0.1008 -0.8778
  957MOL0     O29095   6.923   0.198   6.222 -0.7554 -0.6275  0.2249
  957MOL0     C29096   7.034   0.243   6.145 -0.3845  0.5026  0.3886
  957MOL0     C29097   6.990   0.305   6.008  1.5227 -0.7852  0.7774
  957MOL0     C29098   7.101   0.301   5.897  0.3135 -0.6115 -0.0251
  957MOL0     C29099   7.097   0.177   5.814 -0.0485  0.6347 -0.3980
  957MOL0     C29100   7.195   0.186   5.698 -0.4619 -0.5712  0.6964
  957MOL0     C29101   7.256   0.047   5.659  0.7740  0.2940  0.8688
  957MOL0     C29102   7.312   0.034   5.515  0.0004  0.5363  0.0559
  957MOL0     C29103   7.447   0.112   5.500 -0.3515  0.7949  0.8072
  957MOL0    Cl29104   7.516   0.105   5.335 -0.7637 -0.2168  0.4179
  957MOL0     C29105   6.882   0.424   6.307  0.5079 -0.2615  0.1184
  957MOL0     C29106   6.803   0.502   6.386  0.2154  1.0196 -1.0197
  957MOL0     O29107   6.748   0.707   6.558 -0.2965 -0.3789  0.3705
  957MOL0     C29108   6.408   0.676   6.648 -0.7226 -0.1162 -0.4866
  957MOL0     C29109   6.307   0.747   6.706  1.1682 -0.5464  0.1225
  957MOL0     N29110   5.664   1.250   6.613 -0.6280  0.1367  0.2687
  957MOL0     N29111   5.554   1.223   6.547 -0.4313 -0.0840 -0.2930
  957MOL0     C29112   4.670   0.431   6.941 -0.0218  0.5612  0.4578
  957MOL0     C29113   4.602   0.309   6.975  0.1567  0.1888 -0.4325
  957MOL0     C29114   4.336   0.007   7.152 -0.6899  1.1392  0.1777
  957MOL0     C29115   4.261  -0.053   7.048  0.0766 -0.1749 -0.4535
  957MOL0     C29116   4.193  -0.167   7.059 -0.1987 -0.0658 -0.2369
  957MOL0     C29117   4.207  -0.251   7.172 -0.2759  0.0135 -0.4783
  957MOL0     O29118   4.130  -0.360   7.169 -0.4443  0.0478  0.2310
  957MOL0     C29119   4.004  -0.339   7.233 -0.1165  0.4153 -0.6136
  957MOL0     C29120   3.932  -0.477   7.234 -0.4209 -0.1900 -0.2143
  957MOL0     C29121   3.799  -0.476   7.305 -0.0469  0.4317 -0.1046
  957MOL0     C29122   3.747  -0.628   7.321 -0.1803 -0.3087 -0.7569
  957MOL0     C29123   3.699  -0.678   7.195  0.2577  0.4388  1.4094
  957MOL0     C29124   3.652  -0.705   7.082  0.9491  0.4102 -0.0371
  957MOL0     C29125   4.277  -0.198   7.281  0.9943  0.8487  0.3279
  957MOL0     C29126   4.333  -0.068   7.278 -0.2683  1.3044 -0.2367
  957MOL0     C29127   4.413  -0.021   7.397  0.0203  0.3886 -0.2793
  957MOL0     H29128   4.305   0.371   6.851 -0.0519 -1.0686 -0.0165
  957MOL0     H29129   4.405   0.584   6.789  0.2642 -0.8405 -1.7420
  957MOL0     H29130   4.645   0.688   6.643 -1.6125 -0.3093  0.8050
  957MOL0     H29131   4.525   0.769   6.741 -0.0759  1.0579  0.0108
  957MOL0     H29132   4.694   0.931   6.820  0.8605 -1.1113  1.3827
  957MOL0     H29133   4.696   0.904   6.636  0.8344 -0.0466 -0.1749
  957MOL0     H29134   4.882   0.738   6.697  0.0457  1.2694 -1.8873
  957MOL0     H29135   4.901   0.819   6.856 -1.3288  3.7876  0.8698
  957MOL0     H29136   4.922   0.946   6.568 -0.8488  1.8739  0.2359
  957MOL0     H29137   4.942   1.030   6.713 -3.1293 -1.5702  1.6058
  957MOL0     H29138   5.144   0.865   6.749  0.1518 -2.1541  0.1872
  957MOL0     H29139   5.098   0.807   6.589 -0.9076 -0.7986  1.6487
  957MOL0     H29140   5.153   0.987   6.464  0.1986  1.4213  0.7419
  957MOL0     H29141   5.149   1.089   6.594 -2.2040 -0.1341 -2.1283
  957MOL0     H29142   5.339   0.844   6.600 -1.7826  0.3854 -0.9477
  957MOL0     H29143   5.337   1.001   6.694 -1.0323 -1.2267  1.5659
  957MOL0     H29144   5.473   0.922   6.425  2.1819 -1.0532  2.5355
  957MOL0     H29145   5.380   1.078   6.426 -1.9564 -0.4106 -0.0647
  957MOL0     H29146   5.684   0.923   6.615 -1.6447  0.5021  1.2770
  957MOL0     H29147   5.845   1.197   6.808  1.0146 -0.9488  0.7850
  957MOL0     H29148   5.833   1.024   6.802 -0.4884  0.6992  0.0592
  957MOL0     H29149   5.949   1.055   6.568  0.8519 -0.5696 -1.1095
  957MOL0     H29150   5.981   1.222   6.616  1.2047 -1.2222 -1.4873
  957MOL0     H29151   6.102   1.157   6.833 -0.0485 -0.0134  0.0481
  957MOL0     H29152   6.169   1.146   6.680  1.6638  1.4561  2.3623
  957MOL0     H29153   6.105   0.899   6.682  0.0687  1.1072 -0.4298
  957MOL0     H29154   6.048   0.901   6.841  2.6591 -2.1597  0.8337
  957MOL0     H29155   6.477   1.026   6.801 -0.5805  0.0386  0.4180
  957MOL0     H29156   6.659   0.904   6.701 -0.8408  1.7470  2.3995
  957MOL0     H29157   6.592   0.257   6.495  0.3138 -0.0811  1.2858
  957MOL0     H29158   6.734   0.136   6.339  1.6123  0.2471  0.1714
  957MOL0     H29159   7.084   0.323   6.200 -0.2484  0.0941  0.8643
  957MOL0     H29160   7.120   0.175   6.141  0.0353  1.0758 -0.9034
  957MOL0     H29161   6.904   0.245   5.978  1.0092  0.0537  0.5432
  957MOL0     H29162   6.961   0.411   6.012  2.7344 -0.3764 -0.5743
  957MOL0     H29163   7.079   0.389   5.835 -0.6083 -1.1699 -0.5185
  957MOL0     H29164   7.203   0.328   5.926 -0.5313  3.4016 -0.0772
  957MOL0     H29165   6.994   0.152   5.784 -0.3856 -0.0515  1.2244
  957MOL0     H29166   7.135   0.101   5.882  0.9564 -0.0364 -1.6812
  957MOL0     H29167   7.275   0.258   5.718 -0.0091 -1.0225  0.5141
  957MOL0     H29168   7.139   0.238   5.619 -1.9980 -1.6758  1.0071
  957MOL0     H29169   7.333   0.027   5.733  1.9665  0.6464 -0.2335
  957MOL0     H29170   7.180  -0.031   5.670 -0.3967  1.5849  2.4157
  957MOL0     H29171   7.245   0.089   5.448 -0.1783  0.1867 -0.0562
  957MOL0     H29172   7.315  -0.069   5.478  0.0939 -0.3711  2.3918
  957MOL0     H29173   7.430   0.211   5.542  1.4020  0.7122  1.8149
  957MOL0     H29174   7.526   0.061   5.557  0.7441  3.8170  2.2249
  957MOL0     H29175   6.972   0.468   6.265  0.0978  1.5908  1.0886
  957MOL0     H29176   6.825   0.607   6.367  0.5424  1.1226 -0.1193
  957MOL0     H29177   6.376   0.587   6.596 -1.8254 -0.1746  0.2458
  957MOL0     H29178   6.209   0.701   6.717 -0.5423  2.2485 -2.1190
  957MOL0     H29179   4.774   0.453   6.964  0.3123  3.7122 -3.0168
  957MOL0     H29180   4.658   0.234   7.030 -0.9636  0.4293  1.1256
  957MOL0     H29181   4.248   0.002   6.955 -0.1758  1.8876  0.7257
  957MOL0     H29182   4.133  -0.200   6.974 -1.8907 -2.5885  1.7769
  957MOL0     H29183   3.944  -0.268   7.176  0.7702  2.1490  0.5203
  957MOL0     H29184   4.015  -0.298   7.334 -3.0776  1.5919 -0.6792
  957MOL0     H29185   3.999  -0.541   7.293 -0.3029  0.2314  0.1154
  957MOL0     H29186   3.936  -0.520   7.134  1.7578  0.9661 -0.6795
  957MOL0     H29187   3.727  -0.410   7.255  0.2891  1.0276  0.1917
  957MOL0     H29188   3.825  -0.441   7.405  1.4062  1.9546 -0.9762
  957MOL0     H29189   3.822  -0.694   7.365 -0.4141 -1.2300 -1.7029
  957MOL0     H29190   3.662  -0.614   7.388  1.8576  1.2170  1.7147
  957MOL0     H29191   3.611  -0.739   6.989  2.3620 -1.8631  0.0899
  957MOL0     H29192   4.276  -0.258   7.371 -1.3346  0.0374 -0.1827
  957MOL0     H29193   4.511   0.005   7.356 -0.2467  0.1913 -1.0547
  957MOL0     H29194   4.373   0.066   7.448  3.3029  0.7503  2.0167
  957MOL0     H29195   4.428  -0.103   7.468 -1.8018  0.9192  0.7798
  958MOL0     O29196   9.589   1.644  11.012 -0.1425  0.5814 -0.3316
  958MOL0     C29197   9.626   1.761  11.010 -0.6487  0.6307  0.3373
  958MOL0     O29198   9.708   1.818  11.105 -0.0011 -0.3046 -0.1762
  958MOL0     C29199   9.786   1.740  11.194 -0.4944 -0.7331 -0.0593
  958MOL0     C29200   9.838   1.817  11.297  0.4418  0.8282  0.4085
  958MOL0     C29201   9.911   1.760  11.401  0.4613  0.5606 -0.4318
  958MOL0     C29202   9.941   1.622  11.390 -0.7502  0.5973  0.4146
  958MOL0     O29203  10.029   1.569  11.482  0.0703 -0.0467  0.1430
  958MOL0     C29204  10.023   1.613  11.616  0.4950  0.5078  0.0947
  958MOL0     C29205  10.093   1.510  11.704 -0.4329 -0.5509  0.3561
  958MOL0     C29206  10.038   1.487  11.848  0.0496  0.2005 -0.2105
  958MOL0     C29207  10.100   1.368  11.928 -0.6384 -0.5995  0.2869
  958MOL0     C29208  10.260   1.372  11.923 -0.6953 -0.6404 -0.3914
  958MOL0     C29209  10.323   1.505  11.965 -0.4837 -0.5047  0.1643
  958MOL0     C29210  10.475   1.477  12.002  0.5038 -0.1959 -0.2084
  958MOL0     C29211  10.556   1.593  12.043 -0.2283 -0.1954  0.2488
  958MOL0     N29212  10.678   1.553  12.113 -0.8740  0.4122  0.1281
  958MOL0     C29213  10.790   1.505  12.047  0.9292  0.3000  0.2213
  958MOL0     C29214  10.888   1.496  12.135 -0.8232 -0.2027 -0.1500
  958MOL0     C29215  11.024   1.435  12.110 -0.3884  0.1556 -0.5204
  958MOL0     C29216  11.118   1.543  12.072 -0.0689 -0.1247 -0.0625
  958MOL0     C29217  11.257   1.489  12.077 -0.4849  0.5122  0.2586
  958MOL0     C29218  11.296   1.381  11.974  0.3374 -0.4480  0.6537
  958MOL0     O29219  11.259   1.406  11.840  1.1722 -0.5537  0.0568
  958MOL0     C29220  11.303   1.524  11.787  0.6512 -0.4034 -0.4720
  958MOL0     C29221  11.227   1.585  11.681  0.8817  1.0524 -0.8237
  958MOL0     C29222  11.268   1.714  11.624  0.4298  0.4115 -0.0608
  958MOL0     C29223  11.381   1.776  11.666  0.7150  0.5337  0.1657
  958MOL0     C29224  11.434   1.900  11.599  0.0784 -0.9454  0.7171
  958MOL0     O29225  11.547   1.961  11.658 -0.1846  0.1638 -0.1870
  958MOL0     C29226  11.585   2.080  11.603  0.4941  0.0123  0.5318
  958MOL0     C29227  11.600   2.194  11.686 -0.3353 -0.1413  0.3982
  958MOL0     C29228  11.638   2.320  11.629  0.7006 -0.5555  0.4358
  958MOL0     C29229  11.693   2.329  11.508  0.5620 -0.0906  0.5580
  958MOL0     O29230  11.762   2.435  11.467 -0.6081 -0.0641  0.1741
  958MOL0     C29231  11.821   2.524  11.559 -0.2650  0.3794 -0.0258
  958MOL0     C29232  11.957   2.573  11.500 -0.0025 -0.6540  0.0768
  958MOL0     C29233  11.946   2.656  11.368  0.5073 -0.3353  0.1039
  958MOL0     C29234  11.841   2.765  11.359 -0.3151  1.0555 -0.1812
  958MOL0     C29235  11.825   2.840  11.228 -0.5825 -0.2979 -0.6620
  958MOL0     C29236  11.739   2.966  11.251 -0.5140 -0.1683  0.4792
  958MOL0     C29237  11.650   3.005  11.125  0.1327 -0.3651 -0.1701
  958MOL0     C29238  11.731   3.045  11.000  0.0337 -0.9813 -0.7644
  958MOL0    Cl29239  11.790   2.898  10.907  0.3224 -0.5755  0.1501
  958MOL0     C29240  11.683   2.215  11.424 -0.0424 -0.9479 -0.3253
  958MOL0     C29241  11.633   2.095  11.468 -0.3400 -0.8520  0.5630
  958MOL0     O29242  11.371   1.945  11.504 -0.4026 -0.0852  0.4760
  958MOL0     C29243  11.461   1.721  11.769  0.0212  0.2087  0.5094
  958MOL0     C29244  11.421   1.598  11.825 -0.2737 -0.2656 -1.1558
  958MOL0     N29245  10.841   1.530  12.259  0.9582 -0.8473 -0.4349
  958MOL0     N29246  10.711   1.562  12.247  0.2040 -0.5035 -0.5667
  958MOL0     C29247   9.909   1.548  11.271 -0.3027 -0.9443 -0.2972
  958MOL0     C29248   9.824   1.604  11.188  0.4693  0.3698  0.7842
  958MOL0     C29249   9.591   1.854  10.889  0.0445  0.1305 -0.4453
  958MOL0     C29250   9.622   1.985  10.905  1.0866  0.0165 -0.1205
  958MOL0     C29251   9.608   2.083  10.804 -0.9412  0.1146  0.4390
  958MOL0     C29252   9.547   2.049  10.689  0.1634 -0.4976  0.4959
  958MOL0     O29253   9.535   2.139  10.585  0.6912 -0.3071 -1.0202
  958MOL0     C29254   9.592   2.266  10.594  1.0017  0.1144 -0.7976
  958MOL0     C29255   9.595   2.345  10.464 -0.7039  0.9231  0.1226
  958MOL0     C29256   9.620   2.488  10.494  0.5537 -0.0208 -0.1145
  958MOL0     C29257   9.582   2.574  10.375  0.0312  0.1273  0.1436
  958MOL0     C29258   9.666   2.541  10.256  0.5171 -0.5659 -0.7672
  958MOL0     C29259   9.737   2.513  10.167  0.6246  1.0234  0.3442
  958MOL0     C29260   9.545   1.915  10.656  0.7956  0.2057  0.5830
  958MOL0     C29261   9.549   1.813  10.758 -0.7440 -0.3766 -0.1679
  958MOL0     C29262   9.534   1.669  10.732 -0.2997  0.4345 -0.3394
  958MOL0     H29263   9.817   1.923  11.289 -1.2792  0.4642 -0.4835
  958MOL0     H29264   9.935   1.816  11.491 -0.4801 -1.5921  1.2336
  958MOL0     H29265  10.066   1.713  11.631  0.8647  0.2995  0.4356
  958MOL0     H29266   9.918   1.619  11.646  0.1537  1.6324 -1.2001
  958MOL0     H29267  10.198   1.541  11.707 -0.5000 -0.2117 -0.5984
  958MOL0     H29268  10.091   1.411  11.656 -2.3612 -1.5389  2.3097
  958MOL0     H29269   9.932   1.460  11.838  0.0996  0.0158 -0.2475
  958MOL0     H29270  10.048   1.574  11.914 -0.0915 -1.6810  2.4689
  958MOL0     H29271  10.066   1.388  12.030  1.1388  6.4190  0.0482
  958MOL0     H29272  10.077   1.271  11.882  0.2648 -0.1050 -1.2618
  958MOL0     H29273  10.286   1.303  12.004 -0.0258  0.7541  0.6160
  958MOL0     H29274  10.294   1.341  11.824 -1.0319  1.1860 -1.1201
  958MOL0     H29275  10.333   1.562  11.872  1.2246 -1.2214 -0.1375
  958MOL0     H29276  10.274   1.569  12.039  2.4663  4.7246 -1.8698
  958MOL0     H29277  10.521   1.416  11.924  1.3866 -1.1552  1.0259
  958MOL0     H29278  10.472   1.415  12.092  2.4407 -1.1097 -0.7401
  958MOL0     H29279  10.571   1.643  11.948 -1.4161 -2.6008 -1.3100
  958MOL0     H29280  10.481   1.649  12.100 -0.0932  1.1152 -0.8260
  958MOL0     H29281  10.783   1.475  11.943 -4.5172  0.2756  0.2899
  958MOL0     H29282  11.063   1.389  12.201 -2.7721 -0.8625  0.0638
  958MOL0     H29283  11.025   1.350  12.042  0.4231 -1.6270  1.5946
  958MOL0     H29284  11.088   1.580  11.973 -1.5348 -4.6180 -1.5410
  958MOL0     H29285  11.116   1.627  12.142 -0.4850 -0.0713 -0.1333
  958MOL0     H29286  11.277   1.455  12.179  1.8799  1.0425  0.0266
  958MOL0     H29287  11.327   1.570  12.057  0.9661 -1.2374 -2.4291
  958MOL0     H29288  11.247   1.286  11.999 -2.6065  0.5356 -0.8912
  958MOL0     H29289  11.403   1.360  11.982  0.4295 -0.1138  0.3402
  958MOL0     H29290  11.141   1.537  11.635  1.4373 -0.8997  0.0821
  958MOL0     H29291  11.214   1.745  11.535  1.3738 -0.7158 -1.0743
  958MOL0     H29292  11.569   2.190  11.790 -0.7019  2.2370  0.4220
  958MOL0     H29293  11.631   2.401  11.701  1.1803 -0.7258  0.6851
  958MOL0     H29294  11.749   2.606  11.566 -1.2710 -0.4000 -0.8671
  958MOL0     H29295  11.843   2.484  11.658 -1.9175 -0.4110  0.0485
  958MOL0     H29296  12.006   2.639  11.573  1.5324 -1.7190  0.0738
  958MOL0     H29297  12.031   2.494  11.483  1.5578  0.0060  2.9900
  958MOL0     H29298  12.039   2.707  11.340  1.5007 -2.4442 -0.6068
  958MOL0     H29299  11.915   2.587  11.290 -2.8556  1.3688 -0.2388
  958MOL0     H29300  11.865   2.840  11.435  0.9121 -0.7607  1.2965
  958MOL0     H29301  11.742   2.723  11.377 -0.9395  1.3638 -2.5195
  958MOL0     H29302  11.768   2.773  11.163 -1.1047  0.7685 -1.3209
  958MOL0     H29303  11.917   2.857  11.171 -0.4603 -1.9332 -1.0150
  958MOL0     H29304  11.676   2.958  11.340 -1.2081 -1.5120 -0.0990
  958MOL0     H29305  11.811   3.046  11.268  0.9801 -1.4810  0.5752
  958MOL0     H29306  11.606   3.094  11.170 -0.4488 -1.1128  0.7748
  958MOL0     H29307  11.576   2.926  11.111 -0.9890  0.5854  0.2092
  958MOL0     H29308  11.657   3.097  10.939  1.7424  2.0233 -0.4853
  958MOL0     H29309  11.814   3.116  11.012 -1.7428  1.0658  0.1318
  958MOL0     H29310  11.714   2.232  11.321 -2.3943 -2.1093 -1.3148
  958MOL0     H29311  11.626   2.004  11.410 -2.2787 -0.2921 -0.1634
  958MOL0     H29312  11.550   1.771  11.804 -1.6288  2.6732  1.4235
  958MOL0     H29313  11.481   1.558  11.907 -2.6697  1.7002  1.7861
  958MOL0     H29314   9.947   1.448  11.249  0.4812 -0.8603  0.6030
  958MOL0     H29315   9.799   1.544  11.101 -2.1153  0.3633  1.4470
  958MOL0     H29316   9.665   2.027  10.995 -1.7334  0.3159  1.1842
  958MOL0     H29317   9.629   2.186  10.831  0.1536  0.5510 -1.8554
  958MOL0     H29318   9.699   2.256  10.613  0.9344 -3.0489 -1.5523
  958MOL0     H29319   9.553   2.329  10.674  0.2468  0.8583 -1.7251
  958MOL0     H29320   9.497   2.336  10.418 -1.5965 -0.2522  2.1274
  958MOL0     H29321   9.679   2.307  10.405  0.6214  4.3480 -0.3886
  958MOL0     H29322   9.727   2.507  10.508  0.6167 -2.1640  3.8752
  958MOL0     H29323   9.568   2.514  10.587  0.7847 -2.3540  0.7421
  958MOL0     H29324   9.479   2.562  10.342  0.1589 -1.2164  0.2038
  958MOL0     H29325   9.609   2.679  10.392 -1.1642  1.0218 -2.7720
  958MOL0     H29326   9.804   2.480  10.090 -2.7772  0.4307 -2.6225
  958MOL0     H29327   9.518   1.871  10.561  2.0788  1.1830 -0.2732
  958MOL0     H29328   9.479   1.607  10.803  1.7421 -0.6843  0.3504
  958MOL0     H29329   9.479   1.670  10.637 -0.7315  3.8963 -0.1785
  958MOL0     H29330   9.634   1.631  10.709  0.7209  3.8510 -2.2233
  959MOL0     O29331   3.579  11.137   6.985 -0.4799  0.3666  0.4699
  959MOL0     C29332   3.530  11.056   6.914 -0.4480 -0.0933  1.2907
  959MOL0     O29333   3.595  11.009   6.804  0.6943 -1.1079 -0.4522
  959MOL0     C29334   3.725  11.041   6.772 -0.0855 -0.2340  0.7739
  959MOL0     C29335   3.758  11.126   6.664  0.2824 -0.8895  0.2646
  959MOL0     C29336   3.894  11.151   6.630  0.2111  0.3249 -0.6353
  959MOL0     C29337   4.001  11.100   6.709  0.3733  0.1877  1.3109
  959MOL0     O29338   4.131  11.124   6.659  0.1201 -0.4973 -0.2496
  959MOL0     C29339   4.240  11.034   6.683  0.0159 -0.0644  0.2655
  959MOL0     C29340   4.222  10.894   6.620  0.0266  0.2965 -0.5292
  959MOL0     C29341   4.222  10.901   6.467 -0.1586  0.9042 -0.1576
  959MOL0     C29342   4.249  10.764   6.417  0.4122 -0.6439  0.8424
  959MOL0     C29343   4.242  10.737   6.259 -0.3919  0.8401 -0.4380
  959MOL0     C29344   4.383  10.726   6.188  0.4682 -0.2651 -0.3250
  959MOL0     C29345   4.442  10.594   6.215  0.7086  0.2486  0.5106
  959MOL0     C29346   4.538  10.558   6.093  0.0001 -0.2668  0.2139
  959MOL0     N29347   4.466  10.520   5.973  1.1343 -0.4643 -0.6881
  959MOL0     C29348   4.457  10.384   5.931 -0.1798 -0.2698  0.0949
  959MOL0     C29349   4.380  10.378   5.819 -0.5247 -1.2387  0.2684
  959MOL0     C29350   4.358  10.246   5.744  0.5325 -0.5269 -1.3526
  959MOL0     C29351   4.430  10.241   5.604  0.4531  0.3934 -0.5280
  959MOL0     C29352   4.348  10.161   5.492  1.1543  0.1843  0.8240
  959MOL0     C29353   4.296  10.255   5.385  1.0331 -0.2530 -0.7619
  959MOL0     O29354   4.414  10.319   5.324  0.8433  0.1622 -0.6033
  959MOL0     C29355   4.400  10.441   5.256 -0.3459 -0.4299  0.0690
  959MOL0     C29356   4.501  10.489   5.180 -0.7834 -0.6084 -0.4419
  959MOL0     C29357   4.500  10.615   5.114  0.3998  0.5776  0.0860
  959MOL0     C29358   4.389  10.700   5.141  1.1048 -0.4189  0.8052
  959MOL0     C29359   4.379  10.838   5.100 -1.1240  0.2297 -0.1466
  959MOL0     O29360   4.250  10.894   5.093 -0.4514 -0.6206  0.3490
  959MOL0     C29361   4.243  11.029   5.061  0.1197  0.5458  0.1065
  959MOL0     C29362   4.305  11.120   5.142  0.9306  0.1490  0.0313
  959MOL0     C29363   4.302  11.257   5.103 -0.0195  0.6130 -0.6582
  959MOL0     C29364   4.222  11.301   4.999 -0.6728 -0.0355  0.1049
  959MOL0     O29365   4.191  11.431   4.971 -0.0676  0.6792  0.5377
  959MOL0     C29366   4.296  11.528   4.965  0.4948 -0.2190 -0.4296
  959MOL0     C29367   4.310  11.582   4.831 -0.4682 -0.5886  0.4327
  959MOL0     C29368   4.372  11.485   4.735  0.2327  0.1342 -0.1561
  959MOL0     C29369   4.493  11.546   4.648 -0.2714  0.1285  0.8529
  959MOL0     C29370   4.522  11.471   4.520  0.1005  0.3849  0.2424
  959MOL0     C29371   4.620  11.550   4.443  0.1555 -0.3682  0.8653
  959MOL0     C29372   4.760  11.560   4.504 -0.1288 -0.3050  0.1273
  959MOL0     C29373   4.846  11.661   4.447  0.6042  0.4288  0.2413
  959MOL0    Cl29374   4.998  11.664   4.545  0.5477  0.1675  0.1322
  959MOL0     C29375   4.162  11.200   4.920  0.5872 -0.4196  0.0360
  959MOL0     C29376   4.185  11.063   4.945 -0.4847 -0.0584  0.6007
  959MOL0     O29377   4.487  10.895   5.068  0.2594  0.5994  0.3673
  959MOL0     C29378   4.281  10.643   5.213 -0.0800 -0.2484  0.0025
  959MOL0     C29379   4.283  10.517   5.268  0.2409 -0.9673  0.5127
  959MOL0     N29380   4.342  10.510   5.794  0.0444  0.4683 -0.1103
  959MOL0     N29381   4.393  10.589   5.882  0.8601  0.8292  0.5576
  959MOL0     C29382   3.968  11.025   6.824  0.7865 -0.7377  0.5883
  959MOL0     C29383   3.830  10.996   6.848 -0.9214 -0.2542 -0.2023
  959MOL0     C29384   3.393  11.017   6.933  0.5426  1.2024  0.0882
  959MOL0     C29385   3.323  11.049   7.053  0.4094  0.2962  0.0360
  959MOL0     C29386   3.192  11.024   7.082 -0.3828  0.2352 -0.5065
  959MOL0     C29387   3.116  10.935   7.003 -0.9700 -0.1553 -0.2941
  959MOL0     O29388   2.996  10.877   7.038 -0.6066 -0.6300  0.2301
  959MOL0     C29389   2.947  10.898   7.168 -0.4956  0.4640 -0.1570
  959MOL0     C29390   2.858  11.029   7.179 -0.0847  1.4524 -0.1564
  959MOL0     C29391   2.805  11.052   7.322 -0.5064 -0.1180  0.8509
  959MOL0     C29392   2.795  11.199   7.341  0.4399 -0.5542 -0.2935
  959MOL0     C29393   2.923  11.269   7.345 -0.3384  0.5601 -0.9622
  959MOL0     C29394   3.032  11.323   7.340 -0.5704 -0.3717  0.2384
  959MOL0     C29395   3.179  10.894   6.887 -0.9779  0.5997  0.1078
  959MOL0     C29396   3.311  10.940   6.840  0.1681  1.0857 -0.3166
  959MOL0     C29397   3.352  10.913   6.699  0.0569  0.3712 -0.2830
  959MOL0     H29398   3.689  11.170   6.593  3.9706  2.0041 -1.9158
  959MOL0     H29399   3.912  11.205   6.537  1.9630 -1.2421 -1.2531
  959MOL0     H29400   4.329  11.080   6.639  1.0264 -2.1516  0.0062
  959MOL0     H29401   4.248  11.026   6.792  0.5746 -1.0001  0.1702
  959MOL0     H29402   4.140  10.835   6.661 -0.7900 -0.1764 -2.7122
  959MOL0     H29403   4.310  10.839   6.657  1.8523  2.0330 -2.0487
  959MOL0     H29404   4.291  10.975   6.426  2.3051 -0.1005  1.9125
  959MOL0     H29405   4.127  10.940   6.429 -1.1561 -0.6874  0.5888
  959MOL0     H29406   4.343  10.726   6.457  0.1094  1.3052  3.7370
  959MOL0     H29407   4.168  10.694   6.442 -0.9932 -0.1129 -1.8811
  959MOL0     H29408   4.187  10.643   6.248 -0.5567  1.1046 -2.0217
  959MOL0     H29409   4.186  10.819   6.213 -1.5633 -0.1706 -0.8536
  959MOL0     H29410   4.357  10.739   6.082 -0.1035  1.3872 -0.0232
  959MOL0     H29411   4.454  10.807   6.208 -0.4944  0.2499  1.1806
  959MOL0     H29412   4.373  10.510   6.226  1.0432 -0.1484 -0.3103
  959MOL0     H29413   4.501  10.588   6.306 -0.0540 -5.6977  0.9776
  959MOL0     H29414   4.595  10.646   6.061  0.8104 -0.8809 -0.0799
  959MOL0     H29415   4.603  10.474   6.119 -1.2922 -1.7918 -1.2615
  959MOL0     H29416   4.525  10.304   5.961 -0.0447 -0.7116 -1.3226
  959MOL0     H29417   4.391  10.168   5.813  1.6674  0.6789 -0.4903
  959MOL0     H29418   4.249  10.248   5.740  0.5520 -0.7796 -2.8814
  959MOL0     H29419   4.453  10.343   5.570  0.2146  0.6048 -0.0638
  959MOL0     H29420   4.529  10.201   5.625  0.5598  0.8890 -0.0636
  959MOL0     H29421   4.259  10.107   5.527 -3.2158  2.9924 -4.4317
  959MOL0     H29422   4.419  10.099   5.437  0.1973 -0.6663  0.5201
  959MOL0     H29423   4.239  10.321   5.451  3.8587 -1.7301  3.6269
  959MOL0     H29424   4.237  10.207   5.307 -0.1970 -0.3680  0.1983
  959MOL0     H29425   4.585  10.421   5.172  0.4184  0.8559 -0.6616
  959MOL0     H29426   4.586  10.648   5.056 -1.6658  2.2371 -2.2147
  959MOL0     H29427   4.366  11.093   5.228 -1.3025  0.9136  1.9788
  959MOL0     H29428   4.348  11.321   5.177 -0.1528  1.6757 -1.4684
  959MOL0     H29429   4.263  11.611   5.028  1.8445 -0.4049  0.5735
  959MOL0     H29430   4.388  11.488   5.011  1.1148 -1.5057 -2.6154
  959MOL0     H29431   4.214  11.624   4.800  0.5268  3.3573  2.1322
  959MOL0     H29432   4.374  11.670   4.839 -1.0167 -0.0342 -0.8833
  959MOL0     H29433   4.393  11.395   4.793 -1.8919 -0.4800 -0.2428
  959MOL0     H29434   4.291  11.457   4.667  1.2445  0.4504 -1.5344
  959MOL0     H29435   4.574  11.552   4.722  0.5166 -0.5450  0.0685
  959MOL0     H29436   4.462  11.649   4.628  0.6333  0.6887  2.1374
  959MOL0     H29437   4.428  11.469   4.464 -2.0647  0.6236  3.5718
  959MOL0     H29438   4.557  11.369   4.537  0.5813  0.0480 -2.3787
  959MOL0     H29439   4.625  11.515   4.339 -0.0846  1.5850  0.1335
  959MOL0     H29440   4.590  11.655   4.429  2.6108  0.2430 -0.3194
  959MOL0     H29441   4.811  11.466   4.484 -1.6099 -0.8720 -1.1378
  959MOL0     H29442   4.763  11.579   4.612 -0.1348  0.4514 -0.0021
  959MOL0     H29443   4.876  11.638   4.344 -0.1676  0.1133  0.0801
  959MOL0     H29444   4.808  11.762   4.458 -2.1794 -0.5887  0.8535
  959MOL0     H29445   4.114  11.234   4.829 -1.6608 -1.0396  0.9311
  959MOL0     H29446   4.151  10.987   4.876 -1.6991 -0.1149  1.2450
  959MOL0     H29447   4.194  10.707   5.227 -0.3576 -0.6772  0.2464
  959MOL0     H29448   4.202  10.482   5.330  1.8894  0.1461  3.5309
  959MOL0     H29449   4.040  10.980   6.891  1.3238 -1.0583 -0.1887
  959MOL0     H29450   3.805  10.935   6.934 -0.1697  1.2493  1.1374
  959MOL0     H29451   3.381  11.108   7.122 -0.2008  1.8928 -0.7702
  959MOL0     H29452   3.168  11.063   7.181  1.8034  1.3704 -0.3607
  959MOL0     H29453   3.027  10.910   7.241 -2.3078 -0.5130  2.1358
  959MOL0     H29454   2.897  10.809   7.208  1.6751 -0.6475  0.1964
  959MOL0     H29455   2.770  11.024   7.114  0.3379  3.6576 -0.9993
  959MOL0     H29456   2.912  11.114   7.135 -0.5487  1.4310 -0.7882
  959MOL0     H29457   2.877  11.016   7.397  0.2435  1.4118  0.8885
  959MOL0     H29458   2.708  11.005   7.341 -0.8402 -0.8662 -2.2237
  959MOL0     H29459   2.734  11.246   7.264  3.3128  1.7375 -1.3210
  959MOL0     H29460   2.741  11.216   7.435 -2.6993  0.4163 -2.1052
  959MOL0     H29461   3.130  11.367   7.341 -0.1540 -1.0646 -2.4996
  959MOL0     H29462   3.136  10.839   6.804 -0.9322  2.5309 -1.2819
  959MOL0     H29463   3.268  10.858   6.656 -1.5951  1.4645  1.3954
  959MOL0     H29464   3.376  11.008   6.650 -1.0970  0.6211 -0.3867
  959MOL0     H29465   3.442  10.850   6.699 -1.1257 -1.9218 -6.0896
  960MOL0     O29466   1.863   7.524   7.674 -0.1649  0.4742  0.2464
  960MOL0     C29467   1.859   7.644   7.627  0.8743  0.3153 -0.1415
  960MOL0     O29468   1.894   7.691   7.500 -0.1574  0.0793 -0.2542
  960MOL0     C29469   1.950   7.591   7.421 -0.4200  0.0666 -0.5917
  960MOL0     C29470   1.866   7.497   7.363  0.4531 -1.0859 -0.2123
  960MOL0     C29471   1.916   7.384   7.308  0.2549 -0.3189  0.2253
  960MOL0     C29472   2.050   7.360   7.289 -0.4434  0.1172  0.4637
  960MOL0     O29473   2.087   7.237   7.240 -0.6066  0.8236  0.0751
  960MOL0     C29474   2.211   7.179   7.295  0.1248 -0.5671 -0.4727
  960MOL0     C29475   2.177   7.026   7.267  0.7121 -0.2470  0.0037
  960MOL0     C29476   2.306   6.940   7.262 -0.6856 -1.4714 -0.1671
  960MOL0     C29477   2.288   6.783   7.253  0.0343  0.4012 -0.6162
  960MOL0     C29478   2.161   6.752   7.178 -0.5411  0.3730 -0.2280
  960MOL0     C29479   2.151   6.603   7.170  0.4904  0.7067  0.3992
  960MOL0     C29480   2.033   6.570   7.083 -0.1218  0.7010  0.0456
  960MOL0     C29481   2.023   6.419   7.064  0.4288 -0.3466  0.6564
  960MOL0     N29482   1.951   6.342   7.165  0.0842  0.1204  0.1274
  960MOL0     C29483   1.817   6.357   7.196 -0.1059 -0.2360 -0.7597
  960MOL0     C29484   1.786   6.269   7.291 -0.5526  0.5883 -0.1191
  960MOL0     C29485   1.649   6.248   7.349  0.7723 -0.6173  0.2696
  960MOL0     C29486   1.590   6.114   7.296 -0.2174 -0.1532  0.2923
  960MOL0     C29487   1.664   5.988   7.352 -0.1965  0.6375 -0.6573
  960MOL0     C29488   1.636   5.971   7.501 -1.1021 -0.0123 -0.2831
  960MOL0     O29489   1.674   5.842   7.543  0.6390  0.7273 -0.2000
  960MOL0     C29490   1.801   5.810   7.583  0.0657  0.8371  0.1233
  960MOL0     C29491   1.909   5.903   7.595 -0.3711  0.3066 -1.3436
  960MOL0     C29492   2.029   5.858   7.646 -0.4745 -0.0646  0.3241
  960MOL0     C29493   2.066   5.718   7.664 -0.3462  0.1337  0.3555
  960MOL0     C29494   2.196   5.668   7.689  0.1508  0.3889  0.7151
  960MOL0     O29495   2.214   5.536   7.697  0.9166 -0.1412 -0.9092
  960MOL0     C29496   2.307   5.478   7.782  0.4535  0.3222  0.0034
  960MOL0     C29497   2.260   5.367   7.851 -0.2143 -0.0739 -0.4521
  960MOL0     C29498   2.337   5.293   7.942  0.1321 -0.4119  0.4357
  960MOL0     C29499   2.479   5.327   7.956 -0.0876  0.5581  0.5361
  960MOL0     O29500   2.550   5.274   8.066  0.1315 -0.1427  0.9857
  960MOL0     C29501   2.550   5.349   8.184 -0.0246 -0.0400  0.5168
  960MOL0     C29502   2.677   5.318   8.266 -0.7617  1.1024  0.0850
  960MOL0     C29503   2.691   5.386   8.413 -1.6625  0.1599 -0.1848
  960MOL0     C29504   2.823   5.331   8.497  0.7885 -0.1001  0.5592
  960MOL0     C29505   2.785   5.341   8.645  1.1880 -0.1481 -0.1011
  960MOL0     C29506   2.904   5.297   8.734  0.1122  0.2742 -0.8561
  960MOL0     C29507   2.909   5.343   8.881 -0.2996 -0.5130  0.7764
  960MOL0     C29508   2.817   5.253   8.971  0.0306 -0.0089  0.7081
  960MOL0    Cl29509   2.647   5.270   8.942  0.4743 -0.5282 -0.2024
  960MOL0     C29510   2.531   5.433   7.866  0.3264 -0.7449 -0.4639
  960MOL0     C29511   2.441   5.511   7.788 -0.1248  0.2982 -0.6241
  960MOL0     O29512   2.295   5.745   7.697  0.6091 -0.0038 -0.7334
  960MOL0     C29513   1.954   5.630   7.649  0.3127 -0.3610  0.1260
  960MOL0     C29514   1.827   5.676   7.610  0.6000 -0.5921  0.0414
  960MOL0     N29515   1.899   6.203   7.319  0.4391  0.1581  0.4588
  960MOL0     N29516   1.999   6.257   7.256 -0.4954 -0.6961 -0.0008
  960MOL0     C29517   2.142   7.460   7.327  0.6451  0.6375  0.5652
  960MOL0     C29518   2.088   7.568   7.399  0.3859 -0.3354  0.2132
  960MOL0     C29519   1.809   7.746   7.716  0.7541  0.7347  0.1136
  960MOL0     C29520   1.781   7.715   7.853  0.8093  0.8525 -0.4511
  960MOL0     C29521   1.743   7.814   7.945  0.3728  0.6999 -0.1408
  960MOL0     C29522   1.703   7.934   7.908  0.2670  0.4251  0.3672
  960MOL0     O29523   1.663   8.018   8.003  0.6716  0.5217 -0.7874
  960MOL0     C29524   1.665   8.161   7.970  0.1879  0.2631 -0.9529
  960MOL0     C29525   1.654   8.234   8.105  0.3747  0.1755 -0.1175
  960MOL0     C29526   1.510   8.227   8.164 -0.2301  0.5355  0.3268
  960MOL0     C29527   1.520   8.201   8.314 -0.4175  0.8095  0.2365
  960MOL0     C29528   1.576   8.310   8.389 -0.0327  0.2807  0.6963
  960MOL0     C29529   1.604   8.402   8.457 -0.6162 -0.5637 -0.9507
  960MOL0     C29530   1.705   7.967   7.769  0.1286 -0.4924 -0.1583
  960MOL0     C29531   1.750   7.868   7.674  0.4752 -0.0895 -0.3819
  960MOL0     C29532   1.734   7.908   7.534  0.0954 -0.1531 -0.2387
  960MOL0     H29533   1.758   7.511   7.358  0.4839  0.0832  1.5260
  960MOL0     H29534   1.850   7.308   7.268  0.5692 -0.7922  0.5948
  960MOL0     H29535   2.298   7.223   7.246 -0.1264 -0.8210 -1.1545
  960MOL0     H29536   2.232   7.192   7.402  2.0119  0.0925 -0.8975
  960MOL0     H29537   2.128   7.011   7.170  1.0964 -2.2142  0.0658
  960MOL0     H29538   2.110   6.986   7.343  1.1448  0.0824  0.5666
  960MOL0     H29539   2.372   6.966   7.344 -2.2299  0.0788  0.6632
  960MOL0     H29540   2.359   6.969   7.170 -1.0600  2.3842  0.6724
  960MOL0     H29541   2.381   6.733   7.225  1.4091 -0.4584  4.4588
  960MOL0     H29542   2.273   6.736   7.351  2.8774 -3.0279 -1.6021
  960MOL0     H29543   2.073   6.798   7.223 -0.5266  0.4018 -0.2292
  960MOL0     H29544   2.179   6.780   7.074  0.4558  2.2650  0.4169
  960MOL0     H29545   2.244   6.563   7.130  0.4277  1.0841 -0.1362
  960MOL0     H29546   2.128   6.570   7.271  2.2109 -0.9239  0.2943
  960MOL0     H29547   2.040   6.619   6.985 -1.2404  0.3339 -0.2294
  960MOL0     H29548   1.944   6.612   7.131 -0.0579  4.6731 -2.7199
  960MOL0     H29549   1.966   6.395   6.974 -2.2632  2.7216  1.3529
  960MOL0     H29550   2.124   6.382   7.045  1.7128  2.4250  1.5992
  960MOL0     H29551   1.756   6.437   7.155  1.9477  1.4969 -0.6022
  960MOL0     H29552   1.643   6.243   7.458 -3.1688 -1.7971  0.1473
  960MOL0     H29553   1.583   6.328   7.312 -0.9554 -2.9384 -2.0545
  960MOL0     H29554   1.484   6.103   7.320  0.0391 -0.5271  1.2834
  960MOL0     H29555   1.599   6.122   7.187  2.7771 -1.0353  0.3973
  960MOL0     H29556   1.772   5.993   7.335  0.3588 -2.0564  1.2610
  960MOL0     H29557   1.631   5.897   7.302  0.5461  0.3484 -0.6266
  960MOL0     H29558   1.535   5.999   7.533  0.7227  3.6078  3.4098
  960MOL0     H29559   1.695   6.039   7.564 -1.0372 -0.7059  0.4144
  960MOL0     H29560   1.888   6.008   7.577  0.2906 -0.0803 -5.2396
  960MOL0     H29561   2.100   5.940   7.653  1.7957 -1.8113 -0.5474
  960MOL0     H29562   2.154   5.344   7.853  0.0336 -1.3538 -0.9623
  960MOL0     H29563   2.304   5.214   8.009  1.6651 -0.6782  0.9236
  960MOL0     H29564   2.540   5.457   8.166 -4.3702 -0.3129  0.3173
  960MOL0     H29565   2.454   5.323   8.229 -2.7326  0.9512 -4.0602
  960MOL0     H29566   2.668   5.211   8.288 -0.5317  1.4407  1.9402
  960MOL0     H29567   2.767   5.335   8.206  1.7823 -0.6442  3.1007
  960MOL0     H29568   2.699   5.495   8.410  1.6173  0.0484  0.4950
  960MOL0     H29569   2.615   5.359   8.486  0.3220  2.9188  3.2342
  960MOL0     H29570   2.910   5.397   8.488  1.7272 -1.0110  2.3294
  960MOL0     H29571   2.850   5.231   8.462  0.5110  1.0023 -3.2565
  960MOL0     H29572   2.697   5.280   8.666 -0.6032  2.3604  0.1778
  960MOL0     H29573   2.752   5.445   8.658  1.4336 -0.1364  0.4614
  960MOL0     H29574   2.916   5.190   8.715 -0.6589 -0.3476  1.8004
  960MOL0     H29575   2.990   5.342   8.682 -0.2735  0.5993 -1.2252
  960MOL0     H29576   2.875   5.447   8.883 -0.0832 -0.4416  2.4716
  960MOL0     H29577   3.011   5.340   8.922 -0.7664  1.2341  2.1746
  960MOL0     H29578   2.836   5.151   8.938  1.5213  0.9361 -1.6407
  960MOL0     H29579   2.832   5.267   9.078 -0.8425 -0.1855  0.8635
  960MOL0     H29580   2.638   5.451   7.872  0.1298  0.5097 -0.3782
  960MOL0     H29581   2.484   5.590   7.728  0.0783  0.8398  0.2126
  960MOL0     H29582   1.965   5.523   7.666  0.6000 -0.0089  2.5915
  960MOL0     H29583   1.744   5.609   7.595  0.0746  0.0276  0.1351
  960MOL0     H29584   2.249   7.446   7.329  0.4650 -0.9689  0.5739
  960MOL0     H29585   2.144   7.651   7.440 -1.4714  1.3830 -0.5424
  960MOL0     H29586   1.803   7.618   7.897  0.7193  0.8511 -0.4086
  960MOL0     H29587   1.735   7.796   8.052  4.0636 -3.9480 -0.3219
  960MOL0     H29588   1.579   8.188   7.907  0.4717  2.1456 -0.6156
  960MOL0     H29589   1.757   8.186   7.917  1.1121  0.4195  0.6449
  960MOL0     H29590   1.687   8.337   8.092  1.4048 -0.3570 -2.0027
  960MOL0     H29591   1.723   8.184   8.173 -0.2488 -0.4625  0.0695
  960MOL0     H29592   1.457   8.146   8.114 -0.7108  1.6763 -1.0570
  960MOL0     H29593   1.459   8.322   8.149 -0.9269  0.6765  3.0629
  960MOL0     H29594   1.421   8.170   8.347 -0.4685  1.6390  0.8841
  960MOL0     H29595   1.572   8.108   8.338 -1.6221  0.2227  0.6519
  960MOL0     H29596   1.633   8.479   8.525  0.1711 -0.3303 -1.5339
  960MOL0     H29597   1.668   8.066   7.746 -0.2611  0.4032  3.6610
  960MOL0     H29598   1.682   8.004   7.543 -0.2075 -0.5201  2.7166
  960MOL0     H29599   1.834   7.923   7.492 -0.6016 -0.4066 -2.0994
  960MOL0     H29600   1.678   7.833   7.478 -0.2299 -0.0059 -0.1135
  961MOL0     O29601   1.187   6.128   5.335  0.0199 -1.0512 -1.0518
  961MOL0     C29602   1.269   6.081   5.262  1.1013 -0.6762 -0.3457
  961MOL0     O29603   1.398   6.096   5.272  0.5932  0.1541 -0.7994
  961MOL0     C29604   1.457   6.165   5.374 -1.4887 -1.0545 -0.7546
  961MOL0     C29605   1.583   6.118   5.408  1.1406 -0.7940 -0.8760
  961MOL0     C29606   1.656   6.185   5.505 -0.3506  0.1617  0.5828
  961MOL0     C29607   1.615   6.304   5.565 -0.4081 -0.5459  0.0214
  961MOL0     O29608   1.682   6.399   5.645  0.9438 -0.6210 -0.7515
  961MOL0     C29609   1.812   6.367   5.704  0.1353  0.8974  0.7471
  961MOL0     C29610   1.846   6.485   5.803  1.0879 -0.6262  1.2310
  961MOL0     C29611   1.900   6.445   5.934  0.1081 -0.4794 -0.7740
  961MOL0     C29612   1.800   6.371   6.015  0.6384 -0.2287  0.1883
  961MOL0     C29613   1.859   6.312   6.134 -1.0718  0.4620  0.3338
  961MOL0     C29614   1.766   6.203   6.189  0.2915 -1.2574  0.2238
  961MOL0     C29615   1.805   6.183   6.343  0.0132 -0.0312  0.6708
  961MOL0     C29616   1.952   6.155   6.362 -1.4531 -0.7626 -0.7556
  961MOL0     N29617   2.008   6.032   6.302 -0.6943 -0.5732 -0.8539
  961MOL0     C29618   2.021   5.990   6.178 -0.1317  0.1156  0.3282
  961MOL0     C29619   2.061   5.861   6.181 -0.5308  0.3313  1.0937
  961MOL0     C29620   2.095   5.776   6.055  1.2295 -0.5543  0.6343
  961MOL0     C29621   1.976   5.705   5.988  0.7369 -1.0474  0.8222
  961MOL0     C29622   1.955   5.566   6.035 -0.3647 -0.0996  0.3588
  961MOL0     C29623   1.822   5.505   5.996  0.5891 -1.0662 -0.2986
  961MOL0     O29624   1.807   5.521   5.855  0.2103  0.5865  0.3755
  961MOL0     C29625   1.761   5.408   5.782  0.1917 -0.0121  0.4837
  961MOL0     C29626   1.660   5.328   5.819 -0.4616  0.3788  0.5099
  961MOL0     C29627   1.618   5.221   5.737 -0.2582 -0.3258 -0.5558
  961MOL0     C29628   1.670   5.203   5.602 -0.7038 -0.0963  0.0402
  961MOL0     C29629   1.621   5.097   5.511 -0.2110 -0.1511 -0.4071
  961MOL0     O29630   1.575   4.989   5.575  0.2834 -0.2047  0.5412
  961MOL0     C29631   1.571   4.862   5.511 -0.0360 -0.9288 -0.3925
  961MOL0     C29632   1.464   4.775   5.543  0.1021 -0.6316  0.7324
  961MOL0     C29633   1.456   4.646   5.483 -0.4263 -0.3100 -0.4599
  961MOL0     C29634   1.546   4.607   5.385 -0.1819 -0.0276 -0.3540
  961MOL0     O29635   1.529   4.480   5.327 -0.5839 -1.7588  0.3077
  961MOL0     C29636   1.627   4.405   5.247 -0.3741 -0.5311 -0.4169
  961MOL0     C29637   1.546   4.288   5.190 -0.3178  0.3711 -0.1764
  961MOL0     C29638   1.498   4.182   5.296 -0.6328 -0.3113 -0.3953
  961MOL0     C29639   1.405   4.070   5.238  0.0231  0.2592 -0.5355
  961MOL0     C29640   1.370   3.982   5.361 -0.5881 -0.2626 -0.2705
  961MOL0     C29641   1.267   3.884   5.328 -0.1565  0.3607 -0.2377
  961MOL0     C29642   1.242   3.778   5.433 -0.6021 -0.5141  1.2885
  961MOL0     C29643   1.149   3.671   5.374 -0.1511 -0.3173  0.7937
  961MOL0    Cl29644   1.003   3.652   5.481 -0.2374 -0.4098 -0.0475
  961MOL0     C29645   1.654   4.691   5.358 -0.8781 -1.1262  0.3967
  961MOL0     C29646   1.657   4.820   5.419 -0.6195  0.0761 -0.5233
  961MOL0     O29647   1.627   5.114   5.389  0.3803  0.1873  0.4871
  961MOL0     C29648   1.777   5.291   5.567  0.1265 -0.5904 -0.2471
  961MOL0     C29649   1.824   5.392   5.658  0.3705  0.1778  1.2894
  961MOL0     N29650   2.073   5.820   6.311 -0.3333 -0.2344 -0.1106
  961MOL0     N29651   2.037   5.925   6.381  0.2042 -0.4076  0.9101
  961MOL0     C29652   1.486   6.351   5.520 -0.0801  0.8839 -0.4350
  961MOL0     C29653   1.407   6.286   5.436  0.1783  0.6103 -0.7169
  961MOL0     C29654   1.222   6.020   5.139 -0.8376  0.2556  0.0489
  961MOL0     C29655   1.256   6.069   5.016  0.5682 -0.9169  0.0786
  961MOL0     C29656   1.214   6.020   4.895  0.1017  0.7091  0.1361
  961MOL0     C29657   1.127   5.909   4.900 -0.0143 -0.1916 -0.0146
  961MOL0     O29658   1.107   5.844   4.777  0.9814  0.0627 -0.5945
  961MOL0     C29659   1.046   5.702   4.778  0.3167  0.4072  0.6644
  961MOL0     C29660   1.003   5.673   4.634 -0.8686 -0.3618 -0.5485
  961MOL0     C29661   1.008   5.526   4.593  0.0289  0.4790  0.2947
  961MOL0     C29662   0.927   5.484   4.472 -0.0732 -0.3341 -0.5714
  961MOL0     C29663   0.969   5.556   4.356  0.6913 -0.0020 -0.0330
  961MOL0     C29664   0.994   5.631   4.260  0.2157  0.5801 -0.0689
  961MOL0     C29665   1.089   5.865   5.029 -0.3167  0.5432  1.0450
  961MOL0     C29666   1.139   5.912   5.150  0.0893 -0.1999  1.0511
  961MOL0     C29667   1.101   5.846   5.274 -0.0181 -0.8272 -0.4964
  961MOL0     H29668   1.622   6.029   5.359  1.8748 -0.2096 -1.3786
  961MOL0     H29669   1.751   6.142   5.535 -0.7829 -2.0606 -0.9716
  961MOL0     H29670   1.811   6.275   5.763  0.3785  0.6476  0.3654
  961MOL0     H29671   1.889   6.360   5.627 -0.3803 -0.6394  0.3309
  961MOL0     H29672   1.747   6.529   5.819  1.5540  1.9242 -1.9643
  961MOL0     H29673   1.914   6.555   5.755  2.5220 -2.3880  0.5755
  961MOL0     H29674   1.920   6.541   5.982 -2.1304 -0.0975 -0.4817
  961MOL0     H29675   1.983   6.377   5.914 -0.5949 -1.6328  0.1523
  961MOL0     H29676   1.729   6.446   6.052  1.5914  0.7394  0.0729
  961MOL0     H29677   1.747   6.291   5.962 -1.4127 -0.2652  2.1090
  961MOL0     H29678   1.964   6.284   6.119 -1.0076  0.8212  0.1151
  961MOL0     H29679   1.864   6.388   6.212 -2.2225  1.7864 -0.8405
  961MOL0     H29680   1.665   6.244   6.186  1.1004  0.7814 -1.7644
  961MOL0     H29681   1.774   6.116   6.122 -2.7613  0.9581 -3.4701
  961MOL0     H29682   1.744   6.101   6.383  0.6532 -2.6863 -3.1964
  961MOL0     H29683   1.772   6.274   6.394  0.5551  0.7816 -0.3806
  961MOL0     H29684   2.007   6.245   6.333 -2.7904  0.1370 -0.5970
  961MOL0     H29685   1.961   6.154   6.471 -2.9203  0.9676 -0.5741
  961MOL0     H29686   2.013   6.043   6.084  0.9935 -1.6091 -0.8154
  961MOL0     H29687   2.129   5.841   5.974  0.7270 -0.2741  0.6461
  961MOL0     H29688   2.182   5.712   6.072  0.4417 -1.6409  0.7289
  961MOL0     H29689   1.889   5.763   6.018  0.6547 -0.3969 -0.6262
  961MOL0     H29690   1.983   5.716   5.879  1.4526  0.5775  1.0105
  961MOL0     H29691   1.962   5.563   6.144 -0.4984 -0.8140  0.3512
  961MOL0     H29692   2.036   5.506   5.994 -0.4564  0.3744 -0.5509
  961MOL0     H29693   1.745   5.563   6.048  1.0417 -1.3690  0.7475
  961MOL0     H29694   1.808   5.406   6.042 -3.5166 -0.0705  1.0240
  961MOL0     H29695   1.618   5.345   5.918  1.6409  1.8982  1.2083
  961MOL0     H29696   1.543   5.152   5.774 -0.2332 -0.9878 -1.6872
  961MOL0     H29697   1.384   4.813   5.606  1.9972  2.6792  1.3896
  961MOL0     H29698   1.370   4.580   5.491 -0.4834  0.0047  4.1919
  961MOL0     H29699   1.681   4.471   5.178 -1.4226  1.7308  0.7911
  961MOL0     H29700   1.710   4.372   5.311  2.6024 -1.0446 -4.1505
  961MOL0     H29701   1.455   4.327   5.143  1.4673  1.4769 -3.0077
  961MOL0     H29702   1.611   4.243   5.114 -0.9636 -1.3216  0.2327
  961MOL0     H29703   1.582   4.135   5.347 -1.9278 -0.1996  1.9868
  961MOL0     H29704   1.436   4.236   5.368 -2.2717 -0.9843 -1.2477
  961MOL0     H29705   1.460   4.013   5.162 -0.5528 -2.1520  0.7359
  961MOL0     H29706   1.313   4.111   5.194 -0.2348  1.4037  0.9923
  961MOL0     H29707   1.346   4.045   5.446  6.5057  5.1210 -1.2832
  961MOL0     H29708   1.455   3.925   5.401 -2.0610 -0.9157  2.1404
  961MOL0     H29709   1.177   3.946   5.337  1.4581  2.4964  3.3589
  961MOL0     H29710   1.283   3.830   5.234  0.4732  1.4984 -0.8038
  961MOL0     H29711   1.205   3.814   5.529 -1.9881 -0.4268  0.7419
  961MOL0     H29712   1.342   3.734   5.449 -0.3849  0.4731  2.8868
  961MOL0     H29713   1.136   3.697   5.269  1.7831 -0.6165  0.4417
  961MOL0     H29714   1.209   3.580   5.379 -0.2046 -0.3032  2.3082
  961MOL0     H29715   1.735   4.659   5.292  1.8955  2.3990  1.7304
  961MOL0     H29716   1.739   4.882   5.386 -0.2690 -0.7824 -1.3287
  961MOL0     H29717   1.822   5.305   5.469  1.5457  1.9453  0.6729
  961MOL0     H29718   1.906   5.458   5.635 -0.0958  0.0024 -1.1650
  961MOL0     H29719   1.453   6.448   5.556 -2.3170  0.3950 -0.9703
  961MOL0     H29720   1.311   6.334   5.422  0.8298  2.4817  0.7617
  961MOL0     H29721   1.337   6.142   5.025  1.2059 -1.6763  0.6686
  961MOL0     H29722   1.254   6.043   4.797  2.6587 -4.4828 -0.3220
  961MOL0     H29723   0.954   5.689   4.835  0.4559 -1.0909  0.5951
  961MOL0     H29724   1.126   5.629   4.800  0.1796  0.1353  0.2826
  961MOL0     H29725   1.053   5.730   4.555 -3.4657 -2.2729 -3.8166
  961MOL0     H29726   0.898   5.702   4.625 -0.8804 -0.3130 -0.2620
  961MOL0     H29727   0.978   5.452   4.668 -1.0475 -0.7673 -1.3182
  961MOL0     H29728   1.116   5.514   4.575 -0.1986  0.2810 -1.0622
  961MOL0     H29729   0.927   5.377   4.450  0.4217 -0.5874  0.5873
  961MOL0     H29730   0.824   5.506   4.501 -0.2938  0.3457 -1.8290
  961MOL0     H29731   1.013   5.676   4.165 -0.0930 -0.1869 -0.5048
  961MOL0     H29732   1.041   5.768   5.026  1.7165 -0.5497  1.7857
  961MOL0     H29733   1.020   5.779   5.246 -2.7143  1.6522  0.8180
  961MOL0     H29734   1.182   5.793   5.325  0.6922  1.7951  1.3365
  961MOL0     H29735   1.051   5.916   5.342 -0.8324 -0.4662 -1.4294
  962MOL0     O29736   3.917  10.539   5.497 -0.7525 -0.6335 -0.3451
  962MOL0     C29737   3.858  10.621   5.574 -1.1561 -0.6591 -0.4772
  962MOL0     O29738   3.929  10.730   5.630 -0.5276 -0.0636  0.4937
  962MOL0     C29739   4.051  10.768   5.580 -0.0838  0.3606  0.1356
  962MOL0     C29740   4.171  10.738   5.651 -0.9229  0.2590  1.1415
  962MOL0     C29741   4.292  10.792   5.607 -0.6419 -0.6007  0.0793
  962MOL0     C29742   4.300  10.881   5.497  0.9750  0.2044  0.0206
  962MOL0     O29743   4.403  10.937   5.429  0.0492 -0.0528 -0.1721
  962MOL0     C29744   4.532  10.904   5.483  0.6773 -0.3204  0.2390
  962MOL0     C29745   4.632  10.979   5.402  0.3934 -0.0488  0.7485
  962MOL0     C29746   4.611  11.134   5.393  0.3187 -0.5301  0.3416
  962MOL0     C29747   4.732  11.204   5.455 -0.7197  0.0445  0.6440
  962MOL0     C29748   4.708  11.361   5.449  0.0116  0.6623  0.0571
  962MOL0     C29749   4.786  11.437   5.562  1.1526  0.0717 -0.2326
  962MOL0     C29750   4.940  11.423   5.551 -1.5830  0.2273 -0.5421
  962MOL0     C29751   4.987  11.509   5.670 -0.3286  0.6487 -0.5805
  962MOL0     N29752   5.135  11.537   5.662 -0.1030  0.2979 -0.5275
  962MOL0     C29753   5.197  11.630   5.574 -0.5198 -0.0253 -0.4732
  962MOL0     C29754   5.329  11.637   5.604 -0.1438  0.2608  0.3300
  962MOL0     C29755   5.427  11.743   5.554 -0.9976  0.6537  0.5202
  962MOL0     C29756   5.536  11.672   5.462 -0.3520  0.1449 -1.0355
  962MOL0     C29757   5.631  11.776   5.403 -0.3018  0.6989  0.5557
  962MOL0     C29758   5.780  11.745   5.382 -0.4620  0.4399  0.0388
  962MOL0     O29759   5.845  11.854   5.318 -0.1993 -0.0411 -0.3410
  962MOL0     C29760   5.965  11.825   5.245 -0.1561  0.4197  0.6856
  962MOL0     C29761   6.027  11.918   5.159 -0.2126 -0.3125  0.0019
  962MOL0     C29762   6.150  11.888   5.108  0.7904 -0.2885  0.2973
  962MOL0     C29763   6.226  11.771   5.143 -0.3643  0.8704  0.1818
  962MOL0     C29764   6.355  11.754   5.087 -0.1785  0.8062 -0.1015
  962MOL0     O29765   6.414  11.631   5.116  0.5548 -0.4700 -0.2889
  962MOL0     C29766   6.532  11.604   5.044  1.1657  0.1450 -0.2859
  962MOL0     C29767   6.640  11.567   5.118  0.8153  0.1879 -0.6793
  962MOL0     C29768   6.762  11.541   5.050  0.4230  0.7371 -1.0235
  962MOL0     C29769   6.767  11.541   4.905  0.0717  0.1949 -0.5512
  962MOL0     O29770   6.880  11.491   4.833  0.1292  0.3585  0.6826
  962MOL0     C29771   7.000  11.489   4.894 -1.7758 -1.4265 -0.7864
  962MOL0     C29772   7.104  11.494   4.775 -0.3397  0.7729  0.6017
  962MOL0     C29773   7.112  11.378   4.684  0.7515  0.1830  0.8593
  962MOL0     C29774   7.248  11.371   4.618  0.2061 -0.8252  0.1254
  962MOL0     C29775   7.261  11.273   4.508  0.3000  0.1922  0.5000
  962MOL0     C29776   7.393  11.285   4.423 -0.2599  0.5619  0.7514
  962MOL0     C29777   7.391  11.390   4.316 -0.2406  1.0433  0.3437
  962MOL0     C29778   7.293  11.363   4.198 -0.2625  1.0902 -0.5259
  962MOL0    Cl29779   7.314  11.494   4.080  0.4336  0.1233 -0.3738
  962MOL0     C29780   6.644  11.564   4.842 -0.0247 -0.1862  0.3937
  962MOL0     C29781   6.529  11.597   4.908  0.5550  0.6848  0.0026
  962MOL0     O29782   6.411  11.849   5.026 -0.3891  0.1605 -0.5903
  962MOL0     C29783   6.177  11.687   5.241  0.1783 -0.5960  0.5602
  962MOL0     C29784   6.048  11.715   5.288  0.1453 -0.7361  0.1204
  962MOL0     N29785   5.341  11.537   5.695  0.1483 -0.3048  0.4661
  962MOL0     N29786   5.238  11.477   5.727  0.3252  0.1982  0.4003
  962MOL0     C29787   4.173  10.911   5.441 -0.9348  0.6038 -0.2524
  962MOL0     C29788   4.050  10.862   5.476 -0.4809  0.1837 -0.6732
  962MOL0     C29789   3.720  10.587   5.614  0.4180 -0.3700 -0.4525
  962MOL0     C29790   3.659  10.665   5.711 -0.1328 -0.1425 -0.0960
  962MOL0     C29791   3.524  10.650   5.752 -1.1280 -0.7170  0.1166
  962MOL0     C29792   3.441  10.562   5.693  0.4202  1.1411 -0.2401
  962MOL0     O29793   3.310  10.565   5.720 -0.8581  1.0584  0.3629
  962MOL0     C29794   3.206  10.496   5.645  0.6792  0.0204 -0.1622
  962MOL0     C29795   3.082  10.467   5.723 -0.2925 -0.2190  0.1354
  962MOL0     C29796   2.973  10.403   5.633 -0.1735  0.1988 -0.6808
  962MOL0     C29797   3.015  10.261   5.585  0.3244 -1.1770 -0.9963
  962MOL0     C29798   2.897  10.185   5.555  0.2293  0.0718 -0.6738
  962MOL0     C29799   2.791  10.128   5.537  0.4541  0.1070 -0.1396
  962MOL0     C29800   3.504  10.475   5.598 -0.2718 -0.3177  0.2661
  962MOL0     C29801   3.639  10.482   5.554 -0.4287 -0.4885 -0.1556
  962MOL0     C29802   3.682  10.390   5.444  0.3575 -0.5965 -0.1213
  962MOL0     H29803   4.167  10.666   5.732 -0.9125 -2.7018 -1.3084
  962MOL0     H29804   4.391  10.782   5.650  0.0020  2.3531 -0.5221
  962MOL0     H29805   4.539  10.933   5.588 -2.5558  0.1023  0.4377
  962MOL0     H29806   4.564  10.801   5.470  2.2964 -0.0866  1.9201
  962MOL0     H29807   4.642  10.930   5.305  1.9013  0.3046  0.7032
  962MOL0     H29808   4.730  10.959   5.446  0.6489  2.0443  1.2898
  962MOL0     H29809   4.526  11.163   5.456  2.0285  3.3086  1.1840
  962MOL0     H29810   4.585  11.166   5.291 -1.2218 -3.5865 -0.3336
  962MOL0     H29811   4.743  11.170   5.558  1.5377 -2.0074 -0.1779
  962MOL0     H29812   4.830  11.186   5.408  0.1127  0.0285  2.3137
  962MOL0     H29813   4.748  11.402   5.356 -0.7483  0.8757 -0.1868
  962MOL0     H29814   4.602  11.388   5.442  0.1040  1.4382  1.3456
  962MOL0     H29815   4.765  11.544   5.551  1.6458  0.1936 -0.0374
  962MOL0     H29816   4.738  11.410   5.657  0.7239  1.8871  0.1083
  962MOL0     H29817   4.968  11.460   5.452 -2.4316  1.1713 -0.4419
  962MOL0     H29818   4.987  11.326   5.573 -3.1265 -0.1805  1.1528
  962MOL0     H29819   4.932  11.602   5.660 -0.4381  0.9158  1.9476
  962MOL0     H29820   4.952  11.469   5.766  0.4394 -0.7123 -0.8439
  962MOL0     H29821   5.140  11.691   5.504  1.3826  2.6453  0.1671
  962MOL0     H29822   5.371  11.821   5.503  0.6008  0.0608 -2.3446
  962MOL0     H29823   5.476  11.785   5.642  0.3864  2.9576 -1.2404
  962MOL0     H29824   5.596  11.607   5.526 -0.4916 -1.1331 -2.1543
  962MOL0     H29825   5.488  11.613   5.384  0.0012  0.3850 -1.4417
  962MOL0     H29826   5.615  11.872   5.453  1.5196  1.1758  0.2919
  962MOL0     H29827   5.593  11.786   5.301  0.3474  1.4303  0.3781
  962MOL0     H29828   5.774  11.647   5.332 -1.6949 -0.8363  2.4993
  962MOL0     H29829   5.832  11.712   5.472  3.7069 -1.0439 -2.6137
  962MOL0     H29830   5.976  12.013   5.147  3.1521  1.7708  0.8841
  962MOL0     H29831   6.173  11.968   5.039  0.5703 -0.0872  0.4568
  962MOL0     H29832   6.639  11.560   5.226 -0.3838  1.5174 -0.5846
  962MOL0     H29833   6.850  11.509   5.104 -1.0964 -1.1468  0.4720
  962MOL0     H29834   7.019  11.579   4.951 -0.7842 -1.0922 -1.6216
  962MOL0     H29835   7.020  11.399   4.953 -1.7623 -1.7349 -1.2488
  962MOL0     H29836   7.082  11.584   4.718  0.7339  0.7721  0.1691
  962MOL0     H29837   7.201  11.512   4.822  0.0717 -0.2987  0.1888
  962MOL0     H29838   7.081  11.287   4.736  1.7262 -1.6633 -1.5827
  962MOL0     H29839   7.041  11.379   4.601 -1.3255  0.7301  2.5399
  962MOL0     H29840   7.330  11.372   4.691  1.6108 -0.3377 -1.4048
  962MOL0     H29841   7.264  11.471   4.577 -2.0635 -1.8167 -3.6388
  962MOL0     H29842   7.177  11.281   4.439  0.0597 -2.5978  0.3611
  962MOL0     H29843   7.259  11.167   4.536  1.9543  0.2917  1.1535
  962MOL0     H29844   7.485  11.301   4.480  1.6136 -2.3108 -1.1869
  962MOL0     H29845   7.402  11.183   4.384 -1.5032 -0.1214  2.1663
  962MOL0     H29846   7.493  11.386   4.277  0.4238  0.0289  2.0622
  962MOL0     H29847   7.369  11.489   4.355 -4.0395  0.0363  1.1902
  962MOL0     H29848   7.325  11.269   4.152  1.8239 -1.0671  4.6163
  962MOL0     H29849   7.187  11.363   4.225 -0.1343 -0.6773  0.1171
  962MOL0     H29850   6.644  11.569   4.733  1.8317  0.7681  0.3956
  962MOL0     H29851   6.447  11.620   4.841  0.3378 -0.6850 -0.2301
  962MOL0     H29852   6.226  11.599   5.282 -1.4268 -2.0964 -0.6004
  962MOL0     H29853   6.013  11.650   5.368  0.6727  0.4225  1.3461
  962MOL0     H29854   4.178  10.976   5.354 -0.1051  0.9713  0.0592
  962MOL0     H29855   3.961  10.903   5.429 -2.5517 -2.1881  0.9253
  962MOL0     H29856   3.717  10.742   5.762  1.6454 -2.4457  1.5911
  962MOL0     H29857   3.473  10.720   5.818 -1.4690  2.2952 -3.0626
  962MOL0     H29858   3.240  10.393   5.627 -1.1776 -0.9361  1.3429
  962MOL0     H29859   3.175  10.549   5.555  1.4078 -0.7767 -0.9038
  962MOL0     H29860   3.043  10.562   5.761  0.1373  0.1803 -0.4039
  962MOL0     H29861   3.115  10.414   5.813  1.2115 -1.8474 -1.3045
  962MOL0     H29862   2.955  10.475   5.552  0.9431  0.5101 -0.6763
  962MOL0     H29863   2.880  10.389   5.688 -0.3564 -0.7537 -1.2202
  962MOL0     H29864   3.062  10.271   5.487 -0.6942 -0.8571 -1.4653
  962MOL0     H29865   3.072  10.202   5.657 -1.8068  2.0282  3.8878
  962MOL0     H29866   2.706  10.069   5.510  0.5475  0.5135 -1.4106
  962MOL0     H29867   3.453  10.397   5.544  1.9502 -1.0715 -0.8687
  962MOL0     H29868   3.743  10.447   5.374  2.6121 -1.4459  1.0373
  962MOL0     H29869   3.765  10.324   5.473  3.8264  2.8432 -1.2406
  962MOL0     H29870   3.595  10.346   5.396 -1.9127  2.5298  0.8267
  963MOL0     O29871   3.181   1.418  11.400  0.1064  0.0784 -0.5424
  963MOL0     C29872   3.215   1.359  11.501  0.4619  0.5447 -0.9917
  963MOL0     O29873   3.171   1.383  11.626  0.6239 -0.7375  0.2642
  963MOL0     C29874   3.071   1.473  11.658 -0.3834  0.1549  0.2662
  963MOL0     C29875   3.064   1.602  11.602  0.2064 -0.2740  0.6795
  963MOL0     C29876   2.978   1.709  11.649 -0.3166  1.1477  0.9037
  963MOL0     C29877   2.879   1.675  11.746  0.2192  0.0057  0.0612
  963MOL0     O29878   2.789   1.772  11.789 -0.5767 -0.5602 -0.3785
  963MOL0     C29879   2.847   1.868  11.881 -0.0074 -1.1507  0.0705
  963MOL0     C29880   2.735   1.966  11.920 -0.9268  0.1087  0.4143
  963MOL0     C29881   2.677   2.041  11.806 -0.2468  0.2466  0.1670
  963MOL0     C29882   2.574   2.138  11.845  1.3897  0.3779 -0.4327
  963MOL0     C29883   2.618   2.265  11.924 -0.7342  0.7700  0.0182
  963MOL0     C29884   2.756   2.327  11.900  0.0584 -0.4543  0.3887
  963MOL0     C29885   2.792   2.440  11.997  0.7545  0.7008  0.1037
  963MOL0     C29886   2.926   2.503  11.980  0.2184  0.8126 -0.1199
  963MOL0     N29887   2.955   2.614  12.073  0.1093 -0.5704 -0.4650
  963MOL0     C29888   2.948   2.605  12.209 -0.2576  0.1620 -0.3141
  963MOL0     C29889   3.017   2.708  12.252  0.9975 -0.2075 -0.7446
  963MOL0     C29890   3.036   2.752  12.398  0.4426 -0.0428  0.5237
  963MOL0     C29891   2.888   2.745  12.460 -0.7956 -0.2528  0.3528
  963MOL0     C29892   2.883   2.757  12.614 -0.1331  0.0481  0.3757
  963MOL0     C29893   2.983   2.868  12.658 -0.7141 -0.7450 -0.0407
  963MOL0     O29894   2.946   2.988  12.596 -0.1501  0.5464  0.3094
  963MOL0     C29895   3.030   3.093  12.622  0.1109 -0.0474 -0.6361
  963MOL0     C29896   2.978   3.218  12.580 -0.6726  0.8614  0.3689
  963MOL0     C29897   3.034   3.339  12.610 -0.0085  0.1407  0.8583
  963MOL0     C29898   3.159   3.340  12.694  0.1213  0.0217 -0.4152
  963MOL0     C29899   3.219   3.468  12.734 -0.0698  0.2644 -0.3206
  963MOL0     O29900   3.353   3.471  12.779  0.6805 -0.0749  0.3456
  963MOL0     C29901   3.427   3.583  12.789 -0.2713 -0.0299  0.2764
  963MOL0     C29902   3.448   3.675  12.688 -0.0037 -0.7772  0.0751
  963MOL0     C29903   3.545   3.782  12.711 -0.6543  0.7057 -0.2298
  963MOL0     C29904   3.621   3.775  12.832  0.4064  0.3109 -0.3360
  963MOL0     O29905   3.725   3.866  12.826  0.1055  0.0954 -0.4943
  963MOL0     C29906   3.821   3.883  12.939  0.2474 -0.0450  0.0431
  963MOL0     C29907   3.915   4.006  12.939  0.1952  0.9182  0.4040
  963MOL0     C29908   3.988   4.039  12.801 -0.3121  0.2857 -0.6800
  963MOL0     C29909   4.104   4.145  12.812  0.4718  0.0837  0.2181
  963MOL0     C29910   4.194   4.168  12.699  0.2274  0.6998 -0.2344
  963MOL0     C29911   4.284   4.281  12.717 -0.2442 -0.4397  0.4771
  963MOL0     C29912   4.368   4.319  12.597 -1.3502  0.1043 -0.3696
  963MOL0     C29913   4.307   4.322  12.460  0.5456  0.9750  0.6962
  963MOL0    Cl29914   4.198   4.461  12.442 -0.3369  0.3388  0.3644
  963MOL0     C29915   3.579   3.683  12.932  0.0051  0.4846  0.5375
  963MOL0     C29916   3.481   3.594  12.914  0.3096  0.0773  0.2586
  963MOL0     O29917   3.143   3.558  12.735 -0.4232  0.1501 -0.3801
  963MOL0     C29918   3.213   3.218  12.726  0.0653 -0.0286 -0.6909
  963MOL0     C29919   3.148   3.096  12.690 -0.8215  0.2698 -0.3446
  963MOL0     N29920   3.074   2.773  12.149  0.1941  0.3067  0.1717
  963MOL0     N29921   3.035   2.720  12.035 -0.1190  0.1142  0.2200
  963MOL0     C29922   2.882   1.543  11.809  0.4567 -0.5491  0.4286
  963MOL0     C29923   2.987   1.456  11.766 -0.5577 -0.1930 -0.8766
  963MOL0     C29924   3.337   1.268  11.493  0.2810  0.0606  0.4767
  963MOL0     C29925   3.445   1.311  11.398 -0.0864  0.4855 -0.0492
  963MOL0     C29926   3.571   1.242  11.387 -0.3615 -0.3355 -0.0332
  963MOL0     C29927   3.582   1.127  11.465 -0.3453  0.6481  0.9460
  963MOL0     O29928   3.705   1.062  11.439 -0.0088 -0.1343  0.8806
  963MOL0     C29929   3.737   0.941  11.504  0.1174  1.0894 -0.6654
  963MOL0     C29930   3.688   0.819  11.423 -0.0301  0.2518  0.2530
  963MOL0     C29931   3.746   0.786  11.286 -0.2121 -0.1691 -0.0166
  963MOL0     C29932   3.892   0.747  11.285 -0.7369  0.5938  1.0977
  963MOL0     C29933   3.909   0.618  11.362  0.3235  0.1414  0.4828
  963MOL0     C29934   3.905   0.518  11.433  0.3843 -0.0536  0.6626
  963MOL0     C29935   3.479   1.080  11.552 -0.8398 -0.1747 -0.5951
  963MOL0     C29936   3.353   1.155  11.569  0.1119 -0.1734  0.5614
  963MOL0     C29937   3.241   1.095  11.641 -0.4383  0.2212 -0.1577
  963MOL0     H29938   3.125   1.631  11.517 -1.2601  0.1923 -0.2485
  963MOL0     H29939   2.979   1.803  11.596  2.2700  1.4433  1.3706
  963MOL0     H29940   2.894   1.831  11.973  1.1489  1.3643  0.5695
  963MOL0     H29941   2.941   1.905  11.838  0.7995 -1.7451  1.2549
  963MOL0     H29942   2.766   2.033  12.001 -1.2730  1.2423 -0.3588
  963MOL0     H29943   2.653   1.907  11.963 -4.4691  1.7231 -3.4551
  963MOL0     H29944   2.634   1.964  11.741 -0.0407  0.8815 -0.7330
  963MOL0     H29945   2.751   2.090  11.743 -0.4529  1.2786  0.7207
  963MOL0     H29946   2.516   2.172  11.758  1.4335 -2.6559 -1.7897
  963MOL0     H29947   2.497   2.083  11.900  2.6185 -2.4918 -1.4042
  963MOL0     H29948   2.534   2.334  11.917 -0.6385  0.8070 -1.0443
  963MOL0     H29949   2.630   2.244  12.030 -2.6919  1.6056  0.4450
  963MOL0     H29950   2.832   2.251  11.919 -1.6073 -1.8271  1.9383
  963MOL0     H29951   2.758   2.356  11.795 -0.1858 -0.8034  0.2876
  963MOL0     H29952   2.784   2.402  12.099  0.0081 -0.5376 -0.3986
  963MOL0     H29953   2.719   2.521  11.987  1.1404  0.9272 -1.0148
  963MOL0     H29954   2.998   2.422  11.991 -0.1825  0.1411 -2.0062
  963MOL0     H29955   2.931   2.546  11.879 -0.9143 -0.9447 -0.9853
  963MOL0     H29956   2.882   2.538  12.262  1.2151  0.1606  1.6211
  963MOL0     H29957   3.096   2.674  12.447  1.6712  0.4604 -0.1264
  963MOL0     H29958   3.080   2.852  12.407 -1.3153  1.3011 -3.5208
  963MOL0     H29959   2.827   2.818  12.406 -1.6353 -1.8413 -0.9318
  963MOL0     H29960   2.838   2.652  12.434 -0.6268  0.2156 -1.8443
  963MOL0     H29961   2.914   2.662  12.659  0.8775 -1.6496 -3.4927
  963MOL0     H29962   2.779   2.778  12.642 -0.6355 -0.8973 -0.6752
  963MOL0     H29963   3.084   2.834  12.633 -1.1963 -0.0184 -3.5080
  963MOL0     H29964   2.973   2.879  12.766  3.0221  0.1594  0.3543
  963MOL0     H29965   2.886   3.201  12.525  0.6703  0.3245 -1.8452
  963MOL0     H29966   3.003   3.429  12.559 -3.3230 -1.5711 -0.4740
  963MOL0     H29967   3.392   3.665  12.596  1.5259 -2.4436 -0.7341
  963MOL0     H29968   3.571   3.842  12.624  0.0912  1.8703  0.7531
  963MOL0     H29969   3.770   3.889  13.035 -0.7528 -2.3868 -0.2816
  963MOL0     H29970   3.892   3.800  12.927 -0.3489 -0.2873 -2.2923
  963MOL0     H29971   3.855   4.095  12.962 -0.4896  1.3670 -2.7018
  963MOL0     H29972   3.983   3.992  13.023  0.6680 -2.0372 -0.3748
  963MOL0     H29973   4.025   3.939  12.777  0.9037 -0.2290  2.7852
  963MOL0     H29974   3.915   4.084  12.733  0.4700  1.6042 -0.6741
  963MOL0     H29975   4.166   4.116  12.898 -3.3612 -1.8391  2.5734
  963MOL0     H29976   4.066   4.246  12.830 -0.7311 -0.0063 -1.6115
  963MOL0     H29977   4.139   4.183  12.605  1.9794  5.1321 -0.7812
  963MOL0     H29978   4.263   4.083  12.690  3.2359  3.0123 -0.5478
  963MOL0     H29979   4.232   4.375  12.740 -0.0694  0.6083 -2.8033
  963MOL0     H29980   4.356   4.260  12.796 -1.4922 -2.3926  1.1589
  963MOL0     H29981   4.437   4.233  12.593 -0.6290  0.5907  0.8643
  963MOL0     H29982   4.419   4.415  12.605 -2.0544  0.5683 -1.2738
  963MOL0     H29983   4.382   4.327  12.381 -0.8610  0.7211 -0.6929
  963MOL0     H29984   4.240   4.239  12.439 -1.2574  2.4280  0.4482
  963MOL0     H29985   3.642   3.668  13.020 -2.6945  0.5508  2.6253
  963MOL0     H29986   3.473   3.519  12.991  1.9160 -3.8959 -3.0585
  963MOL0     H29987   3.301   3.204  12.788  0.4836 -1.2424 -1.5232
  963MOL0     H29988   3.193   3.007  12.735  0.4435  1.1787  0.2502
  963MOL0     H29989   2.816   1.522  11.892  0.0966 -1.4218 -0.0612
  963MOL0     H29990   3.010   1.370  11.828  0.0606  1.2031  0.9322
  963MOL0     H29991   3.438   1.381  11.316  1.4948 -2.2371 -2.7463
  963MOL0     H29992   3.653   1.262  11.319 -0.2578 -3.4387 -0.9754
  963MOL0     H29993   3.677   0.926  11.594  1.8931 -0.4700  0.3234
  963MOL0     H29994   3.842   0.938  11.533 -0.4951  0.1312  1.7218
  963MOL0     H29995   3.582   0.834  11.401 -0.5443 -1.0432  1.6393
  963MOL0     H29996   3.692   0.731  11.489 -3.2905 -1.8379 -2.0077
  963MOL0     H29997   3.736   0.878  11.228  1.3105 -0.1461 -0.3040
  963MOL0     H29998   3.690   0.706  11.238  1.0967 -0.4474 -1.1608
  963MOL0     H29999   3.929   0.751  11.182  1.2174 -0.1062  1.7334
  963MOL0     H30000   3.953   0.822  11.336  1.1733 -0.3432  0.2440
  963MOL0     H30001   3.899   0.426  11.488 -1.4058  0.8846  2.1755
  963MOL0     H30002   3.494   0.990  11.611 -1.8269 -0.0405 -0.1052
  963MOL0     H30003   3.246   1.126  11.746 -1.6917  0.9137 -0.2964
  963MOL0     H30004   3.145   1.105  11.590 -0.3931  1.8982  0.0329
  963MOL0     H30005   3.266   0.988  11.638  0.2548  0.3321  0.9446
  964MOL0     O30006   4.683   7.279   9.854  0.0687 -0.1706  0.3881
  964MOL0     C30007   4.610   7.316   9.942 -0.5342 -0.8162 -0.4946
  964MOL0     O30008   4.658   7.398  10.052  1.0878  0.0597 -0.3333
  964MOL0     C30009   4.779   7.456  10.055 -0.6915 -0.7177 -0.5253
  964MOL0     C30010   4.869   7.437  10.168 -0.3582  0.0271 -0.5878
  964MOL0     C30011   4.997   7.500  10.177 -0.3237  0.1410  0.4665
  964MOL0     C30012   5.041   7.584  10.083  0.7108 -0.6128  0.8142
  964MOL0     O30013   5.163   7.638  10.099 -0.6478  0.5866  0.0760
  964MOL0     C30014   5.187   7.778  10.051 -0.3283 -0.1546  0.0199
  964MOL0     C30015   5.281   7.788   9.931  0.4111  0.5300 -0.3182
  964MOL0     C30016   5.427   7.758   9.967 -0.7453  0.4497 -0.7389
  964MOL0     C30017   5.531   7.802   9.862  0.5367 -0.0489 -0.5418
  964MOL0     C30018   5.675   7.795   9.915  0.4278 -0.6389 -0.2156
  964MOL0     C30019   5.770   7.729   9.810 -0.8723 -0.0121 -0.7081
  964MOL0     C30020   5.914   7.738   9.866 -0.3037 -1.1333 -0.4471
  964MOL0     C30021   5.939   7.657  10.001 -0.0967  0.1762  0.6940
  964MOL0     N30022   5.948   7.742  10.120 -0.8389  0.5627  0.2171
  964MOL0     C30023   6.054   7.833  10.133 -0.2252 -0.1191  0.8615
  964MOL0     C30024   6.025   7.911  10.237  0.2918  0.6447 -0.3316
  964MOL0     C30025   6.104   8.022  10.301  0.1449 -0.7579  0.6562
  964MOL0     C30026   6.087   8.147  10.215  0.2498 -0.4746  0.1137
  964MOL0     C30027   6.171   8.257  10.270  0.1853  0.0371 -0.2056
  964MOL0     C30028   6.174   8.377  10.170  0.4089  0.3164 -0.9193
  964MOL0     O30029   6.191   8.345  10.036 -0.2074 -0.5795  0.1654
  964MOL0     C30030   6.202   8.444   9.936  0.5261  0.2812  0.0403
  964MOL0     C30031   6.237   8.404   9.806  0.6774 -0.2425 -0.3316
  964MOL0     C30032   6.261   8.495   9.706 -0.0621 -0.3393 -0.3801
  964MOL0     C30033   6.243   8.638   9.730  0.1247  0.6063 -0.4414
  964MOL0     C30034   6.270   8.726   9.622  0.0986  0.0087 -0.8761
  964MOL0     O30035   6.225   8.853   9.643 -0.7154  0.2185  0.1178
  964MOL0     C30036   6.237   8.944   9.535 -0.2805 -0.0759 -0.5187
  964MOL0     C30037   6.127   8.995   9.479  0.0922 -0.0246  0.2571
  964MOL0     C30038   6.121   9.072   9.367  0.1478 -0.1542  0.2729
  964MOL0     C30039   6.245   9.096   9.308  0.1572  0.7358  0.2634
  964MOL0     O30040   6.259   9.190   9.208  0.3397  0.7170 -0.4823
  964MOL0     C30041   6.193   9.150   9.092 -0.3719  0.1769 -0.3613
  964MOL0     C30042   6.276   9.193   8.971  0.9329  0.1079  0.3042
  964MOL0     C30043   6.409   9.110   8.963  0.3894 -0.0199  0.4962
  964MOL0     C30044   6.495   9.184   8.858 -0.1487  0.2223  0.4021
  964MOL0     C30045   6.616   9.102   8.807 -0.3537  0.3934  0.0883
  964MOL0     C30046   6.725   9.168   8.724 -0.4250 -0.3315 -0.4292
  964MOL0     C30047   6.674   9.267   8.622 -0.7292  0.0539  0.5113
  964MOL0     C30048   6.745   9.307   8.498  0.0167  0.9929  0.6584
  964MOL0    Cl30049   6.901   9.382   8.512  0.1579 -0.1065 -0.2813
  964MOL0     C30050   6.363   9.045   9.362  0.7869  0.4863 -0.8994
  964MOL0     C30051   6.352   8.955   9.470  0.3772 -0.5133  0.7107
  964MOL0     O30052   6.330   8.684   9.518  0.2286  0.3944 -0.8518
  964MOL0     C30053   6.189   8.675   9.848  0.6281 -1.1494  0.6572
  964MOL0     C30054   6.168   8.582   9.951 -0.0112 -0.1352 -0.5548
  964MOL0     N30055   5.902   7.875  10.279 -0.1248  0.4048 -0.3194
  964MOL0     N30056   5.853   7.773  10.207 -1.1695 -0.1867  0.7149
  964MOL0     C30057   4.961   7.607   9.977  0.1000  0.5525 -0.6932
  964MOL0     C30058   4.826   7.549   9.957  0.9178  0.1286  0.4539
  964MOL0     C30059   4.466   7.292   9.955 -0.6471  1.0257  0.2114
  964MOL0     C30060   4.381   7.355  10.055 -0.9862 -0.8601  0.1455
  964MOL0     C30061   4.247   7.336  10.070  0.8160 -0.2681  0.9444
  964MOL0     C30062   4.181   7.268   9.965  0.2283  0.0243 -1.3928
  964MOL0     O30063   4.047   7.275   9.954  0.3208 -0.0930  0.0620
  964MOL0     C30064   3.976   7.394   9.986 -0.0258  0.4738  0.0712
  964MOL0     C30065   3.846   7.406   9.911 -0.7482 -0.5371 -0.5444
  964MOL0     C30066   3.733   7.495   9.964 -0.2541  1.4778  0.1341
  964MOL0     C30067   3.637   7.421  10.057  0.1248 -0.2227 -0.7133
  964MOL0     C30068   3.701   7.304  10.137  0.5148  0.2928  0.4755
  964MOL0     C30069   3.757   7.213  10.192  1.0213 -0.4191  0.7142
  964MOL0     C30070   4.257   7.189   9.873 -0.3627  0.2497 -0.3114
  964MOL0     C30071   4.398   7.208   9.858  0.3809 -0.3699 -0.6290
  964MOL0     C30072   4.464   7.136   9.748  0.1348  0.1086  0.6177
  964MOL0     H30073   4.837   7.362  10.240  1.3474  1.0405  1.3301
  964MOL0     H30074   5.063   7.471  10.258 -0.9860  0.6393  1.1948
  964MOL0     H30075   5.093   7.819  10.013 -0.0356  1.9647  1.4217
  964MOL0     H30076   5.220   7.842  10.133  1.6999 -0.0271 -0.8400
  964MOL0     H30077   5.280   7.885   9.882 -2.4127  0.3649 -0.7484
  964MOL0     H30078   5.247   7.712   9.860 -1.6366  1.5025 -0.4464
  964MOL0     H30079   5.424   7.649   9.974 -2.3639  0.5508  1.4178
  964MOL0     H30080   5.453   7.791  10.069 -1.7272  0.9721 -0.6441
  964MOL0     H30081   5.512   7.736   9.776 -3.9973 -3.4630  2.5863
  964MOL0     H30082   5.521   7.904   9.825 -0.3463 -1.4431 -4.7063
  964MOL0     H30083   5.699   7.898   9.943  0.0400 -0.0490 -1.9304
  964MOL0     H30084   5.688   7.733  10.004  0.3636 -0.6335 -0.2016
  964MOL0     H30085   5.751   7.621   9.809 -3.8373  0.3592  1.6742
  964MOL0     H30086   5.762   7.776   9.711 -1.8399 -0.3382 -0.7972
  964MOL0     H30087   5.937   7.843   9.886  0.0150 -1.0355 -1.2654
  964MOL0     H30088   5.982   7.684   9.799  1.7091 -1.9878  2.1276
  964MOL0     H30089   5.864   7.580  10.020 -1.2221  0.9798 -0.3390
  964MOL0     H30090   6.031   7.598  10.001 -0.7797 -0.9424 -0.6090
  964MOL0     H30091   6.146   7.842  10.075 -1.4699 -0.7167 -1.3098
  964MOL0     H30092   6.074   8.060  10.399  0.4560 -1.3271  0.9779
  964MOL0     H30093   6.210   7.994  10.291 -0.2087 -1.5724 -1.4053
  964MOL0     H30094   6.114   8.120  10.112  2.2120  1.0344  0.1585
  964MOL0     H30095   5.983   8.181  10.207 -0.3561 -2.4081 -0.7436
  964MOL0     H30096   6.275   8.225  10.274  0.4217  0.7467 -0.4745
  964MOL0     H30097   6.139   8.295  10.367  1.2274  0.1915  0.0863
  964MOL0     H30098   6.245   8.448  10.213  0.2171  0.5924 -1.0510
  964MOL0     H30099   6.076   8.425  10.183  0.6768  1.0165 -1.4341
  964MOL0     H30100   6.256   8.304   9.769  2.2093  1.2396 -4.1617
  964MOL0     H30101   6.283   8.453   9.609 -1.7342 -2.0519 -0.0646
  964MOL0     H30102   6.034   8.979   9.532  0.5522 -2.5883  0.4371
  964MOL0     H30103   6.037   9.129   9.328  1.3078  1.5475  0.1662
  964MOL0     H30104   6.172   9.042   9.084  2.0414 -0.2278 -2.3201
  964MOL0     H30105   6.096   9.201   9.088 -0.9578 -0.7691  0.9742
  964MOL0     H30106   6.225   9.180   8.875  2.5454 -4.9416 -0.1664
  964MOL0     H30107   6.307   9.297   8.976 -0.3106  0.4540  3.0198
  964MOL0     H30108   6.452   9.106   9.064 -0.2546  5.4987  1.3318
  964MOL0     H30109   6.385   9.007   8.934  1.2232 -0.1033  0.0740
  964MOL0     H30110   6.545   9.269   8.904 -1.6392  1.8729 -0.9012
  964MOL0     H30111   6.431   9.215   8.775  0.2996 -1.3105 -0.5650
  964MOL0     H30112   6.589   9.006   8.761  4.6636 -0.6383 -1.4191
  964MOL0     H30113   6.675   9.073   8.895  0.3184  1.8263  0.1476
  964MOL0     H30114   6.803   9.202   8.793 -1.6274 -0.7353  1.1960
  964MOL0     H30115   6.777   9.079   8.685  0.0736 -0.5917  0.7885
  964MOL0     H30116   6.674   9.363   8.674  3.2499 -0.0994  1.1225
  964MOL0     H30117   6.576   9.231   8.591  0.0031 -1.0129 -0.6569
  964MOL0     H30118   6.745   9.222   8.429 -0.4703  0.5778  1.1591
  964MOL0     H30119   6.687   9.383   8.444 -0.6471  0.3067  0.3836
  964MOL0     H30120   6.443   9.071   9.293 -1.1960  4.0002 -2.1523
  964MOL0     H30121   6.446   8.909   9.497  1.6282  1.0712 -0.6677
  964MOL0     H30122   6.167   8.780   9.862  2.1412 -0.6625 -0.3934
  964MOL0     H30123   6.129   8.623  10.043  1.1600  1.2997 -0.6667
  964MOL0     H30124   4.996   7.657   9.888 -2.7024  0.0923 -2.1546
  964MOL0     H30125   4.768   7.584   9.872  3.0021  5.7177  0.9509
  964MOL0     H30126   4.426   7.431  10.119  1.2130 -0.9789 -1.1330
  964MOL0     H30127   4.192   7.404  10.134 -0.6679  1.5076 -2.0184
  964MOL0     H30128   4.039   7.482   9.970  0.3904  1.0843  4.0941
  964MOL0     H30129   3.959   7.403  10.094  3.3552 -2.1395  0.9929
  964MOL0     H30130   3.801   7.309   9.892 -1.2889 -0.2260 -0.8837
  964MOL0     H30131   3.877   7.456   9.818  3.4485  2.6287  2.1515
  964MOL0     H30132   3.679   7.515   9.871  1.6560 -1.0346 -1.6516
  964MOL0     H30133   3.779   7.579  10.016 -1.2678  1.4629  1.0872
  964MOL0     H30134   3.595   7.497  10.124 -3.7728 -1.9497 -0.8931
  964MOL0     H30135   3.546   7.382  10.010 -0.4319  0.0667  0.0926
  964MOL0     H30136   3.808   7.134  10.243  0.3880 -1.5766 -0.4199
  964MOL0     H30137   4.203   7.131   9.798  1.3075 -1.1383 -0.4991
  964MOL0     H30138   4.543   7.076   9.795  1.2885  1.8729  1.0282
  964MOL0     H30139   4.391   7.074   9.696  0.6555 -1.0675  1.2420
  964MOL0     H30140   4.506   7.208   9.678  2.7138 -2.2392 -0.4576
  965MOL0     O30141   7.120   5.741   3.528  0.0756  0.1585  0.0266
  965MOL0     C30142   7.101   5.615   3.529 -0.7707 -0.0510 -0.5880
  965MOL0     O30143   7.197   5.523   3.489  0.0106 -0.5093 -0.6837
  965MOL0     C30144   7.282   5.558   3.392 -0.1160 -0.4896 -0.1379
  965MOL0     C30145   7.310   5.679   3.323  0.6631  0.0561 -0.5158
  965MOL0     C30146   7.426   5.699   3.246  0.2804  0.1542 -1.1483
  965MOL0     C30147   7.508   5.599   3.217 -0.1519 -0.8545 -0.1668
  965MOL0     O30148   7.624   5.647   3.165 -0.0707 -0.3228 -0.1962
  965MOL0     C30149   7.685   5.579   3.056  0.2150  0.1215 -0.1134
  965MOL0     C30150   7.841   5.561   3.073 -0.2770 -0.0504 -0.0988
  965MOL0     C30151   7.896   5.432   3.008  0.7462  0.7112 -0.3761
  965MOL0     C30152   8.045   5.416   3.032  0.3492 -0.0405 -0.3993
  965MOL0     C30153   8.105   5.305   2.959 -0.0271 -0.3668 -0.5534
  965MOL0     C30154   8.042   5.173   2.994  0.0798 -0.1407  0.0051
  965MOL0     C30155   8.139   5.057   2.965  0.8930  0.0327  0.2005
  965MOL0     C30156   8.139   5.007   2.818 -0.4307 -0.2636  0.1904
  965MOL0     N30157   8.195   4.874   2.806 -0.4142 -0.3915  0.3223
  965MOL0     C30158   8.138   4.755   2.842 -0.0499  0.7072 -0.2257
  965MOL0     C30159   8.217   4.655   2.815  0.0453 -0.3005  0.2650
  965MOL0     C30160   8.189   4.510   2.839 -0.2255 -0.5641 -0.0898
  965MOL0     C30161   8.162   4.479   2.983 -0.2605  0.1558 -0.6112
  965MOL0     C30162   8.275   4.408   3.059  0.3412  1.2131 -1.1715
  965MOL0     C30163   8.220   4.376   3.204  0.1904 -0.0050  0.0663
  965MOL0     O30164   8.322   4.332   3.292 -0.5569  0.1461 -0.1091
  965MOL0     C30165   8.289   4.290   3.414  0.7449 -0.8643 -0.1523
  965MOL0     C30166   8.161   4.238   3.450  0.4676  0.3937  0.1914
  965MOL0     C30167   8.146   4.192   3.587  0.3212  0.4695  0.6794
  965MOL0     C30168   8.251   4.196   3.678  0.1643  0.1872  0.6505
  965MOL0     C30169   8.239   4.144   3.808 -0.4181  0.1383 -1.0627
  965MOL0     O30170   8.328   4.184   3.903 -0.1872 -0.2602 -0.3652
  965MOL0     C30171   8.310   4.123   4.024 -0.2109 -0.4746 -1.0837
  965MOL0     C30172   8.368   4.003   4.062 -0.7320 -0.9053  0.0327
  965MOL0     C30173   8.350   3.945   4.190  0.2270  0.1286 -0.0740
  965MOL0     C30174   8.257   3.990   4.277 -0.2046  0.2607  0.2368
  965MOL0     O30175   8.263   3.944   4.410  0.0267  0.2440 -0.7398
  965MOL0     C30176   8.148   3.947   4.498 -1.1160  0.3292  0.6190
  965MOL0     C30177   8.210   3.895   4.636 -0.5074  0.1197 -0.2016
  965MOL0     C30178   8.095   3.815   4.716 -0.5383 -0.0015 -0.0592
  965MOL0     C30179   8.141   3.750   4.841 -0.6262 -0.1192  0.3474
  965MOL0     C30180   8.036   3.681   4.921 -0.5990 -0.7165 -0.2254
  965MOL0     C30181   8.094   3.659   5.065  0.5210  0.8939 -0.1891
  965MOL0     C30182   7.981   3.609   5.149  0.2954  0.3667  0.4133
  965MOL0     C30183   7.884   3.718   5.193  0.4448 -0.2323 -0.5135
  965MOL0    Cl30184   7.768   3.645   5.299  0.3728 -0.2473  0.1791
  965MOL0     C30185   8.195   4.109   4.243 -0.3861  1.1468 -0.5656
  965MOL0     C30186   8.220   4.172   4.123 -0.8615  0.0269 -0.4065
  965MOL0     O30187   8.152   4.053   3.817 -0.1476 -0.0176 -0.3424
  965MOL0     C30188   8.369   4.246   3.640  0.5338 -1.0440  1.0441
  965MOL0     C30189   8.391   4.284   3.509 -0.1365 -1.1443  1.3338
  965MOL0     N30190   8.328   4.714   2.749  0.0700  0.1393  0.4571
  965MOL0     N30191   8.313   4.844   2.747  0.5886 -1.0345 -0.2316
  965MOL0     C30192   7.485   5.481   3.275  1.2955 -0.4661  0.3397
  965MOL0     C30193   7.372   5.463   3.364 -0.0052  0.0380  1.0925
  965MOL0     C30194   6.977   5.565   3.590 -0.1662  0.3180 -1.0694
  965MOL0     C30195   6.859   5.645   3.575  0.3213 -0.4379 -0.8492
  965MOL0     C30196   6.731   5.606   3.616  0.3152  0.5101  1.8001
  965MOL0     C30197   6.703   5.479   3.662  0.3963  0.1125 -0.1813
  965MOL0     O30198   6.578   5.458   3.719  0.0697 -0.2667  0.7227
  965MOL0     C30199   6.518   5.326   3.718  0.5504 -0.7125 -1.2946
  965MOL0     C30200   6.380   5.338   3.774  0.3783 -0.2557  0.1130
  965MOL0     C30201   6.279   5.357   3.655  0.7150  0.2407  1.1285
  965MOL0     C30202   6.140   5.415   3.698 -0.2297 -1.0111 -0.1599
  965MOL0     C30203   6.059   5.458   3.586  0.2789 -0.7318  1.2297
  965MOL0     C30204   5.986   5.482   3.492  0.9224 -0.2299 -0.1326
  965MOL0     C30205   6.819   5.402   3.688 -0.0769 -0.0009 -0.2018
  965MOL0     C30206   6.955   5.436   3.649  0.1295 -0.0868 -0.4091
  965MOL0     C30207   7.059   5.332   3.684  0.3685 -0.4705 -0.3247
  965MOL0     H30208   7.234   5.756   3.340 -0.4788 -1.3617  1.1442
  965MOL0     H30209   7.446   5.801   3.212 -0.4317  0.0335 -1.9633
  965MOL0     H30210   7.636   5.481   3.050 -1.7956  0.9392  1.7361
  965MOL0     H30211   7.662   5.643   2.970 -0.8979 -0.3966 -0.2139
  965MOL0     H30212   7.866   5.561   3.179  0.1656 -0.4460 -0.1986
  965MOL0     H30213   7.900   5.646   3.037  3.7754 -2.4417  0.2073
  965MOL0     H30214   7.880   5.421   2.900  0.1534  0.2056 -0.2461
  965MOL0     H30215   7.833   5.350   3.044 -0.6272  0.6746 -2.6490
  965MOL0     H30216   8.091   5.507   2.992 -0.8604  0.6891 -0.1895
  965MOL0     H30217   8.063   5.426   3.139  2.0412 -1.5085 -0.5001
  965MOL0     H30218   8.097   5.316   2.851  2.6779 -0.9120 -0.8931
  965MOL0     H30219   8.211   5.294   2.987  0.2280  2.7932  0.1064
  965MOL0     H30220   8.021   5.174   3.101 -1.3593 -3.9690 -0.1070
  965MOL0     H30221   7.949   5.155   2.939 -0.4798 -1.8476  1.4324
  965MOL0     H30222   8.084   4.976   3.015 -1.2764 -2.2069 -5.0889
  965MOL0     H30223   8.242   5.070   3.000  1.3596  2.4427 -1.8193
  965MOL0     H30224   8.039   5.025   2.778  0.1524  2.4130 -0.2753
  965MOL0     H30225   8.208   5.075   2.766  1.1137  0.4144  2.9265
  965MOL0     H30226   8.042   4.728   2.886  0.8060  1.5372  2.2881
  965MOL0     H30227   8.108   4.464   2.783  0.8046 -3.1193  0.3618
  965MOL0     H30228   8.278   4.456   2.804 -0.0571 -0.8211  0.6996
  965MOL0     H30229   8.131   4.568   3.040 -2.2812 -0.6344 -0.3854
  965MOL0     H30230   8.079   4.409   2.993  1.4047 -1.7839  0.3047
  965MOL0     H30231   8.363   4.474   3.062 -0.0496  1.7045 -0.1805
  965MOL0     H30232   8.304   4.318   3.003  0.3436  0.9994 -0.8330
  965MOL0     H30233   8.154   4.290   3.183  3.2212 -1.3887 -6.4525
  965MOL0     H30234   8.175   4.465   3.248  0.0255  0.5237 -1.1307
  965MOL0     H30235   8.080   4.221   3.379  0.4614  1.8500 -0.1777
  965MOL0     H30236   8.046   4.159   3.614  0.1862  1.2267  1.1230
  965MOL0     H30237   8.446   3.954   4.005  0.1795  1.1544 -0.5779
  965MOL0     H30238   8.396   3.857   4.234  0.8207  2.1417  3.7507
  965MOL0     H30239   8.112   4.048   4.522  0.0674  0.6518  1.0974
  965MOL0     H30240   8.062   3.885   4.471  1.8852 -3.2612 -1.6894
  965MOL0     H30241   8.285   3.819   4.615 -1.4637 -1.8004  2.8107
  965MOL0     H30242   8.252   3.982   4.688  1.8029  1.0413 -3.3178
  965MOL0     H30243   8.009   3.881   4.726  0.8071  2.0124 -0.9704
  965MOL0     H30244   8.061   3.726   4.663  0.9617 -0.7549  0.1894
  965MOL0     H30245   8.176   3.832   4.903  1.4398 -1.2961  0.8468
  965MOL0     H30246   8.232   3.690   4.827  0.0298  1.1397 -1.0291
  965MOL0     H30247   7.995   3.598   4.863 -0.0939  0.2651 -2.0610
  965MOL0     H30248   7.951   3.748   4.935 -1.8631 -2.1585 -0.7363
  965MOL0     H30249   8.168   3.579   5.058 -1.8481 -1.6628  1.8806
  965MOL0     H30250   8.129   3.755   5.105 -1.9509  2.1491 -0.8644
  965MOL0     H30251   8.025   3.570   5.241  1.0419 -3.0535 -1.2238
  965MOL0     H30252   7.911   3.544   5.095 -2.1247  1.6288  1.8510
  965MOL0     H30253   7.940   3.787   5.257  0.6498 -2.7042  2.1756
  965MOL0     H30254   7.838   3.768   5.107  0.2406  1.8882  0.7315
  965MOL0     H30255   8.126   4.143   4.320 -3.3242 -3.0931 -1.0032
  965MOL0     H30256   8.164   4.265   4.116 -0.7783  0.1699  0.7117
  965MOL0     H30257   8.444   4.242   3.718 -0.3350 -1.3360  1.8846
  965MOL0     H30258   8.486   4.334   3.488  1.0067 -3.4988  0.5302
  965MOL0     H30259   7.543   5.390   3.262 -0.2764 -1.4062 -0.4271
  965MOL0     H30260   7.360   5.371   3.422 -0.0975 -0.1363  0.7981
  965MOL0     H30261   6.877   5.743   3.533  2.2624 -1.8074 -3.5423
  965MOL0     H30262   6.651   5.680   3.614  0.2289  0.4487 -0.8360
  965MOL0     H30263   6.583   5.262   3.779  1.0918  0.8120 -0.2266
  965MOL0     H30264   6.508   5.286   3.616 -1.0030  1.5805 -2.1199
  965MOL0     H30265   6.378   5.429   3.835  0.5187  0.3788 -0.8055
  965MOL0     H30266   6.361   5.245   3.828  0.8566 -1.8015 -2.2070
  965MOL0     H30267   6.261   5.261   3.606 -2.3314 -0.8827  4.0102
  965MOL0     H30268   6.317   5.426   3.579 -2.1046 -0.1101 -0.7636
  965MOL0     H30269   6.091   5.336   3.755 -0.9194 -0.2549  0.3250
  965MOL0     H30270   6.162   5.500   3.763 -0.1081 -0.5269 -0.8211
  965MOL0     H30271   5.921   5.521   3.416  1.1736 -0.4617 -0.4746
  965MOL0     H30272   6.802   5.305   3.733 -0.9325 -0.7275 -2.0202
  965MOL0     H30273   7.041   5.246   3.620 -2.4853  0.4071 -0.8578
  965MOL0     H30274   7.160   5.371   3.669  2.0184 -2.5138  4.0599
  965MOL0     H30275   7.052   5.292   3.785 -1.6739  1.6001  0.4661
  966MOL0     O30276   4.501   5.948   8.587 -0.7094  0.0718 -0.0236
  966MOL0     C30277   4.568   6.052   8.604  0.0252  0.6362  0.2755
  966MOL0     O30278   4.513   6.174   8.638  0.4001 -1.1145 -0.6542
  966MOL0     C30279   4.383   6.169   8.667  0.1178  0.1442  0.4905
  966MOL0     C30280   4.295   6.217   8.562  0.4307  0.7486 -0.1900
  966MOL0     C30281   4.152   6.207   8.578  0.1704 -0.1721  0.1037
  966MOL0     C30282   4.097   6.154   8.692 -0.2373  0.4458 -0.0615
  966MOL0     O30283   3.959   6.172   8.710  0.1912 -0.7480  0.1186
  966MOL0     C30284   3.913   6.131   8.840  0.1076 -0.3953 -0.2974
  966MOL0     C30285   3.767   6.183   8.856 -0.2870 -0.3383 -0.1399
  966MOL0     C30286   3.708   6.163   8.990 -0.0967 -0.3208 -0.4184
  966MOL0     C30287   3.655   6.021   9.008 -0.0788  0.7701 -0.3432
  966MOL0     C30288   3.631   5.981   9.154 -0.2953  0.2449  0.5067
  966MOL0     C30289   3.589   5.836   9.173  0.0671  0.0407  0.2995
  966MOL0     C30290   3.618   5.793   9.328 -0.4496  0.5046  1.0677
  966MOL0     C30291   3.541   5.663   9.355 -0.5614  0.0246  0.0437
  966MOL0     N30292   3.500   5.639   9.495 -0.0067  0.3345 -0.3983
  966MOL0     C30293   3.586   5.617   9.604  0.8950  1.0165 -0.1135
  966MOL0     C30294   3.500   5.622   9.714 -0.4076  0.6167 -0.0736
  966MOL0     C30295   3.521   5.627   9.857  0.4393  0.0636 -0.1000
  966MOL0     C30296   3.634   5.714   9.909  0.3434 -0.4139  0.1509
  966MOL0     C30297   3.663   5.708  10.062  0.0820  0.7006 -0.4988
  966MOL0     C30298   3.730   5.573  10.096 -0.5098 -0.1083  0.2938
  966MOL0     O30299   3.842   5.551  10.000  1.0969  0.1068 -0.4358
  966MOL0     C30300   3.970   5.593  10.047  0.3325  0.5571  0.8658
  966MOL0     C30301   3.991   5.672  10.162 -0.0594  0.5179  0.3812
  966MOL0     C30302   4.123   5.693  10.209  0.1045  0.4225  0.2706
  966MOL0     C30303   4.227   5.655  10.128 -0.3649  0.9495 -0.1337
  966MOL0     C30304   4.370   5.692  10.155  0.6653 -1.0719 -0.7431
  966MOL0     O30305   4.393   5.812  10.227  0.8800 -0.6421  0.1678
  966MOL0     C30306   4.520   5.846  10.263 -0.1512 -0.1780  0.4001
  966MOL0     C30307   4.638   5.800  10.215 -0.1904 -0.3820 -0.4658
  966MOL0     C30308   4.755   5.818  10.298  0.4914 -0.7414 -0.3898
  966MOL0     C30309   4.756   5.919  10.390 -0.0537  0.0019  0.1934
  966MOL0     O30310   4.877   5.944  10.454  0.9383  0.3620  0.2838
  966MOL0     C30311   4.930   6.070  10.478  0.4498 -0.1385 -0.1142
  966MOL0     C30312   5.050   6.042  10.568 -0.7491 -0.1775  0.5210
  966MOL0     C30313   5.019   6.030  10.715  0.0702  0.0099  0.1246
  966MOL0     C30314   5.153   5.990  10.789  0.3313 -0.0584 -0.3670
  966MOL0     C30315   5.184   5.833  10.797  0.7037 -0.5235  0.4934
  966MOL0     C30316   5.297   5.794  10.897  0.6399 -0.0033 -0.1254
  966MOL0     C30317   5.234   5.831  11.039  0.6273 -0.8654 -0.4450
  966MOL0     C30318   5.301   5.758  11.158  0.1317  0.0531 -0.5952
  966MOL0    Cl30319   5.471   5.824  11.153  0.0876  0.2803 -0.0662
  966MOL0     C30320   4.641   5.988  10.427 -0.4207  0.6062  0.1294
  966MOL0     C30321   4.525   5.944  10.360  0.0724  0.2708 -0.0697
  966MOL0     O30322   4.453   5.609  10.127 -0.1766 -0.4727  0.4413
  966MOL0     C30323   4.202   5.576  10.019  0.9696  0.5164  1.0697
  966MOL0     C30324   4.078   5.557   9.981  0.1406 -0.1185  0.2993
  966MOL0     N30325   3.378   5.613   9.668 -0.6218 -0.1735  0.4240
  966MOL0     N30326   3.373   5.627   9.540  0.2718 -0.6152  0.5085
  966MOL0     C30327   4.187   6.104   8.791 -1.1657 -0.3125 -0.5584
  966MOL0     C30328   4.325   6.113   8.781 -0.7083 -0.0415  0.2164
  966MOL0     C30329   4.707   6.057   8.554  0.3035  0.0446  0.2103
  966MOL0     C30330   4.755   6.182   8.519 -0.1642 -0.3272  0.2193
  966MOL0     C30331   4.893   6.213   8.503 -1.3487  0.7169  0.3463
  966MOL0     C30332   4.982   6.103   8.526 -0.1648  0.3678 -0.4239
  966MOL0     O30333   5.108   6.132   8.501 -0.8113  0.1162 -0.2411
  966MOL0     C30334   5.210   6.034   8.523  0.0016  0.0712 -0.0453
  966MOL0     C30335   5.341   6.102   8.490 -0.1556  0.7393  0.6836
  966MOL0     C30336   5.461   6.001   8.478 -0.3411 -0.5621 -0.1755
  966MOL0     C30337   5.599   6.076   8.496 -0.4170  0.4553 -0.5637
  966MOL0     C30338   5.708   5.988   8.464 -0.3582  0.4866  0.3812
  966MOL0     C30339   5.796   5.920   8.412 -0.2272  0.7217  0.4177
  966MOL0     C30340   4.937   5.976   8.549  0.4928 -0.6417  0.3936
  966MOL0     C30341   4.799   5.954   8.567 -0.6353  0.1758  0.8837
  966MOL0     C30342   4.758   5.808   8.603  1.0237  0.5098  0.8235
  966MOL0     H30343   4.333   6.275   8.479 -0.0413  2.3494  0.6660
  966MOL0     H30344   4.081   6.250   8.507  1.3475 -0.5835 -1.3871
  966MOL0     H30345   3.919   6.022   8.839  1.1875 -0.3890  1.3168
  966MOL0     H30346   3.977   6.166   8.921 -2.2354  0.6575  1.2222
  966MOL0     H30347   3.700   6.156   8.774 -0.8957 -0.1125  0.2791
  966MOL0     H30348   3.768   6.292   8.843 -1.2914  0.1249  2.9822
  966MOL0     H30349   3.628   6.234   9.014 -0.3371 -1.1856  1.4686
  966MOL0     H30350   3.780   6.185   9.069  1.3100 -0.9964 -1.4604
  966MOL0     H30351   3.562   6.023   8.950 -0.7789 -0.7538  0.6406
  966MOL0     H30352   3.725   5.953   8.960 -2.2664 -3.5955  1.9484
  966MOL0     H30353   3.727   6.002   9.204  0.4721  2.5743 -1.7118
  966MOL0     H30354   3.544   6.038   9.189 -1.6612  0.5296 -2.9563
  966MOL0     H30355   3.483   5.829   9.148 -0.4880  3.3617  1.1577
  966MOL0     H30356   3.642   5.769   9.105 -1.9848 -0.8710 -0.4857
  966MOL0     H30357   3.585   5.876   9.391  0.4834  1.1055  0.7903
  966MOL0     H30358   3.726   5.791   9.343 -0.4112  0.8590  0.8545
  966MOL0     H30359   3.457   5.636   9.290  0.9510 -1.4301 -1.4613
  966MOL0     H30360   3.614   5.583   9.336 -1.3959 -1.4979  2.8144
  966MOL0     H30361   3.694   5.618   9.613  0.8874  1.6812 -0.0091
  966MOL0     H30362   3.433   5.668   9.908  1.0893 -1.9679  2.9249
  966MOL0     H30363   3.545   5.526   9.890  1.6525  0.1034 -0.8132
  966MOL0     H30364   3.724   5.680   9.858  0.2662 -0.2017 -0.1288
  966MOL0     H30365   3.612   5.817   9.880 -0.3074 -1.0702 -1.8638
  966MOL0     H30366   3.577   5.720  10.129 -0.3525 -2.0643 -0.4102
  966MOL0     H30367   3.738   5.784  10.081 -2.7226  2.6108  5.0574
  966MOL0     H30368   3.661   5.489  10.086  3.6908 -3.8855 -0.6828
  966MOL0     H30369   3.774   5.563  10.195  0.4883  4.3715  0.5410
  966MOL0     H30370   3.909   5.718  10.216 -0.2836  0.3289  0.2043
  966MOL0     H30371   4.145   5.756  10.294 -0.9080  2.6428 -1.0159
  966MOL0     H30372   4.660   5.744  10.124  4.2015 -1.5657  1.0410
  966MOL0     H30373   4.853   5.776  10.276  0.1759 -2.2568  0.9611
  966MOL0     H30374   4.970   6.117  10.388 -0.2449  1.8397  0.5604
  966MOL0     H30375   4.850   6.137  10.512  0.7237  1.6545 -2.6854
  966MOL0     H30376   5.104   5.957  10.524  0.2890  1.8265 -2.3341
  966MOL0     H30377   5.108   6.133  10.550 -1.5125 -0.0516 -1.5205
  966MOL0     H30378   4.986   6.120  10.768 -0.3592  0.3204 -0.6438
  966MOL0     H30379   4.945   5.950  10.727 -1.3085  0.8500 -2.1382
  966MOL0     H30380   5.147   6.045  10.883 -0.2876  0.0393 -0.4622
  966MOL0     H30381   5.240   6.044  10.750  0.1059  0.0427 -0.7350
  966MOL0     H30382   5.205   5.795  10.696  0.5850 -0.5177  0.4668
  966MOL0     H30383   5.092   5.776  10.809  0.1182  0.3020  0.0514
  966MOL0     H30384   5.317   5.687  10.890  2.0756  0.3393 -2.3450
  966MOL0     H30385   5.392   5.843  10.874  1.4175 -0.8060  1.2460
  966MOL0     H30386   5.127   5.810  11.038  0.6459 -1.0487  0.4916
  966MOL0     H30387   5.237   5.939  11.053  0.4024 -1.0458  1.1136
  966MOL0     H30388   5.260   5.791  11.254  3.8459  0.4033  1.0522
  966MOL0     H30389   5.304   5.649  11.160  0.5040 -0.0485  4.0165
  966MOL0     H30390   4.631   6.057  10.509  2.3182  0.6085  0.5748
  966MOL0     H30391   4.433   5.988  10.395  1.0403  2.6248 -0.2599
  966MOL0     H30392   4.284   5.541   9.957  0.4152 -0.6865  0.9840
  966MOL0     H30393   4.072   5.485   9.900  2.2912  1.4880 -1.3907
  966MOL0     H30394   4.150   6.040   8.871 -0.0766 -0.6437 -0.3029
  966MOL0     H30395   4.382   6.050   8.849  0.7201 -0.9906 -1.7399
  966MOL0     H30396   4.684   6.262   8.497 -1.7180 -1.2854  1.4875
  966MOL0     H30397   4.914   6.316   8.479 -1.0744  0.1543 -2.1048
  966MOL0     H30398   5.196   5.941   8.466  0.5210  1.0068 -1.7603
  966MOL0     H30399   5.200   6.007   8.628  1.1281 -2.4242 -0.5046
  966MOL0     H30400   5.353   6.153   8.586 -0.1703  0.9206  0.5886
  966MOL0     H30401   5.319   6.172   8.410 -0.5212 -0.3050 -0.1598
  966MOL0     H30402   5.466   5.949   8.381 -1.8572 -0.0205 -0.5759
  966MOL0     H30403   5.452   5.931   8.561  0.3443 -1.5774 -0.9309
  966MOL0     H30404   5.608   6.168   8.437  1.3398  0.0912 -0.9175
  966MOL0     H30405   5.610   6.105   8.601 -0.5455 -0.8248 -0.1831
  966MOL0     H30406   5.865   5.842   8.387 -1.6757 -0.0509 -1.3816
  966MOL0     H30407   4.999   5.889   8.535  3.1037  1.5531 -4.2412
  966MOL0     H30408   4.718   5.811   8.705  2.4448 -1.6100  1.5031
  966MOL0     H30409   4.687   5.774   8.527  1.5487 -2.3228  1.5165
  966MOL0     H30410   4.842   5.739   8.611  0.9108  0.5744  2.9307
  967MOL0     O30411   4.663   7.847  10.936  0.0029 -0.0586  0.0459
  967MOL0     C30412   4.672   7.868  10.810  0.4470  1.0186 -0.1660
  967MOL0     O30413   4.713   7.980  10.748  0.0286 -0.0928  0.4285
  967MOL0     C30414   4.777   8.074  10.818 -0.6629  0.3320 -0.1154
  967MOL0     C30415   4.741   8.211  10.795 -0.7248 -0.3435  0.1877
  967MOL0     C30416   4.809   8.319  10.857  0.0959  0.4682  0.1382
  967MOL0     C30417   4.911   8.291  10.945 -1.1847 -0.4005  0.9790
  967MOL0     O30418   4.983   8.392  11.002  0.2894 -0.4589 -0.8543
  967MOL0     C30419   5.010   8.514  10.927  0.5126 -0.6123 -0.7497
  967MOL0     C30420   5.118   8.610  10.979  1.0292  0.3300  0.1571
  967MOL0     C30421   5.110   8.686  11.114  0.6535 -0.1021  0.1320
  967MOL0     C30422   5.144   8.603  11.234  0.6063  0.0520 -0.4193
  967MOL0     C30423   5.119   8.672  11.373  0.0233  0.2470 -0.4568
  967MOL0     C30424   5.142   8.590  11.498  1.0634 -0.6269 -0.4679
  967MOL0     C30425   5.065   8.639  11.626  0.2617  0.0207  0.6326
  967MOL0     C30426   5.126   8.767  11.693 -0.6862  0.1853  0.4438
  967MOL0     N30427   5.271   8.763  11.733 -0.1624  0.1532  0.1198
  967MOL0     C30428   5.308   8.728  11.862  0.4098 -0.4061  0.9200
  967MOL0     C30429   5.439   8.763  11.873 -0.1223  0.4745  0.6766
  967MOL0     C30430   5.529   8.747  11.995 -0.2203  0.3167  1.1105
  967MOL0     C30431   5.630   8.862  12.020 -0.6469 -0.6589 -0.2531
  967MOL0     C30432   5.675   8.869  12.160 -0.0121 -0.3826 -0.2541
  967MOL0     C30433   5.768   8.751  12.188  0.4330  0.9506 -0.5343
  967MOL0     O30434   5.770   8.709  12.336 -0.2925  0.9281 -0.1813
  967MOL0     C30435   5.879   8.754  12.412 -0.1964  0.1365 -0.9840
  967MOL0     C30436   5.971   8.857  12.390  0.7046 -0.1841 -0.4683
  967MOL0     C30437   6.072   8.899  12.480 -1.3559 -0.4845  0.1562
  967MOL0     C30438   6.094   8.828  12.602  0.2560  0.0383  1.4643
  967MOL0     C30439   6.206   8.862  12.692  0.5691  0.7881  0.0357
  967MOL0     O30440   6.201   8.793  12.813  0.1452 -1.1747  1.2309
  967MOL0     C30441   6.309   8.775  12.893  0.3315  0.5798 -0.5360
  967MOL0     C30442   6.308   8.654  12.965  0.5041  0.1213  0.9375
  967MOL0     C30443   6.408   8.631  13.064  0.2950  0.7804  1.2120
  967MOL0     C30444   6.508   8.723  13.086 -0.6046 -0.7414 -0.2141
  967MOL0     O30445   6.605   8.689  13.172  1.2395  0.5653 -0.3586
  967MOL0     C30446   6.685   8.798  13.217 -1.5015 -0.3253  0.2463
  967MOL0     C30447   6.755   8.777  13.351 -0.4497  0.1983  0.4036
  967MOL0     C30448   6.651   8.805  13.463  0.2982  0.4898 -0.3263
  967MOL0     C30449   6.699   8.770  13.604 -0.6839 -0.2571 -1.6870
  967MOL0     C30450   6.573   8.777  13.691 -0.4585 -0.4658 -0.7894
  967MOL0     C30451   6.613   8.733  13.837  0.1163 -0.3885 -0.1613
  967MOL0     C30452   6.498   8.756  13.924 -0.7465 -0.2944  0.5551
  967MOL0     C30453   6.533   8.724  14.066  1.0378 -0.5272  0.7059
  967MOL0    Cl30454   6.549   8.553  14.091  0.2203 -0.1105 -0.3281
  967MOL0     C30455   6.503   8.841  13.008 -0.1734 -0.7316  0.7815
  967MOL0     C30456   6.410   8.871  12.913 -0.3734  1.5485  0.6978
  967MOL0     O30457   6.303   8.930  12.654 -0.0353  0.2184 -0.4595
  967MOL0     C30458   6.006   8.714  12.615  0.1060  0.0947  0.1956
  967MOL0     C30459   5.898   8.688  12.530  0.4123  0.3217  0.6047
  967MOL0     N30460   5.476   8.811  11.744 -0.4729  0.8532  0.8868
  967MOL0     N30461   5.378   8.811  11.659 -0.6605  0.5530 -0.5895
  967MOL0     C30462   4.946   8.155  10.975 -0.6556  0.1578 -0.0979
  967MOL0     C30463   4.879   8.049  10.907 -0.3921 -0.1093  0.1624
  967MOL0     C30464   4.649   7.745  10.717  0.4953 -0.0833 -0.1532
  967MOL0     C30465   4.615   7.625  10.780  0.8432  0.1006 -1.1034
  967MOL0     C30466   4.604   7.501  10.714  0.2146  0.5242  0.2918
  967MOL0     C30467   4.626   7.503  10.575 -0.3950  0.6916  0.0945
  967MOL0     O30468   4.631   7.399  10.484  0.1973 -0.5194 -0.3740
  967MOL0     C30469   4.615   7.264  10.520 -0.4759 -0.1797 -0.5149
  967MOL0     C30470   4.628   7.171  10.397 -0.2461  0.3846  1.2794
  967MOL0     C30471   4.625   7.022  10.426  0.0636  0.7371  0.1388
  967MOL0     C30472   4.663   6.933  10.307 -0.2604  0.2788 -0.3370
  967MOL0     C30473   4.557   6.942  10.208 -0.5951  0.5382  0.0620
  967MOL0     C30474   4.484   6.958  10.119 -0.2232 -0.2928  0.2054
  967MOL0     C30475   4.656   7.621  10.511 -0.1232  0.2160 -0.0662
  967MOL0     C30476   4.672   7.738  10.577 -0.9107 -0.9230 -0.3892
  967MOL0     C30477   4.703   7.866  10.497 -0.3862  0.1844 -0.2022
  967MOL0     H30478   4.665   8.227  10.719  0.0107  0.3520 -0.4164
  967MOL0     H30479   4.781   8.422  10.835 -0.6686 -0.1457 -1.9811
  967MOL0     H30480   5.029   8.486  10.823  2.0273  0.9591 -0.9361
  967MOL0     H30481   4.916   8.570  10.932  0.0694 -1.2295 -1.9025
  967MOL0     H30482   5.126   8.689  10.904  0.3939  0.4886  0.2491
  967MOL0     H30483   5.205   8.546  10.970  1.5181  1.1497 -1.3106
  967MOL0     H30484   5.009   8.724  11.132  1.3685  2.4978 -0.8995
  967MOL0     H30485   5.158   8.783  11.101 -2.7107  1.5882 -0.7560
  967MOL0     H30486   5.080   8.514  11.233  0.2515  0.3110 -0.7505
  967MOL0     H30487   5.251   8.581  11.224  0.7909  0.3679  0.7484
  967MOL0     H30488   5.170   8.769  11.375 -1.9508  1.4337 -2.7137
  967MOL0     H30489   5.015   8.707  11.379 -0.3419 -0.7459 -0.9119
  967MOL0     H30490   5.115   8.485  11.479  1.1539 -1.1870  2.1314
  967MOL0     H30491   5.250   8.595  11.511  1.0734  1.5223 -0.9985
  967MOL0     H30492   5.064   8.560  11.701  0.5164 -0.3601  0.2350
  967MOL0     H30493   4.960   8.650  11.597  0.9431  0.3762 -2.0236
  967MOL0     H30494   5.114   8.848  11.620  1.6233  0.3583  0.1832
  967MOL0     H30495   5.067   8.793  11.780 -0.6101 -0.5508  0.7248
  967MOL0     H30496   5.233   8.687  11.929 -0.9482 -0.4784 -0.5683
  967MOL0     H30497   5.463   8.741  12.082 -0.5883  2.1651  1.0162
  967MOL0     H30498   5.586   8.654  11.997  0.9333  0.8066 -2.3109
  967MOL0     H30499   5.712   8.855  11.948 -1.6197 -2.9393 -1.2382
  967MOL0     H30500   5.583   8.961  12.014 -2.7590 -1.5973  0.1851
  967MOL0     H30501   5.591   8.865  12.230  3.0304 -1.3333  3.7333
  967MOL0     H30502   5.717   8.965  12.189 -4.2640  1.8784 -0.7462
  967MOL0     H30503   5.865   8.770  12.143  1.7932 -2.8672  0.4377
  967MOL0     H30504   5.739   8.660  12.136  1.0478 -1.5278  3.0828
  967MOL0     H30505   5.954   8.919  12.302 -4.2745  0.8864  0.9568
  967MOL0     H30506   6.148   8.969  12.446  0.3066 -2.4283 -0.3430
  967MOL0     H30507   6.229   8.583  12.943  0.6684 -0.1091  1.0934
  967MOL0     H30508   6.393   8.536  13.114  0.4003 -0.5623 -1.1289
  967MOL0     H30509   6.762   8.817  13.142 -0.9795  0.3878  0.9515
  967MOL0     H30510   6.629   8.892  13.224  0.4157  0.9066 -0.3856
  967MOL0     H30511   6.793   8.674  13.351 -1.6184 -0.2988 -1.8879
  967MOL0     H30512   6.840   8.846  13.357 -0.4936  0.2241  0.7098
  967MOL0     H30513   6.627   8.912  13.464 -2.2156 -0.0337  0.6647
  967MOL0     H30514   6.553   8.762  13.442 -0.3093  2.0272 -0.8240
  967MOL0     H30515   6.780   8.834  13.640 -1.1413 -2.0454  3.2894
  967MOL0     H30516   6.737   8.667  13.602  1.1912  0.3417 -0.0760
  967MOL0     H30517   6.498   8.703  13.661 -1.3471  0.9021 -2.0428
  967MOL0     H30518   6.540   8.881  13.696  0.1786 -0.2973  0.2103
  967MOL0     H30519   6.639   8.627  13.830  4.6364  0.4189  1.0474
  967MOL0     H30520   6.695   8.799  13.870  1.5143 -0.1470 -3.6839
  967MOL0     H30521   6.415   8.687  13.905 -1.2067  0.0521  1.2514
  967MOL0     H30522   6.456   8.855  13.902  0.3085 -0.1628 -0.9683
  967MOL0     H30523   6.621   8.774  14.109 -1.6550  3.3663  2.3410
  967MOL0     H30524   6.450   8.764  14.125  0.8488 -1.5523  1.1422
  967MOL0     H30525   6.582   8.913  13.025 -0.4577 -0.3862  0.6398
  967MOL0     H30526   6.431   8.960  12.855  5.6631 -0.6914 -1.3440
  967MOL0     H30527   6.025   8.653  12.704  0.7447 -3.1386 -1.9664
  967MOL0     H30528   5.836   8.605  12.560  1.4469 -2.1769 -3.4435
  967MOL0     H30529   5.024   8.126  11.044  1.0144 -0.1311 -1.9912
  967MOL0     H30530   4.897   7.945  10.933 -2.5479 -0.1881  1.6475
  967MOL0     H30531   4.596   7.618  10.887  0.1547  0.9934 -1.1601
  967MOL0     H30532   4.575   7.416  10.775  1.1652 -0.3124 -0.3913
  967MOL0     H30533   4.511   7.262  10.556 -0.3952  0.0520 -0.2680
  967MOL0     H30534   4.686   7.227  10.595 -1.9738  0.5605  1.3493
  967MOL0     H30535   4.730   7.191  10.361  1.3843 -1.9917  4.0966
  967MOL0     H30536   4.546   7.190  10.327  0.0174 -1.4783  0.3792
  967MOL0     H30537   4.529   6.990  10.467  0.4780  0.1077  0.6425
  967MOL0     H30538   4.704   7.004  10.500  1.1999  0.7976 -1.0174
  967MOL0     H30539   4.750   6.984  10.264 -2.7078  2.1229 -3.4475
  967MOL0     H30540   4.681   6.831  10.343  0.9596  1.0803  1.5036
  967MOL0     H30541   4.423   6.989  10.037  0.3811  3.4237  0.9630
  967MOL0     H30542   4.676   7.614  10.404 -3.0045 -0.3174 -0.6365
  967MOL0     H30543   4.798   7.909  10.531  0.4912 -2.1617  0.4826
  967MOL0     H30544   4.708   7.836  10.392 -0.8283 -0.3642 -0.0716
  967MOL0     H30545   4.633   7.950  10.501  3.4192  3.6242  1.6973
  968MOL0     O30546   0.106   9.319   6.221 -0.1459 -0.3794 -0.9103
  968MOL0     C30547   0.065   9.420   6.271 -0.9422  0.6706  0.2102
  968MOL0     O30548   0.127   9.510   6.352  0.4623 -0.9865 -0.1743
  968MOL0     C30549   0.226   9.482   6.437 -0.3555 -0.8776 -0.2675
  968MOL0     C30550   0.286   9.360   6.449 -1.0505  0.5770  0.1974
  968MOL0     C30551   0.386   9.340   6.544 -1.0879 -0.0168  0.6443
  968MOL0     C30552   0.421   9.431   6.642  0.0183  0.4426  0.2035
  968MOL0     O30553   0.507   9.392   6.737  0.1212  0.4029 -0.0526
  968MOL0     C30554   0.596   9.492   6.787  0.2909  0.1079  0.1890
  968MOL0     C30555   0.744   9.452   6.767 -0.1884 -1.1047  0.1273
  968MOL0     C30556   0.836   9.569   6.798  0.3187 -0.0833  0.5414
  968MOL0     C30557   0.982   9.545   6.788  1.3211  0.3130  0.1672
  968MOL0     C30558   1.066   9.670   6.810  0.5551 -0.5296  0.4874
  968MOL0     C30559   1.086   9.706   6.965 -0.5339 -0.7314  0.2105
  968MOL0     C30560   1.166   9.843   6.964 -0.1760 -0.2169 -0.3115
  968MOL0     C30561   1.318   9.806   6.952 -0.4047 -0.5201 -0.4841
  968MOL0     N30562   1.409   9.903   7.012  0.0229  0.1582 -0.3870
  968MOL0     C30563   1.523   9.861   7.078 -0.6705 -1.0015  0.2029
  968MOL0     C30564   1.574   9.974   7.113  0.3493  0.3727 -0.6226
  968MOL0     C30565   1.699   9.991   7.196 -1.0245  0.1511 -0.2797
  968MOL0     C30566   1.829   9.942   7.128 -0.5860 -0.3929 -0.2195
  968MOL0     C30567   1.838   9.983   6.983  0.6632 -0.4646  0.2442
  968MOL0     C30568   1.954   9.911   6.920 -0.6153 -0.3179 -0.1221
  968MOL0     O30569   1.940   9.766   6.926  0.8662 -0.1429 -0.2127
  968MOL0     C30570   1.995   9.696   6.820 -0.8751 -0.1727  1.4357
  968MOL0     C30571   1.928   9.627   6.723  0.4027 -0.9246  0.5333
  968MOL0     C30572   1.999   9.556   6.624 -0.2346 -0.3252 -0.0897
  968MOL0     C30573   2.144   9.560   6.611 -0.3919 -0.3254 -0.3778
  968MOL0     C30574   2.225   9.486   6.511  0.8357  0.0128  0.6786
  968MOL0     O30575   2.162   9.471   6.392 -0.3002  0.1843  0.0717
  968MOL0     C30576   2.232   9.406   6.296  0.5242 -0.2899  0.2306
  968MOL0     C30577   2.364   9.438   6.258 -0.4301 -0.4360  0.3557
  968MOL0     C30578   2.435   9.361   6.166  0.4405  0.0350 -0.4859
  968MOL0     C30579   2.386   9.247   6.099  0.2125  0.5381 -0.7326
  968MOL0     O30580   2.463   9.164   6.013 -0.1841 -0.5974  0.4684
  968MOL0     C30581   2.602   9.148   6.058 -0.0439  0.1456  0.3826
  968MOL0     C30582   2.683   9.244   5.965  0.3899 -0.4946  0.1640
  968MOL0     C30583   2.816   9.285   6.010 -0.5517 -0.7546  0.2784
  968MOL0     C30584   2.907   9.158   6.010 -0.2725  0.7985  0.5612
  968MOL0     C30585   3.056   9.194   6.032  0.8853  0.5227 -0.0553
  968MOL0     C30586   3.134   9.067   6.065 -0.4715 -0.4119 -0.5332
  968MOL0     C30587   3.262   9.091   6.152  0.5135  0.3574  0.5869
  968MOL0     C30588   3.361   8.973   6.148  0.4329 -0.5236  0.7295
  968MOL0    Cl30589   3.312   8.838   6.266 -0.5010 -0.1398 -0.3671
  968MOL0     C30590   2.248   9.214   6.131  0.0304  0.1899  0.0978
  968MOL0     C30591   2.182   9.289   6.233  0.1423  0.0819 -0.3658
  968MOL0     O30592   2.341   9.456   6.534  0.2733  0.9106 -0.1175
  968MOL0     C30593   2.209   9.643   6.711 -0.5690  0.0052  0.9453
  968MOL0     C30594   2.137   9.711   6.810 -0.0828  0.0551  0.0108
  968MOL0     N30595   1.501  10.082   7.069  0.5894 -0.7075  0.0467
  968MOL0     N30596   1.394  10.041   7.015  0.6179 -0.2465 -0.5158
  968MOL0     C30597   0.354   9.557   6.640 -0.8157 -0.4060  0.5532
  968MOL0     C30598   0.264   9.582   6.530  1.0639 -0.1515  0.9472
  968MOL0     C30599  -0.075   9.463   6.247 -0.1912  0.4299 -0.1967
  968MOL0     C30600  -0.098   9.600   6.217  0.1359  0.0111 -0.3542
  968MOL0     C30601  -0.225   9.652   6.215 -0.0339 -0.2831 -0.0492
  968MOL0     C30602  -0.343   9.570   6.238  0.1247 -0.5956  0.6609
  968MOL0     O30603  -0.467   9.617   6.223  1.3830 -0.2701  0.3228
  968MOL0     C30604  -0.504   9.750   6.281 -0.4842  0.8860 -0.9019
  968MOL0     C30605  -0.649   9.731   6.332  0.1113 -0.5998  0.9878
  968MOL0     C30606  -0.742   9.675   6.225  0.1192 -0.4247 -0.4976
  968MOL0     C30607  -0.802   9.780   6.122  0.1294 -0.0321 -0.0305
  968MOL0     C30608  -0.891   9.867   6.201  0.2899 -0.3388 -0.9167
  968MOL0     C30609  -0.942   9.945   6.271  0.4292 -0.1954 -0.3362
  968MOL0     C30610  -0.319   9.432   6.253 -0.5727  0.1512 -1.0485
  968MOL0     C30611  -0.186   9.373   6.274  0.4726 -0.7500  0.3442
  968MOL0     C30612  -0.168   9.234   6.310 -0.6384  0.4473  0.0178
  968MOL0     H30613   0.264   9.267   6.396  0.0111  0.2596  0.2894
  968MOL0     H30614   0.437   9.245   6.549  1.9109  1.4793  0.9892
  968MOL0     H30615   0.569   9.596   6.766  1.6146  0.2113 -1.2431
  968MOL0     H30616   0.584   9.486   6.895  2.4551 -5.1580  0.4404
  968MOL0     H30617   0.756   9.416   6.664 -4.7049 -2.6759 -0.0738
  968MOL0     H30618   0.759   9.365   6.831 -0.3333 -3.1845 -2.4938
  968MOL0     H30619   0.822   9.602   6.901 -2.0101 -2.1997  0.9795
  968MOL0     H30620   0.818   9.656   6.735 -1.0408 -1.1899 -0.6607
  968MOL0     H30621   1.006   9.473   6.866  1.5179 -0.4701 -0.6043
  968MOL0     H30622   1.003   9.499   6.691 -1.2556  3.6789 -2.2615
  968MOL0     H30623   1.162   9.642   6.765  0.9157  0.0874  0.8694
  968MOL0     H30624   1.028   9.752   6.749 -0.0719 -1.7915 -0.8656
  968MOL0     H30625   0.989   9.732   7.008 -0.7561  0.8466 -1.1630
  968MOL0     H30626   1.143   9.624   7.010  2.4842  1.7400  1.2544
  968MOL0     H30627   1.149   9.902   7.054  1.6548  2.9363 -1.8778
  968MOL0     H30628   1.141   9.904   6.877  2.2393 -0.3095 -1.1643
  968MOL0     H30629   1.333   9.715   7.010  0.0836  1.0342  1.9752
  968MOL0     H30630   1.334   9.791   6.845 -1.3635 -1.2203 -0.5417
  968MOL0     H30631   1.559   9.759   7.087 -1.4516 -1.6363 -2.7138
  968MOL0     H30632   1.713  10.095   7.224  0.7613 -0.2816  0.6310
  968MOL0     H30633   1.674   9.942   7.290 -1.2538  0.0112 -0.4119
  968MOL0     H30634   1.920   9.985   7.170 -0.4833 -0.4060 -0.4300
  968MOL0     H30635   1.831   9.833   7.136  0.8795 -0.3625  0.0576
  968MOL0     H30636   1.853  10.092   6.987 -1.0814 -0.1175 -1.1439
  968MOL0     H30637   1.754   9.958   6.918  0.6882 -2.5026  0.9317
  968MOL0     H30638   2.044   9.940   6.975 -2.2961  4.1013  0.7366
  968MOL0     H30639   1.965   9.941   6.816  0.5274 -0.4672 -0.0578
  968MOL0     H30640   1.820   9.628   6.718  0.3613  1.5298  0.7857
  968MOL0     H30641   1.941   9.510   6.545  0.9088 -0.0571 -1.1266
  968MOL0     H30642   2.419   9.526   6.291 -1.4543  0.1448  0.5461
  968MOL0     H30643   2.537   9.389   6.143  1.3315 -0.3528  2.5644
  968MOL0     H30644   2.617   9.174   6.163 -2.2133  4.6793 -0.1672
  968MOL0     H30645   2.626   9.044   6.038 -1.4494  0.3823 -3.2744
  968MOL0     H30646   2.691   9.196   5.867 -2.4153 -3.5985  1.2791
  968MOL0     H30647   2.617   9.331   5.949 -1.6561 -2.0672 -0.4270
  968MOL0     H30648   2.852   9.362   5.942 -5.3576  2.9571  1.3753
  968MOL0     H30649   2.815   9.330   6.110  4.4662 -0.5577  0.4973
  968MOL0     H30650   2.896   9.104   5.916 -1.9348  1.5983  0.2690
  968MOL0     H30651   2.877   9.087   6.087  0.3752  1.7704  1.7515
  968MOL0     H30652   3.057   9.267   6.113 -0.3770  1.4652 -0.8386
  968MOL0     H30653   3.095   9.242   5.942 -1.8180 -1.0384 -2.2228
  968MOL0     H30654   3.075   8.987   6.110 -0.9878  0.2134 -0.0889
  968MOL0     H30655   3.179   9.041   5.969 -0.1102  2.2472 -1.1732
  968MOL0     H30656   3.239   9.101   6.258  2.9730 -0.0519  1.2264
  968MOL0     H30657   3.325   9.177   6.129  1.7425 -0.6625 -0.0421
  968MOL0     H30658   3.372   8.938   6.045 -3.6875  1.1628 -0.4830
  968MOL0     H30659   3.459   9.007   6.183  1.9096 -1.3642 -2.3216
  968MOL0     H30660   2.203   9.128   6.084  3.3632 -0.5897 -2.0007
  968MOL0     H30661   2.087   9.256   6.275  0.5374 -0.9708 -0.2732
  968MOL0     H30662   2.316   9.659   6.700 -0.4770  0.2816  2.1711
  968MOL0     H30663   2.185   9.792   6.865  2.4366 -0.4990 -1.2337
  968MOL0     H30664   0.386   9.635   6.709  4.1900 -1.0391 -0.6206
  968MOL0     H30665   0.193   9.663   6.539 -1.6982 -1.7351 -3.3722
  968MOL0     H30666  -0.004   9.647   6.190 -1.0043  1.0678 -2.8513
  968MOL0     H30667  -0.237   9.754   6.180  0.5015 -0.6383 -1.3374
  968MOL0     H30668  -0.500   9.824   6.200 -2.7668  2.1588  0.0350
  968MOL0     H30669  -0.427   9.783   6.352  1.4174  1.1329 -2.9608
  968MOL0     H30670  -0.692   9.824   6.373 -3.1898 -1.5844  0.0376
  968MOL0     H30671  -0.646   9.661   6.416  0.4291 -0.1255  1.3747
  968MOL0     H30672  -0.825   9.623   6.275  0.0969  1.9077  2.1180
  968MOL0     H30673  -0.685   9.611   6.157 -0.2602  0.0964 -1.3314
  968MOL0     H30674  -0.722   9.838   6.075 -0.0074 -0.1425 -0.4103
  968MOL0     H30675  -0.857   9.742   6.034 -1.9637  1.9259  0.3294
  968MOL0     H30676  -0.990   9.996   6.352 -1.3230 -2.2165 -0.0235
  968MOL0     H30677  -0.404   9.372   6.284 -0.8002  1.7896  1.8239
  968MOL0     H30678  -0.117   9.221   6.406 -2.4021 -1.4904  0.7621
  968MOL0     H30679  -0.268   9.191   6.314  0.4127 -2.1470  0.4631
  968MOL0     H30680  -0.113   9.188   6.228 -0.6719 -0.5777  0.5608
  969MOL0     O30681   7.254   7.098   6.328  0.7459 -0.1671 -0.1958
  969MOL0     C30682   7.340   7.015   6.302 -0.4765 -0.6971  0.3106
  969MOL0     O30683   7.469   7.010   6.366 -0.2926 -0.2976  0.1325
  969MOL0     C30684   7.484   7.080   6.487  0.5030  0.6064 -0.5790
  969MOL0     C30685   7.392   7.111   6.592  0.0446  0.3317  0.6289
  969MOL0     C30686   7.448   7.185   6.711 -0.0134  0.0162  0.1418
  969MOL0     C30687   7.581   7.229   6.710 -0.2217  0.2542 -0.7278
  969MOL0     O30688   7.632   7.293   6.814 -0.3068 -0.0931 -0.2990
  969MOL0     C30689   7.543   7.382   6.884 -0.1303 -0.4440  0.5897
  969MOL0     C30690   7.616   7.496   6.957  0.1298 -0.0175 -0.4213
  969MOL0     C30691   7.688   7.440   7.081 -0.2415 -0.4969  0.6469
  969MOL0     C30692   7.740   7.552   7.168 -0.5815 -0.7263  1.0881
  969MOL0     C30693   7.814   7.504   7.288  0.3497  0.6336  0.2220
  969MOL0     C30694   7.869   7.611   7.393 -0.4938 -0.0053  0.1542
  969MOL0     C30695   7.914   7.561   7.531 -0.0491  0.2036  0.0631
  969MOL0     C30696   8.039   7.468   7.532 -0.4195  0.3835  0.0513
  969MOL0     N30697   8.003   7.328   7.538 -0.7191  0.5918 -0.5779
  969MOL0     C30698   7.991   7.236   7.436  0.2977 -0.0554 -0.4839
  969MOL0     C30699   7.931   7.130   7.487  0.1641  0.9043  0.1772
  969MOL0     C30700   7.925   6.996   7.423  0.1316  0.0099 -0.1687
  969MOL0     C30701   7.844   6.982   7.296 -0.8227  0.9060 -0.3788
  969MOL0     C30702   7.702   7.034   7.317  0.0219  0.3927 -0.1648
  969MOL0     C30703   7.603   7.005   7.200  0.0457  0.4019 -0.5962
  969MOL0     O30704   7.473   7.001   7.271 -1.0477 -0.2492 -0.4267
  969MOL0     C30705   7.359   6.984   7.196  1.1999 -0.1182  0.0155
  969MOL0     C30706   7.355   6.967   7.059  0.2569  0.0512  0.7315
  969MOL0     C30707   7.237   6.940   6.996 -0.3872  0.0911 -0.6496
  969MOL0     C30708   7.122   6.942   7.070 -0.0627  0.8136  0.8746
  969MOL0     C30709   6.987   6.933   7.000  0.5845  0.4572  0.3664
  969MOL0     O30710   6.876   6.926   7.081  0.0454 -0.0639  0.3046
  969MOL0     C30711   6.749   6.947   7.027 -0.3150  0.4384  0.5471
  969MOL0     C30712   6.710   7.072   6.982 -0.2256 -0.1328 -0.4456
  969MOL0     C30713   6.575   7.085   6.938  1.5401  0.4024  0.4246
  969MOL0     C30714   6.484   6.985   6.955  0.4606 -0.6911 -0.9203
  969MOL0     O30715   6.349   7.000   6.937 -0.1162 -0.1065 -0.0201
  969MOL0     C30716   6.294   7.128   6.964  0.3362 -0.5472 -0.0749
  969MOL0     C30717   6.136   7.122   6.982 -0.2545 -0.0837  0.1660
  969MOL0     C30718   6.075   7.256   7.012 -0.9010  0.3988 -0.6167
  969MOL0     C30719   5.924   7.241   7.030 -0.0143  0.3517  0.8258
  969MOL0     C30720   5.869   7.355   7.115 -0.2062  0.4975 -0.0409
  969MOL0     C30721   5.920   7.353   7.266  0.9137  0.5920 -0.6560
  969MOL0     C30722   5.933   7.212   7.327 -0.3632 -0.1089 -0.5749
  969MOL0     C30723   5.991   7.209   7.473  0.0568 -0.5316 -0.2627
  969MOL0    Cl30724   6.166   7.258   7.464  0.4795 -0.3843 -0.1724
  969MOL0     C30725   6.526   6.860   6.998  0.6420 -0.5646  0.6824
  969MOL0     C30726   6.660   6.836   7.037  0.2040 -0.7711 -0.2635
  969MOL0     O30727   6.987   6.932   6.876  0.3661 -0.3923 -0.4348
  969MOL0     C30728   7.130   6.975   7.212 -0.1735  0.2940  0.2980
  969MOL0     C30729   7.249   6.992   7.272  0.1095 -0.6699  0.0648
  969MOL0     N30730   7.906   7.159   7.621  0.6457  0.4710 -0.2544
  969MOL0     N30731   7.965   7.267   7.647  0.2424  0.6110  0.2536
  969MOL0     C30732   7.664   7.200   6.608 -0.1538  0.2945 -0.7487
  969MOL0     C30733   7.613   7.125   6.500 -0.0924  0.2815  0.4511
  969MOL0     C30734   7.322   6.931   6.185  0.3403 -0.1343  0.3050
  969MOL0     C30735   7.430   6.922   6.098  0.4942  0.6332  0.2245
  969MOL0     C30736   7.428   6.857   5.978  0.0609  0.4657  0.2812
  969MOL0     C30737   7.307   6.795   5.938 -0.5674 -0.1994 -0.4574
  969MOL0     O30738   7.290   6.748   5.811 -0.0157 -0.1927  0.3388
  969MOL0     C30739   7.340   6.826   5.704  0.1080  0.4976 -0.4675
  969MOL0     C30740   7.216   6.847   5.621 -0.2618 -0.3268 -0.5552
  969MOL0     C30741   7.110   6.944   5.688 -0.5478 -0.1884  0.3423
  969MOL0     C30742   6.990   6.990   5.610  0.4251 -1.2090 -0.2550
  969MOL0     C30743   6.935   6.879   5.529 -0.7222 -0.0869  0.0344
  969MOL0     C30744   6.879   6.790   5.464  0.0909  0.0757 -0.5775
  969MOL0     C30745   7.203   6.776   6.031  0.2705 -0.1475  0.6405
  969MOL0     C30746   7.200   6.855   6.154 -0.1405 -0.6519  0.7070
  969MOL0     C30747   7.077   6.865   6.241 -0.7346  0.9334  0.3734
  969MOL0     H30748   7.286   7.091   6.583  0.2885 -0.2680 -1.3978
  969MOL0     H30749   7.380   7.208   6.793 -1.0451  3.1578 -1.4078
  969MOL0     H30750   7.476   7.440   6.820  0.7715  2.3285  1.9475
  969MOL0     H30751   7.474   7.324   6.945  1.1012  0.7386  3.2655
  969MOL0     H30752   7.552   7.579   6.989  0.4109  0.1092 -0.1745
  969MOL0     H30753   7.695   7.538   6.894 -0.1884 -1.0419 -1.5347
  969MOL0     H30754   7.751   7.357   7.047 -0.6159  0.0626 -1.5266
  969MOL0     H30755   7.612   7.398   7.148  0.7279 -1.9035  0.9119
  969MOL0     H30756   7.807   7.618   7.112  0.6060 -0.3346  2.8894
  969MOL0     H30757   7.662   7.616   7.209  0.4401  0.9245  0.5514
  969MOL0     H30758   7.742   7.437   7.337  3.5768 -1.4062  2.6473
  969MOL0     H30759   7.891   7.436   7.249 -0.5739  1.2696 -2.9746
  969MOL0     H30760   7.956   7.661   7.351  1.6357 -1.5526  2.4552
  969MOL0     H30761   7.796   7.687   7.423 -1.1429 -0.6248  0.1796
  969MOL0     H30762   7.823   7.522   7.578 -2.0666  1.4867 -2.5931
  969MOL0     H30763   7.935   7.643   7.601  1.4342 -0.9224  1.0359
  969MOL0     H30764   8.091   7.470   7.436  1.4833 -2.1154  0.9204
  969MOL0     H30765   8.110   7.492   7.613  0.3824  1.1829 -0.8555
  969MOL0     H30766   8.020   7.252   7.332 -1.2825 -1.2970 -1.1506
  969MOL0     H30767   8.024   6.956   7.398  0.5638  1.1108 -0.2792
  969MOL0     H30768   7.882   6.933   7.502  2.0096 -2.0285 -0.6502
  969MOL0     H30769   7.897   7.035   7.216  0.2598 -0.5108 -0.6437
  969MOL0     H30770   7.851   6.874   7.282  2.3368  0.9633 -0.0210
  969MOL0     H30771   7.705   7.143   7.314 -0.1378  0.3782 -1.0269
  969MOL0     H30772   7.662   6.990   7.409 -1.7933 -0.2476 -1.2102
  969MOL0     H30773   7.630   6.906   7.163  3.6741  0.6849  0.8890
  969MOL0     H30774   7.609   7.083   7.123 -0.3719  0.8790 -0.1626
  969MOL0     H30775   7.447   6.957   7.002 -0.9487 -1.3088 -1.0972
  969MOL0     H30776   7.242   6.909   6.892 -1.5606 -2.6371  0.0142
  969MOL0     H30777   6.765   7.165   6.994  1.3351 -0.6548 -2.7240
  969MOL0     H30778   6.548   7.187   6.910  0.2501  0.6846  2.4537
  969MOL0     H30779   6.349   7.175   7.046  2.5005 -2.4651 -0.3207
  969MOL0     H30780   6.314   7.188   6.875 -2.7107 -1.2558 -1.3484
  969MOL0     H30781   6.089   7.086   6.890 -1.0491 -2.0094  1.2598
  969MOL0     H30782   6.111   7.051   7.062  1.4226 -1.6346 -0.5980
  969MOL0     H30783   6.124   7.304   7.097  2.5090 -3.5916  0.0096
  969MOL0     H30784   6.101   7.320   6.927 -0.6519  0.5648 -0.4216
  969MOL0     H30785   5.901   7.145   7.075  0.7534 -0.0764  0.3306
  969MOL0     H30786   5.886   7.237   6.928  1.2815 -3.7013  0.3171
  969MOL0     H30787   5.761   7.342   7.100  0.2877 -3.2190 -1.4257
  969MOL0     H30788   5.885   7.455   7.073  1.2149  1.2020  2.0286
  969MOL0     H30789   6.011   7.413   7.274 -0.5130  2.6048  4.3138
  969MOL0     H30790   5.841   7.406   7.321 -3.5548 -0.7007 -5.0936
  969MOL0     H30791   6.004   7.157   7.264  1.8973  1.4835  0.4583
  969MOL0     H30792   5.835   7.163   7.329  0.4830 -1.8769  0.2468
  969MOL0     H30793   5.927   7.269   7.538 -0.7949 -1.2268 -0.4290
  969MOL0     H30794   5.990   7.104   7.505 -0.5734  0.2798  2.6172
  969MOL0     H30795   6.450   6.782   7.000  1.0463 -0.9851  3.5175
  969MOL0     H30796   6.686   6.742   7.085 -0.1582  0.8709  3.4531
  969MOL0     H30797   7.038   6.969   7.269 -1.4100  2.2389 -1.3406
  969MOL0     H30798   7.248   7.020   7.377  0.0977  3.9514 -0.9607
  969MOL0     H30799   7.772   7.211   6.616  0.3676 -2.6916 -1.9304
  969MOL0     H30800   7.690   7.100   6.427 -0.6809 -0.4159  0.0589
  969MOL0     H30801   7.524   6.961   6.136  0.1522 -0.6326  2.5955
  969MOL0     H30802   7.518   6.861   5.917  0.5473  0.4278  0.9782
  969MOL0     H30803   7.402   6.762   5.641  0.2068 -1.3668  1.3942
  969MOL0     H30804   7.391   6.917   5.738  0.3024 -0.3676  1.7198
  969MOL0     H30805   7.168   6.752   5.596 -0.3387 -0.7282  0.9902
  969MOL0     H30806   7.245   6.884   5.522 -1.1373  1.6084 -0.1319
  969MOL0     H30807   7.160   7.032   5.728  1.0934 -1.1644  0.5300
  969MOL0     H30808   7.072   6.893   5.777 -0.6004 -1.3423 -0.3096
  969MOL0     H30809   6.918   7.034   5.679  0.7769 -3.9450  2.0442
  969MOL0     H30810   7.024   7.063   5.536 -2.6730 -0.6215 -1.2454
  969MOL0     H30811   6.814   6.746   5.392 -0.3073 -0.1108 -0.1094
  969MOL0     H30812   7.123   6.709   6.004 -0.0177 -0.1593  1.4977
  969MOL0     H30813   7.041   6.953   6.186  1.0432  3.4225  2.9135
  969MOL0     H30814   7.009   6.780   6.233  0.0985  0.4154 -2.8360
  969MOL0     H30815   7.093   6.890   6.346 -1.2510 -3.7704  1.7939
  970MOL0     O30816   5.468   1.199   2.541 -0.5930  0.4770 -0.3757
  970MOL0     C30817   5.496   1.122   2.631  0.0920 -0.1875  0.3755
  970MOL0     O30818   5.411   1.024   2.693 -0.0451  0.2734  0.0535
  970MOL0     C30819   5.281   1.029   2.634 -0.6205 -0.0731  0.4606
  970MOL0     C30820   5.174   1.082   2.702 -0.1047  0.5939 -0.5231
  970MOL0     C30821   5.044   1.059   2.672  1.4835  0.1745 -0.6823
  970MOL0     C30822   5.013   0.983   2.560  0.3416 -0.1430 -0.6606
  970MOL0     O30823   4.883   0.968   2.525  0.3239 -0.2835 -0.6531
  970MOL0     C30824   4.850   0.857   2.442  0.2898  0.6007  0.3084
  970MOL0     C30825   4.697   0.842   2.433 -0.7909  0.3537 -0.7871
  970MOL0     C30826   4.629   0.944   2.340 -0.0049 -0.3686  0.0250
  970MOL0     C30827   4.655   0.917   2.190  0.8341 -0.5445 -1.1269
  970MOL0     C30828   4.539   0.980   2.111 -0.1484  0.3930  0.2052
  970MOL0     C30829   4.533   0.910   1.969 -0.1265  0.3297 -0.1820
  970MOL0     C30830   4.609   0.976   1.856 -1.1917 -0.3296  0.3874
  970MOL0     C30831   4.593   0.899   1.720 -1.4389  0.5445 -0.6772
  970MOL0     N30832   4.456   0.892   1.676  0.0422 -0.4320 -0.9630
  970MOL0     C30833   4.381   1.008   1.646  0.6166 -0.2533  0.4838
  970MOL0     C30834   4.266   0.966   1.596  0.4455  0.0674  0.3096
  970MOL0     C30835   4.135   1.033   1.563 -0.9266  0.1385  0.0150
  970MOL0     C30836   4.172   1.154   1.465 -0.3152  0.4108 -0.4919
  970MOL0     C30837   4.053   1.192   1.377 -0.6318  0.2387  0.0061
  970MOL0     C30838   4.076   1.307   1.281  0.4653 -0.1638  0.5544
  970MOL0     O30839   4.073   1.439   1.343  0.5489 -0.3827 -0.3338
  970MOL0     C30840   4.182   1.475   1.419 -0.2538  0.6665  0.8455
  970MOL0     C30841   4.156   1.531   1.545  0.6875 -0.3723  0.1588
  970MOL0     C30842   4.256   1.596   1.612 -1.3592  0.0878  0.0713
  970MOL0     C30843   4.396   1.563   1.583  0.5885  0.1032 -1.0115
  970MOL0     C30844   4.505   1.613   1.675 -0.4193  0.7820 -1.2632
  970MOL0     O30845   4.621   1.639   1.612  0.0118 -0.8050  0.2151
  970MOL0     C30846   4.746   1.670   1.662 -0.5892  0.3275  0.4736
  970MOL0     C30847   4.778   1.696   1.792 -0.1971 -0.2184 -0.2679
  970MOL0     C30848   4.908   1.735   1.841  0.0283  0.2207  0.5512
  970MOL0     C30849   5.014   1.750   1.747  0.0642 -0.9507  0.4801
  970MOL0     O30850   5.143   1.779   1.787 -0.3334 -0.4524  0.5376
  970MOL0     C30851   5.195   1.715   1.899 -0.6322  0.6551 -0.3859
  970MOL0     C30852   5.333   1.759   1.922 -0.3043 -0.2344 -0.1419
  970MOL0     C30853   5.411   1.765   1.786 -0.0075 -0.1057  0.6094
  970MOL0     C30854   5.414   1.631   1.715 -0.2603  0.7702 -0.6058
  970MOL0     C30855   5.506   1.620   1.591 -0.5628  0.2251 -0.3101
  970MOL0     C30856   5.430   1.653   1.460 -0.0076 -0.1761  0.3689
  970MOL0     C30857   5.525   1.651   1.331 -0.9726 -0.0699 -0.3783
  970MOL0     C30858   5.440   1.643   1.201  0.4176  0.2852  0.2163
  970MOL0    Cl30859   5.360   1.789   1.146  0.8514 -0.4928  0.6999
  970MOL0     C30860   4.977   1.735   1.610 -0.1397  0.3734 -0.2471
  970MOL0     C30861   4.850   1.690   1.573  0.0804 -0.5892  0.0835
  970MOL0     O30862   4.486   1.609   1.797  0.3018  0.4881  0.3882
  970MOL0     C30863   4.415   1.486   1.472 -0.9815 -0.6493 -0.0336
  970MOL0     C30864   4.317   1.447   1.380  0.2582 -0.1788 -0.4519
  970MOL0     N30865   4.280   0.830   1.576  0.5119 -0.4202  0.8079
  970MOL0     N30866   4.388   0.789   1.627 -0.7609  0.6796  0.2648
  970MOL0     C30867   5.120   0.920   2.493 -0.1404  1.0958 -0.0319
  970MOL0     C30868   5.252   0.953   2.529  0.4972 -0.4101  0.6214
  970MOL0     C30869   5.621   1.137   2.701 -0.1857 -0.2587  0.0484
  970MOL0     C30870   5.734   1.110   2.629 -0.3926  0.0826  0.7951
  970MOL0     C30871   5.856   1.120   2.689 -0.0993 -0.3420 -0.7368
  970MOL0     C30872   5.865   1.159   2.828 -0.4706 -0.3566 -0.4739
  970MOL0     O30873   5.997   1.177   2.887 -0.0235 -0.6304  0.0475
  970MOL0     C30874   6.024   1.239   3.016 -0.6048 -0.2726  0.3155
  970MOL0     C30875   6.003   1.399   3.007  0.6573  0.1909  0.5090
  970MOL0     C30876   6.048   1.475   3.138 -0.2280  0.9391 -0.6288
  970MOL0     C30877   5.988   1.616   3.123  0.0194 -0.1614 -0.1277
  970MOL0     C30878   6.040   1.707   3.231  0.3247  0.1107  0.8014
  970MOL0     C30879   6.107   1.776   3.306 -0.2378  0.4418  0.1446
  970MOL0     C30880   5.752   1.179   2.904  0.6699  0.9026 -0.0206
  970MOL0     C30881   5.624   1.164   2.841 -0.0337  0.5798  0.7143
  970MOL0     C30882   5.502   1.185   2.928 -0.2039  0.7573  0.4188
  970MOL0     H30883   5.191   1.125   2.801 -0.2557 -1.1711  0.3044
  970MOL0     H30884   4.973   1.121   2.726  2.9435  2.6931 -1.4983
  970MOL0     H30885   4.889   0.885   2.344 -1.5071  0.8573 -0.3787
  970MOL0     H30886   4.893   0.763   2.477  1.0628  1.4327  1.6490
  970MOL0     H30887   4.651   0.855   2.532 -0.8678  1.0933 -0.9140
  970MOL0     H30888   4.675   0.741   2.398  2.1958 -0.5340 -0.3851
  970MOL0     H30889   4.668   1.042   2.368 -4.3936  1.7389 -0.3963
  970MOL0     H30890   4.519   0.939   2.341 -0.1472  1.6839 -1.1437
  970MOL0     H30891   4.754   0.948   2.156  1.4035  0.1577  0.9608
  970MOL0     H30892   4.637   0.810   2.185 -1.1551 -0.3016 -0.1595
  970MOL0     H30893   4.444   0.956   2.159 -0.2824  0.7784  0.1293
  970MOL0     H30894   4.551   1.087   2.092 -0.0085 -0.1463 -3.7235
  970MOL0     H30895   4.552   0.802   1.964 -0.0675  0.3045  0.4957
  970MOL0     H30896   4.431   0.917   1.930 -0.3604 -3.2933 -0.5432
  970MOL0     H30897   4.713   0.985   1.888  0.0777 -1.3608 -2.9414
  970MOL0     H30898   4.573   1.079   1.844  0.4654  0.4404  1.6653
  970MOL0     H30899   4.653   0.939   1.637  1.3394 -0.4061  0.7575
  970MOL0     H30900   4.633   0.798   1.732 -0.6800  0.5637 -2.6418
  970MOL0     H30901   4.393   1.111   1.678 -1.5766  1.2032 -2.8679
  970MOL0     H30902   4.076   0.962   1.505 -0.8292 -0.3505  0.5097
  970MOL0     H30903   4.075   1.063   1.649  2.1388 -0.7341  2.6569
  970MOL0     H30904   4.209   1.244   1.514 -2.0884  0.3476  1.1224
  970MOL0     H30905   4.256   1.125   1.402  1.1296 -0.1648  1.5856
  970MOL0     H30906   3.956   1.196   1.428 -1.3061  1.7903 -1.2962
  970MOL0     H30907   4.039   1.108   1.309  3.1728 -1.0880  0.5909
  970MOL0     H30908   3.996   1.312   1.206 -1.5337 -2.1099  2.4033
  970MOL0     H30909   4.168   1.282   1.228  0.1878  2.3406 -1.2645
  970MOL0     H30910   4.054   1.556   1.571  0.4986  2.2838 -2.5729
  970MOL0     H30911   4.221   1.652   1.698 -0.0128 -0.6702  1.1515
  970MOL0     H30912   4.702   1.680   1.868  0.3686  0.2770  0.4054
  970MOL0     H30913   4.922   1.757   1.946 -3.7445 -1.0707  1.4855
  970MOL0     H30914   5.139   1.731   1.991 -0.1047  0.9295 -0.1096
  970MOL0     H30915   5.188   1.607   1.879 -1.2398  0.9088 -1.6875
  970MOL0     H30916   5.340   1.858   1.969 -0.2903 -0.0142 -0.6082
  970MOL0     H30917   5.387   1.696   1.994  3.1671  0.8492 -1.5944
  970MOL0     H30918   5.373   1.846   1.723  2.9667  0.9028 -0.0918
  970MOL0     H30919   5.513   1.799   1.807 -0.1380  0.1431  0.8408
  970MOL0     H30920   5.315   1.608   1.674  0.8805 -1.4178 -2.3089
  970MOL0     H30921   5.436   1.554   1.790  1.0425  2.6400  1.0186
  970MOL0     H30922   5.549   1.520   1.577 -2.2169 -0.5920  0.2506
  970MOL0     H30923   5.596   1.683   1.594  1.5743 -2.6319  0.1734
  970MOL0     H30924   5.341   1.592   1.439 -0.0433  0.9534 -3.6891
  970MOL0     H30925   5.395   1.757   1.464 -0.6902 -0.3417 -0.8092
  970MOL0     H30926   5.584   1.559   1.332 -0.2896  0.3746  0.2937
  970MOL0     H30927   5.594   1.735   1.324 -2.4884  1.2764  0.3492
  970MOL0     H30928   5.506   1.622   1.116 -1.2502  1.3790 -1.4136
  970MOL0     H30929   5.363   1.564   1.205  1.0889 -0.7446 -3.5262
  970MOL0     H30930   5.051   1.754   1.533 -0.4980  1.5026 -0.3283
  970MOL0     H30931   4.829   1.692   1.466  1.2750 -0.5616 -0.1721
  970MOL0     H30932   4.519   1.470   1.447 -0.9232 -1.4703  0.6748
  970MOL0     H30933   4.342   1.412   1.280  1.1708 -0.7436 -0.0362
  970MOL0     H30934   5.111   0.863   2.401 -0.9051 -0.2716  0.8487
  970MOL0     H30935   5.337   0.902   2.483  1.5211  1.6245  0.0920
  970MOL0     H30936   5.725   1.083   2.524  0.7079  2.5427  0.0162
  970MOL0     H30937   5.946   1.116   2.628  1.3721  0.1911  1.2933
  970MOL0     H30938   6.127   1.214   3.041 -0.2847 -1.4833 -1.9248
  970MOL0     H30939   5.972   1.189   3.097 -0.8541 -0.3296  0.1230
  970MOL0     H30940   5.897   1.424   2.995  0.0398 -0.8804  3.0457
  970MOL0     H30941   6.052   1.434   2.916 -0.5138 -2.2837 -1.1593
  970MOL0     H30942   6.156   1.473   3.155 -0.4638  0.0154  1.0641
  970MOL0     H30943   6.013   1.429   3.231 -1.2568  3.4860  0.3354
  970MOL0     H30944   6.008   1.662   3.026  1.1503  2.4863  1.2806
  970MOL0     H30945   5.879   1.624   3.129  0.2516  2.4042  1.8102
  970MOL0     H30946   6.151   1.832   3.386 -1.4379  0.8139  0.5657
  970MOL0     H30947   5.766   1.176   3.012  3.1705 -1.5126 -0.3072
  970MOL0     H30948   5.524   1.215   3.031  0.4610  2.0961 -0.0868
  970MOL0     H30949   5.430   1.248   2.876 -0.1631  0.2090 -0.3266
  970MOL0     H30950   5.455   1.086   2.935  1.3280  0.0730  1.8882
  971MOL0     O30951   7.502   2.963   1.948  0.7805 -0.2723 -0.7871
  971MOL0     C30952   7.490   3.063   2.016 -0.0000 -0.2533 -1.5197
  971MOL0     O30953   7.366   3.134   2.046  0.0806  0.2015  0.4311
  971MOL0     C30954   7.242   3.073   2.043  0.2729 -0.0172 -0.0263
  971MOL0     C30955   7.170   3.093   2.163  0.6621  0.2357 -0.7264
  971MOL0     C30956   7.049   3.019   2.178  0.1725 -1.0588  0.8613
  971MOL0     C30957   6.996   2.944   2.065 -0.5345 -0.6216 -0.3102
  971MOL0     O30958   6.867   2.903   2.067 -0.7842  0.3306 -0.3695
  971MOL0     C30959   6.763   2.972   2.135 -0.3961  0.2226 -0.5686
  971MOL0     C30960   6.627   2.947   2.077 -0.1951 -0.5318  0.0660
  971MOL0     C30961   6.615   3.026   1.948  0.2572 -0.1386  0.4939
  971MOL0     C30962   6.501   2.969   1.862  0.1843 -1.0860 -0.5423
  971MOL0     C30963   6.518   3.019   1.726 -0.6299  0.2612  0.2448
  971MOL0     C30964   6.412   2.961   1.632 -0.2829  1.2523  0.6267
  971MOL0     C30965   6.430   2.999   1.485 -0.1143 -0.7471 -1.0852
  971MOL0     C30966   6.451   3.148   1.453 -0.6552  0.4908 -0.0734
  971MOL0     N30967   6.466   3.174   1.311  0.1754  0.3034  0.1020
  971MOL0     C30968   6.359   3.174   1.220  0.7456 -0.3454  0.1245
  971MOL0     C30969   6.422   3.206   1.100  0.1380  0.1280  0.5820
  971MOL0     C30970   6.381   3.192   0.955  0.6399 -0.0951 -1.3200
  971MOL0     C30971   6.231   3.174   0.937  0.2356  0.4583 -0.4106
  971MOL0     C30972   6.188   3.021   0.915  0.1106 -0.8260  0.2154
  971MOL0     C30973   6.237   2.964   0.780 -0.1852 -0.4645  0.2100
  971MOL0     O30974   6.181   3.039   0.672  0.0524 -0.2714  0.7339
  971MOL0     C30975   6.238   3.019   0.549  0.1622 -0.0053  0.0205
  971MOL0     C30976   6.257   3.123   0.457 -0.2139 -0.2414  0.2039
  971MOL0     C30977   6.320   3.107   0.332  0.7912 -0.2429 -0.7689
  971MOL0     C30978   6.360   2.971   0.292  0.0422  0.0453  0.5151
  971MOL0     C30979   6.427   2.956   0.159 -0.4494  0.5651 -0.6765
  971MOL0     O30980   6.447   3.069   0.088  0.1916  0.2565  0.4040
  971MOL0     C30981   6.499   3.073  -0.043  0.4872 -0.5726 -0.3204
  971MOL0     C30982   6.466   2.981  -0.136  0.6585 -0.1680  0.5778
  971MOL0     C30983   6.516   2.987  -0.263 -0.1129 -0.5166 -0.3176
  971MOL0     C30984   6.585   3.098  -0.308 -0.2115 -0.3716  0.4433
  971MOL0     O30985   6.623   3.099  -0.438 -0.0841 -0.8173 -0.3333
  971MOL0     C30986   6.715   3.193  -0.505 -0.3600 -0.2516  1.2297
  971MOL0     C30987   6.858   3.159  -0.475 -0.4145  0.0297 -0.1410
  971MOL0     C30988   6.959   3.272  -0.513 -0.7395 -0.5579  0.9986
  971MOL0     C30989   6.973   3.282  -0.664  0.1823 -1.2689  0.1442
  971MOL0     C30990   7.057   3.407  -0.698  0.5770 -0.0332 -0.9070
  971MOL0     C30991   7.093   3.403  -0.851  0.0960  0.8883  0.3667
  971MOL0     C30992   7.181   3.517  -0.901 -0.6193  0.2181 -0.5208
  971MOL0     C30993   7.126   3.659  -0.862 -0.0501 -0.2266  0.0401
  971MOL0    Cl30994   7.233   3.792  -0.917  0.2351 -0.4468  0.0905
  971MOL0     C30995   6.623   3.197  -0.208 -0.4623 -0.2406  1.2551
  971MOL0     C30996   6.583   3.182  -0.074  0.8118 -0.0232 -0.0224
  971MOL0     O30997   6.489   2.847   0.143  0.5683  0.7883  0.2827
  971MOL0     C30998   6.332   2.867   0.377 -0.6518  1.0099 -0.3121
  971MOL0     C30999   6.277   2.891   0.508  0.0206 -0.6495  0.2842
  971MOL0     N31000   6.555   3.241   1.131  0.4488  0.4490  0.0624
  971MOL0     N31001   6.582   3.227   1.255 -0.1299  0.7339 -0.2110
  971MOL0     C31002   7.068   2.927   1.948  0.0478  0.6872  0.4260
  971MOL0     C31003   7.196   2.993   1.934 -0.1491  0.6302  0.7464
  971MOL0     C31004   7.613   3.123   2.075  0.0104  0.6136 -0.1368
  971MOL0     C31005   7.600   3.230   2.166 -0.5924 -0.1400 -0.4850
  971MOL0     C31006   7.716   3.294   2.219  0.0588 -0.5861  0.5625
  971MOL0     C31007   7.845   3.241   2.199 -0.2501 -0.3882 -0.5106
  971MOL0     O31008   7.968   3.261   2.264 -0.3795 -0.0413 -0.2134
  971MOL0     C31009   7.964   3.380   2.349 -0.7711  0.1984  0.2616
  971MOL0     C31010   8.102   3.419   2.404 -0.2589 -0.5242  0.5026
  971MOL0     C31011   8.210   3.418   2.298  0.6393 -0.0241  0.8249
  971MOL0     C31012   8.346   3.437   2.347  0.9658 -1.2520 -0.6060
  971MOL0     C31013   8.448   3.398   2.246  0.2663 -0.2566 -0.2468
  971MOL0     C31014   8.529   3.369   2.169 -1.0012  0.0862  0.3492
  971MOL0     C31015   7.853   3.148   2.097  1.0136 -0.0224  0.1038
  971MOL0     C31016   7.742   3.087   2.034 -0.9138 -0.1183  0.3215
  971MOL0     C31017   7.781   2.982   1.929  0.0552  0.0953 -0.4412
  971MOL0     H31018   7.219   3.161   2.232 -0.4528  0.5258 -0.1962
  971MOL0     H31019   6.981   3.019   2.263 -4.7147  3.1964 -2.3932
  971MOL0     H31020   6.764   2.941   2.240 -0.8818 -0.0549 -0.6418
  971MOL0     H31021   6.775   3.081   2.134 -1.8187  0.4106 -2.0812
  971MOL0     H31022   6.553   2.987   2.147 -0.6566 -0.9810 -0.1522
  971MOL0     H31023   6.606   2.842   2.056 -0.2352 -0.8321  1.4944
  971MOL0     H31024   6.711   3.017   1.895 -1.2978  0.8503 -2.6977
  971MOL0     H31025   6.602   3.133   1.966  1.2706 -0.0317  0.6506
  971MOL0     H31026   6.486   2.861   1.863  1.0655 -1.2390  1.6148
  971MOL0     H31027   6.405   3.007   1.899  1.3536  1.9607 -0.3298
  971MOL0     H31028   6.496   3.125   1.737 -1.3207  0.0597  0.9242
  971MOL0     H31029   6.621   3.012   1.690  0.3444 -3.3740  3.0356
  971MOL0     H31030   6.413   2.852   1.635 -0.6309  1.2573  1.1383
  971MOL0     H31031   6.317   2.995   1.675 -1.3973 -0.3283 -0.4635
  971MOL0     H31032   6.354   2.950   1.423  1.5171 -4.6842 -0.2643
  971MOL0     H31033   6.527   2.959   1.451  0.7311  1.5693 -1.5617
  971MOL0     H31034   6.364   3.203   1.488 -2.3759 -0.9913 -1.8003
  971MOL0     H31035   6.536   3.185   1.512 -0.5959  0.5378 -0.1889
  971MOL0     H31036   6.256   3.143   1.235 -0.1126  2.2316  0.0206
  971MOL0     H31037   6.410   3.289   0.913 -0.4033 -0.3036 -2.5924
  971MOL0     H31038   6.445   3.125   0.898  1.4921  1.9706 -2.9481
  971MOL0     H31039   6.176   3.208   1.024 -3.0617 -0.7716 -1.8398
  971MOL0     H31040   6.195   3.240   0.858 -0.2890  0.6076 -0.0484
  971MOL0     H31041   6.080   3.013   0.924 -0.2091  3.1826  1.8864
  971MOL0     H31042   6.242   2.965   0.993  2.3875  1.1222  0.1681
  971MOL0     H31043   6.203   2.860   0.768  1.5489 -0.8016 -3.1099
  971MOL0     H31044   6.346   2.969   0.778 -0.0576  2.6341  4.1792
  971MOL0     H31045   6.229   3.220   0.498 -3.6441 -1.2844  0.6494
  971MOL0     H31046   6.347   3.199   0.281  1.1689  0.7688  1.1881
  971MOL0     H31047   6.394   2.904  -0.110 -0.6153  0.6580 -0.4116
  971MOL0     H31048   6.493   2.901  -0.326 -3.0966  0.7286 -1.1021
  971MOL0     H31049   6.705   3.202  -0.614  1.9687  1.7404  1.0999
  971MOL0     H31050   6.694   3.297  -0.482 -0.5133  1.0463 -3.6072
  971MOL0     H31051   6.865   3.147  -0.366 -1.4451  0.3214 -0.0264
  971MOL0     H31052   6.886   3.062  -0.515  2.4193  1.0753 -0.9269
  971MOL0     H31053   6.918   3.368  -0.478 -2.4073 -0.9511  0.2392
  971MOL0     H31054   7.055   3.254  -0.464  0.3565 -1.0991 -1.2135
  971MOL0     H31055   6.877   3.292  -0.716  0.7045 -3.1474 -1.3158
  971MOL0     H31056   7.027   3.192  -0.695  3.1836 -0.1937  1.8841
  971MOL0     H31057   7.151   3.399  -0.641  1.0106 -3.2572 -1.8734
  971MOL0     H31058   7.003   3.498  -0.669  0.3203 -0.5221  0.2295
  971MOL0     H31059   7.152   3.316  -0.881 -1.5592  0.8627 -3.2770
  971MOL0     H31060   7.003   3.410  -0.912  0.4037  0.1467 -0.1932
  971MOL0     H31061   7.185   3.522  -1.010  2.8145  0.0634 -0.4997
  971MOL0     H31062   7.286   3.512  -0.872 -0.9603 -2.2866  0.5398
  971MOL0     H31063   7.024   3.671  -0.900  0.0893  3.0969  0.4724
  971MOL0     H31064   7.118   3.662  -0.753  2.1659  0.7862  0.2326
  971MOL0     H31065   6.685   3.282  -0.230 -2.0233  0.5165 -0.5035
  971MOL0     H31066   6.602   3.256   0.004  1.4142  0.6589 -0.7873
  971MOL0     H31067   6.352   2.765   0.345 -1.5275  0.0942  1.9181
  971MOL0     H31068   6.272   2.806   0.575  1.1264  0.1401  1.3972
  971MOL0     H31069   7.034   2.867   1.864  4.5306 -1.2508 -0.3068
  971MOL0     H31070   7.257   2.995   1.844 -2.3839  0.4634 -0.8393
  971MOL0     H31071   7.507   3.276   2.200 -0.1631  1.1635 -1.0178
  971MOL0     H31072   7.715   3.374   2.292  1.9211  0.0230 -0.0079
  971MOL0     H31073   7.896   3.354   2.431 -0.3759 -1.7157  0.0366
  971MOL0     H31074   7.927   3.458   2.282 -1.0760 -0.0494  0.1394
  971MOL0     H31075   8.135   3.348   2.480 -0.1809 -0.2922  0.6852
  971MOL0     H31076   8.093   3.516   2.452 -0.0470 -0.5608  0.6158
  971MOL0     H31077   8.198   3.507   2.235 -2.5521 -0.8882  0.0226
  971MOL0     H31078   8.218   3.332   2.231  3.4870  0.4994  0.3381
  971MOL0     H31079   8.360   3.543   2.369  0.2987 -1.0884 -0.9142
  971MOL0     H31080   8.361   3.373   2.434  2.4355 -1.5789 -1.0890
  971MOL0     H31081   8.593   3.341   2.087 -1.2976  2.9528 -0.9815
  971MOL0     H31082   7.949   3.104   2.071 -0.8134 -2.1852 -4.1234
  971MOL0     H31083   7.884   2.946   1.931 -1.2954 -4.5225 -0.4742
  971MOL0     H31084   7.724   2.889   1.946 -1.1364  0.8379 -0.2406
  971MOL0     H31085   7.780   3.016   1.825  3.1084  0.4174 -0.4517
  972MOL0     O31086   3.886   5.923   1.806 -0.5981 -0.3127  0.6375
  972MOL0     C31087   3.916   6.040   1.811  0.2629 -0.5063  0.4175
  972MOL0     O31088   3.831   6.145   1.820 -0.5479  0.3738 -0.2548
  972MOL0     C31089   3.701   6.130   1.851  0.1254 -1.2976 -0.4383
  972MOL0     C31090   3.661   6.160   1.978 -0.9077 -0.2840  0.2848
  972MOL0     C31091   3.532   6.147   2.011  0.0585 -0.4641 -0.1711
  972MOL0     C31092   3.441   6.097   1.922  0.1778 -0.9463  1.3463
  972MOL0     O31093   3.316   6.089   1.962  0.0424 -0.0857 -0.4961
  972MOL0     C31094   3.278   6.028   2.088  1.0461  0.8539 -0.3637
  972MOL0     C31095   3.131   6.068   2.119 -0.8199  0.0014  0.3346
  972MOL0     C31096   3.024   6.020   2.019  0.0106  0.7737  0.3767
  972MOL0     C31097   2.884   6.084   2.055  0.1013 -0.0592  0.7170
  972MOL0     C31098   2.819   6.013   2.194  0.8222  1.3960  0.5777
  972MOL0     C31099   2.675   6.062   2.203 -0.3519  0.1604 -0.1562
  972MOL0     C31100   2.592   5.955   2.283 -0.1520 -0.1399 -0.0178
  972MOL0     C31101   2.455   6.019   2.315  0.4784  0.2196  0.3959
  972MOL0     N31102   2.458   6.163   2.347 -0.0266 -0.9649  0.5302
  972MOL0     C31103   2.506   6.230   2.460  0.8058  0.3543 -0.8443
  972MOL0     C31104   2.443   6.349   2.462  0.2484 -0.2622  0.6062
  972MOL0     C31105   2.484   6.465   2.553  0.5509 -0.3623 -0.8631
  972MOL0     C31106   2.615   6.550   2.525  0.2853 -0.6233 -0.3109
  972MOL0     C31107   2.600   6.671   2.437 -0.0871  0.2981  0.7022
  972MOL0     C31108   2.741   6.702   2.401 -0.3537 -0.1795  0.4782
  972MOL0     O31109   2.822   6.753   2.510 -0.5524  0.1733  0.0890
  972MOL0     C31110   2.949   6.796   2.477 -0.0956 -0.3003  0.7640
  972MOL0     C31111   3.029   6.823   2.588 -0.1388 -0.3879  0.1222
  972MOL0     C31112   3.146   6.894   2.574 -0.2937 -0.5497  1.5536
  972MOL0     C31113   3.203   6.925   2.450  1.0958  0.1095 -0.1846
  972MOL0     C31114   3.348   6.970   2.431  0.5160 -0.7529 -0.8186
  972MOL0     O31115   3.439   6.902   2.511 -0.3430  0.1522 -0.4472
  972MOL0     C31116   3.569   6.898   2.480 -0.4385  0.8337 -0.0321
  972MOL0     C31117   3.596   6.828   2.362  0.1874 -0.2801 -0.0592
  972MOL0     C31118   3.724   6.809   2.313 -0.0009  1.2369  0.6006
  972MOL0     C31119   3.832   6.865   2.382 -0.7048  0.2550 -0.2122
  972MOL0     O31120   3.961   6.845   2.326  0.2152  0.9297  0.5084
  972MOL0     C31121   4.075   6.827   2.418  0.6400 -0.2129 -0.0382
  972MOL0     C31122   4.193   6.744   2.356 -0.6711  0.0558  0.0181
  972MOL0     C31123   4.143   6.602   2.329 -0.0579 -0.3719  0.5461
  972MOL0     C31124   4.123   6.531   2.462 -0.5859  0.0050 -0.2796
  972MOL0     C31125   4.108   6.373   2.448 -0.0072 -0.5018  0.6559
  972MOL0     C31126   4.231   6.293   2.403 -0.1883  0.0374 -0.1287
  972MOL0     C31127   4.220   6.144   2.438 -0.8833 -0.1722 -0.4733
  972MOL0     C31128   4.285   6.059   2.334  0.4190  0.4083  0.9337
  972MOL0    Cl31129   4.184   6.066   2.179 -0.0301 -0.2381 -0.6678
  972MOL0     C31130   3.807   6.929   2.507  0.4540 -0.0185 -0.2809
  972MOL0     C31131   3.674   6.946   2.560  0.2479 -0.4626  1.1585
  972MOL0     O31132   3.381   7.041   2.336 -0.3094  0.1091  0.2974
  972MOL0     C31133   3.128   6.907   2.335  0.3432 -0.0112  0.7350
  972MOL0     C31134   3.008   6.830   2.352  0.3423  0.0243  0.0908
  972MOL0     N31135   2.355   6.350   2.354 -0.4925  0.2609  0.9814
  972MOL0     N31136   2.361   6.245   2.291 -1.2314 -0.1704 -0.3219
  972MOL0     C31137   3.480   6.065   1.789  0.3087  0.1596 -0.0292
  972MOL0     C31138   3.616   6.088   1.758  0.2293  0.4304 -0.1589
  972MOL0     C31139   4.061   6.077   1.797 -1.4027  0.7680 -0.2187
  972MOL0     C31140   4.108   6.203   1.741 -0.2151 -0.0439  0.7639
  972MOL0     C31141   4.236   6.249   1.746  0.2600  0.0444  0.0057
  972MOL0     C31142   4.335   6.160   1.791  0.4942 -0.1071 -0.2661
  972MOL0     O31143   4.470   6.179   1.783  0.2591 -0.1346  1.1110
  972MOL0     C31144   4.524   6.248   1.895  0.3045 -0.1820  0.0875
  972MOL0     C31145   4.674   6.260   1.889  0.7849  0.5631 -0.9337
  972MOL0     C31146   4.740   6.347   1.993  0.1203 -0.0800  0.8011
  972MOL0     C31147   4.895   6.369   1.976 -0.6169  0.8621  0.5844
  972MOL0     C31148   4.937   6.451   1.863 -0.6820  0.6162  0.3115
  972MOL0     C31149   4.956   6.532   1.773  0.2651  0.8181  0.1269
  972MOL0     C31150   4.295   6.039   1.851  1.0874 -0.0525  0.2551
  972MOL0     C31151   4.167   5.997   1.865 -0.0907  0.7289  0.5383
  972MOL0     C31152   4.140   5.863   1.922  0.4315 -1.2727 -0.3318
  972MOL0     H31153   3.735   6.187   2.053  0.3718 -0.5929 -0.8232
  972MOL0     H31154   3.513   6.170   2.116  2.5540 -2.0912  0.7276
  972MOL0     H31155   3.293   5.919   2.095  0.2394  0.7411 -0.2637
  972MOL0     H31156   3.338   6.078   2.165 -2.6220  1.1220  2.6156
  972MOL0     H31157   3.124   6.177   2.115 -3.3535 -0.0192  1.8379
  972MOL0     H31158   3.100   6.037   2.219 -0.7632  3.0969  1.4130
  972MOL0     H31159   3.011   5.912   2.029  0.6230  0.8496  2.4714
  972MOL0     H31160   3.056   6.062   1.923 -1.4431 -0.7129 -0.7998
  972MOL0     H31161   2.909   6.190   2.061  0.5939  0.0212 -1.7448
  972MOL0     H31162   2.819   6.067   1.969  0.7030  1.0758  0.0121
  972MOL0     H31163   2.813   5.904   2.183 -0.7648  1.2735  2.2586
  972MOL0     H31164   2.886   6.031   2.278  0.2883  0.2787  1.2621
  972MOL0     H31165   2.674   6.162   2.248  1.1234 -0.8007  2.2285
  972MOL0     H31166   2.632   6.073   2.103 -2.1915 -2.5888  0.2142
  972MOL0     H31167   2.641   5.926   2.376  1.8441  1.8526 -0.3591
  972MOL0     H31168   2.583   5.867   2.219  0.5357 -0.8231  0.8090
  972MOL0     H31169   2.388   5.999   2.231 -0.0438  1.1391  0.5788
  972MOL0     H31170   2.406   5.964   2.396  2.3360  0.9218  2.0863
  972MOL0     H31171   2.574   6.194   2.537 -1.5793 -2.0097  0.3275
  972MOL0     H31172   2.401   6.537   2.558  0.0574 -1.0143  1.8858
  972MOL0     H31173   2.492   6.429   2.656 -1.3946  0.3898 -0.4046
  972MOL0     H31174   2.646   6.586   2.623 -2.6575  0.0441  0.4973
  972MOL0     H31175   2.685   6.475   2.489  2.5794  0.5609  1.4325
  972MOL0     H31176   2.560   6.757   2.491 -0.5528 -0.7838  2.1502
  972MOL0     H31177   2.531   6.645   2.356  1.5508 -4.0469  0.4735
  972MOL0     H31178   2.740   6.779   2.324 -1.0609  0.5893  1.2422
  972MOL0     H31179   2.791   6.615   2.356 -0.4012 -0.9613  1.8683
  972MOL0     H31180   2.994   6.795   2.687 -0.7207  1.1853  0.3960
  972MOL0     H31181   3.210   6.909   2.661  2.2547 -1.4980 -0.0463
  972MOL0     H31182   3.516   6.780   2.306  2.1625  0.3622 -3.7982
  972MOL0     H31183   3.752   6.751   2.226 -2.0254 -2.5784  2.2330
  972MOL0     H31184   4.112   6.927   2.442 -2.8428  1.1413  0.1717
  972MOL0     H31185   4.054   6.775   2.512  2.1390 -2.0324 -0.6398
  972MOL0     H31186   4.221   6.796   2.264 -0.3195 -0.4336 -0.1535
  972MOL0     H31187   4.282   6.744   2.420  2.1172 -0.6884 -3.5508
  972MOL0     H31188   4.051   6.607   2.270  2.1690  0.6757 -3.1762
  972MOL0     H31189   4.214   6.547   2.267  1.3445 -1.0494  2.6422
  972MOL0     H31190   4.034   6.574   2.510  1.5267  2.2070  1.9536
  972MOL0     H31191   4.203   6.557   2.532 -1.2922  0.0544  0.5374
  972MOL0     H31192   4.032   6.357   2.372  1.3748  0.6662 -1.0565
  972MOL0     H31193   4.081   6.331   2.545  2.1604 -1.0455  1.0743
  972MOL0     H31194   4.244   6.302   2.295 -2.8798 -0.0121 -0.5306
  972MOL0     H31195   4.327   6.331   2.437  0.3786  0.8737 -2.4677
  972MOL0     H31196   4.118   6.112   2.461 -0.9804  1.3836  1.4979
  972MOL0     H31197   4.277   6.123   2.529  2.6354 -0.1683 -2.4839
  972MOL0     H31198   4.391   6.083   2.315  1.4916 -3.1252  1.6726
  972MOL0     H31199   4.276   5.953   2.362 -2.4934 -0.5762 -2.8831
  972MOL0     H31200   3.889   6.981   2.556 -0.3885 -0.3306  1.5157
  972MOL0     H31201   3.658   7.011   2.646  0.6561 -1.6573  2.1785
  972MOL0     H31202   3.153   6.944   2.236  2.7748  1.3044  1.7557
  972MOL0     H31203   2.944   6.797   2.270  1.8939 -0.7024 -0.8778
  972MOL0     H31204   3.410   6.024   1.717 -1.2540  2.6774 -0.0624
  972MOL0     H31205   3.655   6.077   1.657  0.1627 -0.7181 -0.0754
  972MOL0     H31206   4.030   6.262   1.694 -0.1132  0.5436  1.3191
  972MOL0     H31207   4.268   6.341   1.698  1.2563 -0.3025 -0.0303
  972MOL0     H31208   4.475   6.206   1.983 -0.6598 -2.4289 -1.4115
  972MOL0     H31209   4.480   6.348   1.896 -1.1730 -0.8128 -0.2213
  972MOL0     H31210   4.698   6.302   1.791 -1.7366  0.3740 -1.7031
  972MOL0     H31211   4.707   6.156   1.900 -0.4705  0.3441  1.5246
  972MOL0     H31212   4.724   6.288   2.083 -0.0956  0.5776  1.1909
  972MOL0     H31213   4.702   6.449   1.993  3.7488  1.4538 -0.2217
  972MOL0     H31214   4.935   6.413   2.067 -0.9167  0.1198  1.0790
  972MOL0     H31215   4.950   6.275   1.972 -0.7560  0.8096 -1.1577
  972MOL0     H31216   4.972   6.596   1.688 -0.4650  0.4029 -0.3355
  972MOL0     H31217   4.372   5.966   1.873 -0.7856 -1.9750  0.7389
  972MOL0     H31218   4.118   5.787   1.846 -2.5023 -2.2867  1.3611
  972MOL0     H31219   4.219   5.825   1.988 -0.5176 -1.3656  0.7845
  972MOL0     H31220   4.053   5.871   1.988  0.6653  1.4089 -0.2550
  973MOL0     O31221   7.790   9.098  11.394  0.5045 -0.1776  0.7390
  973MOL0     C31222   7.881   9.170  11.429  0.3356  0.4190  0.7915
  973MOL0     O31223   7.870   9.284  11.500  0.3450 -0.5648 -0.2182
  973MOL0     C31224   7.746   9.339  11.515  0.1624 -0.2085 -0.2183
  973MOL0     C31225   7.645   9.284  11.594  0.1224  0.0506 -0.4277
  973MOL0     C31226   7.527   9.341  11.621  0.4586  1.0136 -0.0760
  973MOL0     C31227   7.497   9.466  11.569 -0.4471  0.3854  1.3547
  973MOL0     O31228   7.379   9.516  11.597 -0.5883 -0.7317 -0.4475
  973MOL0     C31229   7.331   9.629  11.519 -0.4267  0.4123 -0.3478
  973MOL0     C31230   7.374   9.759  11.581 -0.3756  0.9412 -0.6429
  973MOL0     C31231   7.339   9.767  11.730 -0.0756 -0.0520  0.1262
  973MOL0     C31232   7.443   9.833  11.816 -0.5900 -0.0741 -0.4411
  973MOL0     C31233   7.373   9.867  11.950 -0.1106  0.5496  0.1235
  973MOL0     C31234   7.469   9.912  12.054 -0.2474  0.6304 -0.3387
  973MOL0     C31235   7.571  10.025  12.024  1.2948  0.1544  0.0981
  973MOL0     C31236   7.623  10.092  12.150 -0.8121  0.6500  0.0411
  973MOL0     N31237   7.735  10.016  12.213  0.1322  0.0772  0.3715
  973MOL0     C31238   7.723   9.912  12.306  0.0024 -1.0935  0.0099
  973MOL0     C31239   7.840   9.921  12.376  0.1316 -1.0940  0.8093
  973MOL0     C31240   7.888   9.803  12.459 -0.7059  0.5990 -0.3323
  973MOL0     C31241   7.818   9.771  12.592  0.0096  0.7135  0.0201
  973MOL0     C31242   7.832   9.883  12.699  0.1606 -0.1532 -0.3435
  973MOL0     C31243   7.824   9.829  12.844  0.9397 -0.0824 -0.3760
  973MOL0     O31244   7.838   9.952  12.912 -0.2517  0.5746 -0.5323
  973MOL0     C31245   7.846   9.945  13.048  0.0141  1.0649 -0.0988
  973MOL0     C31246   7.834  10.067  13.110 -0.6512  0.0121  0.0917
  973MOL0     C31247   7.809  10.073  13.243  0.3353 -0.4913  1.1081
  973MOL0     C31248   7.810   9.959  13.331  0.3280  0.4646  0.2910
  973MOL0     C31249   7.778   9.963  13.474 -0.6194 -0.6233  0.9428
  973MOL0     O31250   7.806  10.086  13.522  0.1670  0.1130  0.1710
  973MOL0     C31251   7.764  10.109  13.653 -0.3569 -0.0186 -0.4032
  973MOL0     C31252   7.865  10.134  13.750  0.2451  0.4121  0.9869
  973MOL0     C31253   7.846  10.161  13.884 -1.2441  0.0094  0.0943
  973MOL0     C31254   7.708  10.188  13.925 -0.0801  0.3280  0.6893
  973MOL0     O31255   7.670  10.229  14.050  0.3211  0.6954 -0.4517
  973MOL0     C31256   7.777  10.268  14.131 -0.4069  0.8013 -0.3667
  973MOL0     C31257   7.731  10.345  14.248 -0.8559  0.6104  0.4616
  973MOL0     C31258   7.620  10.275  14.319 -0.6791  0.6463 -0.3378
  973MOL0     C31259   7.555  10.369  14.419 -0.5257  0.5871  0.8939
  973MOL0     C31260   7.405  10.339  14.452  1.3629  0.5559 -0.0254
  973MOL0     C31261   7.303  10.368  14.340  0.9705 -0.1135  0.5156
  973MOL0     C31262   7.168  10.361  14.395  0.4302  0.2986 -0.6793
  973MOL0     C31263   7.075  10.265  14.312 -0.2976 -0.3996  0.4884
  973MOL0    Cl31264   6.896  10.296  14.372 -0.6874 -0.2954  0.2036
  973MOL0     C31265   7.607  10.172  13.825  0.1361 -0.2737  0.4520
  973MOL0     C31266   7.635  10.136  13.689  1.0295 -0.1165  0.1750
  973MOL0     O31267   7.722   9.870  13.534  0.5061  0.6619  0.3715
  973MOL0     C31268   7.818   9.831  13.262  0.6258 -0.9296 -0.5195
  973MOL0     C31269   7.846   9.829  13.123  0.3247 -0.4717  0.3071
  973MOL0     N31270   7.927  10.029  12.327  0.3545  0.2919 -0.2294
  973MOL0     N31271   7.859  10.083  12.228 -0.3076  0.4604 -0.2625
  973MOL0     C31272   7.585   9.526  11.483  0.4728  0.4085 -0.0148
  973MOL0     C31273   7.711   9.466  11.456 -1.0168  0.7526  0.3976
  973MOL0     C31274   8.013   9.133  11.381  0.7116 -0.2967  0.4408
  973MOL0     C31275   8.115   9.229  11.383  0.3545  0.8872  0.2340
  973MOL0     C31276   8.246   9.200  11.337 -0.1847 -0.4069  0.1684
  973MOL0     C31277   8.271   9.074  11.288  0.0563 -0.0585  0.3565
  973MOL0     O31278   8.398   9.062  11.237  0.1878  0.3846 -0.1294
  973MOL0     C31279   8.454   8.939  11.182 -0.0390  0.4593  0.4966
  973MOL0     C31280   8.425   8.935  11.027  0.3164  1.1895 -0.9964
  973MOL0     C31281   8.505   8.828  10.956 -0.0440  0.8409 -0.7185
  973MOL0     C31282   8.471   8.685  10.980  0.5855  0.2711  0.7472
  973MOL0     C31283   8.535   8.627  11.094 -0.7410  0.9032  0.1017
  973MOL0     C31284   8.604   8.568  11.172 -0.2821  0.0190  0.0904
  973MOL0     C31285   8.172   8.981  11.281 -0.1814  0.1477  0.1623
  973MOL0     C31286   8.043   9.009  11.323  1.6852  0.3132 -0.0020
  973MOL0     C31287   7.942   8.898  11.300  0.5293  0.4256 -0.1336
  973MOL0     H31288   7.677   9.188  11.634 -4.1819 -0.4586  2.3787
  973MOL0     H31289   7.448   9.303  11.686 -0.9867  1.9322 -1.2283
  973MOL0     H31290   7.367   9.616  11.416 -1.7783  0.0499 -0.7847
  973MOL0     H31291   7.224   9.608  11.526 -0.2741  0.0609  1.4138
  973MOL0     H31292   7.331   9.843  11.527 -1.6763  1.2745  0.8267
  973MOL0     H31293   7.480   9.772  11.560 -0.5837 -1.7335 -4.4649
  973MOL0     H31294   7.320   9.670  11.778 -1.0159  0.9497  1.8390
  973MOL0     H31295   7.241   9.814  11.741 -1.0637 -2.0246  0.2184
  973MOL0     H31296   7.530   9.767  11.826 -0.2605  0.5246  0.9369
  973MOL0     H31297   7.467   9.930  11.771  0.1269  0.1691  0.4221
  973MOL0     H31298   7.309   9.953  11.931 -1.6099 -0.6543 -0.5096
  973MOL0     H31299   7.315   9.784  11.992  0.8285 -0.6133 -0.8042
  973MOL0     H31300   7.413   9.942  12.143 -3.4935 -1.5624 -1.4604
  973MOL0     H31301   7.536   9.829  12.078  0.4018  1.0750 -0.5920
  973MOL0     H31302   7.512  10.106  11.980  1.9617  1.8287  2.1257
  973MOL0     H31303   7.652   9.997  11.955  0.6641 -1.2279 -0.1203
  973MOL0     H31304   7.645  10.196  12.123 -3.2365  1.4526  0.9624
  973MOL0     H31305   7.542  10.073  12.220  0.8024 -1.4551  1.4257
  973MOL0     H31306   7.650   9.833  12.322  2.0182 -2.7446  1.5335
  973MOL0     H31307   7.889   9.710  12.401 -0.4985  1.3921 -1.6393
  973MOL0     H31308   7.995   9.816  12.479 -0.6913 -1.3662  1.2027
  973MOL0     H31309   7.714   9.744  12.571  0.5504 -0.3850 -1.4743
  973MOL0     H31310   7.861   9.678  12.630  1.2961  1.0657 -0.5276
  973MOL0     H31311   7.762   9.962  12.669  2.2360  0.4351 -4.1865
  973MOL0     H31312   7.932   9.929  12.698 -0.1532  0.7229  1.7644
  973MOL0     H31313   7.904   9.758  12.865  1.7466 -0.2307 -3.4116
  973MOL0     H31314   7.724   9.786  12.863  1.3683 -1.0637 -0.2556
  973MOL0     H31315   7.855  10.153  13.048  3.3809 -1.1534 -0.4656
  973MOL0     H31316   7.815  10.176  13.278  3.3331 -0.2763  0.2739
  973MOL0     H31317   7.966  10.116  13.713  0.4752  1.7714  0.8813
  973MOL0     H31318   7.934  10.144  13.945  0.0713 -0.9762 -1.9812
  973MOL0     H31319   7.822  10.176  14.170  0.7345  0.3029 -2.6593
  973MOL0     H31320   7.858  10.317  14.075 -0.7622  3.2444  1.1477
  973MOL0     H31321   7.814  10.361  14.318 -1.4828  4.9236  0.5241
  973MOL0     H31322   7.704  10.448  14.223 -0.1555  0.9801  1.1631
  973MOL0     H31323   7.550  10.231  14.247  0.6334  0.0065 -1.2723
  973MOL0     H31324   7.666  10.198  14.382 -2.0248 -1.1700 -1.4508
  973MOL0     H31325   7.559  10.472  14.384 -0.7917  0.8930  1.7514
  973MOL0     H31326   7.613  10.373  14.511  3.2732  3.4394 -1.3266
  973MOL0     H31327   7.371  10.402  14.535 -0.8125 -1.3737  0.6366
  973MOL0     H31328   7.370  10.244  14.493 -1.8886  2.9377  3.4149
  973MOL0     H31329   7.328  10.464  14.292  3.3718  0.7460  3.2285
  973MOL0     H31330   7.321  10.279  14.279  1.3286 -0.9468  1.8117
  973MOL0     H31331   7.120  10.460  14.390 -1.9624 -0.8392 -1.4639
  973MOL0     H31332   7.167  10.322  14.497  1.9343 -1.1802 -1.1917
  973MOL0     H31333   7.078  10.290  14.206  0.7488 -2.4778 -0.0246
  973MOL0     H31334   7.112  10.163  14.328  0.7107 -0.1953 -0.3862
  973MOL0     H31335   7.499  10.177  13.837 -0.3735 -2.8870 -1.9283
  973MOL0     H31336   7.559  10.143  13.612  3.1104 -2.4819 -2.3125
  973MOL0     H31337   7.826   9.745  13.328  0.0527  0.1350  1.0038
  973MOL0     H31338   7.874   9.735  13.075 -1.9097 -0.6967 -0.6786
  973MOL0     H31339   7.569   9.623  11.436 -1.4981 -0.0511 -0.3919
  973MOL0     H31340   7.776   9.517  11.386 -0.5186 -0.6734 -0.2224
  973MOL0     H31341   8.087   9.330  11.413 -0.4254  1.3849 -2.0015
  973MOL0     H31342   8.325   9.273  11.329 -0.9830  0.2735 -1.8708
  973MOL0     H31343   8.410   8.848  11.225 -1.6285  0.8710 -0.1902
  973MOL0     H31344   8.558   8.941  11.216  0.7999 -2.4872 -1.4327
  973MOL0     H31345   8.458   9.033  10.993  1.0616  0.9856 -0.8726
  973MOL0     H31346   8.316   8.933  11.017 -0.1544  1.1098  2.7683
  973MOL0     H31347   8.614   8.840  10.962  0.1308 -0.9977  2.5302
  973MOL0     H31348   8.483   8.838  10.850 -1.1546 -0.4460 -0.6347
  973MOL0     H31349   8.365   8.664  10.992  0.8393 -1.6458  0.0077
  973MOL0     H31350   8.498   8.630  10.889 -0.8468 -1.9399  1.5894
  973MOL0     H31351   8.674   8.528  11.241  1.6395  0.1238 -1.6965
  973MOL0     H31352   8.202   8.880  11.254  0.8804  0.8911 -1.5977
  973MOL0     H31353   7.884   8.875  11.390  1.1948 -0.1026  0.1760
  973MOL0     H31354   7.866   8.926  11.227 -0.9670 -0.5393  0.9754
  973MOL0     H31355   7.987   8.812  11.248  0.9960  2.5703 -3.5713
  974MOL0     O31356   2.086   0.843   0.035  0.0957 -0.5804  0.5961
  974MOL0     C31357   2.147   0.758   0.096 -0.0422  0.2993  0.9850
  974MOL0     O31358   2.091   0.687   0.195  0.5440  0.2712 -0.1903
  974MOL0     C31359   1.948   0.664   0.187 -0.0998  0.0254 -0.1339
  974MOL0     C31360   1.849   0.751   0.155  0.8510  0.2000  0.3583
  974MOL0     C31361   1.714   0.719   0.170  0.2522  0.5941  0.7551
  974MOL0     C31362   1.673   0.590   0.211  0.6288  0.3333 -0.4405
  974MOL0     O31363   1.535   0.555   0.209  0.3164 -0.2252 -0.6418
  974MOL0     C31364   1.460   0.599   0.094 -1.4082 -0.7240  0.3741
  974MOL0     C31365   1.331   0.526   0.096 -0.0400  0.6315  0.4072
  974MOL0     C31366   1.251   0.548   0.216 -0.3865  0.1142  0.1391
  974MOL0     C31367   1.133   0.455   0.196  0.2935  0.7528 -0.1895
  974MOL0     C31368   1.033   0.455   0.309 -1.0493 -0.2240 -0.0778
  974MOL0     C31369   0.956   0.585   0.316  0.3304  0.4723 -0.3893
  974MOL0     C31370   0.836   0.571   0.421 -0.3001  0.3593  0.3375
  974MOL0     C31371   0.883   0.569   0.563 -0.0752  0.2085 -0.0074
  974MOL0     N31372   0.982   0.677   0.608  0.5104  0.6684  0.4184
  974MOL0     C31373   1.116   0.682   0.578 -0.4265  0.0971  0.5653
  974MOL0     C31374   1.146   0.804   0.623  0.1949 -0.6654 -0.2248
  974MOL0     C31375   1.276   0.872   0.626 -0.4072 -0.4883  0.0746
  974MOL0     C31376   1.354   0.836   0.755 -0.0661 -0.1213 -0.1645
  974MOL0     C31377   1.494   0.885   0.763 -0.4923  0.1155 -0.0229
  974MOL0     C31378   1.571   0.830   0.880  0.7224 -0.2433 -0.7244
  974MOL0     O31379   1.605   0.690   0.865 -0.6182 -0.7227 -0.3442
  974MOL0     C31380   1.679   0.636   0.963  0.1148  0.2121 -0.0049
  974MOL0     C31381   1.732   0.698   1.080 -0.1887  0.4193  0.3715
  974MOL0     C31382   1.812   0.635   1.175  0.6761 -0.3560 -0.2820
  974MOL0     C31383   1.835   0.493   1.164 -0.4179  0.0019 -0.4976
  974MOL0     C31384   1.923   0.416   1.252 -0.1846 -1.6538 -0.1962
  974MOL0     O31385   2.006   0.495   1.337  0.3061  0.1837 -0.5904
  974MOL0     C31386   2.074   0.442   1.445  0.0349 -0.2643  1.2165
  974MOL0     C31387   2.013   0.366   1.537 -0.6732 -0.7194 -0.1040
  974MOL0     C31388   2.092   0.307   1.643  1.1221 -0.4013  0.3752
  974MOL0     C31389   2.220   0.342   1.664 -0.2011  0.4466  0.1005
  974MOL0     O31390   2.267   0.289   1.776  0.6542 -0.0838  0.2039
  974MOL0     C31391   2.409   0.292   1.800 -0.6664 -0.3917 -0.3060
  974MOL0     C31392   2.441   0.431   1.860 -0.3307  0.9765  0.8125
  974MOL0     C31393   2.591   0.469   1.865 -1.7616 -0.1685 -0.3063
  974MOL0     C31394   2.627   0.565   1.988 -1.0499 -0.7942  0.7482
  974MOL0     C31395   2.773   0.618   1.971 -0.1181 -0.1645  0.2908
  974MOL0     C31396   2.771   0.749   2.050  0.5848 -0.3839 -0.4854
  974MOL0     C31397   2.903   0.817   2.085 -0.0646  0.8190 -0.0290
  974MOL0     C31398   2.878   0.912   2.198 -0.4679  0.4304  0.0363
  974MOL0    Cl31399   3.040   0.958   2.256 -0.0518  0.3999 -0.3720
  974MOL0     C31400   2.280   0.436   1.578  0.1011 -0.3458 -0.7858
  974MOL0     C31401   2.211   0.478   1.461  0.3939 -0.4585  0.2543
  974MOL0     O31402   1.915   0.295   1.253 -0.3844 -0.2989  0.0337
  974MOL0     C31403   1.782   0.431   1.048 -0.5002 -0.0971  0.8794
  974MOL0     C31404   1.703   0.502   0.957 -0.2692  0.0303 -0.2253
  974MOL0     N31405   1.035   0.860   0.688 -0.0338  0.1874  0.2103
  974MOL0     N31406   0.933   0.789   0.660 -0.7564  0.5226 -0.4639
  974MOL0     C31407   1.772   0.504   0.262  0.5571  0.3298  0.1220
  974MOL0     C31408   1.908   0.547   0.249  0.5142  0.1774 -0.4726
  974MOL0     C31409   2.299   0.770   0.070 -0.6084  0.5017  0.4538
  974MOL0     C31410   2.382   0.709   0.168 -0.2943 -0.2500  0.2841
  974MOL0     C31411   2.523   0.723   0.162 -0.0903  0.3185  0.2388
  974MOL0     C31412   2.579   0.786   0.058  0.0582 -0.5478 -0.6266
  974MOL0     O31413   2.715   0.780   0.066 -0.2846 -0.1046  0.2547
  974MOL0     C31414   2.789   0.754  -0.053  1.5986  0.2609 -0.0099
  974MOL0     C31415   2.764   0.615  -0.114 -0.5542 -0.2462  0.5148
  974MOL0     C31416   2.796   0.500  -0.014 -0.2109 -0.4352  0.1437
  974MOL0     C31417   2.905   0.411  -0.085 -0.2210  0.2409 -0.2962
  974MOL0     C31418   2.919   0.283  -0.008  0.1028 -0.0977  0.2024
  974MOL0     C31419   2.947   0.188   0.061 -0.3832  0.6289 -0.0624
  974MOL0     C31420   2.501   0.838  -0.037  0.4419  0.0477  0.8255
  974MOL0     C31421   2.365   0.834  -0.046  0.4685 -0.5359 -0.0449
  974MOL0     C31422   2.298   0.902  -0.156 -0.6665 -0.1844 -0.2138
  974MOL0     H31423   1.865   0.845   0.103 -0.9308 -0.1629 -0.9662
  974MOL0     H31424   1.645   0.802   0.155  0.3887  0.4748 -0.7004
  974MOL0     H31425   1.451   0.708   0.098  1.6919 -0.3892  1.5419
  974MOL0     H31426   1.513   0.572   0.002 -0.8103  0.3306  0.3824
  974MOL0     H31427   1.352   0.419   0.087 -2.0155  0.2272  0.1789
  974MOL0     H31428   1.278   0.550   0.003  2.0722  0.7880 -0.8295
  974MOL0     H31429   1.212   0.651   0.219 -0.5042  0.1212 -1.1096
  974MOL0     H31430   1.307   0.528   0.308  2.3562 -3.8938 -2.1296
  974MOL0     H31431   1.090   0.470   0.096  0.5151  0.6016 -0.3072
  974MOL0     H31432   1.168   0.352   0.206 -1.1872 -0.0296 -2.2118
  974MOL0     H31433   0.966   0.369   0.300  0.6808 -2.0434  2.6968
  974MOL0     H31434   1.079   0.434   0.407  0.3967  1.2028 -0.4080
  974MOL0     H31435   1.030   0.665   0.326  2.9222 -1.4901 -2.3030
  974MOL0     H31436   0.913   0.598   0.216  0.7306  1.9241 -0.3864
  974MOL0     H31437   0.786   0.474   0.411  0.9967 -1.0267  5.0552
  974MOL0     H31438   0.760   0.649   0.408 -0.7712 -0.0642  0.5194
  974MOL0     H31439   0.803   0.559   0.637 -0.8756 -3.4771 -1.1535
  974MOL0     H31440   0.936   0.473   0.569 -3.9925 -2.2699 -1.1145
  974MOL0     H31441   1.184   0.606   0.539  0.2825  0.8423  0.3240
  974MOL0     H31442   1.332   0.840   0.537 -2.2025 -0.0789 -1.2613
  974MOL0     H31443   1.251   0.978   0.626  1.1777 -0.0795  1.1755
  974MOL0     H31444   1.302   0.872   0.844  2.1022 -1.2272  1.6525
  974MOL0     H31445   1.356   0.727   0.757  1.4571 -0.1031  1.3422
  974MOL0     H31446   1.496   0.994   0.764 -0.1800  0.1106  1.0552
  974MOL0     H31447   1.541   0.852   0.670  1.4766  0.7758  0.6914
  974MOL0     H31448   1.510   0.843   0.969  1.0989 -2.8879  0.0106
  974MOL0     H31449   1.657   0.897   0.890  0.7774 -0.6614  2.8361
  974MOL0     H31450   1.719   0.803   1.102 -4.1596 -0.2371  1.9274
  974MOL0     H31451   1.838   0.686   1.267 -1.2611  0.7218 -0.2842
  974MOL0     H31452   1.906   0.354   1.523 -0.2161 -2.7884 -2.5167
  974MOL0     H31453   2.046   0.236   1.710  0.9450  1.9293  2.8926
  974MOL0     H31454   2.429   0.208   1.868  1.6010 -0.2928 -0.7686
  974MOL0     H31455   2.461   0.274   1.706 -1.0055 -1.1314 -0.3641
  974MOL0     H31456   2.376   0.502   1.809  0.8385  0.5989 -1.2914
  974MOL0     H31457   2.409   0.426   1.965 -3.2313 -2.0892 -0.0465
  974MOL0     H31458   2.644   0.376   1.889  3.1562  1.9936 -1.6474
  974MOL0     H31459   2.620   0.506   1.767 -1.5980  3.2457  0.9096
  974MOL0     H31460   2.617   0.512   2.083  0.2693  1.8827  2.5006
  974MOL0     H31461   2.557   0.648   1.999  2.6093  2.6341  0.3115
  974MOL0     H31462   2.808   0.623   1.867  0.6098 -0.0206  0.5303
  974MOL0     H31463   2.855   0.556   2.010  3.5123  2.2560 -2.6952
  974MOL0     H31464   2.717   0.824   1.992  0.0208  1.5130  2.2902
  974MOL0     H31465   2.712   0.728   2.139 -2.4156 -1.7200 -2.6482
  974MOL0     H31466   2.933   0.877   1.998  1.0596 -3.1211 -2.5840
  974MOL0     H31467   2.978   0.740   2.104 -0.6079 -0.2342 -1.8770
  974MOL0     H31468   2.817   0.993   2.158  0.3331 -0.2595 -2.8129
  974MOL0     H31469   2.823   0.868   2.283  1.3544  1.9494  2.1268
  974MOL0     H31470   2.387   0.452   1.589  0.4128 -1.9378 -1.3154
  974MOL0     H31471   2.259   0.529   1.378 -3.5117 -0.2616 -2.1295
  974MOL0     H31472   1.800   0.325   1.036  0.3461  0.2474 -1.4016
  974MOL0     H31473   1.652   0.442   0.883 -1.3738 -2.3773  2.3098
  974MOL0     H31474   1.742   0.402   0.285 -0.7690  0.8380  0.7579
  974MOL0     H31475   1.990   0.479   0.273  0.9407  0.2817 -1.5973
  974MOL0     H31476   2.335   0.657   0.251  1.9245 -0.5059  1.4675
  974MOL0     H31477   2.579   0.675   0.241  0.2809  1.6036  0.7762
  974MOL0     H31478   2.896   0.761  -0.035  1.6268 -1.8993  0.9193
  974MOL0     H31479   2.754   0.826  -0.128 -0.9237  1.3772  2.0842
  974MOL0     H31480   2.827   0.604  -0.203  0.9545  1.8918  1.2233
  974MOL0     H31481   2.664   0.605  -0.157  0.2573  0.0861 -1.6001
  974MOL0     H31482   2.707   0.436  -0.010 -1.9691  1.3340 -4.0276
  974MOL0     H31483   2.821   0.536   0.086  0.0670 -1.3975  0.4281
  974MOL0     H31484   2.885   0.393  -0.191  3.0220  0.7586 -1.1033
  974MOL0     H31485   2.999   0.466  -0.081  0.9026 -1.5686 -0.4986
  974MOL0     H31486   2.966   0.103   0.124 -3.8848  0.7873  1.4259
  974MOL0     H31487   2.552   0.884  -0.120  0.7539  2.4362  2.2543
  974MOL0     H31488   2.210   0.843  -0.184  1.3055 -3.0752 -0.7784
  974MOL0     H31489   2.273   1.006  -0.134  1.9122  0.8669 -1.8023
  974MOL0     H31490   2.366   0.900  -0.242  0.0414  1.9692  0.2441
  975MOL0     O31491   7.663   5.797   0.423 -0.6096 -0.1526  0.7726
  975MOL0     C31492   7.618   5.702   0.357 -0.8586  0.6036 -0.1573
  975MOL0     O31493   7.658   5.663   0.230  0.1787 -0.3261 -1.0244
  975MOL0     C31494   7.754   5.741   0.167  0.1238  1.3684 -0.2021
  975MOL0     C31495   7.886   5.749   0.221  0.8327 -0.1717 -0.4544
  975MOL0     C31496   7.979   5.831   0.158  0.2399 -0.1676  0.2477
  975MOL0     C31497   7.944   5.903   0.045  0.0208  0.3773 -0.8367
  975MOL0     O31498   8.023   5.981  -0.021  0.2990 -0.3108 -0.8454
  975MOL0     C31499   8.054   6.107   0.057  0.1318  0.0298  0.1497
  975MOL0     C31500   8.133   6.214  -0.030 -0.8115  0.5094  0.9304
  975MOL0     C31501   8.280   6.187  -0.032  0.6094  0.7235  0.2618
  975MOL0     C31502   8.360   6.291   0.034 -1.1069 -0.0420 -0.3279
  975MOL0     C31503   8.503   6.252   0.009 -0.1235 -0.0356  0.5650
  975MOL0     C31504   8.593   6.360   0.075  0.2915  0.1213 -0.0294
  975MOL0     C31505   8.627   6.488  -0.004  0.1934  1.4798 -0.0462
  975MOL0     C31506   8.723   6.458  -0.125 -0.7804  1.1399 -0.4522
  975MOL0     N31507   8.847   6.390  -0.077  0.8252  0.3616 -0.2287
  975MOL0     C31508   8.884   6.269  -0.129  0.3804 -0.4565  1.0688
  975MOL0     C31509   9.009   6.254  -0.094  0.3505  0.0456  0.5263
  975MOL0     C31510   9.094   6.128  -0.112  0.2137 -0.2365  0.3096
  975MOL0     C31511   9.026   5.987  -0.068 -0.7347  0.4768 -0.2945
  975MOL0     C31512   9.004   5.974   0.079  0.6504 -1.2327 -1.4000
  975MOL0     C31513   9.125   5.994   0.168 -0.5094 -1.1040 -0.3099
  975MOL0     O31514   9.231   5.922   0.102  0.3592  0.1354 -0.3628
  975MOL0     C31515   9.356   5.918   0.160 -0.5104  0.6757  0.7761
  975MOL0     C31516   9.452   5.844   0.084  0.4162  1.3175  0.0098
  975MOL0     C31517   9.590   5.838   0.114  0.0022 -0.0826  0.3874
  975MOL0     C31518   9.639   5.926   0.210 -0.1823 -0.2843 -0.0004
  975MOL0     C31519   9.782   5.921   0.246 -0.7041  1.2349  0.4946
  975MOL0     O31520   9.831   6.002   0.339 -0.3953  0.1204 -0.2266
  975MOL0     C31521   9.965   6.031   0.345 -0.5695  0.4206  0.0070
  975MOL0     C31522  10.003   6.160   0.310  0.2289  0.3271  0.1057
  975MOL0     C31523  10.140   6.196   0.317 -0.0053  0.1170  0.5434
  975MOL0     C31524  10.236   6.113   0.372  0.0802  0.9735 -0.2987
  975MOL0     O31525  10.368   6.143   0.379  0.0930  0.0206 -0.4321
  975MOL0     C31526  10.392   6.276   0.416 -0.7560  0.2750 -0.6423
  975MOL0     C31527  10.462   6.368   0.312  0.0970  0.2404  0.4028
  975MOL0     C31528  10.499   6.506   0.375 -0.0526 -1.0123 -0.2650
  975MOL0     C31529  10.578   6.587   0.281 -0.2100 -0.0104 -0.0627
  975MOL0     C31530  10.634   6.718   0.344 -0.3121  0.9455  0.1740
  975MOL0     C31531  10.724   6.799   0.248  0.1461  0.1600 -0.6183
  975MOL0     C31532  10.749   6.940   0.302 -0.1944  0.2248 -0.0498
  975MOL0     C31533  10.809   7.025   0.189  0.1882 -0.2336 -0.3076
  975MOL0    Cl31534  10.705   7.041   0.037  0.1183 -0.2036 -0.0165
  975MOL0     C31535  10.193   5.983   0.402  0.1391 -0.2814 -0.5643
  975MOL0     C31536  10.062   5.942   0.399  0.3425  0.9305 -1.0111
  975MOL0     O31537   9.846   5.836   0.180  0.5277 -0.1685 -0.8076
  975MOL0     C31538   9.542   5.990   0.297 -0.1350 -0.2794  0.6132
  975MOL0     C31539   9.405   5.990   0.268 -0.7131 -0.4486  0.6277
  975MOL0     N31540   9.058   6.377  -0.045  0.0950 -0.5192  0.3394
  975MOL0     N31541   8.957   6.451  -0.024  0.6189  0.3081 -0.9410
  975MOL0     C31542   7.817   5.899  -0.007 -0.1934  0.7598  0.1663
  975MOL0     C31543   7.717   5.818   0.051  0.2225  0.2125 -0.9989
  975MOL0     C31544   7.519   5.614   0.424 -0.6844 -1.1607 -0.3575
  975MOL0     C31545   7.495   5.622   0.561 -0.2347 -0.9544 -0.1795
  975MOL0     C31546   7.415   5.533   0.623 -0.1752  0.2454 -0.1414
  975MOL0     C31547   7.361   5.415   0.560 -0.0565  0.2762  0.8102
  975MOL0     O31548   7.307   5.303   0.625 -0.1841  0.1548 -0.0842
  975MOL0     C31549   7.370   5.259   0.749 -1.1058  0.6462 -0.2134
  975MOL0     C31550   7.373   5.110   0.781  1.0306  0.0505 -0.8782
  975MOL0     C31551   7.428   5.013   0.673  0.4927 -1.5409  0.4332
  975MOL0     C31552   7.406   4.870   0.719 -0.8072 -0.9247  0.7458
  975MOL0     C31553   7.272   4.829   0.693  0.8272  0.4777 -0.2941
  975MOL0     C31554   7.160   4.798   0.672 -0.5352 -1.0984 -0.4061
  975MOL0     C31555   7.379   5.406   0.423  0.6429  0.1754  0.1518
  975MOL0     C31556   7.464   5.496   0.357 -0.2613  0.7089 -0.5678
  975MOL0     C31557   7.476   5.468   0.212 -0.0574  0.0831  0.4765
  975MOL0     H31558   7.909   5.702   0.316  0.6946  0.4372 -0.1207
  975MOL0     H31559   8.069   5.850   0.216 -0.4573 -4.0410  2.9891
  975MOL0     H31560   7.958   6.152   0.084  1.2935  1.8260  1.4869
  975MOL0     H31561   8.116   6.089   0.146  1.6251 -0.1779 -0.8876
  975MOL0     H31562   8.115   6.316   0.003  1.7061  0.3755  2.9868
  975MOL0     H31563   8.089   6.215  -0.131 -1.3464  2.7818  1.1336
  975MOL0     H31564   8.314   6.192  -0.136  1.4983  0.8271  0.5433
  975MOL0     H31565   8.303   6.085   0.001 -2.4684 -0.5837 -1.3190
  975MOL0     H31566   8.333   6.393   0.007 -0.9105  0.3884  1.0063
  975MOL0     H31567   8.334   6.277   0.140  0.3542 -0.0002  0.0605
  975MOL0     H31568   8.533   6.156   0.053 -0.1934  0.6381  2.1515
  975MOL0     H31569   8.520   6.249  -0.099 -0.2466  1.0425  0.5107
  975MOL0     H31570   8.554   6.385   0.174 -0.4971 -3.0665  0.5779
  975MOL0     H31571   8.693   6.318   0.091  0.4497  1.3721  2.8380
  975MOL0     H31572   8.661   6.557   0.074 -1.5663  0.3902  1.7927
  975MOL0     H31573   8.528   6.521  -0.037  0.8229  2.3201 -1.1641
  975MOL0     H31574   8.674   6.398  -0.202 -0.9183  1.8935 -0.9617
  975MOL0     H31575   8.762   6.548  -0.172  1.4982  0.4229 -0.0670
  975MOL0     H31576   8.818   6.214  -0.196  2.6329 -1.7668 -0.1931
  975MOL0     H31577   9.118   6.121  -0.218  1.2218 -0.9233  0.5748
  975MOL0     H31578   9.187   6.148  -0.059 -0.8814  0.5915  2.0440
  975MOL0     H31579   8.932   5.959  -0.117 -0.0233 -2.0863 -0.3390
  975MOL0     H31580   9.097   5.909  -0.095 -1.6414 -0.2312 -0.6929
  975MOL0     H31581   8.957   5.877   0.097  0.4603 -1.6259 -3.6995
  975MOL0     H31582   8.942   6.060   0.104  1.8231 -0.1789 -1.9888
  975MOL0     H31583   9.107   5.953   0.267 -1.5348 -1.9481 -0.8305
  975MOL0     H31584   9.148   6.101   0.174  0.6083 -0.9322 -4.2319
  975MOL0     H31585   9.423   5.776   0.004  0.7782 -2.3116  2.7006
  975MOL0     H31586   9.652   5.766   0.062 -0.8330 -1.2255  0.9350
  975MOL0     H31587   9.930   6.229   0.267  1.2537 -0.5730 -3.4776
  975MOL0     H31588  10.167   6.295   0.280  2.8699 -0.4665  0.9004
  975MOL0     H31589  10.303   6.333   0.445  0.4181  2.6153 -1.3471
  975MOL0     H31590  10.450   6.270   0.509  0.9174  0.9501 -1.5918
  975MOL0     H31591  10.557   6.315   0.298 -1.5294 -2.3949 -1.6306
  975MOL0     H31592  10.413   6.374   0.214  2.4981 -0.3693 -0.9167
  975MOL0     H31593  10.410   6.570   0.385  0.9741  0.3353  0.7289
  975MOL0     H31594  10.559   6.497   0.466  4.8029 -1.8601 -3.1927
  975MOL0     H31595  10.512   6.612   0.197  0.2516  3.8047  0.5374
  975MOL0     H31596  10.663   6.536   0.232 -0.9964 -2.4467  0.9386
  975MOL0     H31597  10.693   6.680   0.428 -4.0244  0.5104  2.8646
  975MOL0     H31598  10.553   6.773   0.393 -0.9346 -0.3334  0.6161
  975MOL0     H31599  10.814   6.755   0.204 -1.6080 -4.3314 -0.2427
  975MOL0     H31600  10.666   6.809   0.156  0.5670  1.8508 -0.7449
  975MOL0     H31601  10.820   6.937   0.385  1.1182  2.9436 -0.9364
  975MOL0     H31602  10.661   6.988   0.345 -1.8443 -0.8047 -2.1079
  975MOL0     H31603  10.839   7.119   0.235 -0.1322  0.7884 -2.1046
  975MOL0     H31604  10.897   6.967   0.158 -0.9577 -1.4784 -1.3877
  975MOL0     H31605  10.270   5.923   0.449 -1.6499  0.4056  3.7332
  975MOL0     H31606  10.050   5.845   0.445  0.4788  2.2224  1.9648
  975MOL0     H31607   9.572   6.047   0.384 -3.2249 -0.0514  1.6771
  975MOL0     H31608   9.332   6.056   0.314 -1.9930 -1.2031 -0.2489
  975MOL0     H31609   7.805   5.961  -0.096  1.3056  2.0674  0.8365
  975MOL0     H31610   7.613   5.822   0.021  0.4312  0.7060 -1.6922
  975MOL0     H31611   7.550   5.695   0.618 -2.3156  0.1425  0.5262
  975MOL0     H31612   7.394   5.553   0.728 -0.2220  3.4763 -0.6542
  975MOL0     H31613   7.327   5.313   0.834 -0.2546  1.5778 -0.3590
  975MOL0     H31614   7.475   5.288   0.755 -0.9529 -0.1811  3.3130
  975MOL0     H31615   7.267   5.086   0.793  0.0391  2.8194 -2.9809
  975MOL0     H31616   7.424   5.090   0.876 -0.6213 -0.9713 -0.1634
  975MOL0     H31617   7.536   5.025   0.662  0.5824 -1.7997  0.9980
  975MOL0     H31618   7.365   5.029   0.584 -2.6011 -1.5758  2.4495
  975MOL0     H31619   7.473   4.802   0.667  0.6664  0.9553  0.0394
  975MOL0     H31620   7.436   4.867   0.825  2.0711  0.9713  0.1128
  975MOL0     H31621   7.056   4.787   0.651 -0.5820 -1.4014 -0.0127
  975MOL0     H31622   7.338   5.316   0.379  1.9553 -0.7793  0.8190
  975MOL0     H31623   7.437   5.555   0.158  0.9155 -0.0590 -0.5061
  975MOL0     H31624   7.579   5.446   0.183 -0.8957 -0.2733 -2.6060
  975MOL0     H31625   7.412   5.386   0.177  1.0855  0.3546 -2.5682
  976MOL0     O31626   4.296   8.037  10.410 -0.2994 -0.0199  0.1406
  976MOL0     C31627   4.301   8.067  10.522  0.6729 -0.4242 -0.8619
  976MOL0     O31628   4.249   7.992  10.626 -0.3497 -0.6851  0.3184
  976MOL0     C31629   4.198   7.861  10.601 -0.6412  0.2013 -0.6283
  976MOL0     C31630   4.079   7.835  10.658 -0.0613  0.5777  0.5473
  976MOL0     C31631   4.027   7.707  10.647 -0.3185 -0.1772  0.0029
  976MOL0     C31632   4.111   7.598  10.595  0.0627  0.7870  0.2745
  976MOL0     O31633   4.061   7.467  10.606  0.4506  0.6956  0.3752
  976MOL0     C31634   4.139   7.361  10.543  0.5562 -0.3179  1.3902
  976MOL0     C31635   4.077   7.232  10.602  0.1222 -0.4241 -0.1078
  976MOL0     C31636   4.156   7.107  10.558  0.0803 -0.6516 -0.2117
  976MOL0     C31637   4.067   6.980  10.525  0.5775  1.2674  0.4863
  976MOL0     C31638   4.145   6.852  10.501 -0.2283  0.3322  0.7873
  976MOL0     C31639   4.201   6.828  10.362  0.0579  0.1558 -0.8003
  976MOL0     C31640   4.280   6.701  10.345 -0.8041  0.1953  0.3327
  976MOL0     C31641   4.232   6.618  10.226 -0.4915 -0.9555 -0.3415
  976MOL0     N31642   4.295   6.486  10.201 -0.8517 -0.8410  0.2254
  976MOL0     C31643   4.401   6.473  10.121  0.9569 -0.1883  0.3485
  976MOL0     C31644   4.428   6.341  10.107  0.3379 -0.2625  0.0801
  976MOL0     C31645   4.541   6.268  10.027  0.0534 -0.4536 -0.1641
  976MOL0     C31646   4.619   6.173  10.122  0.1562  0.0753 -0.6530
  976MOL0     C31647   4.760   6.136  10.077 -0.7825  0.3551 -1.8538
  976MOL0     C31648   4.858   6.251  10.119 -0.0299  0.4452  0.4200
  976MOL0     O31649   4.984   6.216  10.056 -0.8674  0.0618  0.2960
  976MOL0     C31650   5.104   6.266  10.100 -0.0527  0.6587 -0.3040
  976MOL0     C31651   5.127   6.290  10.230 -0.8479  0.3129  0.1055
  976MOL0     C31652   5.244   6.359  10.272  0.1121 -0.4352  0.6125
  976MOL0     C31653   5.344   6.400  10.182  0.3746  0.5946  0.6963
  976MOL0     C31654   5.462   6.474  10.226  0.5065 -0.3955 -0.2199
  976MOL0     O31655   5.562   6.489  10.140 -0.1347 -0.8298 -0.4828
  976MOL0     C31656   5.691   6.526  10.172 -0.6040  0.1661  0.2272
  976MOL0     C31657   5.731   6.571  10.303  0.1157  0.1130  0.2618
  976MOL0     C31658   5.856   6.625  10.321 -0.9388 -1.0898  0.2450
  976MOL0     C31659   5.955   6.627  10.221 -0.5554  1.0412 -0.2316
  976MOL0     O31660   6.086   6.684  10.215  0.1589 -0.2154 -0.2471
  976MOL0     C31661   6.125   6.750  10.345  0.4739 -0.2575 -0.5583
  976MOL0     C31662   6.227   6.855  10.342  0.1899 -0.3385  0.2125
  976MOL0     C31663   6.173   6.987  10.372  1.1762 -0.9024 -0.5509
  976MOL0     C31664   6.287   7.083  10.365  0.1152 -0.1005  0.4480
  976MOL0     C31665   6.252   7.220  10.321  0.1970  0.1270 -0.5306
  976MOL0     C31666   6.381   7.308  10.293 -0.3436  0.5196 -0.1306
  976MOL0     C31667   6.343   7.446  10.236 -0.2145  0.0925  0.0777
  976MOL0     C31668   6.477   7.524  10.197 -0.7414 -0.4119  0.3715
  976MOL0    Cl31669   6.583   7.560  10.324 -0.0870 -0.2860 -0.3712
  976MOL0     C31670   5.915   6.573  10.096  0.5160  0.5822 -0.1176
  976MOL0     C31671   5.788   6.520  10.077  0.2868 -0.5573  0.1927
  976MOL0     O31672   5.454   6.505  10.344 -1.1372  0.0394  0.5121
  976MOL0     C31673   5.328   6.357  10.047  1.8805  0.4725 -0.8016
  976MOL0     C31674   5.214   6.281  10.007  0.4139 -0.9074  0.0116
  976MOL0     N31675   4.335   6.270  10.181 -0.1324 -0.0523 -0.2328
  976MOL0     N31676   4.257   6.362  10.237  0.0592  0.1290 -0.5367
  976MOL0     C31677   4.230   7.631  10.527 -0.5192 -0.4232  0.4072
  976MOL0     C31678   4.271   7.764  10.535 -0.3491  0.5908  0.1728
  976MOL0     C31679   4.375   8.193  10.550  0.4994  1.1945  0.3230
  976MOL0     C31680   4.454   8.245  10.451  0.0591  0.3479  0.3616
  976MOL0     C31681   4.526   8.367  10.459  0.3458 -0.8103 -0.8994
  976MOL0     C31682   4.536   8.444  10.584 -0.0304 -0.5052 -0.9371
  976MOL0     O31683   4.610   8.552  10.605  0.3522  0.0051  0.5692
  976MOL0     C31684   4.646   8.633  10.493  0.4722 -0.2130 -0.1237
  976MOL0     C31685   4.690   8.761  10.556 -0.5759 -0.8829 -0.2060
  976MOL0     C31686   4.823   8.758  10.627 -0.2050  0.2031  0.2589
  976MOL0     C31687   4.867   8.899  10.681 -0.8636 -0.2427 -0.3429
  976MOL0     C31688   5.003   8.907  10.732 -0.1312  0.5336 -0.9210
  976MOL0     C31689   5.113   8.915  10.777  0.0140  0.6719  0.8345
  976MOL0     C31690   4.454   8.397  10.684  0.0253 -0.1311  0.7345
  976MOL0     C31691   4.371   8.274  10.668 -0.4707 -0.0918  0.0387
  976MOL0     C31692   4.264   8.257  10.772 -0.3624  0.9450 -0.1511
  976MOL0     H31693   4.018   7.914  10.701 -2.5845 -1.7793  1.6546
  976MOL0     H31694   3.931   7.671  10.681  0.6635 -4.0689 -0.8510
  976MOL0     H31695   4.131   7.364  10.434  0.0255 -0.1220  1.4318
  976MOL0     H31696   4.247   7.361  10.559  0.9587 -0.9955 -0.9393
  976MOL0     H31697   3.975   7.235  10.563 -0.1559 -2.9379  0.2555
  976MOL0     H31698   4.071   7.254  10.709  0.0349 -1.3915  0.0919
  976MOL0     H31699   4.232   7.080  10.631 -0.3440  1.6202  1.1680
  976MOL0     H31700   4.209   7.121  10.463  2.1104 -4.4533  0.1822
  976MOL0     H31701   4.014   6.963  10.619  1.3946  3.4259  1.4059
  976MOL0     H31702   3.997   6.998  10.443 -1.2642 -5.2911  0.0996
  976MOL0     H31703   4.226   6.838  10.574 -2.0695  0.0890  2.8819
  976MOL0     H31704   4.078   6.767  10.519 -2.7131  1.8556 -0.6563
  976MOL0     H31705   4.115   6.830  10.295  0.3212 -1.7176 -1.2578
  976MOL0     H31706   4.259   6.910  10.321 -1.5315  0.4041 -2.6999
  976MOL0     H31707   4.270   6.641  10.435  0.9995  0.7032  0.9137
  976MOL0     H31708   4.388   6.721  10.336 -0.6599 -1.0488 -1.3945
  976MOL0     H31709   4.125   6.604  10.243 -0.7314  1.2723  0.2475
  976MOL0     H31710   4.257   6.680  10.140  2.5858 -1.9113 -0.2575
  976MOL0     H31711   4.463   6.558  10.093  1.1374 -1.3463 -3.3315
  976MOL0     H31712   4.497   6.206   9.948 -0.9199  0.9527 -0.7729
  976MOL0     H31713   4.604   6.348   9.987 -1.1086  0.1086 -0.9281
  976MOL0     H31714   4.615   6.208  10.225  2.2229 -0.8845 -0.1958
  976MOL0     H31715   4.563   6.079  10.122  2.1199 -1.1598  0.8434
  976MOL0     H31716   4.763   6.121   9.968  2.3836 -2.7134 -1.5020
  976MOL0     H31717   4.802   6.046  10.122 -1.3558  0.6637 -0.6678
  976MOL0     H31718   4.867   6.262  10.227  0.7865  0.9973  0.3012
  976MOL0     H31719   4.839   6.349  10.074  1.6069  0.2534 -0.7630
  976MOL0     H31720   5.057   6.257  10.306 -1.5329  2.5655  0.5444
  976MOL0     H31721   5.267   6.374  10.377  1.6149 -2.0009  0.5410
  976MOL0     H31722   5.661   6.574  10.386 -1.1744 -2.5933 -0.6288
  976MOL0     H31723   5.871   6.670  10.419 -1.5153 -2.0763  0.8053
  976MOL0     H31724   6.034   6.792  10.389 -0.0913 -2.5658  0.6684
  976MOL0     H31725   6.157   6.675  10.418  1.6292  1.5460  0.8874
  976MOL0     H31726   6.305   6.831  10.415 -1.6400  1.1716  2.8221
  976MOL0     H31727   6.265   6.861  10.239 -1.9367 -0.0462 -0.6054
  976MOL0     H31728   6.089   7.017  10.309 -1.0794 -0.6754  2.3545
  976MOL0     H31729   6.135   6.994  10.474 -2.3987  0.2217 -1.8017
  976MOL0     H31730   6.376   7.049  10.310  0.9047 -1.4611  2.4475
  976MOL0     H31731   6.343   7.094  10.458  3.0412  0.5555 -1.2599
  976MOL0     H31732   6.186   7.260  10.398 -0.7370 -0.3282 -1.0820
  976MOL0     H31733   6.197   7.225  10.226 -0.2065 -0.3264 -0.3220
  976MOL0     H31734   6.426   7.326  10.391 -0.1510 -0.9844  0.0796
  976MOL0     H31735   6.442   7.246  10.227 -1.8412 -2.1092  0.7929
  976MOL0     H31736   6.284   7.501  10.310  0.1587 -0.3271  0.6977
  976MOL0     H31737   6.272   7.427  10.155 -0.2355 -0.7873  0.2894
  976MOL0     H31738   6.528   7.459  10.125  0.9414  0.1347  1.0182
  976MOL0     H31739   6.452   7.619  10.150 -5.1785 -1.6016 -0.1684
  976MOL0     H31740   5.986   6.580  10.015  0.3884  2.5757 -0.1100
  976MOL0     H31741   5.759   6.469   9.986  0.6351 -2.2788  1.0063
  976MOL0     H31742   5.413   6.365   9.979  3.3734 -1.9794  0.6324
  976MOL0     H31743   5.203   6.250   9.904 -0.1328 -1.2045  0.1608
  976MOL0     H31744   4.291   7.560  10.470 -0.5691  0.7960 -1.2399
  976MOL0     H31745   4.364   7.794  10.487  0.4021  1.1587  1.9127
  976MOL0     H31746   4.451   8.213  10.347 -2.6775  1.7103 -0.0565
  976MOL0     H31747   4.579   8.408  10.374  2.2312 -1.1547  0.0497
  976MOL0     H31748   4.559   8.668  10.437  0.9672 -0.5310 -1.1028
  976MOL0     H31749   4.725   8.587  10.432  2.1337  0.7209  1.2097
  976MOL0     H31750   4.614   8.799  10.624  0.8240  1.9900 -0.0704
  976MOL0     H31751   4.689   8.843  10.482  1.5721 -0.8274 -0.2406
  976MOL0     H31752   4.906   8.735  10.560 -0.2701 -1.0737  0.5881
  976MOL0     H31753   4.820   8.681  10.704 -0.3284 -1.4006 -1.2809
  976MOL0     H31754   4.861   8.980  10.607 -2.2262  1.3763  1.4553
  976MOL0     H31755   4.800   8.932  10.761 -0.5333 -0.3251 -0.0287
  976MOL0     H31756   5.216   8.906  10.807  0.3586  1.2499 -0.1329
  976MOL0     H31757   4.456   8.459  10.773  0.7485  1.2445 -0.1950
  976MOL0     H31758   4.168   8.233  10.724 -0.4600 -1.9966  1.3187
  976MOL0     H31759   4.292   8.180  10.844 -0.0113  1.3232  0.1207
  976MOL0     H31760   4.260   8.360  10.809  2.9320  2.1469 -2.6285
  977MOL0     O31761   4.368   3.481   2.535 -0.3098 -0.1869 -0.0743
  977MOL0     C31762   4.252   3.524   2.533  0.4110  0.2232 -0.5315
  977MOL0     O31763   4.138   3.450   2.507 -0.1300  0.2213  0.6553
  977MOL0     C31764   4.156   3.317   2.456  0.1976  0.1430 -0.7117
  977MOL0     C31765   4.267   3.266   2.380  0.4495 -0.8187  0.1174
  977MOL0     C31766   4.260   3.134   2.336  0.2803  0.6434 -0.1962
  977MOL0     C31767   4.144   3.043   2.347 -0.3991 -0.5966 -0.5518
  977MOL0     O31768   4.146   2.920   2.297 -0.7873  0.5019 -0.3734
  977MOL0     C31769   4.261   2.840   2.327 -1.0890  0.3278 -0.6184
  977MOL0     C31770   4.346   2.799   2.207  0.1045 -1.0653  0.5362
  977MOL0     C31771   4.433   2.663   2.229 -0.1321  0.0827 -0.2145
  977MOL0     C31772   4.425   2.558   2.121 -0.3540  0.5060  0.5577
  977MOL0     C31773   4.496   2.431   2.173 -0.0071 -0.3826  0.1168
  977MOL0     C31774   4.511   2.322   2.070  0.8777  0.7959 -0.2764
  977MOL0     C31775   4.611   2.218   2.118 -0.0377  0.5199  0.2955
  977MOL0     C31776   4.633   2.104   2.021 -0.0833  0.1498  0.2876
  977MOL0     N31777   4.709   1.996   2.075 -0.8083 -0.0864  1.2651
  977MOL0     C31778   4.655   1.879   2.124 -0.0532  0.8864  0.3031
  977MOL0     C31779   4.756   1.815   2.178 -0.4645  0.0600  0.3877
  977MOL0     C31780   4.754   1.685   2.247 -0.0973 -0.5748 -0.5247
  977MOL0     C31781   4.722   1.572   2.140 -0.1397  0.0832  0.4691
  977MOL0     C31782   4.719   1.439   2.205 -0.2062  0.0850  0.6024
  977MOL0     C31783   4.608   1.421   2.308  0.4074 -0.4695  0.2745
  977MOL0     O31784   4.484   1.470   2.255 -0.1194  1.3877  0.0255
  977MOL0     C31785   4.424   1.372   2.190  0.9161 -0.6536  0.0736
  977MOL0     C31786   4.368   1.264   2.259  0.0170  0.1649 -0.0944
  977MOL0     C31787   4.279   1.177   2.204 -0.2310  0.3578  0.5766
  977MOL0     C31788   4.250   1.187   2.065 -0.8712  0.2922  0.6215
  977MOL0     C31789   4.155   1.103   1.995 -0.5688  1.0138 -1.0216
  977MOL0     O31790   4.110   1.001   2.074 -0.4793 -0.2653  0.2105
  977MOL0     C31791   4.023   0.918   2.005  0.5093  0.0398 -0.1435
  977MOL0     C31792   3.896   0.888   2.055  0.1337 -0.2461  0.0332
  977MOL0     C31793   3.801   0.808   1.989  0.0575  0.2945  0.3709
  977MOL0     C31794   3.833   0.752   1.870  0.5663 -0.4866 -0.0088
  977MOL0     O31795   3.745   0.670   1.797 -0.8622  0.9683  0.3864
  977MOL0     C31796   3.626   0.619   1.867 -0.6230 -0.0831 -0.4795
  977MOL0     C31797   3.521   0.572   1.768  0.4481  1.0560 -0.4832
  977MOL0     C31798   3.544   0.433   1.716  0.4388  0.2550  0.4456
  977MOL0     C31799   3.426   0.393   1.624 -0.0434  0.4168 -0.1976
  977MOL0     C31800   3.467   0.433   1.486  0.7130  0.2598  0.3615
  977MOL0     C31801   3.359   0.418   1.377  0.3521  0.1670  0.3484
  977MOL0     C31802   3.240   0.506   1.407  0.4490  0.2811 -0.4509
  977MOL0     C31803   3.141   0.486   1.286  0.7040  0.7048  0.7021
  977MOL0    Cl31804   3.059   0.316   1.302  0.0754 -0.7462 -0.0618
  977MOL0     C31805   3.964   0.770   1.812 -0.4645 -0.0763 -0.7146
  977MOL0     C31806   4.054   0.847   1.884 -0.7097 -0.6291 -0.3548
  977MOL0     O31807   4.112   1.137   1.881 -0.9015  0.2833 -0.3362
  977MOL0     C31808   4.319   1.279   1.990  0.8733 -0.0399 -0.5971
  977MOL0     C31809   4.411   1.368   2.053 -0.1889 -0.1112  0.6188
  977MOL0     N31810   4.867   1.888   2.169  0.4466  0.3535  0.6571
  977MOL0     N31811   4.841   1.999   2.109 -0.2075 -0.2252 -0.2423
  977MOL0     C31812   4.030   3.106   2.395  0.4400 -0.3556  0.2383
  977MOL0     C31813   4.040   3.236   2.454  0.0753  0.0397 -0.2756
  977MOL0     C31814   4.234   3.654   2.607 -0.7121 -0.4074  0.5974
  977MOL0     C31815   4.120   3.658   2.691 -0.1244  0.4528 -0.0023
  977MOL0     C31816   4.095   3.777   2.761 -0.0696 -0.3761  0.0467
  977MOL0     C31817   4.179   3.890   2.750 -0.3661 -0.2891 -0.3812
  977MOL0     O31818   4.167   3.998   2.832  0.0146 -0.0268  0.0025
  977MOL0     C31819   4.258   4.115   2.823  0.0882  0.5225  0.6687
  977MOL0     C31820   4.254   4.187   2.963 -0.7681  0.3160  0.1757
  977MOL0     C31821   4.332   4.110   3.065 -0.4797  0.2964 -0.1044
  977MOL0     C31822   4.484   4.107   3.042 -0.2259  0.2015  0.2354
  977MOL0     C31823   4.532   4.058   3.172  0.3016  0.3172  0.1916
  977MOL0     C31824   4.560   4.017   3.281  0.6500  1.2181 -0.0059
  977MOL0     C31825   4.276   3.887   2.648  0.4507 -0.5017  0.3380
  977MOL0     C31826   4.307   3.774   2.580  0.0307 -0.2004 -0.3454
  977MOL0     C31827   4.419   3.784   2.481 -0.2312  0.0178  0.3542
  977MOL0     H31828   4.348   3.335   2.360 -0.3069 -0.4356 -1.8850
  977MOL0     H31829   4.348   3.094   2.287  1.5628  0.3217  2.2083
  977MOL0     H31830   4.330   2.899   2.389  4.1390 -2.7936 -2.7679
  977MOL0     H31831   4.224   2.751   2.378 -0.3723 -0.1338 -0.8897
  977MOL0     H31832   4.411   2.879   2.172  2.3273 -2.7871  0.4546
  977MOL0     H31833   4.286   2.779   2.118  2.5929 -0.7099 -1.3435
  977MOL0     H31834   4.404   2.615   2.323 -2.4313  1.9513  0.1117
  977MOL0     H31835   4.539   2.687   2.235  0.1958 -1.3177 -0.0096
  977MOL0     H31836   4.322   2.542   2.090 -1.0211 -0.1768  2.9157
  977MOL0     H31837   4.477   2.602   2.035 -3.5995  0.1513 -1.7874
  977MOL0     H31838   4.596   2.458   2.207  0.6240 -0.5199 -1.5319
  977MOL0     H31839   4.437   2.391   2.256 -1.2476 -1.8184 -1.3736
  977MOL0     H31840   4.418   2.270   2.043  0.3644 -0.3825  3.2114
  977MOL0     H31841   4.550   2.376   1.984  1.8653  2.3344  1.0908
  977MOL0     H31842   4.579   2.162   2.206  3.9312 -2.0542  0.3500
  977MOL0     H31843   4.708   2.262   2.144  1.2629 -2.8688  1.6004
  977MOL0     H31844   4.536   2.068   1.985  0.0133  0.4126 -0.2397
  977MOL0     H31845   4.688   2.157   1.942  0.4263 -0.2292  0.3817
  977MOL0     H31846   4.556   1.836   2.115  0.9998 -1.7266  0.4651
  977MOL0     H31847   4.857   1.678   2.282  0.3039  5.3401  0.4913
  977MOL0     H31848   4.702   1.692   2.342 -0.0003 -0.8053 -0.4530
  977MOL0     H31849   4.631   1.597   2.085 -1.1007 -1.9446  1.0343
  977MOL0     H31850   4.800   1.575   2.063  1.8477 -0.2955  2.3458
  977MOL0     H31851   4.815   1.411   2.249  0.7979  0.8789 -0.9660
  977MOL0     H31852   4.698   1.372   2.121  0.3625  1.2816 -0.5380
  977MOL0     H31853   4.626   1.485   2.394  0.4208 -0.1236  0.0153
  977MOL0     H31854   4.604   1.314   2.332  0.2102 -0.6443 -0.4856
  977MOL0     H31855   4.393   1.253   2.364 -1.2496 -3.3128 -0.0465
  977MOL0     H31856   4.231   1.109   2.273  0.1843  0.1686  0.6853
  977MOL0     H31857   3.869   0.936   2.149  3.6435  1.1701  0.4841
  977MOL0     H31858   3.709   0.804   2.046  1.3346 -1.5087  2.4900
  977MOL0     H31859   3.647   0.532   1.930  1.9723  0.9986  0.2992
  977MOL0     H31860   3.577   0.705   1.914  0.2006  0.2081 -0.1326
  977MOL0     H31861   3.432   0.565   1.832  0.0706 -1.1952 -1.1694
  977MOL0     H31862   3.510   0.637   1.681 -1.6368 -0.2961 -1.3155
  977MOL0     H31863   3.644   0.436   1.672  1.5972  1.5549  2.9497
  977MOL0     H31864   3.553   0.355   1.793  0.4876 -1.1521 -0.9172
  977MOL0     H31865   3.333   0.442   1.654  0.4578  1.1535  0.1955
  977MOL0     H31866   3.409   0.285   1.623 -0.9573  0.3222  4.2408
  977MOL0     H31867   3.551   0.377   1.442 -1.6785 -2.0860 -1.5417
  977MOL0     H31868   3.490   0.539   1.491 -2.6697  1.0919  0.4940
  977MOL0     H31869   3.384   0.439   1.273 -2.8554  1.6931 -0.2283
  977MOL0     H31870   3.336   0.311   1.374  2.5612 -0.3352 -1.2464
  977MOL0     H31871   3.281   0.607   1.411  0.6710  0.1737  0.2092
  977MOL0     H31872   3.187   0.495   1.502  0.6978  0.0036 -0.3401
  977MOL0     H31873   3.057   0.554   1.268 -0.6507 -1.2542 -0.9622
  977MOL0     H31874   3.202   0.479   1.195 -2.4836 -0.5621 -1.5418
  977MOL0     H31875   3.996   0.706   1.730 -1.2008 -0.5799 -0.6161
  977MOL0     H31876   4.152   0.848   1.837 -0.4119 -1.9518  0.1905
  977MOL0     H31877   4.297   1.285   1.884 -1.9021  2.5823 -0.0164
  977MOL0     H31878   4.461   1.445   1.995  1.5915 -1.0658  0.7855
  977MOL0     H31879   3.941   3.047   2.377 -0.7455  1.6151 -0.7583
  977MOL0     H31880   3.946   3.279   2.486 -0.3364  0.4515 -1.9390
  977MOL0     H31881   4.048   3.579   2.710  0.8563 -0.2704  0.7948
  977MOL0     H31882   4.010   3.782   2.829  0.5509 -0.0296  0.8070
  977MOL0     H31883   4.237   4.181   2.738  0.6997  1.2336  1.0574
  977MOL0     H31884   4.362   4.086   2.802 -0.6764 -0.1128 -2.9728
  977MOL0     H31885   4.151   4.206   2.994 -0.4680  0.2365  1.2481
  977MOL0     H31886   4.310   4.281   2.953  0.7567 -0.4740  0.9725
  977MOL0     H31887   4.300   4.005   3.067 -0.9669  0.4508  1.6956
  977MOL0     H31888   4.301   4.141   3.165 -1.3090 -0.6896 -0.0293
  977MOL0     H31889   4.523   4.033   2.971 -0.3862 -3.6575  3.7902
  977MOL0     H31890   4.522   4.207   3.021 -1.0127  0.3157 -0.7872
  977MOL0     H31891   4.594   4.003   3.382  0.8779 -2.2387 -0.4457
  977MOL0     H31892   4.325   3.980   2.624 -0.9254  0.1940  0.1358
  977MOL0     H31893   4.408   3.877   2.425 -1.6900 -0.4586 -0.2087
  977MOL0     H31894   4.515   3.787   2.534  0.2340  2.3058 -0.5008
  977MOL0     H31895   4.434   3.698   2.415  1.1647  0.5065 -0.0115
  978MOL0     O31896   1.699   7.912   8.366  0.4468  0.1733 -0.8573
  978MOL0     C31897   1.649   7.867   8.475 -0.6620 -0.2169 -0.6737
  978MOL0     O31898   1.562   7.766   8.485 -0.3653  0.2200  0.1278
  978MOL0     C31899   1.479   7.733   8.378 -0.3649 -0.0737 -0.3304
  978MOL0     C31900   1.484   7.764   8.239  0.2742  0.9415  0.3582
  978MOL0     C31901   1.375   7.727   8.155 -0.2430 -0.0260  0.4016
  978MOL0     C31902   1.276   7.644   8.198  0.5088  0.2783 -0.0007
  978MOL0     O31903   1.178   7.621   8.103 -0.6345  0.5153  0.6196
  978MOL0     C31904   1.093   7.508   8.125  1.1497  0.3575  0.1168
  978MOL0     C31905   0.971   7.526   8.211  0.3380 -0.6201  0.7691
  978MOL0     C31906   0.856   7.622   8.155 -0.6533 -0.1195  0.3788
  978MOL0     C31907   0.726   7.605   8.224  0.1988  0.3685  0.3691
  978MOL0     C31908   0.632   7.700   8.158 -1.4874  0.1065 -0.3101
  978MOL0     C31909   0.490   7.710   8.220  1.6297  0.3176 -0.2021
  978MOL0     C31910   0.423   7.570   8.204 -0.9816 -0.1103  0.2722
  978MOL0     C31911   0.277   7.570   8.265 -0.3788 -0.7850 -0.3415
  978MOL0     N31912   0.173   7.584   8.160 -0.7498  0.4125  0.2772
  978MOL0     C31913   0.144   7.699   8.089 -0.0204  0.3110  0.5715
  978MOL0     C31914   0.058   7.648   7.996  0.1559 -0.0153  0.3217
  978MOL0     C31915  -0.000   7.718   7.872 -0.0789  0.2280  1.0350
  978MOL0     C31916  -0.144   7.678   7.824 -0.2598 -0.0397  0.0570
  978MOL0     C31917  -0.240   7.747   7.914  0.0358 -0.2747  0.0547
  978MOL0     C31918  -0.384   7.687   7.900 -0.4807  0.7313 -0.0864
  978MOL0     O31919  -0.451   7.725   7.778 -0.0320  0.1803 -0.4297
  978MOL0     C31920  -0.584   7.779   7.785 -0.5013  0.4190  0.1021
  978MOL0     C31921  -0.681   7.731   7.701 -0.0162  0.8042 -1.0072
  978MOL0     C31922  -0.810   7.786   7.685 -0.1720  0.1165 -0.4996
  978MOL0     C31923  -0.841   7.896   7.765  0.1622 -0.8379  0.0179
  978MOL0     C31924  -0.980   7.961   7.766  0.8052  1.1911 -0.5797
  978MOL0     O31925  -0.988   8.075   7.856  0.0809 -1.1461  0.5773
  978MOL0     C31926  -1.101   8.150   7.844  0.1437 -0.3824 -0.2118
  978MOL0     C31927  -1.161   8.196   7.721  0.0483  0.2685 -0.2889
  978MOL0     C31928  -1.282   8.269   7.721 -0.0839  0.2194 -0.0783
  978MOL0     C31929  -1.348   8.309   7.837  0.0127  0.1465 -1.1546
  978MOL0     O31930  -1.466   8.370   7.841 -0.0997  0.3413  0.2679
  978MOL0     C31931  -1.515   8.442   7.731 -0.0175 -0.3890 -0.8963
  978MOL0     C31932  -1.666   8.476   7.757 -0.6994 -0.1680  0.3861
  978MOL0     C31933  -1.748   8.523   7.637  0.4716 -0.3026 -0.9950
  978MOL0     C31934  -1.697   8.654   7.578 -0.1797  0.3680  0.0132
  978MOL0     C31935  -1.752   8.783   7.634 -0.2435 -0.4105  0.1450
  978MOL0     C31936  -1.670   8.841   7.750  1.3235 -1.0977  0.0677
  978MOL0     C31937  -1.529   8.887   7.716 -0.2424 -0.0284  0.0656
  978MOL0     C31938  -1.525   9.036   7.691  0.8122  0.1851 -0.0076
  978MOL0    Cl31939  -1.538   9.132   7.850  0.2210 -0.0075 -0.2339
  978MOL0     C31940  -1.288   8.275   7.955 -0.5916 -0.0568 -0.2062
  978MOL0     C31941  -1.173   8.193   7.960 -0.4391 -0.1913  0.4708
  978MOL0     O31942  -1.065   7.918   7.688 -0.0302  0.2335  0.7729
  978MOL0     C31943  -0.737   7.948   7.841  0.2132 -0.1189  0.1026
  978MOL0     C31944  -0.619   7.892   7.866 -0.6355  0.2194  0.8401
  978MOL0     N31945   0.027   7.513   8.025  0.0557 -0.3230 -0.3667
  978MOL0     N31946   0.090   7.476   8.129 -0.0136  1.1510 -1.0060
  978MOL0     C31947   1.273   7.610   8.336 -0.5773  0.8919  0.6334
  978MOL0     C31948   1.374   7.652   8.423 -0.0779 -0.0343  0.4665
  978MOL0     C31949   1.714   7.912   8.600  0.0656  0.3523 -0.7748
  978MOL0     C31950   1.663   7.862   8.727  0.3992  0.4842  0.4618
  978MOL0     C31951   1.726   7.883   8.847 -0.5280 -0.6596 -0.4035
  978MOL0     C31952   1.823   7.984   8.854 -0.2702  0.4891 -0.1938
  978MOL0     O31953   1.878   8.008   8.983  0.0655 -0.3415  1.0227
  978MOL0     C31954   1.966   8.119   9.016  0.8987  0.3836 -0.7022
  978MOL0     C31955   2.096   8.062   9.054  0.6685 -0.3925 -0.3043
  978MOL0     C31956   2.166   8.183   9.119 -0.5772  0.4279 -0.6800
  978MOL0     C31957   2.317   8.140   9.137  0.3003 -0.1179  0.0091
  978MOL0     C31958   2.392   8.236   9.223  0.8185  0.0299  0.0909
  978MOL0     C31959   2.476   8.284   9.299  0.4745 -0.6357 -0.3263
  978MOL0     C31960   1.881   8.037   8.735 -0.4350  1.3916  0.3214
  978MOL0     C31961   1.822   8.009   8.607 -0.4834  0.0964  0.2996
  978MOL0     C31962   1.882   8.086   8.490 -0.2972 -0.1706 -0.6281
  978MOL0     H31963   1.558   7.833   8.200 -0.9498  1.7704 -0.5332
  978MOL0     H31964   1.381   7.758   8.051  0.9488 -0.2752  0.3865
  978MOL0     H31965   1.060   7.466   8.030 -2.6397  1.9413  0.5704
  978MOL0     H31966   1.150   7.429   8.175 -0.8671 -1.1851  0.0698
  978MOL0     H31967   0.983   7.575   8.308 -0.7730 -0.4922  0.8636
  978MOL0     H31968   0.919   7.430   8.218 -0.3090 -0.1725  2.7397
  978MOL0     H31969   0.842   7.594   8.050  0.7924  0.9087 -0.1059
  978MOL0     H31970   0.882   7.728   8.160 -0.4201 -0.2523  2.6234
  978MOL0     H31971   0.693   7.502   8.238  0.9645  0.2439  1.3010
  978MOL0     H31972   0.756   7.644   8.322  0.7515  2.1754 -0.4666
  978MOL0     H31973   0.675   7.800   8.172  0.4326 -0.4383 -1.9410
  978MOL0     H31974   0.623   7.681   8.051 -1.0713 -1.4646 -0.0840
  978MOL0     H31975   0.507   7.735   8.326  2.2828 -0.9958  0.0298
  978MOL0     H31976   0.430   7.788   8.174  0.3566 -0.1360  0.6170
  978MOL0     H31977   0.487   7.506   8.265 -3.4785 -0.3579  2.8608
  978MOL0     H31978   0.415   7.534   8.101 -1.8927 -1.2890  0.7345
  978MOL0     H31979   0.260   7.486   8.333 -0.8428  1.6517  2.7945
  978MOL0     H31980   0.264   7.650   8.339  0.3651 -2.4862  1.7251
  978MOL0     H31981   0.175   7.803   8.096 -3.2126  1.4362 -0.3822
  978MOL0     H31982   0.005   7.826   7.882  2.9713  0.5985 -2.3133
  978MOL0     H31983   0.060   7.711   7.780 -2.8805 -0.0088 -0.9085
  978MOL0     H31984  -0.173   7.723   7.729 -1.9135  0.6785  0.8507
  978MOL0     H31985  -0.156   7.569   7.820  3.8375 -0.7221  1.3130
  978MOL0     H31986  -0.246   7.852   7.887 -0.0864 -0.6820 -1.5874
  978MOL0     H31987  -0.214   7.725   8.018 -1.5809  0.8450  0.7365
  978MOL0     H31988  -0.438   7.716   7.991  0.1136  5.4688 -0.9608
  978MOL0     H31989  -0.377   7.579   7.885 -1.4466  0.8554 -1.6557
  978MOL0     H31990  -0.672   7.648   7.632  2.0679 -1.1310  1.3871
  978MOL0     H31991  -0.877   7.749   7.608 -1.4231 -2.2627  1.5911
  978MOL0     H31992  -1.127   8.156   7.626 -3.1920 -1.6371 -0.7954
  978MOL0     H31993  -1.323   8.298   7.624  0.0037 -1.6381 -0.7207
  978MOL0     H31994  -1.458   8.535   7.729 -0.2267 -0.2679 -2.7304
  978MOL0     H31995  -1.514   8.383   7.639  1.6446 -0.7644 -0.6681
  978MOL0     H31996  -1.705   8.378   7.785 -0.0683 -0.1009  1.5846
  978MOL0     H31997  -1.669   8.532   7.851 -5.0431  0.2679  0.1785
  978MOL0     H31998  -1.753   8.444   7.562  2.2606  1.7610 -3.4966
  978MOL0     H31999  -1.848   8.537   7.679  0.3593 -3.7019  0.1238
  978MOL0     H32000  -1.730   8.646   7.473  1.1810  1.1117 -0.4858
  978MOL0     H32001  -1.588   8.657   7.578 -0.1878  3.0580  1.6487
  978MOL0     H32002  -1.855   8.766   7.666  0.0928 -0.9768  0.9783
  978MOL0     H32003  -1.752   8.866   7.563  1.8201  0.0489  0.6324
  978MOL0     H32004  -1.733   8.921   7.789  1.0692 -1.2324 -0.0664
  978MOL0     H32005  -1.660   8.764   7.828  0.6305 -0.2290  1.0417
  978MOL0     H32006  -1.506   8.843   7.618 -1.7793  1.1750 -0.9002
  978MOL0     H32007  -1.462   8.862   7.798  0.0693  0.7090  0.0449
  978MOL0     H32008  -1.432   9.058   7.637  0.9418  0.0202  0.1460
  978MOL0     H32009  -1.610   9.048   7.623 -0.0946 -0.3852  1.0011
  978MOL0     H32010  -1.337   8.287   8.051 -3.2165 -0.1425 -1.4628
  978MOL0     H32011  -1.118   8.156   8.047  1.7311 -2.3784 -1.6644
  978MOL0     H32012  -0.760   8.048   7.878  0.1289  0.2839 -0.9871
  978MOL0     H32013  -0.546   7.942   7.930 -0.5687  1.6464 -0.2966
  978MOL0     H32014   1.187   7.551   8.364  0.3059 -1.8797 -1.9447
  978MOL0     H32015   1.371   7.629   8.529  2.2184  2.0406  1.0721
  978MOL0     H32016   1.586   7.787   8.715  2.6259 -1.8238 -0.4627
  978MOL0     H32017   1.696   7.830   8.937 -0.3066  2.1836  1.4582
  978MOL0     H32018   1.925   8.170   9.104  0.5525 -0.4121 -0.3996
  978MOL0     H32019   1.989   8.191   8.937 -1.1694 -1.4863 -3.1285
  978MOL0     H32020   2.153   8.022   8.970  0.7966 -0.2232 -0.3000
  978MOL0     H32021   2.077   7.991   9.135 -3.3931  0.7446 -0.0757
  978MOL0     H32022   2.130   8.201   9.220 -0.8118 -2.0039 -0.2628
  978MOL0     H32023   2.154   8.273   9.058 -1.1082  1.4928  0.9464
  978MOL0     H32024   2.345   8.040   9.172 -1.8869 -0.1831  1.7780
  978MOL0     H32025   2.351   8.140   9.033 -2.0462  1.6930 -0.8599
  978MOL0     H32026   2.559   8.317   9.358 -0.2534 -2.2503  1.7488
  978MOL0     H32027   1.965   8.105   8.741  1.6148 -0.9813  0.2353
  978MOL0     H32028   1.917   8.024   8.406  2.8168  0.8768 -0.2596
  978MOL0     H32029   1.796   8.142   8.452 -0.0981  1.2608  0.9396
  978MOL0     H32030   1.963   8.156   8.513 -1.5776  1.5009 -1.0312
  979MOL0     O32031   3.862   2.989   4.094 -0.8068  0.1961 -0.6470
  979MOL0     C32032   3.842   2.961   3.981 -0.1439 -0.5148 -0.4132
  979MOL0     O32033   3.864   3.044   3.876 -0.5219  0.0601  0.5240
  979MOL0     C32034   3.918   3.173   3.888 -0.1037  0.2942 -0.1475
  979MOL0     C32035   3.843   3.257   3.812  0.0702  0.3450  0.1644
  979MOL0     C32036   3.859   3.395   3.815  0.8123  0.6200 -0.3739
  979MOL0     C32037   3.955   3.453   3.892  0.4504  0.0581  0.0220
  979MOL0     O32038   3.946   3.592   3.908 -0.2909  0.0163  0.0854
  979MOL0     C32039   4.067   3.664   3.936  0.2520  0.7371  0.1245
  979MOL0     C32040   4.020   3.807   3.946  0.4659  0.1951  0.2536
  979MOL0     C32041   4.140   3.899   3.957 -1.0061 -0.8837 -0.7958
  979MOL0     C32042   4.105   4.043   3.998 -0.1459  0.0117  0.4605
  979MOL0     C32043   4.215   4.143   4.001  0.6187 -0.9873  0.4736
  979MOL0     C32044   4.325   4.114   4.102 -0.5294  0.1294 -0.7092
  979MOL0     C32045   4.269   4.111   4.248  0.6659  0.0578  0.2350
  979MOL0     C32046   4.374   4.066   4.351 -0.0353 -0.9628  0.3826
  979MOL0     N32047   4.434   4.184   4.394  0.3796  0.2083  0.3193
  979MOL0     C32048   4.388   4.257   4.499  0.5128 -1.5625  0.4003
  979MOL0     C32049   4.477   4.352   4.515 -0.2237 -0.1819  0.3017
  979MOL0     C32050   4.471   4.450   4.617 -0.3626 -0.3304 -0.2663
  979MOL0     C32051   4.594   4.550   4.623 -0.0158  0.7679 -0.0634
  979MOL0     C32052   4.577   4.630   4.760  0.6092 -0.0388 -0.3164
  979MOL0     C32053   4.667   4.747   4.793 -0.2942  0.8853 -0.3219
  979MOL0     O32054   4.764   4.768   4.691 -0.4805  0.2736  0.5266
  979MOL0     C32055   4.873   4.836   4.742 -0.5606  0.2736 -0.2009
  979MOL0     C32056   4.889   4.906   4.862 -0.0916 -0.2758 -0.4654
  979MOL0     C32057   5.007   4.975   4.898  0.5257  0.4659 -0.1115
  979MOL0     C32058   5.120   4.956   4.826  0.0617 -0.5790 -0.5419
  979MOL0     C32059   5.251   4.993   4.884  0.7285 -0.4556  0.2496
  979MOL0     O32060   5.244   5.026   5.016  0.2059  0.1270 -0.5774
  979MOL0     C32061   5.350   5.038   5.108  0.2843 -1.1424  0.4687
  979MOL0     C32062   5.477   4.975   5.100  1.0261 -1.1441  0.2310
  979MOL0     C32063   5.560   4.994   5.210 -0.4345 -0.4977  0.1796
  979MOL0     C32064   5.546   5.094   5.308  1.3964  0.0569  0.1902
  979MOL0     O32065   5.639   5.097   5.405 -0.4047 -0.6621 -0.0341
  979MOL0     C32066   5.723   5.216   5.408  1.6352  0.2635  0.7914
  979MOL0     C32067   5.855   5.194   5.487 -0.4974 -0.0911 -0.2648
  979MOL0     C32068   5.811   5.184   5.641 -0.0077  0.6824  0.7689
  979MOL0     C32069   5.928   5.150   5.726 -0.5395  0.1269 -0.3522
  979MOL0     C32070   5.893   5.124   5.874 -0.2471 -0.1512  0.3164
  979MOL0     C32071   5.882   5.256   5.952  0.0119  0.7553  0.7355
  979MOL0     C32072   6.023   5.314   5.992  0.0407  0.7712 -0.4500
  979MOL0     C32073   6.007   5.424   6.102  1.2435  0.2532 -0.0025
  979MOL0    Cl32074   5.939   5.574   6.039  0.0086  0.1008  0.3701
  979MOL0     C32075   5.433   5.172   5.301 -0.2716  0.8504 -0.0726
  979MOL0     C32076   5.336   5.143   5.209 -0.5235 -0.3336  0.3838
  979MOL0     O32077   5.349   4.998   4.813 -0.2531  0.0630  0.5515
  979MOL0     C32078   5.106   4.893   4.708  0.1137  0.4850 -0.0372
  979MOL0     C32079   4.988   4.833   4.661 -0.5437 -0.4573  0.0721
  979MOL0     N32080   4.572   4.347   4.413 -0.1262 -0.3689  0.8516
  979MOL0     N32081   4.557   4.234   4.351 -0.1329  0.2292 -0.3771
  979MOL0     C32082   4.039   3.367   3.970  0.0976 -0.9254 -0.5966
  979MOL0     C32083   4.022   3.227   3.965 -0.0888 -0.3098 -1.0239
  979MOL0     C32084   3.791   2.821   3.946  0.5129 -1.0519 -2.0047
  979MOL0     C32085   3.805   2.774   3.814 -0.0639 -0.2499 -0.3686
  979MOL0     C32086   3.773   2.647   3.779 -0.4606  1.3895 -0.1300
  979MOL0     C32087   3.735   2.558   3.879  0.2273  0.8017 -0.4566
  979MOL0     O32088   3.715   2.434   3.827  0.2639 -0.4615 -0.2886
  979MOL0     C32089   3.649   2.339   3.914 -1.3501  1.0215  1.0662
  979MOL0     C32090   3.629   2.199   3.841  1.0523 -0.3149 -0.0160
  979MOL0     C32091   3.538   2.209   3.728 -0.3589 -0.1632  0.1590
  979MOL0     C32092   3.481   2.077   3.675 -0.5860  0.3632 -0.4499
  979MOL0     C32093   3.579   2.000   3.600 -0.0173 -0.5351 -0.4043
  979MOL0     C32094   3.667   1.944   3.538  0.7887 -0.0749 -0.0824
  979MOL0     C32095   3.705   2.603   4.009  0.2017 -1.0965  0.3393
  979MOL0     C32096   3.737   2.740   4.050  0.1625  0.3312  0.1744
  979MOL0     C32097   3.695   2.779   4.187 -0.3906  0.2106  0.0215
  979MOL0     H32098   3.761   3.220   3.750  0.3004  0.3310 -0.1351
  979MOL0     H32099   3.787   3.459   3.767 -0.8424 -0.3192  0.7550
  979MOL0     H32100   4.098   3.639   4.038 -0.6447 -1.2819 -0.0506
  979MOL0     H32101   4.139   3.638   3.858 -0.8126 -3.9343  0.3652
  979MOL0     H32102   3.956   3.807   4.035  2.4239 -1.2546  1.7522
  979MOL0     H32103   3.959   3.835   3.859  1.4872  0.5377 -0.3656
  979MOL0     H32104   4.183   3.907   3.857  3.0139 -5.0504  0.2763
  979MOL0     H32105   4.212   3.858   4.029 -1.5850 -0.2841  0.1499
  979MOL0     H32106   4.032   4.078   3.924 -0.2327 -2.5408 -0.7951
  979MOL0     H32107   4.061   4.039   4.098  1.7501  1.0146  1.3898
  979MOL0     H32108   4.256   4.142   3.899 -0.0347  1.8959  0.0898
  979MOL0     H32109   4.181   4.246   4.010  2.0048 -0.6459  2.3934
  979MOL0     H32110   4.372   4.018   4.078  3.5620  1.8002 -0.2131
  979MOL0     H32111   4.398   4.196   4.103 -0.3180 -0.0577 -0.5227
  979MOL0     H32112   4.180   4.049   4.264 -1.1732  1.8746 -2.1750
  979MOL0     H32113   4.235   4.213   4.267  1.5374  0.1329  1.4576
  979MOL0     H32114   4.324   4.002   4.424  0.9101 -1.0842  0.9488
  979MOL0     H32115   4.450   4.003   4.303 -1.9197 -1.6437 -1.8845
  979MOL0     H32116   4.309   4.246   4.572 -0.8399 -1.0906 -0.9300
  979MOL0     H32117   4.383   4.512   4.596 -0.9494  0.3677  3.5192
  979MOL0     H32118   4.439   4.402   4.710  0.6073  1.4762  1.0521
  979MOL0     H32119   4.691   4.503   4.603 -1.2934 -1.5473 -1.1550
  979MOL0     H32120   4.580   4.625   4.545 -1.2258 -1.1506 -1.7629
  979MOL0     H32121   4.587   4.554   4.838  2.1345 -0.2405 -0.6752
  979MOL0     H32122   4.475   4.671   4.768 -0.4771 -2.0370 -2.4722
  979MOL0     H32123   4.705   4.722   4.892 -1.2966  1.9528  0.3572
  979MOL0     H32124   4.605   4.837   4.803  0.6375  2.0572 -3.5580
  979MOL0     H32125   4.802   4.932   4.922 -0.4617 -2.1871 -0.1019
  979MOL0     H32126   4.983   5.023   4.993  1.2759  0.7623 -0.0621
  979MOL0     H32127   5.485   4.905   5.017 -2.9696 -2.0539  0.3883
  979MOL0     H32128   5.639   4.920   5.208  0.3898  0.2693  2.0695
  979MOL0     H32129   5.737   5.245   5.304 -2.3079  1.1824  0.3663
  979MOL0     H32130   5.671   5.298   5.458  0.6374 -1.9098  3.5515
  979MOL0     H32131   5.909   5.104   5.459 -0.0543 -0.7838  2.5568
  979MOL0     H32132   5.926   5.274   5.465  0.0713 -0.6306 -0.4045
  979MOL0     H32133   5.766   5.278   5.675  0.8909  1.3005  0.2961
  979MOL0     H32134   5.740   5.103   5.658 -0.3287  0.6941 -0.4902
  979MOL0     H32135   5.997   5.235   5.722 -2.8318  2.4984  3.5545
  979MOL0     H32136   5.965   5.056   5.683  1.2799 -0.1492  1.6485
  979MOL0     H32137   5.978   5.073   5.919  3.2383  1.7130 -3.4622
  979MOL0     H32138   5.799   5.072   5.891 -0.0229 -0.2156  1.4319
  979MOL0     H32139   5.818   5.333   5.909 -2.6376 -1.1982  0.9582
  979MOL0     H32140   5.839   5.219   6.045  1.6401 -0.4600  1.0423
  979MOL0     H32141   6.081   5.353   5.908  3.1001  0.0090  1.1594
  979MOL0     H32142   6.076   5.227   6.031 -0.6965  0.3566 -0.3531
  979MOL0     H32143   5.956   5.392   6.193 -1.0317  0.7557 -1.0147
  979MOL0     H32144   6.107   5.455   6.131 -0.1419  2.0818  3.3486
  979MOL0     H32145   5.409   5.263   5.355  1.2111  2.3042 -1.7513
  979MOL0     H32146   5.256   5.215   5.213  1.0624  1.5805  5.2428
  979MOL0     H32147   5.202   4.879   4.659  2.6523  0.6023  4.3650
  979MOL0     H32148   4.988   4.783   4.565 -0.1778  1.7852 -1.1723
  979MOL0     H32149   4.108   3.412   4.041  1.7618 -3.1744 -0.6709
  979MOL0     H32150   4.085   3.160   4.024  0.5501 -0.6933 -2.1026
  979MOL0     H32151   3.837   2.843   3.737 -1.6347  1.0208  0.0543
  979MOL0     H32152   3.790   2.604   3.681 -0.5365 -1.7327  1.1205
  979MOL0     H32153   3.551   2.384   3.931 -2.5292 -0.3306 -1.5200
  979MOL0     H32154   3.701   2.325   4.009  1.4593  2.6950 -0.0759
  979MOL0     H32155   3.578   2.134   3.913  0.2120 -0.1936 -0.4902
  979MOL0     H32156   3.723   2.152   3.809  1.3013  1.4875 -2.1535
  979MOL0     H32157   3.588   2.267   3.650  1.6698  0.4108  1.7831
  979MOL0     H32158   3.447   2.265   3.748 -1.8511 -0.1579 -5.1246
  979MOL0     H32159   3.434   2.019   3.755  0.8707  0.4868  0.5219
  979MOL0     H32160   3.404   2.111   3.604  1.0393  1.8748 -1.5760
  979MOL0     H32161   3.742   1.900   3.475  0.6054  2.4293 -2.2490
  979MOL0     H32162   3.653   2.540   4.080  0.1797 -0.1768  1.1540
  979MOL0     H32163   3.782   2.793   4.251 -1.3281  0.1136  1.3728
  979MOL0     H32164   3.632   2.868   4.184  0.3399  0.8228  1.7370
  979MOL0     H32165   3.643   2.697   4.239  0.1613 -0.6695 -0.7821
  980MOL0     O32166   1.366   7.365   8.713 -0.1397  0.7476  0.2440
  980MOL0     C32167   1.423   7.439   8.793 -0.2029 -1.0117 -0.2007
  980MOL0     O32168   1.546   7.414   8.848  0.6266 -0.3197  0.0449
  980MOL0     C32169   1.635   7.332   8.792 -0.1083 -0.1896 -0.3890
  980MOL0     C32170   1.630   7.200   8.833  0.3661 -0.1952 -0.4173
  980MOL0     C32171   1.735   7.118   8.790  0.5435  0.3641 -0.0108
  980MOL0     C32172   1.833   7.154   8.704 -0.0380 -0.6898  0.8462
  980MOL0     O32173   1.924   7.050   8.664  0.3963 -0.9637  0.0616
  980MOL0     C32174   2.033   7.090   8.584 -0.4036  0.5941 -0.0881
  980MOL0     C32175   2.141   6.978   8.567  0.6131 -0.7471 -0.5396
  980MOL0     C32176   2.262   7.026   8.495 -0.2160  0.5462 -0.1969
  980MOL0     C32177   2.249   7.000   8.348  0.6104  0.8679  0.1887
  980MOL0     C32178   2.383   7.036   8.267  0.7698 -0.7094 -0.2934
  980MOL0     C32179   2.366   7.051   8.114 -0.1668  0.0339  0.2114
  980MOL0     C32180   2.502   7.041   8.036 -0.1515 -0.6466 -1.2026
  980MOL0     C32181   2.476   7.066   7.892  1.0186 -0.1168 -0.1556
  980MOL0     N32182   2.592   7.056   7.808 -0.4608 -0.1983 -0.0181
  980MOL0     C32183   2.712   7.099   7.825 -0.0701  0.1354 -0.6939
  980MOL0     C32184   2.798   7.044   7.732 -0.1258  0.2657 -0.5663
  980MOL0     C32185   2.952   7.042   7.722  0.1208 -0.1211 -0.8115
  980MOL0     C32186   3.019   7.009   7.856  0.1890 -0.2634 -0.0200
  980MOL0     C32187   3.164   6.959   7.863 -0.2605 -0.2048  0.1189
  980MOL0     C32188   3.227   6.934   8.013  0.5431 -0.0342  0.6293
  980MOL0     O32189   3.360   6.877   8.019  0.1951  0.8247  0.4328
  980MOL0     C32190   3.457   6.937   7.943  0.2045 -0.2644 -0.6485
  980MOL0     C32191   3.553   6.868   7.877 -0.3475  0.7159  0.6146
  980MOL0     C32192   3.666   6.927   7.815  0.7090  0.0574 -0.0027
  980MOL0     C32193   3.665   7.073   7.796  0.7700  0.5211 -0.4491
  980MOL0     C32194   3.779   7.147   7.734 -1.0361 -0.2111  0.0461
  980MOL0     O32195   3.756   7.272   7.686  0.3232  0.0671  0.1659
  980MOL0     C32196   3.845   7.351   7.632  0.3934 -0.6570 -0.6726
  980MOL0     C32197   3.902   7.458   7.703 -0.5075 -0.2209 -0.1859
  980MOL0     C32198   4.006   7.536   7.643  0.1810  0.4020  0.6133
  980MOL0     C32199   4.051   7.511   7.516  0.1745  0.6491 -0.6143
  980MOL0     O32200   4.155   7.579   7.459  0.1687  0.3492 -0.3042
  980MOL0     C32201   4.161   7.719   7.494 -0.1724 -0.3662 -0.3978
  980MOL0     C32202   4.256   7.742   7.609  0.2100  0.0108 -0.1118
  980MOL0     C32203   4.297   7.902   7.616 -0.0968  1.1495  0.6285
  980MOL0     C32204   4.387   7.961   7.510  0.0620 -0.3259 -0.6804
  980MOL0     C32205   4.396   8.116   7.530  0.5843  0.7029  0.0720
  980MOL0     C32206   4.521   8.182   7.490 -0.8160  0.2335 -0.4795
  980MOL0     C32207   4.531   8.200   7.336  0.7930 -0.1887 -0.4041
  980MOL0     C32208   4.415   8.302   7.291  1.2584 -0.2812  0.5169
  980MOL0    Cl32209   4.481   8.448   7.235  0.4095  0.1743 -0.2037
  980MOL0     C32210   3.994   7.402   7.443 -0.0038 -0.5613 -0.4542
  980MOL0     C32211   3.886   7.327   7.504 -0.5104 -0.0052 -0.2303
  980MOL0     O32212   3.891   7.088   7.737  0.0761  0.3678 -0.3944
  980MOL0     C32213   3.565   7.146   7.856 -0.0161  0.0710  0.1702
  980MOL0     C32214   3.466   7.086   7.935  0.2743  0.0950 -0.3296
  980MOL0     N32215   2.723   6.982   7.637 -0.3357  0.1374  0.2981
  980MOL0     N32216   2.601   6.994   7.683 -0.7276  0.4304 -0.1841
  980MOL0     C32217   1.834   7.286   8.658 -0.5294  0.3304  0.4169
  980MOL0     C32218   1.733   7.373   8.706 -0.1873  1.0115  0.3034
  980MOL0     C32219   1.338   7.547   8.851 -0.4413 -0.1293 -0.5733
  980MOL0     C32220   1.220   7.576   8.778 -0.4205 -0.9066  0.3406
  980MOL0     C32221   1.131   7.670   8.834 -0.7517  0.3017  0.4714
  980MOL0     C32222   1.162   7.739   8.952  0.1470  0.0672  0.2239
  980MOL0     O32223   1.063   7.820   9.000  0.6621  0.7309 -0.5168
  980MOL0     C32224   1.097   7.932   9.081  0.0670  0.1322 -0.3009
  980MOL0     C32225   0.965   8.004   9.125  0.2324  0.1717  0.0636
  980MOL0     C32226   0.985   8.105   9.234 -0.2282  0.1369  0.0393
  980MOL0     C32227   0.875   8.199   9.270  0.7329 -0.9033 -0.2740
  980MOL0     C32228   0.932   8.291   9.369  1.0032 -0.7139  0.4028
  980MOL0     C32229   0.961   8.374   9.446 -0.8589 -0.2759  1.0571
  980MOL0     C32230   1.280   7.715   9.024  0.4661  0.2231  0.1965
  980MOL0     C32231   1.370   7.616   8.973  0.0930 -0.2325  0.5424
  980MOL0     C32232   1.502   7.605   9.034 -0.2882 -0.6199  0.0476
  980MOL0     H32233   1.536   7.171   8.880 -1.4553  0.7406 -3.1964
  980MOL0     H32234   1.749   7.013   8.815  0.5219  0.3251 -0.1600
  980MOL0     H32235   1.992   7.104   8.483 -1.6014  2.1816  0.5785
  980MOL0     H32236   2.079   7.182   8.621  1.1138 -0.3950  0.5954
  980MOL0     H32237   2.099   6.892   8.515 -0.3988 -1.2136  0.9759
  980MOL0     H32238   2.174   6.931   8.660  1.5537 -1.4467 -1.2015
  980MOL0     H32239   2.352   6.972   8.528  0.0037  1.0853  0.1243
  980MOL0     H32240   2.294   7.130   8.510  1.0365  0.3899 -1.5800
  980MOL0     H32241   2.228   6.894   8.336 -1.5823  0.7991  3.4775
  980MOL0     H32242   2.162   7.054   8.308  1.2158  1.4119 -0.4165
  980MOL0     H32243   2.411   7.134   8.307  0.7739 -0.7362 -0.2310
  980MOL0     H32244   2.455   6.958   8.289 -0.8587 -1.7729  1.5162
  980MOL0     H32245   2.302   6.971   8.075  1.6000 -0.1850 -2.5886
  980MOL0     H32246   2.321   7.146   8.084 -0.1838  0.2289  0.8400
  980MOL0     H32247   2.559   6.949   8.051  0.4963 -0.1156 -0.2634
  980MOL0     H32248   2.564   7.123   8.075 -3.2602  0.6442  1.5164
  980MOL0     H32249   2.411   6.992   7.845  0.0626  1.8472 -2.1277
  980MOL0     H32250   2.437   7.167   7.877  2.9057  0.2907 -2.9678
  980MOL0     H32251   2.743   7.156   7.912 -2.2433 -1.7076  1.4394
  980MOL0     H32252   2.991   6.968   7.652 -0.2706  1.5723 -2.9268
  980MOL0     H32253   2.979   7.140   7.682 -0.7487  0.6651  0.4523
  980MOL0     H32254   3.013   7.099   7.918  0.5667 -0.8789  0.9434
  980MOL0     H32255   2.961   6.925   7.897 -0.7907  1.2390  1.8190
  980MOL0     H32256   3.214   7.033   7.800 -3.9937  1.0569 -1.7091
  980MOL0     H32257   3.159   6.858   7.821 -2.0558  0.4501 -1.4253
  980MOL0     H32258   3.167   6.865   8.073 -0.1758  0.9282  1.0382
  980MOL0     H32259   3.227   7.029   8.067 -0.4375  0.1637  0.2962
  980MOL0     H32260   3.572   6.763   7.858  1.6975  0.9746  0.9686
  980MOL0     H32261   3.741   6.865   7.766  0.5885  1.4715 -2.0878
  980MOL0     H32262   3.864   7.478   7.803 -0.1196 -2.9907  0.5964
  980MOL0     H32263   4.043   7.616   7.707  3.2007 -2.4904  2.8470
  980MOL0     H32264   4.191   7.769   7.401  2.3193 -1.0587 -0.0454
  980MOL0     H32265   4.062   7.750   7.527  0.6627 -0.6167  2.6249
  980MOL0     H32266   4.227   7.706   7.709 -1.9750 -2.9047 -1.6243
  980MOL0     H32267   4.351   7.694   7.582  0.2465  0.0970 -0.1352
  980MOL0     H32268   4.203   7.955   7.630 -0.3040  0.8355  0.4358
  980MOL0     H32269   4.356   7.905   7.708  0.8629 -0.6529  0.1140
  980MOL0     H32270   4.343   7.939   7.412  1.5638 -1.5734 -1.1047
  980MOL0     H32271   4.487   7.919   7.516  1.3819  2.7485  1.1888
  980MOL0     H32272   4.390   8.124   7.639 -2.5265  1.2351 -0.0460
  980MOL0     H32273   4.302   8.169   7.510 -0.0749  0.3985  2.1731
  980MOL0     H32274   4.542   8.279   7.538 -0.6095 -1.3237  2.8690
  980MOL0     H32275   4.599   8.108   7.509 -3.1627 -1.2950  5.4180
  980MOL0     H32276   4.520   8.100   7.293  2.7612  0.5248 -2.7303
  980MOL0     H32277   4.628   8.222   7.292 -0.0773 -0.3606 -2.5405
  980MOL0     H32278   4.353   8.261   7.211  0.1831  1.2351  0.5402
  980MOL0     H32279   4.349   8.323   7.375  0.4611 -1.5261  0.2317
  980MOL0     H32280   4.032   7.382   7.343  0.8811 -2.2507  0.1672
  980MOL0     H32281   3.838   7.246   7.449  4.0528 -3.7851  0.7085
  980MOL0     H32282   3.563   7.254   7.840  2.6816 -0.0947 -2.0162
  980MOL0     H32283   3.405   7.157   7.990  0.9423 -1.0588  2.0592
  980MOL0     H32284   1.911   7.323   8.591  1.2670 -1.3007  1.4877
  980MOL0     H32285   1.746   7.478   8.682 -2.8588  0.9763 -1.8079
  980MOL0     H32286   1.178   7.531   8.689 -2.2946 -1.2707  1.3522
  980MOL0     H32287   1.031   7.681   8.795  0.1477  0.2308 -2.0288
  980MOL0     H32288   1.147   8.000   9.012  0.3543  0.8191  0.5731
  980MOL0     H32289   1.160   7.915   9.169  3.9797  2.7267 -2.2757
  980MOL0     H32290   0.894   7.931   9.166  0.8633  0.3819  1.5817
  980MOL0     H32291   0.926   8.062   9.041 -2.8047 -3.8469 -1.6049
  980MOL0     H32292   1.065   8.173   9.202 -2.4768  1.7928 -2.4536
  980MOL0     H32293   1.024   8.050   9.320  2.9876 -2.7171 -2.9277
  980MOL0     H32294   0.825   8.250   9.187  2.7233 -1.9493 -2.2144
  980MOL0     H32295   0.801   8.141   9.326  0.8031 -0.2167  0.5497
  980MOL0     H32296   0.979   8.449   9.521 -1.3449  1.2240 -0.2586
  980MOL0     H32297   1.302   7.763   9.119 -0.6408  1.4486 -0.1237
  980MOL0     H32298   1.516   7.507   9.080  1.5521  0.4713  1.9789
  980MOL0     H32299   1.571   7.620   8.951 -1.7093 -0.6856 -1.1888
  980MOL0     H32300   1.503   7.677   9.117 -4.2316 -0.0454 -0.2274
  981MOL0     O32301   5.771   0.971   5.656 -0.2293  0.0879 -0.5299
  981MOL0     C32302   5.739   0.925   5.766 -0.1462  0.2108 -0.5821
  981MOL0     O32303   5.822   0.913   5.880 -0.4361  0.1796  0.7547
  981MOL0     C32304   5.954   0.954   5.868  0.1850  0.4371 -0.6740
  981MOL0     C32305   5.997   1.084   5.852 -0.2439  0.4142 -0.1845
  981MOL0     C32306   6.136   1.103   5.848 -0.3071 -0.4158 -0.4377
  981MOL0     C32307   6.232   0.991   5.865  0.5354  0.0122  0.8552
  981MOL0     O32308   6.361   1.016   5.849 -0.7217 -0.5529  0.2940
  981MOL0     C32309   6.424   0.955   5.731 -0.6137  0.2984 -0.0519
  981MOL0     C32310   6.573   0.935   5.745 -1.0266  0.2120  0.0946
  981MOL0     C32311   6.657   1.064   5.755  0.2089 -0.4560  0.1988
  981MOL0     C32312   6.670   1.129   5.610  0.8622  0.2679 -0.0525
  981MOL0     C32313   6.637   1.275   5.607  0.4007  0.2057  0.5457
  981MOL0     C32314   6.636   1.324   5.460 -0.1010  0.1796 -0.2065
  981MOL0     C32315   6.596   1.471   5.455 -0.7718 -0.3954  0.6001
  981MOL0     C32316   6.453   1.508   5.506  0.1222  0.0411 -0.2739
  981MOL0     N32317   6.465   1.615   5.607  0.7508  0.5014 -0.1823
  981MOL0     C32318   6.469   1.744   5.584  0.2588 -1.0229 -0.6099
  981MOL0     C32319   6.443   1.796   5.705  0.8553 -0.4770 -0.1466
  981MOL0     C32320   6.431   1.948   5.726  0.5856  1.0257  0.0522
  981MOL0     C32321   6.565   2.014   5.749  0.1352 -0.4270 -0.0539
  981MOL0     C32322   6.625   1.971   5.888 -0.6350 -0.2946  0.6367
  981MOL0     C32323   6.756   2.042   5.913 -0.6822 -0.1035 -0.1205
  981MOL0     O32324   6.853   2.000   5.810 -0.0126  0.4791 -0.0371
  981MOL0     C32325   6.979   2.030   5.845 -0.0944  0.2638 -0.0036
  981MOL0     C32326   7.077   2.000   5.749 -0.0830 -0.6420 -0.1136
  981MOL0     C32327   7.204   2.046   5.760  0.5291  0.3855 -0.4930
  981MOL0     C32328   7.251   2.094   5.884 -0.6750  0.3833  0.3401
  981MOL0     C32329   7.398   2.129   5.897  0.6604 -0.6679 -0.1390
  981MOL0     O32330   7.476   2.121   5.782 -0.3043  0.4428 -0.5404
  981MOL0     C32331   7.609   2.148   5.807 -0.6839  0.4171  0.7223
  981MOL0     C32332   7.691   2.048   5.869  0.0053 -0.2193  0.3145
  981MOL0     C32333   7.834   2.088   5.878  0.4971 -0.3114  0.5507
  981MOL0     C32334   7.889   2.209   5.835 -0.2540  0.9095 -0.1503
  981MOL0     O32335   8.025   2.223   5.844 -0.2495 -0.4357 -0.3567
  981MOL0     C32336   8.073   2.358   5.862 -0.0821  0.4980  0.5443
  981MOL0     C32337   8.207   2.350   5.936 -1.2791  0.2276  0.5883
  981MOL0     C32338   8.326   2.267   5.874  1.5090 -0.4504  1.0634
  981MOL0     C32339   8.444   2.258   5.972  0.1188 -0.5763 -0.5971
  981MOL0     C32340   8.561   2.193   5.906  0.4870  0.7027  0.0148
  981MOL0     C32341   8.680   2.177   5.993  0.6372  0.0062 -1.2570
  981MOL0     C32342   8.742   2.314   6.031 -0.2906 -0.4598 -0.2244
  981MOL0     C32343   8.871   2.289   6.121  0.9670  1.1720  0.3502
  981MOL0    Cl32344   8.881   2.417   6.241  0.3423 -0.0810 -0.2216
  981MOL0     C32345   7.802   2.298   5.774  0.0100  0.6860  0.1887
  981MOL0     C32346   7.668   2.272   5.759  0.3689 -0.1418 -0.8036
  981MOL0     O32347   7.428   2.180   6.006  0.4475 -0.2807 -0.3766
  981MOL0     C32348   7.162   2.112   5.994  0.1047 -0.1475 -0.1042
  981MOL0     C32349   7.025   2.084   5.970 -0.9073  0.0901 -0.1640
  981MOL0     N32350   6.443   1.698   5.800 -0.2232 -0.6964 -0.3832
  981MOL0     N32351   6.459   1.591   5.739  0.1901 -0.1107 -0.6852
  981MOL0     C32352   6.182   0.858   5.882  0.5239 -0.3086 -0.3910
  981MOL0     C32353   6.047   0.846   5.888  0.6306 -0.6849  0.5757
  981MOL0     C32354   5.618   0.844   5.779 -0.5138  0.5972 -0.3684
  981MOL0     C32355   5.623   0.716   5.832  0.2178  1.2923 -0.3932
  981MOL0     C32356   5.510   0.639   5.852 -0.0615 -0.4237 -0.3160
  981MOL0     C32357   5.385   0.675   5.807 -0.7885 -0.6156  0.6187
  981MOL0     O32358   5.272   0.604   5.815  0.2670 -0.2778  0.9199
  981MOL0     C32359   5.261   0.472   5.874 -0.2855 -0.0193  0.3630
  981MOL0     C32360   5.115   0.454   5.929  0.8279  0.3917 -0.9897
  981MOL0     C32361   5.120   0.388   6.067 -0.0826  1.0033 -0.9080
  981MOL0     C32362   4.983   0.382   6.134  0.4732  0.3563  0.0836
  981MOL0     C32363   4.892   0.284   6.073 -0.6356 -0.1880  0.1294
  981MOL0     C32364   4.832   0.181   6.037  0.2029 -1.2835 -0.0751
  981MOL0     C32365   5.381   0.798   5.743  1.1013  1.0386 -0.8325
  981MOL0     C32366   5.491   0.885   5.740  0.4802 -0.6512  0.2731
  981MOL0     C32367   5.476   1.031   5.702  0.0157  0.0456  0.0487
  981MOL0     H32368   5.921   1.160   5.842  0.4731  1.0144 -1.2531
  981MOL0     H32369   6.185   1.190   5.806  1.1553 -1.1936 -0.3912
  981MOL0     H32370   6.377   0.857   5.713  1.3597 -0.8124  0.5437
  981MOL0     H32371   6.408   1.022   5.647 -0.5192  0.9663  0.4550
  981MOL0     H32372   6.604   0.868   5.665 -0.9754 -0.1207  0.3907
  981MOL0     H32373   6.598   0.881   5.837  1.9395  0.8755 -0.2350
  981MOL0     H32374   6.759   1.041   5.788  1.2574 -0.5873 -2.7590
  981MOL0     H32375   6.612   1.145   5.813  0.6434 -1.1915  1.6047
  981MOL0     H32376   6.769   1.103   5.569  0.5254 -2.7333  0.7524
  981MOL0     H32377   6.599   1.081   5.542  0.7202  1.4323 -0.7416
  981MOL0     H32378   6.536   1.287   5.648 -0.1638 -1.1577 -0.3907
  981MOL0     H32379   6.706   1.328   5.673  1.0978  1.3054 -1.0255
  981MOL0     H32380   6.733   1.301   5.414 -0.0404  0.1045 -0.0383
  981MOL0     H32381   6.555   1.279   5.402 -1.5504  0.9272  1.1944
  981MOL0     H32382   6.587   1.494   5.349 -1.5969 -0.0227  0.7459
  981MOL0     H32383   6.675   1.531   5.500 -2.5035  1.6305  1.1025
  981MOL0     H32384   6.390   1.534   5.420 -0.2810  4.5774  1.0894
  981MOL0     H32385   6.400   1.431   5.563 -0.9160  1.4806  0.8040
  981MOL0     H32386   6.460   1.791   5.487  4.1399  0.0274 -0.6263
  981MOL0     H32387   6.386   1.981   5.632 -0.5199  0.0995  0.2340
  981MOL0     H32388   6.362   1.970   5.808 -0.5158 -0.3150 -0.4912
  981MOL0     H32389   6.636   1.992   5.669  0.7286  0.8547  0.0817
  981MOL0     H32390   6.548   2.123   5.750 -2.3150 -0.7351  1.6825
  981MOL0     H32391   6.640   1.864   5.904  0.4304 -0.0265  1.5523
  981MOL0     H32392   6.551   1.988   5.967 -1.1841 -2.2142  0.5999
  981MOL0     H32393   6.792   1.987   6.000 -2.2614 -3.3036 -1.3226
  981MOL0     H32394   6.759   2.151   5.921 -1.1657 -0.0179 -0.9171
  981MOL0     H32395   7.060   1.943   5.658 -0.8710  1.9146 -1.6627
  981MOL0     H32396   7.265   2.027   5.672  0.0860 -0.4073 -0.6437
  981MOL0     H32397   7.657   1.949   5.898  4.2115 -1.3697  2.1391
  981MOL0     H32398   7.886   2.011   5.933  2.8374  0.4729 -0.4368
  981MOL0     H32399   8.080   2.399   5.761 -0.3703  0.5649  0.5489
  981MOL0     H32400   8.010   2.411   5.934 -1.0713 -1.1501  0.9647
  981MOL0     H32401   8.243   2.453   5.927  0.9022 -0.3484  2.0095
  981MOL0     H32402   8.185   2.332   6.041 -1.1232  1.6153  0.8780
  981MOL0     H32403   8.300   2.166   5.840 -0.5501  1.2246 -2.9924
  981MOL0     H32404   8.351   2.317   5.780  5.2189 -3.2164  0.3919
  981MOL0     H32405   8.402   2.208   6.060 -1.5924  4.8768  2.1159
  981MOL0     H32406   8.466   2.355   6.017  0.1716 -0.4829 -0.8198
  981MOL0     H32407   8.598   2.253   5.822 -0.1556  3.4247  1.5338
  981MOL0     H32408   8.530   2.101   5.855  0.9296  0.3929  0.3059
  981MOL0     H32409   8.653   2.116   6.080 -1.9663 -0.8797 -2.5933
  981MOL0     H32410   8.765   2.128   5.945  1.7702 -0.1899  0.8134
  981MOL0     H32411   8.671   2.374   6.087 -1.7355 -3.1382  1.0406
  981MOL0     H32412   8.779   2.371   5.946  2.2508 -1.8959 -0.1900
  981MOL0     H32413   8.857   2.197   6.179 -0.1096  0.7896 -0.4725
  981MOL0     H32414   8.965   2.301   6.067 -0.4693  2.2837 -2.0646
  981MOL0     H32415   7.847   2.391   5.741  3.1388 -0.9733 -0.5712
  981MOL0     H32416   7.604   2.352   5.721  0.8148  0.1390 -0.9737
  981MOL0     H32417   7.205   2.145   6.088 -0.9512  1.2705 -0.1052
  981MOL0     H32418   6.955   2.109   6.050  0.6516 -3.7797  2.7549
  981MOL0     H32419   6.245   0.770   5.894 -0.9343 -1.1678  1.4368
  981MOL0     H32420   5.998   0.750   5.886  2.2586 -1.5493 -0.3192
  981MOL0     H32421   5.719   0.672   5.858 -2.2631 -3.4427  2.0251
  981MOL0     H32422   5.520   0.546   5.908  0.6340  1.9608  3.9977
  981MOL0     H32423   5.334   0.449   5.952  0.6279  1.8982  0.1367
  981MOL0     H32424   5.286   0.391   5.805 -1.1372 -0.2609  0.3293
  981MOL0     H32425   5.061   0.378   5.872 -2.7927  1.3799  0.8532
  981MOL0     H32426   5.063   0.551   5.935 -0.8842 -0.3661 -2.6311
  981MOL0     H32427   5.200   0.432   6.126 -0.6403  1.4138 -0.4432
  981MOL0     H32428   5.159   0.286   6.055  0.4805  1.3136 -1.7532
  981MOL0     H32429   5.003   0.338   6.232  0.1192 -0.8747 -0.3698
  981MOL0     H32430   4.940   0.482   6.134  1.1403  0.6975 -1.7761
  981MOL0     H32431   4.792   0.086   6.009  0.4627 -2.0542  2.0015
  981MOL0     H32432   5.283   0.840   5.719  0.4503  1.4642  2.2076
  981MOL0     H32433   5.369   1.051   5.703  0.1461  1.7860  4.6238
  981MOL0     H32434   5.517   1.098   5.778 -0.9373  0.9535 -0.2126
  981MOL0     H32435   5.519   1.054   5.604  1.2477 -0.9625  0.3328
  982MOL0     O32436  11.451   4.339   1.568 -0.3881  0.3043  0.2418
  982MOL0     C32437  11.392   4.430   1.508 -0.6494  0.0078  0.8156
  982MOL0     O32438  11.436   4.500   1.392 -1.0872 -0.4589 -0.3708
  982MOL0     C32439  11.571   4.510   1.366 -0.2827  0.3555 -0.3796
  982MOL0     C32440  11.592   4.584   1.255  1.2061 -0.4481 -0.2809
  982MOL0     C32441  11.720   4.605   1.208 -0.3809 -0.2007 -0.7830
  982MOL0     C32442  11.836   4.562   1.277 -0.0696 -0.3486 -0.0106
  982MOL0     O32443  11.961   4.557   1.216  0.2995  0.5747 -0.1069
  982MOL0     C32444  12.002   4.664   1.137 -0.1438 -0.5771  0.1446
  982MOL0     C32445  12.101   4.764   1.206 -0.1303 -0.2609  0.3638
  982MOL0     C32446  12.232   4.695   1.260  0.6904  0.3711  0.4309
  982MOL0     C32447  12.310   4.786   1.350 -0.1470 -0.2745  0.6861
  982MOL0     C32448  12.408   4.705   1.432  0.4701 -0.2195  0.4443
  982MOL0     C32449  12.501   4.809   1.512  0.6257  0.9858  0.3132
  982MOL0     C32450  12.611   4.727   1.576 -0.0508 -0.6220 -1.2013
  982MOL0     C32451  12.719   4.682   1.476 -0.1715  0.3267 -0.0803
  982MOL0     N32452  12.831   4.608   1.532 -0.3840 -0.3200 -0.4955
  982MOL0     C32453  12.961   4.643   1.498  0.4059 -0.4135  0.8839
  982MOL0     C32454  13.036   4.588   1.603  0.1132 -0.9427 -0.4459
  982MOL0     C32455  13.181   4.637   1.637 -0.6829  0.5670 -0.5331
  982MOL0     C32456  13.212   4.781   1.612 -0.4577 -0.8609  0.1256
  982MOL0     C32457  13.357   4.832   1.647  0.2513 -0.2912 -0.8523
  982MOL0     C32458  13.377   4.984   1.613 -1.0031  0.3395  0.4675
  982MOL0     O32459  13.466   5.049   1.703 -0.3170 -0.6736 -0.3342
  982MOL0     C32460  13.483   5.190   1.704  0.7534 -0.7024 -0.0678
  982MOL0     C32461  13.410   5.281   1.620  0.5069 -0.2422 -0.0368
  982MOL0     C32462  13.446   5.417   1.633  0.2776 -1.1425  0.9711
  982MOL0     C32463  13.534   5.472   1.733 -0.3702  0.2923 -0.5660
  982MOL0     C32464  13.559   5.626   1.741  0.0771  0.6934 -0.8802
  982MOL0     O32465  13.656   5.674   1.830 -0.0472  0.3493 -0.0096
  982MOL0     C32466  13.715   5.791   1.821 -0.0454  0.3287  0.4748
  982MOL0     C32467  13.777   5.854   1.926 -0.0408  0.7234 -0.1333
  982MOL0     C32468  13.861   5.964   1.899 -0.4819  1.2425 -0.0436
  982MOL0     C32469  13.863   6.029   1.770 -0.0679  0.0063 -0.3095
  982MOL0     O32470  13.925   6.148   1.733  0.3472  0.7331 -0.2289
  982MOL0     C32471  14.045   6.183   1.796 -0.4424  0.1079 -0.4100
  982MOL0     C32472  14.134   6.247   1.694 -0.5353  0.5736 -0.5956
  982MOL0     C32473  14.269   6.279   1.752 -0.7645  0.8252  0.9308
  982MOL0     C32474  14.356   6.347   1.638  0.2606 -0.2962 -0.5325
  982MOL0     C32475  14.491   6.390   1.704  0.2569  0.5171 -0.1101
  982MOL0     C32476  14.593   6.434   1.593  0.0419  0.4452 -0.5414
  982MOL0     C32477  14.714   6.501   1.649 -0.0211  0.6460  0.1929
  982MOL0     C32478  14.807   6.544   1.541  0.0075  0.3800  0.6715
  982MOL0    Cl32479  14.959   6.601   1.614 -0.7952  0.6708  0.2528
  982MOL0     C32480  13.789   5.969   1.673  0.2713 -0.2922 -0.9717
  982MOL0     C32481  13.717   5.848   1.692  0.7097 -0.0830 -0.4789
  982MOL0     O32482  13.483   5.698   1.669 -0.3795 -0.7849  0.9654
  982MOL0     C32483  13.601   5.373   1.815  0.4127 -0.8395 -0.4839
  982MOL0     C32484  13.574   5.240   1.800 -0.7140  0.7304  0.4907
  982MOL0     N32485  12.947   4.524   1.687 -0.3179  0.3902  0.3338
  982MOL0     N32486  12.827   4.530   1.643  0.4936 -0.1578  0.4209
  982MOL0     C32487  11.812   4.486   1.389  0.4620 -0.4496  0.3210
  982MOL0     C32488  11.682   4.455   1.430 -0.2143 -0.0427 -0.3454
  982MOL0     C32489  11.249   4.452   1.549 -0.1661 -1.0586 -0.2688
  982MOL0     C32490  11.184   4.364   1.639 -0.3172 -0.1390 -0.5106
  982MOL0     C32491  11.049   4.377   1.685  0.1146 -0.6189 -0.6179
  982MOL0     C32492  10.969   4.483   1.626  1.1996 -0.4080 -0.7995
  982MOL0     O32493  10.838   4.494   1.676 -0.3896  0.1471  0.0455
  982MOL0     C32494  10.745   4.518   1.569  0.1927  0.7157  0.4496
  982MOL0     C32495  10.609   4.519   1.635  0.3440  0.1119  0.1656
  982MOL0     C32496  10.591   4.667   1.694 -0.3415  0.8648 -1.1589
  982MOL0     C32497  10.460   4.661   1.781 -0.3003  0.0382  1.0896
  982MOL0     C32498  10.495   4.636   1.914 -0.4801  0.9289  0.2058
  982MOL0     C32499  10.507   4.611   2.031  0.0716 -0.5519  0.3361
  982MOL0     C32500  11.031   4.564   1.531 -0.3649 -0.0919 -0.1061
  982MOL0     C32501  11.171   4.559   1.495  0.2127 -0.6374 -1.2071
  982MOL0     C32502  11.213   4.675   1.404 -0.3074  0.1601  0.5158
  982MOL0     H32503  11.505   4.607   1.194  1.2061  1.3194  0.3049
  982MOL0     H32504  11.729   4.666   1.119  2.2574 -0.4251 -0.7515
  982MOL0     H32505  12.051   4.621   1.049  1.4319  1.3156  0.0356
  982MOL0     H32506  11.914   4.718   1.099  0.7012  0.2173 -0.7267
  982MOL0     H32507  12.038   4.800   1.288 -1.0852 -0.9212 -0.0593
  982MOL0     H32508  12.135   4.844   1.139  1.5736 -1.0379  0.2377
  982MOL0     H32509  12.301   4.678   1.176 -0.9204  1.1970 -1.1341
  982MOL0     H32510  12.205   4.603   1.312 -1.8771 -0.3417 -1.9620
  982MOL0     H32511  12.375   4.854   1.295  0.3640 -0.9007  0.4977
  982MOL0     H32512  12.236   4.837   1.413 -0.0055 -0.2832  0.8590
  982MOL0     H32513  12.341   4.652   1.500 -0.2986 -2.7945 -2.1200
  982MOL0     H32514  12.471   4.644   1.367  1.4617  1.8005 -0.5821
  982MOL0     H32515  12.546   4.888   1.450  1.7025  2.3481  2.6952
  982MOL0     H32516  12.443   4.851   1.594 -0.8008 -0.1068 -0.0964
  982MOL0     H32517  12.569   4.649   1.640 -0.4827  0.4107 -0.1784
  982MOL0     H32518  12.656   4.791   1.653  0.2638 -2.1996 -0.0191
  982MOL0     H32519  12.684   4.603   1.410  3.1715 -2.5421  1.2144
  982MOL0     H32520  12.753   4.759   1.406 -2.0227  0.6465 -0.6708
  982MOL0     H32521  13.002   4.697   1.413 -0.7828 -1.6544 -0.5391
  982MOL0     H32522  13.190   4.615   1.744  0.9604 -1.2839 -1.0001
  982MOL0     H32523  13.256   4.574   1.588 -2.0244 -1.3903 -0.2058
  982MOL0     H32524  13.213   4.797   1.503  1.1188 -1.5926  0.0081
  982MOL0     H32525  13.139   4.848   1.657  1.1075 -0.1737  1.7392
  982MOL0     H32526  13.424   4.760   1.599 -0.2319  0.3069 -2.5083
  982MOL0     H32527  13.358   4.815   1.755  0.3529 -0.2437 -0.8454
  982MOL0     H32528  13.281   5.034   1.622 -0.0798  2.0896  0.9821
  982MOL0     H32529  13.421   4.994   1.514  0.1207  1.5858  1.0678
  982MOL0     H32530  13.348   5.235   1.544  1.5204 -0.0728 -1.0019
  982MOL0     H32531  13.404   5.489   1.563  0.9177 -2.8024 -1.2684
  982MOL0     H32532  13.791   5.791   2.014  1.4877  0.7676 -0.3260
  982MOL0     H32533  13.914   6.010   1.982 -1.0407 -1.3692  1.9164
  982MOL0     H32534  14.030   6.256   1.877 -0.9856  0.8715 -1.1815
  982MOL0     H32535  14.097   6.101   1.846  2.8670  2.4945  0.4510
  982MOL0     H32536  14.142   6.172   1.615  2.8768  2.3936 -2.2133
  982MOL0     H32537  14.083   6.331   1.646 -1.8894  0.4222  0.5392
  982MOL0     H32538  14.277   6.344   1.839  3.2932  2.6054 -0.5654
  982MOL0     H32539  14.315   6.186   1.787 -0.7147  0.4557 -0.0623
  982MOL0     H32540  14.306   6.430   1.588  0.1898 -0.7001 -1.1430
  982MOL0     H32541  14.375   6.273   1.560 -3.8827 -2.4471  0.2025
  982MOL0     H32542  14.530   6.305   1.761 -0.3936  1.0229  1.1295
  982MOL0     H32543  14.473   6.471   1.775  5.3085  1.7522  0.1538
  982MOL0     H32544  14.616   6.342   1.540 -1.3680  1.5089 -3.2307
  982MOL0     H32545  14.548   6.499   1.517 -4.2324  0.7957  1.9320
  982MOL0     H32546  14.777   6.440   1.713  2.6361 -0.0135 -2.7817
  982MOL0     H32547  14.681   6.585   1.710 -0.9165 -0.5530  1.4203
  982MOL0     H32548  14.820   6.460   1.472 -2.0662  0.0202  0.6278
  982MOL0     H32549  14.768   6.626   1.480  0.6913 -0.3571 -0.8011
  982MOL0     H32550  13.771   6.012   1.575  1.6757  1.8044 -0.3813
  982MOL0     H32551  13.673   5.804   1.603 -0.4345 -2.6248  1.2499
  982MOL0     H32552  13.661   5.409   1.898 -1.0778  0.8302 -0.0599
  982MOL0     H32553  13.611   5.176   1.880 -0.6670  0.4230  0.2261
  982MOL0     H32554  11.894   4.447   1.448  0.3311 -1.6614 -0.2649
  982MOL0     H32555  11.672   4.388   1.515  1.9717  0.0034  0.0069
  982MOL0     H32556  11.236   4.274   1.671  0.8028  0.0226 -1.7772
  982MOL0     H32557  11.019   4.292   1.746  0.0802 -0.5545 -0.5452
  982MOL0     H32558  10.754   4.430   1.503  2.5801  1.1416  0.1441
  982MOL0     H32559  10.770   4.602   1.503 -1.0429  0.5863 -0.2338
  982MOL0     H32560  10.610   4.438   1.709  2.8855 -0.8896 -0.8848
  982MOL0     H32561  10.536   4.492   1.559  1.6044 -1.4435 -0.5256
  982MOL0     H32562  10.578   4.733   1.608 -2.3003  0.3705 -1.3015
  982MOL0     H32563  10.674   4.709   1.750 -1.7948 -0.6355  2.4697
  982MOL0     H32564  10.403   4.754   1.789 -1.0395 -0.3143  0.1159
  982MOL0     H32565  10.398   4.577   1.748 -0.5099  0.4073  0.5176
  982MOL0     H32566  10.523   4.591   2.135  3.0260  3.0795  0.7795
  982MOL0     H32567  10.974   4.654   1.511 -0.7832 -0.1987  0.5769
  982MOL0     H32568  11.148   4.762   1.414  0.4472  0.7399  0.5260
  982MOL0     H32569  11.314   4.706   1.434  0.3691  0.2433 -1.6639
  982MOL0     H32570  11.215   4.641   1.300  2.2471 -0.0909  0.5647
  983MOL0     O32571   1.650   2.062  10.149 -0.4266 -0.0378  0.3254
  983MOL0     C32572   1.622   2.180  10.164 -0.1813 -0.1719 -0.0439
  983MOL0     O32573   1.700   2.264  10.252  0.6684 -0.2005  0.5249
  983MOL0     C32574   1.826   2.219  10.305  0.1858 -0.1841 -0.2181
  983MOL0     C32575   1.940   2.231  10.241 -0.3034  0.2611  0.3865
  983MOL0     C32576   2.061   2.198  10.298 -0.0118  0.0680 -0.3671
  983MOL0     C32577   2.058   2.139  10.425 -0.3224  0.5115 -0.2392
  983MOL0     O32578   2.162   2.091  10.499 -0.3833  0.0928  0.0230
  983MOL0     C32579   2.287   2.045  10.432 -0.4873  0.4488  0.0411
  983MOL0     C32580   2.395   2.157  10.426 -0.7633 -0.4224  1.5034
  983MOL0     C32581   2.519   2.122  10.350 -0.6550 -0.6694 -0.7280
  983MOL0     C32582   2.604   2.017  10.411  0.5925  0.0475  0.5395
  983MOL0     C32583   2.727   1.984  10.312 -0.0515  1.2316  0.1025
  983MOL0     C32584   2.826   1.874  10.360  0.3789  0.3838  1.4320
  983MOL0     C32585   2.901   1.905  10.482 -0.6442  0.3534  0.2126
  983MOL0     C32586   3.026   1.816  10.505 -1.0333 -0.4602  0.0401
  983MOL0     N32587   3.103   1.879  10.616  0.0017 -0.2670 -0.5818
  983MOL0     C32588   3.214   1.955  10.608 -0.0292  0.0792  0.8403
  983MOL0     C32589   3.287   1.951  10.728  0.0196  0.0456  0.5063
  983MOL0     C32590   3.424   2.003  10.734 -0.7853  0.7600 -0.2024
  983MOL0     C32591   3.523   1.906  10.811 -0.1673  0.3671 -0.5326
  983MOL0     C32592   3.651   1.987  10.847  1.1583  0.2769 -0.7524
  983MOL0     C32593   3.770   1.899  10.871  0.6491  0.5091  0.0245
  983MOL0     O32594   3.886   1.957  10.931 -0.5513  0.3737  0.0019
  983MOL0     C32595   3.890   1.973  11.059  0.0424 -0.2026  0.0727
  983MOL0     C32596   4.015   1.994  11.102  0.7375  0.0067 -1.2361
  983MOL0     C32597   4.045   1.973  11.240 -0.3157 -0.5311 -0.5888
  983MOL0     C32598   3.939   1.927  11.327  0.2733 -0.1759  0.8799
  983MOL0     C32599   3.971   1.909  11.471 -0.5240  0.5475 -0.8025
  983MOL0     O32600   4.103   1.866  11.500 -0.3773  0.2191 -0.2313
  983MOL0     C32601   4.163   1.876  11.631  0.5622  0.5388  0.1180
  983MOL0     C32602   4.301   1.916  11.652  1.0233 -0.8964  0.5359
  983MOL0     C32603   4.356   1.918  11.783 -0.2543  0.6547 -0.0006
  983MOL0     C32604   4.273   1.892  11.886 -0.0428  0.0656  0.3395
  983MOL0     O32605   4.321   1.935  12.006 -0.6818 -0.2861 -0.2261
  983MOL0     C32606   4.292   1.848  12.120 -0.1846  0.3478 -0.6621
  983MOL0     C32607   4.403   1.866  12.226 -0.1628  0.0643 -0.0590
  983MOL0     C32608   4.497   1.743  12.221 -0.1504 -0.1596  0.5285
  983MOL0     C32609   4.622   1.756  12.314 -1.4105  0.8320 -0.4705
  983MOL0     C32610   4.731   1.642  12.298 -0.7121  0.6265  0.7604
  983MOL0     C32611   4.839   1.652  12.405  0.3035 -0.9639 -0.5143
  983MOL0     C32612   4.946   1.543  12.406  0.5357 -0.2601  0.5741
  983MOL0     C32613   5.056   1.578  12.504 -0.0320  0.2551 -1.1074
  983MOL0    Cl32614   5.170   1.432  12.527  0.3765  0.0400  0.2256
  983MOL0     C32615   4.138   1.855  11.867 -0.3418 -0.1389  0.3377
  983MOL0     C32616   4.086   1.850  11.742  0.5337 -1.2284 -1.4567
  983MOL0     O32617   3.893   1.949  11.556  0.4252  0.1692  0.5675
  983MOL0     C32618   3.809   1.930  11.282  0.7626  0.8847 -0.5054
  983MOL0     C32619   3.785   1.952  11.147 -0.2920 -0.5008 -0.0165
  983MOL0     N32620   3.217   1.865  10.806  0.4155 -0.0619 -0.1597
  983MOL0     N32621   3.109   1.824  10.743  0.9328 -0.0297  0.0441
  983MOL0     C32622   1.944   2.122  10.498  0.4850  0.6701 -0.5178
  983MOL0     C32623   1.824   2.174  10.444 -0.3224 -0.2373  0.2770
  983MOL0     C32624   1.507   2.239  10.088  0.4076  0.7549  0.5186
  983MOL0     C32625   1.440   2.355  10.139 -0.5798  0.2622 -0.3603
  983MOL0     C32626   1.332   2.413  10.074 -0.4171 -0.9235 -0.2233
  983MOL0     C32627   1.295   2.354   9.955 -0.5128 -0.5926 -0.9053
  983MOL0     O32628   1.186   2.389   9.878 -0.3228  1.0403  0.3382
  983MOL0     C32629   1.114   2.510   9.895  0.3450  0.3919 -0.9408
  983MOL0     C32630   0.973   2.504   9.835  1.3070  0.2947 -0.6484
  983MOL0     C32631   0.918   2.644   9.820  0.2770 -0.0535 -0.5428
  983MOL0     C32632   0.875   2.712   9.954 -0.4822  0.9558  0.7899
  983MOL0     C32633   0.802   2.841   9.938 -0.0209 -0.2259  0.2878
  983MOL0     C32634   0.748   2.948   9.911 -0.5446 -0.3386  0.0626
  983MOL0     C32635   1.346   2.236   9.914  0.1870  0.0441 -0.2308
  983MOL0     C32636   1.459   2.179   9.975  0.1597  0.0818 -0.1883
  983MOL0     C32637   1.516   2.055   9.908  0.1767 -0.8129 -0.6944
  983MOL0     H32638   1.943   2.277  10.143 -1.0517  0.8602  0.6330
  983MOL0     H32639   2.153   2.233  10.253 -0.6832  3.1853  0.4770
  983MOL0     H32640   2.331   1.964  10.491 -0.5092 -0.0262 -0.5742
  983MOL0     H32641   2.263   2.014  10.329 -0.4843 -1.1259  0.4918
  983MOL0     H32642   2.419   2.198  10.525  1.2177  0.0279  0.8806
  983MOL0     H32643   2.346   2.233  10.363 -3.5509 -0.6796  3.2032
  983MOL0     H32644   2.583   2.211  10.353  0.4093 -1.4332  0.1295
  983MOL0     H32645   2.493   2.108  10.245 -5.1423  2.8074 -0.3896
  983MOL0     H32646   2.634   2.039  10.514 -2.1093 -0.1613  1.4365
  983MOL0     H32647   2.538   1.930  10.421  0.2404  0.0686 -1.3443
  983MOL0     H32648   2.691   1.961  10.211 -0.3533 -0.9053  0.6485
  983MOL0     H32649   2.775   2.081  10.298  0.6627  0.9546  0.5809
  983MOL0     H32650   2.770   1.781  10.371  0.0913  0.4506  0.6360
  983MOL0     H32651   2.886   1.861  10.269 -0.1906  2.1693  0.7446
  983MOL0     H32652   2.833   1.894  10.567 -1.8583  0.0774 -0.7800
  983MOL0     H32653   2.931   2.010  10.480  0.7282  0.0578  1.9315
  983MOL0     H32654   3.005   1.712  10.531  1.5670 -1.5059 -1.6853
  983MOL0     H32655   3.077   1.812  10.408  2.4584 -1.0743  1.7503
  983MOL0     H32656   3.251   1.985  10.511 -0.9714  0.6517  0.6438
  983MOL0     H32657   3.475   2.010  10.638  2.6919 -2.1260  1.2096
  983MOL0     H32658   3.430   2.105  10.774 -1.2792  0.9337 -0.5669
  983MOL0     H32659   3.484   1.866  10.904  1.1055 -0.4183 -0.3072
  983MOL0     H32660   3.538   1.829  10.735 -1.5164  3.1594 -3.9000
  983MOL0     H32661   3.636   2.055  10.932  2.1128  2.9168 -2.5658
  983MOL0     H32662   3.674   2.057  10.766 -1.1709  1.1865 -0.7203
  983MOL0     H32663   3.799   1.856  10.775 -0.3437 -0.4308  0.1298
  983MOL0     H32664   3.744   1.823  10.945  0.4264  2.8501  2.5192
  983MOL0     H32665   4.090   2.019  11.028  1.0458  1.4298 -0.4769
  983MOL0     H32666   4.139   2.005  11.284  0.0568 -1.5053 -0.6465
  983MOL0     H32667   4.375   1.929  11.574 -1.9100 -0.6117 -2.4088
  983MOL0     H32668   4.463   1.922  11.798 -0.3293  1.2504  0.4555
  983MOL0     H32669   4.198   1.872  12.170  0.2023 -0.4640  0.4811
  983MOL0     H32670   4.275   1.747  12.081 -4.8373  0.9929 -0.9449
  983MOL0     H32671   4.469   1.950  12.200 -0.0522  0.4910  1.5168
  983MOL0     H32672   4.356   1.890  12.321 -1.1407  0.3161 -0.5939
  983MOL0     H32673   4.457   1.642  12.225 -3.6567  1.1034  0.8245
  983MOL0     H32674   4.539   1.753  12.120  1.9351  1.5640  1.4935
  983MOL0     H32675   4.589   1.741  12.417 -0.2092 -2.2765 -0.4548
  983MOL0     H32676   4.674   1.850  12.291  1.0063  0.7548  3.6888
  983MOL0     H32677   4.777   1.644  12.200 -3.4033  1.2982 -0.5946
  983MOL0     H32678   4.683   1.544  12.302  3.1113 -1.5637 -1.8163
  983MOL0     H32679   4.887   1.750  12.402  1.2774 -1.4038  0.2020
  983MOL0     H32680   4.788   1.642  12.501  1.3535 -0.0067  0.1679
  983MOL0     H32681   4.984   1.545  12.303 -0.8199 -3.5292 -0.1237
  983MOL0     H32682   4.910   1.442  12.427  0.9282 -0.4512  0.3286
  983MOL0     H32683   5.100   1.671  12.467 -0.9518  1.2076  0.1128
  983MOL0     H32684   5.002   1.602  12.596  2.1318 -0.5064  0.4726
  983MOL0     H32685   4.080   1.840  11.957 -1.7784 -1.4109 -0.7313
  983MOL0     H32686   3.981   1.822  11.747  0.8405 -2.2552  0.5829
  983MOL0     H32687   3.725   1.916  11.349  1.3797  0.0332  0.1043
  983MOL0     H32688   3.679   1.943  11.125 -1.3428 -0.2657  4.0967
  983MOL0     H32689   1.940   2.083  10.599 -3.9491  0.4910 -0.5751
  983MOL0     H32690   1.735   2.156  10.505  0.2340 -2.6131  0.4946
  983MOL0     H32691   1.475   2.395  10.234  2.8366 -0.5181 -1.1606
  983MOL0     H32692   1.277   2.497  10.115 -2.8112 -1.8541 -1.3868
  983MOL0     H32693   1.178   2.582   9.844 -2.5215  2.3718 -2.0224
  983MOL0     H32694   1.111   2.531  10.003  0.8351 -3.2839 -0.0625
  983MOL0     H32695   0.907   2.450   9.903 -0.7580  1.5749 -1.5477
  983MOL0     H32696   0.987   2.455   9.739  4.4706  0.7777 -0.5529
  983MOL0     H32697   0.826   2.630   9.764  0.4326  1.2686 -1.1601
  983MOL0     H32698   0.976   2.713   9.758 -2.2461  2.4719 -0.3400
  983MOL0     H32699   0.804   2.643  10.001 -0.2461 -0.8035 -1.2637
  983MOL0     H32700   0.963   2.739  10.012  0.6465 -0.8235  0.0097
  983MOL0     H32701   0.703   3.045   9.909 -0.5161 -0.3335 -0.2628
  983MOL0     H32702   1.302   2.181   9.832  3.0483 -1.3209 -0.9911
  983MOL0     H32703   1.461   2.045   9.813  1.5415  2.0324 -1.8815
  983MOL0     H32704   1.617   2.064   9.867  0.0878  0.8298 -0.6231
  983MOL0     H32705   1.496   1.974   9.979 -4.5106  2.0393  1.7943
  984MOL0     O32706   4.380  11.223   8.321  0.3613 -0.3838  0.4991
  984MOL0     C32707   4.468  11.168   8.252 -0.3763  0.7214 -0.7895
  984MOL0     O32708   4.578  11.230   8.219  0.2339  0.1699 -0.8311
  984MOL0     C32709   4.602  11.360   8.243 -0.3766 -0.0075 -0.5969
  984MOL0     C32710   4.525  11.464   8.186 -0.4092  0.6434 -0.7207
  984MOL0     C32711   4.544  11.602   8.217  0.1547 -0.3054  0.4837
  984MOL0     C32712   4.636  11.631   8.321  0.4154 -0.0064 -0.5359
  984MOL0     O32713   4.665  11.757   8.366  0.3804  0.0088  0.7957
  984MOL0     C32714   4.571  11.817   8.456 -0.0590  0.6450  0.2407
  984MOL0     C32715   4.442  11.873   8.388 -0.7218 -0.8713 -0.4103
  984MOL0     C32716   4.355  11.945   8.504  0.0626 -0.0916  0.5240
  984MOL0     C32717   4.286  12.071   8.436 -0.7614  0.6238  0.3189
  984MOL0     C32718   4.235  12.170   8.544 -0.4729 -0.2417  0.6065
  984MOL0     C32719   4.356  12.256   8.587 -0.0360 -0.2896  0.1211
  984MOL0     C32720   4.330  12.358   8.701 -0.3381 -0.7872  0.4047
  984MOL0     C32721   4.266  12.290   8.827  0.2862 -0.2105  0.7817
  984MOL0     N32722   4.335  12.178   8.879  0.4837  0.0886 -0.3949
  984MOL0     C32723   4.459  12.183   8.947  0.2206 -0.2114 -0.6130
  984MOL0     C32724   4.484  12.056   8.976 -0.3634  0.6607 -0.1778
  984MOL0     C32725   4.619  11.995   9.012 -0.1553  0.8316  0.0476
  984MOL0     C32726   4.666  11.877   8.932 -0.1707  0.8237 -0.2187
  984MOL0     C32727   4.717  11.917   8.789  0.0867 -0.0282  0.3446
  984MOL0     C32728   4.868  11.915   8.780 -0.7356 -0.5279 -0.1550
  984MOL0     O32729   4.909  11.789   8.832  0.7856 -0.1374  0.4166
  984MOL0     C32730   5.020  11.750   8.767 -0.9081 -0.2726  0.0620
  984MOL0     C32731   5.147  11.777   8.827  0.3604  0.1393  0.1609
  984MOL0     C32732   5.268  11.742   8.764  0.0081  0.4130 -0.0771
  984MOL0     C32733   5.262  11.676   8.636 -0.3942  0.3733 -0.2357
  984MOL0     C32734   5.387  11.637   8.569  0.0391  0.1924  0.1255
  984MOL0     O32735   5.510  11.678   8.624  0.3622  0.0802  0.6192
  984MOL0     C32736   5.633  11.631   8.567  1.4113  0.3308 -0.5385
  984MOL0     C32737   5.658  11.498   8.516 -0.3425  0.4434  0.5292
  984MOL0     C32738   5.785  11.470   8.467 -1.0377  0.4453 -0.3268
  984MOL0     C32739   5.890  11.563   8.468 -0.1293 -0.0373 -0.8672
  984MOL0     O32740   6.014  11.538   8.427  0.0277  0.0674 -0.0522
  984MOL0     C32741   6.062  11.416   8.381  0.3184  0.7192 -0.3747
  984MOL0     C32742   6.208  11.428   8.323  0.8937 -0.9839  0.6837
  984MOL0     C32743   6.244  11.332   8.207 -1.0210  0.3732  0.6046
  984MOL0     C32744   6.395  11.346   8.174  1.2996 -0.4097  0.0738
  984MOL0     C32745   6.413  11.309   8.026  1.0536 -1.2374 -0.6703
  984MOL0     C32746   6.555  11.257   8.000  0.0222 -0.5753 -0.0505
  984MOL0     C32747   6.670  11.356   8.002  0.4191  0.0903  0.1744
  984MOL0     C32748   6.787  11.320   7.915  0.8755 -0.3253 -0.0224
  984MOL0    Cl32749   6.840  11.148   7.955 -0.5890 -0.5116  0.2237
  984MOL0     C32750   5.860  11.689   8.513 -0.8675 -0.0753 -0.0883
  984MOL0     C32751   5.736  11.718   8.575 -0.1040  0.0418  0.2441
  984MOL0     O32752   5.367  11.569   8.470 -0.3661  0.3215  0.7437
  984MOL0     C32753   5.136  11.658   8.571 -0.1133 -0.4074 -0.5381
  984MOL0     C32754   5.019  11.687   8.641  0.9692 -0.2244  0.7014
  984MOL0     N32755   4.377  11.971   8.942 -0.1744 -0.3156 -0.0386
  984MOL0     N32756   4.286  12.042   8.884 -0.7223  0.3187  0.1071
  984MOL0     C32757   4.713  11.527   8.371  0.2041 -0.6953 -1.1645
  984MOL0     C32758   4.698  11.396   8.339 -0.3581  0.9477  0.1111
  984MOL0     C32759   4.452  11.021   8.208 -0.6790  0.2990 -0.4619
  984MOL0     C32760   4.564  10.961   8.151 -0.7204 -0.5226  0.2529
  984MOL0     C32761   4.563  10.827   8.119 -0.2783  0.2180 -0.9999
  984MOL0     C32762   4.455  10.752   8.137  0.0674 -1.0199  0.1181
  984MOL0     O32763   4.479  10.620   8.110  1.1149  0.1794  0.5853
  984MOL0     C32764   4.386  10.527   8.159 -0.7641  0.1899 -0.0415
  984MOL0     C32765   4.432  10.394   8.111  0.3826 -0.0552  0.1374
  984MOL0     C32766   4.381  10.270   8.194 -0.5224  0.0394 -0.2651
  984MOL0     C32767   4.434  10.140   8.132 -0.1849 -0.0775 -0.4978
  984MOL0     C32768   4.583  10.122   8.132 -0.2063 -0.0383  0.1277
  984MOL0     C32769   4.711  10.115   8.138  0.3239 -0.7029  0.4190
  984MOL0     C32770   4.333  10.814   8.186 -0.6211  0.1896  0.4168
  984MOL0     C32771   4.331  10.945   8.232 -0.0867 -0.1035  0.7381
  984MOL0     C32772   4.204  10.991   8.296  0.0014  0.5251  0.2979
  984MOL0     H32773   4.448  11.451   8.110 -1.1342  1.3926 -0.1359
  984MOL0     H32774   4.485  11.679   8.168 -0.9542 -2.4047 -1.7215
  984MOL0     H32775   4.551  11.766   8.550 -2.0874  0.3132 -0.3171
  984MOL0     H32776   4.622  11.904   8.498  0.0469  1.2250 -1.0431
  984MOL0     H32777   4.382  11.797   8.336 -2.0719  0.2365 -0.5217
  984MOL0     H32778   4.473  11.943   8.310  2.7582  0.2403  1.7725
  984MOL0     H32779   4.416  11.980   8.588 -1.2556  1.1028  1.0422
  984MOL0     H32780   4.286  11.877   8.554  2.1745 -2.8207 -0.0450
  984MOL0     H32781   4.343  12.112   8.353  0.7216 -2.9114 -0.6172
  984MOL0     H32782   4.201  12.026   8.383  1.1727 -2.4323 -0.4577
  984MOL0     H32783   4.165  12.235   8.489  1.1120  1.4633  0.4899
  984MOL0     H32784   4.190  12.115   8.627  2.0424 -1.6069  1.1525
  984MOL0     H32785   4.440  12.191   8.613  0.6380 -1.9657 -5.1215
  984MOL0     H32786   4.407  12.317   8.513  1.0948  1.6295  2.3491
  984MOL0     H32787   4.273  12.441   8.659  2.5660 -0.2818 -3.0040
  984MOL0     H32788   4.422  12.397   8.745 -1.5245  1.8053  0.7726
  984MOL0     H32789   4.249  12.363   8.906  2.5058  0.8105  0.3906
  984MOL0     H32790   4.167  12.254   8.799  0.7879 -0.8033 -0.2786
  984MOL0     H32791   4.526  12.267   8.962  1.2627 -0.8453 -1.5381
  984MOL0     H32792   4.702  12.064   8.991 -0.3856  1.2763  0.5515
  984MOL0     H32793   4.635  11.969   9.117  0.3844  1.0113  0.0146
  984MOL0     H32794   4.734  11.822   8.997 -0.1530  0.5640 -0.4553
  984MOL0     H32795   4.587  11.808   8.903  1.6098 -0.0601 -3.3771
  984MOL0     H32796   4.676  12.011   8.751  2.4960  1.6915  1.7264
  984MOL0     H32797   4.682  11.840   8.719 -0.7838  0.0706  0.6559
  984MOL0     H32798   4.904  11.996   8.844  0.7563 -0.4781 -1.0248
  984MOL0     H32799   4.896  11.930   8.676  0.7391 -1.5235  0.0692
  984MOL0     H32800   5.147  11.825   8.924 -1.1889 -0.5741  0.5498
  984MOL0     H32801   5.356  11.765   8.822 -1.9531  1.1835  2.7875
  984MOL0     H32802   5.576  11.428   8.510  1.0926 -1.2146 -0.7207
  984MOL0     H32803   5.819  11.371   8.439 -1.8032 -1.5752  4.8025
  984MOL0     H32804   6.060  11.340   8.460 -1.5160  3.0380  1.9786
  984MOL0     H32805   6.004  11.383   8.294  2.9648 -2.9716 -1.0021
  984MOL0     H32806   6.210  11.529   8.281 -1.3698 -0.0166  2.7095
  984MOL0     H32807   6.285  11.410   8.398  0.5896 -0.4616  1.1276
  984MOL0     H32808   6.217  11.229   8.228  0.4285  0.0381  0.9038
  984MOL0     H32809   6.194  11.370   8.118 -0.3202  1.6460  0.7284
  984MOL0     H32810   6.449  11.275   8.237 -0.4618  1.6190  4.2366
  984MOL0     H32811   6.436  11.446   8.183  3.6142 -1.3299  0.3515
  984MOL0     H32812   6.383  11.399   7.972 -0.1225 -0.8924  0.5041
  984MOL0     H32813   6.342  11.231   7.999  1.3060 -1.6958 -0.0448
  984MOL0     H32814   6.578  11.170   8.062  1.8818  0.7817  1.2992
  984MOL0     H32815   6.549  11.227   7.895  1.7681 -1.0971 -0.0364
  984MOL0     H32816   6.709  11.354   8.104  2.0068  1.8854 -0.3140
  984MOL0     H32817   6.626  11.454   7.981 -1.4134 -0.8697 -0.6707
  984MOL0     H32818   6.758  11.341   7.811 -0.5543  0.1301  0.4386
  984MOL0     H32819   6.862  11.393   7.945 -1.8643  1.8557  2.0413
  984MOL0     H32820   5.935  11.767   8.503  0.3220 -1.1353  0.3257
  984MOL0     H32821   5.729  11.822   8.607 -0.1878  0.3405 -0.7355
  984MOL0     H32822   5.127  11.597   8.482  1.9202  1.5639 -2.1949
  984MOL0     H32823   4.915  11.666   8.619  1.1785 -0.2366 -0.3369
  984MOL0     H32824   4.793  11.547   8.442 -1.2423 -1.8514  0.9174
  984MOL0     H32825   4.751  11.323   8.400 -1.1002 -0.0692 -0.4233
  984MOL0     H32826   4.651  11.022   8.128 -3.7750  2.8875 -4.0489
  984MOL0     H32827   4.653  10.781   8.080  1.1339  0.2946  1.9222
  984MOL0     H32828   4.282  10.542   8.130 -1.2523 -2.3699  0.1850
  984MOL0     H32829   4.382  10.524   8.269  5.2553  2.0721  0.6020
  984MOL0     H32830   4.541  10.385   8.108  0.4372 -0.9626  2.5218
  984MOL0     H32831   4.410  10.393   8.003  0.5218  3.0776 -0.0123
  984MOL0     H32832   4.272  10.267   8.193 -0.5135 -1.0248  0.8280
  984MOL0     H32833   4.409  10.281   8.299 -0.5401 -0.6979 -0.1844
  984MOL0     H32834   4.392  10.053   8.182  1.8450 -0.6671  0.2961
  984MOL0     H32835   4.414  10.136   8.025 -1.0681 -2.9052 -0.2814
  984MOL0     H32836   4.816  10.099   8.145  0.8909  2.2946  0.1548
  984MOL0     H32837   4.245  10.751   8.195  0.1589 -1.0558 -0.3861
  984MOL0     H32838   4.180  11.092   8.263  1.0807  1.5836  2.4826
  984MOL0     H32839   4.120  10.921   8.285  1.6916 -1.6615  0.4507
  984MOL0     H32840   4.221  10.990   8.404  0.2423 -1.2488  0.2853
  985MOL0     O32841   5.025   1.264   6.931 -0.4794 -0.1448 -0.3394
  985MOL0     C32842   5.052   1.380   6.950 -0.0152  0.2030  0.7483
  985MOL0     O32843   5.166   1.437   6.908 -0.1315 -0.0516 -0.1528
  985MOL0     C32844   5.275   1.360   6.925  0.1378  0.5914  0.6308
  985MOL0     C32845   5.342   1.283   6.830 -0.2380 -0.9162 -0.4368
  985MOL0     C32846   5.449   1.203   6.881 -0.2035  0.5439 -1.0117
  985MOL0     C32847   5.494   1.200   7.016 -0.1208  0.3526  1.2195
  985MOL0     O32848   5.602   1.117   7.056 -0.6814  0.1468 -0.0663
  985MOL0     C32849   5.638   1.106   7.200  0.3382  0.7855  0.5413
  985MOL0     C32850   5.753   0.998   7.227  0.5596 -0.4787  0.0579
  985MOL0     C32851   5.893   1.034   7.161  0.5357 -0.6132  0.7916
  985MOL0     C32852   5.999   0.953   7.224  0.6042  0.1180 -0.2518
  985MOL0     C32853   6.143   0.956   7.173 -0.5435 -0.5835  0.6159
  985MOL0     C32854   6.218   1.103   7.174 -0.6068  0.4476 -1.1497
  985MOL0     C32855   6.368   1.097   7.126 -0.1915  0.6032 -0.1606
  985MOL0     C32856   6.455   1.026   7.234 -0.2994 -0.7244  0.3725
  985MOL0     N32857   6.484   1.102   7.354 -1.0882  0.6805 -0.3742
  985MOL0     C32858   6.545   1.225   7.362 -0.2815 -0.0537 -0.2304
  985MOL0     C32859   6.528   1.261   7.495  0.5470 -0.2687 -0.2075
  985MOL0     C32860   6.562   1.394   7.560  0.3274 -1.3020  0.7773
  985MOL0     C32861   6.496   1.427   7.694 -0.0685 -0.0755 -0.1439
  985MOL0     C32862   6.467   1.570   7.723  0.4074 -0.1251  0.1036
  985MOL0     C32863   6.325   1.613   7.658  0.4807 -0.6207 -0.1137
  985MOL0     O32864   6.310   1.582   7.520  0.5945  0.9653 -0.4785
  985MOL0     C32865   6.186   1.588   7.473 -0.0373 -0.3483  0.0833
  985MOL0     C32866   6.104   1.476   7.469  0.3973  0.3643 -0.2433
  985MOL0     C32867   5.976   1.483   7.412 -0.6516  0.0296  0.3062
  985MOL0     C32868   5.916   1.602   7.367  0.3212 -0.6205  0.6874
  985MOL0     C32869   5.778   1.617   7.339 -0.7003  0.1930  0.6612
  985MOL0     O32870   5.744   1.751   7.297  0.0356  0.0579 -0.1328
  985MOL0     C32871   5.630   1.775   7.242  0.1576 -0.0730  0.5884
  985MOL0     C32872   5.509   1.714   7.294 -0.7977  1.0194 -0.4104
  985MOL0     C32873   5.389   1.742   7.239  0.2212 -0.6244  0.0640
  985MOL0     C32874   5.381   1.824   7.131  0.6942 -0.6141  0.7435
  985MOL0     O32875   5.249   1.840   7.084 -0.4824  0.2466 -0.0264
  985MOL0     C32876   5.206   1.962   7.027  0.0819 -0.1737  0.6867
  985MOL0     C32877   5.200   2.080   7.120 -0.2371 -0.7028 -0.4880
  985MOL0     C32878   5.094   2.059   7.228 -0.2201  0.8641 -0.2942
  985MOL0     C32879   5.067   2.162   7.335  0.8799  0.4549 -0.4043
  985MOL0     C32880   4.948   2.140   7.430 -0.2452 -0.2679  0.4606
  985MOL0     C32881   4.952   2.229   7.559  0.1690 -0.3961  0.5651
  985MOL0     C32882   4.825   2.212   7.635 -0.4544  0.2545 -0.2611
  985MOL0     C32883   4.820   2.287   7.765 -0.6047  0.2602 -0.5899
  985MOL0    Cl32884   4.678   2.221   7.865  0.3255  0.3393 -0.5120
  985MOL0     C32885   5.497   1.885   7.077 -0.2495 -0.2641 -0.4472
  985MOL0     C32886   5.621   1.861   7.131 -0.0969 -0.5355 -0.3167
  985MOL0     O32887   5.702   1.518   7.338 -0.2267  0.7024  0.2704
  985MOL0     C32888   5.993   1.716   7.383 -0.1159  0.1566 -0.2584
  985MOL0     C32889   6.128   1.709   7.428 -0.5229  0.3844 -0.3272
  985MOL0     N32890   6.455   1.169   7.568 -0.4856 -0.3723  0.4480
  985MOL0     N32891   6.442   1.069   7.485 -0.1889  0.9490 -0.0986
  985MOL0     C32892   5.426   1.286   7.104 -0.0993 -0.2640 -0.1382
  985MOL0     C32893   5.320   1.362   7.062  0.0255  0.6570  0.9304
  985MOL0     C32894   4.955   1.464   7.032  0.4923  1.4046  0.1807
  985MOL0     C32895   4.996   1.601   7.057 -0.1105 -0.8630 -0.7562
  985MOL0     C32896   4.921   1.690   7.135  0.8630 -1.2468  0.4811
  985MOL0     C32897   4.792   1.644   7.179  0.0703 -0.8097 -0.3433
  985MOL0     O32898   4.721   1.740   7.252  0.1323 -0.0731 -0.4225
  985MOL0     C32899   4.581   1.729   7.261 -0.0056  0.8349  0.8422
  985MOL0     C32900   4.533   1.856   7.334 -0.2872  0.5917 -0.5382
  985MOL0     C32901   4.610   1.871   7.467 -0.2807  1.3396  0.3256
  985MOL0     C32902   4.599   1.747   7.548 -0.3098 -0.2833 -0.1672
  985MOL0     C32903   4.661   1.765   7.679 -0.3120  0.2583 -0.6037
  985MOL0     C32904   4.723   1.798   7.780  0.3109 -0.0923 -0.6417
  985MOL0     C32905   4.757   1.514   7.155 -0.1123 -0.2687 -0.0245
  985MOL0     C32906   4.831   1.418   7.084  0.4868  1.3957  0.0950
  985MOL0     C32907   4.777   1.274   7.057 -0.1416  1.1455 -0.2018
  985MOL0     H32908   5.333   1.288   6.721  1.3120  1.1053 -0.5332
  985MOL0     H32909   5.505   1.157   6.800  0.0316  2.0441 -1.7396
  985MOL0     H32910   5.668   1.207   7.231  0.3093  1.1957 -0.6966
  985MOL0     H32911   5.551   1.072   7.256 -0.6463  0.4489 -1.1217
  985MOL0     H32912   5.726   0.900   7.187 -0.3177  0.3942 -1.5695
  985MOL0     H32913   5.773   0.993   7.334  2.1266  3.2897  0.1050
  985MOL0     H32914   5.927   1.137   7.175  0.4747 -0.4186 -0.3735
  985MOL0     H32915   5.889   1.008   7.055  3.0047 -1.3937  0.8264
  985MOL0     H32916   6.017   0.973   7.330  1.7556 -0.3289 -0.3527
  985MOL0     H32917   5.980   0.846   7.229 -0.1833  0.2953  0.8404
  985MOL0     H32918   6.212   0.887   7.221  0.1901  1.2113  2.2980
  985MOL0     H32919   6.146   0.924   7.068  2.3399 -0.6284  0.6457
  985MOL0     H32920   6.155   1.166   7.111  1.2599  1.2468 -2.3078
  985MOL0     H32921   6.229   1.141   7.276  2.0898  1.7732 -1.8400
  985MOL0     H32922   6.404   1.200   7.122  1.9895 -0.1638 -2.2752
  985MOL0     H32923   6.374   1.049   7.028 -0.2740 -1.7581  0.9177
  985MOL0     H32924   6.424   0.922   7.249  1.1962 -1.2913 -0.2051
  985MOL0     H32925   6.553   1.017   7.186  0.1334 -1.0084  1.2867
  985MOL0     H32926   6.597   1.278   7.284 -0.7774 -2.3001 -2.2079
  985MOL0     H32927   6.670   1.412   7.559  0.2240 -0.0999 -2.6713
  985MOL0     H32928   6.513   1.464   7.492 -1.0276 -0.4121  2.5783
  985MOL0     H32929   6.403   1.370   7.705 -2.1322  2.8754 -1.0374
  985MOL0     H32930   6.568   1.394   7.769  1.4314 -1.0659 -1.9370
  985MOL0     H32931   6.540   1.628   7.666 -2.5677  1.1439 -2.7358
  985MOL0     H32932   6.464   1.588   7.831 -2.3309  2.8327 -0.3180
  985MOL0     H32933   6.323   1.722   7.653  0.9993 -0.5931  0.2216
  985MOL0     H32934   6.242   1.584   7.723 -0.0253  0.1127 -0.4149
  985MOL0     H32935   6.150   1.384   7.503  0.1675  0.4256  0.2373
  985MOL0     H32936   5.899   1.406   7.412 -2.5110  1.7807  1.3449
  985MOL0     H32937   5.512   1.650   7.381  0.2072  2.4875  0.6753
  985MOL0     H32938   5.300   1.701   7.285  0.7160 -1.1401  0.5755
  985MOL0     H32939   5.271   1.987   6.942  0.7455  2.3201  1.8432
  985MOL0     H32940   5.105   1.952   6.986 -0.0270  4.5546 -0.7845
  985MOL0     H32941   5.301   2.090   7.160 -0.0734  0.5556 -1.1859
  985MOL0     H32942   5.173   2.170   7.065  1.9683  0.8803  0.8911
  985MOL0     H32943   4.996   2.051   7.180 -0.5376 -0.8382  0.5670
  985MOL0     H32944   5.112   1.965   7.281  1.7547  1.2146 -0.2601
  985MOL0     H32945   5.046   2.261   7.294  1.1955  1.7451  2.3131
  985MOL0     H32946   5.156   2.168   7.399  0.3341  0.9898  0.3289
  985MOL0     H32947   4.948   2.035   7.461 -1.1737 -1.4009 -2.9739
  985MOL0     H32948   4.853   2.156   7.379 -0.6409  0.0779  1.2915
  985MOL0     H32949   5.037   2.202   7.622  0.5943  1.4275  0.8175
  985MOL0     H32950   4.963   2.335   7.535 -2.7125 -0.1399 -0.0003
  985MOL0     H32951   4.825   2.106   7.663  0.4859 -0.7430 -3.4861
  985MOL0     H32952   4.740   2.231   7.569 -1.6596 -2.2118  0.4692
  985MOL0     H32953   4.908   2.284   7.829 -2.4896 -0.4105  2.1197
  985MOL0     H32954   4.799   2.391   7.736 -1.0936 -0.3247 -2.4807
  985MOL0     H32955   5.494   1.943   6.985 -0.7169 -3.6651 -2.7654
  985MOL0     H32956   5.713   1.910   7.100  0.5774 -1.6366 -0.1160
  985MOL0     H32957   5.964   1.818   7.356  1.4990  0.5890 -0.4845
  985MOL0     H32958   6.184   1.801   7.411  0.6981 -0.6626 -2.3617
  985MOL0     H32959   5.455   1.297   7.208 -0.4611  2.5015 -0.2613
  985MOL0     H32960   5.267   1.425   7.133  0.2456  2.5221 -0.4968
  985MOL0     H32961   5.091   1.641   7.023  0.1978 -0.0984  0.8919
  985MOL0     H32962   4.961   1.784   7.173 -2.3034 -0.0406  1.1806
  985MOL0     H32963   4.551   1.635   7.308  1.2888 -0.3022 -0.5104
  985MOL0     H32964   4.526   1.731   7.166 -3.0670  1.8050  2.4817
  985MOL0     H32965   4.427   1.844   7.357 -0.2267  1.8955  0.5213
  985MOL0     H32966   4.551   1.941   7.268 -0.2892  3.1829  2.5593
  985MOL0     H32967   4.582   1.964   7.518 -1.1909  1.4993 -0.4306
  985MOL0     H32968   4.713   1.891   7.437  0.1647 -2.7200 -1.5221
  985MOL0     H32969   4.497   1.711   7.566 -0.5864  1.3837  1.9631
  985MOL0     H32970   4.650   1.667   7.493  1.6882  1.3871 -0.8854
  985MOL0     H32971   4.792   1.807   7.862  1.5079 -0.5091 -1.5710
  985MOL0     H32972   4.658   1.493   7.193  1.1526 -1.0925  3.2045
  985MOL0     H32973   4.676   1.265   7.096  0.9956 -1.1510  2.5585
  985MOL0     H32974   4.777   1.265   6.948  0.0160  1.3937 -0.2247
  985MOL0     H32975   4.836   1.202   7.115 -1.3205 -0.4661 -0.9534
  986MOL0     O32976   7.186   1.606   6.232 -0.6533  0.2133  0.7501
  986MOL0     C32977   7.143   1.682   6.317  0.2613 -0.6456  1.0773
  986MOL0     O32978   7.212   1.739   6.422  0.7189  0.2281  1.1788
  986MOL0     C32979   7.340   1.730   6.446 -0.5654 -0.6745  0.4626
  986MOL0     C32980   7.427   1.624   6.410 -0.6442  0.5880 -0.1193
  986MOL0     C32981   7.566   1.637   6.421  0.1890 -0.6702  0.9226
  986MOL0     C32982   7.628   1.760   6.455 -0.0347  0.3208  0.7319
  986MOL0     O32983   7.764   1.768   6.453 -0.2143  0.2775 -0.8241
  986MOL0     C32984   7.816   1.859   6.361 -0.0862 -0.7862 -0.5166
  986MOL0     C32985   7.953   1.888   6.414  0.5274  0.3518  0.8057
  986MOL0     C32986   8.005   2.017   6.355  0.8878  0.4271 -0.5385
  986MOL0     C32987   8.042   2.006   6.212  0.5215 -0.8325  0.7388
  986MOL0     C32988   8.183   1.971   6.182  0.1467 -0.1784 -0.8908
  986MOL0     C32989   8.207   1.921   6.041 -0.2270 -0.1345  0.0168
  986MOL0     C32990   8.356   1.906   6.016 -0.3963 -0.3628 -0.2185
  986MOL0     C32991   8.420   1.792   6.095 -0.1514 -0.3654 -0.0262
  986MOL0     N32992   8.567   1.791   6.075 -0.0382 -0.1470 -0.2734
  986MOL0     C32993   8.629   1.678   6.023 -0.5717  0.0134 -0.3073
  986MOL0     C32994   8.757   1.674   6.064 -0.3999 -1.0112 -0.1467
  986MOL0     C32995   8.860   1.578   6.026 -0.2788  0.6770 -0.7101
  986MOL0     C32996   8.842   1.529   5.881  0.2610 -1.0154 -0.2433
  986MOL0     C32997   8.976   1.496   5.827 -0.2356 -0.1988  0.1388
  986MOL0     C32998   9.041   1.370   5.900 -0.6723 -0.2826  0.0232
  986MOL0     O32999   9.178   1.338   5.859  0.6081 -0.3196 -0.0882
  986MOL0     C33000   9.187   1.322   5.727  1.2637  0.5730  0.1779
  986MOL0     C33001   9.147   1.198   5.672  0.9954 -0.3548 -0.5282
  986MOL0     C33002   9.188   1.162   5.544 -0.2679  0.0137  0.0514
  986MOL0     C33003   9.260   1.243   5.458 -0.3424  0.3190 -0.1609
  986MOL0     C33004   9.301   1.204   5.317 -0.5672  1.2194 -0.3050
  986MOL0     O33005   9.251   1.092   5.267 -0.0054 -1.0416 -0.1655
  986MOL0     C33006   9.286   1.058   5.142 -0.0748  0.0997  0.0548
  986MOL0     C33007   9.375   0.950   5.113 -0.1263 -0.4873 -0.1892
  986MOL0     C33008   9.395   0.914   4.976  0.6021 -0.5523  0.3287
  986MOL0     C33009   9.345   0.991   4.869  0.1905  0.2920 -0.7313
  986MOL0     O33010   9.373   0.952   4.742  0.5570  0.4765  0.5080
  986MOL0     C33011   9.336   1.034   4.629 -0.2403  0.2974  0.1157
  986MOL0     C33012   9.321   0.943   4.515  0.0465 -0.3181 -0.9938
  986MOL0     C33013   9.308   1.043   4.395  0.6994 -0.2544  0.4927
  986MOL0     C33014   9.253   0.969   4.270 -0.3799 -0.8317  0.5054
  986MOL0     C33015   9.282   1.037   4.145  1.0860 -0.3745 -0.1114
  986MOL0     C33016   9.212   0.954   4.039 -0.1435 -0.3957 -0.9769
  986MOL0     C33017   9.247   1.011   3.903  0.2837  0.7518 -0.0983
  986MOL0     C33018   9.158   0.938   3.797 -0.3928  0.3464  1.0543
  986MOL0    Cl33019   8.990   0.998   3.783 -0.1164 -0.1352 -0.0185
  986MOL0     C33020   9.254   1.097   4.912 -0.3057  1.2251  0.6320
  986MOL0     C33021   9.223   1.125   5.039  0.1264  0.8247 -1.1721
  986MOL0     O33022   9.382   1.279   5.265  0.0424 -0.3713  0.6487
  986MOL0     C33023   9.279   1.381   5.500  0.5183 -1.3294 -0.4141
  986MOL0     C33024   9.248   1.414   5.635  1.2645  0.1513 -0.1215
  986MOL0     N33025   8.778   1.797   6.135 -0.4434 -0.3240 -0.3919
  986MOL0     N33026   8.665   1.856   6.149  0.2960  0.8080 -0.7223
  986MOL0     C33027   7.542   1.849   6.509  1.1653  0.0318  0.2990
  986MOL0     C33028   7.403   1.845   6.506 -0.1631  0.5416 -0.5582
  986MOL0     C33029   6.991   1.707   6.307 -0.2092 -0.3571 -0.4960
  986MOL0     C33030   6.910   1.727   6.426  0.3933 -0.3122  0.6388
  986MOL0     C33031   6.774   1.740   6.423  1.0902  0.8100 -0.0140
  986MOL0     C33032   6.705   1.729   6.300  0.2425 -0.1848  1.3477
  986MOL0     O33033   6.564   1.737   6.280 -0.2064 -0.4281  0.0350
  986MOL0     C33034   6.479   1.811   6.368 -0.2736 -0.7821 -0.1950
  986MOL0     C33035   6.353   1.859   6.297  0.2363 -0.3484 -0.8325
  986MOL0     C33036   6.382   1.970   6.179 -0.1322 -0.5517 -0.3541
  986MOL0     C33037   6.258   2.032   6.113  1.0199  0.1792 -0.4409
  986MOL0     C33038   6.168   2.089   6.215 -1.4193  0.5167  0.2712
  986MOL0     C33039   6.093   2.134   6.302  0.4401  1.3154 -0.1727
  986MOL0     C33040   6.776   1.728   6.178  0.2158 -0.0347  0.5135
  986MOL0     C33041   6.918   1.719   6.183 -0.1675 -0.0209  0.0213
  986MOL0     C33042   7.008   1.736   6.057  0.3482 -0.4103 -0.3857
  986MOL0     H33043   7.384   1.530   6.378 -2.0688  1.5232 -1.0780
  986MOL0     H33044   7.629   1.557   6.384 -2.5915 -2.1209 -1.1373
  986MOL0     H33045   7.816   1.818   6.260 -1.4971  1.8554 -1.6802
  986MOL0     H33046   7.754   1.949   6.363 -1.0074 -1.4185  0.5430
  986MOL0     H33047   8.014   1.799   6.393  1.8339  0.8881  2.1469
  986MOL0     H33048   7.940   1.910   6.520 -3.9136  0.5075  0.4421
  986MOL0     H33049   8.097   2.042   6.409  0.3825  0.3686  0.3656
  986MOL0     H33050   7.931   2.097   6.369  0.5566 -0.1870  1.4752
  986MOL0     H33051   7.970   1.937   6.168 -0.3665  1.6995 -2.1765
  986MOL0     H33052   8.014   2.106   6.177 -1.5357 -1.7850 -0.5038
  986MOL0     H33053   8.241   2.058   6.212  0.0187 -0.3525 -0.1204
  986MOL0     H33054   8.218   1.889   6.245  0.7755 -0.0994 -1.1215
  986MOL0     H33055   8.143   1.836   6.016 -0.0233 -0.5816  0.9739
  986MOL0     H33056   8.175   2.005   5.978  1.9755  0.9958  0.2948
  986MOL0     H33057   8.417   1.996   6.026  2.8422 -2.4015 -0.2270
  986MOL0     H33058   8.364   1.876   5.911  3.1438 -1.8788  0.3404
  986MOL0     H33059   8.405   1.804   6.203 -1.1131 -0.0573 -0.1810
  986MOL0     H33060   8.378   1.695   6.067  3.3555 -2.3209  0.8501
  986MOL0     H33061   8.577   1.593   5.979 -0.4394 -0.8151  1.0459
  986MOL0     H33062   8.957   1.628   6.016  0.9240 -1.7463 -2.3109
  986MOL0     H33063   8.860   1.481   6.076 -0.5915  1.7096  1.3834
  986MOL0     H33064   8.761   1.456   5.871 -2.9741  2.1759  0.2041
  986MOL0     H33065   8.814   1.622   5.830  0.9024  0.6025  2.1657
  986MOL0     H33066   9.036   1.587   5.816 -3.2220  1.6050 -3.5396
  986MOL0     H33067   8.955   1.468   5.723 -0.3802  1.8083 -0.4088
  986MOL0     H33068   8.977   1.283   5.882  0.2308 -0.7134 -1.2639
  986MOL0     H33069   9.031   1.391   6.007  2.5729 -0.8411  0.5448
  986MOL0     H33070   9.099   1.124   5.736 -2.1984  3.3731  1.8527
  986MOL0     H33071   9.168   1.064   5.503 -0.9754  0.2872 -0.2636
  986MOL0     H33072   9.431   0.894   5.186 -1.2777 -0.6598  0.5890
  986MOL0     H33073   9.459   0.832   4.942 -1.5716 -2.6125  0.9650
  986MOL0     H33074   9.241   1.085   4.640  1.3107  2.8724  2.9282
  986MOL0     H33075   9.422   1.100   4.611  0.5310 -0.1507  1.9307
  986MOL0     H33076   9.402   0.869   4.511 -0.3379 -0.8229  0.2559
  986MOL0     H33077   9.222   0.899   4.522  0.2082 -0.7043 -1.1057
  986MOL0     H33078   9.250   1.135   4.410  4.0327  2.5265 -2.0285
  986MOL0     H33079   9.404   1.085   4.364 -0.5827  1.4236 -1.5066
  986MOL0     H33080   9.145   0.955   4.271 -0.6564  0.2865 -2.5452
  986MOL0     H33081   9.292   0.867   4.271  2.0066  0.0229  0.6724
  986MOL0     H33082   9.388   1.042   4.118  0.6801  0.5758 -1.7290
  986MOL0     H33083   9.243   1.139   4.157  2.1627  0.2115 -1.2659
  986MOL0     H33084   9.237   0.847   4.043  3.5727  0.3645 -1.1202
  986MOL0     H33085   9.104   0.970   4.053 -0.5964 -3.4285 -0.0965
  986MOL0     H33086   9.354   1.017   3.883  0.6540 -2.1480  0.6035
  986MOL0     H33087   9.200   1.109   3.892  0.1079  0.4005 -3.6427
  986MOL0     H33088   9.194   0.961   3.696 -0.3657  0.7440  1.1505
  986MOL0     H33089   9.150   0.832   3.823 -0.2042 -0.2580 -1.1668
  986MOL0     H33090   9.210   1.147   4.826  0.7957 -1.0620 -1.3622
  986MOL0     H33091   9.147   1.200   5.060  0.1917  0.3236  1.0494
  986MOL0     H33092   9.318   1.452   5.429  1.1226 -0.2342  0.9598
  986MOL0     H33093   9.263   1.507   5.689  1.0632  0.0305  0.1434
  986MOL0     H33094   7.598   1.935   6.545 -0.0122  1.5652 -1.3516
  986MOL0     H33095   7.340   1.929   6.535 -0.2843  0.3635 -0.2986
  986MOL0     H33096   6.968   1.733   6.517  4.4636 -1.0857 -1.6551
  986MOL0     H33097   6.708   1.736   6.509  0.3541 -0.5980 -0.6226
  986MOL0     H33098   6.534   1.898   6.405 -1.6383  0.0528 -0.0605
  986MOL0     H33099   6.445   1.742   6.445  2.4362 -0.7571  1.1676
  986MOL0     H33100   6.279   1.891   6.371  0.2861 -1.3912 -0.3098
  986MOL0     H33101   6.325   1.763   6.254  0.1406 -0.2247 -1.0461
  986MOL0     H33102   6.427   1.906   6.103  1.5459 -1.2372  1.1651
  986MOL0     H33103   6.449   2.051   6.210 -0.8985  0.3248 -0.9280
  986MOL0     H33104   6.295   2.113   6.048  1.1460 -2.1910 -3.5552
  986MOL0     H33105   6.203   1.966   6.046 -4.1140  2.0142  1.4512
  986MOL0     H33106   6.020   2.162   6.375  2.1145 -0.5963  2.3996
  986MOL0     H33107   6.716   1.718   6.088 -2.7780 -0.7417  2.4283
  986MOL0     H33108   7.092   1.802   6.081 -2.0153  2.3678  0.9004
  986MOL0     H33109   7.041   1.635   6.031 -0.1438 -0.6707 -0.0437
  986MOL0     H33110   6.954   1.782   5.974  0.6746  1.5341  0.4409
  987MOL0     O33111   7.137   0.567   2.503  0.0025 -0.3654 -0.3502
  987MOL0     C33112   7.145   0.668   2.576 -0.5697 -0.1239 -0.3193
  987MOL0     O33113   7.048   0.770   2.575 -0.6358  0.5497 -0.8143
  987MOL0     C33114   6.934   0.755   2.499 -0.0549  0.7873  0.2006
  987MOL0     C33115   6.869   0.875   2.476 -0.6049  0.0831 -0.7367
  987MOL0     C33116   6.760   0.884   2.396 -0.8002 -0.2031 -0.4032
  987MOL0     C33117   6.700   0.774   2.339 -0.0555 -0.1569 -0.2369
  987MOL0     O33118   6.584   0.790   2.266 -0.0128 -0.5126  0.0385
  987MOL0     C33119   6.517   0.678   2.204  0.2620  0.0032 -1.1863
  987MOL0     C33120   6.581   0.622   2.081  0.3193 -0.6827 -0.3660
  987MOL0     C33121   6.560   0.723   1.959 -0.5807 -0.2044 -0.0554
  987MOL0     C33122   6.613   0.658   1.828 -0.2681  0.5439  0.3483
  987MOL0     C33123   6.652   0.763   1.726 -0.5458 -0.1788  1.2630
  987MOL0     C33124   6.696   0.691   1.594  0.5784 -1.0894  0.9090
  987MOL0     C33125   6.740   0.806   1.489 -1.2587 -0.9135 -0.4711
  987MOL0     C33126   6.614   0.888   1.441  0.2900 -0.0025 -0.0494
  987MOL0     N33127   6.647   0.941   1.302  0.1723  0.5469 -0.4415
  987MOL0     C33128   6.749   1.022   1.273 -0.1541 -0.0287  0.1504
  987MOL0     C33129   6.773   1.000   1.147 -0.6114 -0.1994  0.5340
  987MOL0     C33130   6.896   1.063   1.090  0.6674 -0.1869  0.9288
  987MOL0     C33131   6.842   1.189   1.011  0.6410 -0.7081 -0.4465
  987MOL0     C33132   6.851   1.332   1.084 -0.0520  0.5292 -0.5163
  987MOL0     C33133   6.727   1.422   1.059  0.4383 -0.6605  0.0418
  987MOL0     O33134   6.724   1.486   0.929  0.2865 -0.5200 -0.3887
  987MOL0     C33135   6.815   1.583   0.892  1.5882  0.3491  0.6104
  987MOL0     C33136   6.894   1.663   0.975 -0.1212  1.1905  0.5467
  987MOL0     C33137   7.002   1.738   0.914  0.3452  0.2972 -0.6308
  987MOL0     C33138   7.022   1.735   0.780 -0.4110  0.3957  0.8697
  987MOL0     C33139   7.144   1.797   0.724  0.1335  1.7906  0.0036
  987MOL0     O33140   7.153   1.790   0.595 -0.6834 -0.8799 -0.2826
  987MOL0     C33141   7.232   1.883   0.529 -0.2077  0.4925 -0.0052
  987MOL0     C33142   7.371   1.872   0.512 -0.0074 -0.0899 -0.6576
  987MOL0     C33143   7.437   1.970   0.439 -0.2858  0.1192  0.4716
  987MOL0     C33144   7.376   2.084   0.387 -0.4273 -0.4053  0.2588
  987MOL0     O33145   7.444   2.189   0.328  0.3867 -0.2689  0.1677
  987MOL0     C33146   7.530   2.277   0.413 -0.1621 -0.0898  0.1201
  987MOL0     C33147   7.470   2.423   0.413 -0.6127  0.4159 -0.5148
  987MOL0     C33148   7.359   2.430   0.517 -0.0938  0.8920  0.2612
  987MOL0     C33149   7.346   2.566   0.578 -0.1350 -0.3241 -0.1635
  987MOL0     C33150   7.211   2.612   0.629 -0.0545  0.0070  0.0419
  987MOL0     C33151   7.126   2.679   0.525  0.5395 -0.5201 -0.3030
  987MOL0     C33152   6.983   2.688   0.574  0.9553  0.3308 -0.4705
  987MOL0     C33153   6.893   2.780   0.489 -0.5113 -0.1093 -0.1196
  987MOL0    Cl33154   6.746   2.839   0.567  0.0968  0.2820 -0.0745
  987MOL0     C33155   7.237   2.097   0.417  0.6676  0.8822  0.4176
  987MOL0     C33156   7.161   1.991   0.470  0.7308  0.2072  0.0982
  987MOL0     O33157   7.225   1.852   0.797 -0.5725 -0.6219 -0.2599
  987MOL0     C33158   6.916   1.682   0.702 -1.0088  0.0359 -0.1248
  987MOL0     C33159   6.816   1.604   0.753  0.4390 -0.8460 -0.6879
  987MOL0     N33160   6.673   0.920   1.094  0.2156  0.0357  0.0652
  987MOL0     N33161   6.598   0.886   1.189 -0.8766 -1.9311  0.2564
  987MOL0     C33162   6.754   0.651   2.375  0.6386 -0.7857  0.5546
  987MOL0     C33163   6.870   0.642   2.449 -0.0955  0.0329 -0.2220
  987MOL0     C33164   7.251   0.677   2.679 -0.6924 -0.3201  0.2321
  987MOL0     C33165   7.247   0.782   2.773 -0.7247 -0.2979 -0.3224
  987MOL0     C33166   7.325   0.782   2.894  0.6590  0.2138  0.3482
  987MOL0     C33167   7.425   0.686   2.912  0.3871  0.7676 -0.2367
  987MOL0     O33168   7.507   0.682   3.025  0.4504 -1.0842  0.1250
  987MOL0     C33169   7.428   0.684   3.148  0.1761 -0.4441  0.7599
  987MOL0     C33170   7.501   0.635   3.281  1.0783  0.4729  0.2275
  987MOL0     C33171   7.423   0.628   3.407  0.1125  0.7288 -0.1038
  987MOL0     C33172   7.342   0.752   3.445 -0.1300  0.8371 -0.8140
  987MOL0     C33173   7.436   0.848   3.497  0.4626 -0.0795  0.2042
  987MOL0     C33174   7.494   0.945   3.539 -0.0520 -0.7825  0.2561
  987MOL0     C33175   7.447   0.589   2.811 -0.7074 -1.1913  0.4191
  987MOL0     C33176   7.360   0.580   2.699 -0.0589  0.7186 -0.4988
  987MOL0     C33177   7.390   0.469   2.599 -0.2030  0.8604 -0.1266
  987MOL0     H33178   6.897   0.971   2.520 -1.6788  0.2640 -0.4071
  987MOL0     H33179   6.714   0.980   2.375 -2.1207 -0.9508 -1.0130
  987MOL0     H33180   6.510   0.601   2.281  2.6546 -2.8437 -3.5484
  987MOL0     H33181   6.413   0.707   2.183 -0.9331 -1.9943  1.3715
  987MOL0     H33182   6.534   0.526   2.058  1.5448 -2.2786  3.1289
  987MOL0     H33183   6.688   0.611   2.100  0.3666 -0.1370 -0.3014
  987MOL0     H33184   6.609   0.818   1.981  0.0219 -0.3474 -0.7089
  987MOL0     H33185   6.453   0.738   1.946 -1.2354 -3.5116  0.5803
  987MOL0     H33186   6.698   0.592   1.848 -1.7687 -2.6343 -2.6636
  987MOL0     H33187   6.534   0.599   1.779 -0.4407  2.9777 -2.6571
  987MOL0     H33188   6.560   0.818   1.704 -1.0437 -1.5094 -0.1478
  987MOL0     H33189   6.735   0.825   1.759  0.7273 -1.5850  0.8384
  987MOL0     H33190   6.781   0.626   1.615  0.2975 -0.7710  3.2796
  987MOL0     H33191   6.617   0.627   1.553  0.0306  0.7125 -1.0322
  987MOL0     H33192   6.784   0.752   1.405  0.0599 -2.4208  1.0932
  987MOL0     H33193   6.809   0.876   1.536 -1.1018 -0.2203 -1.7251
  987MOL0     H33194   6.534   0.817   1.419 -1.9016  3.1309 -3.4388
  987MOL0     H33195   6.575   0.967   1.506 -1.3005  0.0634 -1.0220
  987MOL0     H33196   6.809   1.085   1.338 -2.9909  1.7419  1.2167
  987MOL0     H33197   6.967   1.082   1.170  0.2520 -2.0106  1.7960
  987MOL0     H33198   6.953   0.991   1.031  0.5766 -2.0646  3.0315
  987MOL0     H33199   6.909   1.204   0.926 -0.7370  4.1975 -0.9746
  987MOL0     H33200   6.738   1.175   0.981  0.9076  0.8333 -2.2995
  987MOL0     H33201   6.949   1.375   1.060  0.6878  0.7622  2.4688
  987MOL0     H33202   6.849   1.324   1.193  3.1493  1.9090 -0.2360
  987MOL0     H33203   6.730   1.493   1.142  1.7573 -0.4125 -0.1864
  987MOL0     H33204   6.632   1.369   1.073  0.0830 -0.2142 -0.6453
  987MOL0     H33205   6.887   1.645   1.082  0.8526 -1.6504  0.2169
  987MOL0     H33206   7.078   1.785   0.976  0.0834 -1.0041  0.7631
  987MOL0     H33207   7.416   1.782   0.553 -0.7177 -0.5421 -0.8436
  987MOL0     H33208   7.540   1.948   0.413  0.2144  3.2084 -0.6527
  987MOL0     H33209   7.555   2.234   0.511  2.8240  1.3096  0.0747
  987MOL0     H33210   7.621   2.283   0.353  1.1696 -2.6011  1.7039
  987MOL0     H33211   7.555   2.486   0.439 -1.7749  1.3975  1.0794
  987MOL0     H33212   7.431   2.457   0.316  0.3253  0.9808 -0.7070
  987MOL0     H33213   7.268   2.399   0.465 -0.9691  0.8885  1.7210
  987MOL0     H33214   7.383   2.364   0.600 -3.4936  1.5085  1.9149
  987MOL0     H33215   7.378   2.637   0.500 -2.6209  0.5638 -0.4564
  987MOL0     H33216   7.421   2.580   0.656  1.8965 -1.9793 -1.7027
  987MOL0     H33217   7.226   2.678   0.715  2.1665  1.0025 -1.0250
  987MOL0     H33218   7.155   2.521   0.653 -0.9107  0.5366  0.0872
  987MOL0     H33219   7.172   2.777   0.511 -1.4773  0.6587  0.9111
  987MOL0     H33220   7.126   2.628   0.428 -0.9622 -1.2274  0.0376
  987MOL0     H33221   6.981   2.728   0.676 -2.2755 -5.4343  2.2124
  987MOL0     H33222   6.937   2.589   0.578 -0.0815  0.8235  0.0682
  987MOL0     H33223   6.937   2.869   0.442 -1.0409 -1.5015 -3.5254
  987MOL0     H33224   6.867   2.728   0.396  3.5507  0.1698 -1.6253
  987MOL0     H33225   7.186   2.183   0.375  2.0501  0.6963 -1.7876
  987MOL0     H33226   7.054   1.970   0.472  0.9106 -1.1062  3.8109
  987MOL0     H33227   6.933   1.700   0.596 -0.7839 -0.7859 -0.2369
  987MOL0     H33228   6.741   1.570   0.683 -0.1461 -2.6673  0.7551
  987MOL0     H33229   6.705   0.561   2.338  1.2979 -0.7473 -0.4711
  987MOL0     H33230   6.904   0.539   2.456 -2.4276 -0.8698 -1.0717
  987MOL0     H33231   7.181   0.867   2.756 -1.3061 -0.6274  0.2191
  987MOL0     H33232   7.306   0.863   2.963 -4.1588  0.1277 -0.5182
  987MOL0     H33233   7.336   0.625   3.140  0.2297 -0.3647 -0.6320
  987MOL0     H33234   7.396   0.786   3.169 -2.3450 -0.6834 -1.3889
  987MOL0     H33235   7.584   0.704   3.299  0.0138  1.7686  0.2796
  987MOL0     H33236   7.540   0.534   3.266 -0.8991 -0.8901  3.1510
  987MOL0     H33237   7.486   0.597   3.490 -0.6507  0.9416  0.5715
  987MOL0     H33238   7.350   0.546   3.399  1.6755 -0.6785 -0.7164
  987MOL0     H33239   7.292   0.803   3.363  1.5037  2.6972 -0.7232
  987MOL0     H33240   7.281   0.718   3.530  2.2747 -3.3732 -0.4549
  987MOL0     H33241   7.531   1.035   3.583 -0.4047 -2.0222  3.3930
  987MOL0     H33242   7.531   0.520   2.816  2.5664  2.2824 -0.9289
  987MOL0     H33243   7.331   0.379   2.615  0.5338  0.4840  0.5213
  987MOL0     H33244   7.366   0.500   2.497 -0.4295  0.9808 -0.0389
  987MOL0     H33245   7.492   0.433   2.608 -1.6277 -3.4880  1.0710
  988MOL0     O33246  10.942   8.681  10.806  0.2644 -0.8810 -0.1185
  988MOL0     C33247  10.930   8.566  10.788  0.5611  0.6104 -0.4885
  988MOL0     O33248  11.018   8.476  10.743  0.3905 -0.5551  0.6306
  988MOL0     C33249  11.136   8.533  10.700  0.4095 -0.0347 -0.7072
  988MOL0     C33250  11.170   8.507  10.564  0.0777  0.1451 -0.0292
  988MOL0     C33251  11.291   8.540  10.519 -0.9107 -0.7484  0.8757
  988MOL0     C33252  11.394   8.584  10.608  0.5498 -0.0864  0.1749
  988MOL0     O33253  11.520   8.604  10.562  0.7675  0.1071  0.3804
  988MOL0     C33254  11.585   8.718  10.621 -0.2470  0.4657 -0.0510
  988MOL0     C33255  11.681   8.771  10.518  0.0047  1.4692 -0.1161
  988MOL0     C33256  11.815   8.692  10.510 -0.0923 -0.2353  0.3883
  988MOL0     C33257  11.926   8.778  10.448  0.4631  0.5084 -0.9865
  988MOL0     C33258  12.054   8.691  10.405  0.0291 -0.5660 -0.4375
  988MOL0     C33259  12.189   8.762  10.387 -0.1455 -0.2191  0.9099
  988MOL0     C33260  12.178   8.884  10.294 -0.4427 -0.5938  0.3039
  988MOL0     C33261  12.178   8.839  10.144  0.4693  0.1648 -0.0628
  988MOL0     N33262  12.186   8.949  10.053  0.0122 -0.5326 -0.4538
  988MOL0     C33263  12.118   9.070  10.065 -0.1508 -0.4421 -0.3735
  988MOL0     C33264  12.155   9.136   9.952 -0.4217 -1.0410 -0.1980
  988MOL0     C33265  12.110   9.273   9.902 -0.9302 -0.7198  0.0259
  988MOL0     C33266  12.073   9.372  10.013  0.3324 -0.6970 -0.5506
  988MOL0     C33267  11.935   9.353  10.056  1.0255  0.7037 -0.2781
  988MOL0     C33268  11.836   9.355   9.946  0.2624  0.3724  0.2311
  988MOL0     O33269  11.716   9.399  10.000 -0.6207 -0.6131 -0.1182
  988MOL0     C33270  11.660   9.522   9.961 -1.8163 -1.0609  0.0554
  988MOL0     C33271  11.723   9.635   9.897  0.4064 -0.5108 -0.0835
  988MOL0     C33272  11.654   9.752   9.848 -1.0228  0.1641 -0.0416
  988MOL0     C33273  11.515   9.759   9.872  0.8426 -0.1879 -0.0974
  988MOL0     C33274  11.431   9.878   9.824 -0.6463  0.2776 -0.0392
  988MOL0     O33275  11.508   9.988   9.809  0.2385  0.3086 -0.8332
  988MOL0     C33276  11.448  10.110   9.797  0.1825 -0.0740  0.3987
  988MOL0     C33277  11.452  10.183   9.683 -0.4067 -0.2701  0.6910
  988MOL0     C33278  11.393  10.305   9.667  0.5834  0.1208 -0.0479
  988MOL0     C33279  11.323  10.361   9.772 -0.1281  1.4192 -0.4515
  988MOL0     O33280  11.265  10.482   9.739  0.5335  0.5890 -0.0751
  988MOL0     C33281  11.159  10.524   9.817  0.4824 -0.0112 -0.2621
  988MOL0     C33282  11.098  10.647   9.757  0.3550 -0.1710  0.7157
  988MOL0     C33283  10.969  10.694   9.815  0.9368 -0.2479  0.0244
  988MOL0     C33284  10.952  10.847   9.782  0.0498  0.1232  0.2266
  988MOL0     C33285  10.818  10.921   9.821 -0.4483  0.7301  0.5268
  988MOL0     C33286  10.809  11.055   9.757 -0.4848 -0.2659 -0.0113
  988MOL0     C33287  10.685  11.133   9.810 -0.2701  0.4618 -0.2653
  988MOL0     C33288  10.672  11.277   9.767 -0.3103 -0.5410  0.0889
  988MOL0    Cl33289  10.752  11.385   9.884  0.4805 -0.1317  0.0131
  988MOL0     C33290  11.313  10.282   9.895 -0.8538 -0.3105  0.6610
  988MOL0     C33291  11.381  10.164   9.905  0.5012 -0.2874  0.3391
  988MOL0     O33292  11.308   9.871   9.810 -0.7351 -0.7749 -0.8703
  988MOL0     C33293  11.445   9.649   9.928  0.4807 -1.3398 -0.5529
  988MOL0     C33294  11.525   9.536   9.968  0.1410 -0.1584 -0.3893
  988MOL0     N33295  12.236   9.060   9.873  0.0973  0.0666 -1.3875
  988MOL0     N33296  12.250   8.949   9.936 -0.3414 -0.0638  0.0468
  988MOL0     C33297  11.356   8.629  10.736  0.2502 -0.1354 -0.2306
  988MOL0     C33298  11.229   8.595  10.788 -0.6277 -0.2687  0.1478
  988MOL0     C33299  10.797   8.504  10.810  0.7208  1.2240 -0.0818
  988MOL0     C33300  10.762   8.375  10.747  0.2933  0.2506  0.2940
  988MOL0     C33301  10.641   8.316  10.756 -0.7221 -0.1890 -0.0030
  988MOL0     C33302  10.543   8.374  10.822  0.7558  0.1283  0.1126
  988MOL0     O33303  10.422   8.305  10.825 -1.0012  0.2621 -0.1762
  988MOL0     C33304  10.304   8.371  10.864 -0.2340 -0.2290 -0.2649
  988MOL0     C33305  10.188   8.307  10.789 -0.1476 -0.1802  0.7802
  988MOL0     C33306  10.170   8.352  10.646  0.1946 -1.1999 -0.0311
  988MOL0     C33307  10.288   8.309  10.567  1.2899  0.2500 -0.0644
  988MOL0     C33308  10.266   8.356  10.425 -0.0243 -0.3394 -0.3432
  988MOL0     C33309  10.244   8.366  10.309  0.3538 -0.3627 -0.4896
  988MOL0     C33310  10.566   8.498  10.892  0.7260  1.3512  0.6692
  988MOL0     C33311  10.688   8.561  10.890 -0.8262  0.2367 -1.0675
  988MOL0     C33312  10.700   8.703  10.934  0.1407 -0.1632 -0.4764
  988MOL0     H33313  11.091   8.474  10.498 -0.5347  1.8339 -0.1854
  988MOL0     H33314  11.314   8.533  10.413 -0.7529  1.3667  0.7140
  988MOL0     H33315  11.523   8.806  10.642 -0.7408 -0.4027  2.4557
  988MOL0     H33316  11.642   8.697  10.712 -3.3971  0.4575  2.0811
  988MOL0     H33317  11.714   8.873  10.540  2.9095  1.4169 -3.3537
  988MOL0     H33318  11.629   8.768  10.422 -3.1942 -1.8353  1.4499
  988MOL0     H33319  11.813   8.590  10.472  1.4241 -0.0515 -0.2960
  988MOL0     H33320  11.844   8.674  10.614 -1.0790 -1.7348  0.4172
  988MOL0     H33321  11.875   8.832  10.367 -2.3945 -2.6102 -1.5209
  988MOL0     H33322  11.971   8.848  10.519  2.4497  0.3682 -2.0491
  988MOL0     H33323  12.084   8.612  10.475 -0.0145 -2.2726 -2.2443
  988MOL0     H33324  12.036   8.643  10.309 -2.0865 -2.0790  0.6280
  988MOL0     H33325  12.225   8.793  10.486 -0.5991 -0.7524  1.2457
  988MOL0     H33326  12.254   8.689  10.339 -1.1985  0.7475 -2.2021
  988MOL0     H33327  12.259   8.955  10.312  1.5957 -2.8958  0.6484
  988MOL0     H33328  12.084   8.932  10.323 -0.5708 -0.0985 -0.8744
  988MOL0     H33329  12.260   8.771  10.122  1.1550  0.6588  0.8921
  988MOL0     H33330  12.084   8.791  10.116  0.4236  0.4817 -0.4729
  988MOL0     H33331  12.053   9.103  10.146  0.1007 -0.4139 -0.1817
  988MOL0     H33332  12.195   9.316   9.849 -0.1464  0.0279  1.8414
  988MOL0     H33333  12.038   9.270   9.819  1.2840 -0.1218 -2.0199
  988MOL0     H33334  12.138   9.365  10.100 -3.7110  2.6736  3.2202
  988MOL0     H33335  12.084   9.476   9.981 -3.1585  0.2731  0.8931
  988MOL0     H33336  11.924   9.443  10.117  0.6743  1.8414 -1.9397
  988MOL0     H33337  11.921   9.259  10.109  1.2364  0.8197 -0.0139
  988MOL0     H33338  11.820   9.252   9.913  1.4176 -0.3811  1.8495
  988MOL0     H33339  11.881   9.411   9.863  1.4159 -0.9169 -0.0663
  988MOL0     H33340  11.830   9.644   9.882  0.7328  1.4276  2.5316
  988MOL0     H33341  11.702   9.843   9.812  0.1599  0.6453  2.5237
  988MOL0     H33342  11.499  10.141   9.595  1.1023  2.3558  0.1314
  988MOL0     H33343  11.400  10.362   9.575 -0.5629 -2.9196 -2.1527
  988MOL0     H33344  11.072  10.459   9.809  0.6577 -0.1313 -1.4306
  988MOL0     H33345  11.184  10.550   9.920 -0.7324 -0.2666  0.1111
  988MOL0     H33346  11.166  10.731   9.773 -2.0526  1.7052  1.7968
  988MOL0     H33347  11.091  10.641   9.648  0.9143 -0.0691  0.6749
  988MOL0     H33348  10.882  10.643   9.772 -1.5411  1.0494  3.1177
  988MOL0     H33349  10.980  10.668   9.920  1.1566  0.7706  0.2594
  988MOL0     H33350  10.975  10.863   9.676 -3.1921  2.4353 -0.2633
  988MOL0     H33351  11.035  10.897   9.834 -0.4510  1.3244 -0.0860
  988MOL0     H33352  10.803  10.924   9.930 -3.3031  0.2771  0.2388
  988MOL0     H33353  10.731  10.862   9.789  0.8964 -2.5695  2.3950
  988MOL0     H33354  10.889  11.119   9.795 -0.3294  1.5035 -2.9992
  988MOL0     H33355  10.826  11.047   9.649 -3.3237  1.0352 -0.6477
  988MOL0     H33356  10.682  11.118   9.918  0.6288  1.5600 -0.0656
  988MOL0     H33357  10.593  11.078   9.788  0.0685 -0.4849  0.5897
  988MOL0     H33358  10.709  11.290   9.665 -0.7268  3.4505  0.2689
  988MOL0     H33359  10.568  11.310   9.759 -1.5058 -4.0042 -0.2441
  988MOL0     H33360  11.260  10.308   9.986 -0.3892 -1.4432  1.2650
  988MOL0     H33361  11.378  10.110   9.999 -1.1023 -2.3176 -0.7873
  988MOL0     H33362  11.338   9.648   9.946 -0.0175  3.1381 -1.9190
  988MOL0     H33363  11.469   9.459  10.020 -3.9736  2.0075 -1.1832
  988MOL0     H33364  11.423   8.670  10.810  2.4877 -2.0049 -1.1009
  988MOL0     H33365  11.201   8.628  10.887  1.2232 -1.4839  1.1228
  988MOL0     H33366  10.829   8.318  10.683  0.3494 -0.0252  0.5950
  988MOL0     H33367  10.621   8.223  10.704  1.7631 -0.6809 -0.1859
  988MOL0     H33368  10.298   8.477  10.838  1.7831 -0.4638 -2.0090
  988MOL0     H33369  10.294   8.363  10.973  1.7178 -0.0441 -0.0280
  988MOL0     H33370  10.100   8.345  10.841  0.4139  0.9935  0.9172
  988MOL0     H33371  10.188   8.197  10.792 -1.2926 -0.3477 -2.1777
  988MOL0     H33372  10.159   8.461  10.642  2.2216 -0.8996  0.9640
  988MOL0     H33373  10.082   8.301  10.605 -0.1239 -0.3693 -0.4160
  988MOL0     H33374  10.381   8.355  10.603  0.5182  2.2595 -0.4827
  988MOL0     H33375  10.288   8.200  10.562 -2.1467  0.1291  0.5968
  988MOL0     H33376  10.227   8.379  10.203 -1.1340 -0.5803 -0.2977
  988MOL0     H33377  10.481   8.536  10.948 -1.2221  0.6787 -1.6569
  988MOL0     H33378  10.696   8.772  10.849 -0.1980 -2.1751 -2.1891
  988MOL0     H33379  10.609   8.731  10.987 -0.9348 -2.6388 -0.8677
  988MOL0     H33380  10.785   8.713  11.002 -1.9538  1.1083  2.1461
  989MOL0     O33381   8.601   3.377   4.509 -0.3885 -0.2287 -1.4136
  989MOL0     C33382   8.599   3.492   4.544 -0.2525 -0.1887 -0.0527
  989MOL0     O33383   8.534   3.538   4.657 -0.0799 -0.1123  0.4173
  989MOL0     C33384   8.443   3.470   4.736  0.2052 -0.2470 -0.7533
  989MOL0     C33385   8.336   3.393   4.684 -0.0587 -0.9392  0.1194
  989MOL0     C33386   8.250   3.326   4.768  1.3036  0.3700 -0.6145
  989MOL0     C33387   8.272   3.326   4.912  0.3720 -0.6558 -0.4524
  989MOL0     O33388   8.187   3.257   4.998  0.4340  0.2390  0.0460
  989MOL0     C33389   8.077   3.180   4.940 -0.7673  0.9057 -0.4204
  989MOL0     C33390   7.997   3.096   5.039  0.4729  0.0111 -1.0622
  989MOL0     C33391   7.925   3.184   5.137  0.6085  0.3701 -0.2587
  989MOL0     C33392   7.828   3.096   5.219  0.2978 -0.0491  0.4875
  989MOL0     C33393   7.752   3.174   5.315 -0.0382  0.3725 -0.2163
  989MOL0     C33394   7.674   3.072   5.413  0.4263 -0.3227  0.8312
  989MOL0     C33395   7.571   3.143   5.503  0.2803 -0.2275  0.8636
  989MOL0     C33396   7.514   3.070   5.622 -0.5976 -0.5580  0.2370
  989MOL0     N33397   7.451   3.154   5.718  0.0055  0.3587  0.3471
  989MOL0     C33398   7.360   3.246   5.682  0.1284 -0.8572 -0.3595
  989MOL0     C33399   7.311   3.295   5.800  0.8306 -0.0878 -0.7016
  989MOL0     C33400   7.206   3.400   5.813  0.6010 -0.0865 -1.2764
  989MOL0     C33401   7.061   3.358   5.883  0.7739 -0.3352 -0.1070
  989MOL0     C33402   6.976   3.479   5.923  0.4242 -0.5415  0.5234
  989MOL0     C33403   6.841   3.445   5.986 -0.3011  0.9725 -0.1359
  989MOL0     O33404   6.768   3.396   5.875  0.0659 -0.1480 -0.2031
  989MOL0     C33405   6.627   3.380   5.889 -0.1865 -0.5990 -1.1170
  989MOL0     C33406   6.553   3.466   5.810  0.0100  0.8868 -0.5315
  989MOL0     C33407   6.417   3.468   5.820  0.1757 -0.7676  0.0221
  989MOL0     C33408   6.351   3.365   5.893  1.1262 -0.2110 -0.8884
  989MOL0     C33409   6.203   3.347   5.884 -0.1550  0.6105 -0.0038
  989MOL0     O33410   6.139   3.428   5.798 -0.8368 -0.1509  0.1469
  989MOL0     C33411   6.022   3.383   5.742 -0.0859 -0.0469  0.8034
  989MOL0     C33412   5.901   3.388   5.823 -0.1833 -0.7735  1.4010
  989MOL0     C33413   5.772   3.360   5.763  0.1087 -0.7686 -0.2216
  989MOL0     C33414   5.751   3.359   5.624 -0.8758 -0.7868  0.6049
  989MOL0     O33415   5.626   3.348   5.580  0.1574 -0.7563  0.2122
  989MOL0     C33416   5.600   3.354   5.439 -0.3685 -0.1739 -0.0512
  989MOL0     C33417   5.602   3.196   5.389  0.4580  0.0838 -0.5824
  989MOL0     C33418   5.492   3.165   5.291  0.2294 -0.2958 -0.1503
  989MOL0     C33419   5.509   3.012   5.243 -1.0126  0.9997 -0.6416
  989MOL0     C33420   5.418   2.962   5.136  0.4147  0.1990  0.0396
  989MOL0     C33421   5.419   2.812   5.129 -0.6050 -0.6150 -1.0522
  989MOL0     C33422   5.343   2.763   5.008 -1.0878 -0.1569 -0.1013
  989MOL0     C33423   5.348   2.607   5.011 -0.1201 -0.5576 -0.4374
  989MOL0    Cl33424   5.271   2.541   4.853 -0.2970  0.5770 -0.6389
  989MOL0     C33425   5.870   3.347   5.545 -0.8283  0.9126 -0.1928
  989MOL0     C33426   5.996   3.370   5.605 -0.4640 -0.5491 -0.8029
  989MOL0     O33427   6.155   3.249   5.944 -0.4391  0.4492 -0.5066
  989MOL0     C33428   6.426   3.286   5.986  0.9853 -0.6211  0.3177
  989MOL0     C33429   6.560   3.297   5.993 -0.0450  0.1922  0.5437
  989MOL0     N33430   7.361   3.220   5.907 -0.1118 -0.5377 -0.7158
  989MOL0     N33431   7.452   3.141   5.855  0.0063  0.1193  0.1508
  989MOL0     C33432   8.376   3.403   4.967  0.5669 -0.1081  0.2217
  989MOL0     C33433   8.460   3.471   4.873 -0.0718 -0.4615 -0.2871
  989MOL0     C33434   8.643   3.600   4.453  1.3567 -0.8101  0.5900
  989MOL0     C33435   8.588   3.735   4.465  0.0931 -0.0732 -0.7110
  989MOL0     C33436   8.644   3.843   4.406  0.8226 -0.0986  0.5299
  989MOL0     C33437   8.738   3.825   4.310 -0.5563 -0.2385 -0.2178
  989MOL0     O33438   8.764   3.936   4.230 -0.4216 -0.1843 -0.3211
  989MOL0     C33439   8.841   3.915   4.117  0.2038  1.1487  0.1194
  989MOL0     C33440   8.847   4.046   4.042 -0.2018 -0.1562  0.5602
  989MOL0     C33441   8.709   4.117   4.021 -0.6331 -0.4886 -0.1830
  989MOL0     C33442   8.716   4.253   3.962  0.1902  0.5367  0.1729
  989MOL0     C33443   8.766   4.232   3.824  0.9463  0.7469  0.3728
  989MOL0     C33444   8.826   4.226   3.718 -0.6015  0.5119  0.0062
  989MOL0     C33445   8.804   3.696   4.296 -0.4612  0.0621 -0.7555
  989MOL0     C33446   8.752   3.583   4.368  0.4176 -0.0434 -0.6403
  989MOL0     C33447   8.835   3.447   4.363  0.3888  0.1472  0.4638
  989MOL0     H33448   8.315   3.385   4.578  1.5005 -0.4156 -0.2576
  989MOL0     H33449   8.171   3.261   4.729  0.5359  0.2737  1.0103
  989MOL0     H33450   8.004   3.248   4.896  1.4386  3.5099 -0.3515
  989MOL0     H33451   8.117   3.112   4.865 -1.3732 -1.0741  0.9831
  989MOL0     H33452   8.080   3.040   5.084  3.1687  4.7514  0.6502
  989MOL0     H33453   7.925   3.031   4.988 -2.0723  2.0326 -0.2742
  989MOL0     H33454   7.854   3.247   5.083 -0.4866  0.5293  1.3103
  989MOL0     H33455   7.993   3.240   5.201  2.5653 -2.3752  0.2767
  989MOL0     H33456   7.761   3.046   5.149 -0.8478  0.9684  0.8329
  989MOL0     H33457   7.889   3.019   5.268 -1.6337 -1.4808  0.7444
  989MOL0     H33458   7.808   3.239   5.382 -1.7296  1.7282 -0.0561
  989MOL0     H33459   7.674   3.235   5.269 -0.9240  0.1138  0.9023
  989MOL0     H33460   7.629   2.993   5.353 -4.2646  1.8785  1.0401
  989MOL0     H33461   7.746   3.028   5.483 -0.4019 -1.8648  0.7616
  989MOL0     H33462   7.477   3.162   5.449  1.1552  0.2339 -0.5488
  989MOL0     H33463   7.606   3.242   5.535 -1.6667  0.5752  0.7203
  989MOL0     H33464   7.450   2.991   5.582 -1.5568  0.1857  0.2755
  989MOL0     H33465   7.594   3.019   5.678 -1.5245 -1.9745  0.3439
  989MOL0     H33466   7.326   3.282   5.585  0.6401 -0.1984 -0.2978
  989MOL0     H33467   7.245   3.473   5.884  0.1894  1.2007 -2.3422
  989MOL0     H33468   7.186   3.445   5.716 -0.5178  1.8454 -0.2199
  989MOL0     H33469   7.012   3.294   5.810  0.9919  0.3005 -0.8215
  989MOL0     H33470   7.090   3.306   5.975  2.0082 -0.5833 -0.6139
  989MOL0     H33471   6.948   3.539   5.836 -0.8098 -1.5480  0.2005
  989MOL0     H33472   7.030   3.547   5.989  0.5611 -0.0126 -0.1210
  989MOL0     H33473   6.790   3.530   6.032 -1.9535  0.7349 -1.4316
  989MOL0     H33474   6.862   3.357   6.047 -0.3206 -0.8504 -2.6150
  989MOL0     H33475   6.599   3.527   5.733  0.8463 -0.6816 -1.3335
  989MOL0     H33476   6.360   3.549   5.774  0.7492  0.9601  2.1920
  989MOL0     H33477   5.914   3.417   5.927 -0.9311  3.1498  0.5343
  989MOL0     H33478   5.687   3.377   5.828 -1.0421  1.4885 -2.1698
  989MOL0     H33479   5.509   3.409   5.413 -0.3679 -0.7079 -1.2677
  989MOL0     H33480   5.672   3.413   5.383  0.8517 -0.8908  0.7211
  989MOL0     H33481   5.699   3.176   5.342 -0.3072 -4.5561 -0.6454
  989MOL0     H33482   5.582   3.135   5.478  0.4867  1.2722  0.2585
  989MOL0     H33483   5.390   3.171   5.330  1.2585  1.3039  2.6296
  989MOL0     H33484   5.512   3.227   5.203  0.5417  0.7673  0.6382
  989MOL0     H33485   5.499   2.937   5.323  0.1961 -0.4153 -1.7541
  989MOL0     H33486   5.606   2.996   5.196 -0.0679  0.8615  1.2359
  989MOL0     H33487   5.453   3.002   5.041 -0.4390 -0.2481 -0.4723
  989MOL0     H33488   5.315   2.993   5.152  0.8948  1.0048  1.8327
  989MOL0     H33489   5.522   2.775   5.130  0.1491  1.3023 -1.8622
  989MOL0     H33490   5.368   2.791   5.224 -0.0170  0.5894 -0.4367
  989MOL0     H33491   5.387   2.816   4.923 -2.8529  2.6098  0.5367
  989MOL0     H33492   5.238   2.793   5.006 -0.2223  3.2819 -1.8877
  989MOL0     H33493   5.450   2.574   5.031  0.5349  0.6534 -1.6194
  989MOL0     H33494   5.286   2.577   5.096 -1.8975 -0.4838 -1.6576
  989MOL0     H33495   5.874   3.340   5.436  0.8724 -0.4769 -0.0832
  989MOL0     H33496   6.086   3.370   5.544 -0.2726 -1.0842 -0.5290
  989MOL0     H33497   6.382   3.212   6.053 -2.7320  0.1102 -1.0399
  989MOL0     H33498   6.614   3.232   6.061 -0.2845 -2.2896 -1.4877
  989MOL0     H33499   8.398   3.400   5.073 -0.0088  1.3752  0.4049
  989MOL0     H33500   8.545   3.533   4.898  0.6381  0.1582 -3.6932
  989MOL0     H33501   8.504   3.756   4.530  0.3114  1.2774 -0.8344
  989MOL0     H33502   8.582   3.931   4.406 -2.6994 -2.3660  0.0031
  989MOL0     H33503   8.787   3.841   4.056  0.2623  0.1841  1.2081
  989MOL0     H33504   8.943   3.880   4.130 -0.1787  0.4960  1.5151
  989MOL0     H33505   8.880   4.028   3.940 -2.3329  4.4914 -1.2477
  989MOL0     H33506   8.927   4.101   4.093  1.0270  2.5568 -3.7471
  989MOL0     H33507   8.643   4.124   4.107 -3.1900  1.6379 -2.1547
  989MOL0     H33508   8.664   4.041   3.957  2.2134 -0.3683 -2.5715
  989MOL0     H33509   8.621   4.306   3.976  0.3328  0.3662  2.0008
  989MOL0     H33510   8.791   4.317   4.009 -1.8217  2.7386  0.5837
  989MOL0     H33511   8.874   4.208   3.624 -0.5056 -2.2672  0.5164
  989MOL0     H33512   8.888   3.677   4.231 -1.7628 -1.6186 -2.0519
  989MOL0     H33513   8.909   3.458   4.283 -1.6489  2.0516 -1.3156
  989MOL0     H33514   8.881   3.422   4.459 -0.1538 -2.6294  0.0864
  989MOL0     H33515   8.763   3.368   4.339  0.0188  1.5903 -4.0908
  990MOL0     O33516   2.984   3.845   3.440 -0.0475  0.3431  0.4055
  990MOL0     C33517   3.073   3.835   3.521  0.8574 -0.0945  0.0466
  990MOL0     O33518   3.181   3.922   3.529 -0.9505  0.5791  0.3856
  990MOL0     C33519   3.184   4.035   3.454  0.1607  0.1832  0.4759
  990MOL0     C33520   3.233   4.043   3.321  0.2976 -0.1096  0.5590
  990MOL0     C33521   3.249   4.164   3.258 -0.0553 -0.5846  0.6454
  990MOL0     C33522   3.218   4.285   3.319 -0.1908 -0.3243 -0.0333
  990MOL0     O33523   3.242   4.406   3.249  0.6147  0.4213  0.0857
  990MOL0     C33524   3.195   4.536   3.285 -0.4750 -0.0827 -0.8027
  990MOL0     C33525   3.325   4.621   3.324  0.5608  0.1045 -0.2786
  990MOL0     C33526   3.413   4.553   3.435 -0.4622  0.5978 -0.5646
  990MOL0     C33527   3.532   4.635   3.472 -0.2630  0.6529 -0.9544
  990MOL0     C33528   3.608   4.578   3.588  0.5881 -0.0745  0.2194
  990MOL0     C33529   3.747   4.651   3.604 -0.0668  0.8331 -1.0001
  990MOL0     C33530   3.732   4.805   3.585 -0.1958 -0.6034  0.0883
  990MOL0     C33531   3.860   4.884   3.628  0.7987  0.7583 -0.5136
  990MOL0     N33532   3.846   5.017   3.577  0.0095  0.1933  0.3090
  990MOL0     C33533   3.752   5.104   3.626  0.4113 -0.1775 -0.8842
  990MOL0     C33534   3.763   5.218   3.560  0.9621  0.0728 -0.3921
  990MOL0     C33535   3.687   5.342   3.580 -0.3468  0.8105  0.1455
  990MOL0     C33536   3.569   5.378   3.477 -0.1516 -0.6524 -0.1104
  990MOL0     C33537   3.622   5.435   3.340 -0.1714 -0.9471 -0.9099
  990MOL0     C33538   3.629   5.590   3.335  0.3573  0.3318 -0.3119
  990MOL0     O33539   3.667   5.627   3.202 -0.3396 -0.4221  0.0896
  990MOL0     C33540   3.793   5.679   3.184  0.8578  0.9030 -0.9212
  990MOL0     C33541   3.811   5.777   3.085 -0.9891 -0.2532 -0.6974
  990MOL0     C33542   3.945   5.826   3.066  0.5187 -0.0235  0.1928
  990MOL0     C33543   4.055   5.793   3.151  0.3552  0.4850 -0.5871
  990MOL0     C33544   4.194   5.849   3.129 -0.0841  1.5055  0.3003
  990MOL0     O33545   4.288   5.803   3.220 -0.6052 -0.0653  0.5664
  990MOL0     C33546   4.422   5.844   3.196  0.6163 -0.0441 -0.2134
  990MOL0     C33547   4.494   5.912   3.305  0.1072  0.0661 -0.9481
  990MOL0     C33548   4.626   5.948   3.299 -1.0807 -0.2522  0.5874
  990MOL0     C33549   4.698   5.914   3.183  0.6000  0.4893 -0.6166
  990MOL0     O33550   4.830   5.963   3.177 -0.5027 -0.1488  0.2061
  990MOL0     C33551   4.917   5.873   3.099 -0.5108 -0.5628  0.8504
  990MOL0     C33552   5.055   5.938   3.088  0.3645 -0.9058  0.5801
  990MOL0     C33553   5.145   5.847   3.016 -0.8334 -0.3370 -0.7424
  990MOL0     C33554   5.249   5.780   3.112 -0.0955  1.3729  0.0911
  990MOL0     C33555   5.186   5.673   3.209  0.4273 -0.1221 -0.6644
  990MOL0     C33556   5.105   5.554   3.148 -0.3877  0.2727 -0.4434
  990MOL0     C33557   5.012   5.473   3.248  0.3759  0.8210  0.4772
  990MOL0     C33558   4.934   5.365   3.174 -0.4306 -0.2904 -0.5773
  990MOL0    Cl33559   4.814   5.275   3.275 -0.0216 -0.0077  0.3435
  990MOL0     C33560   4.624   5.860   3.074 -0.3898  0.6544 -0.1788
  990MOL0     C33561   4.487   5.821   3.081  0.8836 -0.0739 -0.1067
  990MOL0     O33562   4.208   5.933   3.042 -0.2828 -0.3605 -0.2351
  990MOL0     C33563   4.031   5.681   3.240  0.0306  0.3107  0.3405
  990MOL0     C33564   3.904   5.625   3.251 -0.3539  0.4492  0.0653
  990MOL0     N33565   3.856   5.196   3.457  0.0402  0.7294  0.2798
  990MOL0     N33566   3.895   5.068   3.465 -0.5270 -1.1686 -0.4522
  990MOL0     C33567   3.168   4.279   3.448 -0.4749  0.3944  0.0815
  990MOL0     C33568   3.162   4.158   3.516  0.2029  0.8910  0.1554
  990MOL0     C33569   3.075   3.709   3.603 -0.2683  1.1956 -0.1396
  990MOL0     C33570   3.012   3.597   3.546  0.1629  0.0890 -0.6354
  990MOL0     C33571   3.029   3.474   3.617  1.0244 -0.1291  0.2622
  990MOL0     C33572   3.128   3.452   3.708  0.4284  0.8344 -0.5778
  990MOL0     O33573   3.158   3.328   3.733 -0.2713 -0.1983 -0.5831
  990MOL0     C33574   3.276   3.294   3.804 -0.5593 -0.0541 -0.1783
  990MOL0     C33575   3.396   3.320   3.714  1.1000 -0.9844 -0.1496
  990MOL0     C33576   3.391   3.261   3.568 -0.1630  0.5320 -0.8019
  990MOL0     C33577   3.371   3.110   3.554  0.7353 -0.3734  0.1762
  990MOL0     C33578   3.460   3.037   3.637 -0.5339  0.1921 -0.6648
  990MOL0     C33579   3.534   2.971   3.708 -0.0405  0.4361 -0.7547
  990MOL0     C33580   3.176   3.563   3.778  0.0801  0.3556 -0.9336
  990MOL0     C33581   3.149   3.689   3.729  0.0462  0.2286  0.1608
  990MOL0     C33582   3.186   3.810   3.811 -0.0195 -0.7002  0.0477
  990MOL0     H33583   3.255   3.940   3.294 -2.0698 -1.8029  4.1644
  990MOL0     H33584   3.297   4.163   3.160  4.1915  0.8949  2.4500
  990MOL0     H33585   3.139   4.581   3.203 -0.7927 -0.0236 -0.5552
  990MOL0     H33586   3.124   4.529   3.368 -0.2972  0.8645 -0.5494
  990MOL0     H33587   3.304   4.726   3.349  2.0185 -0.0453  1.8271
  990MOL0     H33588   3.392   4.626   3.237  0.2595 -1.8130 -0.6630
  990MOL0     H33589   3.441   4.452   3.404  1.5236  0.9444 -0.0027
  990MOL0     H33590   3.339   4.552   3.516 -2.5862  3.5078 -2.2538
  990MOL0     H33591   3.592   4.641   3.381  2.1285  0.2845  0.5001
  990MOL0     H33592   3.488   4.729   3.509 -2.0285 -0.4315 -0.1830
  990MOL0     H33593   3.554   4.599   3.680 -1.2204 -4.2726  0.3107
  990MOL0     H33594   3.624   4.472   3.565  1.5033  0.3706 -1.3488
  990MOL0     H33595   3.790   4.643   3.704 -3.6403  0.6164  0.6584
  990MOL0     H33596   3.815   4.610   3.529 -1.1652  1.1146 -2.1831
  990MOL0     H33597   3.649   4.858   3.632 -0.8055  1.5409 -3.0659
  990MOL0     H33598   3.721   4.806   3.476  1.2760 -2.0305 -0.1209
  990MOL0     H33599   3.867   4.875   3.737 -0.4420 -2.5858 -0.5973
  990MOL0     H33600   3.941   4.837   3.571  1.6657  0.3356  0.9951
  990MOL0     H33601   3.686   5.090   3.712  0.3470 -1.1085 -1.0680
  990MOL0     H33602   3.632   5.339   3.674  1.4113  1.8360  1.2669
  990MOL0     H33603   3.736   5.439   3.597 -2.9766  1.7276  3.6328
  990MOL0     H33604   3.514   5.285   3.457  1.3018 -1.4907 -0.3687
  990MOL0     H33605   3.500   5.455   3.512  1.8635  1.7485 -1.1753
  990MOL0     H33606   3.567   5.391   3.257  1.4136 -0.7158 -2.1302
  990MOL0     H33607   3.728   5.408   3.339 -0.1238 -1.0130  1.0812
  990MOL0     H33608   3.700   5.613   3.414 -0.1112  1.5146 -0.2198
  990MOL0     H33609   3.534   5.637   3.360 -0.7227 -0.9633 -1.7320
  990MOL0     H33610   3.722   5.813   3.034 -1.3565  0.2799  0.2960
  990MOL0     H33611   3.960   5.894   2.983  1.7188  1.6985  1.7570
  990MOL0     H33612   4.446   5.917   3.402 -2.1800 -0.4397 -1.9735
  990MOL0     H33613   4.687   5.991   3.378  2.6741 -0.3642 -1.9861
  990MOL0     H33614   4.920   5.782   3.161 -0.0894 -0.6479  0.7092
  990MOL0     H33615   4.877   5.849   3.000 -1.1713 -0.4012  1.0752
  990MOL0     H33616   5.035   6.027   3.027 -3.7472 -1.8054  0.3097
  990MOL0     H33617   5.100   5.975   3.180  2.0144  0.4741 -0.7043
  990MOL0     H33618   5.083   5.775   2.962 -1.9209  2.3778 -3.4134
  990MOL0     H33619   5.206   5.899   2.941 -1.5432  2.0066  0.2156
  990MOL0     H33620   5.292   5.860   3.173 -1.4960  1.1828  1.4102
  990MOL0     H33621   5.327   5.731   3.053 -0.0351  2.8620 -1.1498
  990MOL0     H33622   5.111   5.724   3.269 -1.8898 -1.7200 -2.0449
  990MOL0     H33623   5.260   5.623   3.273 -1.0952 -1.9846 -0.2772
  990MOL0     H33624   5.037   5.605   3.078  0.0513  0.7525 -0.5240
  990MOL0     H33625   5.178   5.485   3.105  0.2232 -1.6157  3.2584
  990MOL0     H33626   4.947   5.545   3.300 -0.2185  0.5176  0.1701
  990MOL0     H33627   5.079   5.426   3.320  0.4515 -2.0294 -1.3115
  990MOL0     H33628   4.873   5.412   3.096 -0.0224 -1.4708 -1.6414
  990MOL0     H33629   5.008   5.298   3.130  2.5606  2.8204 -0.7232
  990MOL0     H33630   4.676   5.839   2.981 -1.7179  2.8411 -1.5108
  990MOL0     H33631   4.438   5.771   2.998  0.4840  0.8825 -0.4575
  990MOL0     H33632   4.100   5.636   3.311 -2.0216 -1.4528  1.3282
  990MOL0     H33633   3.901   5.540   3.318 -1.3599 -1.2401 -2.0268
  990MOL0     H33634   3.145   4.372   3.498 -3.4748 -1.0758  1.7155
  990MOL0     H33635   3.133   4.174   3.619 -1.2292  3.8326 -0.5998
  990MOL0     H33636   2.949   3.601   3.458 -0.7401  1.0167  0.0294
  990MOL0     H33637   2.975   3.391   3.574  2.7796 -1.2945  0.2368
  990MOL0     H33638   3.278   3.188   3.829 -2.7131 -0.0663  0.1334
  990MOL0     H33639   3.274   3.342   3.902  0.3852  0.6057 -0.4653
  990MOL0     H33640   3.487   3.282   3.762  0.3441 -1.6770  0.7771
  990MOL0     H33641   3.407   3.429   3.716  4.3650 -1.2147  0.3767
  990MOL0     H33642   3.489   3.281   3.522  1.7243 -2.7397  1.4170
  990MOL0     H33643   3.308   3.299   3.508 -1.6254 -0.7275  0.3329
  990MOL0     H33644   3.268   3.085   3.582  0.4148  0.3125 -0.3282
  990MOL0     H33645   3.385   3.088   3.448  0.8888 -2.7990  0.6545
  990MOL0     H33646   3.578   2.899   3.774  0.6948  2.6194  1.2565
  990MOL0     H33647   3.232   3.548   3.870  0.5720 -2.0005 -1.5525
  990MOL0     H33648   3.119   3.896   3.804  2.6970  1.8285  2.1058
  990MOL0     H33649   3.212   3.784   3.914  0.5737 -1.5264 -0.3032
  990MOL0     H33650   3.274   3.844   3.756 -0.5351 -1.9256 -1.6179
  991MOL0     O33651   6.314   4.661   7.252 -1.0646 -0.1165 -0.4225
  991MOL0     C33652   6.266   4.617   7.141 -0.9057 -0.7264 -0.7279
  991MOL0     O33653   6.347   4.603   7.022  0.0798  0.1298 -0.3691
  991MOL0     C33654   6.483   4.582   7.038 -0.6272 -0.1852 -0.4839
  991MOL0     C33655   6.565   4.653   6.943  2.1435  1.2921 -0.2038
  991MOL0     C33656   6.701   4.647   6.951  0.1227 -0.1838  0.2981
  991MOL0     C33657   6.770   4.574   7.049 -0.4108  0.6267  0.4029
  991MOL0     O33658   6.907   4.597   7.049  0.3012 -0.3470 -1.1324
  991MOL0     C33659   6.969   4.590   7.175 -0.3840 -0.2417  0.3608
  991MOL0     C33660   7.123   4.590   7.144 -0.1568 -0.4787 -0.3589
  991MOL0     C33661   7.203   4.564   7.268 -0.0501 -0.4082 -0.5329
  991MOL0     C33662   7.361   4.561   7.245  0.4489 -0.1999 -0.2505
  991MOL0     C33663   7.440   4.539   7.373 -0.9478  0.3822  0.1080
  991MOL0     C33664   7.589   4.555   7.340 -0.7540  0.3575  0.1142
  991MOL0     C33665   7.682   4.535   7.461  0.3060 -0.2999 -0.6945
  991MOL0     C33666   7.818   4.582   7.426 -0.2478  0.1845 -0.3542
  991MOL0     N33667   7.889   4.519   7.311 -0.8437 -0.1533  0.2385
  991MOL0     C33668   7.938   4.391   7.312 -0.2565 -0.0235  0.0003
  991MOL0     C33669   8.020   4.372   7.206  1.4228 -0.3602  0.7743
  991MOL0     C33670   8.113   4.247   7.190  0.3223 -0.4077  0.2112
  991MOL0     C33671   8.150   4.168   7.310  0.2989 -0.2216  0.4061
  991MOL0     C33672   8.249   4.047   7.272  0.4698 -0.9745 -0.2070
  991MOL0     C33673   8.275   3.957   7.388 -0.7411  0.3203  0.6797
  991MOL0     O33674   8.328   4.040   7.499 -0.7265  0.1620 -0.0994
  991MOL0     C33675   8.376   3.984   7.615  0.4593 -0.3303 -0.7612
  991MOL0     C33676   8.457   4.063   7.698  0.4609  0.0872  0.5100
  991MOL0     C33677   8.509   4.010   7.818 -0.1460 -0.8195 -0.6266
  991MOL0     C33678   8.484   3.875   7.859  0.1593 -0.7330 -0.2549
  991MOL0     C33679   8.536   3.824   7.990  0.3501 -0.0640 -0.5551
  991MOL0     O33680   8.636   3.891   8.050 -0.0630  1.1239  0.3732
  991MOL0     C33681   8.687   3.813   8.154  0.6185  0.1417 -0.1370
  991MOL0     C33682   8.714   3.681   8.161  0.3765  1.0244 -0.4962
  991MOL0     C33683   8.761   3.610   8.271  0.3780 -0.3070  0.5939
  991MOL0     C33684   8.797   3.685   8.382  0.1595  0.2685  0.3352
  991MOL0     O33685   8.856   3.632   8.491  0.1192  1.2135  0.5472
  991MOL0     C33686   8.890   3.495   8.492 -0.4484  0.3416 -0.6977
  991MOL0     C33687   8.929   3.463   8.631  0.0117 -0.3957  0.1041
  991MOL0     C33688   9.024   3.338   8.644  0.3612  1.2253 -0.2173
  991MOL0     C33689   9.170   3.387   8.603 -0.1553  1.1833  1.1790
  991MOL0     C33690   9.271   3.274   8.642 -0.4649  0.0845 -0.1524
  991MOL0     C33691   9.410   3.325   8.602  0.6043  0.1353 -0.3610
  991MOL0     C33692   9.518   3.221   8.608 -0.6410 -1.5031  0.2546
  991MOL0     C33693   9.506   3.131   8.481 -0.1544  0.7457 -0.1536
  991MOL0    Cl33694   9.645   3.034   8.470 -0.0620  0.6688 -0.2239
  991MOL0     C33695   8.785   3.827   8.373  0.2408  0.1056 -0.2121
  991MOL0     C33696   8.728   3.893   8.264 -0.0373  1.2782 -0.4004
  991MOL0     O33697   8.471   3.728   8.036 -0.1523  0.3893  0.1440
  991MOL0     C33698   8.398   3.802   7.782  0.8861 -0.1667 -0.1178
  991MOL0     C33699   8.346   3.853   7.655 -0.5698  0.4996  0.8576
  991MOL0     N33700   7.999   4.490   7.127 -0.4061  0.3843  0.4568
  991MOL0     N33701   7.916   4.568   7.187 -1.4442 -0.0443  0.3108
  991MOL0     C33702   6.688   4.502   7.145 -1.2069 -0.6216  0.3111
  991MOL0     C33703   6.549   4.508   7.141  0.2605  0.1483 -0.3431
  991MOL0     C33704   6.130   4.583   7.117 -0.0810 -0.9927  0.8110
  991MOL0     C33705   6.093   4.523   6.992 -0.4215 -1.0760  0.7140
  991MOL0     C33706   5.964   4.485   6.966 -0.5137 -0.0932 -0.0482
  991MOL0     C33707   5.862   4.511   7.064 -0.2696 -0.2847  0.5909
  991MOL0     O33708   5.726   4.484   7.035  0.4934  0.1473  0.1611
  991MOL0     C33709   5.685   4.423   6.921 -0.3993  0.8322 -0.5302
  991MOL0     C33710   5.541   4.367   6.930  0.1010 -1.1002  0.8272
  991MOL0     C33711   5.449   4.489   6.935  0.4786 -0.1676  0.8236
  991MOL0     C33712   5.311   4.439   6.972 -0.3003  0.2928  0.6834
  991MOL0     C33713   5.210   4.542   6.956  1.3474 -0.0917  0.4827
  991MOL0     C33714   5.135   4.641   6.942 -0.0150 -1.0489  0.3822
  991MOL0     C33715   5.901   4.558   7.186 -0.2796 -0.8058 -0.0069
  991MOL0     C33716   6.033   4.601   7.212 -0.5549 -0.1369 -0.3862
  991MOL0     C33717   6.049   4.665   7.356  0.0024  1.0006 -0.0147
  991MOL0     H33718   6.524   4.720   6.868 -0.0674  0.7838  0.4755
  991MOL0     H33719   6.760   4.704   6.880 -1.7559 -0.5429 -1.6530
  991MOL0     H33720   6.944   4.679   7.233  5.2395  0.2502  2.5776
  991MOL0     H33721   6.947   4.503   7.239 -0.5860  0.6741  1.5631
  991MOL0     H33722   7.155   4.688   7.108 -0.6087  0.1348  0.8318
  991MOL0     H33723   7.152   4.516   7.070  3.4101 -0.1522  0.5192
  991MOL0     H33724   7.183   4.461   7.299  0.5880 -0.0188  1.2665
  991MOL0     H33725   7.167   4.632   7.345  0.2090 -0.5228 -0.3103
  991MOL0     H33726   7.377   4.485   7.168  0.6066  0.8913 -1.3317
  991MOL0     H33727   7.396   4.659   7.210 -2.6776  1.0602 -0.1949
  991MOL0     H33728   7.399   4.603   7.451  3.2863  1.6146  1.5997
  991MOL0     H33729   7.418   4.438   7.410 -2.1782  0.9955  1.0923
  991MOL0     H33730   7.631   4.489   7.264 -0.5737  3.4106 -2.6114
  991MOL0     H33731   7.611   4.655   7.302  2.3324 -0.7795 -1.4196
  991MOL0     H33732   7.698   4.431   7.492 -0.1447 -1.4780 -4.0246
  991MOL0     H33733   7.635   4.596   7.539 -2.3837 -0.1356 -2.2972
  991MOL0     H33734   7.823   4.688   7.399  0.5542 -0.3908 -2.6777
  991MOL0     H33735   7.892   4.567   7.506 -0.5669  0.9764  0.1063
  991MOL0     H33736   7.950   4.334   7.404  0.6602 -0.3918 -0.3320
  991MOL0     H33737   8.056   4.190   7.117 -0.1603 -0.7923  0.8736
  991MOL0     H33738   8.206   4.294   7.158  0.7175 -1.4234 -0.1730
  991MOL0     H33739   8.182   4.226   7.396 -3.4461  0.8223  1.2862
  991MOL0     H33740   8.056   4.128   7.350 -1.0439  1.9053 -0.5002
  991MOL0     H33741   8.338   4.099   7.236 -0.7351  0.6259 -1.0449
  991MOL0     H33742   8.207   3.990   7.189  0.4439 -0.4191 -0.5787
  991MOL0     H33743   8.334   3.868   7.366 -2.2220 -0.3994 -0.5690
  991MOL0     H33744   8.178   3.910   7.409 -1.8612  0.9617 -2.5203
  991MOL0     H33745   8.469   4.170   7.685  0.3982 -0.0073 -0.3671
  991MOL0     H33746   8.572   4.079   7.873  1.0151 -0.9746 -1.7215
  991MOL0     H33747   8.716   3.619   8.072  2.3746 -2.3759  1.6640
  991MOL0     H33748   8.771   3.503   8.252 -1.3365 -0.2873 -0.7741
  991MOL0     H33749   8.798   3.438   8.471  1.2479 -1.6781 -3.3718
  991MOL0     H33750   8.970   3.477   8.420  0.2328  0.4240  0.0384
  991MOL0     H33751   8.990   3.541   8.678 -1.4498  1.7443 -1.3937
  991MOL0     H33752   8.841   3.451   8.695  0.9764  0.8809  1.7714
  991MOL0     H33753   9.018   3.301   8.747 -0.0238 -3.2012 -1.6123
  991MOL0     H33754   8.995   3.251   8.584  2.3317 -0.8121  1.6150
  991MOL0     H33755   9.200   3.474   8.662  2.3781  0.8273  0.5375
  991MOL0     H33756   9.153   3.417   8.499 -2.8681 -0.8119  0.9386
  991MOL0     H33757   9.245   3.181   8.589 -0.4287 -1.6586  2.6780
  991MOL0     H33758   9.267   3.262   8.750 -0.1941 -0.1712 -0.1698
  991MOL0     H33759   9.399   3.367   8.502  0.1132 -2.9911 -1.7331
  991MOL0     H33760   9.431   3.406   8.673 -0.1611  1.1437 -1.2483
  991MOL0     H33761   9.523   3.170   8.704 -0.4758 -0.6183  0.7237
  991MOL0     H33762   9.618   3.265   8.608 -1.2702  0.1312 -1.6247
  991MOL0     H33763   9.418   3.065   8.478  0.0598  0.4172  0.5432
  991MOL0     H33764   9.480   3.188   8.392 -1.1475  1.6678  0.6912
  991MOL0     H33765   8.822   3.896   8.448  0.2040  0.0973 -0.1862
  991MOL0     H33766   8.740   4.000   8.259  1.7563  1.0710 -1.1857
  991MOL0     H33767   8.352   3.713   7.823 -1.9955  1.3095  0.0809
  991MOL0     H33768   8.285   3.795   7.587  0.6537 -0.2309  0.3398
  991MOL0     H33769   6.726   4.440   7.225 -3.1875  2.8734  4.4060
  991MOL0     H33770   6.489   4.453   7.212  0.2033  1.8272  0.9722
  991MOL0     H33771   6.167   4.505   6.914 -2.0537 -0.5557 -1.0513
  991MOL0     H33772   5.931   4.452   6.868 -0.6792  6.2552 -2.6099
  991MOL0     H33773   5.761   4.343   6.919  1.1128  2.1349  1.1653
  991MOL0     H33774   5.701   4.487   6.834  2.6458  1.1963  0.1557
  991MOL0     H33775   5.525   4.301   7.016  1.4813 -3.2752 -0.4730
  991MOL0     H33776   5.531   4.306   6.840  0.5928  3.3069 -2.5340
  991MOL0     H33777   5.431   4.531   6.836 -1.6824  0.8894  1.5935
  991MOL0     H33778   5.484   4.562   7.009 -0.5028  0.0648  1.0715
  991MOL0     H33779   5.271   4.350   6.923 -1.2143  0.7570  0.5587
  991MOL0     H33780   5.307   4.423   7.080  0.8886  1.2405  0.8831
  991MOL0     H33781   5.085   4.735   6.930  4.1285  1.5929  1.6463
  991MOL0     H33782   5.836   4.560   7.273  0.2077  2.2977  0.4012
  991MOL0     H33783   6.104   4.759   7.351  2.5986 -0.4031  0.2443
  991MOL0     H33784   5.955   4.690   7.406  1.3606  1.1574  2.6305
  991MOL0     H33785   6.104   4.597   7.421  0.4317  2.0719  0.7578
  992MOL0     O33786   6.531   1.950  10.668 -0.5797  0.7738 -0.3777
  992MOL0     C33787   6.495   1.992  10.562  0.0314  0.7101  0.0330
  992MOL0     O33788   6.492   2.117  10.509  0.2993 -0.4399 -0.6144
  992MOL0     C33789   6.555   2.216  10.585 -0.3643  0.1577 -0.1155
  992MOL0     C33790   6.484   2.334  10.614  0.9329  0.3484 -0.4855
  992MOL0     C33791   6.540   2.437  10.690  0.3987 -0.6615  0.5639
  992MOL0     C33792   6.680   2.446  10.710  0.4936 -0.1731 -0.8529
  992MOL0     O33793   6.731   2.558  10.766 -0.2420  0.6035  0.0939
  992MOL0     C33794   6.869   2.581  10.776  0.2018  0.6132 -0.2823
  992MOL0     C33795   6.915   2.620  10.925  0.1726 -0.4633  1.2912
  992MOL0     C33796   6.897   2.489  11.005  0.4694 -0.3239 -0.4271
  992MOL0     C33797   6.966   2.498  11.140 -0.1516  0.0064  0.6079
  992MOL0     C33798   7.113   2.466  11.134  0.0082  0.0714  0.4133
  992MOL0     C33799   7.169   2.469  11.278  0.1911 -0.0056 -0.1799
  992MOL0     C33800   7.316   2.437  11.290 -0.5718 -1.0595 -0.1974
  992MOL0     C33801   7.367   2.463  11.428  0.7787  0.2478 -0.9085
  992MOL0     N33802   7.510   2.429  11.448  0.3670  0.8610 -0.1280
  992MOL0     C33803   7.571   2.307  11.423  0.6563  0.3262 -0.0448
  992MOL0     C33804   7.699   2.326  11.456 -0.1566 -0.2825  0.9220
  992MOL0     C33805   7.808   2.224  11.470 -0.1190 -0.0568 -0.5446
  992MOL0     C33806   7.757   2.106  11.555 -0.2843 -1.2054  0.3087
  992MOL0     C33807   7.863   2.001  11.578 -0.6193  0.1188 -0.5711
  992MOL0     C33808   7.832   1.874  11.665 -0.1451  1.0159 -1.0970
  992MOL0     O33809   7.827   1.919  11.803  0.0626 -0.8729 -0.4968
  992MOL0     C33810   7.830   1.835  11.910  0.3243 -0.1532 -0.8667
  992MOL0     C33811   7.828   1.895  12.032 -0.3202  0.2331 -0.7536
  992MOL0     C33812   7.829   1.819  12.154 -0.4392  0.1511 -0.2686
  992MOL0     C33813   7.846   1.674  12.137 -0.5803 -0.2206 -0.2638
  992MOL0     C33814   7.855   1.589  12.253 -0.0813 -0.0576 -0.4269
  992MOL0     O33815   7.870   1.658  12.367  0.2320  0.1983 -0.1154
  992MOL0     C33816   7.915   1.581  12.474  0.0797  0.1024 -0.4797
  992MOL0     C33817   8.032   1.504  12.473  0.1974  0.7822  0.0454
  992MOL0     C33818   8.080   1.430  12.587 -0.5438  0.2817 -0.6754
  992MOL0     C33819   8.024   1.446  12.711  0.5859 -0.6698 -0.0386
  992MOL0     O33820   8.081   1.374  12.815  0.1048 -0.3538  0.2754
  992MOL0     C33821   8.072   1.433  12.951  0.1405  0.1477 -1.2027
  992MOL0     C33822   8.169   1.547  12.971  0.4628 -0.9953 -0.1155
  992MOL0     C33823   8.312   1.508  12.959 -0.4850 -0.5917  1.2810
  992MOL0     C33824   8.407   1.628  12.943  0.3285  0.2034 -0.8858
  992MOL0     C33825   8.550   1.589  12.975 -0.2887 -0.3306  0.7354
  992MOL0     C33826   8.607   1.472  12.887  0.4813  0.2416 -0.6383
  992MOL0     C33827   8.754   1.464  12.880 -0.6070 -0.4159  0.3153
  992MOL0     C33828   8.848   1.436  13.002  0.0245  0.1317  0.8271
  992MOL0    Cl33829   8.805   1.274  13.065  0.3819  0.3889 -0.1376
  992MOL0     C33830   7.904   1.528  12.719  0.1093 -0.3484 -0.2039
  992MOL0     C33831   7.850   1.588  12.599 -0.2989  0.0488 -1.0061
  992MOL0     O33832   7.850   1.470  12.241 -0.1144 -1.0478  0.3702
  992MOL0     C33833   7.842   1.611  12.008  0.6266  0.2058  0.1140
  992MOL0     C33834   7.831   1.695  11.896 -0.5677  0.1854  0.2320
  992MOL0     N33835   7.715   2.459  11.495  0.2289 -0.4636  0.3298
  992MOL0     N33836   7.593   2.518  11.501 -0.2487 -0.7198 -0.6489
  992MOL0     C33837   6.745   2.321  10.696  0.5604 -0.6984  0.2624
  992MOL0     C33838   6.682   2.215  10.634 -0.7930  0.0739 -0.4048
  992MOL0     C33839   6.461   1.881  10.461  0.0441  0.6396  0.2140
  992MOL0     C33840   6.404   1.763  10.511 -0.0799 -0.4708  0.6652
  992MOL0     C33841   6.355   1.659  10.431  0.0269  0.4987 -0.1906
  992MOL0     C33842   6.348   1.678  10.295  0.2970 -0.7024  0.6261
  992MOL0     O33843   6.271   1.604  10.203  0.0593  0.8684 -0.0882
  992MOL0     C33844   6.214   1.475  10.255 -0.0018 -0.3058 -0.8545
  992MOL0     C33845   6.134   1.402  10.147  0.2955 -0.2092 -0.2518
  992MOL0     C33846   6.214   1.312  10.055  0.3227 -0.1280 -0.0131
  992MOL0     C33847   6.339   1.362   9.988 -0.4377 -0.5226  0.5819
  992MOL0     C33848   6.394   1.265   9.895  0.2840  0.0562 -0.5720
  992MOL0     C33849   6.438   1.187   9.821 -0.3155 -0.1264  0.8802
  992MOL0     C33850   6.398   1.798  10.238  0.3966 -0.5636 -0.2528
  992MOL0     C33851   6.458   1.901  10.321 -0.4847 -0.1059  0.4233
  992MOL0     C33852   6.519   2.021  10.239  0.5264  0.6377 -0.0194
  992MOL0     H33853   6.378   2.344  10.597 -0.0214  0.4737  4.1760
  992MOL0     H33854   6.485   2.530  10.705  1.4404  0.5285 -2.2198
  992MOL0     H33855   6.929   2.494  10.746 -0.6091 -1.8856  4.4324
  992MOL0     H33856   6.895   2.664  10.710  1.2849 -0.7022 -1.5788
  992MOL0     H33857   6.856   2.702  10.966  0.1038  1.0505 -1.5816
  992MOL0     H33858   7.021   2.646  10.919 -0.3367  2.0509  1.8778
  992MOL0     H33859   6.929   2.404  10.946 -0.5942  0.2129 -1.8375
  992MOL0     H33860   6.790   2.485  11.028  0.2110 -3.2661 -1.7246
  992MOL0     H33861   6.953   2.598  11.183  0.3686  0.1246  0.4959
  992MOL0     H33862   6.927   2.432  11.218  1.2570  2.2916  3.4132
  992MOL0     H33863   7.119   2.365  11.091 -3.6448  0.1144 -0.5553
  992MOL0     H33864   7.174   2.533  11.073  0.1712 -1.2096 -0.8935
  992MOL0     H33865   7.132   2.560  11.325 -4.3374 -0.6969 -1.8904
  992MOL0     H33866   7.121   2.390  11.337  0.6653  2.9475  4.6869
  992MOL0     H33867   7.367   2.507  11.223  2.9865 -1.7860  1.5489
  992MOL0     H33868   7.342   2.339  11.250  1.1838 -0.7081  0.0155
  992MOL0     H33869   7.369   2.569  11.452  2.0110 -0.3250  1.9175
  992MOL0     H33870   7.313   2.407  11.505  1.6795  1.1339  0.4064
  992MOL0     H33871   7.529   2.208  11.407 -0.8073  0.0173  4.3690
  992MOL0     H33872   7.845   2.192  11.373 -1.6416  0.0928 -1.2023
  992MOL0     H33873   7.894   2.264  11.526 -1.2065 -2.1316  2.9323
  992MOL0     H33874   7.711   2.151  11.644 -0.7994 -0.8248 -0.1413
  992MOL0     H33875   7.675   2.064  11.497  0.4633 -1.8139 -0.3285
  992MOL0     H33876   7.954   2.050  11.615  0.7502 -0.6704 -2.7394
  992MOL0     H33877   7.896   1.957  11.484 -0.3304  1.4343 -1.1117
  992MOL0     H33878   7.920   1.809  11.664  0.8605  2.1143  2.5861
  992MOL0     H33879   7.741   1.820  11.637  0.3021  0.4152 -1.4158
  992MOL0     H33880   7.817   2.002  12.048  0.1192 -0.1337  2.8571
  992MOL0     H33881   7.821   1.871  12.248  0.5824  1.4012 -0.8370
  992MOL0     H33882   8.092   1.483  12.385  0.4170  1.1637  0.1017
  992MOL0     H33883   8.167   1.368  12.570 -0.4100  0.1261  0.5013
  992MOL0     H33884   7.973   1.469  12.983  1.0782  1.2716  0.6136
  992MOL0     H33885   8.089   1.350  13.021  1.0425  0.1109 -1.4675
  992MOL0     H33886   8.151   1.630  12.902 -0.8891 -1.7000 -0.6279
  992MOL0     H33887   8.151   1.591  13.070  0.8200 -1.2324  0.0598
  992MOL0     H33888   8.337   1.472  13.059 -3.5943  0.8043  2.7100
  992MOL0     H33889   8.320   1.431  12.881  0.7573 -0.4343  1.2452
  992MOL0     H33890   8.383   1.702  13.020  1.9380 -0.6231  0.4836
  992MOL0     H33891   8.393   1.681  12.849  0.4525 -1.0714 -1.6463
  992MOL0     H33892   8.555   1.569  13.082  2.8688 -0.4496  0.6530
  992MOL0     H33893   8.612   1.678  12.965 -1.5966  0.3612 -2.7928
  992MOL0     H33894   8.572   1.375  12.924  2.5075  0.2970  1.6411
  992MOL0     H33895   8.558   1.468  12.788 -2.3165 -0.5661  0.6701
  992MOL0     H33896   8.784   1.554  12.825 -0.0077 -1.4380 -1.0849
  992MOL0     H33897   8.789   1.387  12.810  2.9086  1.7179 -0.5446
  992MOL0     H33898   8.950   1.440  12.964  0.3235  0.4551  1.6334
  992MOL0     H33899   8.828   1.507  13.083 -2.6507  1.7032 -1.0419
  992MOL0     H33900   7.849   1.538  12.812 -1.3542 -0.2650 -1.0504
  992MOL0     H33901   7.753   1.638  12.602 -0.8422 -0.9982  1.7404
  992MOL0     H33902   7.850   1.503  11.995  0.4645  0.4181 -2.3949
  992MOL0     H33903   7.833   1.646  11.799  0.6519  4.5738 -2.2169
  992MOL0     H33904   6.844   2.304  10.737 -1.3568  0.4950  6.5574
  992MOL0     H33905   6.732   2.131  10.587 -2.0506 -0.6238 -0.5320
  992MOL0     H33906   6.386   1.747  10.617 -1.6527 -0.0464  0.4904
  992MOL0     H33907   6.326   1.563  10.473 -3.2201 -0.8603 -4.6991
  992MOL0     H33908   6.155   1.485  10.346  0.6078  0.3635 -0.5164
  992MOL0     H33909   6.294   1.410  10.292  2.3331  3.7556  2.0370
  992MOL0     H33910   6.073   1.476  10.094 -0.2308 -1.8067 -1.9733
  992MOL0     H33911   6.067   1.348  10.215  0.4882  3.3628  3.1657
  992MOL0     H33912   6.142   1.278   9.981 -2.1827 -1.6306  2.9113
  992MOL0     H33913   6.248   1.224  10.110 -1.4327 -1.4991 -1.0209
  992MOL0     H33914   6.319   1.452   9.929 -0.4298  0.1946  1.6439
  992MOL0     H33915   6.419   1.389  10.057  2.1821  0.6610 -2.6604
  992MOL0     H33916   6.469   1.114   9.749  1.1450  0.3504  0.9851
  992MOL0     H33917   6.373   1.810  10.133 -0.1787  1.8130  0.1072
  992MOL0     H33918   6.540   1.989  10.136  1.2906 -0.1955  0.3866
  992MOL0     H33919   6.462   2.115  10.243  1.3638  1.1267  0.9739
  992MOL0     H33920   6.615   2.036  10.290  1.0045  1.0179 -0.9840
  993MOL0     O33921   0.596   1.446   2.072 -0.0111 -0.2697 -0.8162
  993MOL0     C33922   0.523   1.363   2.029 -0.1324 -0.0463 -0.1807
  993MOL0     O33923   0.390   1.386   1.990 -0.1450 -0.3900 -0.2261
  993MOL0     C33924   0.352   1.521   1.992 -0.8049 -0.7181 -0.2313
  993MOL0     C33925   0.336   1.584   1.868  0.1019 -0.4121 -0.2186
  993MOL0     C33926   0.279   1.712   1.877  0.6539  1.4948  0.3340
  993MOL0     C33927   0.224   1.760   2.000 -0.2011 -0.0025  0.2419
  993MOL0     O33928   0.138   1.866   2.003  0.3785  0.0168 -0.0181
  993MOL0     C33929   0.118   1.953   1.887  0.7029  0.3222 -0.4095
  993MOL0     C33930   0.045   2.072   1.948 -0.1982  0.4441  0.0062
  993MOL0     C33931  -0.062   2.116   1.855 -0.0010 -0.1944 -0.0240
  993MOL0     C33932  -0.198   2.035   1.861  0.6269 -0.0020  0.2084
  993MOL0     C33933  -0.301   2.111   1.782 -0.0472  0.2364 -0.7668
  993MOL0     C33934  -0.411   2.034   1.729 -0.5601  0.5558 -0.7158
  993MOL0     C33935  -0.506   2.121   1.655 -0.0138  1.0572  0.5163
  993MOL0     C33936  -0.632   2.144   1.731  0.9748  0.4736  0.5812
  993MOL0     N33937  -0.623   2.246   1.846  0.2953  0.5409  0.0132
  993MOL0     C33938  -0.692   2.243   1.963 -0.4629 -0.0890  0.1543
  993MOL0     C33939  -0.653   2.359   2.026 -0.1030  0.7666  0.0789
  993MOL0     C33940  -0.694   2.392   2.161  0.5300 -0.2300  0.7084
  993MOL0     C33941  -0.825   2.333   2.211 -0.2826 -0.2827 -0.3392
  993MOL0     C33942  -0.838   2.353   2.366  0.4884  0.6523  0.6650
  993MOL0     C33943  -0.966   2.265   2.419 -1.1314  1.4206  0.2305
  993MOL0     O33944  -0.986   2.284   2.559 -0.2857 -0.8753  0.6544
  993MOL0     C33945  -1.108   2.253   2.621 -0.8631  0.1044  0.7965
  993MOL0     C33946  -1.197   2.160   2.572 -0.0682 -0.4017 -0.0620
  993MOL0     C33947  -1.310   2.134   2.655 -0.8005 -1.4526  0.1046
  993MOL0     C33948  -1.326   2.195   2.781  0.3913  0.0361  1.3157
  993MOL0     C33949  -1.454   2.156   2.855  0.7095 -0.5457 -0.8778
  993MOL0     O33950  -1.547   2.084   2.782 -0.3621  0.6158  0.7090
  993MOL0     C33951  -1.676   2.058   2.813 -1.1783 -0.0501 -0.6138
  993MOL0     C33952  -1.739   1.977   2.720  0.6756 -0.1155 -0.4768
  993MOL0     C33953  -1.875   1.950   2.733 -0.0319 -0.4560 -0.7268
  993MOL0     C33954  -1.949   1.996   2.843 -0.6458 -0.1703 -0.4439
  993MOL0     O33955  -2.075   1.947   2.878 -0.7899 -0.5582  0.6321
  993MOL0     C33956  -2.180   2.034   2.841  0.2940  0.5246  0.1252
  993MOL0     C33957  -2.291   2.012   2.942  0.0692  0.0671  0.1296
  993MOL0     C33958  -2.324   1.867   2.969  0.9902 -0.3378 -0.1185
  993MOL0     C33959  -2.447   1.855   3.062 -0.3883  0.5501 -0.1182
  993MOL0     C33960  -2.475   1.708   3.118  0.0589  0.4618  0.1253
  993MOL0     C33961  -2.567   1.617   3.025 -0.0103 -0.2100 -0.0545
  993MOL0     C33962  -2.486   1.526   2.926 -0.3283 -0.9748 -0.4276
  993MOL0     C33963  -2.553   1.529   2.783 -1.2943  0.0402 -0.7575
  993MOL0    Cl33964  -2.713   1.478   2.802 -0.0431 -0.1567 -0.2096
  993MOL0     C33965  -1.875   2.073   2.942 -0.4440  0.3116  0.5826
  993MOL0     C33966  -1.750   2.116   2.925  0.2572  0.4008  0.7649
  993MOL0     O33967  -1.464   2.186   2.976  0.0162 -0.9453  0.7109
  993MOL0     C33968  -1.227   2.288   2.818  0.0689  0.2342 -0.1126
  993MOL0     C33969  -1.115   2.307   2.745 -0.1850 -0.0411 -0.1643
  993MOL0     N33970  -0.552   2.424   1.957  0.2570 -0.3124  0.4625
  993MOL0     N33971  -0.534   2.345   1.853 -0.3634 -0.7777 -0.4854
  993MOL0     C33972   0.252   1.690   2.120 -0.3564  0.4781  0.7741
  993MOL0     C33973   0.313   1.568   2.111 -0.5701 -0.4713  0.4397
  993MOL0     C33974   0.561   1.220   2.033 -0.5671 -0.3211  0.4290
  993MOL0     C33975   0.612   1.154   2.149  0.7606 -1.2937 -0.6474
  993MOL0     C33976   0.651   1.023   2.154 -1.0176  0.3568  0.2971
  993MOL0     C33977   0.645   0.946   2.040 -0.8222 -0.0038  0.5977
  993MOL0     O33978   0.668   0.810   2.029  0.1048 -0.6797  0.0264
  993MOL0     C33979   0.763   0.758   2.123 -0.3051  1.1149  0.2202
  993MOL0     C33980   0.818   0.623   2.075  1.0591 -0.0901 -0.3198
  993MOL0     C33981   0.938   0.584   2.165  0.0020  0.7397  0.1696
  993MOL0     C33982   0.985   0.446   2.122  0.0182 -0.2733  1.2627
  993MOL0     C33983   1.009   0.434   1.979  0.1190  0.2239 -0.5108
  993MOL0     C33984   1.043   0.423   1.860 -0.3886 -0.1355  0.5559
  993MOL0     C33985   0.589   1.005   1.925  0.9203  1.2196 -1.0018
  993MOL0     C33986   0.548   1.138   1.915 -0.2976 -0.7209 -0.6929
  993MOL0     C33987   0.491   1.188   1.779 -0.1607 -0.1315  0.4687
  993MOL0     H33988   0.346   1.546   1.767 -2.3319  2.4829 -1.7203
  993MOL0     H33989   0.260   1.762   1.783 -2.4870  1.4534  0.8540
  993MOL0     H33990   0.213   1.991   1.850 -0.3510 -0.0052 -3.8619
  993MOL0     H33991   0.062   1.897   1.811  2.9978 -3.1143  0.1715
  993MOL0     H33992   0.111   2.159   1.958 -2.4936  2.7891 -3.2129
  993MOL0     H33993   0.000   2.053   2.046 -1.1497 -1.4618 -0.7521
  993MOL0     H33994  -0.039   2.110   1.748 -2.8678 -0.5937 -0.7087
  993MOL0     H33995  -0.075   2.222   1.876 -1.2343 -0.1959 -0.7096
  993MOL0     H33996  -0.176   1.937   1.817  1.4557  1.0880 -1.9805
  993MOL0     H33997  -0.230   2.028   1.965 -0.6954  1.2746 -0.0930
  993MOL0     H33998  -0.348   2.181   1.851  3.0094 -0.7953  2.6364
  993MOL0     H33999  -0.242   2.157   1.701 -0.7487 -2.2543 -2.8293
  993MOL0     H34000  -0.375   1.959   1.658  0.6508 -0.7287  1.1379
  993MOL0     H34001  -0.455   1.984   1.816  3.9729  0.0252  1.5979
  993MOL0     H34002  -0.536   2.083   1.557  0.6750  2.0884 -0.1200
  993MOL0     H34003  -0.469   2.222   1.632 -0.2446  1.3880  1.5288
  993MOL0     H34004  -0.705   2.183   1.659  0.1646  1.1387  1.7290
  993MOL0     H34005  -0.679   2.047   1.755 -0.6664  1.2043  0.4716
  993MOL0     H34006  -0.757   2.167   2.005  1.9793 -1.9321  0.8480
  993MOL0     H34007  -0.609   2.362   2.224  0.6718 -0.1357  0.5624
  993MOL0     H34008  -0.711   2.500   2.167 -0.1646 -0.2794 -0.2112
  993MOL0     H34009  -0.912   2.378   2.163  0.5092  2.1293  0.3853
  993MOL0     H34010  -0.830   2.226   2.189  2.3089 -0.7074  0.7296
  993MOL0     H34011  -0.850   2.456   2.399  1.2607  0.5697  1.2176
  993MOL0     H34012  -0.742   2.343   2.416 -0.2927  2.9170  2.8131
  993MOL0     H34013  -0.933   2.163   2.399 -0.7587  1.2667  1.5733
  993MOL0     H34014  -1.054   2.286   2.357 -0.5417  1.7306 -0.5241
  993MOL0     H34015  -1.178   2.114   2.476  1.1996  0.2700 -0.1586
  993MOL0     H34016  -1.391   2.067   2.628 -2.0602 -1.0224  2.5769
  993MOL0     H34017  -1.687   1.941   2.631  1.3216  0.7160 -0.4576
  993MOL0     H34018  -1.916   1.893   2.650  0.4989 -2.5235  0.3584
  993MOL0     H34019  -2.142   2.136   2.837  3.7702 -0.6416 -0.4036
  993MOL0     H34020  -2.218   2.006   2.742 -2.1751 -0.8840  1.3770
  993MOL0     H34021  -2.260   2.058   3.037 -0.3603  2.4067 -0.7990
  993MOL0     H34022  -2.377   2.074   2.918  1.2366  1.9902  0.6952
  993MOL0     H34023  -2.340   1.810   2.877  0.8381 -1.6931  0.7236
  993MOL0     H34024  -2.244   1.804   3.008  0.0447 -0.9463  0.8982
  993MOL0     H34025  -2.541   1.898   3.025 -3.5770 -1.6436  4.3998
  993MOL0     H34026  -2.423   1.920   3.147  1.5752 -0.8631  0.4550
  993MOL0     H34027  -2.528   1.704   3.214  1.5937 -5.0286  1.0440
  993MOL0     H34028  -2.382   1.657   3.143  1.8351  3.5514  0.2769
  993MOL0     H34029  -2.602   1.538   3.092  0.8581 -0.9392 -0.4314
  993MOL0     H34030  -2.649   1.681   2.992  0.9855  1.3287  0.3535
  993MOL0     H34031  -2.483   1.425   2.968  0.2739 -0.8178 -0.0856
  993MOL0     H34032  -2.391   1.577   2.910 -2.0344  2.7260  0.0561
  993MOL0     H34033  -2.555   1.633   2.750  3.9952  1.1535  1.3449
  993MOL0     H34034  -2.505   1.472   2.702 -2.3077 -0.3502 -1.0989
  993MOL0     H34035  -1.939   2.101   3.025 -0.3155  0.2358  0.7071
  993MOL0     H34036  -1.724   2.189   3.002 -2.5886  2.8771 -0.4550
  993MOL0     H34037  -1.234   2.333   2.916 -0.0143 -0.4692  0.2095
  993MOL0     H34038  -1.050   2.379   2.794 -0.7587 -1.0718  2.2293
  993MOL0     H34039   0.224   1.729   2.218 -1.7655  1.7203 -0.0657
  993MOL0     H34040   0.328   1.505   2.198 -1.2615  0.8296  1.5560
  993MOL0     H34041   0.641   1.227   2.224  2.0200 -1.7023 -0.6999
  993MOL0     H34042   0.706   0.985   2.240  0.7608  0.4568 -0.7393
  993MOL0     H34043   0.726   0.748   2.225 -0.9570 -0.0650 -0.1211
  993MOL0     H34044   0.850   0.823   2.113  0.0759  0.3897 -1.4630
  993MOL0     H34045   0.830   0.638   1.967 -3.7201  0.5387 -0.9568
  993MOL0     H34046   0.735   0.553   2.086  1.2311 -0.6272 -2.1435
  993MOL0     H34047   0.931   0.577   2.274  1.2966  0.5325  0.2543
  993MOL0     H34048   1.016   0.659   2.146 -1.7506  1.8716 -3.3896
  993MOL0     H34049   1.084   0.440   2.167  0.6085 -4.8696 -0.1302
  993MOL0     H34050   0.931   0.359   2.162 -2.4053  0.6931  0.3215
  993MOL0     H34051   1.063   0.417   1.755 -0.7461  3.1735  0.1666
  993MOL0     H34052   0.574   0.922   1.857  0.8073 -0.7986  1.3425
  993MOL0     H34053   0.513   1.293   1.761 -1.8391  0.5978  2.3152
  993MOL0     H34054   0.540   1.127   1.702 -0.7139 -0.5445  0.4312
  993MOL0     H34055   0.383   1.178   1.761  0.1890  1.2581 -3.3199
  994MOL0     O34056   3.836   8.405   9.650 -0.7510 -0.3985 -1.2042
  994MOL0     C34057   3.934   8.426   9.723  0.4817  1.3418 -0.2205
  994MOL0     O34058   4.031   8.514   9.695  0.0930 -0.1295 -0.2147
  994MOL0     C34059   4.005   8.622   9.614  0.4466 -1.0863  0.9385
  994MOL0     C34060   3.879   8.687   9.618 -0.2605 -0.0187  1.2779
  994MOL0     C34061   3.849   8.787   9.520  0.1347  0.7741  0.4328
  994MOL0     C34062   3.948   8.842   9.434  0.3235  0.0618 -0.6716
  994MOL0     O34063   3.932   8.941   9.339  0.5303  0.4655  0.2871
  994MOL0     C34064   3.826   9.031   9.359 -0.2569 -0.1348 -0.2689
  994MOL0     C34065   3.831   9.132   9.249 -0.8091 -0.0887  0.4862
  994MOL0     C34066   3.715   9.227   9.259  0.1922 -0.6650 -0.3607
  994MOL0     C34067   3.749   9.351   9.344 -0.4213 -0.2957 -0.1149
  994MOL0     C34068   3.717   9.484   9.275 -0.1371 -0.9100  0.9420
  994MOL0     C34069   3.840   9.539   9.196 -0.1751 -0.1866 -0.4514
  994MOL0     C34070   3.794   9.676   9.127  0.6846  0.3462  0.4291
  994MOL0     C34071   3.881   9.714   9.000 -0.5501 -0.4476 -0.4234
  994MOL0     N34072   3.866   9.610   8.895 -0.9781 -0.4316  0.0917
  994MOL0     C34073   3.760   9.525   8.865  0.2460  0.6743  0.1662
  994MOL0     C34074   3.811   9.443   8.766  0.4995 -0.3697  0.4326
  994MOL0     C34075   3.711   9.349   8.710  0.6495  0.3720 -0.1103
  994MOL0     C34076   3.720   9.212   8.766  0.2891  0.6002 -0.4079
  994MOL0     C34077   3.654   9.106   8.665 -0.9174 -0.5403 -0.1548
  994MOL0     C34078   3.630   8.967   8.726  0.6229 -0.7763 -0.2443
  994MOL0     O34079   3.716   8.936   8.843 -0.3461  0.2354  0.1831
  994MOL0     C34080   3.675   8.839   8.933 -1.1436  0.3281  0.4723
  994MOL0     C34081   3.564   8.750   8.904 -0.1356 -0.6568  0.2115
  994MOL0     C34082   3.523   8.666   9.004  0.2040  0.4863  0.2617
  994MOL0     C34083   3.584   8.661   9.135  0.1251 -0.4810 -0.1365
  994MOL0     C34084   3.545   8.556   9.239 -0.7098 -0.3554  0.1059
  994MOL0     O34085   3.479   8.452   9.186 -0.2017  0.5421  0.6608
  994MOL0     C34086   3.460   8.339   9.261 -0.0803 -0.0889 -0.0949
  994MOL0     C34087   3.542   8.277   9.352  0.2254 -0.0395 -0.2902
  994MOL0     C34088   3.495   8.170   9.439  0.0418 -1.0930  0.6508
  994MOL0     C34089   3.365   8.124   9.413 -0.4289  0.1173 -0.0253
  994MOL0     O34090   3.301   8.025   9.483  0.0795  0.0502  0.2623
  994MOL0     C34091   3.355   7.988   9.609 -0.1381  0.3203  0.3662
  994MOL0     C34092   3.239   7.931   9.694  1.1156 -0.2913  0.8249
  994MOL0     C34093   3.271   7.918   9.844  0.4060 -0.0154  0.0356
  994MOL0     C34094   3.148   7.944   9.930 -0.2289 -0.4701  0.6025
  994MOL0     C34095   3.154   7.933  10.082  0.2846 -1.1661 -1.0680
  994MOL0     C34096   3.058   8.038  10.146 -1.5935  0.9505  0.1007
  994MOL0     C34097   3.070   8.039  10.302  0.8449 -1.4640  0.1316
  994MOL0     C34098   2.964   8.129  10.370  0.4893  0.8463 -0.1673
  994MOL0    Cl34099   3.038   8.299  10.369  0.1666  0.0612  0.6710
  994MOL0     C34100   3.286   8.179   9.313  0.1783 -0.2058 -0.5470
  994MOL0     C34101   3.332   8.281   9.234  0.3975 -0.1022 -0.1332
  994MOL0     O34102   3.578   8.578   9.356 -0.0982  0.7097  0.0904
  994MOL0     C34103   3.697   8.740   9.154  0.1293 -0.5325 -0.1187
  994MOL0     C34104   3.737   8.824   9.054 -0.0890  0.1718  0.2080
  994MOL0     N34105   3.947   9.465   8.758  0.1788 -0.4552 -0.0162
  994MOL0     N34106   3.974   9.559   8.839  0.3020 -0.2058  0.7587
  994MOL0     C34107   4.069   8.777   9.439 -1.0531 -0.5635  1.0025
  994MOL0     C34108   4.097   8.675   9.526 -0.0054  0.7630 -0.8031
  994MOL0     C34109   3.951   8.338   9.848 -0.1520  0.5846  0.5081
  994MOL0     C34110   3.854   8.352   9.943 -0.1784 -0.5303  0.4228
  994MOL0     C34111   3.868   8.270  10.056  0.2676  0.6186  0.6794
  994MOL0     C34112   3.978   8.185  10.073  0.2856  0.2341 -0.7054
  994MOL0     O34113   3.969   8.111  10.196 -0.5105  0.1135 -0.6759
  994MOL0     C34114   4.048   7.996  10.199  0.7795 -0.1076 -0.3165
  994MOL0     C34115   4.003   7.906  10.312 -1.1208 -0.0525 -0.6413
  994MOL0     C34116   3.857   7.866  10.285 -0.0311 -0.2029  0.4197
  994MOL0     C34117   3.791   7.774  10.389  0.8908  0.1092 -0.0539
  994MOL0     C34118   3.643   7.762  10.367 -0.9452  1.1325 -0.2329
  994MOL0     C34119   3.525   7.738  10.343 -0.5845 -0.2916 -0.9538
  994MOL0     C34120   4.082   8.186   9.976 -0.5352  0.4254 -0.5579
  994MOL0     C34121   4.072   8.254   9.862  0.4699  0.4840 -0.3071
  994MOL0     C34122   4.182   8.256   9.762 -0.2500  0.8418  0.4215
  994MOL0     H34123   3.800   8.674   9.690 -0.6916  1.1819  1.0489
  994MOL0     H34124   3.749   8.829   9.521 -1.2932 -2.2739 -0.5581
  994MOL0     H34125   3.728   8.982   9.358 -0.2411 -0.4334  2.8690
  994MOL0     H34126   3.850   9.091   9.447  1.4671 -0.0783 -0.7372
  994MOL0     H34127   3.830   9.081   9.152  1.4528 -0.9101  0.8182
  994MOL0     H34128   3.928   9.184   9.255  1.2219 -3.2058 -1.9171
  994MOL0     H34129   3.626   9.173   9.293 -1.1025  0.2713 -2.1087
  994MOL0     H34130   3.694   9.260   9.157 -1.5475  1.4974  0.5976
  994MOL0     H34131   3.678   9.333   9.426 -3.0478  0.6564 -2.0507
  994MOL0     H34132   3.850   9.347   9.386 -0.9263 -0.4707  1.1391
  994MOL0     H34133   3.629   9.476   9.211  0.5506 -1.7450  0.0752
  994MOL0     H34134   3.690   9.557   9.352  1.0022 -0.9124  1.3614
  994MOL0     H34135   3.929   9.540   9.259 -0.7462 -3.2796  0.5911
  994MOL0     H34136   3.859   9.471   9.113 -3.5868  0.1089 -1.6457
  994MOL0     H34137   3.788   9.766   9.189 -1.0515  0.4643  0.1402
  994MOL0     H34138   3.690   9.661   9.098  1.1857  2.4563 -3.0193
  994MOL0     H34139   3.838   9.811   8.971 -3.2003 -1.1669  0.8265
  994MOL0     H34140   3.983   9.730   9.037 -1.8547  0.6203  3.1812
  994MOL0     H34141   3.666   9.539   8.917  1.6064  2.4832  2.3303
  994MOL0     H34142   3.609   9.387   8.719 -0.1294 -1.7146  0.5934
  994MOL0     H34143   3.733   9.349   8.602  0.6427  2.1199 -0.1305
  994MOL0     H34144   3.827   9.196   8.782 -0.0437 -1.9250 -0.3792
  994MOL0     H34145   3.664   9.217   8.859  0.2893 -0.6008 -0.3274
  994MOL0     H34146   3.715   9.097   8.574 -1.0679  0.0548 -0.3212
  994MOL0     H34147   3.561   9.150   8.629 -1.2459 -2.7520 -2.2826
  994MOL0     H34148   3.646   8.888   8.652  1.5587  0.0362 -0.9359
  994MOL0     H34149   3.527   8.973   8.760  0.7781  3.1433 -0.0780
  994MOL0     H34150   3.504   8.754   8.813 -0.2891 -1.3827  0.2801
  994MOL0     H34151   3.440   8.601   8.978 -0.4156 -0.1710  3.4448
  994MOL0     H34152   3.634   8.329   9.375 -0.2474  1.3371 -1.3429
  994MOL0     H34153   3.540   8.120   9.524 -1.6979 -0.3782  2.0528
  994MOL0     H34154   3.431   7.910   9.598 -0.4878 -0.2324  1.6675
  994MOL0     H34155   3.403   8.070   9.663 -0.3157 -0.1971  1.3377
  994MOL0     H34156   3.156   8.003   9.689 -0.6807 -1.9969  3.4759
  994MOL0     H34157   3.207   7.836   9.651  1.4051 -0.1520  0.2998
  994MOL0     H34158   3.326   7.827   9.869 -0.7083 -0.7528 -0.1141
  994MOL0     H34159   3.327   8.011   9.861 -1.5230  1.5005 -1.3001
  994MOL0     H34160   3.076   7.873   9.888  0.6339 -2.1043  1.7835
  994MOL0     H34161   3.123   8.049   9.913  0.6393  0.4777  4.3038
  994MOL0     H34162   3.250   7.957  10.129 -1.1325  3.2653  0.0148
  994MOL0     H34163   3.115   7.835  10.112 -2.0651 -0.3631 -1.3030
  994MOL0     H34164   3.093   8.135  10.108 -0.3805  0.1372 -0.9689
  994MOL0     H34165   2.954   8.026  10.114 -1.4390  1.2407 -0.5235
  994MOL0     H34166   3.161   8.091  10.335 -1.7317  2.3541  1.8426
  994MOL0     H34167   3.083   7.940  10.348  2.3583 -1.5800 -0.4703
  994MOL0     H34168   2.864   8.124  10.327  0.4705 -3.7293 -0.1304
  994MOL0     H34169   2.958   8.102  10.476 -2.5513  0.8826 -0.2459
  994MOL0     H34170   3.186   8.141   9.300  0.0388 -0.3628  0.7822
  994MOL0     H34171   3.258   8.321   9.166  2.5870  0.9106 -2.0190
  994MOL0     H34172   3.757   8.720   9.242 -2.6844 -0.5070  1.9594
  994MOL0     H34173   3.822   8.888   9.076 -1.5468  2.2610  0.0140
  994MOL0     H34174   4.137   8.815   9.364 -1.2288 -1.0857  0.5771
  994MOL0     H34175   4.197   8.636   9.523  0.7373  2.5691 -1.0796
  994MOL0     H34176   3.763   8.408   9.923 -0.0040  0.2958  1.8021
  994MOL0     H34177   3.796   8.266  10.137 -0.5544  0.2289 -0.0547
  994MOL0     H34178   4.152   8.027  10.209  0.0668  2.6410 -0.5093
  994MOL0     H34179   4.045   7.945  10.102  1.7866  1.1328 -1.0254
  994MOL0     H34180   4.009   7.960  10.407 -1.9498 -1.5891  0.3153
  994MOL0     H34181   4.052   7.809  10.322 -1.8864 -0.3633  0.2454
  994MOL0     H34182   3.856   7.816  10.189  0.2222 -0.6336  0.6371
  994MOL0     H34183   3.799   7.958  10.273  1.1870  0.1939 -3.8131
  994MOL0     H34184   3.821   7.668  10.389 -3.7594 -1.4679 -1.6048
  994MOL0     H34185   3.788   7.828  10.484 -2.6914 -1.1593  0.7241
  994MOL0     H34186   3.428   7.703  10.313  0.0535  0.1132 -3.7699
  994MOL0     H34187   4.174   8.130   9.988 -0.0983  1.4452  1.1527
  994MOL0     H34188   4.275   8.216   9.802 -0.1660  1.6065  1.0007
  994MOL0     H34189   4.158   8.191   9.677  2.0688  0.5178 -0.0480
  994MOL0     H34190   4.214   8.356   9.734 -1.0854  1.3214  1.1499
  995MOL0     O34191   3.664   5.686  10.509 -0.1343 -0.5774  0.4353
  995MOL0     C34192   3.674   5.583  10.565 -0.3363  0.5128 -0.6260
  995MOL0     O34193   3.595   5.473  10.541  0.1187  0.5102 -0.6864
  995MOL0     C34194   3.519   5.477  10.422  0.0483 -0.8304  0.2341
  995MOL0     C34195   3.510   5.371  10.333 -0.9734  0.1286 -0.8280
  995MOL0     C34196   3.431   5.384  10.219  1.2740  0.4817 -0.2270
  995MOL0     C34197   3.342   5.489  10.195 -0.0524  0.7862  0.2775
  995MOL0     O34198   3.256   5.486  10.092  0.2497  0.0001  0.1725
  995MOL0     C34199   3.128   5.544  10.099  0.9490  0.1655 -0.3655
  995MOL0     C34200   3.028   5.507  10.205  0.7671  0.0804  0.2634
  995MOL0     C34201   2.897   5.584  10.205 -0.0343 -0.1752 -0.3097
  995MOL0     C34202   2.772   5.497  10.247  0.1468 -0.1012 -0.1972
  995MOL0     C34203   2.643   5.577  10.257 -0.2585  0.6848  0.1269
  995MOL0     C34204   2.513   5.503  10.303 -0.5960 -0.2553  0.4520
  995MOL0     C34205   2.504   5.489  10.456  0.5418  0.4789 -0.0376
  995MOL0     C34206   2.389   5.406  10.510 -0.1535 -0.4616 -0.5537
  995MOL0     N34207   2.400   5.259  10.517  0.9404  0.6945  0.5657
  995MOL0     C34208   2.332   5.173  10.604  0.1828  0.9865 -0.1519
  995MOL0     C34209   2.392   5.054  10.585 -1.0309 -0.3108 -0.6704
  995MOL0     C34210   2.351   4.921  10.629 -0.6174  0.0010 -0.5554
  995MOL0     C34211   2.227   4.868  10.564  0.9300  0.8682  0.4180
  995MOL0     C34212   2.096   4.919  10.632  0.3390  0.1161 -0.0136
  995MOL0     C34213   1.984   4.873  10.542  0.5837  0.2965 -0.3674
  995MOL0     O34214   1.844   4.891  10.589 -0.1121 -0.1745 -0.2533
  995MOL0     C34215   1.796   4.816  10.696 -0.0367 -1.1619  0.8286
  995MOL0     C34216   1.668   4.844  10.746  1.5449 -0.7399  0.0356
  995MOL0     C34217   1.634   4.770  10.868  0.8334 -0.5775 -0.1613
  995MOL0     C34218   1.711   4.667  10.923  0.0469 -0.3329  0.6846
  995MOL0     C34219   1.662   4.596  11.038 -1.2529 -0.1057 -0.7593
  995MOL0     O34220   1.700   4.469  11.059  0.4930  0.4193  0.4641
  995MOL0     C34221   1.684   4.411  11.184 -0.1012 -0.0715 -0.1474
  995MOL0     C34222   1.692   4.463  11.312  0.6951 -1.0410  1.0650
  995MOL0     C34223   1.650   4.390  11.424  0.6564 -0.4662  0.2404
  995MOL0     C34224   1.610   4.261  11.425  0.5082 -0.6456  0.1190
  995MOL0     O34225   1.580   4.196  11.544  0.4043  0.0797 -0.4288
  995MOL0     C34226   1.536   4.057  11.536  0.7843 -0.5645  0.0948
  995MOL0     C34227   1.491   4.024  11.679  0.2589  0.2943  0.6084
  995MOL0     C34228   1.612   4.017  11.772 -0.7281  0.7261  0.1424
  995MOL0     C34229   1.587   3.943  11.905  0.6712 -0.1303 -0.3444
  995MOL0     C34230   1.721   3.889  11.966  0.2666 -0.0938 -0.2411
  995MOL0     C34231   1.828   3.994  12.009 -0.2858  0.5884 -0.1865
  995MOL0     C34232   1.955   3.918  12.061 -0.2940 -0.3783  0.5500
  995MOL0     C34233   2.084   4.002  12.089  0.2064  0.1078  0.0983
  995MOL0    Cl34234   2.076   4.093  12.245  0.0643  0.0013  0.8279
  995MOL0     C34235   1.612   4.203  11.296 -0.0551  0.1024 -0.2210
  995MOL0     C34236   1.647   4.276  11.175 -0.1497  0.2656 -0.7065
  995MOL0     O34237   1.597   4.662  11.112 -0.0545  0.8111  0.3098
  995MOL0     C34238   1.831   4.629  10.862 -0.3946 -0.3028  0.9897
  995MOL0     C34239   1.873   4.709  10.749  0.5756 -0.6866 -0.0365
  995MOL0     N34240   2.485   5.068  10.488 -0.5335 -0.2232  0.0151
  995MOL0     N34241   2.491   5.188  10.444  0.1971  0.3156 -0.7466
  995MOL0     C34242   3.341   5.590  10.292 -0.6696 -0.1586  0.3302
  995MOL0     C34243   3.436   5.591  10.393 -0.2621  0.2710  0.0699
  995MOL0     C34244   3.749   5.585  10.693  0.5124  0.4805 -0.1214
  995MOL0     C34245   3.688   5.532  10.802  0.2750  0.0798 -0.9270
  995MOL0     C34246   3.760   5.534  10.920 -0.8465 -0.2850  0.4828
  995MOL0     C34247   3.884   5.588  10.935 -0.3609 -0.3309  0.5176
  995MOL0     O34248   3.949   5.588  11.056 -0.3067  0.3025 -0.4361
  995MOL0     C34249   3.869   5.563  11.179  0.1573 -1.5188 -0.2606
  995MOL0     C34250   3.969   5.603  11.300 -0.7886  0.8681 -0.0147
  995MOL0     C34251   4.109   5.510  11.305  0.7738  0.0365  0.6145
  995MOL0     C34252   4.084   5.395  11.388  0.1104 -0.4329  0.2585
  995MOL0     C34253   4.080   5.440  11.525 -0.4082  0.7909 -0.7002
  995MOL0     C34254   4.039   5.488  11.629 -1.0398  0.3319  0.3417
  995MOL0     C34255   3.947   5.641  10.822  0.1884 -0.7801  0.1564
  995MOL0     C34256   3.878   5.639  10.697 -0.2410  0.5832  1.0117
  995MOL0     C34257   3.958   5.691  10.582  0.1497  0.5780  0.6558
  995MOL0     H34258   3.586   5.299  10.357 -0.1279  1.8014  2.0023
  995MOL0     H34259   3.435   5.309  10.141 -0.4355 -1.4442  1.4272
  995MOL0     H34260   3.140   5.652  10.115 -2.7409  0.6122  0.1820
  995MOL0     H34261   3.071   5.523  10.008 -0.1221 -0.8327  0.5042
  995MOL0     H34262   3.080   5.514  10.301  0.0044 -4.1437  1.2210
  995MOL0     H34263   3.010   5.400  10.188  0.6577  0.2489 -0.7676
  995MOL0     H34264   2.865   5.630  10.112 -1.8380 -0.6107  0.0564
  995MOL0     H34265   2.896   5.663  10.281  0.9447  0.5927 -1.0725
  995MOL0     H34266   2.746   5.431  10.164 -0.6508  0.5112 -0.4468
  995MOL0     H34267   2.791   5.437  10.336  0.6637 -1.5248 -1.2231
  995MOL0     H34268   2.661   5.648  10.338  0.8981 -2.1233  2.5236
  995MOL0     H34269   2.628   5.630  10.162  1.7550  0.6890 -0.2375
  995MOL0     H34270   2.429   5.551  10.253  0.9788  0.9205 -1.1993
  995MOL0     H34271   2.531   5.402  10.263 -0.6091  0.0202 -0.2627
  995MOL0     H34272   2.491   5.594  10.487  5.1615  0.7874  1.6773
  995MOL0     H34273   2.600   5.451  10.493  0.2972 -0.1465 -0.0414
  995MOL0     H34274   2.370   5.446  10.610 -2.3336 -0.2980 -0.9739
  995MOL0     H34275   2.302   5.438  10.451  0.2239  3.3992  0.7100
  995MOL0     H34276   2.238   5.185  10.658 -0.3636 -0.0157 -0.8600
  995MOL0     H34277   2.432   4.850  10.614 -0.7869 -0.2087 -0.4780
  995MOL0     H34278   2.332   4.921  10.736  1.4554 -1.0277 -0.1332
  995MOL0     H34279   2.235   4.892  10.458  0.2656  1.0862  0.4179
  995MOL0     H34280   2.226   4.759  10.573  1.2881  0.3578 -3.8335
  995MOL0     H34281   2.098   5.028  10.641  0.6177 -0.0473  2.6430
  995MOL0     H34282   2.091   4.887  10.736  4.5678  2.6704  1.2332
  995MOL0     H34283   1.997   4.767  10.517 -0.1736  0.5621 -2.0474
  995MOL0     H34284   2.001   4.934  10.452  1.3104  0.9339  0.1898
  995MOL0     H34285   1.603   4.925  10.714 -0.5711 -0.7634  3.6516
  995MOL0     H34286   1.540   4.793  10.918  1.1960 -2.4657  1.5124
  995MOL0     H34287   1.716   4.568  11.326 -2.2843  0.0562 -1.2349
  995MOL0     H34288   1.656   4.438  11.522  2.2971  0.9900 -0.5154
  995MOL0     H34289   1.458   4.045  11.461  2.0998  0.7405 -1.5554
  995MOL0     H34290   1.623   3.995  11.512  0.1595 -1.3610 -0.1329
  995MOL0     H34291   1.416   4.097  11.709 -1.9231 -0.8314 -1.7378
  995MOL0     H34292   1.435   3.930  11.679 -2.8386  2.0049  0.1179
  995MOL0     H34293   1.688   3.960  11.718  1.1313  1.1286  2.1898
  995MOL0     H34294   1.642   4.121  11.787 -0.7105  0.9140 -1.0966
  995MOL0     H34295   1.524   3.855  11.889  1.3001 -0.9590  1.4030
  995MOL0     H34296   1.532   3.999  11.981  0.2871 -1.8381  0.6999
  995MOL0     H34297   1.763   3.813  11.899 -1.0332 -0.4313 -0.7143
  995MOL0     H34298   1.681   3.840  12.055  2.8287 -2.3305 -0.2165
  995MOL0     H34299   1.859   4.059  11.927  1.2494 -0.1380 -0.2145
  995MOL0     H34300   1.784   4.053  12.091  2.3482  0.8580  1.1648
  995MOL0     H34301   1.988   3.859  11.975  3.8152  1.2729  0.7842
  995MOL0     H34302   1.919   3.859  12.145 -5.1747  2.0190  0.5264
  995MOL0     H34303   2.163   3.926  12.093 -0.2706 -0.6555 -2.6486
  995MOL0     H34304   2.106   4.067  12.004 -2.0277 -1.1197 -1.5318
  995MOL0     H34305   1.594   4.096  11.287  0.8976 -0.0421 -0.4687
  995MOL0     H34306   1.657   4.230  11.076  0.5115 -0.7918 -0.1744
  995MOL0     H34307   1.898   4.548  10.891  0.8429  0.6322  0.8350
  995MOL0     H34308   1.968   4.670  10.713  0.0433  0.4297 -2.8475
  995MOL0     H34309   3.275   5.675  10.276 -2.2529 -1.1727  1.1864
  995MOL0     H34310   3.418   5.662  10.473 -3.0860 -0.3433  0.1015
  995MOL0     H34311   3.591   5.486  10.810  0.7594 -0.6323  1.7517
  995MOL0     H34312   3.714   5.482  11.004  1.8808 -3.7758  0.0421
  995MOL0     H34313   3.849   5.456  11.180  3.1371 -2.1621 -0.5104
  995MOL0     H34314   3.788   5.634  11.195  0.9275 -0.2908 -1.5920
  995MOL0     H34315   3.935   5.603  11.405 -0.5380 -1.9538  0.1447
  995MOL0     H34316   3.989   5.710  11.290 -3.1649  1.5620  1.5879
  995MOL0     H34317   4.182   5.575  11.355 -0.3890 -0.0480  2.5276
  995MOL0     H34318   4.133   5.478  11.203 -0.2820 -0.8014  0.6105
  995MOL0     H34319   3.989   5.352  11.355 -0.2153  0.4917 -0.0351
  995MOL0     H34320   4.168   5.327  11.372  1.1007  1.2785 -2.5854
  995MOL0     H34321   4.002   5.534  11.719 -0.4257  0.5098  0.5064
  995MOL0     H34322   4.048   5.681  10.824 -0.4631  1.2396 -2.1562
  995MOL0     H34323   4.057   5.723  10.618  0.9788 -0.5780 -0.5158
  995MOL0     H34324   3.972   5.615  10.505 -1.4513  0.1204  0.7835
  995MOL0     H34325   3.911   5.781  10.540  1.4170  0.0566 -2.0703
  996MOL0     O34326   8.101   9.076   9.422 -0.4227  0.5072 -0.3072
  996MOL0     C34327   8.133   8.970   9.479 -0.1247  0.7415 -0.1334
  996MOL0     O34328   8.170   8.964   9.612  0.1429 -0.6500 -0.3208
  996MOL0     C34329   8.130   9.074   9.686  0.0061  1.2258 -0.1289
  996MOL0     C34330   8.217   9.181   9.688 -0.2876  0.3065 -0.6267
  996MOL0     C34331   8.208   9.283   9.787 -0.6453  0.9049  0.1603
  996MOL0     C34332   8.094   9.280   9.872 -0.4205  0.9402  0.0538
  996MOL0     O34333   8.061   9.374   9.974  0.1749  0.2000 -0.2831
  996MOL0     C34334   8.174   9.445  10.028  0.1221 -0.3870 -0.3223
  996MOL0     C34335   8.118   9.555  10.112 -0.0412  0.0627 -0.2368
  996MOL0     C34336   8.044   9.668  10.028  0.4989 -0.1504  0.4682
  996MOL0     C34337   8.141   9.783  10.009  0.3707  0.0148  0.0989
  996MOL0     C34338   8.078   9.919   9.967 -0.6805 -0.3261 -0.0430
  996MOL0     C34339   7.976   9.890   9.855 -0.2377  0.5261  0.5646
  996MOL0     C34340   7.921  10.016   9.787 -0.5594  0.4774  0.6221
  996MOL0     C34341   8.008  10.052   9.671  0.8278  0.0937 -0.4916
  996MOL0     N34342   8.004  10.197   9.639 -0.0249 -1.1054 -0.6198
  996MOL0     C34343   8.111  10.284   9.640 -0.5563  1.2359  0.3457
  996MOL0     C34344   8.058  10.408   9.613 -0.6246  0.2481 -0.8094
  996MOL0     C34345   8.129  10.522   9.555 -0.2388 -0.7778 -0.0823
  996MOL0     C34346   8.063  10.592   9.437  0.2788 -0.4670  0.6702
  996MOL0     C34347   8.145  10.702   9.384 -0.5642  0.9450  0.4827
  996MOL0     C34348   8.114  10.738   9.241  0.1677 -0.1335 -0.2887
  996MOL0     O34349   8.121  10.619   9.158 -0.0632  0.2188 -0.1806
  996MOL0     C34350   8.241  10.585   9.095  0.5747 -0.8460  0.2101
  996MOL0     C34351   8.368  10.633   9.117 -0.4577  0.7815  1.5472
  996MOL0     C34352   8.480  10.590   9.040  0.9141 -0.2173 -0.0512
  996MOL0     C34353   8.464  10.505   8.931  0.3639 -0.4714  0.8678
  996MOL0     C34354   8.577  10.469   8.841  0.8684  0.4201 -0.0978
  996MOL0     O34355   8.544  10.399   8.725  0.2166  0.2892  1.1230
  996MOL0     C34356   8.638  10.361   8.634  0.3188  0.4782 -0.2541
  996MOL0     C34357   8.694  10.229   8.637 -0.5119 -0.3604 -0.1027
  996MOL0     C34358   8.792  10.185   8.539  0.3956 -0.8283 -0.4825
  996MOL0     C34359   8.845  10.272   8.448  0.2321 -0.3120  0.6636
  996MOL0     O34360   8.943  10.238   8.352  0.1407  0.7726  0.0892
  996MOL0     C34361   8.992  10.100   8.340 -0.1473 -0.4520  0.3404
  996MOL0     C34362   9.100  10.089   8.243 -0.3132 -0.2603 -0.2632
  996MOL0     C34363   9.221  10.183   8.246  0.4209 -0.1311 -0.0831
  996MOL0     C34364   9.288  10.178   8.380 -0.0598  1.0324  1.5087
  996MOL0     C34365   9.425  10.232   8.388 -0.0602 -0.0255  0.0870
  996MOL0     C34366   9.530  10.142   8.329  0.6117  0.5147  0.2045
  996MOL0     C34367   9.658  10.220   8.291 -0.7974  0.8568  0.0078
  996MOL0     C34368   9.769  10.134   8.225 -0.6114  0.0875 -0.0686
  996MOL0    Cl34369   9.744  10.099   8.061  0.2494 -0.0345 -0.0728
  996MOL0     C34370   8.784  10.398   8.438 -0.3767  0.5541  0.6186
  996MOL0     C34371   8.689  10.444   8.531  0.7486 -0.4515  0.2574
  996MOL0     O34372   8.686  10.518   8.869  0.1225  0.4268 -0.0881
  996MOL0     C34373   8.338  10.452   8.916 -0.5615 -0.0931 -0.4025
  996MOL0     C34374   8.231  10.490   8.992  1.0533  0.5411 -0.0765
  996MOL0     N34375   7.919  10.396   9.613  0.1574  0.5837 -0.5901
  996MOL0     N34376   7.886  10.264   9.626 -1.1134  0.2859  0.8563
  996MOL0     C34377   8.008   9.165   9.863  0.8203 -0.8665 -0.2953
  996MOL0     C34378   8.021   9.067   9.764 -0.2141  0.2908 -0.4795
  996MOL0     C34379   8.142   8.846   9.400  0.8715 -0.9168 -0.7680
  996MOL0     C34380   8.208   8.735   9.449 -1.5632 -0.4554 -0.0001
  996MOL0     C34381   8.210   8.610   9.377 -0.5919  0.1805 -0.0410
  996MOL0     C34382   8.151   8.605   9.249  0.5155 -0.7592  0.8402
  996MOL0     O34383   8.176   8.503   9.169  0.0811  0.7580  0.0717
  996MOL0     C34384   8.168   8.378   9.235 -0.0390 -0.2608  0.4775
  996MOL0     C34385   8.038   8.343   9.307 -0.7784  0.0681  0.3362
  996MOL0     C34386   7.982   8.195   9.315 -0.4847  1.1409  0.6124
  996MOL0     C34387   7.840   8.188   9.284  0.3342  0.1929 -0.4775
  996MOL0     C34388   7.763   8.279   9.364 -0.2635 -0.8421 -0.3883
  996MOL0     C34389   7.698   8.349   9.434 -0.8174  0.1315  1.0002
  996MOL0     C34390   8.088   8.712   9.200  0.8352 -0.3391 -0.2896
  996MOL0     C34391   8.079   8.834   9.272  0.8913  0.3778 -0.0808
  996MOL0     C34392   7.995   8.940   9.209 -0.2563 -0.5993  0.2804
  996MOL0     H34393   8.307   9.193   9.629 -0.4558  3.3360 -0.4140
  996MOL0     H34394   8.282   9.360   9.804 -0.4350  1.0875 -1.4394
  996MOL0     H34395   8.242   9.380  10.083  0.5099 -0.3198 -0.7169
  996MOL0     H34396   8.236   9.491   9.950  0.2532  2.8899  1.5483
  996MOL0     H34397   8.199   9.601  10.169  0.7419 -1.0669 -0.4011
  996MOL0     H34398   8.045   9.507  10.178  0.6021 -0.2855  0.2357
  996MOL0     H34399   7.958   9.704  10.086 -0.3657  0.4547 -1.1171
  996MOL0     H34400   8.014   9.626   9.931 -2.9852  1.3402  0.7562
  996MOL0     H34401   8.196   9.808  10.100 -0.5669 -0.1455  0.7282
  996MOL0     H34402   8.215   9.754   9.934 -2.0062 -2.0717 -1.6135
  996MOL0     H34403   8.030   9.977  10.046  1.3243 -2.2292  2.7735
  996MOL0     H34404   8.161   9.981   9.930 -1.3303 -0.2148 -1.3779
  996MOL0     H34405   8.021   9.822   9.782 -1.2800  1.2873 -0.8206
  996MOL0     H34406   7.891   9.843   9.905 -1.7751  0.6429 -1.8002
  996MOL0     H34407   7.926  10.093   9.864 -2.0614  1.6136 -0.3764
  996MOL0     H34408   7.819   9.994   9.756 -0.0430 -1.8348  0.3799
  996MOL0     H34409   8.110  10.019   9.693 -0.1801 -0.7889  3.8190
  996MOL0     H34410   7.985  10.005   9.575  1.9516 -1.9277  0.1612
  996MOL0     H34411   8.212  10.247   9.654 -1.7427 -3.3268 -1.1778
  996MOL0     H34412   8.131  10.598   9.634  0.3267 -0.1026 -0.7215
  996MOL0     H34413   8.235  10.500   9.536  0.2741  1.9272 -0.7795
  996MOL0     H34414   8.038  10.525   9.354 -2.2357  2.6280 -1.2774
  996MOL0     H34415   7.965  10.629   9.466  0.5547  1.4507 -0.7205
  996MOL0     H34416   8.254  10.693   9.394 -0.4925  0.6344 -0.4310
  996MOL0     H34417   8.118  10.786   9.448 -1.0118  0.6258  0.7138
  996MOL0     H34418   8.179  10.816   9.200 -1.0439  0.1240 -1.8102
  996MOL0     H34419   8.012  10.776   9.228 -0.7360 -2.5772 -0.8832
  996MOL0     H34420   8.382  10.703   9.199 -2.6684  1.5723  1.3193
  996MOL0     H34421   8.579  10.632   9.055  0.3110  1.2803 -0.0907
  996MOL0     H34422   8.660  10.159   8.713  0.0002 -1.2705 -0.7061
  996MOL0     H34423   8.816  10.081   8.555  0.5403 -0.7974 -0.4984
  996MOL0     H34424   9.018  10.072   8.442  0.8794  2.8294  1.0853
  996MOL0     H34425   8.916  10.028   8.308 -1.5857  0.3581  1.7701
  996MOL0     H34426   9.149   9.991   8.243  0.2146 -0.0178 -1.3337
  996MOL0     H34427   9.054  10.094   8.143  1.1010 -2.8237 -1.1455
  996MOL0     H34428   9.297  10.138   8.181  1.4378  0.2952  0.7767
  996MOL0     H34429   9.191  10.283   8.212 -0.2161 -0.5518 -0.7963
  996MOL0     H34430   9.297  10.072   8.406  4.0975  0.7769 -0.1419
  996MOL0     H34431   9.243  10.237   8.460  0.6422  2.6472  0.7469
  996MOL0     H34432   9.445  10.263   8.491  1.0873  0.7929 -0.3661
  996MOL0     H34433   9.431  10.328   8.336  0.9557  1.1847  2.2853
  996MOL0     H34434   9.557  10.072   8.409 -0.5853 -0.0832  0.1144
  996MOL0     H34435   9.502  10.082   8.241 -0.0452  0.4046  0.4812
  996MOL0     H34436   9.699  10.274   8.376  1.8199  1.4101 -1.4701
  996MOL0     H34437   9.638  10.305   8.224  0.8353  2.8370  1.8648
  996MOL0     H34438   9.861  10.187   8.251 -1.5022  0.2971  3.0100
  996MOL0     H34439   9.776  10.036   8.274  0.2981  0.1728 -0.0096
  996MOL0     H34440   8.811  10.469   8.361 -0.2087 -0.2966 -0.1197
  996MOL0     H34441   8.655  10.547   8.523  2.6779  0.1538 -0.6687
  996MOL0     H34442   8.329  10.369   8.847  2.0764 -3.2783  2.6822
  996MOL0     H34443   8.137  10.437   8.991  0.6329  1.1701  1.7627
  996MOL0     H34444   7.921   9.161   9.927  0.9760  0.5879  0.0464
  996MOL0     H34445   7.953   8.982   9.759 -1.2345  1.0619 -0.1157
  996MOL0     H34446   8.257   8.751   9.544  1.6341  4.5858 -2.0637
  996MOL0     H34447   8.273   8.535   9.424 -2.6048 -1.2260  0.5715
  996MOL0     H34448   8.249   8.349   9.302 -0.3243 -2.9186 -0.2355
  996MOL0     H34449   8.177   8.304   9.155  1.4477  1.1341 -0.7239
  996MOL0     H34450   7.969   8.406   9.251  1.5827  3.8389  1.2895
  996MOL0     H34451   8.040   8.386   9.408 -0.4704  2.8960 -0.7936
  996MOL0     H34452   8.012   8.157   9.413  0.2047  0.3259  0.0906
  996MOL0     H34453   8.036   8.138   9.240  1.4022  0.7953  2.1515
  996MOL0     H34454   7.811   8.194   9.179 -3.0134  0.2510  0.3399
  996MOL0     H34455   7.813   8.087   9.318  2.5108  0.0605  1.0635
  996MOL0     H34456   7.641   8.431   9.473 -1.6714  1.1423 -2.0684
  996MOL0     H34457   8.040   8.707   9.103  0.0981  0.2795  0.0368
  996MOL0     H34458   7.918   8.893   9.148  0.6571 -3.5888  1.2278
  996MOL0     H34459   7.938   9.005   9.276 -0.4285  0.2799 -0.6837
  996MOL0     H34460   8.066   8.993   9.144 -0.2790 -0.6876  0.1836
  997MOL0     O34461   5.534   2.337  11.313  0.2089  0.0048 -0.4541
  997MOL0     C34462   5.573   2.352  11.199 -0.1821 -0.5957  0.4127
  997MOL0     O34463   5.689   2.312  11.152 -0.2141 -0.1135  0.3197
  997MOL0     C34464   5.743   2.202  11.217  0.1879 -0.7132 -0.6168
  997MOL0     C34465   5.688   2.067  11.189 -0.3120  0.6773  0.2009
  997MOL0     C34466   5.752   1.951  11.242  0.1246  0.3243  0.6701
  997MOL0     C34467   5.870   1.954  11.306  0.3893  0.6797  0.7664
  997MOL0     O34468   5.939   1.831  11.324  0.5617 -0.4179 -0.4677
  997MOL0     C34469   6.024   1.810  11.434  0.2756  0.7347 -0.2920
  997MOL0     C34470   6.075   1.670  11.430 -0.1507  0.2117 -0.0149
  997MOL0     C34471   6.192   1.669  11.529  0.3541  0.4534  0.1483
  997MOL0     C34472   6.209   1.528  11.580  0.4920  0.5645  0.1006
  997MOL0     C34473   6.349   1.501  11.657  1.1901 -0.3928 -0.0115
  997MOL0     C34474   6.464   1.490  11.558 -0.6828  0.3466 -0.7632
  997MOL0     C34475   6.600   1.480  11.631  0.9340 -0.6796 -1.2021
  997MOL0     C34476   6.610   1.370  11.731  0.1294 -0.0823  0.0265
  997MOL0     N34477   6.740   1.382  11.788 -0.5073 -0.1970 -0.1318
  997MOL0     C34478   6.843   1.298  11.800 -0.2246  0.0769  0.4482
  997MOL0     C34479   6.923   1.356  11.892 -0.1030 -0.6717  0.2692
  997MOL0     C34480   7.045   1.292  11.934 -0.3281  0.2359  1.0407
  997MOL0     C34481   6.997   1.187  12.035  0.1955 -0.0937 -0.2262
  997MOL0     C34482   7.102   1.077  12.062 -0.3068  0.0154 -0.2715
  997MOL0     C34483   7.049   0.971  12.167 -0.8193  0.2668  0.7623
  997MOL0     O34484   7.159   0.880  12.193  0.4669 -0.4122 -0.1298
  997MOL0     C34485   7.141   0.785  12.292  0.0627  0.7428 -0.0213
  997MOL0     C34486   7.245   0.701  12.314 -0.5995 -0.1451  0.0058
  997MOL0     C34487   7.235   0.600  12.407  0.4929  0.5477 -0.4733
  997MOL0     C34488   7.114   0.570  12.478 -0.9940  0.6402  0.5505
  997MOL0     C34489   7.117   0.464  12.578 -0.0579 -0.4222 -0.2986
  997MOL0     O34490   7.228   0.417  12.633 -0.4128  0.4164  0.0399
  997MOL0     C34491   7.234   0.279  12.669  0.3254 -0.3657  0.6081
  997MOL0     C34492   7.218   0.181  12.567  0.1018  0.2601 -0.3097
  997MOL0     C34493   7.223   0.049  12.605 -0.3972  0.1460 -0.3101
  997MOL0     C34494   7.245   0.011  12.741 -0.9867 -0.9567 -0.7917
  997MOL0     O34495   7.256  -0.119  12.786  0.2269 -0.4533 -0.3339
  997MOL0     C34496   7.133  -0.192  12.790 -0.1794 -0.6475  0.4519
  997MOL0     C34497   7.162  -0.332  12.834 -0.0899  0.2260  0.3367
  997MOL0     C34498   7.221  -0.424  12.725  0.3067 -0.2176  0.3481
  997MOL0     C34499   7.117  -0.501  12.652 -0.9309 -0.6517 -0.1820
  997MOL0     C34500   7.177  -0.595  12.544  0.3970  0.4515  0.3887
  997MOL0     C34501   7.287  -0.536  12.454  0.9437  0.3430  0.3050
  997MOL0     C34502   7.323  -0.628  12.339  0.2575 -0.3525  0.1286
  997MOL0     C34503   7.413  -0.570  12.225 -0.1099  0.2342 -0.5263
  997MOL0    Cl34504   7.397  -0.677  12.080 -0.1725  0.4399 -0.2683
  997MOL0     C34505   7.255   0.107  12.839  1.2745 -0.1242  0.1702
  997MOL0     C34506   7.242   0.244  12.807 -0.0268  0.0443 -0.3716
  997MOL0     O34507   7.002   0.413  12.597  0.6927 -0.2908 -0.4873
  997MOL0     C34508   7.006   0.647  12.448 -0.4850  0.2865  0.2160
  997MOL0     C34509   7.017   0.761  12.364  0.2737 -1.0529  0.0308
  997MOL0     N34510   6.878   1.486  11.927 -1.1778 -0.3867  0.1803
  997MOL0     N34511   6.773   1.499  11.860  0.0264 -0.0814 -0.3640
  997MOL0     C34512   5.921   2.080  11.322 -0.0604  0.1795 -0.0791
  997MOL0     C34513   5.872   2.203  11.279 -1.0414 -0.6590 -0.2599
  997MOL0     C34514   5.484   2.412  11.110  0.4798 -0.3502 -0.6409
  997MOL0     C34515   5.453   2.348  11.001 -0.3009  0.6367  0.4268
  997MOL0     C34516   5.352   2.384  10.920 -0.4319  0.0278  0.0307
  997MOL0     C34517   5.268   2.489  10.957 -0.1243 -0.0083  0.3293
  997MOL0     O34518   5.165   2.521  10.875  0.7864  0.6838 -0.0164
  997MOL0     C34519   5.091   2.651  10.883 -0.3937  0.8038 -0.0985
  997MOL0     C34520   4.988   2.666  10.775  0.3848 -0.0936  0.7881
  997MOL0     C34521   4.889   2.787  10.800 -0.4142  0.1834 -0.1079
  997MOL0     C34522   4.856   2.870  10.671 -0.4882 -0.4343 -0.5039
  997MOL0     C34523   4.776   2.789  10.575 -0.5736  0.2280 -0.7112
  997MOL0     C34524   4.697   2.725  10.506 -0.5041  0.5090  0.4771
  997MOL0     C34525   5.314   2.571  11.066  0.3547 -0.1161  0.0768
  997MOL0     C34526   5.423   2.539  11.140 -0.1679 -0.8609 -0.6811
  997MOL0     C34527   5.463   2.630  11.247  0.0356  0.1731 -0.3439
  997MOL0     H34528   5.599   2.047  11.129 -0.3924  0.6518  0.3285
  997MOL0     H34529   5.711   1.852  11.226  1.6652 -0.2097 -0.1371
  997MOL0     H34530   6.107   1.880  11.434 -0.6277  1.8677  1.4986
  997MOL0     H34531   5.963   1.815  11.525  3.1942  0.9727  1.7992
  997MOL0     H34532   6.114   1.645  11.331 -0.0291  1.5926 -0.3379
  997MOL0     H34533   6.001   1.595  11.460 -0.5210  0.7929  0.5363
  997MOL0     H34534   6.171   1.742  11.609  0.7945  1.5731 -0.7276
  997MOL0     H34535   6.283   1.697  11.476 -0.5477  1.2822 -1.0156
  997MOL0     H34536   6.129   1.513  11.653  1.6613  0.1528  1.3305
  997MOL0     H34537   6.193   1.458  11.497 -1.2070 -0.3002  1.1030
  997MOL0     H34538   6.361   1.573  11.738 -1.8635  3.3282 -2.5022
  997MOL0     H34539   6.339   1.403  11.705 -0.6987 -0.6001 -0.7406
  997MOL0     H34540   6.444   1.396  11.505  0.1253 -1.8161  2.5000
  997MOL0     H34541   6.470   1.577  11.491  0.1951 -0.7494 -2.1706
  997MOL0     H34542   6.611   1.575  11.684  2.1799  0.6455 -3.6964
  997MOL0     H34543   6.676   1.475  11.553 -0.8202  0.5624 -3.0723
  997MOL0     H34544   6.546   1.382  11.819 -0.1199  1.4505 -0.3270
  997MOL0     H34545   6.592   1.272  11.685 -0.0535 -1.0921  2.1574
  997MOL0     H34546   6.856   1.201  11.754 -1.8102  0.5040 -1.0164
  997MOL0     H34547   7.102   1.264  11.845  1.8524 -0.3584  2.5084
  997MOL0     H34548   7.103   1.372  11.981  0.0483  2.1895 -2.4600
  997MOL0     H34549   6.982   1.243  12.128  0.2511 -1.5485  0.6888
  997MOL0     H34550   6.907   1.140  11.994  0.0379 -1.0667  1.1715
  997MOL0     H34551   7.189   1.127  12.105 -0.3687 -1.6366  1.9842
  997MOL0     H34552   7.118   1.024  11.968  1.7789  1.2545 -0.6659
  997MOL0     H34553   6.965   0.917  12.122  0.8433 -0.7260 -1.3181
  997MOL0     H34554   7.015   1.025  12.256 -0.5662  1.2681  0.2526
  997MOL0     H34555   7.339   0.719  12.263  0.3218  0.4196  1.8032
  997MOL0     H34556   7.324   0.539  12.414  1.3758  1.6289 -1.9060
  997MOL0     H34557   7.184   0.193  12.464 -2.4662 -1.9687  0.1794
  997MOL0     H34558   7.210  -0.027  12.529 -0.9010 -1.1025  0.9741
  997MOL0     H34559   7.071  -0.139  12.863  0.6121  2.7957 -1.2173
  997MOL0     H34560   7.080  -0.190  12.695  1.9740  0.6043 -0.7785
  997MOL0     H34561   7.239  -0.315  12.910 -0.6259 -0.7094  1.1107
  997MOL0     H34562   7.079  -0.372  12.893  1.7812  1.4659  4.1598
  997MOL0     H34563   7.281  -0.348  12.674 -0.8662  1.1567  0.9609
  997MOL0     H34564   7.292  -0.495  12.770  1.2234  0.6159  0.2649
  997MOL0     H34565   7.054  -0.426  12.603  0.1794  0.4761  0.0495
  997MOL0     H34566   7.061  -0.559  12.725  0.0126  0.0575  1.1527
  997MOL0     H34567   7.090  -0.633  12.490  0.3377 -1.2278  1.6095
  997MOL0     H34568   7.219  -0.687  12.585  0.5710 -0.0434 -0.8416
  997MOL0     H34569   7.233  -0.451  12.411 -0.1928 -0.4990  0.0170
  997MOL0     H34570   7.365  -0.490  12.515  0.4235  1.3658  0.2213
  997MOL0     H34571   7.218  -0.644  12.310  0.6870 -4.1892  0.1016
  997MOL0     H34572   7.355  -0.724  12.381 -0.1484  0.2728  1.9579
  997MOL0     H34573   7.373  -0.471  12.203 -2.5668 -0.8110 -1.1035
  997MOL0     H34574   7.518  -0.571  12.253  0.6741  0.7541 -3.1672
  997MOL0     H34575   7.256   0.072  12.942 -2.8986 -1.9885 -0.2238
  997MOL0     H34576   7.241   0.321  12.883 -1.4697 -1.2101  0.9436
  997MOL0     H34577   6.912   0.622  12.497  1.2354 -0.7858  3.2796
  997MOL0     H34578   6.927   0.821  12.352 -0.8659 -2.7772 -0.4093
  997MOL0     H34579   6.018   2.086  11.370  0.1225 -0.7419 -0.3060
  997MOL0     H34580   5.937   2.289  11.294 -1.1775 -1.0642  3.9846
  997MOL0     H34581   5.505   2.257  10.972  0.2114  1.1770 -0.3978
  997MOL0     H34582   5.331   2.334  10.827  1.1136  1.6271 -1.2521
  997MOL0     H34583   5.163   2.729  10.858  0.4766 -0.5499 -2.0065
  997MOL0     H34584   5.044   2.666  10.981  0.1440  0.8940  0.1458
  997MOL0     H34585   4.932   2.572  10.775  0.7102 -0.2917  0.2489
  997MOL0     H34586   5.024   2.681  10.673 -3.5026  5.7647 -0.2270
  997MOL0     H34587   4.919   2.857  10.878 -0.7052 -0.5112  0.6390
  997MOL0     H34588   4.792   2.743  10.826 -1.0079  2.3968  1.7508
  997MOL0     H34589   4.815   2.971  10.682  4.1583  1.5257  2.0328
  997MOL0     H34590   4.951   2.895  10.623  1.0105 -1.3589  1.8050
  997MOL0     H34591   4.632   2.672  10.440 -1.6803  2.1526  0.2498
  997MOL0     H34592   5.258   2.656  11.105 -2.6002 -2.1510  0.6176
  997MOL0     H34593   5.549   2.592  11.303 -0.6191  0.6635  1.0112
  997MOL0     H34594   5.503   2.710  11.184 -1.8907  0.9596 -0.6396
  997MOL0     H34595   5.383   2.631  11.320 -0.1110 -1.1022 -0.4644
  998MOL0     O34596   8.780   6.638   8.206  0.0686 -0.3727  0.3021
  998MOL0     C34597   8.759   6.522   8.205  0.8115 -0.4960  1.4585
  998MOL0     O34598   8.844   6.426   8.228 -0.0171  0.6327 -0.1985
  998MOL0     C34599   8.971   6.454   8.261 -0.8005  0.2018 -0.1270
  998MOL0     C34600   9.069   6.378   8.187  0.5612 -0.5025  0.2302
  998MOL0     C34601   9.205   6.411   8.204 -0.4406 -0.3909 -0.2890
  998MOL0     C34602   9.253   6.507   8.289 -0.6612 -0.1904 -0.5895
  998MOL0     O34603   9.388   6.520   8.296 -0.0153  0.5754  0.2763
  998MOL0     C34604   9.424   6.635   8.371 -0.2801  0.1516  1.1769
  998MOL0     C34605   9.563   6.682   8.334 -1.0748 -0.0702 -0.6164
  998MOL0     C34606   9.594   6.684   8.184  0.4812  0.5275  0.2383
  998MOL0     C34607   9.680   6.794   8.123 -0.0770 -0.9469 -0.2099
  998MOL0     C34608   9.824   6.793   8.177 -0.8518  0.1475 -0.0314
  998MOL0     C34609   9.920   6.900   8.133  0.0744 -0.5150  1.1514
  998MOL0     C34610  10.045   6.922   8.232 -0.1683  0.0630 -0.3066
  998MOL0     C34611  10.149   6.808   8.210 -0.6498 -0.3371  0.0343
  998MOL0     N34612  10.246   6.811   8.320 -0.3660 -1.0053  0.0480
  998MOL0     C34613  10.240   6.738   8.442 -0.1688 -0.2975 -0.4308
  998MOL0     C34614  10.352   6.771   8.504  0.4854 -0.2105 -0.6784
  998MOL0     C34615  10.398   6.718   8.642 -0.1996 -0.2619 -0.9724
  998MOL0     C34616  10.331   6.599   8.711  0.2716  0.1256 -0.9870
  998MOL0     C34617  10.340   6.470   8.629  0.5117 -0.2557 -0.8683
  998MOL0     C34618  10.212   6.394   8.642  0.1296  0.9979 -0.4210
  998MOL0     O34619  10.105   6.468   8.578 -0.4567 -0.1047  0.2556
  998MOL0     C34620   9.980   6.440   8.631 -0.1762 -0.1462 -0.1242
  998MOL0     C34621   9.938   6.311   8.664  0.2369  0.1189  0.4133
  998MOL0     C34622   9.806   6.284   8.693 -0.9899  0.2710 -0.1976
  998MOL0     C34623   9.712   6.385   8.672  0.6738 -0.3974 -0.2302
  998MOL0     C34624   9.557   6.354   8.691 -0.5990  1.0213  0.3527
  998MOL0     O34625   9.475   6.463   8.666  0.2155  0.0527 -0.5384
  998MOL0     C34626   9.335   6.458   8.689 -0.1289  0.2659 -0.1888
  998MOL0     C34627   9.255   6.346   8.669 -1.9117  0.2072 -0.1607
  998MOL0     C34628   9.120   6.357   8.665  0.5599  0.6352 -0.4724
  998MOL0     C34629   9.055   6.483   8.676  0.3918 -0.9497 -0.0245
  998MOL0     O34630   8.920   6.517   8.668  0.7525 -0.0879 -0.1869
  998MOL0     C34631   8.823   6.412   8.645 -0.0169 -0.3079 -0.6511
  998MOL0     C34632   8.754   6.383   8.780 -0.1124  0.5184  0.4978
  998MOL0     C34633   8.604   6.345   8.760  0.0313 -0.2868  0.5194
  998MOL0     C34634   8.512   6.463   8.725 -0.2275 -0.3278 -0.1352
  998MOL0     C34635   8.380   6.404   8.688  0.6406  0.7748 -0.2393
  998MOL0     C34636   8.313   6.324   8.794  0.4874  0.2753  0.3665
  998MOL0     C34637   8.171   6.304   8.748 -0.4849  0.3071 -0.3982
  998MOL0     C34638   8.088   6.274   8.868  0.8202 -0.5850  0.3781
  998MOL0    Cl34639   8.128   6.106   8.931  0.3864 -0.8184  0.3037
  998MOL0     C34640   9.133   6.595   8.713 -0.8003  0.1542 -0.0553
  998MOL0     C34641   9.275   6.584   8.711  0.2866 -0.2442 -0.3234
  998MOL0     O34642   9.525   6.241   8.731  0.7263 -0.1243  0.2892
  998MOL0     C34643   9.745   6.509   8.639 -0.1110 -0.3166  0.2480
  998MOL0     C34644   9.879   6.541   8.631 -0.5571  0.6304 -0.0496
  998MOL0     N34645  10.429   6.856   8.433  0.2286  0.0264  0.1663
  998MOL0     N34646  10.360   6.882   8.327  0.2633  0.4049  0.3614
  998MOL0     C34647   9.156   6.573   8.370  0.3626 -0.0532 -0.3848
  998MOL0     C34648   9.020   6.552   8.350 -0.2422 -0.6328 -0.3363
  998MOL0     C34649   8.616   6.484   8.172 -0.1589  0.6297  1.4983
  998MOL0     C34650   8.538   6.561   8.086  0.1401 -0.5601 -0.1110
  998MOL0     C34651   8.406   6.528   8.064  0.9021  0.4992 -0.0440
  998MOL0     C34652   8.343   6.415   8.123  0.6011  0.1967 -0.2770
  998MOL0     O34653   8.221   6.370   8.081  0.3742 -0.2825 -0.2678
  998MOL0     C34654   8.138   6.440   7.984 -0.2017  0.1925  0.6476
  998MOL0     C34655   8.008   6.354   7.962 -0.9026  0.2221  0.1978
  998MOL0     C34656   7.921   6.313   8.074  0.4985  0.3726  0.3859
  998MOL0     C34657   7.808   6.219   8.019 -0.8396 -0.0739 -0.2040
  998MOL0     C34658   7.733   6.167   8.135  0.3997  0.8374  0.1091
  998MOL0     C34659   7.662   6.124   8.223  0.2360  0.3611 -0.1933
  998MOL0     C34660   8.418   6.336   8.206  0.4310  0.3695  0.0370
  998MOL0     C34661   8.558   6.367   8.233  1.0448  0.7588  0.0340
  998MOL0     C34662   8.628   6.283   8.343  0.7441  0.4662 -0.0669
  998MOL0     H34663   9.036   6.305   8.114  0.0552  0.2969 -0.3572
  998MOL0     H34664   9.285   6.355   8.157  2.0883  1.8783  1.0476
  998MOL0     H34665   9.359   6.720   8.351  0.7043  0.9834  1.4162
  998MOL0     H34666   9.426   6.613   8.478  2.5485  0.5371  1.2938
  998MOL0     H34667   9.634   6.613   8.379 -0.2944 -0.0158 -1.7327
  998MOL0     H34668   9.575   6.783   8.374 -2.2648 -0.5610  1.0891
  998MOL0     H34669   9.495   6.703   8.144  1.2015  0.6163 -1.6014
  998MOL0     H34670   9.615   6.584   8.145  0.3660  0.1255  1.1722
  998MOL0     H34671   9.684   6.788   8.014  0.0207 -3.0958 -0.1335
  998MOL0     H34672   9.631   6.887   8.154  0.4181 -1.3768  2.0767
  998MOL0     H34673   9.818   6.797   8.286  0.7978 -1.2825  0.1555
  998MOL0     H34674   9.865   6.698   8.142  0.3606  0.1972  1.1961
  998MOL0     H34675   9.963   6.864   8.040  0.2635 -1.5275  1.6120
  998MOL0     H34676   9.871   6.998   8.142 -1.0017 -0.5066 -3.0002
  998MOL0     H34677  10.011   6.915   8.335 -2.8953 -0.9185 -1.1737
  998MOL0     H34678  10.084   7.018   8.199 -1.4598  1.4072  1.8310
  998MOL0     H34679  10.101   6.710   8.220 -1.0028 -0.1975 -0.2680
  998MOL0     H34680  10.196   6.818   8.112 -2.7864  2.7848 -0.8131
  998MOL0     H34681  10.161   6.677   8.484 -0.6717  0.0736 -0.8295
  998MOL0     H34682  10.503   6.691   8.632  0.4121  1.3162  0.6703
  998MOL0     H34683  10.392   6.797   8.717  0.8621 -1.6649  0.6574
  998MOL0     H34684  10.382   6.583   8.807 -3.3071 -2.2373  0.7706
  998MOL0     H34685  10.227   6.624   8.735 -0.3429 -3.6120  1.0386
  998MOL0     H34686  10.427   6.422   8.675  3.2242  1.8227 -3.4332
  998MOL0     H34687  10.366   6.489   8.525  2.1340 -0.2849 -0.5093
  998MOL0     H34688  10.178   6.393   8.746 -1.1648  2.2489 -0.8063
  998MOL0     H34689  10.215   6.292   8.605 -0.4063  0.8394 -0.0320
  998MOL0     H34690  10.008   6.229   8.672  2.1926  1.7585  0.9070
  998MOL0     H34691   9.779   6.182   8.719  0.2386 -0.5788 -2.0575
  998MOL0     H34692   9.302   6.249   8.652 -0.1652  1.0812 -0.5655
  998MOL0     H34693   9.064   6.266   8.643  1.4700 -0.5910  1.9122
  998MOL0     H34694   8.747   6.457   8.580 -0.1433 -0.0238 -0.3071
  998MOL0     H34695   8.864   6.320   8.603  2.6556  0.5244 -0.0398
  998MOL0     H34696   8.814   6.311   8.837  0.3102  0.4485 -0.0293
  998MOL0     H34697   8.765   6.477   8.834  0.3249 -1.3119  3.8490
  998MOL0     H34698   8.597   6.267   8.684  1.2916 -1.9532  2.0351
  998MOL0     H34699   8.577   6.301   8.857  0.4294 -4.9151 -1.2489
  998MOL0     H34700   8.560   6.519   8.644  3.0517 -2.2749  0.2994
  998MOL0     H34701   8.503   6.534   8.808  2.5334 -2.0669  1.8220
  998MOL0     H34702   8.387   6.363   8.587 -0.8983  0.8228 -0.3861
  998MOL0     H34703   8.321   6.494   8.668 -1.0993  0.3776  2.5576
  998MOL0     H34704   8.357   6.234   8.837  0.2326 -0.1856 -0.3296
  998MOL0     H34705   8.318   6.391   8.881 -0.4598 -1.4853  1.8700
  998MOL0     H34706   8.162   6.236   8.663  2.3386  0.1844 -0.6870
  998MOL0     H34707   8.133   6.398   8.709 -0.5463  0.9633  1.1633
  998MOL0     H34708   8.115   6.335   8.955 -4.0713 -0.5700  2.2158
  998MOL0     H34709   7.983   6.288   8.840  0.9351  0.7963  0.5430
  998MOL0     H34710   9.088   6.690   8.742 -0.5024  0.0499  0.7853
  998MOL0     H34711   9.342   6.661   8.748  2.2864 -2.0890  0.0968
  998MOL0     H34712   9.680   6.595   8.649 -0.7309 -0.6723 -0.6024
  998MOL0     H34713   9.909   6.642   8.607 -0.7293  0.2478 -2.0472
  998MOL0     H34714   9.179   6.645   8.448  1.4840 -1.3409  0.5193
  998MOL0     H34715   8.958   6.621   8.406  2.2644  3.4964 -2.1501
  998MOL0     H34716   8.592   6.640   8.034  1.6605 -2.0148 -0.8209
  998MOL0     H34717   8.360   6.593   7.990  2.6930  0.7444 -1.0126
  998MOL0     H34718   8.194   6.448   7.890 -1.8802 -0.1877 -0.4206
  998MOL0     H34719   8.105   6.540   8.010  1.1284  1.2536 -1.4635
  998MOL0     H34720   8.029   6.258   7.914 -3.4014 -0.1454 -0.2894
  998MOL0     H34721   7.951   6.416   7.892  0.0516  2.5402  1.3702
  998MOL0     H34722   7.880   6.401   8.124  2.2722  1.0409  0.7529
  998MOL0     H34723   7.973   6.256   8.151 -2.8860 -5.4456 -0.9775
  998MOL0     H34724   7.748   6.259   7.938  0.4061 -0.8052 -1.5323
  998MOL0     H34725   7.848   6.127   7.974 -0.7219 -0.2948  0.3409
  998MOL0     H34726   7.598   6.080   8.297 -1.5200 -1.3933 -2.6123
  998MOL0     H34727   8.364   6.255   8.255 -0.0033  1.4190  1.3519
  998MOL0     H34728   8.701   6.223   8.287  0.1764  2.0714 -2.6734
  998MOL0     H34729   8.673   6.351   8.417  1.6752 -0.3703  0.1622
  998MOL0     H34730   8.551   6.221   8.388 -0.0633 -0.4402 -2.5683
  999MOL0     O34731   7.399   0.252   6.376 -0.2543  0.3180 -0.0030
  999MOL0     C34732   7.334   0.302   6.467 -0.4100 -0.2207  1.1373
  999MOL0     O34733   7.340   0.429   6.513  0.1278  0.2564  0.0234
  999MOL0     C34734   7.462   0.495   6.490  0.4158  0.3688 -0.0313
  999MOL0     C34735   7.584   0.442   6.527 -0.3310  0.2937  0.4430
  999MOL0     C34736   7.704   0.509   6.488 -0.3616  0.2724 -0.1735
  999MOL0     C34737   7.697   0.634   6.423 -0.1365 -0.3058  0.3593
  999MOL0     O34738   7.809   0.707   6.380  0.3490 -0.0930 -0.9620
  999MOL0     C34739   7.938   0.647   6.403  0.4193  0.6308 -0.2379
  999MOL0     C34740   8.051   0.712   6.320 -0.5789 -0.2940 -0.7504
  999MOL0     C34741   8.190   0.659   6.358 -0.6727  0.1962 -0.0283
  999MOL0     C34742   8.286   0.675   6.235 -0.1384  0.5390 -0.3062
  999MOL0     C34743   8.424   0.608   6.268 -0.2837  0.4434 -0.0369
  999MOL0     C34744   8.524   0.626   6.152  0.1559  0.9013  0.0133
  999MOL0     C34745   8.545   0.770   6.099 -1.2629  1.0589  0.6456
  999MOL0     C34746   8.622   0.856   6.200 -0.5462 -1.0138 -0.7761
  999MOL0     N34747   8.517   0.923   6.289 -0.1932  1.1086  0.1305
  999MOL0     C34748   8.438   1.034   6.272 -0.0824  0.0439 -0.6260
  999MOL0     C34749   8.381   1.057   6.388 -0.1848  0.1808 -0.1233
  999MOL0     C34750   8.288   1.179   6.395 -0.4513  0.8137 -0.5286
  999MOL0     C34751   8.136   1.141   6.407 -1.2980  1.6424 -0.9100
  999MOL0     C34752   8.113   1.063   6.539  1.1243  0.1048 -0.1654
  999MOL0     C34753   7.959   1.033   6.558 -0.3826  0.1619 -0.0715
  999MOL0     O34754   7.885   1.156   6.543  0.0252  1.1535 -0.5129
  999MOL0     C34755   7.751   1.149   6.522  0.2439  1.4427 -0.0059
  999MOL0     C34756   7.680   1.033   6.493 -0.5960 -0.5808  0.7124
  999MOL0     C34757   7.536   1.037   6.463  0.1641 -0.1861  0.2064
  999MOL0     C34758   7.465   1.161   6.468  0.0047 -0.2867  0.7952
  999MOL0     C34759   7.319   1.154   6.456  0.4396 -0.0526  1.4504
  999MOL0     O34760   7.248   1.255   6.512 -0.0870  0.3154  0.9051
  999MOL0     C34761   7.109   1.239   6.514  0.6720 -0.7622 -0.5437
  999MOL0     C34762   7.031   1.335   6.459  0.2916  0.4329 -1.2452
  999MOL0     C34763   6.894   1.343   6.485  0.6934 -0.6684  0.3477
  999MOL0     C34764   6.839   1.246   6.574 -0.0981 -0.3260  0.3047
  999MOL0     O34765   6.712   1.253   6.622 -0.4068  1.0361 -0.1041
  999MOL0     C34766   6.626   1.360   6.592 -0.2396  0.9525  0.0367
  999MOL0     C34767   6.478   1.326   6.625  0.7494  0.9860  0.0171
  999MOL0     C34768   6.389   1.447   6.633 -0.4233  0.1665 -0.0080
  999MOL0     C34769   6.240   1.401   6.621 -0.1448  0.5054 -0.8919
  999MOL0     C34770   6.131   1.515   6.621  0.4895  0.7688  0.0052
  999MOL0     C34771   6.112   1.564   6.479  0.1063 -0.0801  1.3752
  999MOL0     C34772   6.031   1.694   6.472  0.5811  0.3915  0.2782
  999MOL0     C34773   5.990   1.729   6.326 -0.2115 -1.2313  0.7623
  999MOL0    Cl34774   5.882   1.873   6.308 -0.4624 -0.1145  0.3037
  999MOL0     C34775   6.920   1.147   6.629  0.6678 -0.3027  0.9674
  999MOL0     C34776   7.048   1.137   6.597 -1.1937  1.0618  0.2502
  999MOL0     O34777   7.268   1.051   6.397 -0.8152 -0.8649  0.5209
  999MOL0     C34778   7.543   1.275   6.493 -0.1213  0.4981  0.2123
  999MOL0     C34779   7.684   1.266   6.517  0.2919  0.5777 -0.1343
  999MOL0     N34780   8.434   0.973   6.483  1.1219  0.5275 -0.4712
  999MOL0     N34781   8.521   0.892   6.422  0.0431 -0.6451 -0.0978
  999MOL0     C34782   7.574   0.693   6.390 -0.7418  0.4492 -0.4347
  999MOL0     C34783   7.457   0.617   6.420  1.0623  0.0373 -0.2273
  999MOL0     C34784   7.219   0.229   6.518 -0.2521  0.4236 -0.0501
  999MOL0     C34785   7.110   0.307   6.567  0.3169 -0.5997  0.2560
  999MOL0     C34786   7.001   0.247   6.617 -0.4355  0.9472 -0.2374
  999MOL0     C34787   6.987   0.110   6.637 -0.6611  0.7943  0.1244
  999MOL0     O34788   6.863   0.069   6.698 -0.2330  0.1568 -0.1049
  999MOL0     C34789   6.829  -0.072   6.713 -0.4241 -0.1885 -0.7958
  999MOL0     C34790   6.700  -0.107   6.627 -0.3941  0.2811  0.0400
  999MOL0     C34791   6.581  -0.023   6.660  0.7604  0.0412 -1.0532
  999MOL0     C34792   6.457  -0.078   6.584 -0.1269  0.0110  0.7654
  999MOL0     C34793   6.475  -0.045   6.443  0.6196  0.0937 -0.2404
  999MOL0     C34794   6.505  -0.022   6.330 -0.2679  0.3321  0.3409
  999MOL0     C34795   7.099   0.027   6.589 -1.0974  0.3846  1.1242
  999MOL0     C34796   7.213   0.087   6.531  0.0481 -0.0507  0.3135
  999MOL0     C34797   7.332  -0.009   6.500 -0.5399  0.4536  0.5082
  999MOL0     H34798   7.583   0.340   6.563  1.5477  0.0474 -0.1294
  999MOL0     H34799   7.803   0.468   6.506 -0.1657 -1.8267 -4.7421
  999MOL0     H34800   7.973   0.661   6.506  1.0902  2.5723 -0.6820
  999MOL0     H34801   7.934   0.541   6.376 -1.3292  0.2717  1.2502
  999MOL0     H34802   8.059   0.820   6.336  4.0505 -0.5149 -0.0384
  999MOL0     H34803   8.036   0.685   6.215  1.9656 -2.8825 -0.5833
  999MOL0     H34804   8.174   0.555   6.388  0.0675  0.3007  0.7973
  999MOL0     H34805   8.220   0.702   6.454  0.9798 -3.3532  1.2200
  999MOL0     H34806   8.242   0.643   6.140 -1.7145  0.2522  0.4849
  999MOL0     H34807   8.304   0.781   6.217  4.9111  0.1861  1.2259
  999MOL0     H34808   8.464   0.632   6.367 -1.4189  1.3785  0.2246
  999MOL0     H34809   8.397   0.503   6.276 -1.2774  0.8413  4.5471
  999MOL0     H34810   8.612   0.572   6.187 -0.1019  1.6106  1.8779
  999MOL0     H34811   8.510   0.568   6.061  1.7910 -0.5384  0.6232
  999MOL0     H34812   8.455   0.825   6.071 -0.8243  0.2727 -2.8096
  999MOL0     H34813   8.613   0.768   6.013 -1.4845  1.6306  0.4537
  999MOL0     H34814   8.685   0.798   6.269  0.6456  2.6282  1.4645
  999MOL0     H34815   8.693   0.924   6.153 -2.0354  1.4613  0.3663
  999MOL0     H34816   8.451   1.080   6.175  0.0094 -2.2187 -1.7514
  999MOL0     H34817   8.325   1.241   6.477 -0.2401  1.5153 -1.1459
  999MOL0     H34818   8.299   1.227   6.297 -4.9587 -1.6739 -2.6037
  999MOL0     H34819   8.086   1.238   6.411 -2.8820  0.8235  0.0972
  999MOL0     H34820   8.111   1.084   6.317  2.2216  0.2640 -1.1706
  999MOL0     H34821   8.151   1.120   6.624 -0.7121 -0.5464  1.1813
  999MOL0     H34822   8.165   0.967   6.537  2.3946  0.6954 -4.0915
  999MOL0     H34823   7.943   0.979   6.652  1.2532 -2.2536 -1.1002
  999MOL0     H34824   7.921   0.960   6.486 -0.6114  0.6665 -0.4717
  999MOL0     H34825   7.725   0.935   6.487 -0.0518 -0.2777 -3.2124
  999MOL0     H34826   7.492   0.943   6.430  1.7271  0.0535 -3.0301
  999MOL0     H34827   7.080   1.395   6.383  0.2261  0.9775 -0.8709
  999MOL0     H34828   6.833   1.419   6.437  0.7884  0.4590  1.9444
  999MOL0     H34829   6.655   1.451   6.646 -0.1089  0.8367  0.1612
  999MOL0     H34830   6.623   1.384   6.486 -1.5575  2.7106  0.4209
  999MOL0     H34831   6.434   1.257   6.551  1.5845  1.4768 -0.9569
  999MOL0     H34832   6.477   1.268   6.718 -0.6141 -1.1934 -1.2518
  999MOL0     H34833   6.416   1.519   6.712 -1.8356 -0.7372  1.3543
  999MOL0     H34834   6.409   1.497   6.538 -1.5506  0.5083 -0.0741
  999MOL0     H34835   6.211   1.339   6.706  1.0880 -1.2949 -1.7273
  999MOL0     H34836   6.218   1.324   6.547  0.6958 -4.0263  3.0549
  999MOL0     H34837   6.158   1.600   6.685 -1.0243  1.4603 -0.2405
  999MOL0     H34838   6.036   1.482   6.665 -0.2376 -0.3020 -2.2157
  999MOL0     H34839   6.207   1.597   6.436  0.4322 -1.7412  0.7383
  999MOL0     H34840   6.066   1.480   6.427  1.7663 -0.4228  0.3682
  999MOL0     H34841   6.095   1.769   6.520  1.3266 -0.3439  0.4396
  999MOL0     H34842   5.945   1.684   6.538  1.0263  2.3762  1.2327
  999MOL0     H34843   6.082   1.738   6.267 -1.1004 -3.8451 -1.2250
  999MOL0     H34844   5.941   1.642   6.282 -0.0316 -0.1549 -1.7750
  999MOL0     H34845   6.862   1.073   6.684  1.9527 -2.0357  0.0762
  999MOL0     H34846   7.105   1.059   6.646  0.3042  1.4258 -0.8336
  999MOL0     H34847   7.490   1.370   6.493  0.1020  0.6433 -1.2499
  999MOL0     H34848   7.733   1.359   6.543 -0.4831  0.4084  2.1365
  999MOL0     H34849   7.586   0.790   6.344 -0.2018  0.7003  0.2152
  999MOL0     H34850   7.358   0.657   6.399  1.4578  1.0830 -0.2078
  999MOL0     H34851   7.106   0.415   6.556 -0.0455 -0.4729  1.4729
  999MOL0     H34852   6.912   0.305   6.636 -1.4209 -0.0607 -1.6423
  999MOL0     H34853   6.811  -0.093   6.818  0.6489  2.0846 -0.0905
  999MOL0     H34854   6.917  -0.132   6.690  1.8067  2.8275 -0.7886
  999MOL0     H34855   6.687  -0.214   6.649  3.2391  0.3023  3.5728
  999MOL0     H34856   6.719  -0.095   6.520  2.6237  4.7972  0.7822
  999MOL0     H34857   6.586   0.085   6.647  1.6556  0.2972  1.0232
  999MOL0     H34858   6.570  -0.040   6.768  1.7293 -1.4296 -1.1489
  999MOL0     H34859   6.460  -0.187   6.589  2.4711 -0.0823 -0.7560
  999MOL0     H34860   6.367  -0.033   6.626 -0.6099 -0.9186  0.7568
  999MOL0     H34861   6.543  -0.011   6.230  0.1008  3.0220  0.7034
  999MOL0     H34862   7.109  -0.078   6.614  0.3300  0.2800  0.2124
  999MOL0     H34863   7.359   0.002   6.394  2.9413 -2.0569  0.9597
  999MOL0     H34864   7.421  -0.004   6.564 -1.1782 -0.8916  1.5408
  999MOL0     H34865   7.300  -0.112   6.512 -1.0305  0.5889  0.3805
 1000MOL0     O34866   6.057   9.932   8.061  0.3277 -0.8674  0.1161
 1000MOL0     C34867   6.038   9.816   8.105  0.1330  0.9097 -0.1420
 1000MOL0     O34868   6.056   9.699   8.037  0.2633 -0.0601 -0.7843
 1000MOL0     C34869   6.159   9.684   7.945 -0.0010 -0.4866  0.1777
 1000MOL0     C34870   6.139   9.616   7.824  0.7594 -0.5050 -1.1314
 1000MOL0     C34871   6.236   9.613   7.720 -0.0109  0.8151  0.4260
 1000MOL0     C34872   6.361   9.679   7.743 -0.0903  0.4206 -0.3074
 1000MOL0     O34873   6.461   9.681   7.651 -0.7083 -0.9724 -0.5106
 1000MOL0     C34874   6.528   9.552   7.642 -0.4710 -0.2429 -0.5498
 1000MOL0     C34875   6.615   9.552   7.511 -0.2960  0.1502  0.0776
 1000MOL0     C34876   6.765   9.584   7.530 -0.2841  0.5736 -0.3635
 1000MOL0     C34877   6.831   9.585   7.402 -0.2124  0.4095  0.6776
 1000MOL0     C34878   6.976   9.632   7.411  0.5923  0.5831 -0.7778
 1000MOL0     C34879   7.042   9.621   7.282  0.8277  0.8465  0.6617
 1000MOL0     C34880   7.190   9.652   7.292 -0.2540  0.0436 -0.4799
 1000MOL0     C34881   7.254   9.661   7.155 -0.7891 -0.0141 -0.9605
 1000MOL0     N34882   7.398   9.680   7.150  0.1259  0.1400  0.4826
 1000MOL0     C34883   7.472   9.706   7.031  0.3002  0.5646 -0.3280
 1000MOL0     C34884   7.600   9.671   7.071 -0.3200 -1.5756 -0.2291
 1000MOL0     C34885   7.733   9.669   6.994 -0.2252 -0.5650  0.5373
 1000MOL0     C34886   7.772   9.526   6.953 -0.3021  0.1869 -0.6791
 1000MOL0     C34887   7.879   9.555   6.840  0.4503  0.4018  0.1806
 1000MOL0     C34888   7.928   9.422   6.795 -0.2954  0.1380 -0.4901
 1000MOL0     O34889   8.007   9.446   6.679 -0.0369 -0.3727 -0.1658
 1000MOL0     C34890   8.140   9.475   6.688  0.8151 -0.2709 -0.2047
 1000MOL0     C34891   8.238   9.382   6.705 -1.2280 -0.0869 -0.9668
 1000MOL0     C34892   8.377   9.417   6.713  0.5680  0.8976 -0.1899
 1000MOL0     C34893   8.415   9.549   6.695  0.1050 -0.9784 -0.8050
 1000MOL0     C34894   8.551   9.586   6.709 -1.0870  0.4365  0.8078
 1000MOL0     O34895   8.659   9.498   6.685 -0.0174 -0.0799  0.5131
 1000MOL0     C34896   8.791   9.531   6.696 -0.4668 -0.5284 -1.0365
 1000MOL0     C34897   8.890   9.449   6.625  0.6124 -0.9300  0.2131
 1000MOL0     C34898   9.026   9.466   6.643  0.0080  0.0775 -0.1179
 1000MOL0     C34899   9.067   9.576   6.722  0.3848 -0.8382 -0.2417
 1000MOL0     O34900   9.198   9.604   6.759 -0.3279  0.2943 -0.2407
 1000MOL0     C34901   9.302   9.509   6.727 -1.1176  0.4606  0.2612
 1000MOL0     C34902   9.432   9.569   6.792 -0.0136 -0.2902 -0.2142
 1000MOL0     C34903   9.559   9.480   6.779  0.8058  0.1689 -0.4415
 1000MOL0     C34904   9.565   9.350   6.853  0.7263 -0.5478 -0.5784
 1000MOL0     C34905   9.710   9.313   6.864  0.1404  0.2090 -0.5828
 1000MOL0     C34906   9.784   9.400   6.970  1.0649  0.3829  0.8579
 1000MOL0     C34907   9.940   9.381   6.947  0.7247 -0.4061  0.0911
 1000MOL0     C34908  10.023   9.453   7.040  0.2162 -0.5722  0.0845
 1000MOL0    Cl34909  10.002   9.626   7.004  0.2263  0.0186  0.6099
 1000MOL0     C34910   8.981   9.649   6.798 -0.1974  0.3314  0.5510
 1000MOL0     C34911   8.847   9.629   6.778  0.4636  0.4456 -0.0219
 1000MOL0     O34912   8.565   9.698   6.749  0.3036 -0.3294  0.4815
 1000MOL0     C34913   8.320   9.646   6.664  0.1533 -0.4738 -0.5233
 1000MOL0     C34914   8.182   9.608   6.664  0.0511 -1.0388  0.8604
 1000MOL0     N34915   7.604   9.631   7.200 -0.9699  1.4560  0.0408
 1000MOL0     N34916   7.488   9.644   7.250 -0.1018  0.6048 -0.2690
 1000MOL0     C34917   6.384   9.739   7.867 -0.0867  1.2108 -0.3331
 1000MOL0     C34918   6.289   9.735   7.971  0.8174  0.3359 -0.2735
 1000MOL0     C34919   5.960   9.811   8.239 -0.5950  0.0212 -0.0750
 1000MOL0     C34920   5.920   9.929   8.297  0.1831 -0.1304 -0.2296
 1000MOL0     C34921   5.892   9.937   8.431 -0.4057 -0.0484  0.6897
 1000MOL0     C34922   5.873   9.821   8.506 -0.3539 -0.2228 -0.9565
 1000MOL0     O34923   5.838   9.837   8.638  0.1361 -1.0996 -0.2684
 1000MOL0     C34924   5.756   9.730   8.696 -1.3888  0.0163  0.1042
 1000MOL0     C34925   5.665   9.798   8.799 -0.0352  1.0689  0.7119
 1000MOL0     C34926   5.563   9.895   8.729  0.5847  0.0434  0.0536
 1000MOL0     C34927   5.501   9.968   8.843 -0.1944 -0.1035  0.4532
 1000MOL0     C34928   5.401  10.075   8.818  0.0906 -0.6248  0.1259
 1000MOL0     C34929   5.320  10.165   8.786  0.1735  0.1263 -0.3992
 1000MOL0     C34930   5.887   9.701   8.442  0.3900 -0.2193 -0.3039
 1000MOL0     C34931   5.942   9.698   8.313 -0.0341  1.0297 -0.3128
 1000MOL0     C34932   5.983   9.559   8.277 -0.2358 -0.1078  0.3438
 1000MOL0     H34933   6.040   9.573   7.810  1.1335 -2.4489  1.4456
 1000MOL0     H34934   6.223   9.555   7.629 -0.2578  1.1054  0.2729
 1000MOL0     H34935   6.572   9.532   7.740 -3.9918  0.9666  1.4471
 1000MOL0     H34936   6.446   9.480   7.632 -0.8242  0.2470 -1.2872
 1000MOL0     H34937   6.566   9.622   7.441 -0.9533 -0.9927 -0.6421
 1000MOL0     H34938   6.598   9.453   7.468  0.2500 -0.3598  1.0319
 1000MOL0     H34939   6.816   9.505   7.586 -0.7712  0.5359  0.0360
 1000MOL0     H34940   6.785   9.683   7.570 -2.1576  0.5127  0.8285
 1000MOL0     H34941   6.830   9.482   7.365  2.1984 -0.8510  3.6269
 1000MOL0     H34942   6.771   9.645   7.333 -2.2952 -1.0277  1.1475
 1000MOL0     H34943   6.990   9.728   7.461  2.0755  0.0947 -0.2181
 1000MOL0     H34944   7.030   9.557   7.469 -1.3841  0.8175  1.5192
 1000MOL0     H34945   7.026   9.518   7.248  1.1864  1.1021 -0.3328
 1000MOL0     H34946   6.997   9.688   7.208  0.1269  0.0511  0.3540
 1000MOL0     H34947   7.235   9.570   7.349 -1.7631 -0.7174 -0.3417
 1000MOL0     H34948   7.223   9.739   7.350  0.2561 -1.5378  1.7178
 1000MOL0     H34949   7.235   9.563   7.109 -1.0381 -1.1851  1.4913
 1000MOL0     H34950   7.203   9.739   7.097 -0.3463  3.1603  2.5295
 1000MOL0     H34951   7.434   9.728   6.932 -0.7087 -1.1020 -0.3577
 1000MOL0     H34952   7.724   9.731   6.905 -1.1993  1.0644  1.7070
 1000MOL0     H34953   7.802   9.716   7.064  1.2077 -0.0321 -1.1785
 1000MOL0     H34954   7.811   9.464   7.035  0.1793 -0.6152 -1.4905
 1000MOL0     H34955   7.684   9.478   6.911 -2.5516  2.6148  0.9559
 1000MOL0     H34956   7.960   9.618   6.878 -0.2699  0.4519  1.7115
 1000MOL0     H34957   7.841   9.602   6.748  2.7173  0.3624 -0.8374
 1000MOL0     H34958   7.841   9.357   6.784 -0.5585  0.1496  1.2741
 1000MOL0     H34959   7.987   9.376   6.874 -2.6543 -1.4241  0.4642
 1000MOL0     H34960   8.210   9.280   6.729 -2.9043  0.2518 -1.4198
 1000MOL0     H34961   8.434   9.338   6.761  0.2233  1.2760  0.8815
 1000MOL0     H34962   8.854   9.366   6.565  2.8795 -1.9361  0.1379
 1000MOL0     H34963   9.100   9.394   6.608  0.3184 -0.5934  1.7996
 1000MOL0     H34964   9.279   9.409   6.767  2.8291 -1.8321 -2.4342
 1000MOL0     H34965   9.317   9.492   6.620 -2.0978  2.1401 -0.1798
 1000MOL0     H34966   9.450   9.662   6.738 -2.0596 -0.0788 -0.6199
 1000MOL0     H34967   9.419   9.587   6.899  0.1724  4.3265 -0.7459
 1000MOL0     H34968   9.580   9.447   6.677 -1.7999 -0.1826 -0.9277
 1000MOL0     H34969   9.635   9.552   6.811 -0.1364  1.0846 -0.2354
 1000MOL0     H34970   9.517   9.268   6.799  0.3003  0.3067 -1.5563
 1000MOL0     H34971   9.518   9.366   6.951  0.6345 -0.0691 -0.6943
 1000MOL0     H34972   9.759   9.325   6.767  1.2558 -1.1532 -0.2216
 1000MOL0     H34973   9.724   9.206   6.881  5.7044  0.5551 -1.0850
 1000MOL0     H34974   9.772   9.508   6.968  1.4739  0.4650  2.2156
 1000MOL0     H34975   9.764   9.360   7.070 -0.3815 -1.3071 -0.0390
 1000MOL0     H34976   9.956   9.424   6.848 -2.4012 -0.1141 -0.3953
 1000MOL0     H34977   9.965   9.274   6.946  0.9393 -0.3648  0.6813
 1000MOL0     H34978   9.981   9.426   7.137 -4.6711  1.5274 -1.1405
 1000MOL0     H34979  10.127   9.423   7.021  0.4191 -0.6742  1.2862
 1000MOL0     H34980   9.018   9.735   6.853  1.6852  0.6889 -1.1466
 1000MOL0     H34981   8.782   9.688   6.841  0.1679  1.8546 -1.5730
 1000MOL0     H34982   8.328   9.753   6.648 -0.0307 -0.5215 -0.9454
 1000MOL0     H34983   8.103   9.678   6.639  0.1575 -0.1649  2.7645
 1000MOL0     H34984   6.486   9.763   7.895  0.0277  0.0400  0.2753
 1000MOL0     H34985   6.313   9.779   8.067  1.2977 -2.2390  0.8783
 1000MOL0     H34986   5.936  10.021   8.242 -1.6391 -0.4581 -1.4072
 1000MOL0     H34987   5.879  10.030   8.485  1.4436 -1.3366  3.6053
 1000MOL0     H34988   5.811   9.651   8.748 -0.7987  0.4400  0.1362
 1000MOL0     H34989   5.695   9.681   8.619 -2.9895 -1.4734  2.1827
 1000MOL0     H34990   5.732   9.850   8.868  0.1468  0.4111  1.0437
 1000MOL0     H34991   5.613   9.715   8.847 -1.8601  1.6722 -0.1522
 1000MOL0     H34992   5.490   9.840   8.668  0.4630  2.5161 -2.1869
 1000MOL0     H34993   5.612   9.970   8.667 -0.9272  1.8161  0.8877
 1000MOL0     H34994   5.448   9.899   8.910 -0.0436 -1.7152 -1.0158
 1000MOL0     H34995   5.583  10.021   8.893 -0.8637 -0.3954  1.9155
 1000MOL0     H34996   5.252  10.246   8.770 -0.4606  0.3563  2.7736
 1000MOL0     H34997   5.863   9.611   8.498 -0.9785 -2.0891 -3.5967
 1000MOL0     H34998   5.939   9.484   8.344 -0.4554  0.0916  0.4260
 1000MOL0     H34999   5.950   9.529   8.177 -1.2266  1.4775  0.1524
 1000MOL0     H35000   6.092   9.563   8.281  0.1127 -3.3658 -2.0638
 1001MOL0     O35001   2.797   7.404   3.049 -0.2137  0.6514  0.1373
 1001MOL0     C35002   2.681   7.367   3.072 -0.1267  0.2264 -0.2692
 1001MOL0     O35003   2.641   7.315   3.192  0.0574  0.0868  0.6673
 1001MOL0     C35004   2.726   7.315   3.300  0.8320 -0.7694  0.2909
 1001MOL0     C35005   2.663   7.346   3.427 -0.1781 -0.0413  0.1390
 1001MOL0     C35006   2.741   7.335   3.547 -0.1995 -1.0630 -0.5394
 1001MOL0     C35007   2.878   7.304   3.545  0.0267 -0.5128 -0.7559
 1001MOL0     O35008   2.952   7.298   3.666 -0.2182 -0.3037  0.2250
 1001MOL0     C35009   3.088   7.254   3.668 -0.3225 -0.5068 -0.4213
 1001MOL0     C35010   3.149   7.272   3.817  0.3257 -0.1566  0.0820
 1001MOL0     C35011   3.274   7.196   3.844 -0.6717  0.6036  0.5768
 1001MOL0     C35012   3.244   7.047   3.840  0.0855 -0.4230  0.6237
 1001MOL0     C35013   3.370   6.975   3.872 -0.0732  0.5076  0.6265
 1001MOL0     C35014   3.339   6.834   3.919  0.2279  0.3895  0.1712
 1001MOL0     C35015   3.473   6.758   3.934 -0.5229 -0.7170 -0.4157
 1001MOL0     C35016   3.560   6.803   4.050  0.2113 -0.4085  0.2256
 1001MOL0     N35017   3.659   6.711   4.075  0.5813  0.4305  0.7908
 1001MOL0     C35018   3.794   6.715   4.045  0.2850  0.1813  0.4087
 1001MOL0     C35019   3.842   6.590   4.096 -0.1745 -0.1737 -0.2981
 1001MOL0     C35020   3.985   6.550   4.112 -0.3840  0.2553 -0.1700
 1001MOL0     C35021   4.090   6.617   4.006  0.8189  1.3636  0.2028
 1001MOL0     C35022   4.229   6.617   4.050 -0.2706 -0.6049  0.3942
 1001MOL0     C35023   4.319   6.701   3.956 -0.8666  0.5228  0.2078
 1001MOL0     O35024   4.432   6.741   4.044 -0.3982 -0.3426  0.0285
 1001MOL0     C35025   4.537   6.808   3.981  0.1890  0.0057  0.3750
 1001MOL0     C35026   4.640   6.844   4.063  0.1706 -0.7266  0.4827
 1001MOL0     C35027   4.760   6.906   4.021 -0.4587  0.1248  0.2290
 1001MOL0     C35028   4.777   6.925   3.879  0.2448 -0.4607 -0.3817
 1001MOL0     C35029   4.904   6.977   3.832  0.3914 -0.6496 -0.0778
 1001MOL0     O35030   4.992   7.025   3.927 -0.0107 -0.2271 -0.2011
 1001MOL0     C35031   5.110   7.077   3.881 -0.1716 -0.8169  0.6008
 1001MOL0     C35032   5.128   7.164   3.763  0.6771  0.5389  0.3818
 1001MOL0     C35033   5.251   7.212   3.721  0.1737 -1.0654  0.2722
 1001MOL0     C35034   5.367   7.190   3.802  0.5245 -0.1525 -0.2329
 1001MOL0     O35035   5.480   7.258   3.770  0.4603 -0.3677  0.3294
 1001MOL0     C35036   5.597   7.249   3.857  0.2340  0.0676  0.4589
 1001MOL0     C35037   5.691   7.129   3.815 -0.7353 -0.2310  1.0083
 1001MOL0     C35038   5.813   7.112   3.912  0.1548 -0.0588 -0.4984
 1001MOL0     C35039   5.915   7.213   3.877  0.4923  0.6665 -0.0985
 1001MOL0     C35040   6.046   7.192   3.942  1.0653 -0.5939  0.0251
 1001MOL0     C35041   6.148   7.303   3.911 -0.5093  0.7788 -0.9153
 1001MOL0     C35042   6.186   7.318   3.763  0.3226  1.4109 -0.0369
 1001MOL0     C35043   6.302   7.420   3.737  0.7249 -0.4037  0.9164
 1001MOL0    Cl35044   6.452   7.350   3.773  0.1869  0.7675 -0.2233
 1001MOL0     C35045   5.351   7.110   3.921 -0.2622  0.6385  0.9275
 1001MOL0     C35046   5.221   7.058   3.967 -0.3937 -0.0431  0.1262
 1001MOL0     O35047   4.914   6.978   3.703  0.3773 -0.3451  0.1076
 1001MOL0     C35048   4.673   6.874   3.795  0.2507  0.2491  0.1193
 1001MOL0     C35049   4.548   6.821   3.838 -0.5900 -0.6479  0.0034
 1001MOL0     N35050   3.738   6.531   4.170  1.1122 -0.0733  0.2857
 1001MOL0     N35051   3.636   6.610   4.158 -0.0217  0.1906 -0.6205
 1001MOL0     C35052   2.929   7.270   3.418 -0.4196 -0.3866 -0.0037
 1001MOL0     C35053   2.858   7.274   3.303 -0.3912 -0.5383  0.9727
 1001MOL0     C35054   2.589   7.343   2.964  0.5627 -1.3584  0.3366
 1001MOL0     C35055   2.490   7.242   2.972  1.1127  0.1809  0.1040
 1001MOL0     C35056   2.394   7.226   2.878  0.2806 -0.0869 -0.5479
 1001MOL0     C35057   2.391   7.317   2.766 -0.1219 -0.2847  1.3899
 1001MOL0     O35058   2.293   7.312   2.667 -0.6054 -0.0966 -0.2318
 1001MOL0     C35059   2.175   7.235   2.685  0.2167  0.6132  0.4778
 1001MOL0     C35060   2.192   7.118   2.584 -0.3602  0.0774 -0.4500
 1001MOL0     C35061   2.181   7.157   2.431  0.6147 -0.3787 -0.2013
 1001MOL0     C35062   2.287   7.083   2.346 -0.1582 -0.2118  0.1729
 1001MOL0     C35063   2.262   6.942   2.342 -0.3858  0.6463  1.0257
 1001MOL0     C35064   2.249   6.817   2.326 -0.4707 -0.4679 -0.2293
 1001MOL0     C35065   2.482   7.418   2.747 -0.3008 -0.6861 -1.0605
 1001MOL0     C35066   2.586   7.434   2.846 -0.0700 -0.6876  0.1007
 1001MOL0     C35067   2.691   7.536   2.815 -0.6471 -0.0657 -0.4524
 1001MOL0     H35068   2.557   7.370   3.422 -0.5081 -0.9345  2.0085
 1001MOL0     H35069   2.701   7.371   3.641  1.0249  0.5832 -0.5865
 1001MOL0     H35070   3.068   7.149   3.643 -4.3290 -0.0003  0.0272
 1001MOL0     H35071   3.157   7.302   3.598  0.3200 -1.4083 -0.4249
 1001MOL0     H35072   3.073   7.255   3.894 -0.0595  1.2181  0.0434
 1001MOL0     H35073   3.159   7.380   3.833 -2.5658  0.0404  1.1501
 1001MOL0     H35074   3.306   7.217   3.946 -1.5446  2.5171  0.4982
 1001MOL0     H35075   3.357   7.232   3.783 -1.3050  1.2376  0.0666
 1001MOL0     H35076   3.168   7.040   3.919  0.6241  1.2587  1.3467
 1001MOL0     H35077   3.196   7.009   3.749  0.8405  1.0645 -0.4514
 1001MOL0     H35078   3.446   6.965   3.793 -0.3657 -2.7765  0.6311
 1001MOL0     H35079   3.416   7.026   3.957  4.9067  3.1081 -3.0469
 1001MOL0     H35080   3.278   6.835   4.010 -3.1503  0.5796 -1.9369
 1001MOL0     H35081   3.275   6.780   3.849 -0.1648 -0.5527  1.2288
 1001MOL0     H35082   3.539   6.778   3.849 -0.7800  0.3894 -0.3716
 1001MOL0     H35083   3.458   6.651   3.951  1.3282 -0.6726  2.0801
 1001MOL0     H35084   3.619   6.892   4.025  0.7129  0.0769  2.7887
 1001MOL0     H35085   3.492   6.826   4.133 -0.6409 -3.2568  0.4166
 1001MOL0     H35086   3.858   6.798   4.016  0.2871 -0.8364 -2.9112
 1001MOL0     H35087   4.024   6.583   4.208  2.7491 -2.4721 -0.3073
 1001MOL0     H35088   3.997   6.442   4.111  2.3655  0.4824 -0.1946
 1001MOL0     H35089   4.084   6.563   3.910 -1.4491 -0.4415  1.2639
 1001MOL0     H35090   4.061   6.721   3.992 -0.3488  0.9824 -0.3314
 1001MOL0     H35091   4.260   6.512   4.039 -0.5582 -0.5878 -0.7272
 1001MOL0     H35092   4.229   6.649   4.155 -2.4449 -0.3392  0.3702
 1001MOL0     H35093   4.280   6.786   3.900  2.0186  2.0331  0.3351
 1001MOL0     H35094   4.360   6.640   3.876 -0.4226 -1.5200  1.9033
 1001MOL0     H35095   4.620   6.806   4.163  0.1946 -2.7329 -0.2314
 1001MOL0     H35096   4.840   6.922   4.092  1.6969 -1.0613 -1.7721
 1001MOL0     H35097   5.049   7.187   3.692 -0.6937  0.6394  1.8704
 1001MOL0     H35098   5.260   7.273   3.631  2.6773 -1.4981  0.1642
 1001MOL0     H35099   5.646   7.344   3.834 -0.0580 -0.9445 -6.7543
 1001MOL0     H35100   5.563   7.251   3.961  0.5463  0.5451  0.5586
 1001MOL0     H35101   5.630   7.038   3.823 -1.9762  0.5979  1.2632
 1001MOL0     H35102   5.725   7.135   3.712  0.7477  0.4858  1.5139
 1001MOL0     H35103   5.783   7.131   4.016 -1.9039  2.7766 -1.4957
 1001MOL0     H35104   5.832   7.005   3.905 -2.3575 -0.6972  1.1069
 1001MOL0     H35105   5.892   7.315   3.909  1.2725  0.8384 -0.0549
 1001MOL0     H35106   5.922   7.221   3.768 -3.0639  3.0968 -0.3062
 1001MOL0     H35107   6.081   7.092   3.913 -3.8168 -3.7806  3.6635
 1001MOL0     H35108   6.043   7.185   4.051 -3.5138 -2.1849 -0.0161
 1001MOL0     H35109   6.120   7.403   3.947 -3.4850  0.1087 -1.0895
 1001MOL0     H35110   6.242   7.275   3.960 -2.0214  0.0042  1.7748
 1001MOL0     H35111   6.102   7.359   3.706 -2.0743 -2.2187  0.5624
 1001MOL0     H35112   6.208   7.218   3.723  1.5988  1.6097  0.1351
 1001MOL0     H35113   6.287   7.471   3.641 -4.5148  0.1025  1.7196
 1001MOL0     H35114   6.296   7.496   3.816  2.2609 -0.9957  1.6444
 1001MOL0     H35115   5.435   7.098   3.989  0.8754  1.4928 -0.2846
 1001MOL0     H35116   5.203   7.023   4.068 -2.4552 -1.7800 -0.7462
 1001MOL0     H35117   4.691   6.889   3.689  0.2975  0.6349  0.1809
 1001MOL0     H35118   4.483   6.790   3.757  0.3988 -1.8265 -0.3758
 1001MOL0     H35119   3.035   7.248   3.414 -0.3440  0.1210 -1.7002
 1001MOL0     H35120   2.904   7.258   3.207 -0.5720  2.3706  0.3142
 1001MOL0     H35121   2.486   7.177   3.059  0.6747 -0.3213 -0.2843
 1001MOL0     H35122   2.331   7.144   2.911 -2.8371  2.0545 -0.7607
 1001MOL0     H35123   2.083   7.286   2.653 -0.6231 -0.5178  1.0273
 1001MOL0     H35124   2.167   7.193   2.786 -1.3060 -1.0952 -0.2856
 1001MOL0     H35125   2.105   7.057   2.611 -1.4864  1.0938 -1.6819
 1001MOL0     H35126   2.290   7.074   2.605  1.0962  1.9281 -2.9320
 1001MOL0     H35127   2.188   7.264   2.411 -1.8797  0.1169  1.2241
 1001MOL0     H35128   2.082   7.124   2.399  0.9430 -2.5233  0.8414
 1001MOL0     H35129   2.309   7.129   2.249 -1.0469  1.0019  0.5338
 1001MOL0     H35130   2.377   7.103   2.405 -0.9230  1.3223  0.8667
 1001MOL0     H35131   2.246   6.710   2.322 -0.6073 -0.4279 -2.0809
 1001MOL0     H35132   2.470   7.484   2.662  0.1442 -0.5759 -1.0402
 1001MOL0     H35133   2.781   7.493   2.771 -2.0292 -1.0943 -2.4237
 1001MOL0     H35134   2.647   7.608   2.746 -3.8989 -2.1645 -0.7651
 1001MOL0     H35135   2.720   7.588   2.907 -1.8627  4.1102 -2.2044
 1002MOL0     O35136   2.746  10.272   6.331  0.0304  0.2033 -0.2093
 1002MOL0     C35137   2.740  10.378   6.395 -0.9271 -0.1675 -0.1282
 1002MOL0     O35138   2.633  10.463   6.403  0.3399  0.1420  0.5468
 1002MOL0     C35139   2.520  10.413   6.344 -0.6287  0.1549  0.5976
 1002MOL0     C35140   2.436  10.326   6.417  0.5161  0.4803  0.0228
 1002MOL0     C35141   2.312  10.283   6.359  1.1845 -1.0886 -0.1941
 1002MOL0     C35142   2.272  10.344   6.239  0.5605  0.4330  0.4584
 1002MOL0     O35143   2.153  10.321   6.171 -0.0405 -0.2337 -0.1264
 1002MOL0     C35144   2.092  10.194   6.188 -0.6962 -0.5784 -0.3594
 1002MOL0     C35145   1.970  10.194   6.097  0.4581  0.2614 -0.2044
 1002MOL0     C35146   1.993  10.161   5.954 -0.9960  0.4486  0.4031
 1002MOL0     C35147   1.866  10.182   5.864  0.2268  0.0412  0.2205
 1002MOL0     C35148   1.905  10.150   5.722  0.0602  0.6553 -0.1117
 1002MOL0     C35149   1.980  10.261   5.649  0.3816  0.5149 -0.1907
 1002MOL0     C35150   2.018  10.218   5.510 -0.4361 -0.8156  0.1524
 1002MOL0     C35151   2.106  10.101   5.493  0.1574  0.0537  0.5099
 1002MOL0     N35152   2.237  10.108   5.557  0.3750  0.2569 -0.1538
 1002MOL0     C35153   2.279  10.030   5.670 -0.4563 -0.6906  0.7042
 1002MOL0     C35154   2.413  10.073   5.685  0.2472 -0.0366  0.3909
 1002MOL0     C35155   2.512  10.027   5.800  0.3446 -0.6449 -0.0568
 1002MOL0     C35156   2.546  10.145   5.894 -0.2602  0.8048 -0.2561
 1002MOL0     C35157   2.574  10.100   6.039 -0.3309 -0.7939 -0.1642
 1002MOL0     C35158   2.683  10.001   6.067 -0.4454  0.0754 -1.2101
 1002MOL0     O35159   2.798  10.042   6.000 -0.0770 -0.1706 -0.3508
 1002MOL0     C35160   2.921   9.991   6.052 -0.0164 -0.4688 -0.4950
 1002MOL0     C35161   3.010   9.941   5.949  0.4013 -0.6627 -0.2170
 1002MOL0     C35162   3.135   9.896   5.985 -0.3605 -0.6723  0.7230
 1002MOL0     C35163   3.172   9.887   6.124 -0.7864  0.6511  0.1397
 1002MOL0     C35164   3.312   9.854   6.157 -1.0810 -0.3954 -0.4133
 1002MOL0     O35165   3.403   9.842   6.055 -0.2508  0.1443  0.7922
 1002MOL0     C35166   3.533   9.817   6.086 -0.2334  0.4480 -0.8473
 1002MOL0     C35167   3.636   9.900   6.040  0.2539  0.5288  0.5305
 1002MOL0     C35168   3.761   9.879   6.078 -0.2942  1.0778  0.2693
 1002MOL0     C35169   3.794   9.779   6.169  0.6451  0.9702 -0.7035
 1002MOL0     O35170   3.911   9.783   6.228 -1.1917 -0.0155  0.9631
 1002MOL0     C35171   3.954   9.690   6.328 -0.6634  0.0103 -0.7791
 1002MOL0     C35172   3.908   9.719   6.476  1.0414  0.0965  0.4650
 1002MOL0     C35173   3.902   9.863   6.506  1.5731 -0.9664  0.2624
 1002MOL0     C35174   3.890   9.891   6.657 -0.6546  0.4822  0.1765
 1002MOL0     C35175   3.901  10.040   6.692 -0.1846  1.2255 -0.0344
 1002MOL0     C35176   3.911  10.059   6.840 -0.9715 -0.3826 -0.5625
 1002MOL0     C35177   3.861  10.202   6.881  0.0192 -1.7901 -0.0176
 1002MOL0     C35178   3.813  10.207   7.024 -0.0685 -0.2103 -0.2819
 1002MOL0    Cl35179   3.714  10.351   7.061 -0.3206 -0.1462  0.1922
 1002MOL0     C35180   3.699   9.683   6.206 -0.3819  0.7165  0.8525
 1002MOL0     C35181   3.565   9.705   6.167  0.1422 -0.4738 -0.8084
 1002MOL0     O35182   3.336   9.860   6.279  0.2895 -0.2248  0.0023
 1002MOL0     C35183   3.081   9.934   6.224 -0.0620 -0.1934  1.1679
 1002MOL0     C35184   2.966   9.991   6.185  0.3981  0.1375  0.3813
 1002MOL0     N35185   2.441  10.165   5.592 -0.0891 -0.3152 -0.5990
 1002MOL0     N35186   2.340  10.190   5.519  0.4049  0.2545 -0.0283
 1002MOL0     C35187   2.361  10.422   6.168 -1.1397 -0.4688 -0.1794
 1002MOL0     C35188   2.490  10.456   6.215  0.6103 -0.7894  0.8343
 1002MOL0     C35189   2.854  10.419   6.486 -0.0433  0.1641 -0.1556
 1002MOL0     C35190   2.827  10.504   6.598  0.0386 -0.4723  0.6125
 1002MOL0     C35191   2.913  10.522   6.703 -0.4989 -0.8447 -0.5948
 1002MOL0     C35192   3.036  10.469   6.702 -0.3287  0.7618  0.1008
 1002MOL0     O35193   3.110  10.487   6.814 -0.4101 -0.1708 -0.7683
 1002MOL0     C35194   3.204  10.388   6.857  0.3833  0.3063  0.2499
 1002MOL0     C35195   3.179  10.368   7.005  0.3312 -0.4441  0.3265
 1002MOL0     C35196   3.197  10.495   7.091  0.3249 -0.1459  0.3304
 1002MOL0     C35197   3.349  10.533   7.122 -0.1286  0.5166 -0.0088
 1002MOL0     C35198   3.418  10.439   7.206 -0.2665  0.3154 -0.0525
 1002MOL0     C35199   3.497  10.390   7.286  0.5523  0.1420  0.2969
 1002MOL0     C35200   3.071  10.392   6.587 -0.6806  0.5838 -0.4858
 1002MOL0     C35201   2.980  10.350   6.482 -0.2063 -1.5295 -0.7940
 1002MOL0     C35202   3.039  10.280   6.371  0.5745  0.1452 -0.4890
 1002MOL0     H35203   2.454  10.284   6.516 -1.2390 -0.4415 -0.0097
 1002MOL0     H35204   2.249  10.216   6.417  0.6481 -2.9847 -2.7797
 1002MOL0     H35205   2.164  10.114   6.166  0.9560  0.7050  0.1550
 1002MOL0     H35206   2.070  10.173   6.293  1.8795 -0.8752  0.2072
 1002MOL0     H35207   1.909  10.284   6.110 -2.6298 -2.0695  4.2990
 1002MOL0     H35208   1.901  10.115   6.128  0.5547  1.4387  3.4454
 1002MOL0     H35209   2.017  10.054   5.952  1.4135  0.8862  1.8727
 1002MOL0     H35210   2.078  10.221   5.920  0.3763 -3.7352 -5.1685
 1002MOL0     H35211   1.792  10.116   5.911 -1.0685  0.1827 -1.5330
 1002MOL0     H35212   1.823  10.282   5.873 -2.8522 -1.1992  0.4131
 1002MOL0     H35213   1.949  10.050   5.724 -0.2197  0.5372  0.2526
 1002MOL0     H35214   1.811  10.148   5.667  1.6780  0.9307 -3.0985
 1002MOL0     H35215   1.917  10.349   5.639 -0.4713 -0.1306 -0.5705
 1002MOL0     H35216   2.066  10.304   5.701  0.2938  2.5028 -1.5624
 1002MOL0     H35217   2.061  10.302   5.456  1.1685 -1.6716  0.0433
 1002MOL0     H35218   1.920  10.199   5.466  0.2859 -0.3283 -1.7672
 1002MOL0     H35219   2.060  10.013   5.538 -0.9651 -1.0590 -2.5024
 1002MOL0     H35220   2.118  10.068   5.389  0.6561 -0.1002  0.6152
 1002MOL0     H35221   2.222   9.965   5.736 -2.2503  0.5476  0.4577
 1002MOL0     H35222   2.467   9.946   5.858 -1.4822 -2.2283 -3.4558
 1002MOL0     H35223   2.607   9.990   5.762  0.5716  1.6470 -1.9793
 1002MOL0     H35224   2.632  10.195   5.849  0.9413 -0.9977 -0.1027
 1002MOL0     H35225   2.464  10.215   5.913  2.3406  3.5240  1.9893
 1002MOL0     H35226   2.479  10.063   6.080  0.8278 -2.5951  1.0228
 1002MOL0     H35227   2.592  10.194   6.091 -0.3518  0.5558 -2.4654
 1002MOL0     H35228   2.650   9.900   6.042 -1.4652  0.5594 -1.9177
 1002MOL0     H35229   2.694  10.022   6.174 -0.2430  1.4348 -1.4729
 1002MOL0     H35230   2.967   9.926   5.851  1.3818 -0.6677 -0.6598
 1002MOL0     H35231   3.197   9.865   5.902 -3.5964 -1.6534 -1.5400
 1002MOL0     H35232   3.609   9.977   5.969  0.1489 -0.4230 -0.4829
 1002MOL0     H35233   3.832   9.956   6.050 -0.8275  1.1447 -0.9535
 1002MOL0     H35234   3.936   9.585   6.303  0.5484 -0.9652  2.0061
 1002MOL0     H35235   4.062   9.703   6.327 -0.7751  2.0287  2.1937
 1002MOL0     H35236   3.808   9.676   6.479  1.1143 -0.2298  4.4693
 1002MOL0     H35237   3.958   9.668   6.559  0.1744 -1.2625  0.1716
 1002MOL0     H35238   3.985   9.918   6.461 -0.7870  3.8450  1.1536
 1002MOL0     H35239   3.810   9.900   6.459  2.2303  0.2800 -0.0681
 1002MOL0     H35240   3.977   9.846   6.707 -1.0924 -1.1937 -0.4991
 1002MOL0     H35241   3.797   9.855   6.700 -0.2308  1.7760  2.2979
 1002MOL0     H35242   3.810  10.092   6.660 -0.7187  0.4530  0.1935
 1002MOL0     H35243   3.989  10.082   6.643 -0.1503  1.0873 -0.0913
 1002MOL0     H35244   3.846   9.987   6.890  1.5422 -0.6320  2.6652
 1002MOL0     H35245   4.013  10.029   6.868 -0.6849  0.6337 -0.4859
 1002MOL0     H35246   3.775  10.236   6.822  0.1585 -0.1623  0.6562
 1002MOL0     H35247   3.943  10.275   6.882 -1.8229  0.5116  3.4046
 1002MOL0     H35248   3.754  10.116   7.042 -0.6448  0.5979  2.3448
 1002MOL0     H35249   3.890  10.191   7.101 -0.1373 -0.0949 -0.1888
 1002MOL0     H35250   3.732   9.595   6.259  2.4612 -0.4086 -2.4250
 1002MOL0     H35251   3.481   9.637   6.184  0.4122 -0.6031  0.0170
 1002MOL0     H35252   3.116   9.954   6.324  2.0549  0.2350  0.3936
 1002MOL0     H35253   2.900  10.034   6.260 -0.7973 -1.2007  0.1454
 1002MOL0     H35254   2.340  10.445   6.064 -1.4441 -1.9530 -0.4782
 1002MOL0     H35255   2.564  10.514   6.161 -2.9023  2.5131 -0.9212
 1002MOL0     H35256   2.727  10.546   6.596 -0.0031 -0.5937  0.0218
 1002MOL0     H35257   2.889  10.587   6.786  2.0219  1.3039 -1.4354
 1002MOL0     H35258   3.308  10.418   6.842  0.4162 -0.3507 -0.9680
 1002MOL0     H35259   3.200  10.293   6.803 -3.7833  1.5533 -1.9913
 1002MOL0     H35260   3.250  10.295   7.046  0.3132 -1.3566 -1.2142
 1002MOL0     H35261   3.083  10.318   7.022  0.3317 -0.5014  0.1571
 1002MOL0     H35262   3.144  10.490   7.186  0.2569  2.6407  0.5066
 1002MOL0     H35263   3.151  10.583   7.045 -0.5097 -1.5653 -1.7032
 1002MOL0     H35264   3.419  10.537   7.038  2.4328  0.2348  1.9513
 1002MOL0     H35265   3.340  10.634   7.164 -2.7790 -0.0363  0.8948
 1002MOL0     H35266   3.572  10.352   7.352 -0.8622 -0.7450  1.4417
 1002MOL0     H35267   3.168  10.342   6.584  0.7340  3.1134  0.1718
 1002MOL0     H35268   3.052  10.178   6.409  1.7853  1.4907  3.0963
 1002MOL0     H35269   2.988  10.280   6.274  0.1984  1.6296 -0.3137
 1002MOL0     H35270   3.141  10.313   6.352  1.3263 -1.7495  0.0085
 1003MOL0     O35271   5.891   3.797   3.724  0.4073 -1.2005  0.4023
 1003MOL0     C35272   5.994   3.839   3.772  0.2018  0.6990 -0.1659
 1003MOL0     O35273   6.015   3.866   3.904  0.1732 -0.2107  0.1190
 1003MOL0     C35274   5.904   3.853   3.983 -0.2485 -0.0051  0.5734
 1003MOL0     C35275   5.860   3.722   4.026 -0.8004  0.3333 -0.0144
 1003MOL0     C35276   5.742   3.705   4.100  0.1754 -0.5846  0.9276
 1003MOL0     C35277   5.663   3.812   4.123 -0.6222  0.2428 -0.0751
 1003MOL0     O35278   5.548   3.789   4.187  0.2878  0.6335 -0.0136
 1003MOL0     C35279   5.463   3.901   4.211  0.5299 -0.8202  0.2938
 1003MOL0     C35280   5.354   3.929   4.103 -0.1813  1.2825 -1.0797
 1003MOL0     C35281   5.249   4.026   4.155  0.8106 -0.1574 -0.7745
 1003MOL0     C35282   5.182   4.120   4.049 -0.2626  0.4793  0.1552
 1003MOL0     C35283   5.281   4.223   3.983  0.1427  0.5712  0.1999
 1003MOL0     C35284   5.316   4.332   4.086  0.0416  0.9694 -0.2885
 1003MOL0     C35285   5.441   4.398   4.037 -0.7051  0.4328  0.3567
 1003MOL0     C35286   5.515   4.486   4.133 -0.3813  0.3768 -0.2113
 1003MOL0     N35287   5.598   4.428   4.235  0.1437  1.2154 -0.3453
 1003MOL0     C35288   5.559   4.349   4.341  0.7465 -0.2210  0.3977
 1003MOL0     C35289   5.667   4.314   4.407  0.8985  0.0209  0.0780
 1003MOL0     C35290   5.666   4.248   4.543 -0.1373  0.5363  1.1197
 1003MOL0     C35291   5.617   4.109   4.542 -0.3258  0.1729  0.4105
 1003MOL0     C35292   5.618   4.042   4.679 -0.5591 -0.5416 -0.6296
 1003MOL0     C35293   5.710   3.920   4.689  0.3014  0.6023 -0.1277
 1003MOL0     O35294   5.658   3.825   4.601  0.3211  0.7445 -0.7074
 1003MOL0     C35295   5.725   3.709   4.580  0.0643 -0.2263 -0.3203
 1003MOL0     C35296   5.831   3.662   4.659  0.1329 -0.3521 -0.6671
 1003MOL0     C35297   5.886   3.531   4.631 -0.1488 -0.5461  0.2056
 1003MOL0     C35298   5.828   3.453   4.531  0.1548 -0.1951 -0.3234
 1003MOL0     C35299   5.879   3.315   4.500  0.5561 -0.6273 -0.6449
 1003MOL0     O35300   5.967   3.276   4.592  0.5071  0.1881  0.1048
 1003MOL0     C35301   6.014   3.150   4.595  0.6158  0.3918  0.6004
 1003MOL0     C35302   6.011   3.076   4.723 -0.1516 -0.2696  0.4570
 1003MOL0     C35303   6.092   2.957   4.737  0.1012  0.3635  1.1272
 1003MOL0     C35304   6.157   2.903   4.624 -0.5907  0.0800  0.1271
 1003MOL0     O35305   6.226   2.786   4.629 -1.0121  0.2464  0.3275
 1003MOL0     C35306   6.201   2.691   4.735 -0.5174  0.4267  0.8689
 1003MOL0     C35307   6.331   2.612   4.741 -0.5109 -0.2640 -0.2274
 1003MOL0     C35308   6.354   2.550   4.885 -0.1469  0.4272  0.4063
 1003MOL0     C35309   6.496   2.470   4.888 -0.2900 -0.3575  0.4778
 1003MOL0     C35310   6.595   2.567   4.951 -0.7816 -0.1613  0.1277
 1003MOL0     C35311   6.727   2.492   4.952 -1.0797 -0.2063  0.6670
 1003MOL0     C35312   6.851   2.569   5.008  0.4683  0.8154 -0.2536
 1003MOL0     C35313   6.898   2.681   4.909 -0.0571 -0.6343 -0.5070
 1003MOL0    Cl35314   7.007   2.793   4.983  0.1751  0.2451 -0.1032
 1003MOL0     C35315   6.156   2.977   4.506 -0.3484 -0.3631  0.2193
 1003MOL0     C35316   6.095   3.106   4.496 -0.5049  0.1209 -0.3858
 1003MOL0     O35317   5.829   3.247   4.407 -0.0684  0.4507  0.6688
 1003MOL0     C35318   5.724   3.510   4.452 -0.5386 -0.4563  0.0952
 1003MOL0     C35319   5.668   3.633   4.479 -0.6176  0.0793 -0.2289
 1003MOL0     N35320   5.781   4.361   4.329  0.0557 -0.0645 -0.3126
 1003MOL0     N35321   5.738   4.432   4.232  0.1077  0.6892  0.2404
 1003MOL0     C35322   5.701   3.939   4.072 -0.6463 -0.2471  0.1202
 1003MOL0     C35323   5.826   3.957   4.005  1.0462 -0.3386  0.2376
 1003MOL0     C35324   6.109   3.861   3.676  0.1596  0.8455 -0.5570
 1003MOL0     C35325   6.237   3.851   3.736  0.4793 -0.0812 -0.7139
 1003MOL0     C35326   6.352   3.867   3.662 -0.9309  0.8325 -0.1891
 1003MOL0     C35327   6.341   3.870   3.522 -0.1826  0.2011 -0.4823
 1003MOL0     O35328   6.444   3.874   3.437 -0.0107 -0.3300  0.4761
 1003MOL0     C35329   6.581   3.869   3.481  0.3026 -0.4070  0.1438
 1003MOL0     C35330   6.673   3.880   3.349 -0.1353 -1.0159 -0.7077
 1003MOL0     C35331   6.639   3.769   3.248 -0.1365  0.2040 -0.4195
 1003MOL0     C35332   6.720   3.755   3.116  0.2282  0.6664  0.0719
 1003MOL0     C35333   6.847   3.682   3.107  0.4486 -0.4388  1.4871
 1003MOL0     C35334   6.949   3.605   3.110  0.1629 -0.0778  0.8938
 1003MOL0     C35335   6.215   3.880   3.466  0.5789  0.3853 -0.0372
 1003MOL0     C35336   6.097   3.885   3.545 -0.5022  0.2509  0.7963
 1003MOL0     C35337   5.970   3.910   3.469  0.5955 -0.6571  0.1469
 1003MOL0     H35338   5.923   3.636   4.007  1.9918  2.0809  0.8420
 1003MOL0     H35339   5.705   3.610   4.138 -0.9843 -1.9050 -3.0639
 1003MOL0     H35340   5.390   3.877   4.289 -1.0430  1.2815 -0.4136
 1003MOL0     H35341   5.518   3.985   4.253  1.0754 -1.2874  0.5302
 1003MOL0     H35342   5.305   3.832   4.085  1.0322  0.5877 -0.7587
 1003MOL0     H35343   5.402   3.964   4.011  0.1540 -0.3210 -1.5574
 1003MOL0     H35344   5.300   4.092   4.226  1.1402 -1.8339  0.6155
 1003MOL0     H35345   5.169   3.978   4.212  0.5784 -1.7381 -2.3260
 1003MOL0     H35346   5.147   4.068   3.960  0.5427  0.3003 -0.0668
 1003MOL0     H35347   5.091   4.169   4.084  0.5044  0.6318  2.0461
 1003MOL0     H35348   5.356   4.159   3.935  0.2940  0.1261  1.0076
 1003MOL0     H35349   5.237   4.265   3.893  1.0539  0.6050 -0.2442
 1003MOL0     H35350   5.228   4.396   4.099  1.6199  2.8604  1.8682
 1003MOL0     H35351   5.341   4.288   4.183 -1.3883  0.4029 -0.1587
 1003MOL0     H35352   5.409   4.453   3.948  1.5486  0.7561 -0.3118
 1003MOL0     H35353   5.506   4.316   4.006 -1.3723 -0.6966  1.8128
 1003MOL0     H35354   5.581   4.546   4.070  0.1756  0.2259  0.2202
 1003MOL0     H35355   5.436   4.546   4.180  1.9438  1.7048  2.3363
 1003MOL0     H35356   5.459   4.342   4.383  0.0146 -0.5821 -1.3146
 1003MOL0     H35357   5.765   4.240   4.589 -0.1332  2.6418  1.5577
 1003MOL0     H35358   5.597   4.310   4.602  0.1883  0.9918  1.0199
 1003MOL0     H35359   5.510   4.114   4.522 -0.3883 -1.6113  0.1649
 1003MOL0     H35360   5.661   4.048   4.462  2.3297 -1.2923  2.8207
 1003MOL0     H35361   5.516   4.014   4.708 -0.4692 -1.3240 -1.0414
 1003MOL0     H35362   5.655   4.118   4.749  0.0832 -0.1949 -1.3272
 1003MOL0     H35363   5.706   3.880   4.791 -1.0036 -0.7862 -0.6935
 1003MOL0     H35364   5.814   3.942   4.664  1.0771 -1.4681  1.0397
 1003MOL0     H35365   5.870   3.722   4.741 -0.9177 -0.9948  0.3310
 1003MOL0     H35366   5.970   3.504   4.695 -0.0899 -2.0328 -0.4699
 1003MOL0     H35367   5.964   3.136   4.800  0.2695 -1.0048  1.3119
 1003MOL0     H35368   6.098   2.907   4.833  3.3925 -0.4643  0.6050
 1003MOL0     H35369   6.187   2.734   4.835 -0.6937  6.5664 -1.3535
 1003MOL0     H35370   6.117   2.625   4.711  1.3475 -1.3338 -1.2983
 1003MOL0     H35371   6.343   2.528   4.672 -0.9101 -0.2373 -0.3274
 1003MOL0     H35372   6.414   2.680   4.720 -1.2332  0.9323  0.6699
 1003MOL0     H35373   6.352   2.628   4.961  0.2993  0.3170  0.5363
 1003MOL0     H35374   6.274   2.478   4.899 -0.5368  0.3915 -1.6279
 1003MOL0     H35375   6.526   2.458   4.783 -1.0083 -1.0871  0.3470
 1003MOL0     H35376   6.483   2.369   4.928 -0.6839 -2.6030 -4.4861
 1003MOL0     H35377   6.573   2.581   5.058  0.0498 -0.0146  0.2834
 1003MOL0     H35378   6.607   2.654   4.887 -0.0409 -1.1125 -1.0795
 1003MOL0     H35379   6.724   2.400   5.010 -0.1838  0.7150  2.2219
 1003MOL0     H35380   6.755   2.462   4.850  3.0622  2.9564  0.6011
 1003MOL0     H35381   6.931   2.494   5.014  1.4912  1.8538 -0.4787
 1003MOL0     H35382   6.821   2.613   5.103  0.0995  1.2271 -0.5594
 1003MOL0     H35383   6.958   2.648   4.824  2.2448  1.9776 -0.0392
 1003MOL0     H35384   6.803   2.725   4.878 -1.8052 -1.8445  2.6511
 1003MOL0     H35385   6.218   2.945   4.423 -0.9654 -5.2619  1.3352
 1003MOL0     H35386   6.112   3.167   4.408 -1.4802  0.1202 -0.5813
 1003MOL0     H35387   5.686   3.467   4.360  1.0893  0.4755 -1.0624
 1003MOL0     H35388   5.581   3.666   4.423 -1.4683  1.3164  1.7332
 1003MOL0     H35389   5.639   4.027   4.081 -0.5339 -0.1941  0.3647
 1003MOL0     H35390   5.859   4.050   3.960  0.0047  0.4855  1.1299
 1003MOL0     H35391   6.239   3.841   3.844  2.1832 -0.7201 -0.7875
 1003MOL0     H35392   6.445   3.862   3.717 -1.1439 -1.2166  0.0481
 1003MOL0     H35393   6.606   3.774   3.529 -0.9936 -0.9054 -0.1181
 1003MOL0     H35394   6.599   3.957   3.543 -0.0546  1.0959 -1.7627
 1003MOL0     H35395   6.778   3.877   3.382  0.0454  3.8410 -0.2417
 1003MOL0     H35396   6.662   3.976   3.300  1.1446 -0.0564  0.7785
 1003MOL0     H35397   6.538   3.793   3.213  0.3771  1.1982 -1.2801
 1003MOL0     H35398   6.638   3.674   3.301  0.9865  0.4052 -0.0113
 1003MOL0     H35399   6.656   3.697   3.049  0.4164  0.6457 -0.0923
 1003MOL0     H35400   6.730   3.859   3.083  4.3190  0.5983  0.5680
 1003MOL0     H35401   7.032   3.543   3.137 -0.5104 -1.0483  0.7943
 1003MOL0     H35402   6.212   3.884   3.357  0.9601  0.7524 -0.0367
 1003MOL0     H35403   5.892   3.834   3.477 -1.9757  1.8108  0.0368
 1003MOL0     H35404   5.927   3.995   3.524 -0.3686 -0.8147 -0.3422
 1003MOL0     H35405   5.986   3.940   3.365 -3.3189  0.8782 -0.1849
 1004MOL0     O35406   6.864   7.148  10.008  0.7633 -0.2680 -0.2621
 1004MOL0     C35407   6.749   7.172   9.967  0.6665 -1.1537  0.0364
 1004MOL0     O35408   6.639   7.165  10.046  0.4228  0.6794  0.0052
 1004MOL0     C35409   6.661   7.111  10.168  0.1437 -0.7140  0.0962
 1004MOL0     C35410   6.708   7.184  10.275  0.8723 -0.2280 -0.3533
 1004MOL0     C35411   6.703   7.132  10.406 -0.8674 -0.2433 -0.0499
 1004MOL0     C35412   6.689   6.996  10.424 -0.7412 -1.1939 -0.4828
 1004MOL0     O35413   6.691   6.936  10.543 -0.2413  0.7437  0.4001
 1004MOL0     C35414   6.792   6.978  10.637  0.7002  0.0794 -0.2487
 1004MOL0     C35415   6.813   6.872  10.744 -0.5266 -0.6030 -0.2080
 1004MOL0     C35416   6.822   6.726  10.684 -0.0417 -0.8203  0.3372
 1004MOL0     C35417   6.874   6.635  10.789  1.2309 -0.0761  1.0622
 1004MOL0     C35418   7.027   6.645  10.812  0.7037  1.1954 -0.6769
 1004MOL0     C35419   7.079   6.543  10.919 -0.0249 -1.4973  0.0491
 1004MOL0     C35420   7.234   6.525  10.908  0.3118  0.4078  0.2896
 1004MOL0     C35421   7.307   6.637  10.984  0.4020 -0.3265  0.2169
 1004MOL0     N35422   7.445   6.656  10.938 -0.2189  0.9770  0.5253
 1004MOL0     C35423   7.496   6.683  10.813  0.0633 -1.6132 -0.3315
 1004MOL0     C35424   7.611   6.748  10.824 -0.9510  0.0206 -0.6519
 1004MOL0     C35425   7.703   6.794  10.721 -0.4926  0.0514  0.3292
 1004MOL0     C35426   7.628   6.830  10.591  0.2437  0.7160 -0.6423
 1004MOL0     C35427   7.533   6.945  10.586 -0.4547 -0.5378 -0.7675
 1004MOL0     C35428   7.598   7.079  10.606  0.3760  0.2735 -0.4136
 1004MOL0     O35429   7.642   7.104  10.737  0.8550 -0.3459  0.5704
 1004MOL0     C35430   7.754   7.168  10.762 -0.5081 -0.0277 -0.2000
 1004MOL0     C35431   7.807   7.272  10.688  0.6657  0.1002 -0.7316
 1004MOL0     C35432   7.909   7.355  10.733  0.1677 -0.2563  1.4402
 1004MOL0     C35433   7.970   7.333  10.855 -0.2541 -0.6976  0.2945
 1004MOL0     C35434   8.078   7.417  10.898  0.1766  0.5967  0.2254
 1004MOL0     O35435   8.123   7.502  10.806  0.1865  0.2865  0.5304
 1004MOL0     C35436   8.219   7.588  10.848  0.5124 -0.5194  0.6713
 1004MOL0     C35437   8.197   7.726  10.824 -0.5184  0.6030  0.0129
 1004MOL0     C35438   8.303   7.811  10.854 -0.2443  0.4046  0.1437
 1004MOL0     C35439   8.430   7.770  10.892 -0.2003 -0.6293 -0.6748
 1004MOL0     O35440   8.524   7.875  10.899 -0.2646  0.0427 -0.3330
 1004MOL0     C35441   8.591   7.922  10.783 -0.0547  0.9577  0.7277
 1004MOL0     C35442   8.617   8.069  10.822 -0.4255 -0.1986  0.8120
 1004MOL0     C35443   8.707   8.099  10.946  0.2794 -0.3347  0.2955
 1004MOL0     C35444   8.739   8.243  10.956 -0.0200 -0.6495  0.0383
 1004MOL0     C35445   8.831   8.253  11.081  0.0536  0.5852  0.3031
 1004MOL0     C35446   8.908   8.389  11.082  0.4807  0.6875  0.6212
 1004MOL0     C35447   8.974   8.405  11.213  0.2849  0.6570  0.1983
 1004MOL0     C35448   9.108   8.467  11.200  0.2106  0.6377  0.3188
 1004MOL0    Cl35449   9.152   8.509  11.371 -0.3141  0.3247  0.1839
 1004MOL0     C35450   8.454   7.641  10.902 -0.2471  1.1897 -0.1679
 1004MOL0     C35451   8.349   7.552  10.892  0.0821  0.3808  0.4922
 1004MOL0     O35452   8.114   7.401  11.010  0.1239  0.1411  0.0379
 1004MOL0     C35453   7.920   7.227  10.933 -0.3287  0.7546  0.7774
 1004MOL0     C35454   7.821   7.144  10.883 -0.1626  0.5704 -0.5778
 1004MOL0     N35455   7.626   6.774  10.957 -0.4140 -0.2536  0.2598
 1004MOL0     N35456   7.534   6.713  11.027  0.1047 -0.2617  0.4355
 1004MOL0     C35457   6.679   6.922  10.309  0.1325 -0.1477  0.3753
 1004MOL0     C35458   6.651   6.982  10.185  0.5763  0.5131 -0.0402
 1004MOL0     C35459   6.736   7.205   9.824  0.1663  0.0425 -0.4806
 1004MOL0     C35460   6.618   7.163   9.762 -0.9385  0.5416 -0.5603
 1004MOL0     C35461   6.597   7.194   9.626  0.5279  1.1838  1.1592
 1004MOL0     C35462   6.689   7.272   9.553  0.0190 -0.2102  1.0328
 1004MOL0     O35463   6.651   7.297   9.424  0.4829 -0.3530 -0.2378
 1004MOL0     C35464   6.696   7.424   9.370  0.5635  0.2633  1.0423
 1004MOL0     C35465   6.656   7.436   9.221  0.3730 -0.2566 -1.4088
 1004MOL0     C35466   6.655   7.576   9.168 -0.5083  0.2615  0.8982
 1004MOL0     C35467   6.690   7.584   9.019  0.5909 -0.6863 -0.5146
 1004MOL0     C35468   6.591   7.529   8.918 -0.2584  1.0622 -0.2364
 1004MOL0     C35469   6.519   7.463   8.836  1.0666  0.1030  0.2237
 1004MOL0     C35470   6.805   7.319   9.629  0.1350 -0.6551  0.5514
 1004MOL0     C35471   6.828   7.287   9.758  0.2487  0.1158  1.1420
 1004MOL0     C35472   6.956   7.341   9.814  0.0302 -0.4654 -0.8457
 1004MOL0     H35473   6.727   7.290  10.261 -0.8362  0.1282 -0.2109
 1004MOL0     H35474   6.713   7.195  10.494 -0.8629 -2.6190  1.7488
 1004MOL0     H35475   6.878   7.010  10.578 -0.0261  1.2174 -0.7245
 1004MOL0     H35476   6.746   7.065  10.686 -2.4980 -3.0251  2.8587
 1004MOL0     H35477   6.728   6.874  10.814 -1.3894 -0.9436 -1.2176
 1004MOL0     H35478   6.906   6.909  10.788 -0.4352 -1.2601  0.1744
 1004MOL0     H35479   6.888   6.724  10.597 -0.3745  2.1857 -0.1003
 1004MOL0     H35480   6.722   6.691  10.657 -0.6981 -1.9395  3.7078
 1004MOL0     H35481   6.815   6.657  10.879  1.5677 -0.3580  1.3565
 1004MOL0     H35482   6.845   6.533  10.764 -0.6845  0.2366  1.8626
 1004MOL0     H35483   7.085   6.619  10.723  2.7623 -2.3900  1.4486
 1004MOL0     H35484   7.063   6.743  10.845  1.2930  1.0804 -0.9709
 1004MOL0     H35485   7.053   6.576  11.020 -0.7322  0.3528 -0.6820
 1004MOL0     H35486   7.037   6.443  10.909  2.1890 -2.4583 -0.2855
 1004MOL0     H35487   7.262   6.526  10.802  0.7881  2.7081  0.3753
 1004MOL0     H35488   7.246   6.428  10.955 -3.5934  0.1105  1.0021
 1004MOL0     H35489   7.260   6.736  10.980  2.6821  0.8505  0.9471
 1004MOL0     H35490   7.308   6.616  11.092 -1.3248  1.2961  0.6120
 1004MOL0     H35491   7.444   6.659  10.721 -1.4340 -4.4608  1.1091
 1004MOL0     H35492   7.762   6.880  10.753 -0.3318  1.3812 -3.1211
 1004MOL0     H35493   7.767   6.706  10.705 -0.0615  0.5264 -0.6936
 1004MOL0     H35494   7.712   6.847  10.523  1.7191 -2.8865  0.0237
 1004MOL0     H35495   7.580   6.743  10.545 -1.1530  0.5610  0.9852
 1004MOL0     H35496   7.443   6.927  10.645  1.9216 -0.7325  3.0981
 1004MOL0     H35497   7.500   6.945  10.481 -1.5053  0.8510 -0.4708
 1004MOL0     H35498   7.533   7.161  10.573  1.1025  0.1300 -2.3667
 1004MOL0     H35499   7.682   7.084  10.536  0.2337  0.9317 -0.5507
 1004MOL0     H35500   7.762   7.291  10.591 -1.9432  2.1569  0.7576
 1004MOL0     H35501   7.938   7.443  10.677 -1.2240 -0.8378 -0.2992
 1004MOL0     H35502   8.108   7.773  10.784 -0.3614  2.7382  1.9996
 1004MOL0     H35503   8.286   7.917  10.840 -2.1316 -0.0855 -1.9059
 1004MOL0     H35504   8.686   7.872  10.761  0.8904  2.8364  0.3760
 1004MOL0     H35505   8.536   7.912  10.689 -0.7272  1.6272  1.0388
 1004MOL0     H35506   8.654   8.125  10.736  2.9726 -0.0880  2.1498
 1004MOL0     H35507   8.516   8.107  10.839 -2.4107 -4.9111  1.2255
 1004MOL0     H35508   8.652   8.079  11.038 -0.2061 -1.1753 -0.1661
 1004MOL0     H35509   8.798   8.041  10.927  1.3826  2.3219 -4.2400
 1004MOL0     H35510   8.645   8.297  10.972  0.8665  1.3559 -1.1046
 1004MOL0     H35511   8.781   8.299  10.871 -1.2056 -2.7529 -2.0559
 1004MOL0     H35512   8.901   8.170  11.096  3.9553  3.6582  0.5969
 1004MOL0     H35513   8.769   8.248  11.171  2.6360  0.6804  2.1992
 1004MOL0     H35514   8.976   8.392  10.997  0.4432 -0.8378  0.5171
 1004MOL0     H35515   8.841   8.473  11.060 -2.6201 -2.2328 -2.4882
 1004MOL0     H35516   8.988   8.308  11.262 -3.3141  0.0041  0.2341
 1004MOL0     H35517   8.907   8.463  11.277 -0.3451 -1.1771  1.2710
 1004MOL0     H35518   9.182   8.401  11.155 -0.3897  1.0552 -1.3928
 1004MOL0     H35519   9.104   8.557  11.137  1.1915  1.6965  1.7169
 1004MOL0     H35520   8.546   7.591  10.931 -1.8628 -1.9292  0.0284
 1004MOL0     H35521   8.376   7.447  10.902 -1.4343 -0.2157 -1.1094
 1004MOL0     H35522   7.974   7.204  11.024 -0.4581  1.3272  1.0000
 1004MOL0     H35523   7.781   7.070  10.951 -0.1242  0.7072 -0.4050
 1004MOL0     H35524   6.680   6.813  10.303  1.1810 -0.0957 -3.4949
 1004MOL0     H35525   6.623   6.924  10.098 -1.3242 -0.3653  1.0884
 1004MOL0     H35526   6.546   7.097   9.810  0.3548 -0.3746  0.1790
 1004MOL0     H35527   6.513   7.165   9.564  1.8162 -0.6881  0.1848
 1004MOL0     H35528   6.802   7.430   9.399  0.2171  1.1234  2.1833
 1004MOL0     H35529   6.630   7.496   9.419 -0.3196  1.3784 -1.5961
 1004MOL0     H35530   6.555   7.396   9.210 -1.0865  0.9609  4.2418
 1004MOL0     H35531   6.719   7.371   9.160 -1.5137 -1.8279 -1.7501
 1004MOL0     H35532   6.739   7.622   9.220  0.5559 -2.2888  1.6000
 1004MOL0     H35533   6.565   7.629   9.200 -0.4271 -0.5604  2.6184
 1004MOL0     H35534   6.710   7.689   8.999  0.4755 -0.2374  1.4692
 1004MOL0     H35535   6.786   7.535   9.004  1.4169  1.2061 -1.7003
 1004MOL0     H35536   6.442   7.433   8.767  0.1219 -1.8279  2.0172
 1004MOL0     H35537   6.877   7.387   9.584  0.2089 -0.8081  0.4368
 1004MOL0     H35538   6.975   7.321   9.920  1.0456  1.5665 -0.6041
 1004MOL0     H35539   7.045   7.305   9.762  0.3704 -1.3712  0.3290
 1004MOL0     H35540   6.956   7.450   9.808 -0.2186 -0.2667  1.7204
 1005MOL0     O35541  10.098   7.954   1.735 -0.1419 -0.4202  0.6015
 1005MOL0     C35542  10.008   8.025   1.679  0.6947 -0.0268  0.2423
 1005MOL0     O35543  10.028   8.104   1.570  1.0454  0.4005  0.2039
 1005MOL0     C35544  10.149   8.122   1.504 -0.5124  0.6349 -0.5618
 1005MOL0     C35545  10.283   8.098   1.553  0.9193  0.4423 -0.4606
 1005MOL0     C35546  10.388   8.084   1.469 -0.1384 -0.2573 -0.2624
 1005MOL0     C35547  10.383   8.112   1.339  0.7293 -0.1464  0.1194
 1005MOL0     O35548  10.495   8.092   1.263  0.1398  0.7766  0.3454
 1005MOL0     C35549  10.513   8.140   1.123  0.0898 -0.5369  1.1527
 1005MOL0     C35550  10.652   8.143   1.067 -0.0746  0.0408  0.2221
 1005MOL0     C35551  10.650   8.227   0.941 -0.2964 -0.3526  0.4351
 1005MOL0     C35552  10.568   8.174   0.830  0.0090  0.3122  0.0465
 1005MOL0     C35553  10.584   8.235   0.694 -0.0342 -1.0953 -0.5966
 1005MOL0     C35554  10.534   8.136   0.593  1.0612 -0.1463  0.2164
 1005MOL0     C35555  10.499   8.211   0.463  0.2583 -0.8833 -0.4887
 1005MOL0     C35556  10.479   8.105   0.353  0.1909  0.6781 -0.0887
 1005MOL0     N35557  10.408   8.159   0.231  0.3687  1.3308 -0.4494
 1005MOL0     C35558  10.447   8.114   0.108 -0.3452  0.1693 -0.1062
 1005MOL0     C35559  10.420   8.211   0.015 -0.3448  0.4698  0.5866
 1005MOL0     C35560  10.427   8.183  -0.139 -0.7470  0.2613 -0.3507
 1005MOL0     C35561  10.573   8.196  -0.180  0.5664 -0.4480  0.8418
 1005MOL0     C35562  10.608   8.128  -0.319  0.9326 -0.4187 -0.1222
 1005MOL0     C35563  10.745   8.169  -0.380  0.2330 -0.2090 -0.1355
 1005MOL0     O35564  10.841   8.134  -0.284  0.3865  0.2605  0.4448
 1005MOL0     C35565  10.958   8.207  -0.288 -0.7501  0.3529  0.8854
 1005MOL0     C35566  11.057   8.167  -0.199 -0.1749  0.5164  0.4156
 1005MOL0     C35567  11.184   8.237  -0.189  0.2946  0.1162 -0.0387
 1005MOL0     C35568  11.205   8.353  -0.263 -0.3933  0.4862  1.0685
 1005MOL0     C35569  11.331   8.421  -0.250 -0.5164  0.4263  0.1057
 1005MOL0     O35570  11.341   8.541  -0.303  1.0710 -0.6277 -0.2788
 1005MOL0     C35571  11.460   8.591  -0.344  0.2292  0.2871 -0.1080
 1005MOL0     C35572  11.577   8.514  -0.365 -0.0535 -0.1814  0.3088
 1005MOL0     C35573  11.691   8.580  -0.411 -0.2527  0.1534  0.3719
 1005MOL0     C35574  11.703   8.720  -0.423  0.7715  0.8763  0.4967
 1005MOL0     O35575  11.824   8.767  -0.472  0.4488  0.2480  0.2410
 1005MOL0     C35576  11.851   8.896  -0.419  0.6727 -0.8488  0.3076
 1005MOL0     C35577  11.961   8.943  -0.501  0.2670  0.4032  0.2597
 1005MOL0     C35578  12.093   8.873  -0.443  0.6641  0.2334 -0.1152
 1005MOL0     C35579  12.221   8.896  -0.519  0.3827  0.2440  0.1476
 1005MOL0     C35580  12.284   8.768  -0.585  0.1537 -0.0904 -0.7937
 1005MOL0     C35581  12.193   8.663  -0.645 -0.8840  0.3398  0.0632
 1005MOL0     C35582  12.287   8.560  -0.725  1.3770  0.0774 -0.3649
 1005MOL0     C35583  12.212   8.436  -0.766  0.5122  0.0393  0.2299
 1005MOL0    Cl35584  12.325   8.330  -0.851 -0.0563 -0.1002 -0.0371
 1005MOL0     C35585  11.583   8.792  -0.386 -0.2459  0.3788  0.4237
 1005MOL0     C35586  11.464   8.726  -0.354  0.6128 -0.0728  0.7578
 1005MOL0     O35587  11.420   8.356  -0.189  0.2693 -0.0259 -0.7788
 1005MOL0     C35588  11.100   8.396  -0.354  0.3090  0.0498  0.6800
 1005MOL0     C35589  10.979   8.321  -0.361 -0.5200 -0.1123  1.0534
 1005MOL0     N35590  10.367   8.318   0.084 -0.7757 -0.5893  0.5787
 1005MOL0     N35591  10.360   8.284   0.204 -0.8233 -0.4410 -0.5687
 1005MOL0     C35592  10.252   8.134   1.281 -0.1469 -0.2968  0.0551
 1005MOL0     C35593  10.140   8.138   1.366  0.3374 -0.2627  0.5117
 1005MOL0     C35594   9.877   8.034   1.746 -0.3338 -0.1358  1.0984
 1005MOL0     C35595   9.761   8.058   1.665 -0.3153  0.1864  0.3093
 1005MOL0     C35596   9.637   8.071   1.721  0.5577 -0.2660  0.6152
 1005MOL0     C35597   9.626   8.052   1.853 -0.0681  0.3908 -0.1899
 1005MOL0     O35598   9.499   8.048   1.882  0.4104 -0.4010  0.0321
 1005MOL0     C35599   9.471   8.016   2.021  0.3382  0.5479  0.3136
 1005MOL0     C35600   9.318   8.011   2.031 -0.4231 -0.3987  0.7041
 1005MOL0     C35601   9.245   8.147   1.992  0.7207  0.1741 -0.5932
 1005MOL0     C35602   9.096   8.158   2.031 -0.0821  0.6348 -0.5280
 1005MOL0     C35603   9.022   8.052   1.970  0.1278  0.8259 -0.1154
 1005MOL0     C35604   8.957   7.979   1.891 -0.4519  0.1698 -0.0858
 1005MOL0     C35605   9.735   8.028   1.932  0.0472  0.0161 -0.6724
 1005MOL0     C35606   9.860   8.016   1.879 -0.6547 -0.3203 -0.1836
 1005MOL0     C35607   9.965   7.964   1.978 -0.6466 -0.0709  0.5176
 1005MOL0     H35608  10.288   8.063   1.656  0.3840 -0.4717 -0.7334
 1005MOL0     H35609  10.491   8.069   1.499  0.3045 -2.8054 -2.5930
 1005MOL0     H35610  10.457   8.079   1.051  1.9889  0.7824 -1.6054
 1005MOL0     H35611  10.472   8.241   1.119  2.7853  0.6064 -2.1353
 1005MOL0     H35612  10.683   8.039   1.056 -4.9704 -1.6243 -0.0643
 1005MOL0     H35613  10.711   8.191   1.145 -1.6915  1.8383  0.4219
 1005MOL0     H35614  10.754   8.232   0.905 -0.7128  1.5709 -0.6370
 1005MOL0     H35615  10.629   8.332   0.961  2.8796  0.1278  1.9972
 1005MOL0     H35616  10.591   8.068   0.842 -0.3195  0.2860  0.4549
 1005MOL0     H35617  10.461   8.180   0.850  0.4821 -0.2463  3.2812
 1005MOL0     H35618  10.537   8.333   0.682  1.0736 -0.2711  1.3271
 1005MOL0     H35619  10.690   8.256   0.680 -0.1596 -0.8259 -1.1650
 1005MOL0     H35620  10.611   8.060   0.578  3.1066  1.6270  1.2962
 1005MOL0     H35621  10.442   8.088   0.629  0.2336 -0.4288 -2.1008
 1005MOL0     H35622  10.577   8.279   0.429  0.7455  0.7122  3.3576
 1005MOL0     H35623  10.407   8.269   0.478  0.5722 -0.8441  1.6532
 1005MOL0     H35624  10.571   8.056   0.319  1.0713  1.2331  1.4364
 1005MOL0     H35625  10.422   8.028   0.405 -0.1243  1.1592  0.2870
 1005MOL0     H35626  10.468   8.011   0.080  0.5866  0.4507 -0.4876
 1005MOL0     H35627  10.397   8.079  -0.157  0.9830 -0.5124  0.9870
 1005MOL0     H35628  10.361   8.248  -0.197 -1.5067  0.1056  0.3160
 1005MOL0     H35629  10.609   8.300  -0.176 -1.4080  0.2811  0.5446
 1005MOL0     H35630  10.635   8.146  -0.104  1.1187 -0.2103  0.5528
 1005MOL0     H35631  10.535   8.157  -0.394 -2.3007 -1.4324  2.4075
 1005MOL0     H35632  10.607   8.020  -0.308  0.7212 -0.2222  2.2226
 1005MOL0     H35633  10.738   8.278  -0.391  0.7846 -0.1069  0.4108
 1005MOL0     H35634  10.756   8.118  -0.476  1.1560 -0.8456  0.3006
 1005MOL0     H35635  11.018   8.085  -0.141 -0.6207  0.1779 -0.3519
 1005MOL0     H35636  11.257   8.207  -0.115 -0.4846 -0.7549  0.3957
 1005MOL0     H35637  11.581   8.405  -0.359 -0.2265 -0.1475  1.1940
 1005MOL0     H35638  11.773   8.510  -0.425 -3.6923 -4.0148 -1.1946
 1005MOL0     H35639  11.771   8.966  -0.446  2.5298  1.6167  0.8168
 1005MOL0     H35640  11.878   8.907  -0.313 -1.2137  1.5161  0.6514
 1005MOL0     H35641  11.934   8.930  -0.606  0.0164  3.5217 -0.1669
 1005MOL0     H35642  11.980   9.051  -0.492  1.9851  0.1264  0.3755
 1005MOL0     H35643  12.108   8.938  -0.356  2.2899  2.2690 -1.7920
 1005MOL0     H35644  12.098   8.767  -0.418  3.7444  0.4646  0.6488
 1005MOL0     H35645  12.291   8.949  -0.454  0.5184 -2.8944  2.7727
 1005MOL0     H35646  12.191   8.973  -0.591 -1.6087  0.4607  1.1397
 1005MOL0     H35647  12.346   8.730  -0.503 -0.5947 -0.6114 -0.4676
 1005MOL0     H35648  12.354   8.803  -0.661  1.2630 -1.9921 -0.6934
 1005MOL0     H35649  12.141   8.601  -0.571 -3.4898 -0.4879 -2.3148
 1005MOL0     H35650  12.119   8.710  -0.710 -1.7460  0.9390  1.4147
 1005MOL0     H35651  12.370   8.527  -0.662  0.7139 -1.5693 -0.3172
 1005MOL0     H35652  12.318   8.601  -0.822 -1.7600 -1.0716 -2.0049
 1005MOL0     H35653  12.186   8.375  -0.680  2.8544  0.1057  1.0696
 1005MOL0     H35654  12.128   8.451  -0.835 -0.8374 -1.4580  1.4712
 1005MOL0     H35655  11.578   8.900  -0.395 -3.2663  0.1411 -2.5434
 1005MOL0     H35656  11.380   8.781  -0.313  1.1474  2.4823 -1.3135
 1005MOL0     H35657  11.118   8.487  -0.411  0.2537  1.4085  2.7418
 1005MOL0     H35658  10.914   8.361  -0.438  0.4699  0.9699  0.7640
 1005MOL0     H35659  10.241   8.136   1.173  3.7526  0.5166 -0.4781
 1005MOL0     H35660  10.042   8.157   1.324  0.2867  0.8873  1.0914
 1005MOL0     H35661   9.773   8.079   1.559 -1.4754 -2.4253 -0.4379
 1005MOL0     H35662   9.544   8.084   1.667 -0.7846 -0.7094  2.6973
 1005MOL0     H35663   9.516   8.102   2.071  0.3685  1.1759 -0.7749
 1005MOL0     H35664   9.506   7.918   2.057 -0.0066  0.6633  0.9853
 1005MOL0     H35665   9.288   7.996   2.136  1.2057 -1.2350  1.0672
 1005MOL0     H35666   9.274   7.931   1.971  0.8570 -0.6066  0.0109
 1005MOL0     H35667   9.254   8.172   1.886  0.8185  1.6803 -0.2539
 1005MOL0     H35668   9.283   8.238   2.039 -1.4392  0.8163 -0.0002
 1005MOL0     H35669   9.073   8.153   2.138 -1.7183  2.6022 -0.7267
 1005MOL0     H35670   9.051   8.252   1.996  1.5972  1.6118 -0.1628
 1005MOL0     H35671   8.889   7.919   1.834  0.8373 -0.9161 -0.5345
 1005MOL0     H35672   9.720   8.019   2.039 -3.3367  0.8665 -0.9625
 1005MOL0     H35673  10.044   8.039   1.983 -0.0977 -0.5664 -0.5379
 1005MOL0     H35674   9.930   7.962   2.082  1.7735  0.5420  1.4106
 1005MOL0     H35675  10.012   7.869   1.951  1.8139  1.2072  0.0135
 1006MOL0     O35676   6.322   5.189   5.585 -0.7113  0.0425 -0.2637
 1006MOL0     C35677   6.371   5.237   5.693 -0.3624 -0.2611  0.6228
 1006MOL0     O35678   6.449   5.350   5.699  0.7026 -0.0938  0.1186
 1006MOL0     C35679   6.523   5.367   5.588  0.5023  0.0625  0.2998
 1006MOL0     C35680   6.627   5.270   5.568  0.5874 -0.1336 -1.3138
 1006MOL0     C35681   6.702   5.276   5.449 -0.7041 -0.2046 -0.6465
 1006MOL0     C35682   6.676   5.371   5.351 -0.5722  0.3563  0.1691
 1006MOL0     O35683   6.746   5.397   5.240 -0.3869  0.1563  0.9695
 1006MOL0     C35684   6.869   5.314   5.227  0.1488  0.1510  0.5480
 1006MOL0     C35685   6.922   5.318   5.083  0.0737 -0.2235  0.8279
 1006MOL0     C35686   7.066   5.288   5.084 -0.8683  0.1119 -0.4780
 1006MOL0     C35687   7.119   5.294   4.938  0.1805 -0.6448  0.0014
 1006MOL0     C35688   7.267   5.306   4.939  0.1376  0.8018  0.1838
 1006MOL0     C35689   7.355   5.172   4.939  0.7253 -0.9512 -0.3979
 1006MOL0     C35690   7.377   5.098   4.809  0.7650 -0.6224  0.8414
 1006MOL0     C35691   7.442   4.960   4.823 -0.4831 -0.5132 -0.4251
 1006MOL0     N35692   7.381   4.883   4.928  0.1963  0.1278 -0.4217
 1006MOL0     C35693   7.429   4.835   5.045 -0.3425  0.8134 -0.5625
 1006MOL0     C35694   7.323   4.782   5.100  0.1862  0.7234  0.7663
 1006MOL0     C35695   7.315   4.710   5.234 -0.0436  0.0731 -0.2883
 1006MOL0     C35696   7.387   4.573   5.257  0.3625 -0.2054  0.0572
 1006MOL0     C35697   7.338   4.470   5.160  0.0170  0.6928 -0.0412
 1006MOL0     C35698   7.385   4.336   5.195 -0.7915  0.1024  0.9258
 1006MOL0     O35699   7.320   4.280   5.308  0.3257 -0.5689 -0.1369
 1006MOL0     C35700   7.198   4.223   5.303  0.0776 -0.4183 -0.3836
 1006MOL0     C35701   7.144   4.160   5.414  0.3977 -0.0933 -0.3071
 1006MOL0     C35702   7.020   4.098   5.403  0.4835 -0.2505 -0.3545
 1006MOL0     C35703   6.960   4.088   5.279  0.7067 -0.4048  0.7352
 1006MOL0     C35704   6.817   4.028   5.271 -0.1546 -0.9992  0.1003
 1006MOL0     O35705   6.778   3.955   5.382 -0.3010  0.9092 -0.0036
 1006MOL0     C35706   6.647   3.899   5.375 -0.1607  0.0592  0.8539
 1006MOL0     C35707   6.536   3.970   5.324  0.9395  0.2223 -0.0810
 1006MOL0     C35708   6.407   3.903   5.320  0.1487  0.4582 -0.4769
 1006MOL0     C35709   6.395   3.776   5.380 -0.3319  0.6859 -0.0433
 1006MOL0     O35710   6.271   3.708   5.398 -0.5733  0.4075  0.0365
 1006MOL0     C35711   6.166   3.794   5.437  0.0682  0.6538  0.0498
 1006MOL0     C35712   6.054   3.698   5.480 -0.2464 -0.9740  0.7316
 1006MOL0     C35713   5.927   3.791   5.518 -0.6505  0.2642  0.3169
 1006MOL0     C35714   5.820   3.700   5.570  0.5391  0.4969 -0.7138
 1006MOL0     C35715   5.709   3.771   5.643 -0.1244  0.1114 -0.8447
 1006MOL0     C35716   5.610   3.687   5.724 -0.8601  0.0549  0.0887
 1006MOL0     C35717   5.532   3.773   5.818  0.0028  0.7343  0.3744
 1006MOL0     C35718   5.418   3.831   5.740  0.2974 -0.1316  0.6486
 1006MOL0    Cl35719   5.327   3.956   5.835  0.4005 -0.3244  0.6811
 1006MOL0     C35720   6.507   3.710   5.425 -0.6680  0.1730  0.8823
 1006MOL0     C35721   6.636   3.770   5.430  0.5216 -0.0199  0.1857
 1006MOL0     O35722   6.758   4.045   5.167 -0.8562  0.0882 -0.5130
 1006MOL0     C35723   7.004   4.163   5.163 -0.5124  0.3379  0.6533
 1006MOL0     C35724   7.121   4.234   5.182  0.3142  0.1400  0.0995
 1006MOL0     N35725   7.211   4.798   5.022 -0.0322  0.1597 -0.4644
 1006MOL0     N35726   7.250   4.861   4.923  0.2442 -0.0743  0.0893
 1006MOL0     C35727   6.572   5.458   5.370  0.2464  0.2673  0.1650
 1006MOL0     C35728   6.491   5.457   5.487  0.1403  1.0949 -0.9595
 1006MOL0     C35729   6.356   5.157   5.819  1.0636 -0.6873 -0.2200
 1006MOL0     C35730   6.290   5.031   5.805 -0.8954 -0.0592  0.2067
 1006MOL0     C35731   6.263   4.945   5.913  0.9319  0.4835  0.5649
 1006MOL0     C35732   6.288   4.995   6.045 -0.4301 -0.3993  0.3726
 1006MOL0     O35733   6.254   4.920   6.156 -0.2148  0.1061 -0.3469
 1006MOL0     C35734   6.352   4.823   6.201  0.4480 -0.2584  0.2355
 1006MOL0     C35735   6.276   4.739   6.315  0.4853  0.3892  0.7052
 1006MOL0     C35736   6.362   4.614   6.346  0.1465  0.1873  0.2567
 1006MOL0     C35737   6.308   4.545   6.468 -0.0755  0.2192 -0.7724
 1006MOL0     C35738   6.162   4.516   6.441 -0.0218  0.5281 -0.2311
 1006MOL0     C35739   6.054   4.499   6.403  0.2922  0.6316 -0.0045
 1006MOL0     C35740   6.340   5.128   6.063 -0.7286 -0.0512 -0.2345
 1006MOL0     C35741   6.372   5.207   5.951  0.6145 -0.2352  0.3300
 1006MOL0     C35742   6.427   5.348   5.978  0.5616  0.5534 -0.6417
 1006MOL0     H35743   6.644   5.195   5.644 -2.3495  0.4970  0.1138
 1006MOL0     H35744   6.787   5.209   5.441 -0.4808  0.2869 -2.9685
 1006MOL0     H35745   6.942   5.359   5.295 -0.0992 -2.4184  2.6866
 1006MOL0     H35746   6.854   5.206   5.239 -1.1266  0.2584  0.1218
 1006MOL0     H35747   6.909   5.417   5.038  1.0050  0.2369  1.5338
 1006MOL0     H35748   6.871   5.242   5.023  0.6122  0.4336 -0.5012
 1006MOL0     H35749   7.076   5.186   5.122 -0.6088  0.6922  1.0574
 1006MOL0     H35750   7.126   5.347   5.153  1.0271 -1.8615 -0.3427
 1006MOL0     H35751   7.081   5.213   4.875 -0.3218  1.0504 -1.9721
 1006MOL0     H35752   7.091   5.390   4.896  3.1567  0.2515 -0.1152
 1006MOL0     H35753   7.309   5.341   4.845 -0.9412 -2.1565 -1.5416
 1006MOL0     H35754   7.301   5.360   5.028  0.6170  0.5553  0.1556
 1006MOL0     H35755   7.447   5.187   4.996 -1.4297  0.0985  3.1257
 1006MOL0     H35756   7.298   5.100   4.998  1.6565 -1.7865 -0.4830
 1006MOL0     H35757   7.443   5.171   4.760 -1.9049  2.4448  1.4856
 1006MOL0     H35758   7.282   5.106   4.756  1.2269 -3.1615 -0.5266
 1006MOL0     H35759   7.456   4.906   4.729  6.4216  0.8164 -0.6568
 1006MOL0     H35760   7.544   4.979   4.857 -0.3136 -0.1961 -1.0930
 1006MOL0     H35761   7.523   4.829   5.098 -1.1828  1.7552  1.0951
 1006MOL0     H35762   7.370   4.776   5.302  2.9305 -2.7697  0.3428
 1006MOL0     H35763   7.213   4.696   5.272  1.5258 -1.5485  4.0911
 1006MOL0     H35764   7.493   4.591   5.240  0.1023 -0.2888 -1.9296
 1006MOL0     H35765   7.363   4.543   5.359  1.2389 -1.3886 -0.0702
 1006MOL0     H35766   7.382   4.502   5.065  0.4976  1.0289  0.2926
 1006MOL0     H35767   7.234   4.489   5.131 -0.0556  1.5800  0.7887
 1006MOL0     H35768   7.489   4.339   5.228 -0.9283 -0.1819  1.3886
 1006MOL0     H35769   7.388   4.263   5.113  2.3948 -1.0646  1.9360
 1006MOL0     H35770   7.213   4.147   5.497  1.4419  1.6789 -0.8433
 1006MOL0     H35771   6.981   4.059   5.497  0.8101 -2.5299 -1.1060
 1006MOL0     H35772   6.556   4.074   5.299  0.7258  1.0671  2.9365
 1006MOL0     H35773   6.324   3.971   5.300 -0.3245  0.7714  2.2474
 1006MOL0     H35774   6.199   3.848   5.526  2.0238 -1.0091  0.3970
 1006MOL0     H35775   6.142   3.856   5.350  1.4916  3.1595  1.3266
 1006MOL0     H35776   6.036   3.637   5.390 -1.2615  0.9368 -0.4325
 1006MOL0     H35777   6.076   3.633   5.565  4.2051  0.2258  0.7718
 1006MOL0     H35778   5.944   3.865   5.596 -1.0730  0.1513  0.5199
 1006MOL0     H35779   5.894   3.848   5.431 -2.1954 -0.6241  0.2963
 1006MOL0     H35780   5.872   3.637   5.642  0.9763 -2.4266 -3.3810
 1006MOL0     H35781   5.766   3.634   5.501 -0.0287 -1.8415  1.8381
 1006MOL0     H35782   5.658   3.832   5.568 -0.3989 -0.6291 -1.2786
 1006MOL0     H35783   5.752   3.841   5.715  0.3629 -0.3226 -0.7054
 1006MOL0     H35784   5.549   3.628   5.655 -0.5152  1.7920 -1.8244
 1006MOL0     H35785   5.672   3.627   5.790 -3.8913  0.1206  3.2908
 1006MOL0     H35786   5.602   3.850   5.851  2.3842 -1.9736  2.0577
 1006MOL0     H35787   5.495   3.718   5.904  1.1187 -0.7583 -0.0601
 1006MOL0     H35788   5.449   3.883   5.649 -0.8612 -0.1101  0.2547
 1006MOL0     H35789   5.347   3.752   5.713  2.1784 -1.5785 -0.2871
 1006MOL0     H35790   6.482   3.612   5.464  0.3554 -1.9239 -3.1485
 1006MOL0     H35791   6.718   3.721   5.481 -0.7125 -1.1353  1.1907
 1006MOL0     H35792   6.944   4.163   5.073 -0.7275 -0.9427  0.7800
 1006MOL0     H35793   7.155   4.292   5.096  0.1537  1.6186  1.0020
 1006MOL0     H35794   6.539   5.530   5.296  0.9177  0.9402  0.4951
 1006MOL0     H35795   6.395   5.507   5.500 -1.1513 -1.7263  1.5394
 1006MOL0     H35796   6.267   5.010   5.701  0.5318  2.6612 -0.7664
 1006MOL0     H35797   6.222   4.850   5.882 -0.2940  1.8298 -2.3799
 1006MOL0     H35798   6.439   4.872   6.246  1.4622 -0.7059 -1.1483
 1006MOL0     H35799   6.375   4.765   6.111  0.8027  0.1389  0.0661
 1006MOL0     H35800   6.176   4.715   6.277  0.1041  0.5409  1.5787
 1006MOL0     H35801   6.282   4.807   6.401  0.4903  2.3104 -0.7258
 1006MOL0     H35802   6.469   4.631   6.360  0.1559  1.0441 -0.7606
 1006MOL0     H35803   6.344   4.549   6.260 -2.7859  2.4319 -1.0118
 1006MOL0     H35804   6.355   4.448   6.487  1.3058  0.3410 -3.1392
 1006MOL0     H35805   6.322   4.607   6.557 -1.5940  1.0833 -1.1121
 1006MOL0     H35806   5.948   4.486   6.389  0.2014 -1.3473  1.9594
 1006MOL0     H35807   6.358   5.165   6.163  0.5945  2.1927 -1.2247
 1006MOL0     H35808   6.426   5.370   6.085 -1.3904 -0.3536 -0.4311
 1006MOL0     H35809   6.532   5.350   5.947  0.3492  2.0001 -1.3674
 1006MOL0     H35810   6.363   5.422   5.930  0.2628 -0.5953 -2.0630
 1007MOL0     O35811   4.645   9.343   0.967 -0.1063 -0.4673  0.2321
 1007MOL0     C35812   4.706   9.239   0.984 -0.2134  0.3747 -0.3507
 1007MOL0     O35813   4.702   9.133   0.890  0.4445 -0.2912 -0.3273
 1007MOL0     C35814   4.612   9.129   0.785 -0.4004 -0.4157 -0.3917
 1007MOL0     C35815   4.510   9.217   0.744 -0.2008 -0.9465  0.3041
 1007MOL0     C35816   4.423   9.189   0.637 -0.6863  0.5165 -0.0994
 1007MOL0     C35817   4.443   9.069   0.567  0.2445  0.3530 -0.3558
 1007MOL0     O35818   4.368   9.037   0.457 -0.1340  0.3358 -0.6126
 1007MOL0     C35819   4.241   9.099   0.435 -1.0581  0.2262 -0.1098
 1007MOL0     C35820   4.135   9.044   0.529 -0.7644  0.3045  0.5235
 1007MOL0     C35821   4.074   8.894   0.510  0.1389 -0.5008 -0.0355
 1007MOL0     C35822   3.987   8.891   0.373  0.6285 -0.2543 -0.9305
 1007MOL0     C35823   3.867   8.803   0.369 -0.6019 -0.1105  0.3355
 1007MOL0     C35824   3.806   8.800   0.227  0.6660  0.8026  0.3678
 1007MOL0     C35825   3.753   8.928   0.161 -1.1058 -1.1185 -0.6508
 1007MOL0     C35826   3.691   8.913   0.019  0.7402  0.2212 -1.3883
 1007MOL0     N35827   3.634   9.041  -0.027  0.0889 -1.2522 -0.1319
 1007MOL0     C35828   3.694   9.148  -0.081 -0.8601 -1.0327 -0.0700
 1007MOL0     C35829   3.597   9.239  -0.089 -0.1666  0.8146 -0.1176
 1007MOL0     C35830   3.609   9.376  -0.148  0.4770 -0.2134 -0.2741
 1007MOL0     C35831   3.669   9.387  -0.287 -0.1813 -0.5139  0.5692
 1007MOL0     C35832   3.632   9.530  -0.345 -0.0157  0.1494 -0.8608
 1007MOL0     C35833   3.648   9.548  -0.496 -0.4811 -0.0801 -0.1990
 1007MOL0     O35834   3.789   9.542  -0.539 -0.0666  0.8166  0.1242
 1007MOL0     C35835   3.816   9.563  -0.672 -1.5450 -1.3722  0.9710
 1007MOL0     C35836   3.952   9.534  -0.708 -0.1869  0.4949 -0.1485
 1007MOL0     C35837   3.992   9.546  -0.845 -0.0062  0.1988 -0.3643
 1007MOL0     C35838   3.902   9.582  -0.943  0.1096  0.1931  0.4708
 1007MOL0     C35839   3.936   9.577  -1.083 -0.1508  1.0627  0.5606
 1007MOL0     O35840   4.059   9.559  -1.111 -0.3117 -0.0451  0.2154
 1007MOL0     C35841   4.095   9.579  -1.237 -0.2520 -0.7823  0.4439
 1007MOL0     C35842   4.096   9.461  -1.330 -0.3419 -1.6799 -0.2741
 1007MOL0     C35843   4.154   9.488  -1.459  0.1676 -0.4198 -0.5066
 1007MOL0     C35844   4.202   9.613  -1.485 -0.3785 -0.7719  0.7770
 1007MOL0     O35845   4.264   9.636  -1.606 -0.1087  0.3643 -0.1529
 1007MOL0     C35846   4.408   9.601  -1.597  0.2274  0.3525  0.3041
 1007MOL0     C35847   4.499   9.716  -1.544  0.4488  0.0545  0.4862
 1007MOL0     C35848   4.460   9.842  -1.621 -0.3079 -0.1259 -0.9210
 1007MOL0     C35849   4.522   9.967  -1.564  0.6432 -0.0474 -0.1227
 1007MOL0     C35850   4.519  10.079  -1.678  0.0979  0.2870 -0.7076
 1007MOL0     C35851   4.604  10.199  -1.637  0.0528  0.3646 -0.7777
 1007MOL0     C35852   4.591  10.314  -1.730 -0.6347  0.0522 -0.0808
 1007MOL0     C35853   4.465  10.404  -1.689  0.0429  0.1774 -0.5494
 1007MOL0    Cl35854   4.491  10.565  -1.752 -0.0729  0.2979 -0.0495
 1007MOL0     C35855   4.190   9.719  -1.393 -0.0226  0.1506  0.3082
 1007MOL0     C35856   4.145   9.702  -1.263  0.4588 -0.0475 -0.5573
 1007MOL0     O35857   3.844   9.586  -1.162  1.1972 -0.3278 -0.3955
 1007MOL0     C35858   3.770   9.616  -0.901 -0.0318 -0.1977 -0.1078
 1007MOL0     C35859   3.730   9.614  -0.765 -0.4476  0.6243 -0.2127
 1007MOL0     N35860   3.485   9.187  -0.034  0.3288 -0.0369  1.0127
 1007MOL0     N35861   3.499   9.065  -0.013 -0.4904 -1.1536 -0.2928
 1007MOL0     C35862   4.537   8.985   0.608 -0.3825  0.1336 -0.0765
 1007MOL0     C35863   4.621   9.007   0.717  0.0122  0.9814  0.0451
 1007MOL0     C35864   4.803   9.210   1.086  0.6579 -0.6139  1.0099
 1007MOL0     C35865   4.916   9.135   1.051  0.4289 -0.8598 -0.1909
 1007MOL0     C35866   5.007   9.093   1.138 -0.3414  0.2289 -0.6342
 1007MOL0     C35867   4.997   9.136   1.277 -0.9906 -0.1628  0.7310
 1007MOL0     O35868   5.092   9.123   1.370  0.3055  0.2994  0.6911
 1007MOL0     C35869   5.231   9.102   1.340  0.0508  0.5567  0.1962
 1007MOL0     C35870   5.285   9.236   1.299  0.5244 -0.5963  0.4019
 1007MOL0     C35871   5.310   9.332   1.409  0.3555  0.1153 -0.2201
 1007MOL0     C35872   5.437   9.282   1.491  0.0281 -0.0276  0.4562
 1007MOL0     C35873   5.492   9.407   1.553  0.3747  0.2136  0.4506
 1007MOL0     C35874   5.534   9.515   1.592 -0.8272 -0.9199  0.2658
 1007MOL0     C35875   4.890   9.213   1.309  0.1858 -1.0961 -0.0402
 1007MOL0     C35876   4.794   9.257   1.217  0.5433 -0.4096 -0.5794
 1007MOL0     C35877   4.681   9.345   1.265  0.1890  0.2338  0.6212
 1007MOL0     H35878   4.501   9.313   0.794  1.6785 -0.7022  0.2635
 1007MOL0     H35879   4.349   9.266   0.621 -0.4322  1.1817  1.6914
 1007MOL0     H35880   4.236   9.208   0.433 -1.1606  0.2208 -0.0980
 1007MOL0     H35881   4.213   9.070   0.333 -0.7996 -0.3143 -0.0335
 1007MOL0     H35882   4.055   9.117   0.518  0.0967  1.3923  1.1994
 1007MOL0     H35883   4.178   9.042   0.630 -0.2812  1.7045  0.3742
 1007MOL0     H35884   4.016   8.869   0.600 -0.1197 -1.5027 -0.4653
 1007MOL0     H35885   4.163   8.834   0.492  0.6768  0.3898 -0.3663
 1007MOL0     H35886   3.940   8.988   0.360 -1.5009 -0.6477  2.6392
 1007MOL0     H35887   4.046   8.865   0.284  3.1187 -0.8590  0.7838
 1007MOL0     H35888   3.883   8.698   0.396  1.2474 -0.2063 -0.9345
 1007MOL0     H35889   3.795   8.862   0.426 -1.8969 -0.5569 -0.7921
 1007MOL0     H35890   3.880   8.775   0.151  0.9587  0.4745  0.7620
 1007MOL0     H35891   3.733   8.719   0.229  2.7340 -1.4482 -3.5029
 1007MOL0     H35892   3.830   9.006   0.159 -2.0397  0.0996  2.9953
 1007MOL0     H35893   3.679   8.975   0.227  1.2758  3.4524 -0.7734
 1007MOL0     H35894   3.775   8.898  -0.049  1.7104  2.0788 -0.6556
 1007MOL0     H35895   3.624   8.826   0.017 -0.6993  1.2163  0.4064
 1007MOL0     H35896   3.798   9.145  -0.115  0.0252 -1.2471  2.4429
 1007MOL0     H35897   3.508   9.415  -0.139  0.1714 -1.1390  0.5014
 1007MOL0     H35898   3.672   9.435  -0.081  0.0467 -2.4713  2.2649
 1007MOL0     H35899   3.778   9.384  -0.278 -0.3432 -1.1377  5.8094
 1007MOL0     H35900   3.628   9.314  -0.357 -1.4765  2.1580 -1.6683
 1007MOL0     H35901   3.691   9.605  -0.291 -0.2889  0.9864 -1.7004
 1007MOL0     H35902   3.525   9.549  -0.332  0.3399  0.4356  2.6702
 1007MOL0     H35903   3.596   9.640  -0.523 -2.1116 -0.6830  0.7097
 1007MOL0     H35904   3.590   9.466  -0.540 -3.2183  0.1551  2.6217
 1007MOL0     H35905   4.029   9.509  -0.637 -0.5026  2.1252  0.8083
 1007MOL0     H35906   4.095   9.521  -0.866  0.0864 -0.3607  0.6979
 1007MOL0     H35907   4.070   9.357  -1.309 -1.0158 -1.6869 -1.0873
 1007MOL0     H35908   4.169   9.402  -1.523 -1.4454 -2.8504  2.1619
 1007MOL0     H35909   4.432   9.510  -1.542  0.4896  1.1271  1.5099
 1007MOL0     H35910   4.426   9.583  -1.704  0.3808  0.8075  0.2521
 1007MOL0     H35911   4.474   9.720  -1.437 -0.7618  2.4012  0.1680
 1007MOL0     H35912   4.607   9.704  -1.560  0.9027  3.2626  0.5776
 1007MOL0     H35913   4.502   9.832  -1.721 -2.8891 -1.7358 -1.9503
 1007MOL0     H35914   4.353   9.857  -1.635 -0.1624  1.9654 -0.1410
 1007MOL0     H35915   4.627   9.945  -1.546  0.1372 -0.8478  2.2342
 1007MOL0     H35916   4.484   9.989  -1.463  0.9519  2.0571 -0.4229
 1007MOL0     H35917   4.417  10.119  -1.681 -0.0103  0.2616  1.0721
 1007MOL0     H35918   4.551  10.041  -1.775  1.5362 -1.6418  0.4656
 1007MOL0     H35919   4.589  10.241  -1.538  0.8513  0.7712 -0.8247
 1007MOL0     H35920   4.710  10.177  -1.622  0.3312  2.5905  1.0398
 1007MOL0     H35921   4.603  10.289  -1.836 -1.5356  0.6969 -0.3535
 1007MOL0     H35922   4.678  10.373  -1.703 -1.3738 -0.2086  3.2975
 1007MOL0     H35923   4.367  10.371  -1.725  0.7155 -0.8366 -1.4992
 1007MOL0     H35924   4.467  10.422  -1.581 -2.1666 -0.2677 -0.3904
 1007MOL0     H35925   4.222   9.820  -1.417 -1.2113  0.4892  0.0507
 1007MOL0     H35926   4.129   9.779  -1.187 -1.9927 -3.1591  2.3932
 1007MOL0     H35927   3.704   9.652  -0.980  0.0323 -3.0730 -1.5682
 1007MOL0     H35928   3.629   9.646  -0.744  0.9046  4.0676  1.8912
 1007MOL0     H35929   4.548   8.887   0.562  3.6594 -0.3674  1.5325
 1007MOL0     H35930   4.690   8.932   0.755 -0.1779  0.9142  0.2604
 1007MOL0     H35931   4.949   9.110   0.951  0.7069  0.8797 -0.5636
 1007MOL0     H35932   5.094   9.035   1.108 -1.9395 -3.1441  0.7195
 1007MOL0     H35933   5.250   9.037   1.254  2.0615  1.3624 -0.0265
 1007MOL0     H35934   5.286   9.056   1.423 -3.1572 -2.7145  0.7831
 1007MOL0     H35935   5.223   9.287   1.225 -1.4648 -2.5956  0.5792
 1007MOL0     H35936   5.386   9.219   1.261  0.2397 -1.6469  0.0842
 1007MOL0     H35937   5.230   9.349   1.482  2.4423 -1.0335  2.5118
 1007MOL0     H35938   5.339   9.424   1.359  1.2479  0.4742  0.9048
 1007MOL0     H35939   5.397   9.207   1.560 -1.1777  0.0409 -0.1495
 1007MOL0     H35940   5.520   9.243   1.432 -0.8688 -0.6132 -0.4464
 1007MOL0     H35941   5.571   9.604   1.638  4.9639 -2.0512 -1.3849
 1007MOL0     H35942   4.892   9.237   1.415  0.1623  0.2372 -0.3295
 1007MOL0     H35943   4.682   9.356   1.373  0.7189  1.4912  0.5106
 1007MOL0     H35944   4.694   9.447   1.227 -3.2419  0.3794 -0.4971
 1007MOL0     H35945   4.587   9.301   1.231  2.1332 -1.3697 -3.2980
 1008MOL0     O35946   0.602   1.623   9.047  0.4278 -0.9270 -0.4812
 1008MOL0     C35947   0.535   1.523   9.041  0.3870 -0.0734 -0.4550
 1008MOL0     O35948   0.542   1.418   8.948 -0.7763  0.2322 -0.9218
 1008MOL0     C35949   0.658   1.425   8.876  0.0838 -0.4227  0.6313
 1008MOL0     C35950   0.673   1.489   8.752  0.6483 -0.8217  0.0651
 1008MOL0     C35951   0.778   1.454   8.666 -0.0067 -0.5177 -0.1376
 1008MOL0     C35952   0.881   1.363   8.712 -0.6539  0.8952 -0.9161
 1008MOL0     O35953   0.994   1.370   8.635  0.4597 -1.0814  0.0291
 1008MOL0     C35954   1.047   1.246   8.584  0.9164 -0.0162 -0.1246
 1008MOL0     C35955   0.969   1.212   8.458  0.3462  0.3211  0.2546
 1008MOL0     C35956   1.042   1.121   8.356 -0.2879  0.7824  0.4224
 1008MOL0     C35957   0.950   1.099   8.234 -0.1957 -0.0622  0.0031
 1008MOL0     C35958   1.015   1.009   8.133  0.0300 -0.0103 -0.0048
 1008MOL0     C35959   0.923   0.986   8.012 -0.5529 -0.4519 -0.5285
 1008MOL0     C35960   0.874   1.113   7.934  0.0964 -0.7492  0.7091
 1008MOL0     C35961   0.978   1.144   7.823  0.3379  0.6933  0.2651
 1008MOL0     N35962   1.109   1.164   7.876  0.2079 -0.3471  0.2639
 1008MOL0     C35963   1.155   1.279   7.937  0.1276 -0.7510 -0.5697
 1008MOL0     C35964   1.286   1.244   7.973 -0.8886 -1.2251  0.0952
 1008MOL0     C35965   1.388   1.329   8.039  0.1476 -0.3245 -0.0879
 1008MOL0     C35966   1.495   1.246   8.119  0.0412 -0.1945  0.7814
 1008MOL0     C35967   1.608   1.347   8.172 -0.4818  0.2072  0.2351
 1008MOL0     C35968   1.715   1.266   8.255 -0.2380 -0.9645  0.8084
 1008MOL0     O35969   1.787   1.349   8.349 -0.1647  0.1133  0.5079
 1008MOL0     C35970   1.868   1.459   8.311  0.4918  0.0531 -0.2700
 1008MOL0     C35971   1.868   1.559   8.408  0.3877  0.1089  0.2343
 1008MOL0     C35972   1.931   1.682   8.389  0.1440 -0.3271 -0.1038
 1008MOL0     C35973   1.991   1.708   8.261 -0.3986  0.1449 -1.1930
 1008MOL0     C35974   2.055   1.842   8.237 -0.2321  1.1570 -0.1879
 1008MOL0     O35975   2.094   1.900   8.358 -0.4893  0.2596  0.1654
 1008MOL0     C35976   2.180   2.007   8.343  0.4217  0.2419 -0.3839
 1008MOL0     C35977   2.130   2.134   8.327  0.4394 -0.9268  0.6231
 1008MOL0     C35978   2.218   2.246   8.331  1.0496 -0.3426  0.5005
 1008MOL0     C35979   2.360   2.230   8.313 -0.3154  0.3947 -0.0084
 1008MOL0     O35980   2.445   2.335   8.303  0.6717 -0.9306  1.0566
 1008MOL0     C35981   2.567   2.333   8.228 -0.2343 -0.5999 -0.4095
 1008MOL0     C35982   2.683   2.326   8.326 -0.4150  0.3133 -0.3877
 1008MOL0     C35983   2.696   2.450   8.425  0.2574  0.4725 -0.0018
 1008MOL0     C35984   2.793   2.415   8.533 -0.3968  0.7600 -1.3089
 1008MOL0     C35985   2.837   2.516   8.635 -0.3324 -0.0047  0.5040
 1008MOL0     C35986   2.732   2.529   8.753 -0.1496  1.0835  0.1590
 1008MOL0     C35987   2.641   2.651   8.746  0.0231  1.1972 -0.0561
 1008MOL0     C35988   2.569   2.681   8.878 -0.0498  0.3038  0.5548
 1008MOL0    Cl35989   2.446   2.564   8.919  0.2670  0.1556 -0.0167
 1008MOL0     C35990   2.403   2.099   8.295 -0.3930  0.7973  0.0001
 1008MOL0     C35991   2.319   1.988   8.313 -0.1308 -1.1103 -0.7407
 1008MOL0     O35992   2.099   1.871   8.124 -0.2143 -0.4986 -0.4634
 1008MOL0     C35993   1.995   1.602   8.166  0.0883 -0.2927 -0.6089
 1008MOL0     C35994   1.932   1.473   8.189 -0.7124  0.1693 -0.5790
 1008MOL0     N35995   1.307   1.125   7.908 -0.8582  0.4799 -0.3262
 1008MOL0     N35996   1.207   1.083   7.847 -0.9030 -0.4449 -0.1563
 1008MOL0     C35997   0.876   1.320   8.842  0.1005  0.1855 -0.7360
 1008MOL0     C35998   0.765   1.344   8.929 -0.6975  0.1455 -0.5594
 1008MOL0     C35999   0.414   1.499   9.118 -0.4537 -0.4837  0.4475
 1008MOL0     C36000   0.392   1.359   9.163  0.1189  0.1393  0.1967
 1008MOL0     C36001   0.272   1.332   9.232 -0.1018  0.8139  1.0900
 1008MOL0     C36002   0.182   1.433   9.263 -0.3244 -0.2750 -0.1125
 1008MOL0     O36003   0.083   1.397   9.348 -0.3045 -0.1341  0.1930
 1008MOL0     C36004  -0.011   1.500   9.388  0.0967  0.7507  0.2861
 1008MOL0     C36005   0.042   1.597   9.493  0.6315 -0.7452  0.1605
 1008MOL0     C36006   0.079   1.539   9.632  0.3300  0.8989  0.2138
 1008MOL0     C36007   0.168   1.617   9.721  0.0196  0.8175 -0.1436
 1008MOL0     C36008   0.081   1.721   9.784 -0.2839 -0.2768  0.0473
 1008MOL0     C36009   0.005   1.804   9.840 -0.0726 -0.1731 -0.1060
 1008MOL0     C36010   0.197   1.565   9.209  0.1102  0.8477  0.4135
 1008MOL0     C36011   0.311   1.596   9.135  0.4447  0.5746  0.3374
 1008MOL0     C36012   0.314   1.735   9.082 -0.1630  0.0840 -1.0157
 1008MOL0     H36013   0.597   1.548   8.703  1.4222 -0.4455 -0.7099
 1008MOL0     H36014   0.771   1.499   8.567 -1.3964  0.5569  0.4192
 1008MOL0     H36015   1.149   1.271   8.554  0.2439  0.6166 -2.0654
 1008MOL0     H36016   1.046   1.155   8.646  1.8111 -1.0617 -1.5639
 1008MOL0     H36017   0.962   1.305   8.400 -0.1090  0.0865 -0.0804
 1008MOL0     H36018   0.865   1.179   8.472  0.2984 -0.8293 -2.2536
 1008MOL0     H36019   1.047   1.019   8.396 -0.7110  0.7942  0.5030
 1008MOL0     H36020   1.139   1.163   8.326  1.8244 -3.7976  0.0810
 1008MOL0     H36021   0.863   1.045   8.273 -0.3201  0.9326  1.1380
 1008MOL0     H36022   0.918   1.194   8.191  1.0034  0.4835  0.2777
 1008MOL0     H36023   1.118   1.033   8.106  1.2522 -4.4134  0.0137
 1008MOL0     H36024   1.033   0.918   8.192  0.0217 -0.2018 -0.2955
 1008MOL0     H36025   0.966   0.920   7.936 -2.7866 -0.1613 -2.1025
 1008MOL0     H36026   0.846   0.927   8.062  1.1671  0.1192  3.1869
 1008MOL0     H36027   0.887   1.202   7.996  1.9770 -1.0504  0.8285
 1008MOL0     H36028   0.774   1.110   7.890  0.7945  1.4975 -1.2521
 1008MOL0     H36029   0.975   1.058   7.756  0.2394  0.2249  0.8665
 1008MOL0     H36030   0.949   1.233   7.765  1.2277  0.7192 -0.1496
 1008MOL0     H36031   1.103   1.371   7.962  0.7056  0.4667 -3.4113
 1008MOL0     H36032   1.439   1.378   7.956 -0.0706  1.6518  0.9040
 1008MOL0     H36033   1.349   1.420   8.085 -0.0175 -0.8557  0.8663
 1008MOL0     H36034   1.435   1.197   8.197 -0.7805  0.5215  0.6109
 1008MOL0     H36035   1.527   1.168   8.049 -2.1809 -0.4788 -0.0207
 1008MOL0     H36036   1.574   1.421   8.245  1.6021  0.6429  0.8135
 1008MOL0     H36037   1.663   1.384   8.085 -1.3154 -2.3060 -1.4663
 1008MOL0     H36038   1.784   1.202   8.199  1.6265  0.4731  1.3852
 1008MOL0     H36039   1.672   1.198   8.329 -2.2953 -0.4000  0.2105
 1008MOL0     H36040   1.817   1.543   8.502  2.4823  1.1330  1.6298
 1008MOL0     H36041   1.931   1.760   8.464 -1.3904  0.8950 -1.2844
 1008MOL0     H36042   2.026   2.161   8.322  1.1878  2.0894 -1.4133
 1008MOL0     H36043   2.185   2.349   8.327 -0.2694 -0.7124 -4.2708
 1008MOL0     H36044   2.581   2.247   8.162 -1.6487 -2.5349  1.6752
 1008MOL0     H36045   2.582   2.426   8.172  0.1393 -0.9292 -0.8598
 1008MOL0     H36046   2.678   2.234   8.386 -1.3498  1.5694  1.5422
 1008MOL0     H36047   2.775   2.329   8.267 -0.5202 -2.2837 -0.8074
 1008MOL0     H36048   2.743   2.534   8.372  1.8833 -0.0841  0.4897
 1008MOL0     H36049   2.599   2.485   8.462 -0.9114 -1.5052 -1.0727
 1008MOL0     H36050   2.881   2.373   8.483 -0.5270 -2.7818  1.0559
 1008MOL0     H36051   2.764   2.321   8.582  1.0734  0.6774 -0.5523
 1008MOL0     H36052   2.862   2.616   8.597  1.2693 -0.1613  1.0720
 1008MOL0     H36053   2.924   2.471   8.683  0.8403 -0.1958 -1.6759
 1008MOL0     H36054   2.673   2.438   8.763  0.5478  0.3370 -1.9172
 1008MOL0     H36055   2.794   2.530   8.843 -0.1287 -2.2337  0.2789
 1008MOL0     H36056   2.564   2.621   8.675  1.4057  0.9780 -1.5262
 1008MOL0     H36057   2.693   2.741   8.710  4.5622 -0.1038  2.4341
 1008MOL0     H36058   2.646   2.696   8.954  2.7043 -2.6330 -1.3891
 1008MOL0     H36059   2.509   2.770   8.858 -0.3003  0.5099  2.1129
 1008MOL0     H36060   2.512   2.096   8.293 -0.3934 -0.6498  0.8401
 1008MOL0     H36061   2.355   1.887   8.295  1.1490 -0.4627 -1.9169
 1008MOL0     H36062   2.054   1.621   8.077  1.5638  0.6672  0.5183
 1008MOL0     H36063   1.931   1.395   8.114 -4.1243  1.5795 -2.1950
 1008MOL0     H36064   0.965   1.272   8.881  0.8116  2.4655  0.6220
 1008MOL0     H36065   0.747   1.308   9.030 -3.3181 -4.5293 -2.3827
 1008MOL0     H36066   0.478   1.293   9.165 -0.4968 -0.6704  1.6213
 1008MOL0     H36067   0.253   1.234   9.275  0.1918  0.2389 -0.0412
 1008MOL0     H36068  -0.098   1.453   9.435  0.6400 -1.6225 -0.9400
 1008MOL0     H36069  -0.046   1.562   9.304 -0.3975 -0.4989 -0.4478
 1008MOL0     H36070  -0.044   1.662   9.509  0.2943 -1.0014 -0.5542
 1008MOL0     H36071   0.135   1.640   9.455  0.3481 -0.5507 -0.3276
 1008MOL0     H36072   0.130   1.443   9.618 -1.1314  0.0499  0.5316
 1008MOL0     H36073  -0.014   1.511   9.683  1.2907  2.1435  2.8505
 1008MOL0     H36074   0.205   1.542   9.790  1.4682  1.7108  0.0907
 1008MOL0     H36075   0.248   1.658   9.658  0.0459  4.0691  1.7707
 1008MOL0     H36076  -0.060   1.868   9.897  2.2158  0.7120  1.6606
 1008MOL0     H36077   0.132   1.650   9.225  0.4018  1.8151 -2.7920
 1008MOL0     H36078   0.219   1.774   9.044  0.3646  3.1972  0.4567
 1008MOL0     H36079   0.341   1.804   9.163  0.2660 -1.0768 -0.1513
 1008MOL0     H36080   0.397   1.747   9.012  0.0606  1.4040 -0.5668
 1009MOL0     O36081  10.450   4.410   9.485  0.5170  0.3657 -0.3523
 1009MOL0     C36082  10.411   4.350   9.383 -0.0669 -0.9593 -0.1691
 1009MOL0     O36083  10.364   4.218   9.388  0.4832 -0.5200 -0.3195
 1009MOL0     C36084  10.377   4.134   9.491  0.4465 -0.3594  0.1020
 1009MOL0     C36085  10.388   4.171   9.628 -0.1346 -0.8624 -0.2606
 1009MOL0     C36086  10.415   4.070   9.726 -1.1838  0.6911 -0.1824
 1009MOL0     C36087  10.428   3.938   9.693  0.4232 -0.1514  0.1432
 1009MOL0     O36088  10.434   3.847   9.794  0.0019  0.4690 -0.3187
 1009MOL0     C36089  10.448   3.708   9.769  0.2058  0.0548  0.1312
 1009MOL0     C36090  10.467   3.620   9.902  0.2513 -0.5295  0.3039
 1009MOL0     C36091  10.615   3.630   9.962  0.4722 -0.6590 -1.2404
 1009MOL0     C36092  10.699   3.499   9.949  1.1161  0.6237  0.7903
 1009MOL0     C36093  10.848   3.507   9.984  0.0556 -1.1070  0.3184
 1009MOL0     C36094  10.901   3.378  10.026 -0.0080  0.2249  0.2621
 1009MOL0     C36095  10.910   3.263   9.915  0.1177  0.6729 -0.8608
 1009MOL0     C36096  10.954   3.303   9.774  0.6727 -0.7013 -0.9235
 1009MOL0     N36097  10.992   3.188   9.699 -1.0350 -0.0621  0.4327
 1009MOL0     C36098  11.106   3.168   9.615  0.3808  0.2749 -0.5755
 1009MOL0     C36099  11.103   3.043   9.565  0.1424 -0.5627 -0.3041
 1009MOL0     C36100  11.195   2.979   9.460 -0.4988  0.6897 -0.2432
 1009MOL0     C36101  11.341   2.971   9.504 -0.9950  0.1340  0.0669
 1009MOL0     C36102  11.432   2.884   9.422  0.2348  0.2057  0.8653
 1009MOL0     C36103  11.577   2.906   9.441 -0.8003 -0.7856 -0.2097
 1009MOL0     O36104  11.655   2.827   9.354 -1.1821  0.2825  0.9112
 1009MOL0     C36105  11.676   2.873   9.227 -0.4889  0.7814 -0.2553
 1009MOL0     C36106  11.738   2.776   9.144 -0.1733  0.5288 -0.7711
 1009MOL0     C36107  11.755   2.797   9.009 -1.1464  0.0943 -0.1757
 1009MOL0     C36108  11.707   2.919   8.951  1.2535 -0.5782 -0.5230
 1009MOL0     C36109  11.727   2.938   8.811 -0.3621  0.1015 -1.0623
 1009MOL0     O36110  11.784   2.834   8.741  0.3414  0.0044 -0.3183
 1009MOL0     C36111  11.826   2.862   8.617 -0.5880 -0.0294 -1.0221
 1009MOL0     C36112  11.921   2.952   8.583  0.5848 -0.7653 -0.0501
 1009MOL0     C36113  11.951   2.973   8.446 -0.0941  0.0367  0.1005
 1009MOL0     C36114  11.895   2.896   8.346  0.7257  0.2150 -0.7784
 1009MOL0     O36115  11.938   2.921   8.222 -0.4492 -0.0804  0.2792
 1009MOL0     C36116  11.898   2.842   8.109  0.4370 -0.2566 -0.0423
 1009MOL0     C36117  12.010   2.851   8.006 -0.0862  0.2527  0.4066
 1009MOL0     C36118  11.982   2.773   7.876  1.3775 -0.3791 -0.6525
 1009MOL0     C36119  12.090   2.787   7.768 -0.4368 -0.5171 -0.1235
 1009MOL0     C36120  12.046   2.701   7.645 -0.0606  0.1664  0.5868
 1009MOL0     C36121  12.168   2.675   7.543  0.2293  0.8664  0.3986
 1009MOL0     C36122  12.159   2.538   7.474  0.2847  0.1009  0.1000
 1009MOL0     C36123  12.251   2.537   7.349 -0.9075  1.0143  0.8425
 1009MOL0    Cl36124  12.182   2.626   7.213  0.0410 -0.3038 -0.1659
 1009MOL0     C36125  11.793   2.803   8.386 -0.5144  0.6075 -0.0152
 1009MOL0     C36126  11.755   2.794   8.522  0.2002  0.9264  0.3893
 1009MOL0     O36127  11.683   3.042   8.764  0.1065 -0.1858  0.0508
 1009MOL0     C36128  11.642   3.017   9.034 -0.1497 -0.2987 -0.1858
 1009MOL0     C36129  11.631   2.993   9.171 -0.1403 -0.4763  0.8516
 1009MOL0     N36130  10.987   2.984   9.617  0.7591  1.1137 -0.4408
 1009MOL0     N36131  10.921   3.077   9.685  0.6321  0.7116 -0.0655
 1009MOL0     C36132  10.397   3.900   9.564 -0.1225  0.6297  0.8986
 1009MOL0     C36133  10.365   3.997   9.466 -0.0542  0.2333 -0.6691
 1009MOL0     C36134  10.393   4.429   9.259 -0.4958 -0.3559 -0.3042
 1009MOL0     C36135  10.279   4.423   9.183  0.4946  0.4900 -1.0714
 1009MOL0     C36136  10.275   4.504   9.061 -0.0111  0.1113 -0.6274
 1009MOL0     C36137  10.379   4.588   9.023  0.0824  0.1476 -0.4006
 1009MOL0     O36138  10.358   4.645   8.903  0.2130  0.4443  0.9053
 1009MOL0     C36139  10.420   4.773   8.895 -0.3087 -0.1888 -0.7222
 1009MOL0     C36140  10.313   4.884   8.922  0.5233 -0.0358 -0.0379
 1009MOL0     C36141  10.363   5.029   8.890  0.4427  0.7859  0.0380
 1009MOL0     C36142  10.345   5.070   8.741  0.3342  0.0617 -0.1391
 1009MOL0     C36143  10.401   5.205   8.720 -0.5484  0.5621 -0.4602
 1009MOL0     C36144  10.446   5.316   8.709  0.2515  0.5652 -0.0150
 1009MOL0     C36145  10.496   4.595   9.101 -0.2253 -0.4702 -1.1457
 1009MOL0     C36146  10.509   4.512   9.215  0.8302  0.7399  0.2021
 1009MOL0     C36147  10.640   4.503   9.290 -0.0387  0.3903 -0.3953
 1009MOL0     H36148  10.401   4.273   9.663  2.2919 -0.8328 -1.0787
 1009MOL0     H36149  10.424   4.106   9.828 -1.1961 -0.0492  0.0809
 1009MOL0     H36150  10.355   3.669   9.725  0.6198 -1.2230  0.3462
 1009MOL0     H36151  10.527   3.694   9.695 -2.1578 -3.1604 -2.0738
 1009MOL0     H36152  10.449   3.517   9.871 -0.9374 -0.3978  0.5170
 1009MOL0     H36153  10.395   3.647   9.979 -1.3267 -0.1973 -1.2337
 1009MOL0     H36154  10.601   3.637  10.070 -1.2552 -3.7162 -1.1457
 1009MOL0     H36155  10.667   3.718   9.921  0.7450 -0.3296 -0.2068
 1009MOL0     H36156  10.643   3.427  10.009 -0.9341  1.8299  0.4439
 1009MOL0     H36157  10.687   3.452   9.851 -0.6386 -0.8869  1.6673
 1009MOL0     H36158  10.909   3.548   9.903  0.0302 -1.6566  0.0177
 1009MOL0     H36159  10.854   3.567  10.075 -1.0854 -3.2674  1.8909
 1009MOL0     H36160  10.997   3.413  10.065 -0.6020  0.8638  1.1659
 1009MOL0     H36161  10.844   3.333  10.108 -1.4074  2.2457  0.4725
 1009MOL0     H36162  10.823   3.196   9.920  0.3855  0.3409 -0.6103
 1009MOL0     H36163  11.000   3.213   9.953 -0.8085  0.1744  0.7973
 1009MOL0     H36164  10.873   3.348   9.717  0.2708  0.2675  0.3816
 1009MOL0     H36165  11.043   3.366   9.785 -1.2486  1.7352  1.9905
 1009MOL0     H36166  11.188   3.236   9.594 -0.4485  1.4971  0.0249
 1009MOL0     H36167  11.163   2.876   9.442  1.8635  0.2303 -2.4415
 1009MOL0     H36168  11.171   3.036   9.370 -5.7465  1.1417  1.1337
 1009MOL0     H36169  11.386   3.071   9.507  0.0933 -0.3641  1.6550
 1009MOL0     H36170  11.346   2.935   9.607  1.8261  0.1763  0.0260
 1009MOL0     H36171  11.421   2.903   9.315  1.4496  0.0440  0.6949
 1009MOL0     H36172  11.421   2.776   9.440 -0.3202 -0.0007 -0.5382
 1009MOL0     H36173  11.606   2.888   9.545 -2.1222  3.6692  1.1567
 1009MOL0     H36174  11.597   3.013   9.433  2.4121 -1.2079  0.7585
 1009MOL0     H36175  11.780   2.692   9.198 -2.2658 -0.6746 -0.9017
 1009MOL0     H36176  11.792   2.714   8.949  0.4857  1.2522 -0.8345
 1009MOL0     H36177  11.961   3.018   8.659 -2.6811  0.3231  0.9134
 1009MOL0     H36178  12.029   3.041   8.413 -1.8779  2.4083  0.5204
 1009MOL0     H36179  11.875   2.735   8.117 -0.4616 -0.1761 -1.1164
 1009MOL0     H36180  11.807   2.874   8.056  0.9948 -1.3011 -1.7093
 1009MOL0     H36181  12.027   2.956   7.981 -0.3226 -0.1651 -1.6846
 1009MOL0     H36182  12.100   2.809   8.050 -1.0215 -1.1572  1.0503
 1009MOL0     H36183  11.966   2.665   7.890 -1.0112 -0.4665 -3.2179
 1009MOL0     H36184  11.888   2.807   7.832  2.1142  0.8838 -1.2950
 1009MOL0     H36185  12.182   2.740   7.803  0.1456 -0.2398 -1.2598
 1009MOL0     H36186  12.118   2.885   7.729  2.2638 -0.6272  1.3320
 1009MOL0     H36187  11.964   2.753   7.594 -0.3943  0.3482  1.3004
 1009MOL0     H36188  12.012   2.604   7.682  2.7181 -0.6241  1.2997
 1009MOL0     H36189  12.190   2.757   7.473 -1.2407  0.4612 -0.5966
 1009MOL0     H36190  12.258   2.672   7.605 -1.9794  2.2961  3.9947
 1009MOL0     H36191  12.063   2.497   7.441  1.0870 -0.4393 -1.6865
 1009MOL0     H36192  12.199   2.470   7.550  0.5641  0.8009  0.5878
 1009MOL0     H36193  12.354   2.564   7.371  0.1127 -1.9735  0.2640
 1009MOL0     H36194  12.259   2.432   7.319 -0.7935  0.7055  1.9096
 1009MOL0     H36195  11.755   2.749   8.300  0.9383  1.5546 -1.3135
 1009MOL0     H36196  11.677   2.728   8.556 -2.1538  3.4372  0.1735
 1009MOL0     H36197  11.605   3.115   9.007 -0.2497 -0.2931 -0.0339
 1009MOL0     H36198  11.583   3.069   9.231  1.7192  0.2542  1.4797
 1009MOL0     H36199  10.401   3.802   9.517 -1.9733  0.1906  1.5831
 1009MOL0     H36200  10.358   3.951   9.368  0.2389 -1.6245  0.1385
 1009MOL0     H36201  10.193   4.367   9.218  0.6936  0.0441 -1.2875
 1009MOL0     H36202  10.187   4.511   8.998  0.9887 -2.6348 -2.5084
 1009MOL0     H36203  10.458   4.783   8.793  0.6233 -0.2030 -0.3861
 1009MOL0     H36204  10.504   4.797   8.961 -0.5129  0.4159 -0.6759
 1009MOL0     H36205  10.283   4.868   9.026  0.4973 -0.1005 -0.0562
 1009MOL0     H36206  10.231   4.849   8.860 -0.3339 -0.7357  1.4253
 1009MOL0     H36207  10.470   5.034   8.913  1.3116 -0.3753 -3.1653
 1009MOL0     H36208  10.313   5.102   8.954 -1.0555 -0.8262  0.8305
 1009MOL0     H36209  10.398   4.997   8.679 -0.3786  0.1704 -0.8917
 1009MOL0     H36210  10.239   5.069   8.713  0.2629 -1.8606  0.0446
 1009MOL0     H36211  10.485   5.415   8.698 -0.6745  1.1132  1.4234
 1009MOL0     H36212  10.580   4.656   9.069 -0.8097 -0.1953 -2.1903
 1009MOL0     H36213  10.666   4.397   9.297 -1.6993 -0.1398 -1.5752
 1009MOL0     H36214  10.723   4.555   9.242  2.1388 -0.9207  1.7265
 1009MOL0     H36215  10.642   4.539   9.393 -1.4721  0.1724 -0.2662
 1010MOL0     O36216   6.292   1.105   0.240  0.0461  0.2871  0.3699
 1010MOL0     C36217   6.243   0.999   0.272 -0.5044  0.2307  0.6049
 1010MOL0     O36218   6.318   0.883   0.287  0.6388  1.8546 -0.8298
 1010MOL0     C36219   6.457   0.912   0.292 -0.2822 -0.0136 -0.1237
 1010MOL0     C36220   6.526   0.942   0.411  0.3570 -0.2238  0.4033
 1010MOL0     C36221   6.674   0.966   0.421  0.8101  0.2008 -0.3960
 1010MOL0     C36222   6.745   0.947   0.305  0.0063 -0.4745  0.1544
 1010MOL0     O36223   6.880   0.948   0.322 -0.3860  0.7860 -0.0127
 1010MOL0     C36224   6.945   0.864   0.224  0.6046  0.4863  0.0878
 1010MOL0     C36225   7.087   0.870   0.245  0.0395 -0.4247  0.7118
 1010MOL0     C36226   7.144   1.013   0.217  0.3081 -1.0564  0.0707
 1010MOL0     C36227   7.152   1.052   0.065 -0.5936 -0.7781  0.0297
 1010MOL0     C36228   7.204   1.190   0.052 -0.3549 -0.6621  0.4118
 1010MOL0     C36229   7.280   1.205  -0.084  0.7189  0.1762 -0.4179
 1010MOL0     C36230   7.182   1.221  -0.200 -0.6311 -0.0891  0.2032
 1010MOL0     C36231   7.236   1.205  -0.346 -0.0266  1.3351  0.2821
 1010MOL0     N36232   7.265   1.061  -0.374 -0.0614  0.1128 -0.6324
 1010MOL0     C36233   7.188   0.953  -0.337 -0.1341 -0.4889  0.1569
 1010MOL0     C36234   7.283   0.852  -0.355 -0.1775 -1.1348 -0.0285
 1010MOL0     C36235   7.278   0.702  -0.312  0.2864  0.1804 -0.8955
 1010MOL0     C36236   7.142   0.663  -0.240 -0.0955  0.1962  0.3558
 1010MOL0     C36237   7.035   0.599  -0.330 -0.0099 -0.4634  0.3556
 1010MOL0     C36238   6.926   0.528  -0.244  0.5603  1.4291 -0.7446
 1010MOL0     O36239   6.839   0.486  -0.351  0.1969 -0.0825  0.3582
 1010MOL0     C36240   6.717   0.432  -0.308 -0.1401  0.1768  0.4322
 1010MOL0     C36241   6.608   0.465  -0.377  0.7548  0.0666 -0.5006
 1010MOL0     C36242   6.483   0.422  -0.337  0.3664  1.0632  0.4014
 1010MOL0     C36243   6.475   0.340  -0.220 -0.2800 -0.5815  0.1209
 1010MOL0     C36244   6.345   0.286  -0.160 -0.0682 -0.0538 -0.6346
 1010MOL0     O36245   6.233   0.302  -0.238  0.3369 -0.5485  0.5114
 1010MOL0     C36246   6.109   0.277  -0.180  0.6172 -0.2162 -0.8655
 1010MOL0     C36247   6.016   0.372  -0.135  0.4818 -0.6186 -0.9848
 1010MOL0     C36248   5.884   0.342  -0.086  0.0620  0.0618  0.0193
 1010MOL0     C36249   5.840   0.214  -0.096  0.3793  0.5097 -0.5473
 1010MOL0     O36250   5.709   0.168  -0.071 -0.5639  0.2714 -0.9420
 1010MOL0     C36251   5.637   0.219   0.047  1.0718  0.1715  0.0023
 1010MOL0     C36252   5.513   0.134   0.056  0.3096  0.2271 -0.1333
 1010MOL0     C36253   5.421   0.153  -0.067  0.3046  0.3132  0.2632
 1010MOL0     C36254   5.281   0.098  -0.036 -0.9430 -0.0040 -0.5136
 1010MOL0     C36255   5.180   0.137  -0.139 -0.5098  1.0659  1.0560
 1010MOL0     C36256   5.165   0.043  -0.260 -0.1057  0.6565 -0.3194
 1010MOL0     C36257   5.044   0.065  -0.348 -0.3209 -0.4365 -0.0132
 1010MOL0     C36258   4.912   0.031  -0.272 -0.3873 -0.1063 -0.1187
 1010MOL0    Cl36259   4.788   0.052  -0.393  0.3358  0.3333 -0.0876
 1010MOL0     C36260   5.929   0.127  -0.151 -0.3374  0.3176  0.0424
 1010MOL0     C36261   6.059   0.153  -0.188 -1.0070  0.4335 -0.6073
 1010MOL0     O36262   6.341   0.236  -0.044  0.0550 -0.1325 -0.1455
 1010MOL0     C36263   6.592   0.298  -0.163 -0.8937 -0.3028 -0.4209
 1010MOL0     C36264   6.716   0.341  -0.207  0.0439  0.0374 -0.8082
 1010MOL0     N36265   7.398   0.902  -0.423  0.7038  0.0012 -0.1560
 1010MOL0     N36266   7.382   1.022  -0.437  0.1732 -0.3337 -0.2458
 1010MOL0     C36267   6.675   0.926   0.184 -0.3756 -0.5758  0.7031
 1010MOL0     C36268   6.533   0.911   0.174  0.6535  0.0495  0.1148
 1010MOL0     C36269   6.093   0.998   0.303 -0.8880 -0.2766  0.0614
 1010MOL0     C36270   6.058   0.880   0.379  0.3922 -0.9688  0.0397
 1010MOL0     C36271   5.924   0.872   0.409  0.3803  0.0820 -0.2412
 1010MOL0     C36272   5.821   0.962   0.378  0.1552 -0.2522 -0.8442
 1010MOL0     O36273   5.696   0.916   0.405 -0.2263 -0.2669 -0.2754
 1010MOL0     C36274   5.594   0.965   0.307  0.3648  0.2390 -0.6910
 1010MOL0     C36275   5.449   0.923   0.343 -0.6080  0.2955  0.5068
 1010MOL0     C36276   5.398   0.981   0.473 -0.0225  0.2909 -0.3338
 1010MOL0     C36277   5.248   0.973   0.496  1.0271  0.5195 -0.6732
 1010MOL0     C36278   5.211   1.026   0.631  0.2855 -0.6773 -0.4279
 1010MOL0     C36279   5.173   1.054   0.739  0.4157  0.2721  0.0561
 1010MOL0     C36280   5.863   1.082   0.327 -0.9209  0.9977  0.3132
 1010MOL0     C36281   5.997   1.103   0.292  0.1902 -0.7805 -0.3789
 1010MOL0     C36282   6.023   1.241   0.231 -0.5575 -0.2020  0.1700
 1010MOL0     H36283   6.470   0.936   0.504 -0.2777 -4.7336 -0.0302
 1010MOL0     H36284   6.726   0.978   0.516  0.3173 -0.8988  0.0301
 1010MOL0     H36285   6.913   0.760   0.226 -1.8116  1.0403 -2.6105
 1010MOL0     H36286   6.916   0.903   0.126  0.3200 -3.1607 -1.4523
 1010MOL0     H36287   7.148   0.806   0.181  0.6340 -1.0268  1.8370
 1010MOL0     H36288   7.110   0.843   0.349  0.2934  3.5150  1.8225
 1010MOL0     H36289   7.245   1.026   0.256  0.3679 -0.4402 -0.2755
 1010MOL0     H36290   7.075   1.081   0.266 -2.0972 -3.3849  0.1529
 1010MOL0     H36291   7.215   0.981   0.012  2.0677  1.4642 -0.0212
 1010MOL0     H36292   7.053   1.042   0.018  0.3975  1.0959 -2.6959
 1010MOL0     H36293   7.117   1.252   0.072 -2.8551 -2.9309 -2.4767
 1010MOL0     H36294   7.281   1.204   0.128 -0.6649  1.2986  0.4119
 1010MOL0     H36295   7.343   1.294  -0.080 -1.3911  1.9694 -3.5865
 1010MOL0     H36296   7.356   1.126  -0.086  3.1181  2.2978  1.3164
 1010MOL0     H36297   7.151   1.325  -0.189  3.1242  1.1413  0.2946
 1010MOL0     H36298   7.101   1.147  -0.189  0.2939 -0.9170  1.7671
 1010MOL0     H36299   7.148   1.240  -0.402 -0.4425 -1.3335 -0.8867
 1010MOL0     H36300   7.321   1.263  -0.382  1.8253 -2.3934 -1.9937
 1010MOL0     H36301   7.092   0.951  -0.287 -0.0289  0.1423  0.3823
 1010MOL0     H36302   7.312   0.648  -0.401  0.1768  1.5709 -1.8121
 1010MOL0     H36303   7.349   0.681  -0.232 -0.9818 -3.2290 -0.4958
 1010MOL0     H36304   7.160   0.592  -0.158 -1.7282  1.2175  1.6522
 1010MOL0     H36305   7.100   0.746  -0.183  0.7032  0.3966  0.6568
 1010MOL0     H36306   7.086   0.527  -0.395  2.0365  2.2864 -1.3005
 1010MOL0     H36307   6.995   0.679  -0.393  0.9549 -0.0324  0.2871
 1010MOL0     H36308   6.882   0.606  -0.182  2.9266  2.2268  0.0295
 1010MOL0     H36309   6.970   0.451  -0.180 -1.5056  2.3399  1.9394
 1010MOL0     H36310   6.622   0.537  -0.457  1.3623 -2.4987 -2.8564
 1010MOL0     H36311   6.394   0.474  -0.371 -2.4973 -2.9980  0.9552
 1010MOL0     H36312   6.068   0.467  -0.137  0.9687 -0.8951 -2.0596
 1010MOL0     H36313   5.824   0.422  -0.045 -0.4900 -1.5940  2.7365
 1010MOL0     H36314   5.688   0.211   0.143  1.1696  0.8038  0.0048
 1010MOL0     H36315   5.620   0.326   0.036 -3.1995 -0.4295 -1.0451
 1010MOL0     H36316   5.548   0.030   0.059  1.3098  0.5075 -1.5571
 1010MOL0     H36317   5.451   0.176   0.136 -1.7571 -0.3131 -1.3565
 1010MOL0     H36318   5.413   0.259  -0.093  1.0569 -0.0849 -1.7535
 1010MOL0     H36319   5.463   0.108  -0.157 -0.9318  1.4663 -0.9392
 1010MOL0     H36320   5.255   0.150   0.056  2.3225  0.5117  0.2579
 1010MOL0     H36321   5.278  -0.010  -0.022  0.2683  0.2315  2.0428
 1010MOL0     H36322   5.192   0.241  -0.172 -1.1630  0.6266 -0.6899
 1010MOL0     H36323   5.086   0.118  -0.086 -1.2976 -1.7361 -1.0784
 1010MOL0     H36324   5.249   0.071  -0.324 -1.2321  5.7490  0.0187
 1010MOL0     H36325   5.174  -0.062  -0.231 -2.5884  0.5803  0.3947
 1010MOL0     H36326   5.052   0.006  -0.440 -0.5178 -0.6096  0.0808
 1010MOL0     H36327   5.050   0.173  -0.366  0.3657  0.0953  2.8405
 1010MOL0     H36328   4.908  -0.063  -0.216  0.2090 -0.9114 -1.3761
 1010MOL0     H36329   4.895   0.114  -0.204 -1.5488  0.3810 -0.9703
 1010MOL0     H36330   5.889   0.031  -0.181  0.9617  0.2478 -1.6036
 1010MOL0     H36331   6.116   0.081  -0.247 -1.3465  1.7930 -2.6895
 1010MOL0     H36332   6.585   0.219  -0.088  0.0073 -1.3699 -1.4198
 1010MOL0     H36333   6.802   0.307  -0.151 -1.8603 -1.8172  1.2227
 1010MOL0     H36334   6.724   0.928   0.088 -2.4726 -0.0342 -0.4154
 1010MOL0     H36335   6.489   0.881   0.080  0.8185 -3.4278  0.9934
 1010MOL0     H36336   6.126   0.805   0.420  2.2458  0.3984 -0.3962
 1010MOL0     H36337   5.895   0.790   0.474 -0.6648  2.0547  1.9111
 1010MOL0     H36338   5.613   0.941   0.202  1.5737 -1.3593 -0.1423
 1010MOL0     H36339   5.588   1.074   0.303  3.6730  0.6298  1.2400
 1010MOL0     H36340   5.440   0.814   0.344 -0.6171  0.2266 -2.2250
 1010MOL0     H36341   5.384   0.956   0.262 -0.9570  1.7262  1.3226
 1010MOL0     H36342   5.439   1.082   0.483 -0.0264  0.3413 -0.7807
 1010MOL0     H36343   5.450   0.928   0.553 -1.6703 -1.0277 -0.0929
 1010MOL0     H36344   5.207   1.033   0.414 -0.8156  0.5998  0.2842
 1010MOL0     H36345   5.219   0.869   0.485 -2.9298  1.6044 -2.0940
 1010MOL0     H36346   5.127   1.065   0.835  2.2803 -2.7304  1.4166
 1010MOL0     H36347   5.790   1.161   0.310 -1.2445  0.3075 -1.8363
 1010MOL0     H36348   6.107   1.294   0.276  0.6879 -2.4052  0.5725
 1010MOL0     H36349   6.036   1.240   0.122 -0.0817 -1.4737  0.2211
 1010MOL0     H36350   5.940   1.308   0.255  0.3974  2.4908 -3.2540
 1011MOL0     O36351  11.170   7.613   5.688  0.1562  0.2125 -0.4158
 1011MOL0     C36352  11.082   7.619   5.772  0.7220 -0.5370  0.3538
 1011MOL0     O36353  10.981   7.526   5.782  0.5146 -0.0869 -0.4557
 1011MOL0     C36354  10.983   7.399   5.720 -0.6024 -0.7150 -0.2581
 1011MOL0     C36355  11.096   7.328   5.665 -0.4894 -0.7643  0.3451
 1011MOL0     C36356  11.071   7.201   5.595  0.1204 -0.1749 -0.7922
 1011MOL0     C36357  10.944   7.145   5.578 -1.2265 -0.9500  0.1763
 1011MOL0     O36358  10.925   7.028   5.523  0.6136 -0.0494  0.2008
 1011MOL0     C36359  10.790   7.008   5.465 -1.4738  0.8689  0.2770
 1011MOL0     C36360  10.780   6.874   5.377 -0.1084 -0.0784 -0.3165
 1011MOL0     C36361  10.836   6.749   5.430  0.0067  0.8891  0.2710
 1011MOL0     C36362  10.844   6.640   5.309  0.1688  0.5379  0.4844
 1011MOL0     C36363  10.869   6.493   5.356  0.3908 -0.1704  0.4830
 1011MOL0     C36364  10.920   6.416   5.240 -0.5898  0.9273  0.5157
 1011MOL0     C36365  10.813   6.382   5.143  0.4899  0.7629  0.4310
 1011MOL0     C36366  10.690   6.320   5.217  0.2817 -0.0260 -0.0967
 1011MOL0     N36367  10.722   6.183   5.267  0.0556 -0.1501  0.3682
 1011MOL0     C36368  10.801   6.092   5.194 -0.2235 -0.2861 -0.6084
 1011MOL0     C36369  10.802   5.983   5.274 -0.4203  0.1246  0.6101
 1011MOL0     C36370  10.872   5.846   5.246 -0.3556  0.8374  0.1079
 1011MOL0     C36371  11.002   5.816   5.328  0.4039  0.5258  0.1010
 1011MOL0     C36372  11.048   5.920   5.439 -0.0038  0.4825  0.4472
 1011MOL0     C36373  11.179   5.887   5.503 -0.0123 -0.1822 -0.2963
 1011MOL0     O36374  11.198   5.965   5.620  0.1480 -0.5273  0.0717
 1011MOL0     C36375  11.312   5.962   5.692 -0.6670  0.4202  0.1717
 1011MOL0     C36376  11.335   6.056   5.794 -0.1241  0.5102  0.3938
 1011MOL0     C36377  11.464   6.072   5.861  0.4925  0.5796 -0.3128
 1011MOL0     C36378  11.572   5.988   5.821  0.0224  0.2313  0.2585
 1011MOL0     C36379  11.706   6.009   5.877  0.1250  0.4005  0.2641
 1011MOL0     O36380  11.799   5.919   5.834  0.4249  0.0069 -0.3727
 1011MOL0     C36381  11.918   5.895   5.898 -0.3441  0.1417 -0.4295
 1011MOL0     C36382  11.996   5.795   5.841 -0.5162  0.3225 -0.1150
 1011MOL0     C36383  12.127   5.767   5.882 -0.3498  0.3610  0.5162
 1011MOL0     C36384  12.190   5.839   5.983 -0.2371  0.1588 -0.1210
 1011MOL0     O36385  12.314   5.817   6.032  0.5403 -0.3501  0.0393
 1011MOL0     C36386  12.385   5.699   5.987  0.0878 -0.3243 -0.3431
 1011MOL0     C36387  12.516   5.677   6.067  0.9876  0.2084  0.7406
 1011MOL0     C36388  12.624   5.788   6.062  0.3661  0.3312 -0.3367
 1011MOL0     C36389  12.721   5.754   6.174 -0.1486  0.3725 -0.3580
 1011MOL0     C36390  12.866   5.819   6.176  1.6548  0.5513  0.0461
 1011MOL0     C36391  12.955   5.763   6.285  0.0776  0.4627  0.9470
 1011MOL0     C36392  13.077   5.854   6.323  0.5421 -0.3683  0.2265
 1011MOL0     C36393  13.167   5.778   6.423  0.5806  0.0188  1.2682
 1011MOL0    Cl36394  13.083   5.760   6.585 -0.5103 -0.2655  0.3778
 1011MOL0     C36395  12.109   5.934   6.050 -0.0059  0.1827  0.0159
 1011MOL0     C36396  11.979   5.963   6.010  0.4319 -0.1881  0.4547
 1011MOL0     O36397  11.723   6.090   5.969  0.3365 -0.2974  0.0122
 1011MOL0     C36398  11.546   5.882   5.731  0.1557  0.4193 -0.1702
 1011MOL0     C36399  11.419   5.869   5.666 -0.0635 -0.5264 -0.6547
 1011MOL0     N36400  10.734   6.012   5.391  0.9208  0.0547  0.2558
 1011MOL0     N36401  10.684   6.132   5.384  0.6604  0.1984  0.0350
 1011MOL0     C36402  10.843   7.223   5.636  0.6057  0.0425 -0.3618
 1011MOL0     C36403  10.859   7.353   5.689  0.8252 -0.0436  0.1042
 1011MOL0     C36404  11.089   7.736   5.868  1.3694 -0.2692 -0.3528
 1011MOL0     C36405  11.125   7.860   5.820 -0.3465  0.2652  0.2995
 1011MOL0     C36406  11.133   7.968   5.901  0.0191 -0.2220 -0.3319
 1011MOL0     C36407  11.095   7.964   6.037 -0.3143 -0.2844 -0.3452
 1011MOL0     O36408  11.110   8.066   6.130  0.1686  1.0388  0.3754
 1011MOL0     C36409  11.121   8.206   6.099 -0.5937 -0.1009  0.0386
 1011MOL0     C36410  10.990   8.254   6.072 -0.6698 -0.0104  0.5045
 1011MOL0     C36411  10.972   8.403   6.058  0.0605 -0.6754  0.6631
 1011MOL0     C36412  10.931   8.473   6.192 -0.4753  0.0002  0.0026
 1011MOL0     C36413  10.787   8.483   6.228 -0.7604 -0.4830 -0.3215
 1011MOL0     C36414  10.689   8.499   6.288 -0.3366  0.2252  0.1754
 1011MOL0     C36415  11.056   7.840   6.088  0.1642  0.3941 -0.1337
 1011MOL0     C36416  11.053   7.725   6.007  0.5550 -0.1929 -0.7771
 1011MOL0     C36417  10.994   7.590   6.058 -0.1307  0.7889  0.3049
 1011MOL0     H36418  11.191   7.379   5.671 -1.5851  2.1168 -2.9073
 1011MOL0     H36419  11.158   7.150   5.553 -0.2694 -1.6843  0.1647
 1011MOL0     H36420  10.725   6.984   5.549 -3.6287 -3.2252 -2.2466
 1011MOL0     H36421  10.763   7.082   5.389  1.2563  0.0389 -1.6908
 1011MOL0     H36422  10.839   6.886   5.286  1.6862 -1.1860  0.6436
 1011MOL0     H36423  10.673   6.861   5.356 -0.5446  0.4869  1.4001
 1011MOL0     H36424  10.764   6.708   5.503 -0.9710  0.8404 -0.6973
 1011MOL0     H36425  10.930   6.770   5.482 -0.7612 -0.8938  2.5954
 1011MOL0     H36426  10.752   6.646   5.249 -0.9080 -1.8627  1.7563
 1011MOL0     H36427  10.930   6.667   5.247 -0.1166 -0.1875 -0.2531
 1011MOL0     H36428  10.952   6.487   5.426  0.3307 -3.9905  0.4000
 1011MOL0     H36429  10.786   6.440   5.403  2.0377 -3.1027  0.3285
 1011MOL0     H36430  11.007   6.465   5.195 -0.0260  3.2755  3.7988
 1011MOL0     H36431  10.952   6.320   5.283 -2.6954  0.6774  1.6512
 1011MOL0     H36432  10.838   6.317   5.059  0.9492  0.6461  0.6564
 1011MOL0     H36433  10.778   6.474   5.097  1.2394  0.7323 -0.2251
 1011MOL0     H36434  10.636   6.378   5.293  1.0241 -0.3100  0.6695
 1011MOL0     H36435  10.614   6.302   5.141  1.5460 -2.2320 -0.9426
 1011MOL0     H36436  10.843   6.101   5.095  0.3981 -1.4471 -0.4677
 1011MOL0     H36437  10.800   5.766   5.267 -1.6164  0.9345 -3.1528
 1011MOL0     H36438  10.904   5.819   5.145  0.2641  0.6089  0.3646
 1011MOL0     H36439  10.990   5.718   5.375 -0.1404 -1.1867 -3.3348
 1011MOL0     H36440  11.084   5.795   5.259 -0.0876 -0.7744 -0.1100
 1011MOL0     H36441  10.969   5.921   5.515 -2.2454  0.6542 -1.7622
 1011MOL0     H36442  11.056   6.020   5.397  1.1982  0.8579  1.5094
 1011MOL0     H36443  11.268   5.904   5.442 -0.4909  1.0081 -0.6864
 1011MOL0     H36444  11.174   5.784   5.541  1.8898  0.3942  1.6660
 1011MOL0     H36445  11.257   6.130   5.814  0.9107  1.1170  2.5329
 1011MOL0     H36446  11.482   6.149   5.935 -0.4158  0.7686 -0.2760
 1011MOL0     H36447  11.958   5.731   5.762 -2.2719 -2.0687  2.4812
 1011MOL0     H36448  12.166   5.672   5.847 -1.8928 -0.8299  1.8907
 1011MOL0     H36449  12.331   5.604   5.993  0.1625 -0.5386 -2.2715
 1011MOL0     H36450  12.421   5.710   5.884 -0.3131  0.7468 -0.3842
 1011MOL0     H36451  12.484   5.679   6.171 -1.9548  2.0464 -0.0483
 1011MOL0     H36452  12.566   5.582   6.047 -1.4368 -1.2583  1.2787
 1011MOL0     H36453  12.660   5.790   5.959 -0.3567 -1.4360 -0.6649
 1011MOL0     H36454  12.574   5.882   6.085 -0.3168 -0.0235 -0.3245
 1011MOL0     H36455  12.739   5.647   6.163  2.2606  0.7165 -0.2854
 1011MOL0     H36456  12.674   5.773   6.271  0.6901  1.0625 -0.0730
 1011MOL0     H36457  12.853   5.927   6.181 -1.0172  0.2662  0.7663
 1011MOL0     H36458  12.912   5.800   6.078  0.8040  2.1215 -0.6825
 1011MOL0     H36459  12.893   5.752   6.375 -1.2228  0.1128  0.0316
 1011MOL0     H36460  12.981   5.665   6.245 -0.8051  1.5505 -2.5897
 1011MOL0     H36461  13.034   5.939   6.376 -1.4641 -0.3549 -1.3209
 1011MOL0     H36462  13.140   5.882   6.238 -0.1875  1.1565  0.1580
 1011MOL0     H36463  13.174   5.679   6.377  0.4188  0.4903  0.2200
 1011MOL0     H36464  13.262   5.830   6.436  1.2559 -0.9586  0.4218
 1011MOL0     H36465  12.154   6.004   6.120 -0.8865  2.0619 -1.2258
 1011MOL0     H36466  11.938   6.051   6.058  1.0715  0.8936 -0.9328
 1011MOL0     H36467  11.622   5.809   5.707 -0.5204 -0.1984 -0.4824
 1011MOL0     H36468  11.405   5.793   5.589 -4.8827 -0.3177 -0.2488
 1011MOL0     H36469  10.744   7.180   5.642  0.2848  0.8292  0.1100
 1011MOL0     H36470  10.765   7.399   5.716 -0.0008  0.8115 -3.6401
 1011MOL0     H36471  11.152   7.880   5.717 -1.1174 -0.7046 -0.1086
 1011MOL0     H36472  11.168   8.057   5.851 -0.8830  0.3886  0.1021
 1011MOL0     H36473  11.184   8.236   6.015 -0.9532  0.5006 -0.0185
 1011MOL0     H36474  11.164   8.266   6.180  2.9479 -0.5073 -1.3488
 1011MOL0     H36475  10.922   8.222   6.152 -0.7411 -0.1213  0.3988
 1011MOL0     H36476  10.961   8.214   5.975  1.3602 -1.9253  0.6065
 1011MOL0     H36477  10.897   8.420   5.981  1.5018  0.8349 -0.4839
 1011MOL0     H36478  11.063   8.456   6.029  0.1736 -0.5470  1.2334
 1011MOL0     H36479  10.971   8.418   6.277 -5.6395 -0.4944  2.5168
 1011MOL0     H36480  10.965   8.577   6.194  3.4212 -1.1205  0.6759
 1011MOL0     H36481  10.595   8.511   6.338 -1.4564 -1.0793 -1.4766
 1011MOL0     H36482  11.010   7.842   6.186 -0.1053 -1.7043 -0.1643
 1011MOL0     H36483  10.894   7.568   6.019  1.1897 -2.4597 -1.6077
 1011MOL0     H36484  11.059   7.506   6.032 -0.7463  0.7101 -1.0677
 1011MOL0     H36485  10.998   7.590   6.167  0.0288  2.7356  0.3444
 1012MOL0     O36486   2.624   1.429   2.821 -0.0481  0.0716  0.7140
 1012MOL0     C36487   2.607   1.546   2.853 -0.1116 -0.0838 -0.9206
 1012MOL0     O36488   2.667   1.659   2.794  0.3721  0.9665 -0.4094
 1012MOL0     C36489   2.756   1.635   2.696  0.1622 -0.9507 -0.0744
 1012MOL0     C36490   2.873   1.575   2.734 -1.1024 -0.9490  0.0742
 1012MOL0     C36491   2.971   1.547   2.640  0.0165 -0.3795  0.2599
 1012MOL0     C36492   2.960   1.595   2.508 -0.4469 -0.0797  0.5106
 1012MOL0     O36493   3.074   1.561   2.422  0.0931 -0.5574  0.1894
 1012MOL0     C36494   3.074   1.625   2.292  0.1687 -0.3379 -0.0496
 1012MOL0     C36495   3.198   1.605   2.207  0.5611 -0.6739  0.7489
 1012MOL0     C36496   3.318   1.669   2.263 -0.7079  0.5274 -0.1219
 1012MOL0     C36497   3.440   1.603   2.212 -0.3491 -0.9833  0.9259
 1012MOL0     C36498   3.569   1.664   2.278 -0.1860 -0.3666 -0.1410
 1012MOL0     C36499   3.568   1.815   2.314 -0.6071 -0.1024 -0.5088
 1012MOL0     C36500   3.701   1.865   2.372  0.0840  0.3913  0.8561
 1012MOL0     C36501   3.708   2.014   2.405 -0.6533  0.3276  0.3824
 1012MOL0     N36502   3.600   2.101   2.355 -0.9053 -0.0305  0.4651
 1012MOL0     C36503   3.632   2.196   2.258 -0.1125 -0.3748 -0.7878
 1012MOL0     C36504   3.520   2.280   2.260 -0.5022 -0.5968 -0.0168
 1012MOL0     C36505   3.494   2.392   2.161  0.3094  0.9429 -0.7246
 1012MOL0     C36506   3.349   2.442   2.179  0.1197  0.0229  0.1087
 1012MOL0     C36507   3.268   2.426   2.040 -0.1940  0.4455 -0.5617
 1012MOL0     C36508   3.145   2.508   2.033 -0.8329  0.1600 -0.3206
 1012MOL0     O36509   3.052   2.481   2.141 -0.5755 -0.3271 -0.1579
 1012MOL0     C36510   2.954   2.386   2.120  0.8138 -0.9710 -0.2407
 1012MOL0     C36511   2.832   2.394   2.189 -0.3213 -0.6708  1.0035
 1012MOL0     C36512   2.710   2.326   2.152 -0.2941 -1.0829  0.3200
 1012MOL0     C36513   2.714   2.231   2.049  0.2242  0.3620  0.6641
 1012MOL0     C36514   2.592   2.164   1.997 -0.2586 -0.4075  0.7473
 1012MOL0     O36515   2.589   2.133   1.862  0.5158 -0.4515 -0.3673
 1012MOL0     C36516   2.472   2.095   1.811 -0.4612 -1.2557  0.5830
 1012MOL0     C36517   2.397   2.203   1.758  0.2240  0.6789 -0.5240
 1012MOL0     C36518   2.284   2.171   1.687  0.6878  0.0742  0.0348
 1012MOL0     C36519   2.243   2.037   1.669 -0.4036  0.0846 -0.0332
 1012MOL0     O36520   2.125   2.026   1.600  0.2760  0.1044 -0.2860
 1012MOL0     C36521   2.104   1.917   1.520  0.1742  0.5014  0.0937
 1012MOL0     C36522   1.974   1.937   1.442 -0.5884  0.3491  0.2772
 1012MOL0     C36523   1.863   1.886   1.534 -0.0592 -0.2143  0.4414
 1012MOL0     C36524   1.730   1.960   1.514 -0.4370 -0.3146 -0.0392
 1012MOL0     C36525   1.626   1.876   1.592 -0.3218  0.4879  0.6054
 1012MOL0     C36526   1.509   1.964   1.616  0.3812  0.6058 -0.0150
 1012MOL0     C36527   1.424   2.000   1.500 -0.3383 -0.9250 -0.4563
 1012MOL0     C36528   1.355   1.880   1.435 -0.2570  0.0735  0.5962
 1012MOL0    Cl36529   1.229   1.807   1.534  0.2974 -0.2066  0.3895
 1012MOL0     C36530   2.323   1.933   1.716  0.5764 -0.1789 -0.5646
 1012MOL0     C36531   2.441   1.966   1.786 -0.4132  0.0184  0.3980
 1012MOL0     O36532   2.498   2.162   2.072  0.1144 -0.1598 -0.3127
 1012MOL0     C36533   2.837   2.222   1.978  0.3140 -1.4351 -0.3145
 1012MOL0     C36534   2.945   2.297   2.003 -0.0205  0.1611  0.4278
 1012MOL0     N36535   3.437   2.246   2.367 -0.1385  0.1478  0.1804
 1012MOL0     N36536   3.482   2.137   2.411 -0.1728  0.0616  0.0867
 1012MOL0     C36537   2.837   1.652   2.466 -0.0471 -0.2274 -0.5056
 1012MOL0     C36538   2.734   1.671   2.565 -0.0921  0.3007 -0.0968
 1012MOL0     C36539   2.531   1.565   2.972 -0.3981 -0.3569  0.3328
 1012MOL0     C36540   2.532   1.467   3.070  0.4575  0.8519  0.7830
 1012MOL0     C36541   2.450   1.474   3.182 -0.1732 -0.0312 -0.1153
 1012MOL0     C36542   2.364   1.578   3.202 -1.0336 -0.3227  0.5110
 1012MOL0     O36543   2.323   1.602   3.329 -0.3131  0.5829  0.0719
 1012MOL0     C36544   2.244   1.719   3.362  0.7818 -0.0891 -0.0748
 1012MOL0     C36545   2.201   1.727   3.506 -0.1545 -0.1293 -0.0795
 1012MOL0     C36546   2.089   1.626   3.549 -0.1115 -0.1518 -0.0785
 1012MOL0     C36547   2.053   1.635   3.700  0.3776  0.1055 -0.1043
 1012MOL0     C36548   2.164   1.598   3.779 -0.2158  0.7845 -0.4689
 1012MOL0     C36549   2.256   1.537   3.848 -0.2262 -0.1774  0.9643
 1012MOL0     C36550   2.352   1.674   3.095 -1.0680  0.1151  0.4042
 1012MOL0     C36551   2.439   1.674   2.981  0.3190 -0.0598  0.1311
 1012MOL0     C36552   2.436   1.791   2.902 -0.0464 -0.3550  0.4905
 1012MOL0     H36553   2.901   1.560   2.838  1.0538  2.4428  0.1821
 1012MOL0     H36554   3.064   1.505   2.675 -0.5652  0.4714  3.0522
 1012MOL0     H36555   2.980   1.597   2.243 -0.8663  1.0932  1.0137
 1012MOL0     H36556   3.074   1.733   2.309 -0.7456 -0.3929  0.3394
 1012MOL0     H36557   3.170   1.657   2.115 -0.7330 -1.4464  0.6828
 1012MOL0     H36558   3.199   1.500   2.175 -1.6503 -0.5834  0.1981
 1012MOL0     H36559   3.324   1.647   2.370 -1.9467 -1.3049 -0.3938
 1012MOL0     H36560   3.313   1.776   2.240 -0.4291  0.4395 -0.6271
 1012MOL0     H36561   3.433   1.496   2.234  0.1986 -0.7806  2.1870
 1012MOL0     H36562   3.437   1.599   2.103  1.1642 -0.9595  0.8577
 1012MOL0     H36563   3.597   1.607   2.368 -0.0783 -0.3045 -0.1353
 1012MOL0     H36564   3.654   1.635   2.215  1.1230 -0.5919  1.6473
 1012MOL0     H36565   3.531   1.876   2.231 -0.1661  2.3083  0.9750
 1012MOL0     H36566   3.496   1.830   2.394 -2.2229 -5.5570 -0.5118
 1012MOL0     H36567   3.778   1.836   2.300 -1.5788 -2.1049 -0.0685
 1012MOL0     H36568   3.711   1.805   2.463  2.3327  0.9735  1.0310
 1012MOL0     H36569   3.702   2.028   2.513  0.9251 -1.0682  0.6848
 1012MOL0     H36570   3.808   2.050   2.383  0.1900 -2.6740 -1.2726
 1012MOL0     H36571   3.722   2.203   2.198 -0.0082 -1.4770 -0.7717
 1012MOL0     H36572   3.573   2.467   2.174  0.4573  0.3856  2.3968
 1012MOL0     H36573   3.498   2.349   2.060 -3.1873  0.2032 -0.6680
 1012MOL0     H36574   3.281   2.402   2.254  0.7552  0.6866  1.0610
 1012MOL0     H36575   3.362   2.550   2.194  5.3050 -0.2852 -0.2354
 1012MOL0     H36576   3.237   2.321   2.034 -1.2538  0.4417  2.9508
 1012MOL0     H36577   3.343   2.455   1.966  3.4679  1.4407  3.2108
 1012MOL0     H36578   3.098   2.497   1.935  1.0333 -0.6850 -1.1750
 1012MOL0     H36579   3.159   2.616   2.036 -1.1336  0.2664  4.0767
 1012MOL0     H36580   2.831   2.473   2.263  0.9920  1.6316 -1.2878
 1012MOL0     H36581   2.621   2.346   2.212  1.5673  1.1409  2.5459
 1012MOL0     H36582   2.444   2.300   1.756  1.4410  0.1183 -0.2347
 1012MOL0     H36583   2.218   2.249   1.650  1.0198 -0.1810 -1.1455
 1012MOL0     H36584   2.187   1.930   1.450 -0.0017 -2.7587 -0.8805
 1012MOL0     H36585   2.105   1.815   1.560  2.0988  0.4527  0.0071
 1012MOL0     H36586   1.971   2.042   1.412  2.8685  0.5175  0.0507
 1012MOL0     H36587   1.973   1.876   1.351  1.0277  3.1004 -1.7421
 1012MOL0     H36588   1.845   1.780   1.517 -0.4930 -0.4650  2.2902
 1012MOL0     H36589   1.894   1.914   1.636 -1.3486  1.3407  0.4562
 1012MOL0     H36590   1.702   1.959   1.409  0.1816  0.0971 -0.2094
 1012MOL0     H36591   1.740   2.063   1.548 -1.7258 -0.9289  2.4944
 1012MOL0     H36592   1.675   1.835   1.681  2.7232  1.0410 -0.6934
 1012MOL0     H36593   1.591   1.787   1.540 -0.0707 -1.5029  3.5979
 1012MOL0     H36594   1.449   1.912   1.691  2.4772 -2.7845 -0.4510
 1012MOL0     H36595   1.542   2.053   1.670 -1.2807  0.5852  1.1217
 1012MOL0     H36596   1.480   2.057   1.426 -2.7305 -0.1185 -1.7213
 1012MOL0     H36597   1.335   2.054   1.533  1.3267  1.7797 -0.1072
 1012MOL0     H36598   1.315   1.916   1.339  0.4305  2.1684  1.0466
 1012MOL0     H36599   1.428   1.804   1.406 -0.6042  0.8019 -2.5246
 1012MOL0     H36600   2.308   1.828   1.694  1.7451 -0.1937 -1.4029
 1012MOL0     H36601   2.513   1.887   1.802  1.1762  1.0436 -1.3341
 1012MOL0     H36602   2.843   2.161   1.889  0.8524 -0.4967 -0.9292
 1012MOL0     H36603   3.030   2.280   1.937  0.1992  0.7831  0.5396
 1012MOL0     H36604   2.822   1.685   2.364  0.0219  2.1564  0.1959
 1012MOL0     H36605   2.644   1.721   2.531 -0.9314 -1.7284 -1.0084
 1012MOL0     H36606   2.607   1.391   3.058  0.1109  0.7566 -1.1049
 1012MOL0     H36607   2.469   1.397   3.257 -0.1152 -1.2496 -1.3370
 1012MOL0     H36608   2.152   1.725   3.304  0.8933 -0.7987 -0.3294
 1012MOL0     H36609   2.304   1.806   3.332  2.9826 -1.3576  0.3944
 1012MOL0     H36610   2.160   1.828   3.516 -2.5634 -0.8379 -2.0060
 1012MOL0     H36611   2.285   1.706   3.574 -2.0544 -0.5034  2.2837
 1012MOL0     H36612   2.129   1.526   3.529  1.2838 -0.3004  2.9737
 1012MOL0     H36613   1.997   1.639   3.490  0.3819  1.7469 -0.4881
 1012MOL0     H36614   2.028   1.737   3.732 -3.7257 -0.8119  0.1114
 1012MOL0     H36615   1.965   1.575   3.724  0.8173 -1.8679 -2.9871
 1012MOL0     H36616   2.331   1.482   3.901 -0.4484 -0.0164  1.4491
 1012MOL0     H36617   2.293   1.764   3.112 -2.9869 -0.4512 -2.5898
 1012MOL0     H36618   2.531   1.843   2.921 -0.0984  0.2803 -0.8252
 1012MOL0     H36619   2.442   1.766   2.796 -1.5484 -2.0329  0.7590
 1012MOL0     H36620   2.343   1.848   2.907  0.5394  0.5613  1.4406
 1013MOL0     O36621   2.367   3.893   4.498 -0.2183 -0.2851  0.2846
 1013MOL0     C36622   2.359   3.873   4.623  0.5382  0.6835  0.3031
 1013MOL0     O36623   2.450   3.812   4.709 -0.0030  0.0421  0.7220
 1013MOL0     C36624   2.547   3.733   4.653 -0.2507 -0.3771  0.2430
 1013MOL0     C36625   2.677   3.783   4.638 -0.5650 -0.1164 -0.0383
 1013MOL0     C36626   2.765   3.704   4.561 -0.3167 -0.6230  0.1580
 1013MOL0     C36627   2.731   3.586   4.499 -0.3246  0.4134 -0.3641
 1013MOL0     O36628   2.833   3.530   4.437  0.6533  0.1357 -0.3595
 1013MOL0     C36629   2.827   3.414   4.360 -0.2606  0.8568 -0.0936
 1013MOL0     C36630   2.881   3.287   4.427  0.6119  0.6859  0.0856
 1013MOL0     C36631   3.019   3.306   4.484 -0.8832 -0.1816 -0.0473
 1013MOL0     C36632   3.122   3.342   4.378  0.9134  0.4654 -0.9696
 1013MOL0     C36633   3.258   3.342   4.450  0.0057  1.1061 -0.4256
 1013MOL0     C36634   3.353   3.414   4.358  0.5637  0.1839 -0.5687
 1013MOL0     C36635   3.377   3.363   4.213 -0.8151 -0.5100 -0.2625
 1013MOL0     C36636   3.439   3.216   4.211 -0.2503 -1.1597  0.7203
 1013MOL0     N36637   3.552   3.196   4.294 -0.2701 -0.1362  0.6933
 1013MOL0     C36638   3.670   3.260   4.292 -0.1274  0.2618  0.2462
 1013MOL0     C36639   3.748   3.185   4.381  0.3435 -0.6833 -0.7230
 1013MOL0     C36640   3.897   3.179   4.381  0.0333  0.8110 -0.8403
 1013MOL0     C36641   3.951   3.271   4.502  0.5187 -0.2373  0.5990
 1013MOL0     C36642   3.938   3.429   4.464  0.1792  0.1979 -0.2452
 1013MOL0     C36643   4.044   3.509   4.542 -0.5570  0.1848  0.7713
 1013MOL0     O36644   4.017   3.650   4.522  0.1496 -0.0096 -0.3943
 1013MOL0     C36645   4.098   3.741   4.590  0.5209 -0.5202 -1.0931
 1013MOL0     C36646   4.206   3.707   4.673 -0.2481 -0.1510  0.0505
 1013MOL0     C36647   4.280   3.808   4.731 -0.3259  0.8644 -0.3352
 1013MOL0     C36648   4.246   3.947   4.720  0.4435  0.4564  0.2285
 1013MOL0     C36649   4.324   4.051   4.794 -0.1708  0.4314  0.3476
 1013MOL0     O36650   4.439   4.006   4.852 -1.1740 -0.2122 -0.1858
 1013MOL0     C36651   4.534   4.100   4.880  0.5385 -0.4595 -0.4589
 1013MOL0     C36652   4.670   4.073   4.831 -0.4454 -0.7408  0.6142
 1013MOL0     C36653   4.769   4.167   4.865  0.9261  0.3515 -0.0956
 1013MOL0     C36654   4.747   4.279   4.942 -0.2215  0.9904 -0.0111
 1013MOL0     O36655   4.850   4.368   4.960  0.4830 -0.1576 -0.6241
 1013MOL0     C36656   4.842   4.484   5.050  0.0774  0.9578  0.3824
 1013MOL0     C36657   4.944   4.481   5.159  0.2707  0.5298 -0.3037
 1013MOL0     C36658   4.894   4.379   5.263  0.3630 -0.4596  0.0712
 1013MOL0     C36659   4.788   4.429   5.363  0.6544  0.2062  0.6239
 1013MOL0     C36660   4.707   4.320   5.437  0.4633 -0.3908  0.1869
 1013MOL0     C36661   4.657   4.363   5.578 -0.2511  0.3374 -0.7825
 1013MOL0     C36662   4.600   4.503   5.600  0.2955  0.1700 -0.3317
 1013MOL0     C36663   4.483   4.543   5.504  0.3426  0.1825 -0.2052
 1013MOL0    Cl36664   4.396   4.688   5.550 -0.3482  0.0479 -0.0928
 1013MOL0     C36665   4.616   4.292   4.995 -0.2389  0.1552 -0.3936
 1013MOL0     C36666   4.510   4.212   4.964  0.8907  1.4466 -0.4669
 1013MOL0     O36667   4.290   4.165   4.782  1.3274 -0.3365  0.3153
 1013MOL0     C36668   4.126   3.973   4.656 -0.2948  0.9485 -0.3419
 1013MOL0     C36669   4.053   3.873   4.595  0.6779  0.3288 -0.0175
 1013MOL0     N36670   3.669   3.095   4.454  0.0861 -0.4795  0.4053
 1013MOL0     N36671   3.549   3.104   4.396  0.5771 -0.5178  0.2432
 1013MOL0     C36672   2.597   3.540   4.521 -0.5114 -0.9515  0.5978
 1013MOL0     C36673   2.510   3.616   4.595  0.3696 -0.8458  0.7425
 1013MOL0     C36674   2.244   3.932   4.700  1.1986 -0.2019  0.1858
 1013MOL0     C36675   2.252   3.935   4.840 -0.6061 -0.4571 -0.4775
 1013MOL0     C36676   2.153   3.986   4.910 -0.1617  1.0874  0.9933
 1013MOL0     C36677   2.032   4.034   4.857 -0.1814 -0.6335 -0.3482
 1013MOL0     O36678   1.931   4.082   4.936 -0.3692 -0.0251 -0.0495
 1013MOL0     C36679   1.957   4.116   5.072  0.1544 -0.1196 -0.4214
 1013MOL0     C36680   1.949   3.997   5.163  1.2985 -0.4104 -1.0604
 1013MOL0     C36681   1.826   3.996   5.257  0.6487 -0.3221 -1.2517
 1013MOL0     C36682   1.823   3.878   5.348 -0.7888  0.1573  0.6624
 1013MOL0     C36683   1.808   3.757   5.261 -0.0373  0.8387 -0.9447
 1013MOL0     C36684   1.776   3.652   5.207  0.0889 -0.1286  0.2536
 1013MOL0     C36685   2.025   4.032   4.715  0.0488  0.5282 -0.8731
 1013MOL0     C36686   2.127   3.981   4.634  0.6375  0.3851  1.0250
 1013MOL0     C36687   2.102   3.975   4.479 -0.0719  0.1130  0.1828
 1013MOL0     H36688   2.703   3.877   4.686  1.9406  1.3970 -3.8040
 1013MOL0     H36689   2.862   3.745   4.534  0.8962 -2.9558  0.6236
 1013MOL0     H36690   2.723   3.389   4.336 -0.5043  2.4908 -0.9122
 1013MOL0     H36691   2.877   3.432   4.264 -0.4259 -3.2048 -1.1598
 1013MOL0     H36692   2.871   3.204   4.356  0.3936  0.5988  0.2151
 1013MOL0     H36693   2.801   3.271   4.501  0.0890  1.2944 -0.3447
 1013MOL0     H36694   3.044   3.212   4.534  0.5159  0.3596  0.2883
 1013MOL0     H36695   3.022   3.390   4.553 -0.2993 -1.5637  1.6858
 1013MOL0     H36696   3.123   3.269   4.297 -0.6919 -1.9067  0.9845
 1013MOL0     H36697   3.102   3.438   4.331  1.9119  1.7565  1.0674
 1013MOL0     H36698   3.258   3.396   4.545  2.7569 -1.3871  1.1675
 1013MOL0     H36699   3.301   3.244   4.471 -2.4114  0.0220 -0.2885
 1013MOL0     H36700   3.324   3.519   4.351 -0.1800 -0.0258 -0.7959
 1013MOL0     H36701   3.448   3.414   4.413  0.1328 -0.1794  0.1902
 1013MOL0     H36702   3.431   3.435   4.151 -2.1509  0.7297 -0.0352
 1013MOL0     H36703   3.280   3.364   4.163 -2.2217 -1.2160  2.3040
 1013MOL0     H36704   3.355   3.154   4.243  0.0629 -2.8190 -1.4254
 1013MOL0     H36705   3.471   3.188   4.110 -0.8391  1.9447 -0.4622
 1013MOL0     H36706   3.713   3.330   4.221  1.1902 -1.6913 -0.9587
 1013MOL0     H36707   3.911   3.071   4.390 -1.5624  0.6948  1.0939
 1013MOL0     H36708   3.929   3.210   4.281 -1.1549 -1.6381 -2.0677
 1013MOL0     H36709   3.882   3.251   4.584 -2.8439 -0.8113 -2.1268
 1013MOL0     H36710   4.048   3.245   4.545  1.3224 -0.7884 -1.4281
 1013MOL0     H36711   3.837   3.458   4.494  0.3883 -1.0129  1.8063
 1013MOL0     H36712   3.943   3.437   4.355  0.2728 -2.0539 -0.4602
 1013MOL0     H36713   4.144   3.487   4.504 -1.1624 -0.0093 -0.7729
 1013MOL0     H36714   4.044   3.474   4.646  0.5449 -0.2032  0.6569
 1013MOL0     H36715   4.240   3.604   4.681  0.2266  0.1030  1.9724
 1013MOL0     H36716   4.362   3.773   4.793  0.0678  2.8405  0.3247
 1013MOL0     H36717   4.700   3.986   4.774  0.1627  1.9958 -3.6427
 1013MOL0     H36718   4.867   4.150   4.822  1.7787  0.4992  1.7201
 1013MOL0     H36719   4.878   4.566   4.987  2.8311  0.0375  0.6168
 1013MOL0     H36720   4.739   4.502   5.080 -0.1095  0.9680 -0.2548
 1013MOL0     H36721   5.033   4.429   5.123  0.5178 -0.3471  1.4208
 1013MOL0     H36722   4.967   4.579   5.201 -0.8470  0.2363  1.0894
 1013MOL0     H36723   4.847   4.289   5.221  0.9828 -1.9528  2.3518
 1013MOL0     H36724   4.977   4.349   5.328 -0.7747  0.1932  1.9038
 1013MOL0     H36725   4.720   4.496   5.309  0.9652 -0.6742 -0.9004
 1013MOL0     H36726   4.848   4.486   5.434  2.6653  0.9115 -1.5168
 1013MOL0     H36727   4.780   4.238   5.440  0.7148 -0.1363  1.8919
 1013MOL0     H36728   4.616   4.284   5.389  0.3448 -0.5759  0.5439
 1013MOL0     H36729   4.588   4.282   5.601  2.2640 -1.7055  0.0748
 1013MOL0     H36730   4.748   4.349   5.638 -0.3021  2.2182 -0.2041
 1013MOL0     H36731   4.672   4.584   5.586 -0.0262  0.6974  0.9600
 1013MOL0     H36732   4.567   4.520   5.702  1.5412  1.3071 -0.0891
 1013MOL0     H36733   4.524   4.560   5.404  0.0338  0.9050 -0.2164
 1013MOL0     H36734   4.413   4.460   5.497  3.2863 -2.5735  0.6663
 1013MOL0     H36735   4.584   4.367   5.066  1.8623  2.4304 -1.6877
 1013MOL0     H36736   4.411   4.228   5.005  0.0010  0.2662 -2.0352
 1013MOL0     H36737   4.085   4.073   4.645 -1.3250  0.4466 -1.1982
 1013MOL0     H36738   3.968   3.911   4.539  0.1030 -0.3995  0.3399
 1013MOL0     H36739   2.559   3.444   4.489 -0.8663 -0.9230  0.9332
 1013MOL0     H36740   2.411   3.580   4.619  0.6232 -1.4153  0.9468
 1013MOL0     H36741   2.335   3.889   4.892 -1.4501 -0.0570  1.3098
 1013MOL0     H36742   2.169   3.968   5.016  1.2455  1.2908  0.8458
 1013MOL0     H36743   1.880   4.193   5.083 -0.0160 -0.2198 -0.8784
 1013MOL0     H36744   2.052   4.169   5.076 -1.5504  3.2665 -0.9643
 1013MOL0     H36745   2.032   3.992   5.234 -0.2453 -0.6293  0.8262
 1013MOL0     H36746   1.945   3.904   5.106  0.9133 -1.3010  0.3733
 1013MOL0     H36747   1.735   4.011   5.197 -1.0131  0.6468  1.3388
 1013MOL0     H36748   1.840   4.078   5.327  0.6572 -2.3921  1.3186
 1013MOL0     H36749   1.916   3.872   5.406 -0.3849  1.7355  0.2287
 1013MOL0     H36750   1.734   3.887   5.411 -0.8153 -2.4154  1.0885
 1013MOL0     H36751   1.724   3.577   5.151 -0.3715  1.0417 -0.9381
 1013MOL0     H36752   1.935   4.077   4.675  2.5088  3.2317 -3.8776
 1013MOL0     H36753   2.116   3.877   4.434 -0.9273  0.2432 -0.3835
 1013MOL0     H36754   2.002   4.009   4.451 -1.2013 -2.0089  1.3678
 1013MOL0     H36755   2.176   4.040   4.431 -1.9338 -0.3650 -3.6328
 1014MOL0     O36756   0.174   1.251   8.109 -0.5541 -0.3130  0.7262
 1014MOL0     C36757   0.164   1.293   8.223  0.1285 -0.1271  0.4231
 1014MOL0     O36758   0.070   1.242   8.305 -0.2290  0.0772  0.3192
 1014MOL0     C36759  -0.018   1.126   8.293  0.0821  0.1682 -0.3739
 1014MOL0     C36760  -0.067   1.061   8.175  1.0990  0.4288  0.2640
 1014MOL0     C36761  -0.146   0.947   8.194 -0.1750  0.5341 -0.0601
 1014MOL0     C36762  -0.164   0.890   8.318  0.1139  1.2541 -0.0824
 1014MOL0     O36763  -0.227   0.765   8.336  0.5630 -0.0235 -0.2434
 1014MOL0     C36764  -0.179   0.656   8.262 -0.0022 -0.3590 -0.7087
 1014MOL0     C36765  -0.028   0.634   8.281  0.3373 -0.5059 -1.0258
 1014MOL0     C36766   0.018   0.631   8.426  0.1785 -0.4610  0.4709
 1014MOL0     C36767   0.164   0.626   8.438  0.1073 -0.8871  0.0838
 1014MOL0     C36768   0.190   0.642   8.589 -0.1365  1.4022  0.0092
 1014MOL0     C36769   0.342   0.651   8.613  0.0643  0.5959  0.7607
 1014MOL0     C36770   0.377   0.664   8.759 -0.8137 -0.8705  0.6052
 1014MOL0     C36771   0.391   0.519   8.821 -0.3813 -0.4603 -0.2502
 1014MOL0     N36772   0.480   0.530   8.938  0.0975 -0.6331 -0.0227
 1014MOL0     C36773   0.435   0.551   9.070 -0.1277 -0.4007 -0.4739
 1014MOL0     C36774   0.547   0.571   9.141 -0.0857 -0.0968  0.5520
 1014MOL0     C36775   0.559   0.601   9.282  0.0786 -0.2903 -0.0485
 1014MOL0     C36776   0.427   0.541   9.348  0.5349  0.4384  1.2327
 1014MOL0     C36777   0.453   0.383   9.353 -0.3505  0.3776  0.7414
 1014MOL0     C36778   0.385   0.289   9.463  0.2516 -0.1138  1.4497
 1014MOL0     O36779   0.244   0.278   9.433  0.6559 -0.0124  0.4330
 1014MOL0     C36780   0.209   0.250   9.304  0.4407  0.2947  0.2322
 1014MOL0     C36781   0.144   0.343   9.226  0.1463 -0.2937  0.4015
 1014MOL0     C36782   0.105   0.320   9.087 -0.7899  0.8078 -0.1402
 1014MOL0     C36783   0.141   0.193   9.023  0.0177  0.3921 -0.6405
 1014MOL0     C36784   0.094   0.164   8.881 -0.4126 -0.4729  0.0068
 1014MOL0     O36785   0.029   0.261   8.822  0.0243 -0.8951  0.7278
 1014MOL0     C36786  -0.010   0.241   8.698 -0.4961 -1.0581 -0.0375
 1014MOL0     C36787  -0.146   0.253   8.666 -0.1366 -0.8117 -0.5089
 1014MOL0     C36788  -0.188   0.248   8.538 -0.6451 -0.0188 -0.6327
 1014MOL0     C36789  -0.095   0.227   8.430 -0.8018 -0.8502  1.3376
 1014MOL0     O36790  -0.134   0.220   8.296  0.4500  0.0854  0.0013
 1014MOL0     C36791  -0.243   0.125   8.278 -0.8868 -0.1412 -0.5114
 1014MOL0     C36792  -0.263   0.082   8.134 -0.2647  0.0513  0.0493
 1014MOL0     C36793  -0.358  -0.034   8.131 -0.0249  0.0643 -0.0242
 1014MOL0     C36794  -0.393  -0.073   7.986  0.8339  0.5147  0.2871
 1014MOL0     C36795  -0.495  -0.189   7.985  0.0587  0.5966 -0.3726
 1014MOL0     C36796  -0.642  -0.133   7.966 -0.6730  0.2495 -0.7200
 1014MOL0     C36797  -0.684  -0.149   7.812 -0.2296 -0.6072 -0.4294
 1014MOL0     C36798  -0.830  -0.103   7.782  0.6059  0.3315 -1.0218
 1014MOL0    Cl36799  -0.903  -0.182   7.643  0.2977  0.2063  0.8379
 1014MOL0     C36800   0.041   0.217   8.458  1.0994 -0.1896  0.1582
 1014MOL0     C36801   0.086   0.226   8.594  0.4888  1.3494  0.4766
 1014MOL0     O36802   0.138   0.060   8.836 -0.2084 -0.0753  0.5240
 1014MOL0     C36803   0.217   0.103   9.105 -0.3708 -0.4684 -1.0024
 1014MOL0     C36804   0.246   0.126   9.242 -0.5503 -0.9910  0.2372
 1014MOL0     N36805   0.656   0.564   9.056 -0.2454  0.0285  0.0309
 1014MOL0     N36806   0.610   0.553   8.934 -0.5755 -0.4019  0.2239
 1014MOL0     C36807  -0.118   0.954   8.430 -0.7616 -0.3887 -0.5266
 1014MOL0     C36808  -0.049   1.069   8.413  0.0773 -0.1782  0.1519
 1014MOL0     C36809   0.253   1.404   8.273 -0.1296  0.3152  0.5539
 1014MOL0     C36810   0.246   1.439   8.412 -0.5397  0.3838  0.8402
 1014MOL0     C36811   0.326   1.537   8.471  0.7100 -0.6004 -0.0818
 1014MOL0     C36812   0.417   1.607   8.388  0.1326 -0.1573 -0.8492
 1014MOL0     O36813   0.490   1.696   8.466  0.0507 -0.1509  0.4135
 1014MOL0     C36814   0.606   1.743   8.399  0.1484 -0.3233 -0.3152
 1014MOL0     C36815   0.693   1.810   8.498 -0.1130 -0.6015 -0.6271
 1014MOL0     C36816   0.633   1.919   8.599 -0.1187  0.4592  0.0733
 1014MOL0     C36817   0.734   2.010   8.663 -0.2798 -0.3041  0.3708
 1014MOL0     C36818   0.832   2.075   8.578 -0.0108  0.1873 -0.2860
 1014MOL0     C36819   0.918   2.123   8.514  0.4630  0.4007  0.6559
 1014MOL0     C36820   0.426   1.573   8.254 -0.4382 -0.2731 -0.3948
 1014MOL0     C36821   0.331   1.490   8.187  0.2041 -0.0469 -1.3092
 1014MOL0     C36822   0.321   1.491   8.033 -0.3921 -0.2839  0.3206
 1014MOL0     H36823  -0.031   1.089   8.077 -1.2270 -0.1624 -0.8249
 1014MOL0     H36824  -0.186   0.899   8.105  1.1368  0.5932 -0.6952
 1014MOL0     H36825  -0.229   0.568   8.304  1.2760 -1.1926 -0.8552
 1014MOL0     H36826  -0.208   0.657   8.157 -1.0872 -2.5128 -0.4763
 1014MOL0     H36827   0.027   0.714   8.229  0.2529 -1.6438 -2.9715
 1014MOL0     H36828  -0.006   0.534   8.242  0.6202 -0.0293 -2.1340
 1014MOL0     H36829  -0.022   0.541   8.475 -0.1478 -0.3934  0.3322
 1014MOL0     H36830  -0.039   0.706   8.483 -0.3251 -0.7469  0.3517
 1014MOL0     H36831   0.202   0.530   8.401 -1.5052 -1.3051 -0.5711
 1014MOL0     H36832   0.203   0.704   8.372 -1.0143 -1.9132 -1.8758
 1014MOL0     H36833   0.138   0.727   8.635 -0.1134  0.8736  1.0241
 1014MOL0     H36834   0.153   0.547   8.627  1.3303  0.8364  0.0505
 1014MOL0     H36835   0.390   0.575   8.550  2.7709  0.9803  2.2141
 1014MOL0     H36836   0.373   0.746   8.568 -1.4605  0.3186 -0.9936
 1014MOL0     H36837   0.310   0.728   8.817  2.0292  0.8887  2.1955
 1014MOL0     H36838   0.474   0.714   8.755 -0.0471 -2.3613 -0.3245
 1014MOL0     H36839   0.304   0.456   8.845 -0.9142  0.7730  1.2105
 1014MOL0     H36840   0.451   0.476   8.740  2.0554  2.6402 -0.2401
 1014MOL0     H36841   0.331   0.553   9.103  0.8340 -0.1614  2.8922
 1014MOL0     H36842   0.658   0.569   9.315 -1.0996 -1.6701  2.4426
 1014MOL0     H36843   0.565   0.708   9.301  0.5290 -0.6953  2.3472
 1014MOL0     H36844   0.433   0.580   9.450  1.2644 -0.5333  1.5793
 1014MOL0     H36845   0.340   0.587   9.301  0.6519  2.3016  2.7229
 1014MOL0     H36846   0.559   0.368   9.377 -0.2842  1.3198  1.0745
 1014MOL0     H36847   0.435   0.334   9.257 -1.2790  0.8632  0.6631
 1014MOL0     H36848   0.395   0.335   9.562 -0.3223  2.9513  0.2007
 1014MOL0     H36849   0.432   0.190   9.459  1.2406  0.3862 -0.3475
 1014MOL0     H36850   0.116   0.442   9.262  1.0531 -0.4721  1.6838
 1014MOL0     H36851   0.048   0.394   9.031 -0.0786 -0.6264 -2.9248
 1014MOL0     H36852  -0.215   0.263   8.749  2.3717 -2.4902  1.9362
 1014MOL0     H36853  -0.294   0.260   8.519 -1.0000 -2.0110 -0.1713
 1014MOL0     H36854  -0.228   0.026   8.323 -2.1229 -1.3667 -2.6468
 1014MOL0     H36855  -0.338   0.174   8.299  0.6633  2.9390 -0.1344
 1014MOL0     H36856  -0.310   0.166   8.082  0.4336  0.9202  0.7673
 1014MOL0     H36857  -0.172   0.063   8.075  0.8909  0.8946  1.4748
 1014MOL0     H36858  -0.309  -0.121   8.175 -2.5754 -1.0879  0.6824
 1014MOL0     H36859  -0.452  -0.012   8.183  0.8846  2.4169  0.7550
 1014MOL0     H36860  -0.299  -0.109   7.942  0.6892 -1.9932  1.8354
 1014MOL0     H36861  -0.449   0.002   7.929 -0.6441 -0.7310  0.0199
 1014MOL0     H36862  -0.495  -0.244   8.080  1.7152  0.4142 -0.4467
 1014MOL0     H36863  -0.474  -0.265   7.909 -0.9635 -1.5228  1.3316
 1014MOL0     H36864  -0.703  -0.199   8.029 -0.6714 -1.2142 -2.1974
 1014MOL0     H36865  -0.663  -0.030   7.995  1.7993  1.1965 -2.0162
 1014MOL0     H36866  -0.682  -0.258   7.797 -2.1092 -0.4254 -2.4786
 1014MOL0     H36867  -0.607  -0.099   7.753 -1.3240  2.6520  0.7113
 1014MOL0     H36868  -0.882  -0.123   7.876  4.5080 -0.0305  1.3008
 1014MOL0     H36869  -0.826   0.003   7.754 -0.4240  0.9156  0.8655
 1014MOL0     H36870   0.107   0.179   8.381 -0.0496 -1.7967 -0.0924
 1014MOL0     H36871   0.192   0.229   8.617  0.9732  3.2685 -1.6365
 1014MOL0     H36872   0.254   0.009   9.065  1.8025 -1.1051  2.1731
 1014MOL0     H36873   0.304   0.055   9.300  0.7901  1.0548  1.5271
 1014MOL0     H36874  -0.124   0.919   8.533  0.4725  2.1095  0.4844
 1014MOL0     H36875   0.002   1.119   8.495  2.8531 -1.1577 -0.8432
 1014MOL0     H36876   0.184   1.377   8.476  1.0925 -1.5287  0.6820
 1014MOL0     H36877   0.320   1.558   8.577 -2.9309  1.6593 -0.5785
 1014MOL0     H36878   0.577   1.812   8.319 -0.0761 -1.1831 -0.9833
 1014MOL0     H36879   0.659   1.656   8.360  0.5386 -0.0680 -0.3653
 1014MOL0     H36880   0.767   1.870   8.444  1.2385  0.9100  2.5793
 1014MOL0     H36881   0.744   1.733   8.558  1.3557  0.1309 -0.8900
 1014MOL0     H36882   0.582   1.863   8.678  0.0911 -1.2041 -0.9286
 1014MOL0     H36883   0.556   1.977   8.547 -0.6158  0.0977  0.3903
 1014MOL0     H36884   0.678   2.077   8.729 -2.0998 -2.5147  1.2552
 1014MOL0     H36885   0.792   1.946   8.730  1.6447  1.2290  0.2624
 1014MOL0     H36886   0.995   2.178   8.464 -0.1924 -0.8125 -1.8605
 1014MOL0     H36887   0.497   1.626   8.191 -0.3042 -2.9643 -2.6774
 1014MOL0     H36888   0.220   1.506   7.995  0.0760  2.8279 -0.0378
 1014MOL0     H36889   0.373   1.577   7.988 -0.5598 -0.2584  0.1741
 1014MOL0     H36890   0.369   1.402   7.991 -1.6437 -0.3905 -0.9837
 1015MOL0     O36891   9.937   1.498   9.507  0.4924  0.0309  1.4178
 1015MOL0     C36892   9.855   1.404   9.525 -0.0837 -0.3028  0.3201
 1015MOL0     O36893   9.898   1.273   9.514 -0.3080 -0.5240 -0.0518
 1015MOL0     C36894  10.009   1.236   9.438  1.0456 -0.3149  0.6763
 1015MOL0     C36895  10.089   1.132   9.482 -0.1797 -0.2361  0.1176
 1015MOL0     C36896  10.216   1.103   9.427  0.3965  0.1455 -0.6637
 1015MOL0     C36897  10.264   1.166   9.314  0.3363  0.2759  0.1226
 1015MOL0     O36898  10.383   1.116   9.265 -0.1852 -0.0727  0.4545
 1015MOL0     C36899  10.441   1.161   9.133 -0.0262 -0.7791 -1.2411
 1015MOL0     C36900  10.595   1.178   9.167  0.5517  0.1340 -0.4444
 1015MOL0     C36901  10.660   1.045   9.218 -0.5836 -0.5486  0.0823
 1015MOL0     C36902  10.787   1.076   9.289 -0.2715 -0.0020 -0.1316
 1015MOL0     C36903  10.834   0.934   9.350  0.2290 -0.4226  0.9069
 1015MOL0     C36904  10.767   0.910   9.485 -0.0592  0.6579  0.5705
 1015MOL0     C36905  10.680   0.792   9.492  0.1795 -0.1155 -0.2790
 1015MOL0     C36906  10.665   0.753   9.639  0.6812  1.3410 -0.1783
 1015MOL0     N36907  10.555   0.655   9.656  0.3273 -0.4284  0.7394
 1015MOL0     C36908  10.426   0.682   9.700 -0.6225 -0.1929  0.3936
 1015MOL0     C36909  10.360   0.568   9.717 -0.5805 -0.5042 -0.0100
 1015MOL0     C36910  10.209   0.578   9.739  0.0499  0.8397 -0.6671
 1015MOL0     C36911  10.183   0.557   9.888 -0.0454  0.2912  1.9874
 1015MOL0     C36912  10.241   0.666   9.976  0.3604 -0.2142 -0.7340
 1015MOL0     C36913  10.182   0.807   9.965 -0.3891  0.8771 -0.1685
 1015MOL0     O36914  10.243   0.894   9.863 -0.5701  0.1207  0.1456
 1015MOL0     C36915  10.362   0.956   9.894  0.2001 -0.2263 -1.2633
 1015MOL0     C36916  10.418   1.037   9.798  0.2538 -0.0359 -0.8535
 1015MOL0     C36917  10.545   1.087   9.797  0.0866  0.4580 -0.0368
 1015MOL0     C36918  10.633   1.064   9.909 -0.0525  0.8727 -0.3540
 1015MOL0     C36919  10.781   1.112   9.902 -1.4187 -0.0820 -0.3154
 1015MOL0     O36920  10.860   1.101  10.011  0.7884  0.4824 -0.4035
 1015MOL0     C36921  10.979   1.165  10.015  0.1581 -0.2501 -0.0943
 1015MOL0     C36922  11.089   1.089  10.043 -1.0288  0.1399  0.2071
 1015MOL0     C36923  11.211   1.145  10.070 -0.0927 -0.3574  0.0312
 1015MOL0     C36924  11.229   1.276  10.037  0.3840 -0.1871  0.0639
 1015MOL0     O36925  11.338   1.352  10.077  0.0771 -0.0742  0.3455
 1015MOL0     C36926  11.471   1.296  10.042  0.1306  0.5361  0.8168
 1015MOL0     C36927  11.575   1.416  10.027 -0.2953 -0.1714  0.5177
 1015MOL0     C36928  11.668   1.425  10.152  0.0422 -0.0234  0.3364
 1015MOL0     C36929  11.748   1.549  10.130  0.0812 -0.3400 -0.3891
 1015MOL0     C36930  11.682   1.670  10.186  0.6649 -0.5638 -0.1239
 1015MOL0     C36931  11.765   1.794  10.176 -0.0846 -0.1763  0.7383
 1015MOL0     C36932  11.693   1.919  10.222 -0.4396 -0.1727 -0.4467
 1015MOL0     C36933  11.751   1.970  10.353 -0.1924  0.3829 -0.0893
 1015MOL0    Cl36934  11.922   2.020  10.332 -0.2002 -0.1471  0.0827
 1015MOL0     C36935  11.124   1.357  10.004  0.8482  0.3890  0.0057
 1015MOL0     C36936  10.991   1.300   9.994  0.3450 -0.2891 -0.1697
 1015MOL0     O36937  10.817   1.153   9.794 -0.1317 -0.5789  0.1307
 1015MOL0     C36938  10.580   0.988  10.019 -0.0207  0.5251  0.2898
 1015MOL0     C36939  10.449   0.935  10.011 -0.3690  0.6277 -0.0265
 1015MOL0     N36940  10.450   0.469   9.680  0.7863 -0.4297 -0.2512
 1015MOL0     N36941  10.564   0.516   9.652 -0.0039 -0.8809 -0.1017
 1015MOL0     C36942  10.182   1.266   9.259 -0.8993 -0.1401  0.4893
 1015MOL0     C36943  10.053   1.296   9.317  0.2098  0.8483  0.1123
 1015MOL0     C36944   9.711   1.424   9.519  0.0604 -0.6209  0.4957
 1015MOL0     C36945   9.625   1.315   9.493  0.1765  0.5082  0.5611
 1015MOL0     C36946   9.485   1.330   9.491  0.6619 -0.4921 -0.0435
 1015MOL0     C36947   9.428   1.452   9.530 -0.3271 -0.9429 -0.5999
 1015MOL0     O36948   9.296   1.480   9.563 -1.1363  0.4646  0.2550
 1015MOL0     C36949   9.187   1.398   9.514 -0.0473 -0.3679  0.2565
 1015MOL0     C36950   9.136   1.444   9.380 -0.7155  0.0078  0.0729
 1015MOL0     C36951   9.232   1.391   9.262 -0.0673  0.5024 -0.6492
 1015MOL0     C36952   9.202   1.463   9.129 -0.3638  0.0909  0.2842
 1015MOL0     C36953   9.276   1.422   9.008 -0.7479 -1.0497  0.1220
 1015MOL0     C36954   9.329   1.386   8.906 -0.5887  0.0487  0.4697
 1015MOL0     C36955   9.513   1.550   9.571 -0.1199 -0.7648  0.2561
 1015MOL0     C36956   9.652   1.547   9.563  0.9057 -0.0790 -0.3788
 1015MOL0     C36957   9.732   1.668   9.612 -0.2285  1.0520  0.2643
 1015MOL0     H36958  10.058   1.083   9.573  0.1730 -0.2657  0.2245
 1015MOL0     H36959  10.277   1.028   9.477  0.1509  1.9090  2.6105
 1015MOL0     H36960  10.427   1.076   9.065 -1.1358 -1.2593 -0.4386
 1015MOL0     H36961  10.398   1.255   9.094  1.8785  0.2418 -0.9855
 1015MOL0     H36962  10.595   1.269   9.227 -0.6283  1.6831 -2.6561
 1015MOL0     H36963  10.651   1.212   9.080  1.7881  0.8094  0.5928
 1015MOL0     H36964  10.689   0.989   9.129  3.7836  1.3126  0.0564
 1015MOL0     H36965  10.598   0.992   9.291 -0.2065  1.9356  2.3848
 1015MOL0     H36966  10.857   1.114   9.214 -0.8227  1.7576  0.2051
 1015MOL0     H36967  10.766   1.158   9.358  0.9781  1.2124 -1.1468
 1015MOL0     H36968  10.818   0.856   9.275 -2.2794  0.3087  0.5855
 1015MOL0     H36969  10.940   0.944   9.376  0.2295  0.3265  0.6463
 1015MOL0     H36970  10.843   0.912   9.563 -0.2572  0.4975  0.7683
 1015MOL0     H36971  10.699   0.993   9.509  0.6763  1.1764  0.9126
 1015MOL0     H36972  10.728   0.710   9.438  1.6511  0.3147  0.3315
 1015MOL0     H36973  10.580   0.813   9.452 -0.3806  0.7920  1.5144
 1015MOL0     H36974  10.746   0.699   9.689 -0.7151 -1.3240 -0.5772
 1015MOL0     H36975  10.657   0.846   9.695  1.1546  1.8039 -0.8644
 1015MOL0     H36976  10.387   0.779   9.729  2.3613  0.8014  1.4249
 1015MOL0     H36977  10.169   0.676   9.712 -1.3252  0.4837 -0.0290
 1015MOL0     H36978  10.160   0.496   9.685  0.7100 -0.5312  0.7259
 1015MOL0     H36979  10.074   0.555   9.899  0.0978 -0.6170  3.6403
 1015MOL0     H36980  10.216   0.461   9.928  1.3711 -0.8666 -1.6251
 1015MOL0     H36981  10.350   0.671   9.976  0.4302 -0.9081  1.5168
 1015MOL0     H36982  10.219   0.636  10.079 -1.4706  0.4804 -0.8749
 1015MOL0     H36983  10.186   0.855  10.063 -1.3594 -0.5404  0.5951
 1015MOL0     H36984  10.077   0.792   9.941  0.6607 -4.1443 -3.0962
 1015MOL0     H36985  10.354   1.059   9.713 -2.7161 -1.0082  0.9822
 1015MOL0     H36986  10.579   1.148   9.714  1.7530  0.9506  0.9477
 1015MOL0     H36987  11.082   0.985  10.073  0.9031  0.0737  0.5466
 1015MOL0     H36988  11.286   1.077  10.110 -0.8508 -0.9050  0.5324
 1015MOL0     H36989  11.511   1.233  10.123  3.0329 -0.1827 -1.0312
 1015MOL0     H36990  11.464   1.230   9.955 -0.7085  0.2086  1.1212
 1015MOL0     H36991  11.643   1.392   9.945 -1.6248 -2.3185 -0.0465
 1015MOL0     H36992  11.526   1.510  10.001  3.1833  3.2813  4.9017
 1015MOL0     H36993  11.618   1.436  10.249  3.6238 -2.7292  2.7538
 1015MOL0     H36994  11.717   1.327  10.156 -0.2454 -0.1863 -0.0362
 1015MOL0     H36995  11.772   1.565  10.025 -3.1890 -2.0006 -1.5247
 1015MOL0     H36996  11.846   1.528  10.173  0.4104 -0.5677 -1.2374
 1015MOL0     H36997  11.663   1.655  10.292 -0.8892  0.8264 -0.1834
 1015MOL0     H36998  11.588   1.683  10.132  0.0229 -0.2430  1.0416
 1015MOL0     H36999  11.862   1.783  10.225 -0.9253  1.0470  2.8444
 1015MOL0     H37000  11.789   1.808  10.070  4.1949  3.9465  1.9249
 1015MOL0     H37001  11.588   1.893  10.240 -0.4346 -0.6928 -1.1219
 1015MOL0     H37002  11.698   1.998  10.148 -0.5154 -1.5339 -1.9647
 1015MOL0     H37003  11.702   2.057  10.399 -0.1975 -0.6578  2.0232
 1015MOL0     H37004  11.754   1.889  10.427  0.5308  3.3545  3.4668
 1015MOL0     H37005  11.128   1.459   9.968 -1.7741  0.9934  1.1606
 1015MOL0     H37006  10.912   1.365   9.955 -0.6484 -1.5434 -0.3298
 1015MOL0     H37007  10.630   0.974  10.114  3.0183  2.8464 -0.7937
 1015MOL0     H37008  10.413   0.877  10.095  0.2462 -0.8103 -0.7299
 1015MOL0     H37009  10.213   1.308   9.164 -0.0228 -2.6419 -0.4058
 1015MOL0     H37010   9.999   1.378   9.271  2.6766  0.7741 -3.2032
 1015MOL0     H37011   9.653   1.222   9.445 -2.2539  0.3583 -0.7031
 1015MOL0     H37012   9.416   1.249   9.473 -0.9307  0.7940  0.0204
 1015MOL0     H37013   9.113   1.427   9.589  0.7677  2.1646  0.1825
 1015MOL0     H37014   9.213   1.292   9.516  3.8625  0.3274 -2.0825
 1015MOL0     H37015   9.140   1.553   9.375 -2.2339  0.0448 -0.7778
 1015MOL0     H37016   9.035   1.406   9.369 -0.7179 -1.1094  2.9700
 1015MOL0     H37017   9.208   1.284   9.255 -3.9673  1.2760 -2.2263
 1015MOL0     H37018   9.336   1.404   9.291 -0.0156  0.1117 -0.6515
 1015MOL0     H37019   9.101   1.442   9.095 -1.2745  1.4923  1.9696
 1015MOL0     H37020   9.224   1.571   9.128 -1.5097  0.3664  1.8154
 1015MOL0     H37021   9.375   1.358   8.813 -0.5461  1.3196  0.0923
 1015MOL0     H37022   9.486   1.644   9.618 -0.3276 -1.0148  0.6463
 1015MOL0     H37023   9.772   1.645   9.712  0.7767  0.7017 -0.1983
 1015MOL0     H37024   9.809   1.695   9.539 -0.3385 -0.6569 -0.5433
 1015MOL0     H37025   9.664   1.753   9.610 -0.4203  0.9903  2.0911
 1016MOL0     O37026   3.614   4.082   4.661 -0.7696 -0.0967  0.5130
 1016MOL0     C37027   3.712   4.081   4.733  0.3958 -1.0644 -0.4053
 1016MOL0     O37028   3.738   3.978   4.819  0.2533  0.2875  0.0680
 1016MOL0     C37029   3.674   3.855   4.805  0.0636 -0.2662  0.2814
 1016MOL0     C37030   3.592   3.792   4.909  0.6190  0.9417 -0.5217
 1016MOL0     C37031   3.532   3.664   4.875 -0.1686  0.3418 -0.1722
 1016MOL0     C37032   3.565   3.596   4.757  0.1396 -0.5311 -1.3428
 1016MOL0     O37033   3.496   3.483   4.730 -0.2024  0.4433  0.4778
 1016MOL0     C37034   3.561   3.378   4.660 -1.0674 -0.0561 -0.2081
 1016MOL0     C37035   3.609   3.280   4.765  0.6153  0.7547 -0.3517
 1016MOL0     C37036   3.525   3.153   4.778  1.3850 -0.0571 -0.5100
 1016MOL0     C37037   3.377   3.195   4.835  0.8744 -0.2858  0.0741
 1016MOL0     C37038   3.291   3.066   4.835 -0.1702  0.4587  0.0053
 1016MOL0     C37039   3.239   3.026   4.976 -0.0640  0.7405 -0.2230
 1016MOL0     C37040   3.157   2.894   4.978  0.4735 -0.5149 -0.2262
 1016MOL0     C37041   3.045   2.888   5.081 -0.1997 -0.1143  0.0626
 1016MOL0     N37042   2.946   3.004   5.062 -0.9436 -0.0102 -0.2195
 1016MOL0     C37043   2.906   3.071   4.950 -0.7700  1.1425  0.1216
 1016MOL0     C37044   2.790   3.125   4.983 -0.1192 -0.2733 -0.5301
 1016MOL0     C37045   2.684   3.166   4.885  0.5118  0.1442 -0.4085
 1016MOL0     C37046   2.653   3.317   4.889 -1.1499  0.0073  0.5891
 1016MOL0     C37047   2.537   3.354   4.974 -0.2629 -0.5243 -0.0440
 1016MOL0     C37048   2.467   3.487   4.933  0.4746 -0.6295 -0.0630
 1016MOL0     O37049   2.372   3.527   5.027 -0.6322  0.1237 -0.3734
 1016MOL0     C37050   2.249   3.476   5.038  0.0801 -0.7076 -0.5507
 1016MOL0     C37051   2.177   3.502   5.159  0.9896  0.2127  0.0094
 1016MOL0     C37052   2.059   3.430   5.182  0.1081 -0.4818 -0.2127
 1016MOL0     C37053   2.004   3.331   5.089 -0.2316  0.7527 -0.3745
 1016MOL0     C37054   1.877   3.264   5.113  0.2246 -0.2789  0.4496
 1016MOL0     O37055   1.856   3.151   5.047 -0.2079 -0.6316  0.2423
 1016MOL0     C37056   1.723   3.114   5.013 -0.6146  0.4857  0.5228
 1016MOL0     C37057   1.704   2.980   5.017 -0.0020 -0.4251 -0.0374
 1016MOL0     C37058   1.583   2.923   4.977 -0.4693 -0.1847 -0.5092
 1016MOL0     C37059   1.487   3.006   4.923 -0.6414 -1.5486 -0.4954
 1016MOL0     O37060   1.368   2.966   4.870 -0.1215 -0.7544  0.2307
 1016MOL0     C37061   1.384   2.856   4.775  0.4926 -0.0291 -0.2635
 1016MOL0     C37062   1.237   2.837   4.722  0.3687  0.2707 -0.1324
 1016MOL0     C37063   1.142   2.785   4.833 -0.3249 -0.1981 -1.4322
 1016MOL0     C37064   1.011   2.718   4.779 -0.1626  0.7114 -0.3993
 1016MOL0     C37065   0.907   2.691   4.889 -0.9044  1.1955 -0.2474
 1016MOL0     C37066   0.787   2.791   4.875  0.1055 -0.0737  1.1205
 1016MOL0     C37067   0.818   2.944   4.888  0.1939  0.0519 -1.1930
 1016MOL0     C37068   0.698   3.026   4.844 -0.3845  0.3205  0.4838
 1016MOL0    Cl37069   0.566   3.025   4.971  0.0799 -0.3082 -0.1489
 1016MOL0     C37070   1.506   3.142   4.906  0.5522  0.1636 -0.0312
 1016MOL0     C37071   1.628   3.204   4.956 -0.1146 -0.2331  0.3486
 1016MOL0     O37072   1.796   3.324   5.170  0.7663 -1.0412  0.1594
 1016MOL0     C37073   2.088   3.299   4.978  0.1980 -0.7974  0.2008
 1016MOL0     C37074   2.205   3.375   4.947 -1.0783 -0.2251  0.3779
 1016MOL0     N37075   2.757   3.103   5.111  0.1965 -0.5378 -0.3186
 1016MOL0     N37076   2.851   3.033   5.160  0.1269 -0.4377 -0.2093
 1016MOL0     C37077   3.651   3.655   4.668  0.0114 -0.1054 -0.1552
 1016MOL0     C37078   3.703   3.781   4.688 -0.0871 -0.6153  0.4980
 1016MOL0     C37079   3.787   4.213   4.741 -0.2808  0.2141  0.2919
 1016MOL0     C37080   3.914   4.206   4.808 -1.1758 -0.4459  1.2492
 1016MOL0     C37081   3.999   4.322   4.831  0.0359 -0.2616  0.2906
 1016MOL0     C37082   3.956   4.447   4.787 -0.2664 -0.7543  0.1792
 1016MOL0     O37083   4.045   4.551   4.770 -0.3500  0.0597 -0.6415
 1016MOL0     C37084   4.016   4.662   4.850 -0.4417 -0.6029 -0.2820
 1016MOL0     C37085   4.084   4.654   4.985  0.4694  0.3310 -0.3161
 1016MOL0     C37086   4.238   4.654   4.983  0.5307  0.5155 -0.3496
 1016MOL0     C37087   4.299   4.642   5.118  0.3204  0.7072 -0.8174
 1016MOL0     C37088   4.296   4.506   5.177  0.3264  0.6353  0.2868
 1016MOL0     C37089   4.291   4.396   5.231 -0.4018 -0.7512 -0.6392
 1016MOL0     C37090   3.834   4.455   4.721  0.7117  0.0455  0.2932
 1016MOL0     C37091   3.751   4.344   4.690  0.1826  1.6015 -1.2775
 1016MOL0     C37092   3.628   4.374   4.605  0.3903  0.5215  0.0290
 1016MOL0     H37093   3.578   3.841   5.005  1.7394  1.0486 -0.3960
 1016MOL0     H37094   3.480   3.607   4.952  1.5795  0.5392  1.2168
 1016MOL0     H37095   3.489   3.327   4.595 -2.4732  1.1428  0.3535
 1016MOL0     H37096   3.645   3.390   4.590 -0.3053  0.0447  0.7081
 1016MOL0     H37097   3.621   3.338   4.857  1.9485 -0.8063  0.5119
 1016MOL0     H37098   3.702   3.240   4.725 -0.3023  0.6864 -2.5752
 1016MOL0     H37099   3.560   3.088   4.859 -2.8190 -2.3769 -0.2731
 1016MOL0     H37100   3.525   3.106   4.679  3.0739  0.5310 -0.8278
 1016MOL0     H37101   3.392   3.235   4.936  2.6610  0.3054 -0.4024
 1016MOL0     H37102   3.317   3.264   4.776 -1.6461 -0.3879  2.2953
 1016MOL0     H37103   3.222   3.064   4.750  0.4837 -0.0370 -0.5307
 1016MOL0     H37104   3.364   2.985   4.822  1.5892  1.8750  0.6436
 1016MOL0     H37105   3.321   3.035   5.047 -1.3344  0.9207  1.2582
 1016MOL0     H37106   3.165   3.103   4.998 -1.2086 -0.1766 -0.7235
 1016MOL0     H37107   3.218   2.810   5.012  1.4007  0.9365  1.9927
 1016MOL0     H37108   3.113   2.885   4.878 -0.5848  2.4292 -0.1478
 1016MOL0     H37109   2.999   2.789   5.075  0.1684 -0.3232  0.6906
 1016MOL0     H37110   3.088   2.889   5.181 -2.5702 -3.2494  1.2628
 1016MOL0     H37111   2.937   3.040   4.851  1.2100 -1.6561  1.4670
 1016MOL0     H37112   2.712   3.129   4.786 -3.0922 -3.1700 -0.4033
 1016MOL0     H37113   2.599   3.103   4.912  0.1703  0.3925 -0.9077
 1016MOL0     H37114   2.747   3.369   4.909 -0.3195 -1.3980  0.4736
 1016MOL0     H37115   2.627   3.343   4.786  0.3118 -2.0266 -0.3595
 1016MOL0     H37116   2.586   3.364   5.071  2.1658  2.6854 -1.4054
 1016MOL0     H37117   2.464   3.273   4.975 -0.9841  0.0862  2.4919
 1016MOL0     H37118   2.429   3.467   4.832  2.9146 -0.3773 -1.0857
 1016MOL0     H37119   2.539   3.569   4.932 -1.8741  1.7622  3.8430
 1016MOL0     H37120   2.232   3.564   5.230  4.1503 -2.4537  0.0979
 1016MOL0     H37121   2.001   3.479   5.260  0.1976  2.3589 -1.7669
 1016MOL0     H37122   1.789   2.914   5.032  0.1331 -1.3907 -4.0342
 1016MOL0     H37123   1.552   2.819   4.982 -1.8699  0.0435 -2.9847
 1016MOL0     H37124   1.453   2.882   4.694  0.0392 -1.5113 -1.1644
 1016MOL0     H37125   1.434   2.765   4.809  1.6033 -0.4064 -2.6745
 1016MOL0     H37126   1.198   2.932   4.684 -1.8406 -0.3579  0.4147
 1016MOL0     H37127   1.227   2.765   4.641 -3.0436  0.4572 -0.0080
 1016MOL0     H37128   1.193   2.723   4.907  1.4160  4.6054  1.8797
 1016MOL0     H37129   1.111   2.874   4.889 -0.5897 -0.7055 -0.7704
 1016MOL0     H37130   1.044   2.621   4.741 -0.6883 -1.0777  3.2886
 1016MOL0     H37131   0.971   2.788   4.704 -3.1234 -0.2697  0.1199
 1016MOL0     H37132   0.949   2.690   4.990  0.5805 -0.6553 -0.8256
 1016MOL0     H37133   0.866   2.590   4.879 -1.1270  0.7801  3.5216
 1016MOL0     H37134   0.740   2.782   4.776  2.3225  3.7743 -0.5196
 1016MOL0     H37135   0.707   2.747   4.936  0.1035 -1.9757 -0.1371
 1016MOL0     H37136   0.895   2.971   4.815  0.1455  0.4559 -1.0930
 1016MOL0     H37137   0.851   2.970   4.989  0.1799 -2.8842 -0.3350
 1016MOL0     H37138   0.721   3.131   4.822 -3.0590  0.4212 -2.5711
 1016MOL0     H37139   0.648   2.982   4.758 -0.5242 -0.0384  0.7464
 1016MOL0     H37140   1.436   3.212   4.863  1.7418 -0.5363 -3.3528
 1016MOL0     H37141   1.651   3.310   4.946 -0.5014 -0.0824  0.9799
 1016MOL0     H37142   2.064   3.221   4.907 -0.2418 -0.4302 -0.0615
 1016MOL0     H37143   2.259   3.353   4.855 -1.8340 -1.0888  0.1247
 1016MOL0     H37144   3.676   3.610   4.572  0.2317 -1.3305  0.4524
 1016MOL0     H37145   3.777   3.823   4.621 -0.1912  4.2633  3.0005
 1016MOL0     H37146   3.955   4.112   4.843 -0.5124 -0.1657  1.2312
 1016MOL0     H37147   4.096   4.321   4.880  1.6484 -2.4332 -2.6207
 1016MOL0     H37148   3.907   4.659   4.857 -0.7100  2.0325 -1.9268
 1016MOL0     H37149   4.042   4.746   4.785 -1.7352 -0.6538 -0.8831
 1016MOL0     H37150   4.048   4.574   5.050 -0.3260  0.0254 -1.1261
 1016MOL0     H37151   4.050   4.742   5.041  0.5236  0.2111 -0.0938
 1016MOL0     H37152   4.269   4.752   4.948 -2.1338  1.2064 -1.0343
 1016MOL0     H37153   4.276   4.578   4.914 -0.0272  1.4251 -1.7031
 1016MOL0     H37154   4.397   4.692   5.125  0.4226  0.2429  3.3279
 1016MOL0     H37155   4.237   4.710   5.176  2.8082  4.8184 -2.4936
 1016MOL0     H37156   4.285   4.297   5.274  6.5030 -0.9591  1.0418
 1016MOL0     H37157   3.804   4.552   4.684  0.1880 -0.0714  0.4114
 1016MOL0     H37158   3.542   4.318   4.644  0.5250  0.2071 -0.1270
 1016MOL0     H37159   3.594   4.478   4.597  2.5261  1.5167  2.4151
 1016MOL0     H37160   3.652   4.345   4.502 -1.8192 -3.6633  0.4460
 1017MOL0     O37161   1.162   1.487   8.231  0.3359  0.5273 -0.5450
 1017MOL0     C37162   1.160   1.596   8.293  0.3289  0.6295 -0.4013
 1017MOL0     O37163   1.066   1.695   8.263 -0.4798 -0.1180  0.1933
 1017MOL0     C37164   0.965   1.663   8.174  0.9080  0.1230  0.5929
 1017MOL0     C37165   0.967   1.707   8.038  0.3483  0.1371 -0.0407
 1017MOL0     C37166   0.886   1.658   7.937  0.3012  0.8163 -0.5495
 1017MOL0     C37167   0.773   1.579   7.976 -0.6233 -0.8511  0.4995
 1017MOL0     O37168   0.676   1.543   7.889  0.9367 -0.5542  0.0996
 1017MOL0     C37169   0.695   1.557   7.748  0.1492 -0.1873 -0.5750
 1017MOL0     C37170   0.570   1.507   7.681  0.5662 -0.2278 -0.6310
 1017MOL0     C37171   0.593   1.503   7.526 -0.5289  0.0362 -0.1884
 1017MOL0     C37172   0.462   1.477   7.451 -0.1902  0.4627  0.5432
 1017MOL0     C37173   0.485   1.498   7.300  0.4482 -0.0353 -0.2473
 1017MOL0     C37174   0.559   1.385   7.225  0.1760 -0.2875  0.3244
 1017MOL0     C37175   0.551   1.409   7.075 -0.3365  0.2924 -0.2379
 1017MOL0     C37176   0.411   1.370   7.030 -0.8284 -0.4489  0.4077
 1017MOL0     N37177   0.425   1.336   6.888  0.5770  1.0672  0.1054
 1017MOL0     C37178   0.447   1.211   6.835  0.2552 -0.1867 -0.3366
 1017MOL0     C37179   0.446   1.224   6.702  0.3960  0.6990 -0.5396
 1017MOL0     C37180   0.474   1.115   6.610 -0.1816  0.1382  0.1368
 1017MOL0     C37181   0.370   1.005   6.598 -1.0252  0.2686 -0.3877
 1017MOL0     C37182   0.380   0.912   6.732  0.1618  0.0229  0.7745
 1017MOL0     C37183   0.508   0.857   6.769 -0.9045 -0.1868 -0.5577
 1017MOL0     O37184   0.584   0.805   6.662  1.0535  0.7665  0.7921
 1017MOL0     C37185   0.692   0.743   6.712  0.1111 -0.9757  0.1686
 1017MOL0     C37186   0.702   0.605   6.713 -0.1836  0.0098 -0.0876
 1017MOL0     C37187   0.827   0.549   6.766  0.6527  0.3868 -0.2008
 1017MOL0     C37188   0.943   0.622   6.774  0.6131 -0.7620 -0.7658
 1017MOL0     C37189   1.077   0.564   6.809 -1.0098 -0.5214  0.1864
 1017MOL0     O37190   1.176   0.651   6.834  0.6708  0.0532  0.1939
 1017MOL0     C37191   1.292   0.620   6.893 -0.5169  0.8700  0.8500
 1017MOL0     C37192   1.361   0.725   6.957 -0.3730  0.8539  0.0971
 1017MOL0     C37193   1.493   0.707   7.010 -0.1901 -1.4456  0.7496
 1017MOL0     C37194   1.550   0.576   7.010  0.4842 -0.5823  0.6454
 1017MOL0     O37195   1.676   0.564   7.055 -0.5554 -0.1938  0.5689
 1017MOL0     C37196   1.725   0.428   7.040 -0.0631 -0.8844  0.1188
 1017MOL0     C37197   1.872   0.411   7.085 -0.7042 -0.8837 -0.7056
 1017MOL0     C37198   1.937   0.272   7.107  0.3848 -0.2298  0.3689
 1017MOL0     C37199   2.082   0.274   7.135  0.7198 -0.2849 -0.3325
 1017MOL0     C37200   2.172   0.331   7.018  0.0700  0.0259 -0.0953
 1017MOL0     C37201   2.315   0.365   7.060  0.1519 -0.1867  0.1762
 1017MOL0     C37202   2.402   0.406   6.937 -0.0094 -0.2221  0.5717
 1017MOL0     C37203   2.535   0.456   6.991  0.8713 -0.6384  1.4849
 1017MOL0    Cl37204   2.638   0.523   6.856  0.1911  0.1371 -0.3164
 1017MOL0     C37205   1.475   0.469   6.949 -0.5110  0.5314  1.0222
 1017MOL0     C37206   1.352   0.489   6.892 -0.2399 -0.6814  0.8760
 1017MOL0     O37207   1.087   0.442   6.815  0.3761  0.6415 -0.4356
 1017MOL0     C37208   0.932   0.761   6.753 -0.0619  0.4514  0.6090
 1017MOL0     C37209   0.811   0.819   6.727  0.5570  0.3954 -0.2493
 1017MOL0     N37210   0.423   1.356   6.674 -0.2502 -0.1824 -0.4130
 1017MOL0     N37211   0.408   1.419   6.784  0.4968 -0.5988 -0.0636
 1017MOL0     C37212   0.765   1.531   8.106  0.5556 -0.2658 -0.7268
 1017MOL0     C37213   0.872   1.563   8.202 -0.2929 -0.3199  0.1391
 1017MOL0     C37214   1.286   1.635   8.381 -0.0303  0.6280  0.4972
 1017MOL0     C37215   1.400   1.546   8.389 -0.0436  0.6820 -0.7471
 1017MOL0     C37216   1.515   1.573   8.466 -0.4977  0.6093  0.0982
 1017MOL0     C37217   1.531   1.691   8.535 -0.6573 -0.6430 -0.2084
 1017MOL0     O37218   1.654   1.722   8.594 -0.2708 -0.1592 -1.0348
 1017MOL0     C37219   1.664   1.816   8.700  1.2054 -0.9234 -0.9756
 1017MOL0     C37220   1.803   1.880   8.725 -0.9362 -1.2622  0.7146
 1017MOL0     C37221   1.772   2.009   8.813 -0.3000 -0.6743  0.8671
 1017MOL0     C37222   1.910   2.070   8.852 -0.5506  0.4913 -0.1876
 1017MOL0     C37223   1.903   2.178   8.954  0.7027 -0.3181 -0.2320
 1017MOL0     C37224   1.871   2.272   9.019 -0.3489 -0.3073 -0.0132
 1017MOL0     C37225   1.421   1.777   8.529 -0.9065 -0.4702 -0.0088
 1017MOL0     C37226   1.297   1.745   8.462 -0.1677 -0.6863 -0.1396
 1017MOL0     C37227   1.186   1.853   8.476 -0.4978  0.7001  0.5426
 1017MOL0     H37228   1.039   1.782   8.008 -0.1596  0.6563  0.0192
 1017MOL0     H37229   0.903   1.695   7.836  2.8809  0.0106 -0.4918
 1017MOL0     H37230   0.703   1.664   7.725 -1.5702  0.6057  2.0974
 1017MOL0     H37231   0.780   1.499   7.712 -0.5356 -0.3423 -2.0104
 1017MOL0     H37232   0.482   1.559   7.720  0.6096 -0.8651  0.3217
 1017MOL0     H37233   0.556   1.403   7.711  0.8097  0.5572  2.4875
 1017MOL0     H37234   0.672   1.434   7.496 -0.6562  1.0861 -3.2710
 1017MOL0     H37235   0.634   1.599   7.494  0.3866 -1.1665 -2.8777
 1017MOL0     H37236   0.414   1.387   7.488 -1.9915  1.7107  1.3988
 1017MOL0     H37237   0.391   1.558   7.468 -2.4875 -0.5451 -3.0452
 1017MOL0     H37238   0.386   1.513   7.256  0.9080  0.8663 -1.0163
 1017MOL0     H37239   0.549   1.587   7.296 -1.0767  1.1466  0.5362
 1017MOL0     H37240   0.666   1.400   7.247  0.2923  2.6480 -1.6184
 1017MOL0     H37241   0.531   1.281   7.243 -1.6548 -0.6059 -3.4376
 1017MOL0     H37242   0.618   1.342   7.020 -1.3208  1.0161 -2.4527
 1017MOL0     H37243   0.575   1.513   7.049 -3.3657  0.9468 -0.7542
 1017MOL0     H37244   0.366   1.285   7.083 -1.9466  0.4572  0.9644
 1017MOL0     H37245   0.348   1.458   7.042  1.3366  1.6761 -2.5560
 1017MOL0     H37246   0.478   1.126   6.895  1.3937 -0.1722 -0.8711
 1017MOL0     H37247   0.479   1.159   6.510 -2.3522 -2.6902 -1.3559
 1017MOL0     H37248   0.570   1.076   6.646 -0.1260  0.8445  0.7827
 1017MOL0     H37249   0.272   1.054   6.592 -0.6710  0.8806 -1.6003
 1017MOL0     H37250   0.392   0.953   6.504  0.1010  4.5332 -2.8083
 1017MOL0     H37251   0.303   0.838   6.712  2.2717 -2.2539  0.6535
 1017MOL0     H37252   0.347   0.965   6.822 -0.1225 -1.7747  1.7662
 1017MOL0     H37253   0.488   0.769   6.831  0.2221  0.9262  1.4819
 1017MOL0     H37254   0.566   0.923   6.833  0.8873 -1.1637 -1.1204
 1017MOL0     H37255   0.617   0.538   6.706  0.1224 -0.3409 -0.4827
 1017MOL0     H37256   0.825   0.442   6.784 -1.6917  0.2136 -1.2041
 1017MOL0     H37257   1.325   0.827   6.959 -1.7442  0.3916  0.5099
 1017MOL0     H37258   1.546   0.794   7.047 -0.0312 -0.9941 -0.4983
 1017MOL0     H37259   1.663   0.350   7.086 -3.0788  0.9164 -0.5859
 1017MOL0     H37260   1.733   0.394   6.936  2.7424  0.7566 -0.2938
 1017MOL0     H37261   1.927   0.468   7.010 -0.9867 -1.0333 -1.0313
 1017MOL0     H37262   1.874   0.468   7.178 -0.3039 -3.2796  0.8467
 1017MOL0     H37263   1.894   0.210   7.186 -0.8505 -0.2492 -0.2980
 1017MOL0     H37264   1.919   0.226   7.009  4.4010  1.4282 -1.3604
 1017MOL0     H37265   2.124   0.181   7.176 -0.6941 -1.6611 -1.8321
 1017MOL0     H37266   2.091   0.348   7.215  1.4457 -0.3547 -0.3485
 1017MOL0     H37267   2.135   0.426   6.979 -0.3697 -0.8676 -1.9544
 1017MOL0     H37268   2.169   0.261   6.934 -1.4537  0.3036 -0.3056
 1017MOL0     H37269   2.311   0.451   7.126  1.9388 -0.0566  0.1577
 1017MOL0     H37270   2.365   0.283   7.112 -0.0826  1.6059  3.4850
 1017MOL0     H37271   2.352   0.480   6.875  4.5452  0.0132 -3.4185
 1017MOL0     H37272   2.417   0.313   6.881  1.1459  0.2941 -0.0207
 1017MOL0     H37273   2.518   0.545   7.052  0.0188  2.0499 -2.2791
 1017MOL0     H37274   2.586   0.377   7.047 -0.6950 -3.3173 -0.5913
 1017MOL0     H37275   1.503   0.364   6.951 -0.0325  0.6626  3.2841
 1017MOL0     H37276   1.294   0.404   6.858 -0.5611 -0.0048 -0.2856
 1017MOL0     H37277   1.021   0.820   6.771 -1.0472  2.4147 -0.5540
 1017MOL0     H37278   0.818   0.927   6.712 -2.0214  0.2456 -3.5760
 1017MOL0     H37279   0.687   1.464   8.142  0.5983  1.3703  2.8889
 1017MOL0     H37280   0.863   1.521   8.301  3.8389 -2.1887 -0.1047
 1017MOL0     H37281   1.389   1.452   8.335 -0.9215  0.8850 -0.9329
 1017MOL0     H37282   1.590   1.498   8.488  0.1247  1.7390  2.1495
 1017MOL0     H37283   1.624   1.788   8.798  1.0560  1.7550 -0.1807
 1017MOL0     H37284   1.603   1.903   8.671 -1.2086 -1.7672  1.2346
 1017MOL0     H37285   1.841   1.909   8.627 -2.3925 -1.3935  0.0887
 1017MOL0     H37286   1.872   1.812   8.777  2.0881 -1.2474 -2.8351
 1017MOL0     H37287   1.692   1.990   8.885 -1.5636  1.2138  0.0243
 1017MOL0     H37288   1.728   2.079   8.742  2.7202 -0.4812 -1.0123
 1017MOL0     H37289   1.970   1.985   8.884 -1.2074 -0.3671 -1.1729
 1017MOL0     H37290   1.967   2.106   8.765  1.9807 -0.2428  1.0719
 1017MOL0     H37291   1.849   2.360   9.077  1.1513 -2.1376  3.6008
 1017MOL0     H37292   1.424   1.868   8.589  1.6094 -0.8795  0.6207
 1017MOL0     H37293   1.173   1.893   8.375  0.9762  0.5494  0.2725
 1017MOL0     H37294   1.093   1.801   8.497 -0.8848  1.8719  1.8590
 1017MOL0     H37295   1.217   1.923   8.554  0.9576  0.4268  0.2454
 1018MOL0     O37296   9.446   9.206   1.085  0.1426 -1.2473  0.0552
 1018MOL0     C37297   9.493   9.163   0.982  1.1938  0.7773 -0.8450
 1018MOL0     O37298   9.421   9.105   0.885 -0.0795 -0.6414 -0.3484
 1018MOL0     C37299   9.285   9.089   0.893 -0.6655 -0.2777  0.5926
 1018MOL0     C37300   9.232   8.971   0.943 -0.3045  0.2740 -0.3470
 1018MOL0     C37301   9.098   8.948   0.943 -0.3458 -0.4206 -0.2216
 1018MOL0     C37302   9.014   9.044   0.895  0.3838 -0.1428  0.3432
 1018MOL0     O37303   8.876   9.007   0.894  0.2262 -0.2351 -0.7906
 1018MOL0     C37304   8.779   9.108   0.860  0.5098  0.2741 -0.2933
 1018MOL0     C37305   8.636   9.037   0.872 -0.4273  0.4248 -0.0915
 1018MOL0     C37306   8.528   9.134   0.830  0.6371 -0.4478  0.3066
 1018MOL0     C37307   8.391   9.082   0.859  0.3937  0.8139  1.1615
 1018MOL0     C37308   8.288   9.181   0.794  0.4074 -0.1103 -0.1383
 1018MOL0     C37309   8.266   9.310   0.869 -0.2463 -0.6299 -0.6020
 1018MOL0     C37310   8.139   9.368   0.822 -0.2558 -0.5664 -0.3723
 1018MOL0     C37311   8.115   9.501   0.898  0.3542  1.3257  1.2700
 1018MOL0     N37312   8.183   9.608   0.829 -0.0064 -0.4707  0.2910
 1018MOL0     C37313   8.123   9.730   0.787 -0.3478  0.1262  0.6829
 1018MOL0     C37314   8.231   9.809   0.772  0.1129  1.0635 -0.7941
 1018MOL0     C37315   8.241   9.951   0.733  0.1156 -0.9350  0.4219
 1018MOL0     C37316   8.363   9.995   0.652  0.3165 -0.5775  0.1772
 1018MOL0     C37317   8.373  10.148   0.650 -0.2585 -0.0076 -0.4970
 1018MOL0     C37318   8.501  10.199   0.584 -1.1886  0.1241  0.1287
 1018MOL0     O37319   8.493  10.157   0.449  0.9749  0.0673  0.3663
 1018MOL0     C37320   8.580  10.221   0.356 -0.1444 -0.1188  0.6720
 1018MOL0     C37321   8.681  10.313   0.389  0.3777  0.3334  0.5691
 1018MOL0     C37322   8.756  10.373   0.286 -0.9285 -0.4072  0.9233
 1018MOL0     C37323   8.725  10.347   0.153  0.1402  0.2807  0.3092
 1018MOL0     C37324   8.786  10.420   0.036  0.0575  1.1025  0.3606
 1018MOL0     O37325   8.718  10.419  -0.077  0.5046  0.8068 -0.2605
 1018MOL0     C37326   8.768  10.488  -0.181 -0.0265  0.1139 -0.3621
 1018MOL0     C37327   8.893  10.454  -0.236 -0.5177 -0.1976  0.7830
 1018MOL0     C37328   8.937  10.528  -0.347 -0.9794 -0.3534 -0.1385
 1018MOL0     C37329   8.856  10.623  -0.403 -0.4843 -0.8332  0.1909
 1018MOL0     O37330   8.878  10.687  -0.518  0.0998  0.1206 -0.3603
 1018MOL0     C37331   8.920  10.603  -0.631  0.6957 -0.7692 -0.2098
 1018MOL0     C37332   8.787  10.560  -0.717 -0.4264  0.8528  0.0815
 1018MOL0     C37333   8.708  10.677  -0.771  0.9665 -0.3744 -0.9024
 1018MOL0     C37334   8.758  10.757  -0.894 -1.1642 -0.1760 -0.3062
 1018MOL0     C37335   8.822  10.675  -1.003 -0.4851 -0.0812 -0.1831
 1018MOL0     C37336   8.731  10.574  -1.076 -0.7791  1.2701  0.2746
 1018MOL0     C37337   8.651  10.645  -1.179  0.1851  0.2424 -0.0859
 1018MOL0     C37338   8.529  10.564  -1.241  0.0309  0.3247 -0.3965
 1018MOL0    Cl37339   8.378  10.584  -1.146 -0.0493 -0.4749  0.4784
 1018MOL0     C37340   8.736  10.663  -0.340 -0.4191  0.3352  0.3433
 1018MOL0     C37341   8.697  10.598  -0.228  0.6785  0.4838  0.4191
 1018MOL0     O37342   8.891  10.478   0.058 -0.2298 -0.0374 -0.3050
 1018MOL0     C37343   8.634  10.240   0.121 -0.1419 -0.3396 -0.4580
 1018MOL0     C37344   8.559  10.183   0.226 -1.2445 -0.6392  0.3633
 1018MOL0     N37345   8.341   9.739   0.811 -0.1542 -0.5917  0.1113
 1018MOL0     N37346   8.317   9.617   0.836 -0.6480  0.1203 -0.3622
 1018MOL0     C37347   9.058   9.163   0.843 -0.1004 -0.4379 -1.7703
 1018MOL0     C37348   9.196   9.185   0.849 -1.1567  1.0422  0.0033
 1018MOL0     C37349   9.637   9.174   0.964 -0.1987  0.6886 -1.2152
 1018MOL0     C37350   9.700   9.045   0.965 -0.5348  0.0810  0.5662
 1018MOL0     C37351   9.844   9.041   0.947  0.2289 -0.0405 -0.4118
 1018MOL0     C37352   9.915   9.158   0.928  0.6452 -0.7391 -0.2158
 1018MOL0     O37353  10.050   9.168   0.912  1.2338 -0.0073 -0.1339
 1018MOL0     C37354  10.137   9.056   0.937 -0.5408 -0.0933 -0.0730
 1018MOL0     C37355  10.163   9.043   1.091 -0.6982 -0.4310  0.2008
 1018MOL0     C37356  10.262   9.152   1.139 -0.1880  0.5373  0.6980
 1018MOL0     C37357  10.306   9.132   1.285  0.9958  0.0783 -0.5328
 1018MOL0     C37358  10.201   9.150   1.381  0.6660  0.1502  0.5375
 1018MOL0     C37359  10.117   9.186   1.451  0.1439 -0.3922 -0.9148
 1018MOL0     C37360   9.846   9.282   0.927 -0.1152 -0.3343 -0.1630
 1018MOL0     C37361   9.708   9.295   0.950  0.3631  0.1615  0.5323
 1018MOL0     C37362   9.641   9.428   0.945  0.7937 -0.0974 -0.3415
 1018MOL0     H37363   9.293   8.891   0.984  0.5142 -0.1887 -2.3385
 1018MOL0     H37364   9.055   8.856   0.980 -1.1502 -1.0924 -2.5974
 1018MOL0     H37365   8.772   9.184   0.938 -1.7326  1.7667 -1.8206
 1018MOL0     H37366   8.795   9.162   0.766 -0.1125  0.7299 -0.1420
 1018MOL0     H37367   8.619   9.010   0.977  0.4705  0.6422  0.1221
 1018MOL0     H37368   8.648   8.946   0.812  1.7105  1.1497 -0.8786
 1018MOL0     H37369   8.543   9.153   0.723  0.8050 -1.7431  0.0837
 1018MOL0     H37370   8.544   9.226   0.886 -2.0828  0.6848 -0.5849
 1018MOL0     H37371   8.382   8.990   0.802  2.2760  0.2609  1.6983
 1018MOL0     H37372   8.371   9.060   0.964 -1.0256 -0.7096  0.6154
 1018MOL0     H37373   8.316   9.214   0.693  2.6030  2.4815  1.1642
 1018MOL0     H37374   8.194   9.125   0.789  0.1435  0.4153 -2.5713
 1018MOL0     H37375   8.283   9.288   0.975  2.7985  4.1995  0.1900
 1018MOL0     H37376   8.354   9.370   0.845  1.3350 -3.1475 -1.5200
 1018MOL0     H37377   8.062   9.292   0.839  2.4124 -3.4930 -0.4748
 1018MOL0     H37378   8.141   9.399   0.717 -1.1714  1.4744  0.1496
 1018MOL0     H37379   8.007   9.514   0.887  0.0728 -1.4069 -0.1790
 1018MOL0     H37380   8.148   9.498   1.002 -2.4913  0.5768  2.2488
 1018MOL0     H37381   8.017   9.745   0.766 -0.1511 -0.1251 -0.6268
 1018MOL0     H37382   8.153   9.988   0.680  0.4681  0.5619  0.8216
 1018MOL0     H37383   8.238  10.004   0.829  0.7914  0.1387 -0.1297
 1018MOL0     H37384   8.453   9.948   0.692 -0.5776 -1.0992  1.6699
 1018MOL0     H37385   8.346   9.966   0.547 -4.1822  2.1117 -0.0791
 1018MOL0     H37386   8.374  10.177   0.756 -3.0364  0.7656 -0.5957
 1018MOL0     H37387   8.287  10.201   0.609  0.2872  1.8341  0.6066
 1018MOL0     H37388   8.593  10.167   0.633 -2.4061 -1.6168  1.3555
 1018MOL0     H37389   8.502  10.308   0.593  1.7848  0.1698  0.2169
 1018MOL0     H37390   8.703  10.343   0.491 -0.3454 -1.3260  1.2455
 1018MOL0     H37391   8.832  10.445   0.312 -0.6430 -1.6016  3.6785
 1018MOL0     H37392   8.954  10.371  -0.203 -1.4104 -1.8632 -1.4938
 1018MOL0     H37393   9.027  10.500  -0.400  0.8012  0.4507  2.3127
 1018MOL0     H37394   8.994  10.661  -0.686 -0.5807  0.4732 -0.6757
 1018MOL0     H37395   8.967  10.510  -0.596 -0.2421 -1.3131 -0.3459
 1018MOL0     H37396   8.827  10.495  -0.795  2.0004  2.0096  0.2494
 1018MOL0     H37397   8.715  10.502  -0.659 -2.9548  3.4535 -0.1994
 1018MOL0     H37398   8.609  10.641  -0.800  0.2626  1.5790 -1.0903
 1018MOL0     H37399   8.686  10.744  -0.688  1.2549 -0.3876 -0.8150
 1018MOL0     H37400   8.836  10.825  -0.857 -0.0019 -1.5158 -0.2036
 1018MOL0     H37401   8.678  10.819  -0.934  0.0563  2.5450  1.1718
 1018MOL0     H37402   8.903  10.617  -0.957  0.2177 -1.5538 -3.0759
 1018MOL0     H37403   8.877  10.735  -1.076 -1.5804  0.7119 -0.3934
 1018MOL0     H37404   8.798  10.506  -1.129 -0.3578  1.3371  0.7177
 1018MOL0     H37405   8.674  10.515  -1.004  0.0250 -0.3930 -0.4178
 1018MOL0     H37406   8.710  10.672  -1.267  0.9997 -0.3265  0.2696
 1018MOL0     H37407   8.607  10.736  -1.138  0.2808  0.0135  0.5329
 1018MOL0     H37408   8.505  10.591  -1.345  0.4949 -0.1651 -0.6325
 1018MOL0     H37409   8.562  10.460  -1.239  1.2004  0.5979 -2.5755
 1018MOL0     H37410   8.682  10.750  -0.378  0.8115  1.1490  0.3853
 1018MOL0     H37411   8.608  10.631  -0.175 -0.0563  1.1313 -1.1647
 1018MOL0     H37412   8.611  10.213   0.019  0.1526  1.0196 -0.8998
 1018MOL0     H37413   8.494  10.099   0.204  0.4278 -1.4197 -1.9060
 1018MOL0     H37414   8.990   9.239   0.806  1.2748  2.2946  0.8918
 1018MOL0     H37415   9.244   9.280   0.827  3.0527 -0.8080  0.3232
 1018MOL0     H37416   9.639   8.955   0.964 -4.0544  2.2176 -3.0858
 1018MOL0     H37417   9.889   8.942   0.950  2.6313  0.9753 -0.8537
 1018MOL0     H37418  10.231   9.080   0.886  1.6336 -0.8489  3.2911
 1018MOL0     H37419  10.090   8.966   0.896 -1.2646  0.8724 -1.4477
 1018MOL0     H37420  10.213   8.947   1.107  0.5693 -0.2779 -2.3154
 1018MOL0     H37421  10.065   9.049   1.140 -0.1708 -3.2584  1.7924
 1018MOL0     H37422  10.215   9.251   1.131 -0.2688  0.4384 -0.0873
 1018MOL0     H37423  10.346   9.159   1.070 -0.6530 -0.5208  0.0060
 1018MOL0     H37424  10.324   9.024   1.295  0.5404  0.1462  1.5757
 1018MOL0     H37425  10.398   9.188   1.303  0.9389  0.7586 -2.2326
 1018MOL0     H37426  10.051   9.223   1.527  0.7577 -0.0287 -0.5479
 1018MOL0     H37427   9.911   9.368   0.918  0.8443 -0.9324  0.9438
 1018MOL0     H37428   9.588   9.439   1.040  0.6298 -1.3741 -0.2661
 1018MOL0     H37429   9.721   9.501   0.933  1.2753 -0.8709 -2.0714
 1018MOL0     H37430   9.574   9.433   0.859 -1.5792  0.3658  1.4228
 1019MOL0     O37431   5.718  11.304   2.301 -0.1607 -0.7909  0.1146
 1019MOL0     C37432   5.652  11.291   2.196 -0.4986 -0.3785  0.5362
 1019MOL0     O37433   5.565  11.191   2.166 -0.6269 -0.4029  0.1800
 1019MOL0     C37434   5.543  11.088   2.247 -0.5820  0.5054 -1.0342
 1019MOL0     C37435   5.512  10.965   2.188  0.2676 -0.2400 -0.4033
 1019MOL0     C37436   5.463  10.859   2.270  0.8533 -0.1959  0.0073
 1019MOL0     C37437   5.443  10.884   2.406  0.3483 -0.3299  0.2396
 1019MOL0     O37438   5.374  10.779   2.475  0.5196  0.2882 -0.0161
 1019MOL0     C37439   5.373  10.765   2.620 -0.5467 -0.7118 -0.2740
 1019MOL0     C37440   5.397  10.624   2.667 -0.1267 -0.5936  0.0753
 1019MOL0     C37441   5.288  10.520   2.647  0.3819 -1.4531  0.2586
 1019MOL0     C37442   5.240  10.478   2.786  0.6318 -0.8086 -1.0913
 1019MOL0     C37443   5.106  10.403   2.779 -0.2518 -0.8049  0.4974
 1019MOL0     C37444   5.052  10.368   2.924 -0.4089 -0.3475  0.2169
 1019MOL0     C37445   4.922  10.292   2.926 -0.2666 -0.3479  0.6430
 1019MOL0     C37446   4.804  10.383   2.923 -0.4755 -0.4510 -0.1588
 1019MOL0     N37447   4.787  10.443   3.051  0.0335 -1.0664 -0.6194
 1019MOL0     C37448   4.800  10.582   3.083  0.4798 -0.3154  0.4821
 1019MOL0     C37449   4.798  10.599   3.215  0.9423 -0.0601 -0.4371
 1019MOL0     C37450   4.852  10.719   3.288 -0.0603  0.0565  0.0532
 1019MOL0     C37451   4.998  10.739   3.248 -0.4175 -0.0705 -0.5469
 1019MOL0     C37452   5.052  10.861   3.325 -0.7805 -0.3939  0.1736
 1019MOL0     C37453   5.198  10.899   3.296  0.3636 -0.0946 -0.8007
 1019MOL0     O37454   5.281  10.807   3.368  0.1772 -0.6509  0.2808
 1019MOL0     C37455   5.417  10.808   3.336  0.5752 -0.6728 -1.0297
 1019MOL0     C37456   5.503  10.721   3.412  0.9296 -0.8500  0.5530
 1019MOL0     C37457   5.636  10.722   3.387 -0.0771  0.1147 -0.2284
 1019MOL0     C37458   5.698  10.812   3.294  0.4048  0.7423 -0.8351
 1019MOL0     C37459   5.839  10.803   3.261  0.1698  0.7807 -0.4862
 1019MOL0     O37460   5.890  10.858   3.150  0.5231 -0.9842  0.6976
 1019MOL0     C37461   6.018  10.902   3.139 -0.2223  0.3735 -0.9298
 1019MOL0     C37462   6.069  10.920   3.009  0.7944 -0.4789 -0.6549
 1019MOL0     C37463   6.198  10.954   2.981 -0.4331  0.5712 -0.3804
 1019MOL0     C37464   6.279  10.987   3.088  0.4865  0.7776 -0.1164
 1019MOL0     O37465   6.396  11.041   3.068 -0.5784  0.1316  0.1095
 1019MOL0     C37466   6.492  10.946   3.006  0.0831  0.5494 -0.4897
 1019MOL0     C37467   6.617  10.921   3.086 -0.6434 -0.1924  0.5770
 1019MOL0     C37468   6.723  10.856   2.999 -0.0996 -0.3121 -0.2240
 1019MOL0     C37469   6.841  10.804   3.094 -0.0961  1.0223 -0.2190
 1019MOL0     C37470   6.972  10.789   3.012  0.2048 -0.1275 -0.1822
 1019MOL0     C37471   7.086  10.745   3.111 -0.4780  0.9240  0.2853
 1019MOL0     C37472   7.223  10.738   3.043 -0.0385 -0.6031  0.7786
 1019MOL0     C37473   7.341  10.729   3.150 -0.0610 -0.8569 -0.0974
 1019MOL0    Cl37474   7.497  10.715   3.064 -0.2844  0.0849  0.2231
 1019MOL0     C37475   6.240  10.959   3.216  1.3517  0.0930 -1.1224
 1019MOL0     C37476   6.110  10.923   3.242  0.9988 -0.2283 -0.4423
 1019MOL0     O37477   5.905  10.744   3.345 -0.8976  0.0546  0.3657
 1019MOL0     C37478   5.610  10.895   3.225 -0.2681 -0.2291 -0.0158
 1019MOL0     C37479   5.474  10.885   3.239  0.1827  0.1884 -0.8554
 1019MOL0     N37480   4.778  10.470   3.272  0.0135 -0.6588 -0.1945
 1019MOL0     N37481   4.772  10.390   3.174  1.1900 -0.0417 -0.1233
 1019MOL0     C37482   5.476  11.002   2.468 -0.3571 -0.2982  0.3879
 1019MOL0     C37483   5.535  11.100   2.386  0.6420  1.2648 -1.1861
 1019MOL0     C37484   5.663  11.406   2.095 -0.4661  0.0784 -0.0988
 1019MOL0     C37485   5.733  11.519   2.128 -0.5519  0.0001 -0.2149
 1019MOL0     C37486   5.744  11.632   2.052  0.3647  0.4120 -0.3957
 1019MOL0     C37487   5.662  11.648   1.942 -0.2888 -0.0931  0.6602
 1019MOL0     O37488   5.660  11.768   1.881 -0.5742 -0.2102 -0.2831
 1019MOL0     C37489   5.727  11.780   1.757 -0.3575  0.4015 -0.9987
 1019MOL0     C37490   5.758  11.929   1.732  0.4416  0.1133  1.1312
 1019MOL0     C37491   5.841  11.975   1.843  0.2552  0.7651 -0.0838
 1019MOL0     C37492   5.873  12.125   1.813  0.2811  0.1588  0.1502
 1019MOL0     C37493   5.996  12.165   1.874 -0.0486 -0.2346 -0.1960
 1019MOL0     C37494   6.109  12.196   1.913  0.1915  0.1169  0.4886
 1019MOL0     C37495   5.585  11.533   1.894  0.1534  0.5472  1.2203
 1019MOL0     C37496   5.590  11.416   1.971 -0.2709 -0.4501 -0.3144
 1019MOL0     C37497   5.511  11.295   1.912  0.1840 -0.1941 -0.1010
 1019MOL0     H37498   5.547  10.953   2.085 -0.8328 -1.6695 -0.6523
 1019MOL0     H37499   5.429  10.772   2.214 -5.9050  2.1764 -0.4909
 1019MOL0     H37500   5.443  10.834   2.668 -0.7798  0.1180 -1.1055
 1019MOL0     H37501   5.277  10.798   2.660 -1.7837 -0.1186 -3.4434
 1019MOL0     H37502   5.436  10.621   2.769  0.4286 -3.9610 -0.1255
 1019MOL0     H37503   5.486  10.600   2.608  0.8557  3.3690 -0.4015
 1019MOL0     H37504   5.320  10.443   2.575  1.4217 -0.6990 -0.1115
 1019MOL0     H37505   5.204  10.563   2.591  2.0199  0.6848 -0.6741
 1019MOL0     H37506   5.316  10.406   2.819  1.3861  0.5707  0.3122
 1019MOL0     H37507   5.240  10.559   2.861  0.1717 -0.4502 -1.4739
 1019MOL0     H37508   5.038  10.455   2.711  2.8902  0.2098 -2.1399
 1019MOL0     H37509   5.138  10.310   2.731 -1.3963 -1.5322  1.0826
 1019MOL0     H37510   5.132  10.319   2.980  0.9481  0.0427 -1.2787
 1019MOL0     H37511   5.024  10.460   2.977 -2.8522 -1.6515  1.3489
 1019MOL0     H37512   4.914  10.242   3.023 -1.1756 -0.1384  0.6840
 1019MOL0     H37513   4.917  10.223   2.842 -5.2130  0.4993 -0.0368
 1019MOL0     H37514   4.815  10.459   2.845  1.3971 -0.0780  0.4202
 1019MOL0     H37515   4.710  10.329   2.907 -2.3314  3.0965 -2.5466
 1019MOL0     H37516   4.832  10.660   3.014  0.9896 -0.0765  0.9737
 1019MOL0     H37517   4.790  10.809   3.282  1.3506  0.9909 -1.7101
 1019MOL0     H37518   4.852  10.686   3.393  1.0880 -1.4103 -0.3789
 1019MOL0     H37519   5.058  10.650   3.273  1.3668  0.9890 -0.8822
 1019MOL0     H37520   5.000  10.745   3.139  1.4724  1.6595 -0.4755
 1019MOL0     H37521   5.049  10.860   3.435  0.2648 -1.1922  0.2118
 1019MOL0     H37522   4.993  10.949   3.298  0.3759  0.2145 -0.4476
 1019MOL0     H37523   5.211  11.003   3.328  0.6684  0.1963 -1.8312
 1019MOL0     H37524   5.209  10.902   3.188  0.4154  0.6139 -0.7817
 1019MOL0     H37525   5.472  10.654   3.491 -0.4761  0.2972  1.0126
 1019MOL0     H37526   5.691  10.641   3.435 -0.7087 -0.5603 -0.6201
 1019MOL0     H37527   5.997  10.905   2.929 -0.5191 -2.2150  0.7665
 1019MOL0     H37528   6.249  10.974   2.887  0.5577 -2.0523 -0.4838
 1019MOL0     H37529   6.440  10.853   2.983  0.7532  0.2725 -0.9144
 1019MOL0     H37530   6.529  11.000   2.918  3.6104  0.1512  0.5666
 1019MOL0     H37531   6.660  11.016   3.119  0.9828  0.2671 -2.5089
 1019MOL0     H37532   6.590  10.857   3.171  1.2718 -1.1187  0.5425
 1019MOL0     H37533   6.678  10.762   2.968  0.1219 -1.7889  3.4765
 1019MOL0     H37534   6.762  10.915   2.916  2.3028 -2.8367 -1.0394
 1019MOL0     H37535   6.806  10.708   3.132  0.7277 -0.3984 -2.8493
 1019MOL0     H37536   6.849  10.872   3.180 -1.3649 -0.4019  1.0841
 1019MOL0     H37537   7.008  10.876   2.956 -2.1344  0.8694 -0.2336
 1019MOL0     H37538   6.957  10.711   2.936  0.5039 -0.0899 -0.2814
 1019MOL0     H37539   7.080  10.803   3.204  2.3788  0.7497  0.6509
 1019MOL0     H37540   7.059  10.648   3.156  0.0177  1.4633  1.7939
 1019MOL0     H37541   7.250  10.837   3.004  0.6868  0.7160  4.2397
 1019MOL0     H37542   7.226  10.669   2.959 -1.0444  3.3136 -2.8433
 1019MOL0     H37543   7.342  10.815   3.217  3.8131  1.9464 -3.2488
 1019MOL0     H37544   7.320  10.635   3.202 -1.1435 -1.0479 -0.8396
 1019MOL0     H37545   6.309  10.986   3.296  1.3050 -0.1532 -0.9977
 1019MOL0     H37546   6.093  10.917   3.349 -0.6345 -3.1100 -0.7676
 1019MOL0     H37547   5.645  10.973   3.159 -0.5429  1.1234  1.3864
 1019MOL0     H37548   5.410  10.951   3.181  0.0234  1.9420  1.1486
 1019MOL0     H37549   5.445  11.019   2.571  1.2415 -0.6155  0.9391
 1019MOL0     H37550   5.546  11.196   2.437 -2.9973 -0.8925  4.7212
 1019MOL0     H37551   5.776  11.517   2.228 -2.4856  0.0615  0.6798
 1019MOL0     H37552   5.810  11.712   2.084  0.0764  0.8203 -0.8041
 1019MOL0     H37553   5.655  11.747   1.682 -4.5360  4.2382  0.8727
 1019MOL0     H37554   5.824  11.730   1.759  0.1411  1.3375  1.7413
 1019MOL0     H37555   5.675  11.997   1.714  1.6264  0.8514 -2.4162
 1019MOL0     H37556   5.819  11.935   1.641  0.1749  0.7536  0.9875
 1019MOL0     H37557   5.931  11.918   1.868  1.4024  1.2328 -2.8436
 1019MOL0     H37558   5.777  11.972   1.931 -0.4284  0.2389 -0.5897
 1019MOL0     H37559   5.883  12.155   1.708 -1.9629 -1.4363 -0.5862
 1019MOL0     H37560   5.806  12.194   1.864 -1.1591 -0.6076 -0.6339
 1019MOL0     H37561   6.203  12.238   1.943  1.2134  0.9821 -3.3680
 1019MOL0     H37562   5.522  11.527   1.806 -0.4202  4.0983  1.2472
 1019MOL0     H37563   5.427  11.260   1.974  0.3529 -2.1576 -0.8921
 1019MOL0     H37564   5.460  11.314   1.818  0.7777  1.4302 -0.1123
 1019MOL0     H37565   5.576  11.207   1.915  0.3240 -0.0908 -0.1067
 1020MOL0     O37566   2.883   5.821   0.725 -0.3187  0.4097  0.2700
 1020MOL0     C37567   3.003   5.822   0.694 -0.1787  1.2880 -0.2083
 1020MOL0     O37568   3.073   5.716   0.639  0.0644 -0.1095 -0.2307
 1020MOL0     C37569   3.025   5.589   0.666 -0.0983 -0.2866  1.1837
 1020MOL0     C37570   2.948   5.548   0.776  0.7918  0.1138 -1.6393
 1020MOL0     C37571   2.911   5.417   0.796 -0.3985  0.1754 -0.5826
 1020MOL0     C37572   2.957   5.316   0.711 -0.3377 -0.2089  0.5628
 1020MOL0     O37573   2.921   5.188   0.743  0.2793 -0.0803  0.1642
 1020MOL0     C37574   2.899   5.106   0.621 -0.0419  0.4286  0.1967
 1020MOL0     C37575   2.808   4.984   0.651 -0.6112  0.4212  0.8330
 1020MOL0     C37576   2.803   4.887   0.533  0.6053  0.8641  0.5847
 1020MOL0     C37577   2.681   4.783   0.541  0.3792 -0.1642 -0.0456
 1020MOL0     C37578   2.688   4.683   0.426  0.2417  0.1441 -0.0132
 1020MOL0     C37579   2.577   4.570   0.429 -0.1709  0.3762  0.3370
 1020MOL0     C37580   2.586   4.481   0.308 -0.0860 -0.7900 -0.3648
 1020MOL0     C37581   2.518   4.346   0.324  0.0976  0.0593 -0.2441
 1020MOL0     N37582   2.493   4.283   0.190  0.0788 -0.2987 -0.8893
 1020MOL0     C37583   2.578   4.278   0.082  0.4639  0.7229  0.3754
 1020MOL0     C37584   2.501   4.225  -0.017  0.9504 -0.6794  0.3910
 1020MOL0     C37585   2.538   4.183  -0.156  0.0622 -0.1700  0.2841
 1020MOL0     C37586   2.594   4.051  -0.154  0.0163  0.4156  0.2246
 1020MOL0     C37587   2.611   4.016  -0.305 -0.1846 -0.4154 -0.7677
 1020MOL0     C37588   2.647   3.869  -0.306 -0.3307 -0.1474  0.6151
 1020MOL0     O37589   2.656   3.837  -0.439 -0.4711  0.0909  0.8885
 1020MOL0     C37590   2.558   3.757  -0.479 -0.0124 -0.3651 -0.4332
 1020MOL0     C37591   2.414   3.786  -0.488 -0.2369 -0.8848  0.1186
 1020MOL0     C37592   2.325   3.683  -0.526  0.1754 -0.5421 -1.4467
 1020MOL0     C37593   2.375   3.553  -0.541  0.4604 -0.1790 -0.5186
 1020MOL0     C37594   2.280   3.455  -0.586  0.0840  0.4215  0.1650
 1020MOL0     O37595   2.326   3.323  -0.580  0.7146 -0.3960  0.4790
 1020MOL0     C37596   2.235   3.230  -0.615  0.1005 -0.2673 -0.7299
 1020MOL0     C37597   2.204   3.214  -0.751  1.2093 -0.6988 -2.4870
 1020MOL0     C37598   2.109   3.107  -0.782 -0.7828 -1.2122 -0.7012
 1020MOL0     C37599   2.046   3.033  -0.683  0.3588  0.0303 -0.4037
 1020MOL0     O37600   1.968   2.925  -0.718  0.2826  0.3014 -0.2510
 1020MOL0     C37601   1.956   2.805  -0.631  0.1581  0.2053 -0.9652
 1020MOL0     C37602   1.862   2.713  -0.703 -1.0303  1.1337  0.5140
 1020MOL0     C37603   1.815   2.580  -0.631 -0.2362 -0.3331 -0.3559
 1020MOL0     C37604   1.703   2.517  -0.715 -0.8977 -0.9916 -0.2812
 1020MOL0     C37605   1.645   2.393  -0.659 -0.1739  0.4353  0.0284
 1020MOL0     C37606   1.551   2.304  -0.747  0.5494  0.6792 -0.3053
 1020MOL0     C37607   1.428   2.374  -0.812  0.4087 -0.9953 -0.2262
 1020MOL0     C37608   1.335   2.276  -0.880  0.5760 -0.0620  0.4050
 1020MOL0    Cl37609   1.420   2.190  -1.009 -0.6941 -0.5154  0.5092
 1020MOL0     C37610   2.078   3.055  -0.556 -0.1773 -0.7636 -0.3260
 1020MOL0     C37611   2.178   3.145  -0.517  0.5371  0.5988  0.2035
 1020MOL0     O37612   2.164   3.490  -0.617 -0.2159  0.2140 -0.7486
 1020MOL0     C37613   2.506   3.521  -0.520 -0.3070  0.4184 -0.2299
 1020MOL0     C37614   2.600   3.625  -0.491 -0.0502  0.7780  0.5653
 1020MOL0     N37615   2.369   4.217   0.031  0.2794 -0.4218  0.2798
 1020MOL0     N37616   2.365   4.255   0.153  0.4794  0.3813 -0.1329
 1020MOL0     C37617   3.035   5.355   0.594  0.1730  0.1083  0.4487
 1020MOL0     C37618   3.068   5.487   0.569  0.8781  0.3549  0.0027
 1020MOL0     C37619   3.081   5.940   0.720 -0.3882  0.3177 -0.4611
 1020MOL0     C37620   3.199   5.973   0.649 -0.6549  0.6645 -0.0551
 1020MOL0     C37621   3.264   6.090   0.676  0.1574 -0.7612 -0.6780
 1020MOL0     C37622   3.229   6.175   0.778 -0.9878 -0.3879  0.8052
 1020MOL0     O37623   3.284   6.299   0.774 -0.1227 -0.0552  0.0997
 1020MOL0     C37624   3.235   6.411   0.855  0.1312  0.2129  0.3455
 1020MOL0     C37625   3.315   6.541   0.824  0.3716  0.8038  0.4090
 1020MOL0     C37626   3.253   6.657   0.902  0.0428 -0.1598 -0.0339
 1020MOL0     C37627   3.353   6.776   0.876 -0.4767  0.2440  0.2722
 1020MOL0     C37628   3.313   6.902   0.935  0.3128 -1.1798 -0.0309
 1020MOL0     C37629   3.287   7.007   0.995 -0.0606 -0.2325  0.6153
 1020MOL0     C37630   3.131   6.131   0.860  0.4436  0.2190  0.6619
 1020MOL0     C37631   3.059   6.017   0.837  0.1917 -0.1723  0.0508
 1020MOL0     C37632   2.964   5.983   0.945  0.2099 -0.6143  0.2347
 1020MOL0     H37633   2.910   5.608   0.858 -1.8379 -2.6801 -0.6550
 1020MOL0     H37634   2.843   5.386   0.874 -1.3159  3.6395  0.1456
 1020MOL0     H37635   2.872   5.168   0.535 -2.1654  2.0519  1.9587
 1020MOL0     H37636   3.001   5.070   0.603  0.4506  1.5216  0.7279
 1020MOL0     H37637   2.709   5.024   0.673 -1.6369 -1.8314  0.6524
 1020MOL0     H37638   2.841   4.916   0.731  1.0463 -0.1766 -0.2981
 1020MOL0     H37639   2.893   4.824   0.532 -1.1844 -1.8696 -0.7373
 1020MOL0     H37640   2.789   4.932   0.435  0.3924 -1.2489 -0.4090
 1020MOL0     H37641   2.674   4.723   0.632 -4.0100  1.5340  1.0113
 1020MOL0     H37642   2.588   4.839   0.527 -0.2950 -1.2292  0.1233
 1020MOL0     H37643   2.673   4.739   0.333  1.1900 -2.5958 -1.9452
 1020MOL0     H37644   2.785   4.633   0.416  0.3545  0.0183  1.4903
 1020MOL0     H37645   2.602   4.511   0.517  3.7603  0.7016 -0.3769
 1020MOL0     H37646   2.476   4.608   0.446 -0.3136  0.8952 -1.4422
 1020MOL0     H37647   2.692   4.471   0.286  0.0264 -0.5327  0.0500
 1020MOL0     H37648   2.546   4.522   0.215 -0.8474 -1.4300 -0.3316
 1020MOL0     H37649   2.575   4.275   0.383 -0.0456 -1.0589 -1.4141
 1020MOL0     H37650   2.429   4.353   0.387  0.6554 -4.0251  1.2586
 1020MOL0     H37651   2.683   4.303   0.071  0.3861  2.4112  2.8341
 1020MOL0     H37652   2.452   4.208  -0.217  0.8129  2.3353  0.1578
 1020MOL0     H37653   2.618   4.243  -0.201 -0.3379 -0.9798 -1.5940
 1020MOL0     H37654   2.691   4.048  -0.104  0.7358 -0.5271 -1.1665
 1020MOL0     H37655   2.530   3.981  -0.100  1.4095  0.0125  1.4051
 1020MOL0     H37656   2.692   4.077  -0.346 -0.0456 -1.6112 -2.3455
 1020MOL0     H37657   2.518   4.041  -0.357 -0.9927  0.8745  1.1545
 1020MOL0     H37658   2.575   3.808  -0.251  1.5432 -3.4831 -0.3363
 1020MOL0     H37659   2.747   3.843  -0.269 -0.3576 -2.6127 -0.8247
 1020MOL0     H37660   2.377   3.887  -0.473 -1.1987 -1.4750  2.0276
 1020MOL0     H37661   2.221   3.709  -0.544  0.6528  0.5202 -2.8074
 1020MOL0     H37662   2.250   3.281  -0.823  2.7404 -1.1984 -2.0151
 1020MOL0     H37663   2.094   3.092  -0.888 -0.6556  2.1438 -1.2803
 1020MOL0     H37664   2.054   2.757  -0.633 -0.4110 -1.1370  0.9011
 1020MOL0     H37665   1.921   2.831  -0.531 -3.2020  1.4021 -2.2983
 1020MOL0     H37666   1.778   2.775  -0.738  1.1527  3.2062 -1.3905
 1020MOL0     H37667   1.912   2.662  -0.786 -2.5420  1.0800 -0.4195
 1020MOL0     H37668   1.894   2.505  -0.627 -1.1036 -1.2817 -0.7603
 1020MOL0     H37669   1.783   2.619  -0.533  1.1077  2.1141 -0.8010
 1020MOL0     H37670   1.737   2.497  -0.817  1.1643  1.9193 -0.2605
 1020MOL0     H37671   1.623   2.591  -0.715 -1.6599 -1.7076 -2.4475
 1020MOL0     H37672   1.599   2.425  -0.565  3.5424  2.9909  1.2245
 1020MOL0     H37673   1.733   2.333  -0.633  0.0239  0.8139  0.2533
 1020MOL0     H37674   1.615   2.249  -0.817  0.7209 -1.8813  1.7215
 1020MOL0     H37675   1.509   2.223  -0.687  1.1018  1.0670  0.6189
 1020MOL0     H37676   1.469   2.440  -0.889  1.9116 -0.1674  1.2135
 1020MOL0     H37677   1.373   2.436  -0.741 -1.3201 -1.4629 -1.1133
 1020MOL0     H37678   1.295   2.211  -0.801  0.3412 -0.9371 -0.4143
 1020MOL0     H37679   1.246   2.330  -0.915  1.3376  2.4762  2.0390
 1020MOL0     H37680   2.027   2.989  -0.487  0.9310 -2.9364 -1.4598
 1020MOL0     H37681   2.189   3.150  -0.410  0.3302  1.1082  0.2065
 1020MOL0     H37682   2.533   3.416  -0.526 -0.5994  0.3469 -0.3185
 1020MOL0     H37683   2.703   3.593  -0.481 -0.1141  0.7535  1.2535
 1020MOL0     H37684   3.062   5.280   0.519 -1.6821 -0.0149 -0.1463
 1020MOL0     H37685   3.131   5.525   0.489  0.7160  1.1273  0.2339
 1020MOL0     H37686   3.242   5.908   0.573 -0.5360  2.4082 -1.5733
 1020MOL0     H37687   3.337   6.134   0.609  2.9483  0.3830  2.8496
 1020MOL0     H37688   3.234   6.395   0.963 -1.4796  0.2235  0.3537
 1020MOL0     H37689   3.131   6.412   0.820  0.3280 -1.1854 -0.3578
 1020MOL0     H37690   3.323   6.559   0.716 -1.1958  3.6800  0.6855
 1020MOL0     H37691   3.415   6.506   0.853 -0.4180 -3.7985 -1.6321
 1020MOL0     H37692   3.247   6.640   1.009 -0.1597  1.8104  0.2985
 1020MOL0     H37693   3.154   6.679   0.861  0.3850  1.1324 -0.2122
 1020MOL0     H37694   3.453   6.750   0.911 -1.5962 -2.8865  1.5325
 1020MOL0     H37695   3.350   6.804   0.770 -3.0177  1.6757  0.6240
 1020MOL0     H37696   3.265   7.099   1.045  1.0179 -0.5795  1.7733
 1020MOL0     H37697   3.110   6.179   0.955 -1.9314 -3.2445  2.0707
 1020MOL0     H37698   2.986   5.885   0.989  0.8486 -0.8309 -0.5446
 1020MOL0     H37699   2.967   6.064   1.019 -3.8796  0.4155 -0.4739
 1020MOL0     H37700   2.862   5.979   0.906 -0.0808  0.9092  0.7593
 1021MOL0     O37701   5.676   5.968   0.079  0.6581 -0.8325  0.0162
 1021MOL0     C37702   5.584   5.990   0.153 -0.0438 -0.1863  0.9088
 1021MOL0     O37703   5.504   6.091   0.147 -0.1605  0.2282 -0.3380
 1021MOL0     C37704   5.507   6.167   0.033  0.0748  0.1261  0.0893
 1021MOL0     C37705   5.590   6.278   0.038  0.7362 -0.0414 -0.6450
 1021MOL0     C37706   5.618   6.353  -0.081 -0.7707 -0.1071 -0.4670
 1021MOL0     C37707   5.554   6.325  -0.207  0.3140 -0.0840 -0.6880
 1021MOL0     O37708   5.578   6.403  -0.323 -0.0397  0.5092  0.9678
 1021MOL0     C37709   5.580   6.545  -0.311 -0.0428 -0.8111  0.8171
 1021MOL0     C37710   5.543   6.611  -0.447  0.0069 -1.1979 -1.1202
 1021MOL0     C37711   5.577   6.760  -0.436  0.9905 -0.2429  0.6445
 1021MOL0     C37712   5.512   6.824  -0.565 -0.2367 -0.0626 -0.5217
 1021MOL0     C37713   5.526   6.973  -0.572 -1.1115 -0.8388 -0.4360
 1021MOL0     C37714   5.474   7.028  -0.709  0.6035  0.8759 -1.0308
 1021MOL0     C37715   5.442   7.181  -0.704 -0.5471  0.2864  0.1859
 1021MOL0     C37716   5.581   7.255  -0.727 -0.2868 -0.1919 -0.9854
 1021MOL0     N37717   5.582   7.383  -0.647 -0.8162 -0.0218  0.2971
 1021MOL0     C37718   5.503   7.491  -0.649  0.4029  0.7610  0.7112
 1021MOL0     C37719   5.537   7.575  -0.548  0.3159  0.2492  0.0275
 1021MOL0     C37720   5.466   7.698  -0.509  0.2208 -0.1696  1.2421
 1021MOL0     C37721   5.377   7.668  -0.386 -0.2556 -0.8200 -0.2317
 1021MOL0     C37722   5.290   7.788  -0.338  0.2289  0.0519 -0.0832
 1021MOL0     C37723   5.354   7.935  -0.337 -0.7410  0.2941 -0.4356
 1021MOL0     O37724   5.356   7.970  -0.475  0.1711  0.0120  0.0542
 1021MOL0     C37725   5.395   8.101  -0.505  0.7901  0.7225  0.2248
 1021MOL0     C37726   5.506   8.165  -0.458 -1.2927 -0.7796  0.6892
 1021MOL0     C37727   5.548   8.294  -0.508 -0.7570  0.4286  0.2938
 1021MOL0     C37728   5.481   8.352  -0.614  0.0127  0.0363  0.4585
 1021MOL0     C37729   5.531   8.481  -0.677 -0.4021  0.2642  0.4987
 1021MOL0     O37730   5.495   8.494  -0.808 -0.0351 -0.5515  1.0475
 1021MOL0     C37731   5.516   8.614  -0.870 -0.7240  0.3179  0.5138
 1021MOL0     C37732   5.504   8.600  -1.010  0.3945  0.1135 -0.1705
 1021MOL0     C37733   5.523   8.708  -1.094  0.9333 -1.2347  0.6210
 1021MOL0     C37734   5.560   8.840  -1.038 -0.5318  0.4693 -0.5947
 1021MOL0     O37735   5.583   8.928  -1.130  0.1388 -0.0203  0.8313
 1021MOL0     C37736   5.638   9.053  -1.089 -1.4376 -0.3578 -0.8842
 1021MOL0     C37737   5.674   9.140  -1.209 -0.0189 -0.7716  0.5856
 1021MOL0     C37738   5.578   9.113  -1.336  0.5833  0.6796  0.2186
 1021MOL0     C37739   5.617   9.204  -1.457 -0.0599  0.3464  0.3119
 1021MOL0     C37740   5.541   9.159  -1.587 -1.0442 -0.2124 -0.4477
 1021MOL0     C37741   5.594   9.250  -1.700 -0.8339  0.4371  1.2037
 1021MOL0     C37742   5.568   9.191  -1.848 -0.4825  0.1451 -0.5877
 1021MOL0     C37743   5.648   9.060  -1.868  0.9306 -0.5568 -0.5586
 1021MOL0    Cl37744   5.661   9.021  -2.043 -0.2322  0.1337  0.3112
 1021MOL0     C37745   5.551   8.854  -0.897 -0.3762 -0.3431 -0.0471
 1021MOL0     C37746   5.525   8.746  -0.820  0.6759 -0.0317  0.2156
 1021MOL0     O37747   5.599   8.559  -0.608  0.3975  1.0654  0.3243
 1021MOL0     C37748   5.366   8.290  -0.662  0.8584 -0.4318 -0.0521
 1021MOL0     C37749   5.322   8.163  -0.607  0.2315  0.5701  0.1224
 1021MOL0     N37750   5.649   7.515  -0.494 -0.0455 -0.6562 -0.1407
 1021MOL0     N37751   5.675   7.408  -0.555  0.0790  0.1845 -0.1222
 1021MOL0     C37752   5.472   6.215  -0.201 -0.1617 -0.4911  0.6424
 1021MOL0     C37753   5.448   6.138  -0.084  1.2012  0.3489  0.1596
 1021MOL0     C37754   5.537   5.885   0.246  0.3477 -0.4020  0.8388
 1021MOL0     C37755   5.421   5.913   0.327 -0.2956  0.0004  0.5448
 1021MOL0     C37756   5.358   5.809   0.392 -0.3934 -0.4276 -0.2142
 1021MOL0     C37757   5.416   5.680   0.388  0.0563 -0.4166 -0.4911
 1021MOL0     O37758   5.354   5.568   0.448 -0.1028  0.3585  0.4430
 1021MOL0     C37759   5.214   5.575   0.474  0.6133 -0.4218  1.0551
 1021MOL0     C37760   5.160   5.443   0.506 -0.4458 -0.0831 -0.2333
 1021MOL0     C37761   5.109   5.355   0.390  0.1148  0.7037  0.2553
 1021MOL0     C37762   5.105   5.209   0.410 -0.9688  0.7020 -0.0668
 1021MOL0     C37763   5.008   5.173   0.511 -0.2079 -0.5857  0.8212
 1021MOL0     C37764   4.922   5.137   0.590  0.1785  0.0422  1.0629
 1021MOL0     C37765   5.538   5.660   0.324 -0.5971 -0.4695 -0.2602
 1021MOL0     C37766   5.607   5.765   0.257 -0.8963  0.1392  0.2705
 1021MOL0     C37767   5.745   5.726   0.202  0.3932 -0.0481 -0.1481
 1021MOL0     H37768   5.647   6.299   0.127 -0.4783  1.1096 -0.1094
 1021MOL0     H37769   5.696   6.429  -0.076 -0.2266 -0.7332  1.3927
 1021MOL0     H37770   5.523   6.580  -0.224 -1.1573  0.9059 -0.5387
 1021MOL0     H37771   5.681   6.578  -0.287  0.4806 -2.0124  0.3197
 1021MOL0     H37772   5.436   6.602  -0.466 -0.3463  3.4227 -2.3435
 1021MOL0     H37773   5.594   6.566  -0.533  1.1132 -4.3888  1.0084
 1021MOL0     H37774   5.686   6.761  -0.429  1.2823 -2.4012 -1.8540
 1021MOL0     H37775   5.538   6.818  -0.352 -0.7796 -2.1810  1.2503
 1021MOL0     H37776   5.540   6.774  -0.658 -0.3473 -1.3864  0.1350
 1021MOL0     H37777   5.407   6.795  -0.554 -0.2058  0.4848  1.6081
 1021MOL0     H37778   5.464   7.018  -0.494 -1.0413 -0.1792 -0.7575
 1021MOL0     H37779   5.633   6.995  -0.569 -1.1646 -0.5702  2.6404
 1021MOL0     H37780   5.539   7.007  -0.795  2.7802 -1.9140  1.1239
 1021MOL0     H37781   5.381   6.978  -0.736  1.2505 -1.2012  0.3609
 1021MOL0     H37782   5.395   7.202  -0.608  1.5744 -4.6656  2.6531
 1021MOL0     H37783   5.365   7.206  -0.779  0.6943 -1.3941 -1.7474
 1021MOL0     H37784   5.665   7.190  -0.698 -2.1323 -1.8685  0.8723
 1021MOL0     H37785   5.594   7.292  -0.829  0.1365  1.1936 -0.4685
 1021MOL0     H37786   5.419   7.506  -0.717 -0.9016 -3.1674  1.1941
 1021MOL0     H37787   5.531   7.784  -0.492 -1.3302  1.3385 -0.0961
 1021MOL0     H37788   5.408   7.723  -0.598  1.0384  2.4783  1.3649
 1021MOL0     H37789   5.313   7.581  -0.400 -1.4593  0.0927 -0.5462
 1021MOL0     H37790   5.428   7.653  -0.291 -2.9932  1.2321  1.7253
 1021MOL0     H37791   5.234   7.768  -0.246 -1.1432  1.6695 -0.4994
 1021MOL0     H37792   5.205   7.791  -0.406 -0.3539  0.6167  0.6427
 1021MOL0     H37793   5.450   7.941  -0.286 -0.7850  0.2293 -0.3450
 1021MOL0     H37794   5.285   8.007  -0.291 -0.2996 -0.3537  1.2932
 1021MOL0     H37795   5.557   8.117  -0.375 -2.2557  1.1500  2.4923
 1021MOL0     H37796   5.641   8.343  -0.478 -0.0576  0.3552 -1.6228
 1021MOL0     H37797   5.502   8.500  -1.052 -1.0692  0.5680 -1.2590
 1021MOL0     H37798   5.514   8.705  -1.202  2.2311  1.2718  0.3598
 1021MOL0     H37799   5.572   9.111  -1.024 -0.7360  1.5397 -1.7730
 1021MOL0     H37800   5.730   9.026  -1.036 -1.4421 -0.5650 -0.9803
 1021MOL0     H37801   5.663   9.247  -1.191  3.0198  0.0687 -1.6973
 1021MOL0     H37802   5.779   9.125  -1.238  0.2802 -1.7021  2.0546
 1021MOL0     H37803   5.587   9.007  -1.363 -0.7597 -0.5489  3.9396
 1021MOL0     H37804   5.471   9.123  -1.317 -0.1300  1.5366 -3.4856
 1021MOL0     H37805   5.726   9.202  -1.469  0.1451  1.3356  1.7737
 1021MOL0     H37806   5.586   9.305  -1.430 -0.6308 -0.0790  1.3007
 1021MOL0     H37807   5.432   9.168  -1.585 -1.1275 -0.8541 -1.2745
 1021MOL0     H37808   5.560   9.057  -1.623 -3.4097 -0.1991 -1.9778
 1021MOL0     H37809   5.551   9.350  -1.697 -3.2419 -0.5101  0.5866
 1021MOL0     H37810   5.703   9.258  -1.692 -0.6069 -0.6076 -0.3180
 1021MOL0     H37811   5.597   9.268  -1.920 -2.3128 -0.2588 -1.8123
 1021MOL0     H37812   5.463   9.162  -1.855 -0.5758 -1.2526  3.5095
 1021MOL0     H37813   5.745   9.065  -1.818  0.7399 -0.3035 -0.2085
 1021MOL0     H37814   5.598   8.976  -1.820 -2.5408  1.2487 -0.7147
 1021MOL0     H37815   5.564   8.950  -0.847 -1.3127  0.0034 -0.4472
 1021MOL0     H37816   5.517   8.741  -0.712 -1.8486  1.8237  0.1892
 1021MOL0     H37817   5.319   8.333  -0.750  1.5769  3.0278  1.0907
 1021MOL0     H37818   5.233   8.113  -0.646  0.9008  0.6634 -1.6183
 1021MOL0     H37819   5.423   6.190  -0.294  0.3314 -0.5354  0.3941
 1021MOL0     H37820   5.379   6.054  -0.081 -0.9559  2.0044  0.0403
 1021MOL0     H37821   5.373   6.010   0.323 -0.5848 -0.1147  1.1009
 1021MOL0     H37822   5.258   5.830   0.426 -0.8372  2.8559 -2.9669
 1021MOL0     H37823   5.158   5.616   0.389 -0.2544 -0.5933  1.5342
 1021MOL0     H37824   5.197   5.643   0.558 -0.3639  0.6493  0.0220
 1021MOL0     H37825   5.071   5.466   0.566 -0.8633  1.0170 -1.2304
 1021MOL0     H37826   5.232   5.381   0.559 -0.9032 -0.0473  0.4546
 1021MOL0     H37827   5.177   5.372   0.305  1.5777 -1.1076  0.9887
 1021MOL0     H37828   5.012   5.394   0.359  1.3405  2.7959 -1.3284
 1021MOL0     H37829   5.066   5.157   0.322  3.6877 -1.8030 -0.9786
 1021MOL0     H37830   5.202   5.164   0.433 -1.6354 -0.2816  0.8967
 1021MOL0     H37831   4.844   5.116   0.659 -1.6622 -1.0138 -1.2196
 1021MOL0     H37832   5.588   5.564   0.329 -1.1778 -0.8404 -1.2559
 1021MOL0     H37833   5.782   5.637   0.253 -0.1786 -2.6750 -3.9026
 1021MOL0     H37834   5.743   5.704   0.095  0.5881 -2.3728  0.2767
 1021MOL0     H37835   5.820   5.806   0.204  0.5704 -0.2088 -0.2670
 1022MOL0     O37836   6.438   3.926   4.569  0.1844 -0.2509  0.5763
 1022MOL0     C37837   6.354   4.005   4.619  0.0236 -0.1048  0.2632
 1022MOL0     O37838   6.220   4.001   4.589  0.0750 -0.0659  0.1738
 1022MOL0     C37839   6.144   4.101   4.642  0.6532 -0.5162 -0.1827
 1022MOL0     C37840   6.063   4.079   4.752 -0.4975 -0.0215 -0.4364
 1022MOL0     C37841   5.979   4.183   4.796  0.9105  0.5277  0.1248
 1022MOL0     C37842   5.980   4.314   4.731  0.4592 -0.0018 -0.2292
 1022MOL0     O37843   5.904   4.421   4.780  0.3793  0.9476 -0.1375
 1022MOL0     C37844   5.925   4.549   4.728 -0.2091 -0.1873 -0.3584
 1022MOL0     C37845   5.815   4.641   4.796 -0.6246  0.0670 -0.1821
 1022MOL0     C37846   5.670   4.582   4.798  1.6704  0.1918  0.1713
 1022MOL0     C37847   5.567   4.695   4.843  1.2542 -0.0499  0.8187
 1022MOL0     C37848   5.430   4.638   4.885  0.6962  0.4561  0.5526
 1022MOL0     C37849   5.348   4.603   4.761 -0.4658 -1.2433  0.1999
 1022MOL0     C37850   5.216   4.550   4.805  0.1591  0.5151 -0.3995
 1022MOL0     C37851   5.122   4.491   4.688  0.3486  0.2201 -0.0839
 1022MOL0     N37852   5.187   4.382   4.622 -0.6697  0.3148  0.6035
 1022MOL0     C37853   5.151   4.252   4.648  0.3982 -0.7542 -0.2008
 1022MOL0     C37854   5.184   4.185   4.538  0.5347  0.2552  0.2961
 1022MOL0     C37855   5.165   4.038   4.517 -0.5838  1.1294 -0.0151
 1022MOL0     C37856   5.033   3.994   4.455  0.7750 -0.1437  0.8308
 1022MOL0     C37857   4.926   3.995   4.564 -0.6909 -0.2059  0.2900
 1022MOL0     C37858   4.800   3.921   4.510  0.0804  1.1785 -0.1424
 1022MOL0     O37859   4.826   3.786   4.475 -0.1037 -0.1692  1.3206
 1022MOL0     C37860   4.717   3.727   4.414 -1.1280  0.3672 -0.2249
 1022MOL0     C37861   4.580   3.753   4.437  0.6317 -0.3214  0.0753
 1022MOL0     C37862   4.483   3.686   4.376  0.2678 -0.1595  0.1897
 1022MOL0     C37863   4.502   3.590   4.282 -0.1340 -0.4208  0.4106
 1022MOL0     C37864   4.390   3.515   4.209 -1.2615  0.2116  0.0822
 1022MOL0     O37865   4.429   3.413   4.141 -0.0497  0.2837 -0.6259
 1022MOL0     C37866   4.389   3.281   4.177  0.1558  0.2175 -0.7515
 1022MOL0     C37867   4.292   3.234   4.274  0.5345  0.3261 -0.7284
 1022MOL0     C37868   4.251   3.095   4.289  0.0387  0.7559  0.1086
 1022MOL0     C37869   4.319   3.010   4.211 -0.2386  0.2374  0.3261
 1022MOL0     O37870   4.284   2.882   4.208  0.5103 -0.5139  0.1843
 1022MOL0     C37871   4.142   2.842   4.203 -0.1041  0.7321 -0.7837
 1022MOL0     C37872   4.107   2.696   4.165 -0.6308  0.2007  0.5892
 1022MOL0     C37873   4.185   2.651   4.037 -0.0857  0.6419  0.5503
 1022MOL0     C37874   4.117   2.524   3.976 -0.1356 -0.4166  0.0084
 1022MOL0     C37875   4.211   2.444   3.873  0.9626 -0.0766 -0.5797
 1022MOL0     C37876   4.275   2.540   3.774 -0.9351 -0.2058  0.0206
 1022MOL0     C37877   4.385   2.476   3.693  0.4325 -0.4284  0.2723
 1022MOL0     C37878   4.502   2.415   3.766 -1.3425  0.1180 -0.2164
 1022MOL0    Cl37879   4.627   2.366   3.653  0.5129  0.0292 -0.2835
 1022MOL0     C37880   4.424   3.049   4.124  0.1292 -0.1018 -0.1636
 1022MOL0     C37881   4.459   3.183   4.106  1.4717 -0.2523  0.4073
 1022MOL0     O37882   4.271   3.555   4.215 -0.2006  0.0234 -0.9841
 1022MOL0     C37883   4.640   3.549   4.263  1.0933  0.0791 -0.4236
 1022MOL0     C37884   4.742   3.618   4.330 -0.6955 -0.2727 -0.1862
 1022MOL0     N37885   5.235   4.272   4.446 -0.1420 -1.0164  0.7063
 1022MOL0     N37886   5.239   4.387   4.497 -0.0462 -0.6564 -0.4268
 1022MOL0     C37887   6.056   4.323   4.608  0.2542 -0.3728 -0.4029
 1022MOL0     C37888   6.132   4.222   4.561 -0.4369 -0.3116 -0.1676
 1022MOL0     C37889   6.407   4.090   4.730 -0.1651 -0.1362  0.3785
 1022MOL0     C37890   6.369   4.053   4.863 -0.2005 -0.9692  0.2663
 1022MOL0     C37891   6.423   4.124   4.972 -0.4093  0.9068  1.0436
 1022MOL0     C37892   6.510   4.230   4.950 -0.5954 -0.3584  1.2765
 1022MOL0     O37893   6.552   4.291   5.062 -0.2138 -0.0339  0.7229
 1022MOL0     C37894   6.643   4.402   5.063  0.2356 -1.1956  0.0550
 1022MOL0     C37895   6.615   4.502   5.173 -0.1358 -0.3720  0.0233
 1022MOL0     C37896   6.662   4.447   5.310  0.7106 -0.5291  0.2201
 1022MOL0     C37897   6.817   4.445   5.340  0.0794 -0.4311 -0.2339
 1022MOL0     C37898   6.885   4.569   5.285  0.5326  0.1008  0.2923
 1022MOL0     C37899   6.924   4.665   5.222 -0.5710 -0.0230 -0.2249
 1022MOL0     C37900   6.558   4.256   4.825  0.1061  0.3464 -0.7193
 1022MOL0     C37901   6.504   4.195   4.712  0.0283  0.0323 -0.0797
 1022MOL0     C37902   6.555   4.237   4.579 -0.1995 -0.6553  0.0822
 1022MOL0     H37903   6.076   3.986   4.805 -0.4479  0.0905 -0.2484
 1022MOL0     H37904   5.915   4.180   4.884  1.2119  1.4879  0.3855
 1022MOL0     H37905   6.021   4.601   4.734 -1.0464  1.4539 -0.6562
 1022MOL0     H37906   5.888   4.553   4.625 -0.0450  0.9529 -0.3865
 1022MOL0     H37907   5.812   4.742   4.753  0.7992 -0.5437 -1.8005
 1022MOL0     H37908   5.849   4.653   4.900  1.3229 -1.0332 -0.6434
 1022MOL0     H37909   5.653   4.498   4.866 -1.2351 -2.8372 -3.8137
 1022MOL0     H37910   5.644   4.549   4.697  2.1840 -0.1232  0.1397
 1022MOL0     H37911   5.601   4.743   4.935  0.0783  1.1726  0.6542
 1022MOL0     H37912   5.547   4.768   4.763  0.8163 -0.8439  0.1877
 1022MOL0     H37913   5.453   4.550   4.945  0.4037 -0.9304 -1.2910
 1022MOL0     H37914   5.378   4.717   4.941 -0.6031  0.4252 -0.5705
 1022MOL0     H37915   5.331   4.686   4.692  0.9819 -2.6131 -1.9462
 1022MOL0     H37916   5.413   4.545   4.694 -0.1158 -0.1681 -0.4208
 1022MOL0     H37917   5.158   4.631   4.850  1.9532  1.6575 -0.0611
 1022MOL0     H37918   5.243   4.473   4.879  1.5654  0.1884 -1.2150
 1022MOL0     H37919   5.027   4.454   4.729  0.3218 -1.3696 -1.4703
 1022MOL0     H37920   5.094   4.576   4.624  0.2122 -1.2630 -2.0870
 1022MOL0     H37921   5.108   4.208   4.737  0.4065  2.2196  1.3796
 1022MOL0     H37922   5.248   4.010   4.451 -0.7204 -2.1273  1.0419
 1022MOL0     H37923   5.164   3.986   4.613 -2.2630 -2.0259 -1.5761
 1022MOL0     H37924   5.007   4.052   4.366  0.6784 -3.5776 -1.5717
 1022MOL0     H37925   5.042   3.888   4.427  2.1682 -0.5814  2.6872
 1022MOL0     H37926   4.904   4.101   4.581 -0.4190  0.2296 -1.8290
 1022MOL0     H37927   4.959   3.944   4.655  0.0169 -0.0844  0.1062
 1022MOL0     H37928   4.752   3.985   4.435 -1.8638  5.1131  3.9483
 1022MOL0     H37929   4.727   3.918   4.591  1.2260  0.5388  0.8996
 1022MOL0     H37930   4.556   3.832   4.508  3.1437  0.3076  0.3098
 1022MOL0     H37931   4.384   3.722   4.401  0.6088  0.8522  0.1023
 1022MOL0     H37932   4.224   3.300   4.327 -0.6878 -0.2809 -1.5076
 1022MOL0     H37933   4.161   3.065   4.341 -0.1853  1.0579 -0.1048
 1022MOL0     H37934   4.093   2.865   4.298  0.1845 -2.0253  0.1105
 1022MOL0     H37935   4.101   2.903   4.122 -3.0176  0.8127  0.6186
 1022MOL0     H37936   4.125   2.633   4.253 -2.1571  0.0999  0.8616
 1022MOL0     H37937   4.001   2.673   4.148 -0.3059 -1.8937  1.0403
 1022MOL0     H37938   4.175   2.739   3.973 -1.1071  1.5691  1.9116
 1022MOL0     H37939   4.289   2.637   4.067 -0.7296  3.4353  5.0968
 1022MOL0     H37940   4.027   2.554   3.922 -0.1833 -1.4074 -0.4949
 1022MOL0     H37941   4.100   2.449   4.054 -0.6571 -1.0467 -0.6907
 1022MOL0     H37942   4.148   2.372   3.819  2.0461 -0.5900 -1.1978
 1022MOL0     H37943   4.291   2.391   3.925 -0.3348  0.3403  1.9900
 1022MOL0     H37944   4.200   2.587   3.711 -1.0610 -1.9626 -1.2318
 1022MOL0     H37945   4.331   2.621   3.822 -0.8360 -1.5808  2.3926
 1022MOL0     H37946   4.426   2.552   3.625  1.8583 -2.1871 -0.9137
 1022MOL0     H37947   4.336   2.399   3.633 -0.2827  0.4025 -0.2509
 1022MOL0     H37948   4.548   2.481   3.841  0.4559 -0.3089 -0.8944
 1022MOL0     H37949   4.468   2.323   3.814 -0.7387  0.1334  0.2527
 1022MOL0     H37950   4.473   2.967   4.073 -0.0564  0.2589 -0.9305
 1022MOL0     H37951   4.529   3.208   4.027  0.6083 -0.2827 -0.3749
 1022MOL0     H37952   4.663   3.471   4.191  4.5266  1.6942 -1.2533
 1022MOL0     H37953   4.846   3.596   4.312 -0.6281  0.5512 -0.8251
 1022MOL0     H37954   6.050   4.421   4.563 -1.4871  1.9601  4.2934
 1022MOL0     H37955   6.190   4.230   4.470 -1.8628  1.0448 -1.0204
 1022MOL0     H37956   6.286   3.991   4.898 -2.9544  1.5896 -1.2790
 1022MOL0     H37957   6.407   4.089   5.074  0.2211 -1.1781  0.4594
 1022MOL0     H37958   6.622   4.452   4.968  1.6620 -1.2586 -0.3051
 1022MOL0     H37959   6.743   4.364   5.085  1.0520  0.7036 -0.1543
 1022MOL0     H37960   6.506   4.514   5.181 -0.5145 -2.5543 -0.9252
 1022MOL0     H37961   6.661   4.597   5.146 -0.1848 -0.7781 -1.5422
 1022MOL0     H37962   6.619   4.346   5.315 -1.4836  0.3629  0.2296
 1022MOL0     H37963   6.609   4.510   5.382 -1.5954 -2.3252  0.2054
 1022MOL0     H37964   6.822   4.452   5.450 -0.4430 -0.0479 -0.2320
 1022MOL0     H37965   6.856   4.349   5.306 -1.1047 -0.6002 -1.1615
 1022MOL0     H37966   6.955   4.746   5.160  0.6353 -1.9907 -2.3686
 1022MOL0     H37967   6.627   4.339   4.808 -0.4761  0.9033 -0.3777
 1022MOL0     H37968   6.650   4.290   4.594 -2.2495  4.2374 -2.1470
 1022MOL0     H37969   6.563   4.151   4.511 -0.1432 -1.7145  1.3783
 1022MOL0     H37970   6.487   4.304   4.527  1.1937  2.1976  1.6793
 1023MOL0     O37971   2.062  11.434   3.337 -0.5749 -0.2594  0.4827
 1023MOL0     C37972   2.109  11.439   3.444  0.2527 -0.2886 -0.4797
 1023MOL0     O37973   2.050  11.390   3.557  0.1391  0.5199 -0.4571
 1023MOL0     C37974   1.934  11.316   3.559 -0.2216 -0.1443  0.6974
 1023MOL0     C37975   1.878  11.294   3.683  1.3715 -0.7580  0.2002
 1023MOL0     C37976   1.764  11.217   3.700  0.1960 -0.3450 -0.3225
 1023MOL0     C37977   1.692  11.167   3.598  0.4454 -0.6747  0.2797
 1023MOL0     O37978   1.575  11.103   3.642 -0.2597  0.1744 -0.1001
 1023MOL0     C37979   1.450  11.126   3.576 -0.9114 -0.1780 -0.1419
 1023MOL0     C37980   1.339  11.026   3.611 -0.7383 -0.3804  0.4466
 1023MOL0     C37981   1.360  10.889   3.537 -0.1831 -1.4986 -0.3333
 1023MOL0     C37982   1.230  10.805   3.547  0.2839 -0.7351  0.3183
 1023MOL0     C37983   1.250  10.657   3.512 -0.0547 -0.1859  0.3428
 1023MOL0     C37984   1.132  10.578   3.569 -0.5905  0.7755 -0.6605
 1023MOL0     C37985   1.110  10.436   3.513  0.0330 -0.0616 -0.3974
 1023MOL0     C37986   0.960  10.395   3.539 -0.0864 -0.2384 -0.3905
 1023MOL0     N37987   0.948  10.248   3.537 -0.2011 -0.4479  0.1479
 1023MOL0     C37988   0.960  10.163   3.645  1.2110  0.3972  0.5359
 1023MOL0     C37989   0.961  10.037   3.583 -1.0014  0.2939 -0.0168
 1023MOL0     C37990   0.989   9.908   3.660 -0.5803 -0.0974 -0.4119
 1023MOL0     C37991   1.108   9.829   3.611 -0.0960  0.1602  0.0729
 1023MOL0     C37992   1.158   9.716   3.698 -0.6928  0.4494 -0.0033
 1023MOL0     C37993   1.280   9.645   3.643  0.5098  0.8279 -1.5831
 1023MOL0     O37994   1.251   9.576   3.519 -0.8364 -0.9331 -0.1025
 1023MOL0     C37995   1.338   9.486   3.472 -0.5950 -0.8286  0.4313
 1023MOL0     C37996   1.471   9.481   3.520  0.1609 -0.1998  0.0147
 1023MOL0     C37997   1.562   9.382   3.465 -0.8154 -0.0719 -0.4896
 1023MOL0     C37998   1.524   9.309   3.356  0.1172  0.5859  0.3281
 1023MOL0     C37999   1.606   9.215   3.273  0.4013 -0.0461 -0.5708
 1023MOL0     O38000   1.568   9.185   3.143  0.3186  0.4875 -1.0137
 1023MOL0     C38001   1.652   9.100   3.071 -0.2958  0.1759  0.5105
 1023MOL0     C38002   1.616   8.968   3.050 -0.3535 -0.1093  0.4972
 1023MOL0     C38003   1.709   8.883   2.996 -0.3420 -0.1386 -0.1295
 1023MOL0     C38004   1.833   8.928   2.944 -1.0122  0.6088 -0.0328
 1023MOL0     O38005   1.931   8.826   2.899  0.2886 -0.6323  0.0491
 1023MOL0     C38006   2.061   8.860   2.845 -0.7706  0.4368 -0.1223
 1023MOL0     C38007   2.172   8.824   2.953 -0.8206 -0.5048 -0.0054
 1023MOL0     C38008   2.303   8.893   2.922 -0.1493  0.6027 -0.2584
 1023MOL0     C38009   2.421   8.844   3.008 -0.6608  1.2320  0.0097
 1023MOL0     C38010   2.552   8.926   2.997 -0.3924  0.0524  0.5312
 1023MOL0     C38011   2.682   8.844   3.015  0.3437 -0.6862  0.4491
 1023MOL0     C38012   2.710   8.818   3.167 -0.0289  0.2119 -0.6555
 1023MOL0     C38013   2.790   8.688   3.189 -0.5281  0.6747 -0.6922
 1023MOL0    Cl38014   2.923   8.671   3.069 -0.2937 -0.4679 -0.1314
 1023MOL0     C38015   1.871   9.067   2.964  0.1113  0.1363  0.3127
 1023MOL0     C38016   1.783   9.141   3.033 -0.1077 -0.5803 -0.2911
 1023MOL0     O38017   1.706   9.173   3.335  0.7695  0.5622  0.1616
 1023MOL0     C38018   1.396   9.318   3.314  0.8484  0.3900  0.1343
 1023MOL0     C38019   1.306   9.404   3.366 -0.0223 -0.4161 -0.8923
 1023MOL0     N38020   0.937  10.052   3.451  0.2032  0.3230 -0.4755
 1023MOL0     N38021   0.927  10.175   3.416  0.5266 -0.3523 -0.4911
 1023MOL0     C38022   1.736  11.195   3.474 -0.4441  0.5549 -0.1153
 1023MOL0     C38023   1.854  11.264   3.453 -0.2330 -0.8893 -0.2047
 1023MOL0     C38024   2.238  11.503   3.465 -0.4866 -0.7031 -0.9670
 1023MOL0     C38025   2.295  11.510   3.602 -0.0127  0.1484 -0.3040
 1023MOL0     C38026   2.407  11.573   3.634  1.4490 -0.7945 -0.0031
 1023MOL0     C38027   2.476  11.645   3.541 -0.7872  0.5745  0.7071
 1023MOL0     O38028   2.573  11.724   3.595 -0.4024 -0.1265  0.8403
 1023MOL0     C38029   2.639  11.831   3.519  0.6453 -0.0758 -0.4500
 1023MOL0     C38030   2.780  11.863   3.560  0.9386 -0.2344 -0.2874
 1023MOL0     C38031   2.778  11.944   3.691  0.7468 -0.3620  0.4576
 1023MOL0     C38032   2.920  11.988   3.733  0.1467 -0.2732  0.0270
 1023MOL0     C38033   2.928  12.103   3.823 -0.0027 -0.0557  0.1961
 1023MOL0     C38034   2.938  12.199   3.894 -0.3200  0.1701  0.2004
 1023MOL0     C38035   2.445  11.630   3.405  0.1559  0.2832 -0.1090
 1023MOL0     C38036   2.325  11.555   3.365 -0.2971 -0.5142 -0.1816
 1023MOL0     C38037   2.300  11.548   3.210  0.0612  0.0734 -0.3862
 1023MOL0     H38038   1.936  11.338   3.763  1.6634  0.0621 -0.4469
 1023MOL0     H38039   1.727  11.198   3.800  2.3227  0.8837  0.7683
 1023MOL0     H38040   1.413  11.226   3.597 -0.5562 -0.1469  0.3527
 1023MOL0     H38041   1.473  11.127   3.469 -2.2557  1.7712 -0.4509
 1023MOL0     H38042   1.247  11.073   3.576  0.3192  2.0297  0.7456
 1023MOL0     H38043   1.343  11.007   3.719  1.6858  2.7315  1.0548
 1023MOL0     H38044   1.449  10.845   3.584  1.6478 -0.3398 -2.4823
 1023MOL0     H38045   1.387  10.909   3.432 -1.3187 -0.9887 -0.5459
 1023MOL0     H38046   1.194  10.801   3.650 -2.5296  0.5862 -0.5057
 1023MOL0     H38047   1.154  10.848   3.481  0.0338 -0.0909  1.0111
 1023MOL0     H38048   1.256  10.650   3.403 -0.7127  0.3468  0.2671
 1023MOL0     H38049   1.343  10.613   3.548  0.8181 -0.0601 -1.6331
 1023MOL0     H38050   1.127  10.588   3.678 -1.0729  2.9796 -0.8467
 1023MOL0     H38051   1.048  10.634   3.529 -1.0379 -0.1338 -1.0238
 1023MOL0     H38052   1.162  10.358   3.569 -1.9033 -0.6950  0.6496
 1023MOL0     H38053   1.136  10.430   3.407  0.0553  2.0923 -0.5549
 1023MOL0     H38054   0.925  10.417   3.641  0.4566  0.9330 -0.4433
 1023MOL0     H38055   0.897  10.437   3.459 -1.2139 -3.4277 -1.3109
 1023MOL0     H38056   0.981  10.178   3.751  1.1680 -2.3268  1.0152
 1023MOL0     H38057   1.000   9.934   3.765  0.4530  0.6814 -0.7014
 1023MOL0     H38058   0.899   9.845   3.662 -1.0575  0.4933  3.1409
 1023MOL0     H38059   1.083   9.779   3.517  5.3097  0.3366 -1.7876
 1023MOL0     H38060   1.191   9.898   3.595 -0.2850  0.5708  0.8136
 1023MOL0     H38061   1.079   9.641   3.703  0.6826 -1.1584 -1.2002
 1023MOL0     H38062   1.173   9.756   3.798 -1.2701 -1.7052  0.9953
 1023MOL0     H38063   1.302   9.559   3.707  0.1838  0.6676 -1.6844
 1023MOL0     H38064   1.359   9.720   3.632  0.0260  2.1200  2.3677
 1023MOL0     H38065   1.507   9.536   3.607 -0.1306 -2.4293  1.6280
 1023MOL0     H38066   1.662   9.365   3.506 -0.6715  1.0198 -0.3540
 1023MOL0     H38067   1.519   8.927   3.078 -1.1794  0.2505 -1.6683
 1023MOL0     H38068   1.696   8.776   2.990  2.6187 -0.5238 -1.9497
 1023MOL0     H38069   2.091   8.791   2.765  0.3194 -0.8572  1.3415
 1023MOL0     H38070   2.056   8.962   2.806 -1.5425  0.7285  0.7372
 1023MOL0     H38071   2.147   8.859   3.053 -0.0292  1.4322 -0.4317
 1023MOL0     H38072   2.195   8.717   2.955 -0.9314 -0.5442 -0.5625
 1023MOL0     H38073   2.326   8.877   2.816  3.2311  2.6901  0.0146
 1023MOL0     H38074   2.283   8.999   2.937 -0.2113  0.2767  2.7516
 1023MOL0     H38075   2.450   8.744   2.973 -3.0967  0.8875 -1.2688
 1023MOL0     H38076   2.405   8.842   3.116 -0.2643 -1.8094  0.1066
 1023MOL0     H38077   2.544   9.011   3.065  0.4406 -3.3067  5.3674
 1023MOL0     H38078   2.566   8.959   2.894  4.3580 -2.1313  0.2006
 1023MOL0     H38079   2.677   8.750   2.960 -2.0811 -1.0300  1.1564
 1023MOL0     H38080   2.768   8.893   2.968  1.1941 -2.7676 -0.2842
 1023MOL0     H38081   2.619   8.834   3.225  1.0878 -1.9818  1.9010
 1023MOL0     H38082   2.771   8.900   3.206  1.1636 -0.8313 -0.2981
 1023MOL0     H38083   2.834   8.692   3.288  0.2829 -0.5711 -0.9725
 1023MOL0     H38084   2.732   8.595   3.189  2.8986 -1.7580 -3.4786
 1023MOL0     H38085   1.961   9.115   2.926  2.0466 -2.7499  0.9111
 1023MOL0     H38086   1.821   9.242   3.031 -0.7962 -0.3202 -1.1286
 1023MOL0     H38087   1.362   9.259   3.229 -0.2827 -1.4263  1.7663
 1023MOL0     H38088   1.208   9.418   3.321 -0.7760 -1.8679  0.2200
 1023MOL0     H38089   1.677  11.156   3.392 -2.6257  2.1370  0.5909
 1023MOL0     H38090   1.888  11.286   3.352  2.7085  0.1890  0.8912
 1023MOL0     H38091   2.249  11.457   3.685 -1.1665  0.7917 -0.4981
 1023MOL0     H38092   2.437  11.579   3.738 -0.1018  0.9293  0.3991
 1023MOL0     H38093   2.582  11.921   3.498 -0.1787 -0.6447 -0.6733
 1023MOL0     H38094   2.663  11.782   3.425 -0.0950 -1.8176  0.2258
 1023MOL0     H38095   2.828  11.924   3.484  0.1185 -1.0207 -1.4692
 1023MOL0     H38096   2.824  11.765   3.582  0.4343  0.0990  2.6171
 1023MOL0     H38097   2.727  11.893   3.774 -1.0790  0.8365  0.1239
 1023MOL0     H38098   2.717  12.034   3.677  2.2057  0.7005  0.7693
 1023MOL0     H38099   2.961  11.901   3.786  0.4394 -0.8415 -1.1018
 1023MOL0     H38100   2.983  12.010   3.647 -0.2170 -0.1785 -0.2148
 1023MOL0     H38101   2.928  12.299   3.932  2.6405  1.0279 -0.9927
 1023MOL0     H38102   2.504  11.683   3.330  2.0311  0.5852  1.5103
 1023MOL0     H38103   2.269  11.451   3.169  1.9439  0.0303 -1.8356
 1023MOL0     H38104   2.214  11.608   3.180 -1.6509 -0.4010  2.9863
 1023MOL0     H38105   2.392  11.578   3.159  2.0699 -2.1182  1.6636
 1024MOL0     O38106   2.980   5.535  10.767  0.4234  0.3687  0.2211
 1024MOL0     C38107   3.056   5.494  10.684 -0.5664 -0.2654  0.1644
 1024MOL0     O38108   3.180   5.542  10.659  0.6882 -0.3721 -0.1871
 1024MOL0     C38109   3.231   5.633  10.751 -0.8451 -0.6756 -0.9763
 1024MOL0     C38110   3.259   5.599  10.881 -0.1950  0.2193 -0.6036
 1024MOL0     C38111   3.341   5.683  10.965 -0.2859 -0.3137  0.1020
 1024MOL0     C38112   3.399   5.805  10.913 -0.7010 -0.2712 -0.0357
 1024MOL0     O38113   3.489   5.898  10.970 -0.0264  0.2401  0.8393
 1024MOL0     C38114   3.482   5.906  11.112 -0.5822  0.7379 -0.0509
 1024MOL0     C38115   3.541   6.038  11.175  1.5063  0.7571 -0.2465
 1024MOL0     C38116   3.686   6.045  11.134 -0.6365 -0.6229  0.1813
 1024MOL0     C38117   3.770   5.917  11.151  0.2173  0.6541  0.5855
 1024MOL0     C38118   3.915   5.932  11.105  0.2416  0.3848  0.4297
 1024MOL0     C38119   3.995   6.022  11.199  0.6732  0.4136 -0.0327
 1024MOL0     C38120   4.147   6.012  11.186 -0.1457  0.7186 -0.7318
 1024MOL0     C38121   4.210   6.124  11.275 -0.2591  0.3174  0.7156
 1024MOL0     N38122   4.190   6.261  11.215  0.4292  0.0472 -0.2638
 1024MOL0     C38123   4.184   6.295  11.087 -0.2331 -0.3491  0.1091
 1024MOL0     C38124   4.138   6.424  11.088  0.3041  0.4015 -0.6956
 1024MOL0     C38125   4.134   6.524  10.965 -0.0677 -0.4831 -0.5549
 1024MOL0     C38126   4.001   6.599  10.949  0.1902 -0.1813 -0.1322
 1024MOL0     C38127   4.002   6.678  10.814 -0.2565  0.0199  0.6654
 1024MOL0     C38128   3.877   6.761  10.795  0.2949 -0.2667 -0.2354
 1024MOL0     O38129   3.879   6.875  10.872  0.3146 -0.3523  0.2914
 1024MOL0     C38130   3.825   6.988  10.812 -0.5900 -0.5340 -0.2390
 1024MOL0     C38131   3.858   7.113  10.867 -0.0528 -0.5292  0.1631
 1024MOL0     C38132   3.795   7.234  10.832 -0.9103 -0.4930  0.8099
 1024MOL0     C38133   3.698   7.238  10.725 -0.9165 -0.1594  0.1676
 1024MOL0     C38134   3.637   7.356  10.670  0.5041 -0.6388  0.2317
 1024MOL0     O38135   3.664   7.484  10.722  0.0140  0.2202 -0.2115
 1024MOL0     C38136   3.578   7.597  10.703 -0.6329  0.3674 -0.6843
 1024MOL0     C38137   3.450   7.593  10.644  1.2152  0.4119 -0.4084
 1024MOL0     C38138   3.364   7.705  10.640 -1.0456  0.2923 -0.3767
 1024MOL0     C38139   3.415   7.827  10.686  0.4463 -0.4985 -0.0289
 1024MOL0     O38140   3.342   7.938  10.668 -0.2263  0.4074  0.3463
 1024MOL0     C38141   3.202   7.937  10.690  0.4057 -1.1414 -0.3827
 1024MOL0     C38142   3.140   8.079  10.714  0.9247 -0.8811  0.1961
 1024MOL0     C38143   3.203   8.151  10.830 -0.3702 -0.8057 -1.3904
 1024MOL0     C38144   3.123   8.276  10.893  1.1042 -0.2428  1.1227
 1024MOL0     C38145   3.082   8.372  10.787 -0.0939 -0.5903  0.5219
 1024MOL0     C38146   3.192   8.469  10.736  0.3986 -1.1484  0.4614
 1024MOL0     C38147   3.282   8.524  10.851  0.7002  1.2073  0.9686
 1024MOL0     C38148   3.400   8.606  10.793  0.0913  1.1352 -0.3785
 1024MOL0    Cl38149   3.365   8.785  10.810 -0.4564 -0.4834  0.0588
 1024MOL0     C38150   3.534   7.829  10.756 -0.5722  0.0497 -0.4295
 1024MOL0     C38151   3.615   7.713  10.763  0.0337  0.4097  0.0641
 1024MOL0     O38152   3.581   7.338  10.559  0.1278  0.1036 -0.2144
 1024MOL0     C38153   3.672   7.107  10.668 -0.4444  0.5920 -0.4921
 1024MOL0     C38154   3.728   6.988  10.720  0.2492 -0.7109  0.1504
 1024MOL0     N38155   4.105   6.461  11.214  0.1523 -0.7980  0.3517
 1024MOL0     N38156   4.148   6.362  11.294  0.2171 -0.7864 -0.4527
 1024MOL0     C38157   3.387   5.830  10.780 -0.0316  0.2969  0.5326
 1024MOL0     C38158   3.297   5.748  10.700  0.2190  0.3133 -0.5936
 1024MOL0     C38159   3.007   5.365  10.602 -0.2643 -0.2342  0.0314
 1024MOL0     C38160   3.089   5.307  10.508 -0.0263  0.4984 -0.6536
 1024MOL0     C38161   3.060   5.184  10.444  0.1721 -0.9237 -0.2818
 1024MOL0     C38162   2.935   5.126  10.462 -0.2260  0.5891  0.5194
 1024MOL0     O38163   2.913   5.001  10.410 -0.3919  0.3915 -0.3467
 1024MOL0     C38164   2.785   4.954  10.382 -0.2053  0.8908 -0.0527
 1024MOL0     C38165   2.799   4.807  10.350 -0.3061 -0.1615  1.1856
 1024MOL0     C38166   2.861   4.732  10.455 -0.5041 -0.0303  0.1128
 1024MOL0     C38167   2.768   4.645  10.536 -0.1430  0.4855 -0.1882
 1024MOL0     C38168   2.839   4.589  10.655  0.0963 -0.1118 -0.4362
 1024MOL0     C38169   2.905   4.536  10.740 -0.6182  0.1751 -0.4836
 1024MOL0     C38170   2.844   5.190  10.538 -0.5106  0.1906  0.5301
 1024MOL0     C38171   2.872   5.308  10.616 -0.5990 -0.4511  0.7832
 1024MOL0     C38172   2.766   5.353  10.711 -0.1319 -0.2054 -0.8854
 1024MOL0     H38173   3.208   5.519  10.933  2.4284  0.6014  2.9415
 1024MOL0     H38174   3.366   5.654  11.066 -1.9019 -0.5283  0.4582
 1024MOL0     H38175   3.374   5.912  11.129 -0.7500 -1.1126 -0.2766
 1024MOL0     H38176   3.530   5.815  11.148  2.6053  1.4979 -1.9978
 1024MOL0     H38177   3.522   6.051  11.282 -0.6873 -0.3124 -0.4318
 1024MOL0     H38178   3.485   6.119  11.128 -0.2603  0.1828  0.7607
 1024MOL0     H38179   3.715   6.133  11.193  0.9331 -0.5438 -0.6822
 1024MOL0     H38180   3.686   6.062  11.026 -0.1509  0.7638  0.3870
 1024MOL0     H38181   3.762   5.882  11.255  0.8085  1.3939  0.8900
 1024MOL0     H38182   3.723   5.842  11.087 -2.1816  2.6475 -0.1185
 1024MOL0     H38183   3.958   5.833  11.121  0.2190  0.7768  3.4149
 1024MOL0     H38184   3.928   5.968  11.002 -2.0190  1.5507  0.4903
 1024MOL0     H38185   3.977   6.129  11.182 -1.4476 -0.0540 -1.1569
 1024MOL0     H38186   3.976   6.003  11.305  0.7272  4.7575  0.9352
 1024MOL0     H38187   4.167   6.007  11.079  2.6963  0.2270 -0.2510
 1024MOL0     H38188   4.176   5.914  11.225  1.2379  1.3609 -0.0887
 1024MOL0     H38189   4.162   6.113  11.372 -1.9106  0.2703 -0.0667
 1024MOL0     H38190   4.318   6.118  11.291 -0.2373  0.8525  0.7573
 1024MOL0     H38191   4.227   6.241  11.004 -2.6744 -0.4855 -1.1634
 1024MOL0     H38192   4.213   6.599  10.975 -1.2364  0.9069 -1.4724
 1024MOL0     H38193   4.161   6.466  10.876  1.2725 -0.2362 -0.3330
 1024MOL0     H38194   3.919   6.528  10.951 -0.8747  1.0258  1.1730
 1024MOL0     H38195   3.977   6.665  11.033 -0.6153 -1.4027  0.6335
 1024MOL0     H38196   4.014   6.597  10.741  1.9286  1.7318 -1.0144
 1024MOL0     H38197   4.082   6.753  10.812 -2.7546  2.9945  3.3264
 1024MOL0     H38198   3.794   6.699  10.830  1.2269 -0.9363  0.8724
 1024MOL0     H38199   3.871   6.784  10.688  2.7004 -0.2866 -0.4359
 1024MOL0     H38200   3.939   7.131  10.937  1.9300 -0.4025 -2.0397
 1024MOL0     H38201   3.820   7.333  10.868 -0.6962 -0.2981  0.1295
 1024MOL0     H38202   3.405   7.506  10.598 -2.2336  1.6584  0.3579
 1024MOL0     H38203   3.266   7.685  10.596 -0.8449  0.8395 -1.0953
 1024MOL0     H38204   3.144   7.875  10.620 -0.1417 -0.7006 -0.3269
 1024MOL0     H38205   3.182   7.882  10.782  2.8711 -1.5945 -0.0545
 1024MOL0     H38206   3.154   8.136  10.622 -2.6611  1.3391  0.8098
 1024MOL0     H38207   3.032   8.082  10.732  0.7109 -1.9931 -0.7611
 1024MOL0     H38208   3.213   8.076  10.909 -0.3734  2.0345  1.5104
 1024MOL0     H38209   3.304   8.188  10.809  1.3724 -0.5684  5.1544
 1024MOL0     H38210   3.176   8.324  10.975  1.2852 -0.0689  0.9073
 1024MOL0     H38211   3.026   8.232  10.919  1.1978 -1.8437 -0.9608
 1024MOL0     H38212   3.000   8.438  10.816  0.2185  0.8475 -1.6633
 1024MOL0     H38213   3.043   8.314  10.703 -3.6913  2.4752 -0.1793
 1024MOL0     H38214   3.272   8.415  10.686  2.7963 -0.8249  3.6154
 1024MOL0     H38215   3.145   8.537  10.664  1.9186 -0.6521 -0.0919
 1024MOL0     H38216   3.330   8.440  10.903  2.5803  1.2989 -0.5394
 1024MOL0     H38217   3.220   8.573  10.927  1.5038 -0.6810  2.9764
 1024MOL0     H38218   3.492   8.582  10.848  0.8915  0.7123 -1.8284
 1024MOL0     H38219   3.430   8.571  10.694  3.4322 -2.8977  1.6976
 1024MOL0     H38220   3.566   7.921  10.805  1.8240 -0.7812 -0.3115
 1024MOL0     H38221   3.711   7.706  10.813  0.1709 -2.1542 -0.4176
 1024MOL0     H38222   3.591   7.104  10.595 -2.5180  1.1781  1.6446
 1024MOL0     H38223   3.682   6.897  10.683 -4.2220  0.5720  1.9925
 1024MOL0     H38224   3.421   5.924  10.736 -0.7527  0.7821  0.9749
 1024MOL0     H38225   3.260   5.768  10.600 -1.8625 -1.5589 -0.2699
 1024MOL0     H38226   3.187   5.350  10.490 -0.5542  0.9626 -2.6466
 1024MOL0     H38227   3.132   5.150  10.371  0.4367 -1.6861  0.3158
 1024MOL0     H38228   2.739   5.006  10.298  2.2221  1.8474 -0.8631
 1024MOL0     H38229   2.719   4.960  10.469  1.8931 -0.6867  1.7720
 1024MOL0     H38230   2.873   4.803  10.270 -1.3706 -0.1213  0.1677
 1024MOL0     H38231   2.708   4.759  10.314 -2.1459  2.5788  1.8837
 1024MOL0     H38232   2.909   4.794  10.531  1.1060 -3.0860  1.8129
 1024MOL0     H38233   2.938   4.671  10.408 -2.0793 -0.3688 -2.1497
 1024MOL0     H38234   2.685   4.704  10.575 -1.1245  1.3966 -3.3472
 1024MOL0     H38235   2.723   4.565  10.477 -0.1879 -0.9504  1.7364
 1024MOL0     H38236   2.961   4.475  10.808 -0.4359 -1.4359 -2.0064
 1024MOL0     H38237   2.751   5.133  10.546  0.7865 -2.4321 -1.3684
 1024MOL0     H38238   2.801   5.335  10.813 -1.3355 -0.3512 -0.4904
 1024MOL0     H38239   2.753   5.461  10.710  1.2687  0.1098  2.5011
 1024MOL0     H38240   2.665   5.312  10.699  0.0922 -0.6355 -1.3796
  11.45249  11.45249  11.45249
